FOO
138240
    1MOL0     O    1   5.863   5.650   7.632  0.2856 -0.7421  0.3090
    1MOL0     C    2   5.909   5.644   7.515  0.0944 -0.5050  0.2572
    1MOL0     O    3   5.843   5.595   7.410  0.1844 -0.1704  0.7411
    1MOL0     C    4   5.710   5.557   7.412 -0.7967  0.0412 -0.1129
    1MOL0     C    5   5.636   5.578   7.294  0.1749  0.2438 -0.3848
    1MOL0     C    6   5.499   5.542   7.284  0.3035  0.9889 -0.3923
    1MOL0     C    7   5.430   5.488   7.396  0.9524 -0.0314  0.4679
    1MOL0     O    8   5.290   5.468   7.405 -0.1373 -0.1163 -0.0547
    1MOL0     C    9   5.214   5.485   7.288  0.0308  0.5435  0.0496
    1MOL0     C   10   5.057   5.461   7.318  0.5983 -0.0462 -0.1585
    1MOL0     C   11   4.987   5.556   7.417  0.3828  0.2509 -0.2908
    1MOL0     C   12   5.011   5.692   7.360  0.4821 -1.1603 -0.6850
    1MOL0     C   13   4.916   5.794   7.428 -0.5138  0.4661  0.4102
    1MOL0     C   14   4.932   5.934   7.359  0.2263  0.4332 -0.7860
    1MOL0     C   15   4.834   6.041   7.395  0.0001  0.5077  0.4615
    1MOL0     C   16   4.694   6.009   7.342  1.3385 -0.5980  0.5859
    1MOL0     N   17   4.693   6.027   7.201  0.6925 -0.8106  0.7868
    1MOL0     C   18   4.714   6.148   7.138 -0.2074 -0.3361 -0.2542
    1MOL0     C   19   4.720   6.114   7.007 -0.6194 -0.1288 -0.1221
    1MOL0     C   20   4.742   6.225   6.901  0.7163 -0.1084 -0.4111
    1MOL0     C   21   4.610   6.266   6.830  0.3175  0.4133  0.3633
    1MOL0     C   22   4.640   6.371   6.728 -0.8629  0.1183  0.5689
    1MOL0     C   23   4.534   6.389   6.618 -0.3640  0.4035 -0.4328
    1MOL0     O   24   4.403   6.383   6.681  0.3164  0.2783 -0.0616
    1MOL0     C   25   4.313   6.355   6.586  0.2784 -0.2200 -0.0633
    1MOL0     C   26   4.286   6.229   6.536 -0.1128  0.5313 -0.1590
    1MOL0     C   27   4.188   6.205   6.441  0.4830  0.6736 -0.0312
    1MOL0     C   28   4.177   6.064   6.388  0.2004 -0.0342  0.0712
    1MOL0     C   29   4.115   6.314   6.387  0.0140  0.1407 -0.5329
    1MOL0     C   30   4.008   6.288   6.289  0.6788 -0.1854  0.3500
    1MOL0     O   31   3.896   6.364   6.321 -0.0068 -0.3798  0.4982
    1MOL0     C   32   3.779   6.344   6.248 -0.3938  0.3715 -0.0023
    1MOL0     C   33   3.765   6.367   6.112 -0.5677  0.2532  0.5981
    1MOL0     C   34   3.636   6.368   6.046 -0.0391  0.7100 -0.9335
    1MOL0     C   35   3.520   6.342   6.125 -0.3566  0.8192 -1.1571
    1MOL0     O   36   3.387   6.340   6.085 -0.5676 -0.1844 -0.1376
    1MOL0     C   37   3.371   6.381   5.949  0.0039 -0.4633 -0.1470
    1MOL0     C   38   3.223   6.371   5.911  0.0903  0.5444 -0.5094
    1MOL0     C   39   3.143   6.477   5.993  0.2337  1.0149  0.0540
    1MOL0     C   40   2.996   6.458   5.959  0.6125  0.4164 -0.5039
    1MOL0     C   41   2.907   6.557   6.041 -0.1202  1.0961 -0.4431
    1MOL0     C   42   2.919   6.706   6.030  0.8810  0.4600 -0.7996
    1MOL0     C   43   2.790   6.778   6.082  0.3414  0.2377 -0.7039
    1MOL0     C   44   2.822   6.929   6.077 -0.1445  0.9720  0.1841
    1MOL0    Cl   45   2.693   7.023   6.154 -0.1154  0.1986  0.0695
    1MOL0     C   46   3.535   6.312   6.260 -0.5815 -0.4306  0.7644
    1MOL0     C   47   3.664   6.320   6.320 -0.0021 -0.1555  0.8466
    1MOL0     O   48   4.014   6.209   6.196 -0.4332  0.1810 -1.0148
    1MOL0     C   49   4.138   6.443   6.443  0.3847  0.1143  0.3415
    1MOL0     C   50   4.230   6.459   6.548 -0.5110 -0.0357 -0.3126
    1MOL0     N   51   4.703   5.974   6.991 -0.5622 -0.1610  0.4563
    1MOL0     N   52   4.676   5.925   7.110 -0.5503 -0.2123 -0.2460
    1MOL0     C   53   5.512   5.459   7.507  0.4429 -0.5282  0.2544
    1MOL0     C   54   5.647   5.498   7.519 -0.1824  0.5814 -0.4879
    1MOL0     C   55   6.055   5.661   7.498  0.3008  0.6184 -0.1027
    1MOL0     C   56   6.111   5.640   7.376  0.1751  0.1789  0.4650
    1MOL0     C   57   6.248   5.679   7.346  0.4070 -0.7444 -0.1928
    1MOL0     C   58   6.322   5.718   7.458 -0.4764  0.0857  0.7063
    1MOL0     O   59   6.453   5.751   7.449 -0.6679  0.0369  0.5343
    1MOL0     C   60   6.526   5.731   7.330 -0.0943  0.4351 -0.2042
    1MOL0     C   61   6.674   5.738   7.357  0.1412  0.0263 -0.2197
    1MOL0     C   62   6.747   5.636   7.266  0.6292 -0.6221 -0.2961
    1MOL0     C   63   6.894   5.674   7.238  0.1978 -0.7290  0.5283
    1MOL0     C   64   6.971   5.670   7.362 -0.2153  0.1371  0.3709
    1MOL0     C   65   7.027   5.648   7.469  0.1151 -0.5501 -0.5450
    1MOL0     C   66   6.268   5.738   7.585 -0.8292 -0.1267  0.5511
    1MOL0     C   67   6.135   5.713   7.601 -0.0070 -0.5799 -0.1903
    1MOL0     H   68   5.681   5.625   7.207  0.9574 -3.3550 -2.1202
    1MOL0     H   69   5.448   5.575   7.194  1.1184  2.6814 -0.2745
    1MOL0     H   70   5.224   5.584   7.243 -1.4758  0.6878 -0.0258
    1MOL0     H   71   5.241   5.402   7.222  2.0465 -0.8372  2.4256
    1MOL0     H   72   5.003   5.475   7.224 -3.4679 -2.5376  1.5589
    1MOL0     H   73   5.046   5.359   7.355  0.6159  0.9950  2.9752
    1MOL0     H   74   4.880   5.537   7.430  0.2234 -0.1942 -1.9063
    1MOL0     H   75   5.035   5.542   7.514  1.5839  1.7348 -0.6255
    1MOL0     H   76   5.109   5.727   7.393 -0.5215 -0.5209  1.9289
    1MOL0     H   77   5.010   5.693   7.251  0.5379 -2.0170 -0.6970
    1MOL0     H   78   4.815   5.757   7.411  0.4380 -0.9947 -2.8310
    1MOL0     H   79   4.946   5.801   7.533  0.1842 -1.2687  0.3566
    1MOL0     H   80   5.033   5.972   7.377 -0.3210  0.8374  1.7528
    1MOL0     H   81   4.926   5.921   7.250 -2.9436  1.3822 -0.8324
    1MOL0     H   82   4.834   6.043   7.505 -0.8911 -1.8438  0.5590
    1MOL0     H   83   4.873   6.137   7.359  0.9456 -0.6023 -1.6028
    1MOL0     H   84   4.629   6.088   7.381  2.4856 -0.2975  2.0184
    1MOL0     H   85   4.651   5.911   7.362  0.6351 -0.6615 -1.1188
    1MOL0     H   86   4.729   6.247   7.180 -0.6108 -0.3605 -0.0489
    1MOL0     H   87   4.774   6.309   6.964  1.0124 -1.6981  1.6658
    1MOL0     H   88   4.807   6.193   6.820  1.4560 -2.2166  0.9477
    1MOL0     H   89   4.537   6.294   6.906  0.8787  0.0584  1.0431
    1MOL0     H   90   4.585   6.172   6.781  1.6651  0.0848  0.2804
    1MOL0     H   91   4.736   6.364   6.676  0.7008  0.9859  3.1497
    1MOL0     H   92   4.635   6.465   6.784 -0.5645 -0.9305  2.4101
    1MOL0     H   93   4.547   6.306   6.547 -1.1006 -0.5875  0.5531
    1MOL0     H   94   4.554   6.489   6.579  1.0670  0.3770  0.1692
    1MOL0     H   95   4.335   6.142   6.581  0.2093  0.4107 -0.7318
    1MOL0     H   96   4.267   6.017   6.428 -0.1779 -0.3351  0.5762
    1MOL0     H   97   4.092   6.002   6.419 -1.2050  1.7090 -0.1452
    1MOL0     H   98   4.180   6.063   6.279  0.0142  1.1716  0.0363
    1MOL0     H   99   3.859   6.387   6.063 -0.7078  0.1405  0.2754
    1MOL0     H  100   3.627   6.397   5.942  0.2130 -0.9532 -1.4569
    1MOL0     H  101   3.410   6.483   5.946  2.4845 -1.3200  0.2118
    1MOL0     H  102   3.426   6.313   5.883 -0.8353 -2.0880  0.7727
    1MOL0     H  103   3.213   6.383   5.803  3.0095  2.5889 -0.6776
    1MOL0     H  104   3.189   6.270   5.935 -0.1764  1.1090  1.6244
    1MOL0     H  105   3.171   6.579   5.967 -2.0033  0.9085 -3.5055
    1MOL0     H  106   3.152   6.445   6.097 -0.5276  1.5424  0.2866
    1MOL0     H  107   2.968   6.450   5.854 -2.4257 -2.9233  0.3879
    1MOL0     H  108   2.977   6.359   6.000  1.4802  1.3610  2.4589
    1MOL0     H  109   2.909   6.536   6.148 -0.0926 -0.7111 -0.7699
    1MOL0     H  110   2.804   6.535   6.010  0.5355 -1.0787 -1.2274
    1MOL0     H  111   3.006   6.728   6.091 -1.3477  2.6894  1.8652
    1MOL0     H  112   2.923   6.741   5.927 -2.4078  1.2609 -0.7857
    1MOL0     H  113   2.757   6.739   6.178  1.8275  2.7050  0.9055
    1MOL0     H  114   2.715   6.756   6.005 -2.3067  0.8469  1.5568
    1MOL0     H  115   2.814   6.969   5.975 -2.1621  1.6924  0.5882
    1MOL0     H  116   2.918   6.945   6.127 -0.1041 -2.6409  1.5077
    1MOL0     H  117   3.451   6.283   6.322  0.3303 -2.2386  1.2076
    1MOL0     H  118   3.670   6.309   6.427  2.4544 -1.4218  0.6632
    1MOL0     H  119   4.071   6.522   6.411  1.8822  0.8533 -1.0882
    1MOL0     H  120   4.241   6.560   6.586  1.6049  0.0485 -1.0586
    1MOL0     H  121   5.458   5.420   7.592 -0.0200 -2.1341 -0.7308
    1MOL0     H  122   5.699   5.477   7.612  2.7804  0.1362 -2.1249
    1MOL0     H  123   6.046   5.607   7.295 -0.4935 -0.3502  1.1985
    1MOL0     H  124   6.291   5.661   7.248  0.3222 -0.8158 -0.2164
    1MOL0     H  125   6.500   5.636   7.281 -1.5104  0.8904 -0.3959
    1MOL0     H  126   6.507   5.813   7.260  1.5091  1.3097  0.3474
    1MOL0     H  127   6.691   5.713   7.462 -1.7096 -0.5419 -0.0263
    1MOL0     H  128   6.714   5.837   7.334  0.7099 -0.0795  0.2795
    1MOL0     H  129   6.690   5.625   7.173  1.0084  0.2465 -0.6404
    1MOL0     H  130   6.735   5.538   7.314 -1.9655 -0.0744  0.2725
    1MOL0     H  131   6.886   5.771   7.188 -2.4874 -0.2000  1.8027
    1MOL0     H  132   6.930   5.600   7.166 -1.3104 -3.0559  2.0256
    1MOL0     H  133   7.071   5.634   7.566 -0.8208 -0.3845 -0.0830
    1MOL0     H  134   6.334   5.774   7.664 -0.8927 -0.1760  0.6268
    1MOL0     H  135   6.108   5.737   7.703  1.0849  1.4644 -0.3300
    2MOL0     O  136   9.590   7.028   7.934  0.3069 -0.9028 -0.0429
    2MOL0     C  137   9.628   6.910   7.929  0.3812 -0.4714  0.0309
    2MOL0     O  138   9.552   6.799   7.891  0.0605  0.6866 -0.4634
    2MOL0     C  139   9.423   6.810   7.862 -0.1613  0.0866 -0.0748
    2MOL0     C  140   9.321   6.909   7.892 -0.1939  0.2118  0.2784
    2MOL0     C  141   9.193   6.892   7.847  0.5676 -0.4335 -0.6917
    2MOL0     C  142   9.147   6.783   7.779 -0.3175 -0.0765  0.5234
    2MOL0     O  143   9.012   6.781   7.747  0.4368  0.0795  0.3398
    2MOL0     C  144   8.974   6.673   7.662 -0.1768 -0.3278 -0.0449
    2MOL0     C  145   8.826   6.689   7.630  0.5553 -0.6108  0.2469
    2MOL0     C  146   8.742   6.676   7.750  1.0774  0.3982 -0.5248
    2MOL0     C  147   8.596   6.659   7.736  0.0698  0.1191  0.2535
    2MOL0     C  148   8.520   6.786   7.704 -0.0293  1.2415  0.0428
    2MOL0     C  149   8.372   6.760   7.704 -0.0937  0.4465 -0.7635
    2MOL0     C  150   8.296   6.888   7.680  0.3695  0.3776 -0.3934
    2MOL0     C  151   8.246   6.906   7.530  0.0454 -0.1849  0.5496
    2MOL0     N  152   8.126   6.832   7.504  0.8045 -0.2515 -0.3235
    2MOL0     C  153   7.993   6.881   7.514 -0.6733  0.0200 -0.2616
    2MOL0     C  154   7.929   6.805   7.432  0.4514  0.3557  0.4845
    2MOL0     C  155   7.785   6.825   7.397  0.5573 -0.7665  0.1633
    2MOL0     C  156   7.702   6.700   7.376  0.0751  0.2812  0.1882
    2MOL0     C  157   7.560   6.729   7.348  0.0796  1.4631 -0.4661
    2MOL0     C  158   7.511   6.628   7.240 -1.0841  0.4988 -0.3901
    2MOL0     O  159   7.374   6.650   7.217  0.1818  0.2508  0.3700
    2MOL0     C  160   7.289   6.544   7.169  0.1191 -0.1407  0.0728
    2MOL0     C  161   7.154   6.562   7.176  1.2454 -0.4163 -0.2827
    2MOL0     C  162   7.071   6.469   7.125  0.7529 -0.3739 -0.5368
    2MOL0     C  163   6.921   6.491   7.119  0.3011 -0.0522 -0.3775
    2MOL0     C  164   7.125   6.345   7.073  0.5855 -0.7339 -0.2228
    2MOL0     C  165   7.040   6.233   7.056  0.8194  0.2271 -0.5104
    2MOL0     O  166   6.929   6.252   6.974 -0.5757 -0.4574  0.5810
    2MOL0     C  167   6.817   6.167   6.970  0.4253  0.7159  0.4361
    2MOL0     C  168   6.762   6.129   6.848  0.2016 -0.4111  1.1403
    2MOL0     C  169   6.649   6.045   6.838 -0.2764 -0.6728  0.0155
    2MOL0     C  170   6.578   6.009   6.952 -0.7436  0.0890  0.7182
    2MOL0     O  171   6.456   5.941   6.939 -0.2433  0.1760 -0.8229
    2MOL0     C  172   6.346   5.985   7.016 -0.0430 -0.1912 -0.8350
    2MOL0     C  173   6.225   5.935   6.954  0.2369  0.0514  0.3609
    2MOL0     C  174   6.105   5.985   7.039  0.6004 -0.3708 -0.9670
    2MOL0     C  175   5.970   5.949   6.986  0.3970 -0.7314 -1.1228
    2MOL0     C  176   5.855   6.044   7.038 -0.2240  0.9088 -0.3350
    2MOL0     C  177   5.738   6.037   6.944 -0.3581 -0.5399  0.1078
    2MOL0     C  178   5.621   6.116   6.994 -0.3968  0.1787 -0.0718
    2MOL0     C  179   5.546   6.167   6.879  0.7441 -0.0834  0.1726
    2MOL0    Cl  180   5.381   6.217   6.935 -0.0400  0.3915  0.0762
    2MOL0     C  181   6.630   6.050   7.081 -0.7489  0.1864 -0.4447
    2MOL0     C  182   6.751   6.125   7.087  0.3940  0.1942 -0.2194
    2MOL0     O  183   7.069   6.128   7.120 -0.1041  0.5977  0.0298
    2MOL0     C  184   7.259   6.336   7.062  0.3864 -0.2950  0.6332
    2MOL0     C  185   7.342   6.431   7.105  0.0687 -0.5972  0.1329
    2MOL0     N  186   8.011   6.703   7.380  0.0321 -0.5693  0.1460
    2MOL0     N  187   8.126   6.720   7.428  0.7453  0.1157 -0.5852
    2MOL0     C  188   9.241   6.679   7.764  0.2404 -0.2974 -0.5992
    2MOL0     C  189   9.373   6.689   7.801  0.4446 -0.3420  0.2447
    2MOL0     C  190   9.760   6.880   7.987  0.1187  0.9094  0.2218
    2MOL0     C  191   9.859   6.980   8.008 -0.2460  0.3856  0.3595
    2MOL0     C  192   9.982   6.949   8.066 -0.9253 -0.0337 -0.8470
    2MOL0     C  193  10.025   6.811   8.091 -0.1147 -0.1707 -0.5333
    2MOL0     O  194  10.154   6.773   8.131  0.0528 -0.6265  0.3090
    2MOL0     C  195  10.225   6.865   8.212  0.4163  0.9468  0.4899
    2MOL0     C  196  10.358   6.812   8.261 -0.0968  0.5735 -0.5110
    2MOL0     C  197  10.465   6.770   8.153  1.3099 -0.7282  0.6957
    2MOL0     C  198  10.593   6.711   8.206  0.2144  0.0850 -0.1743
    2MOL0     C  199  10.587   6.573   8.243 -0.4190 -0.1081 -0.8532
    2MOL0     C  200  10.602   6.451   8.252  0.9342  0.2398 -0.0960
    2MOL0     C  201   9.935   6.714   8.071  0.6769 -0.5899 -0.3113
    2MOL0     C  202   9.802   6.746   8.021  0.5371 -0.8788 -0.5572
    2MOL0     H  203   9.348   7.002   7.941 -0.6309  1.9669 -2.6261
    2MOL0     H  204   9.125   6.974   7.867  2.0163  0.9647 -1.3981
    2MOL0     H  205   9.025   6.668   7.565  0.9390  1.7071  0.3898
    2MOL0     H  206   8.998   6.587   7.726 -0.3999 -0.5418 -0.2481
    2MOL0     H  207   8.797   6.781   7.579  2.8051 -0.2715 -0.5397
    2MOL0     H  208   8.802   6.605   7.563 -0.2243  0.5907 -1.0324
    2MOL0     H  209   8.778   6.586   7.801  1.5545  1.1502  0.5072
    2MOL0     H  210   8.763   6.757   7.820  3.1591 -2.8412  2.9989
    2MOL0     H  211   8.569   6.588   7.657  0.6424 -0.2758  0.4024
    2MOL0     H  212   8.538   6.611   7.816 -1.5646  0.3458 -0.7372
    2MOL0     H  213   8.545   6.860   7.781  2.2403  1.3434 -0.7122
    2MOL0     H  214   8.558   6.836   7.614  3.5793  0.4598  0.9892
    2MOL0     H  215   8.345   6.679   7.635  2.7349  0.1430 -1.6429
    2MOL0     H  216   8.350   6.715   7.801  1.2525 -0.3651 -0.8093
    2MOL0     H  217   8.208   6.886   7.744  0.9870  1.5689  0.5228
    2MOL0     H  218   8.353   6.969   7.727  0.3609  0.1724 -0.0273
    2MOL0     H  219   8.325   6.892   7.456 -0.6712  0.9056 -0.4731
    2MOL0     H  220   8.223   7.013   7.529  0.3338 -0.1062  1.3013
    2MOL0     H  221   7.957   6.964   7.573 -0.4334 -0.1240  0.0919
    2MOL0     H  222   7.733   6.872   7.481 -0.0839 -1.7048  0.2954
    2MOL0     H  223   7.766   6.888   7.309 -0.3101  1.1484  1.6366
    2MOL0     H  224   7.701   6.634   7.464 -1.7455 -0.8156 -0.5976
    2MOL0     H  225   7.750   6.653   7.290 -0.6324 -2.3981  1.1671
    2MOL0     H  226   7.543   6.831   7.313  1.2249  1.4787 -1.0119
    2MOL0     H  227   7.506   6.717   7.443  0.3068  1.8355 -0.2888
    2MOL0     H  228   7.512   6.525   7.277 -2.6562 -1.4755 -4.9953
    2MOL0     H  229   7.567   6.634   7.146  1.8997  0.6222  1.2593
    2MOL0     H  230   7.117   6.660   7.202 -0.8651 -0.9197 -1.1648
    2MOL0     H  231   6.869   6.411   7.172  0.1910  1.5585  2.0980
    2MOL0     H  232   6.877   6.581   7.162 -0.0546 -0.8402  0.9460
    2MOL0     H  233   6.884   6.493   7.016 -1.2136  0.6746  0.1705
    2MOL0     H  234   6.806   6.163   6.754 -1.0065 -1.6056  0.0881
    2MOL0     H  235   6.618   6.021   6.736  0.9351  0.2790 -0.5986
    2MOL0     H  236   6.351   5.952   7.120  1.7484 -0.0782 -0.8568
    2MOL0     H  237   6.337   6.094   7.025  1.8982 -0.0818  0.2685
    2MOL0     H  238   6.215   5.981   6.855  0.8153 -0.5559  0.0154
    2MOL0     H  239   6.214   5.826   6.953  1.0404 -0.0633  1.5838
    2MOL0     H  240   6.106   6.094   7.052 -0.4161 -0.6212  1.9716
    2MOL0     H  241   6.121   5.941   7.139 -2.3168  0.4840 -0.0107
    2MOL0     H  242   5.977   5.952   6.876  2.5373  0.5369 -1.0076
    2MOL0     H  243   5.947   5.846   7.015 -0.3392 -0.5491 -1.0406
    2MOL0     H  244   5.886   6.149   7.049 -2.0315  1.3282  1.1817
    2MOL0     H  245   5.822   6.009   7.136  0.0054  0.8443 -0.2805
    2MOL0     H  246   5.770   6.078   6.848  0.8467  0.6272  0.9604
    2MOL0     H  247   5.686   5.942   6.928 -1.1519  0.0094 -0.6882
    2MOL0     H  248   5.660   6.200   7.052 -1.3481 -0.0371  0.9078
    2MOL0     H  249   5.556   6.061   7.063  0.4098  0.1523  0.6850
    2MOL0     H  250   5.534   6.086   6.805  4.2609  0.2476 -0.9361
    2MOL0     H  251   5.599   6.248   6.827  1.4415 -1.1274 -0.7944
    2MOL0     H  252   6.583   6.002   7.167  1.0293 -1.8122 -0.5284
    2MOL0     H  253   6.790   6.143   7.187  0.1708 -0.8709  0.0643
    2MOL0     H  254   7.306   6.248   7.020  0.3838  0.3991 -0.8875
    2MOL0     H  255   7.447   6.421   7.079  0.3276  0.1364  0.8498
    2MOL0     H  256   9.211   6.583   7.724  2.2987 -0.1519 -2.6979
    2MOL0     H  257   9.439   6.603   7.789  1.0531  0.0313  0.8552
    2MOL0     H  258   9.839   7.083   7.984 -0.2002 -0.0540 -1.8088
    2MOL0     H  259  10.040   7.041   8.067 -1.7028  0.4741  0.6432
    2MOL0     H  260  10.256   6.953   8.156 -2.6881  1.2906 -0.9297
    2MOL0     H  261  10.157   6.893   8.293 -0.9891  0.3299 -0.4368
    2MOL0     H  262  10.342   6.720   8.317  2.8086  0.3543  0.1211
    2MOL0     H  263  10.411   6.881   8.327  0.0283 -0.4200  0.4436
    2MOL0     H  264  10.490   6.857   8.093 -1.5334  0.6374  1.3410
    2MOL0     H  265  10.413   6.689   8.100  1.3594 -0.2332 -0.1123
    2MOL0     H  266  10.639   6.769   8.287  2.9373 -0.4576 -1.2299
    2MOL0     H  267  10.671   6.721   8.130  1.3099  2.0609  1.1229
    2MOL0     H  268  10.627   6.348   8.265  1.2478  0.5824  2.3548
    2MOL0     H  269   9.961   6.611   8.094  0.0607 -0.7008 -0.0928
    2MOL0     H  270   9.733   6.664   8.005 -1.3662  0.5627 -0.0316
    3MOL0     O  271   9.145  10.278   0.370  0.7108  0.0804 -0.5614
    3MOL0     C  272   9.142  10.161   0.418  0.7747 -0.7136 -0.4601
    3MOL0     O  273   9.210  10.121   0.525  0.4581  0.4984 -0.5036
    3MOL0     C  274   9.320  10.197   0.562 -0.5745 -0.4727 -0.7664
    3MOL0     C  275   9.440  10.168   0.514  0.1061  0.7043  0.6847
    3MOL0     C  276   9.553  10.240   0.563 -0.2051  0.4463  0.0612
    3MOL0     C  277   9.530  10.340   0.664 -0.4898  0.3734  0.0191
    3MOL0     O  278   9.640  10.406   0.720 -0.0823 -0.1915 -0.2379
    3MOL0     C  279   9.742  10.452   0.628  0.7699  0.4281 -0.5461
    3MOL0     C  280   9.839  10.547   0.694  0.6326  0.2338 -0.0297
    3MOL0     C  281   9.939  10.594   0.592 -0.2318 -0.5688  0.3604
    3MOL0     C  282  10.048  10.686   0.658  0.4293  0.1159  0.1274
    3MOL0     C  283  10.144  10.725   0.547  0.7513  0.2702 -0.2498
    3MOL0     C  284  10.074  10.790   0.429 -0.5414  0.8327 -0.0289
    3MOL0     C  285  10.167  10.852   0.324  0.7693  0.5798  0.7003
    3MOL0     C  286  10.182  10.997   0.342 -0.3723 -0.6977 -1.2454
    3MOL0     N  287  10.071  11.070   0.284 -0.1978  0.2045  0.7684
    3MOL0     C  288  10.057  11.107   0.149  0.1792 -0.5062 -0.5905
    3MOL0     C  289   9.946  11.188   0.147 -0.2131  0.2682 -0.1827
    3MOL0     C  290   9.894  11.250   0.014 -0.1539  0.6505 -0.5493
    3MOL0     C  291   9.769  11.170  -0.015  1.3496 -0.6969 -0.2191
    3MOL0     C  292   9.679  11.235  -0.126 -0.3045 -0.4765 -1.2398
    3MOL0     C  293   9.559  11.160  -0.156  0.3472  0.0932 -0.2206
    3MOL0     O  294   9.607  11.047  -0.235  0.4121 -0.3429  0.1477
    3MOL0     C  295   9.516  10.964  -0.290  0.5316  0.2935  0.3106
    3MOL0     C  296   9.561  10.893  -0.396  0.6079  0.8393 -0.4739
    3MOL0     C  297   9.489  10.779  -0.453 -0.3703 -1.0335  0.2876
    3MOL0     C  298   9.569  10.703  -0.562  0.1764  0.3551 -0.8711
    3MOL0     C  299   9.350  10.770  -0.424  0.1014 -0.0478 -0.3311
    3MOL0     C  300   9.264  10.674  -0.497  0.3657 -0.1507  0.0324
    3MOL0     O  301   9.126  10.682  -0.480  0.0454  0.4898  0.2151
    3MOL0     C  302   9.038  10.584  -0.525 -0.3485 -0.0756  0.4407
    3MOL0     C  303   9.055  10.448  -0.518 -0.6372 -0.5495  0.3513
    3MOL0     C  304   8.957  10.357  -0.542 -0.0257 -0.9999  0.5653
    3MOL0     C  305   8.832  10.401  -0.587 -0.6406  0.7262 -0.4910
    3MOL0     O  306   8.741  10.296  -0.600  0.2782  0.6958 -0.2059
    3MOL0     C  307   8.622  10.315  -0.679 -0.0654 -0.1593 -0.9650
    3MOL0     C  308   8.536  10.193  -0.663  0.2668  0.4550 -0.7216
    3MOL0     C  309   8.409  10.201  -0.754  0.0729  0.2081  0.3147
    3MOL0     C  310   8.293  10.108  -0.717 -0.6781  0.0926 -0.1205
    3MOL0     C  311   8.188  10.111  -0.828 -0.7630  0.0886  0.0801
    3MOL0     C  312   8.092   9.999  -0.819 -0.0345 -0.0531 -0.6873
    3MOL0     C  313   8.037   9.950  -0.955  0.2694  0.7520 -0.7856
    3MOL0     C  314   8.129   9.843  -1.014 -0.1544  0.6462  0.2893
    3MOL0    Cl  315   8.091   9.794  -1.181  0.1868 -0.4005 -0.0416
    3MOL0     C  316   8.812  10.536  -0.602  0.7058  0.1808 -0.8397
    3MOL0     C  317   8.915  10.633  -0.565 -0.0627  0.4360  0.0687
    3MOL0     O  318   9.312  10.590  -0.564  0.3689 -0.2726 -0.2283
    3MOL0     C  319   9.297  10.854  -0.328 -0.0498  0.0190 -0.3272
    3MOL0     C  320   9.374  10.958  -0.262 -1.0071 -0.7338 -0.0252
    3MOL0     N  321   9.884  11.178   0.267  0.4644 -0.5730  0.1736
    3MOL0     N  322   9.962  11.106   0.348 -0.4361 -0.3621 -0.5912
    3MOL0     C  323   9.404  10.355   0.724 -0.2968 -0.9677  0.1633
    3MOL0     C  324   9.303  10.281   0.671  0.2284 -0.3240  0.4476
    3MOL0     C  325   9.045  10.061   0.365 -0.2283 -0.4945 -0.1774
    3MOL0     C  326   9.034   9.931   0.422 -0.1243  0.7280  1.8515
    3MOL0     C  327   8.925   9.845   0.394  0.3678  0.2594  0.6249
    3MOL0     C  328   8.821   9.892   0.305  0.2626 -0.0491  0.0516
    3MOL0     O  329   8.707   9.817   0.282 -0.1546 -0.9491  0.7791
    3MOL0     C  330   8.680   9.707   0.364 -0.7445 -0.3617 -0.4729
    3MOL0     C  331   8.532   9.668   0.348 -0.2497 -0.5316 -0.1444
    3MOL0     C  332   8.508   9.568   0.237 -0.0667 -0.0100  0.3180
    3MOL0     C  333   8.544   9.624   0.100  0.3904  0.5652 -0.1037
    3MOL0     C  334   8.503   9.541  -0.007 -0.0705 -0.2913 -0.0772
    3MOL0     C  335   8.477   9.476  -0.104  0.4959  0.0240 -0.1153
    3MOL0     C  336   8.842  10.004   0.229  0.9600  0.4586  0.3508
    3MOL0     C  337   8.954  10.087   0.253 -0.3768 -0.3918  0.5354
    3MOL0     H  338   9.454  10.088   0.442 -1.2468  0.5674  0.5530
    3MOL0     H  339   9.655  10.212   0.539 -0.9794 -2.0882 -0.6292
    3MOL0     H  340   9.795  10.371   0.577 -0.0928  1.0426 -2.5174
    3MOL0     H  341   9.698  10.508   0.545  1.7376  2.4116  0.2198
    3MOL0     H  342   9.795  10.640   0.731  0.0716  0.1684 -0.5222
    3MOL0     H  343   9.884  10.498   0.781  0.3859 -1.6104 -0.8972
    3MOL0     H  344   9.993  10.517   0.537 -2.3571 -0.9086 -1.3870
    3MOL0     H  345   9.878  10.653   0.522 -0.8139  0.1907  1.4817
    3MOL0     H  346  10.001  10.773   0.703  1.6157  0.2033  1.2586
    3MOL0     H  347  10.100  10.629   0.736 -0.1517  0.1715  0.5646
    3MOL0     H  348  10.211  10.799   0.592  2.1253 -1.5480  0.8221
    3MOL0     H  349  10.200  10.636   0.516 -1.6490 -1.0889 -0.9526
    3MOL0     H  350  10.007  10.716   0.382 -0.3342 -0.0982  1.1161
    3MOL0     H  351  10.009  10.871   0.463 -1.1391  0.1882  0.4043
    3MOL0     H  352  10.265  10.802   0.327  1.0942  1.0937 -0.6578
    3MOL0     H  353  10.131  10.838   0.222  0.6185  3.7890  0.2039
    3MOL0     H  354  10.276  11.024   0.293  1.1223 -2.3846  0.5664
    3MOL0     H  355  10.189  11.017   0.450 -3.7644 -0.7185 -0.9090
    3MOL0     H  356  10.123  11.086   0.064 -1.7043 -0.3425 -2.1714
    3MOL0     H  357   9.880  11.358   0.031 -0.4909  0.8190 -1.8193
    3MOL0     H  358   9.969  11.243  -0.065 -1.6965 -0.8569 -1.9340
    3MOL0     H  359   9.708  11.159   0.075  1.6510 -0.8290 -0.0299
    3MOL0     H  360   9.806  11.071  -0.042  1.5057 -0.6009 -0.3581
    3MOL0     H  361   9.744  11.221  -0.213 -1.1199 -1.7252 -1.6746
    3MOL0     H  362   9.651  11.340  -0.115  0.6133 -0.1735 -1.6444
    3MOL0     H  363   9.496  11.216  -0.226  0.1942 -0.7607 -0.7836
    3MOL0     H  364   9.490  11.134  -0.075 -0.6139  1.1438 -0.6913
    3MOL0     H  365   9.662  10.913  -0.431  1.7276  1.6310  2.7949
    3MOL0     H  366   9.514  10.692  -0.655 -0.0968 -2.3814 -0.4700
    3MOL0     H  367   9.664  10.749  -0.590 -0.8302  0.8911 -3.6659
    3MOL0     H  368   9.599  10.601  -0.534  0.7849 -0.0764 -2.9367
    3MOL0     H  369   9.156  10.420  -0.488 -1.5522 -2.3393  2.0064
    3MOL0     H  370   8.987  10.252  -0.542 -1.1676 -1.4350 -2.2431
    3MOL0     H  371   8.567  10.401  -0.640  0.9019 -1.0965  2.8351
    3MOL0     H  372   8.658  10.323  -0.783  3.0558  2.2318  0.1525
    3MOL0     H  373   8.585  10.099  -0.690 -1.1591 -0.0363 -1.7399
    3MOL0     H  374   8.510  10.197  -0.557  1.9865 -0.1587 -0.2341
    3MOL0     H  375   8.443  10.181  -0.856  0.6045  0.0653  0.5182
    3MOL0     H  376   8.362  10.300  -0.761 -2.4622 -0.7770  1.8743
    3MOL0     H  377   8.332  10.006  -0.706 -1.2849 -0.6815 -3.8608
    3MOL0     H  378   8.252  10.143  -0.622  0.5761  3.0807 -0.5827
    3MOL0     H  379   8.229  10.108  -0.930  0.8142  0.6883  0.6689
    3MOL0     H  380   8.129  10.201  -0.810 -1.5684 -0.3811 -0.1739
    3MOL0     H  381   8.136   9.917  -0.761 -1.9911 -0.4728  0.3289
    3MOL0     H  382   8.018  10.043  -0.751 -0.7452 -2.7031  0.3901
    3MOL0     H  383   8.019  10.028  -1.030 -2.6363  1.2150  0.2532
    3MOL0     H  384   7.934   9.913  -0.946  0.3883  0.5331 -0.2771
    3MOL0     H  385   8.129   9.745  -0.964 -1.2164  0.3758 -0.2223
    3MOL0     H  386   8.233   9.876  -1.008  0.3042 -0.4234 -1.1178
    3MOL0     H  387   8.716  10.582  -0.625  0.3265  0.2421  0.7295
    3MOL0     H  388   8.879  10.735  -0.553 -0.1989  0.1962  2.1740
    3MOL0     H  389   9.189  10.849  -0.322 -0.1391 -1.4458 -2.1415
    3MOL0     H  390   9.321  11.028  -0.198 -1.5309  0.6929 -1.9397
    3MOL0     H  391   9.394  10.425   0.806 -1.8972  0.8368 -1.4648
    3MOL0     H  392   9.207  10.279   0.721 -0.1462  0.8033 -0.2029
    3MOL0     H  393   9.109   9.891   0.489  2.7879  0.4123 -1.3373
    3MOL0     H  394   8.911   9.749   0.443 -2.0724  1.2642  2.1006
    3MOL0     H  395   8.747   9.621   0.355 -0.4208 -0.3956  1.7979
    3MOL0     H  396   8.703   9.734   0.467 -0.3575 -0.1771 -0.6082
    3MOL0     H  397   8.466   9.752   0.324  0.1877 -0.4106 -0.9819
    3MOL0     H  398   8.500   9.621   0.441 -4.1736  0.3447 -0.9011
    3MOL0     H  399   8.399   9.557   0.231 -0.7472  4.7858 -0.2878
    3MOL0     H  400   8.564   9.477   0.262  0.5313  0.5734  1.1718
    3MOL0     H  401   8.652   9.637   0.089  0.1069  0.8804 -3.7220
    3MOL0     H  402   8.493   9.721   0.089 -1.8471 -0.0648  3.2437
    3MOL0     H  403   8.450   9.400  -0.175  4.0794 -1.7364  0.1954
    3MOL0     H  404   8.768  10.034   0.155  0.6273  0.8094  0.8235
    3MOL0     H  405   8.958  10.176   0.191  0.4522 -2.9666 -3.5267
    4MOL0     O  406   4.774   1.930   0.823  0.2324 -0.3177  0.6757
    4MOL0     C  407   4.702   1.831   0.811  0.2832 -0.1092  0.4946
    4MOL0     O  408   4.560   1.848   0.792  0.9536  0.3955 -0.5179
    4MOL0     C  409   4.498   1.971   0.788  0.2389  0.0639 -0.0824
    4MOL0     C  410   4.418   1.989   0.679  0.3570 -0.4372  1.0429
    4MOL0     C  411   4.330   2.098   0.672 -0.0912  0.6811  0.3438
    4MOL0     C  412   4.328   2.194   0.778  0.3573 -0.3597 -0.6185
    4MOL0     O  413   4.244   2.301   0.787 -0.1294  0.8310  0.2730
    4MOL0     C  414   4.097   2.281   0.771  0.1812 -0.3546  0.3724
    4MOL0     C  415   4.022   2.262   0.901  0.5997  0.2325 -0.3634
    4MOL0     C  416   4.011   2.396   0.977 -0.1016  0.1656 -0.6403
    4MOL0     C  417   3.955   2.364   1.122 -0.3971  0.1871  0.0765
    4MOL0     C  418   3.910   2.492   1.198  0.4157  0.3862  0.1677
    4MOL0     C  419   3.771   2.538   1.164 -0.5848 -0.4502 -0.3679
    4MOL0     C  420   3.665   2.450   1.100  0.0752  0.4503  0.4224
    4MOL0     C  421   3.598   2.360   1.219 -0.5134 -1.1479  0.5826
    4MOL0     N  422   3.471   2.295   1.177  0.7375 -0.1113  0.4644
    4MOL0     C  423   3.430   2.167   1.206 -0.0835  0.4502  0.2861
    4MOL0     C  424   3.308   2.160   1.146  0.0209  0.7988 -0.7145
    4MOL0     C  425   3.221   2.043   1.120 -0.4466  0.3748  0.9843
    4MOL0     C  426   3.275   1.958   1.003 -0.6534 -0.2970  0.8306
    4MOL0     C  427   3.180   1.839   0.976  0.5424 -0.3800  0.0978
    4MOL0     C  428   3.251   1.711   0.926  0.5228  0.3155 -0.0721
    4MOL0     O  429   3.169   1.642   0.830  0.4293 -0.6039 -0.0262
    4MOL0     C  430   3.057   1.575   0.872 -0.5155 -1.0398 -0.4623
    4MOL0     C  431   2.953   1.573   0.778  0.0300  0.0773  0.4457
    4MOL0     C  432   2.834   1.504   0.807 -0.0366 -0.1372  0.1264
    4MOL0     C  433   2.738   1.487   0.693  0.5888 -0.5343  0.4496
    4MOL0     C  434   2.804   1.476   0.940  0.8806 -0.1605  0.2955
    4MOL0     C  435   2.664   1.433   0.986 -0.5694 -0.3864 -0.6803
    4MOL0     O  436   2.638   1.484   1.109 -0.9608  0.6634 -0.7690
    4MOL0     C  437   2.512   1.455   1.157 -1.1065 -0.4195  0.0239
    4MOL0     C  438   2.407   1.552   1.138  0.2016  0.0266 -1.0753
    4MOL0     C  439   2.280   1.527   1.196 -0.2942  0.1265  0.1587
    4MOL0     C  440   2.250   1.399   1.241  0.1361 -0.2308 -0.0314
    4MOL0     O  441   2.132   1.356   1.293  0.2458  0.1427  0.2096
    4MOL0     C  442   2.015   1.439   1.287  0.1295  0.2770  0.3178
    4MOL0     C  443   1.893   1.362   1.318 -0.9838  0.3279  0.0354
    4MOL0     C  444   1.860   1.243   1.221 -0.0780 -0.3881  0.1604
    4MOL0     C  445   1.880   1.264   1.073  0.7671 -0.8847 -0.0420
    4MOL0     C  446   1.806   1.162   0.978  0.8031  0.0373 -0.3033
    4MOL0     C  447   1.857   1.170   0.834  0.1886 -0.1187  0.3396
    4MOL0     C  448   2.000   1.114   0.816  0.2525  0.4633  0.4011
    4MOL0     C  449   2.023   1.098   0.657  0.2666 -0.5050 -1.0279
    4MOL0    Cl  450   2.182   1.024   0.617 -0.2923  0.0442  0.0514
    4MOL0     C  451   2.346   1.305   1.259 -0.1577 -0.1877 -0.2149
    4MOL0     C  452   2.481   1.333   1.221  0.3066  0.2782 -0.1161
    4MOL0     O  453   2.596   1.355   0.913  0.4694 -0.2344  0.0242
    4MOL0     C  454   2.906   1.481   1.028  0.1964  0.4418  0.4464
    4MOL0     C  455   3.032   1.518   0.996  0.5788 -0.2906  0.2610
    4MOL0     N  456   3.276   2.273   1.082  0.1961  0.6861  0.1404
    4MOL0     N  457   3.377   2.352   1.099  0.0323  0.0895 -0.1563
    4MOL0     C  458   4.413   2.183   0.889  0.4935  0.5093 -0.0455
    4MOL0     C  459   4.500   2.067   0.896 -0.3669  0.5542 -0.2632
    4MOL0     C  460   4.753   1.692   0.824 -1.1467  0.9286 -0.1903
    4MOL0     C  461   4.665   1.583   0.815 -0.1803 -0.1660 -1.2307
    4MOL0     C  462   4.704   1.450   0.850 -0.0310 -0.1634 -0.3123
    4MOL0     C  463   4.838   1.422   0.854  0.0153  0.6849 -0.1759
    4MOL0     O  464   4.883   1.294   0.872  0.1582  0.8147  0.3902
    4MOL0     C  465   4.834   1.236   0.997  0.2080 -0.0212 -0.1471
    4MOL0     C  466   4.756   1.105   0.971 -0.0642 -0.1316 -0.6299
    4MOL0     C  467   4.832   1.011   0.879  0.5941 -0.0421 -0.6659
    4MOL0     C  468   4.769   0.866   0.871 -0.6848 -0.1135  0.3241
    4MOL0     C  469   4.849   0.803   0.773 -0.5017 -0.0061  0.2597
    4MOL0     C  470   4.907   0.740   0.688 -0.0336  0.7672  0.3710
    4MOL0     C  471   4.930   1.524   0.860 -0.7331 -0.3659 -0.3504
    4MOL0     C  472   4.885   1.663   0.848 -0.3547  0.3983  0.7483
    4MOL0     H  473   4.415   1.915   0.600 -0.1521  0.3666  0.2835
    4MOL0     H  474   4.267   2.124   0.587  0.8728  0.8711 -0.3195
    4MOL0     H  475   4.054   2.371   0.728  1.5022 -0.3805 -1.0781
    4MOL0     H  476   4.078   2.191   0.712 -2.1214 -0.9433  1.8539
    4MOL0     H  477   3.921   2.224   0.882 -0.1917 -0.2089  3.7907
    4MOL0     H  478   4.059   2.182   0.965 -1.0065 -0.1792  0.0971
    4MOL0     H  479   4.104   2.454   0.976  1.0865 -1.5389  1.7187
    4MOL0     H  480   3.944   2.460   0.920 -0.0387 -0.8890 -1.9669
    4MOL0     H  481   3.877   2.287   1.118  1.2602 -1.5260 -0.4164
    4MOL0     H  482   4.040   2.321   1.174 -1.7467  0.2499  2.4807
    4MOL0     H  483   3.923   2.475   1.305  0.4878  5.9028  1.2916
    4MOL0     H  484   3.985   2.569   1.180 -0.2805  0.5752 -2.3899
    4MOL0     H  485   3.736   2.594   1.251 -2.0101 -2.1578  0.2316
    4MOL0     H  486   3.786   2.605   1.079  2.8524 -1.9806 -1.1316
    4MOL0     H  487   3.584   2.497   1.044 -0.8443 -4.8284 -3.4962
    4MOL0     H  488   3.723   2.387   1.032 -0.3237 -0.0637  0.5559
    4MOL0     H  489   3.573   2.427   1.302 -2.0768 -2.7087  1.4428
    4MOL0     H  490   3.663   2.280   1.255 -1.5338 -1.1267  2.6241
    4MOL0     H  491   3.485   2.086   1.253  1.6469  2.4690  1.9910
    4MOL0     H  492   3.210   1.989   1.214  1.0864  0.1909  1.0887
    4MOL0     H  493   3.123   2.075   1.085 -0.4451 -0.1702  0.4598
    4MOL0     H  494   3.378   1.927   1.020 -0.4182 -0.1198 -0.2063
    4MOL0     H  495   3.278   2.024   0.916 -1.1224  0.1800  1.1675
    4MOL0     H  496   3.099   1.873   0.911 -0.8123  2.3121  2.9212
    4MOL0     H  497   3.135   1.808   1.071 -1.7481  0.5895 -0.6003
    4MOL0     H  498   3.265   1.644   1.011  0.4949  0.7166  0.2522
    4MOL0     H  499   3.348   1.736   0.883 -0.6832  1.1370 -2.4679
    4MOL0     H  500   2.961   1.594   0.672  0.4797 -1.2542  0.1933
    4MOL0     H  501   2.771   1.539   0.603  0.6400 -0.5479  0.4603
    4MOL0     H  502   2.735   1.381   0.668 -0.4684  0.0419 -2.1345
    4MOL0     H  503   2.641   1.532   0.718  0.8475  1.0253 -1.1403
    4MOL0     H  504   2.442   1.640   1.085  1.5253 -0.5783 -1.2265
    4MOL0     H  505   2.201   1.601   1.191 -0.0379  0.3833 -0.1408
    4MOL0     H  506   2.019   1.524   1.355  0.0876  0.7513 -0.2589
    4MOL0     H  507   2.012   1.481   1.186  0.9209 -2.6354 -1.0311
    4MOL0     H  508   1.910   1.343   1.424  0.5585  0.5413 -0.1502
    4MOL0     H  509   1.823   1.446   1.307 -0.5886  0.8767  1.5432
    4MOL0     H  510   1.760   1.203   1.238 -1.2510  1.1383 -2.5435
    4MOL0     H  511   1.929   1.162   1.246  0.5904  0.9174  2.9457
    4MOL0     H  512   1.840   1.361   1.042 -2.3587 -1.9088  0.4119
    4MOL0     H  513   1.987   1.267   1.054  0.6408  1.8194 -0.6769
    4MOL0     H  514   1.698   1.174   0.978  0.4564 -2.0706 -3.2433
    4MOL0     H  515   1.823   1.065   1.026 -2.2733  0.2970  1.5707
    4MOL0     H  516   1.775   1.109   0.793 -1.1398 -0.0377  2.6793
    4MOL0     H  517   1.856   1.271   0.793  0.6842  0.2471  1.2091
    4MOL0     H  518   2.015   1.016   0.862 -0.4966  0.6757  1.1244
    4MOL0     H  519   2.064   1.188   0.864  1.1128 -1.1347  1.7999
    4MOL0     H  520   2.011   1.198   0.614  0.7544 -0.2199 -0.5100
    4MOL0     H  521   1.942   1.034   0.620 -1.2110 -0.8662  2.4403
    4MOL0     H  522   2.309   1.213   1.303  0.5529 -0.0977  0.5996
    4MOL0     H  523   2.557   1.256   1.238  0.4137 -0.3344 -2.9640
    4MOL0     H  524   2.894   1.434   1.125 -2.3141 -2.2674 -1.0169
    4MOL0     H  525   3.111   1.504   1.070 -0.4299 -1.3502  1.1686
    4MOL0     H  526   4.407   2.252   0.972 -3.7870  0.5428 -0.1567
    4MOL0     H  527   4.575   2.041   0.969 -2.2297 -1.0191  1.1978
    4MOL0     H  528   4.561   1.607   0.795 -1.1974  0.3744  3.3518
    4MOL0     H  529   4.642   1.363   0.872  0.6249 -0.9072 -1.2889
    4MOL0     H  530   4.929   1.225   1.050  1.6786  2.5102 -2.0031
    4MOL0     H  531   4.772   1.296   1.064 -1.3078  0.9274 -2.2658
    4MOL0     H  532   4.657   1.125   0.928 -1.4648 -2.7849  1.0724
    4MOL0     H  533   4.737   1.066   1.072 -0.6683  1.6737 -0.0042
    4MOL0     H  534   4.936   1.000   0.913 -0.4046 -1.9035  2.2103
    4MOL0     H  535   4.823   1.056   0.780 -1.7748 -0.4332 -0.6778
    4MOL0     H  536   4.666   0.888   0.839 -0.1217  0.2014 -1.3419
    4MOL0     H  537   4.783   0.814   0.966  0.9206  1.3460  0.9371
    4MOL0     H  538   4.953   0.694   0.603 -1.5237  0.2320 -0.1731
    4MOL0     H  539   5.033   1.499   0.887  0.0973  2.8216 -0.2444
    4MOL0     H  540   4.964   1.737   0.845 -0.0697  0.1141  1.0379
    5MOL0     O  541   0.154   8.504   6.637  0.5571 -0.5027 -1.4618
    5MOL0     C  542   0.235   8.540   6.552  0.1667 -0.4804  0.2424
    5MOL0     O  543   0.204   8.601   6.429  0.6656  0.1409 -0.3818
    5MOL0     C  544   0.072   8.616   6.387 -0.3201 -1.3743 -0.0210
    5MOL0     C  545   0.037   8.732   6.306  0.6312  0.3632  0.2292
    5MOL0     C  546  -0.083   8.749   6.243 -1.3220  0.4655  0.5161
    5MOL0     C  547  -0.181   8.641   6.256 -0.2651 -0.2478 -0.2090
    5MOL0     O  548  -0.300   8.661   6.198  0.4029  0.7807  0.4947
    5MOL0     C  549  -0.405   8.569   6.233 -0.3879 -0.6428 -0.1761
    5MOL0     C  550  -0.542   8.619   6.185 -0.2164 -0.1473  0.3108
    5MOL0     C  551  -0.658   8.514   6.204 -0.6306 -0.7898 -0.2321
    5MOL0     C  552  -0.666   8.415   6.086 -0.3172 -0.1338 -0.1706
    5MOL0     C  553  -0.750   8.302   6.134 -0.6062 -0.8906  0.5654
    5MOL0     C  554  -0.764   8.183   6.036  1.0830  0.2059  0.6424
    5MOL0     C  555  -0.791   8.224   5.895 -0.0529  0.9375 -0.6476
    5MOL0     C  556  -0.828   8.092   5.819  0.1237  0.4440 -0.0355
    5MOL0     N  557  -0.950   8.045   5.878 -0.7641  0.6385 -0.2520
    5MOL0     C  558  -0.957   7.926   5.933 -0.3963  0.1514  0.0587
    5MOL0     C  559  -1.078   7.916   5.989  0.0394  0.1321 -0.6885
    5MOL0     C  560  -1.141   7.798   6.070 -0.5436 -0.3874  0.7761
    5MOL0     C  561  -1.237   7.717   5.976  0.2737 -0.8963  0.3475
    5MOL0     C  562  -1.163   7.621   5.884 -0.0359  0.4802 -0.1669
    5MOL0     C  563  -1.256   7.563   5.775 -0.3988 -0.0221  0.6115
    5MOL0     O  564  -1.305   7.678   5.701 -0.2580  0.1326  0.7728
    5MOL0     C  565  -1.437   7.670   5.671 -0.3126 -0.1964  1.2829
    5MOL0     C  566  -1.522   7.774   5.699  0.9542 -0.9316  0.2562
    5MOL0     C  567  -1.657   7.777   5.660  1.1317  0.1006 -0.2668
    5MOL0     C  568  -1.745   7.899   5.720 -0.2732  0.2462 -1.0467
    5MOL0     C  569  -1.717   7.665   5.591  0.9553 -0.4547 -0.4796
    5MOL0     C  570  -1.864   7.653   5.560  0.5392  0.2596 -0.4915
    5MOL0     O  571  -1.904   7.553   5.483  0.3197  0.1028  0.2040
    5MOL0     C  572  -2.025   7.565   5.416 -0.0682  0.0057  1.2119
    5MOL0     C  573  -2.087   7.451   5.372  0.5736  0.6682 -0.0030
    5MOL0     C  574  -2.216   7.442   5.318  0.7637  0.4101 -0.2314
    5MOL0     C  575  -2.283   7.555   5.292 -0.7365 -1.6242  1.0542
    5MOL0     O  576  -2.409   7.555   5.237  0.1394 -0.0177 -0.0480
    5MOL0     C  577  -2.509   7.643   5.300 -0.2604 -0.1143 -0.4297
    5MOL0     C  578  -2.650   7.598   5.242  0.1775  0.1920 -1.0574
    5MOL0     C  579  -2.677   7.675   5.109 -0.0725  0.0877  0.8663
    5MOL0     C  580  -2.827   7.647   5.061 -0.4261 -0.4662  0.2288
    5MOL0     C  581  -2.866   7.740   4.941 -0.2549  0.2098 -0.3382
    5MOL0     C  582  -3.009   7.711   4.896  0.7328  0.2486 -0.1061
    5MOL0     C  583  -3.052   7.814   4.788  0.5175 -0.2380 -0.4856
    5MOL0     C  584  -3.180   7.748   4.721  0.3960  0.4018 -1.2955
    5MOL0    Cl  585  -3.265   7.862   4.615 -0.1343 -0.0254 -0.3816
    5MOL0     C  586  -2.221   7.678   5.316  0.0673 -0.2864 -0.2804
    5MOL0     C  587  -2.090   7.685   5.372 -0.3800  0.4019 -0.4408
    5MOL0     O  588  -1.942   7.742   5.607 -0.3706  0.2880  0.2211
    5MOL0     C  589  -1.626   7.561   5.568  0.6722  0.7208  0.3459
    5MOL0     C  590  -1.493   7.560   5.607 -0.7634 -0.6376 -0.3486
    5MOL0     N  591  -1.150   8.029   5.959  0.1290 -0.3101  0.8888
    5MOL0     N  592  -1.067   8.104   5.893  0.9321 -0.1768  0.3700
    5MOL0     C  593  -0.141   8.520   6.328  0.2982 -0.0812 -0.2238
    5MOL0     C  594  -0.020   8.512   6.399  0.1694  0.3535  0.1864
    5MOL0     C  595   0.378   8.535   6.582  0.5084  0.3205 -0.4146
    5MOL0     C  596   0.419   8.490   6.711  0.2793 -0.6821 -0.0082
    5MOL0     C  597   0.552   8.465   6.731  0.0276  0.4506 -0.5954
    5MOL0     C  598   0.658   8.486   6.642  0.0410 -0.1784 -0.1509
    5MOL0     O  599   0.789   8.456   6.658  0.1033  0.4703  0.6047
    5MOL0     C  600   0.861   8.490   6.772 -0.0575 -0.2786 -0.5223
    5MOL0     C  601   1.009   8.486   6.744 -0.5392  0.3271 -0.7821
    5MOL0     C  602   1.049   8.572   6.625  0.4950 -0.0597  0.6432
    5MOL0     C  603   1.193   8.540   6.581 -0.3128  0.3715  0.3593
    5MOL0     C  604   1.296   8.588   6.663 -0.4264 -0.4610 -0.5680
    5MOL0     C  605   1.391   8.618   6.725 -0.8619 -0.5072 -0.6747
    5MOL0     C  606   0.617   8.546   6.515 -0.6244  0.4612 -0.3425
    5MOL0     C  607   0.477   8.559   6.484  0.1915 -0.6663  0.7602
    5MOL0     H  608   0.114   8.808   6.298  0.9977 -0.1783 -2.1231
    5MOL0     H  609  -0.115   8.847   6.207 -0.1795  0.7687  0.3008
    5MOL0     H  610  -0.386   8.465   6.205 -1.0340 -1.3361  1.7413
    5MOL0     H  611  -0.411   8.565   6.343  2.3034  0.3660  0.0936
    5MOL0     H  612  -0.575   8.715   6.225  0.6787  0.6748 -0.8386
    5MOL0     H  613  -0.531   8.638   6.078 -0.4703  1.1383  0.5005
    5MOL0     H  614  -0.636   8.466   6.300  1.3560 -1.4344 -0.9735
    5MOL0     H  615  -0.751   8.572   6.209 -0.1187  0.0677 -0.4766
    5MOL0     H  616  -0.700   8.458   5.991  1.3094 -2.2675 -1.8344
    5MOL0     H  617  -0.562   8.389   6.065 -0.5116 -0.8573 -0.2817
    5MOL0     H  618  -0.724   8.262   6.233 -2.8497 -0.9764  1.1704
    5MOL0     H  619  -0.850   8.344   6.141  0.1674  1.0925  0.2243
    5MOL0     H  620  -0.666   8.135   6.046  0.7790 -1.1162 -1.8841
    5MOL0     H  621  -0.842   8.115   6.073  3.3446 -2.0278  1.5790
    5MOL0     H  622  -0.874   8.295   5.888  2.1463  4.1455  2.2299
    5MOL0     H  623  -0.697   8.265   5.856  1.2608  1.6584  2.8994
    5MOL0     H  624  -0.754   8.012   5.823 -1.6444 -1.4375 -2.3292
    5MOL0     H  625  -0.855   8.106   5.714 -4.1985 -0.9183  0.7163
    5MOL0     H  626  -0.879   7.853   5.950  0.1179  1.4033  4.2573
    5MOL0     H  627  -1.056   7.745   6.114 -0.9222 -1.0097  0.7778
    5MOL0     H  628  -1.205   7.844   6.146  0.0512 -2.0734  2.3902
    5MOL0     H  629  -1.296   7.793   5.924  0.4975 -1.4845 -0.8060
    5MOL0     H  630  -1.316   7.664   6.028 -2.8266  0.7442 -2.3085
    5MOL0     H  631  -1.125   7.544   5.952 -2.8749 -0.4036  0.5499
    5MOL0     H  632  -1.074   7.667   5.839  1.4420 -1.2765  0.8391
    5MOL0     H  633  -1.340   7.510   5.820 -0.3425 -2.1596 -1.5523
    5MOL0     H  634  -1.188   7.499   5.717  0.4571  1.8679 -0.5707
    5MOL0     H  635  -1.486   7.851   5.768  0.1605 -1.4526  1.2874
    5MOL0     H  636  -1.816   7.859   5.793  1.9581  1.0001  1.7288
    5MOL0     H  637  -1.680   7.969   5.774 -0.4095 -0.2939 -0.1594
    5MOL0     H  638  -1.802   7.957   5.647 -2.5274 -0.3034  0.1759
    5MOL0     H  639  -2.034   7.358   5.390 -0.2777  0.2035  0.1302
    5MOL0     H  640  -2.260   7.343   5.303  0.5848  0.6573 -1.4155
    5MOL0     H  641  -2.497   7.641   5.408  0.6013  1.3096 -0.4818
    5MOL0     H  642  -2.492   7.748   5.277  1.2463 -0.3897 -0.6622
    5MOL0     H  643  -2.660   7.492   5.215 -2.7362  0.6703 -2.1845
    5MOL0     H  644  -2.727   7.624   5.315 -0.7347  0.4676 -2.0944
    5MOL0     H  645  -2.615   7.632   5.030 -1.8984 -2.4250  0.6897
    5MOL0     H  646  -2.667   7.782   5.130  2.4815  0.1257 -0.2093
    5MOL0     H  647  -2.823   7.542   5.030  0.8447 -0.4601  0.2939
    5MOL0     H  648  -2.885   7.675   5.149  0.3824  1.8696  0.0939
    5MOL0     H  649  -2.797   7.729   4.857 -0.3084  0.2502 -0.3881
    5MOL0     H  650  -2.853   7.840   4.981  1.4410  0.0172 -0.3580
    5MOL0     H  651  -3.018   7.608   4.859  2.9552  0.6995 -2.1802
    5MOL0     H  652  -3.088   7.727   4.970  0.7607 -2.2066  0.5546
    5MOL0     H  653  -2.970   7.832   4.718  0.0078  0.4616 -0.9126
    5MOL0     H  654  -3.079   7.906   4.839  1.2600  0.1922 -0.8545
    5MOL0     H  655  -3.254   7.720   4.797  0.2413 -0.7694 -1.8475
    5MOL0     H  656  -3.163   7.656   4.664 -1.4055 -0.5812 -0.3539
    5MOL0     H  657  -2.286   7.760   5.288 -2.7862 -1.6426  1.8091
    5MOL0     H  658  -2.038   7.781   5.380  1.3908 -0.5819  0.6086
    5MOL0     H  659  -1.668   7.474   5.519  1.2988 -0.4190  1.7460
    5MOL0     H  660  -1.440   7.471   5.574 -0.3525  0.1909 -2.0594
    5MOL0     H  661  -0.205   8.433   6.334 -2.2514  1.6122 -1.3496
    5MOL0     H  662   0.002   8.425   6.460  0.5592  0.0700 -0.3458
    5MOL0     H  663   0.344   8.464   6.785 -0.7860 -0.1246 -0.8486
    5MOL0     H  664   0.567   8.413   6.824 -0.1737 -1.8271 -1.7750
    5MOL0     H  665   0.840   8.593   6.804 -1.9233  0.5379 -3.9056
    5MOL0     H  666   0.834   8.429   6.858  0.2223 -1.8730 -1.5340
    5MOL0     H  667   1.041   8.382   6.730  2.3455  0.8944  0.7692
    5MOL0     H  668   1.057   8.529   6.833 -2.0927  0.3993  0.0594
    5MOL0     H  669   1.046   8.677   6.656  0.3244  0.0715  0.2002
    5MOL0     H  670   0.977   8.550   6.545  1.9394 -0.6365 -0.5414
    5MOL0     H  671   1.212   8.590   6.485  0.1874 -0.2768  0.1193
    5MOL0     H  672   1.203   8.434   6.558 -1.6263  1.0001 -4.0709
    5MOL0     H  673   1.485   8.652   6.763 -0.7271 -2.1645  0.5417
    5MOL0     H  674   0.695   8.563   6.441 -1.4511  4.0400 -0.5620
    5MOL0     H  675   0.453   8.585   6.382  1.7382 -1.6570  0.1065
    6MOL0     O  676   2.243   2.080   0.953 -0.7625 -0.5288 -0.2326
    6MOL0     C  677   2.289   1.982   0.887 -0.7720  1.1976 -0.2754
    6MOL0     O  678   2.231   1.867   0.838  0.0102 -0.1085 -0.3111
    6MOL0     C  679   2.093   1.855   0.839  0.4585 -0.3212 -0.1690
    6MOL0     C  680   1.992   1.949   0.799  0.4189  0.4062  0.1649
    6MOL0     C  681   1.852   1.911   0.812 -0.5634  0.6308 -0.7336
    6MOL0     C  682   1.815   1.775   0.849 -0.6819 -0.6809  0.4594
    6MOL0     O  683   1.686   1.730   0.855 -0.5675  0.0835  0.3968
    6MOL0     C  684   1.589   1.832   0.876  0.3976  0.0469  0.4185
    6MOL0     C  685   1.448   1.768   0.876  0.5297 -0.2891  0.6019
    6MOL0     C  686   1.408   1.690   0.750  0.0476 -0.1307 -0.0201
    6MOL0     C  687   1.282   1.604   0.771 -0.1009  0.1986  0.0404
    6MOL0     C  688   1.220   1.549   0.644  0.9003  0.2898 -0.1638
    6MOL0     C  689   1.159   1.658   0.553  0.6801 -0.3159 -0.1084
    6MOL0     C  690   1.138   1.583   0.426  0.0042 -0.6064  0.5762
    6MOL0     C  691   1.073   1.672   0.325 -0.1502  1.1073 -0.1795
    6MOL0     N  692   0.932   1.699   0.367  0.0834 -0.5923  0.4423
    6MOL0     C  693   0.890   1.823   0.417 -0.1326  0.2526  0.7814
    6MOL0     C  694   0.760   1.803   0.444  0.4057  0.8384 -0.6189
    6MOL0     C  695   0.662   1.905   0.513  0.7301 -0.0913  0.4154
    6MOL0     C  696   0.572   1.990   0.414 -0.2556  0.5522  0.3886
    6MOL0     C  697   0.490   1.914   0.312  0.7248  0.1822 -0.6385
    6MOL0     C  698   0.377   1.843   0.377  0.5063  1.2522 -1.0747
    6MOL0     O  699   0.267   1.935   0.395 -0.1957  0.7046 -0.4661
    6MOL0     C  700   0.158   1.893   0.465 -0.2566 -0.5455  0.0712
    6MOL0     C  701   0.066   1.985   0.503 -0.3663  0.0655  0.3339
    6MOL0     C  702  -0.051   1.957   0.574  0.1358  0.4931 -0.3485
    6MOL0     C  703  -0.144   2.071   0.619 -0.5072  0.6658  0.7174
    6MOL0     C  704  -0.083   1.817   0.597 -1.1957 -0.8202  0.2821
    6MOL0     C  705  -0.213   1.766   0.647  0.6503  0.1736 -1.1503
    6MOL0     O  706  -0.233   1.633   0.640  0.3947 -0.4661  0.4045
    6MOL0     C  707  -0.344   1.573   0.689 -0.0643  0.8991  0.1127
    6MOL0     C  708  -0.459   1.551   0.616  0.9705 -0.0067  0.2965
    6MOL0     C  709  -0.567   1.482   0.672  0.6763 -0.6100 -0.8961
    6MOL0     C  710  -0.559   1.420   0.790  0.6191 -0.2562 -0.3275
    6MOL0     O  711  -0.654   1.335   0.849 -0.2966  0.2991 -0.1098
    6MOL0     C  712  -0.769   1.298   0.771  0.0380 -0.4297  0.1603
    6MOL0     C  713  -0.879   1.250   0.857  1.0297  0.0287 -0.4314
    6MOL0     C  714  -1.014   1.263   0.777 -0.2008 -0.4502 -0.5667
    6MOL0     C  715  -1.131   1.247   0.867 -0.1173 -0.2513 -0.4684
    6MOL0     C  716  -1.260   1.223   0.788  0.0623  0.3883  0.2021
    6MOL0     C  717  -1.369   1.175   0.878  0.4896  0.3377 -0.6475
    6MOL0     C  718  -1.511   1.172   0.808 -0.0827 -0.3393 -0.2976
    6MOL0     C  719  -1.531   1.039   0.747  0.1201  0.4453  0.0772
    6MOL0    Cl  720  -1.700   1.025   0.677  0.3282 -0.0436  0.3812
    6MOL0     C  721  -0.440   1.439   0.870  0.3272 -0.0571 -0.1431
    6MOL0     C  722  -0.331   1.510   0.813 -0.2788  0.2733 -0.5297
    6MOL0     O  723  -0.296   1.842   0.697 -0.0197  0.0425  0.0243
    6MOL0     C  724   0.010   1.719   0.550  0.4629  0.3769 -0.3380
    6MOL0     C  725   0.129   1.763   0.496  0.4792  0.2021 -0.7052
    6MOL0     N  726   0.729   1.672   0.412  0.7941  0.6444 -0.6967
    6MOL0     N  727   0.825   1.618   0.350  0.2187 -0.2671 -0.0985
    6MOL0     C  728   1.921   1.689   0.890  0.0233  0.0783 -0.0434
    6MOL0     C  729   2.056   1.738   0.897 -0.1323 -0.3055 -0.6180
    6MOL0     C  730   2.435   1.982   0.856 -0.2021  0.2321  0.3855
    6MOL0     C  731   2.513   2.098   0.832  0.6940  0.6747 -0.8390
    6MOL0     C  732   2.652   2.097   0.803  0.6380 -0.3904  0.2755
    6MOL0     C  733   2.718   1.973   0.814  0.3166  0.8395 -0.3756
    6MOL0     O  734   2.852   1.975   0.790  0.3660 -0.1433  0.4068
    6MOL0     C  735   2.911   1.892   0.683 -0.2890 -0.4615  0.2941
    6MOL0     C  736   2.988   1.968   0.577  0.4787  0.1589 -0.1721
    6MOL0     C  737   3.136   1.990   0.617  0.2428 -0.0348 -0.2286
    6MOL0     C  738   3.217   2.079   0.518 -0.9001 -0.0711 -0.5871
    6MOL0     C  739   3.170   2.218   0.494  0.2181  0.3350 -0.8829
    6MOL0     C  740   3.128   2.330   0.476 -0.1573 -0.9113 -0.1045
    6MOL0     C  741   2.646   1.853   0.836  0.0084  0.1385 -0.1099
    6MOL0     C  742   2.507   1.858   0.855  0.2323 -0.5812 -0.2626
    6MOL0     H  743   2.010   2.053   0.775  2.7012 -0.0034 -0.1296
    6MOL0     H  744   1.780   1.987   0.786 -0.2954  1.1529  0.0300
    6MOL0     H  745   1.605   1.886   0.969 -2.8327  0.7054  0.7311
    6MOL0     H  746   1.592   1.891   0.784 -3.0176  0.8504  0.6635
    6MOL0     H  747   1.425   1.700   0.959  0.8193 -0.4063  0.5853
    6MOL0     H  748   1.373   1.848   0.886 -1.5725 -2.2466  1.5257
    6MOL0     H  749   1.396   1.771   0.678  1.8380  1.0382  0.9220
    6MOL0     H  750   1.493   1.633   0.712  0.6907  0.3324  0.6789
    6MOL0     H  751   1.304   1.523   0.842  1.0614  1.2365  0.9086
    6MOL0     H  752   1.206   1.669   0.816 -0.4679  0.3376 -0.7678
    6MOL0     H  753   1.302   1.497   0.592  0.2748 -1.7780  0.8289
    6MOL0     H  754   1.152   1.466   0.665  2.7311 -1.3947 -0.5886
    6MOL0     H  755   1.066   1.693   0.598  1.2879  0.5785  0.4693
    6MOL0     H  756   1.220   1.746   0.529 -0.1996  0.4020  0.2522
    6MOL0     H  757   1.234   1.557   0.380 -0.1995  1.6541 -1.2966
    6MOL0     H  758   1.081   1.490   0.435  0.0676 -0.9137 -1.6171
    6MOL0     H  759   1.077   1.622   0.228  1.3962 -0.7235  0.7640
    6MOL0     H  760   1.130   1.765   0.324 -0.6393  1.5009  2.2663
    6MOL0     H  761   0.938   1.913   0.453  0.8376 -0.8816  2.4241
    6MOL0     H  762   0.596   1.846   0.576 -0.8180  2.5614  1.4271
    6MOL0     H  763   0.715   1.968   0.586 -2.3025  0.7022  2.0831
    6MOL0     H  764   0.627   2.068   0.360  0.2522  0.2350  0.4401
    6MOL0     H  765   0.504   2.044   0.480 -1.4278 -0.7913  0.3326
    6MOL0     H  766   0.555   1.845   0.257 -2.7521 -2.8386 -1.4018
    6MOL0     H  767   0.454   1.989   0.241 -1.6528  0.3305  0.6323
    6MOL0     H  768   0.405   1.801   0.474 -1.8727 -1.1975 -1.3225
    6MOL0     H  769   0.345   1.768   0.303  2.7470 -0.5001 -0.3922
    6MOL0     H  770   0.086   2.086   0.468  2.7133 -1.4435 -3.0234
    6MOL0     H  771  -0.247   2.050   0.590 -0.4716 -0.4417  1.3088
    6MOL0     H  772  -0.147   2.057   0.728 -1.8116 -3.3252  0.3331
    6MOL0     H  773  -0.099   2.164   0.584  1.6722 -0.9377 -1.0556
    6MOL0     H  774  -0.467   1.590   0.515  3.5103 -2.1026 -0.8284
    6MOL0     H  775  -0.646   1.461   0.600 -0.5752  1.0130 -0.0818
    6MOL0     H  776  -0.800   1.385   0.712  2.5231  0.9761  0.7650
    6MOL0     H  777  -0.746   1.215   0.703 -2.1584 -1.8294  1.0296
    6MOL0     H  778  -0.862   1.152   0.901  3.3750  1.1624  1.3931
    6MOL0     H  779  -0.881   1.319   0.943 -4.1150 -1.0101  0.6384
    6MOL0     H  780  -1.017   1.189   0.697 -0.5604  1.0907 -2.0251
    6MOL0     H  781  -1.026   1.364   0.736 -1.7246  0.2819  1.5046
    6MOL0     H  782  -1.108   1.154   0.918 -0.6579  0.1386  0.5078
    6MOL0     H  783  -1.155   1.332   0.932  1.6773  0.0633 -0.1654
    6MOL0     H  784  -1.239   1.146   0.713 -0.0243  0.7176 -0.1627
    6MOL0     H  785  -1.301   1.309   0.734 -3.4399 -3.4693 -4.1510
    6MOL0     H  786  -1.341   1.075   0.914  1.9454  1.0946  0.3850
    6MOL0     H  787  -1.373   1.232   0.972  0.5312  1.5424 -1.3573
    6MOL0     H  788  -1.521   1.247   0.729 -1.1987  0.6563  0.7599
    6MOL0     H  789  -1.582   1.194   0.888  1.0689  0.2643  0.5988
    6MOL0     H  790  -1.527   0.964   0.826  0.3782  0.0215 -0.3350
    6MOL0     H  791  -1.461   1.017   0.665  0.9674  0.8004  0.6835
    6MOL0     H  792  -0.428   1.377   0.958 -1.1143 -0.6684 -0.3472
    6MOL0     H  793  -0.241   1.501   0.872 -0.5990  2.0652  0.3015
    6MOL0     H  794  -0.006   1.612   0.554  0.0348  0.4625  0.7517
    6MOL0     H  795   0.185   1.685   0.445 -0.4857 -2.4160  1.9600
    6MOL0     H  796   1.898   1.586   0.917  0.2024  0.2002  0.6123
    6MOL0     H  797   2.144   1.684   0.930  0.0130  0.8236  0.9626
    6MOL0     H  798   2.453   2.188   0.842  2.4485  1.8621 -0.5881
    6MOL0     H  799   2.695   2.188   0.762  2.4146 -0.5807  1.5522
    6MOL0     H  800   2.984   1.825   0.729 -0.4414 -1.7261 -1.2495
    6MOL0     H  801   2.828   1.841   0.634 -1.8881  1.2366  1.0666
    6MOL0     H  802   2.944   2.063   0.544 -0.0727 -0.5374 -1.5282
    6MOL0     H  803   3.005   1.905   0.488  4.9845 -0.6216  1.0122
    6MOL0     H  804   3.185   1.892   0.614 -2.2623 -1.3754  0.1845
    6MOL0     H  805   3.144   2.036   0.716  1.5406  1.7313 -1.0988
    6MOL0     H  806   3.223   2.032   0.419  1.5050  1.0002 -1.0332
    6MOL0     H  807   3.322   2.081   0.550 -0.2526 -2.3010 -2.2630
    6MOL0     H  808   3.102   2.432   0.455  0.8613 -0.8933 -1.4138
    6MOL0     H  809   2.693   1.758   0.813  0.3797  0.5819 -1.2918
    6MOL0     H  810   2.452   1.769   0.884  0.2844 -0.2650  0.8418
    7MOL0     O  811   6.345  10.525   2.469  1.2180  0.1417  0.3681
    7MOL0     C  812   6.343  10.603   2.561 -0.6862 -1.0610  0.2167
    7MOL0     O  813   6.232  10.647   2.622 -0.6211  0.6694 -0.1027
    7MOL0     C  814   6.107  10.621   2.589  0.2295  0.3817 -0.3739
    7MOL0     C  815   6.056  10.497   2.534  0.4410 -0.1827 -0.1361
    7MOL0     C  816   5.920  10.480   2.499  1.1730  0.6535  0.3000
    7MOL0     C  817   5.830  10.577   2.521  0.3631 -1.0646 -0.0729
    7MOL0     O  818   5.693  10.580   2.506 -0.2334  0.8158  0.4910
    7MOL0     C  819   5.628  10.464   2.552 -0.2006 -0.1854  0.0039
    7MOL0     C  820   5.473  10.477   2.554 -0.1544  0.1438 -0.2501
    7MOL0     C  821   5.437  10.585   2.653 -0.4716  0.0717  0.2182
    7MOL0     C  822   5.282  10.614   2.653 -0.2299 -0.1768  0.3860
    7MOL0     C  823   5.258  10.739   2.735 -0.6958 -0.6408 -0.0937
    7MOL0     C  824   5.103  10.760   2.752  0.7935  0.2524  0.5722
    7MOL0     C  825   5.066  10.859   2.867 -0.6183 -0.1110  0.1753
    7MOL0     C  826   4.923  10.839   2.930 -0.3553 -0.7327  0.8036
    7MOL0     N  827   4.907  10.718   3.014  0.0633  0.2730  0.6501
    7MOL0     C  828   4.787  10.652   3.022  0.3200 -0.3165  0.3018
    7MOL0     C  829   4.813  10.553   3.108 -0.5572 -0.4035  1.2265
    7MOL0     C  830   4.718  10.453   3.178 -0.4312  0.1516  0.0443
    7MOL0     C  831   4.720  10.461   3.328  0.7079 -0.4031  0.5310
    7MOL0     C  832   4.588  10.395   3.375 -0.3625  0.2874  0.6537
    7MOL0     C  833   4.597  10.246   3.357 -0.1523 -0.2769 -0.5109
    7MOL0     O  834   4.487  10.166   3.407 -0.1216 -0.0673  0.3977
    7MOL0     C  835   4.354  10.184   3.369 -0.5090 -0.5022 -1.1072
    7MOL0     C  836   4.310  10.253   3.262 -0.4078 -0.5811 -1.1129
    7MOL0     C  837   4.180  10.271   3.232  0.4421 -0.9326 -0.1121
    7MOL0     C  838   4.151  10.352   3.099 -0.3925 -0.2962  0.4430
    7MOL0     C  839   4.080  10.218   3.320  1.0025 -0.0343  0.6475
    7MOL0     C  840   3.934  10.237   3.297  0.1816 -0.2180  0.8134
    7MOL0     O  841   3.888  10.229   3.163  0.6196 -0.2137  1.0274
    7MOL0     C  842   3.752  10.252   3.146 -0.7894  0.4186 -1.1482
    7MOL0     C  843   3.668  10.139   3.155 -0.3359 -0.5493 -0.2594
    7MOL0     C  844   3.532  10.169   3.138  0.2774 -0.2324  0.4288
    7MOL0     C  845   3.481  10.297   3.125  0.2788 -0.2681  0.3014
    7MOL0     O  846   3.349  10.323   3.100 -0.5445  0.7411  0.6360
    7MOL0     C  847   3.244  10.263   3.183  0.1502 -0.8527 -1.1534
    7MOL0     C  848   3.103  10.301   3.121 -0.1485  0.0298  0.0145
    7MOL0     C  849   3.094  10.459   3.093  0.0412  0.3650 -0.3171
    7MOL0     C  850   3.098  10.545   3.221  0.5352  0.4807 -0.3584
    7MOL0     C  851   3.066  10.700   3.203  0.7477  0.3934  0.3826
    7MOL0     C  852   3.161  10.775   3.107  0.0899 -0.3125 -0.2484
    7MOL0     C  853   3.138  10.923   3.108 -0.8534  0.6899 -0.1325
    7MOL0     C  854   3.032  10.955   3.006 -0.3612  0.4975  0.0187
    7MOL0    Cl  855   3.040  11.128   2.938  0.0165 -0.0176 -0.7862
    7MOL0     C  856   3.569  10.400   3.119 -0.6276  0.2309  0.1396
    7MOL0     C  857   3.707  10.381   3.123 -0.0528 -0.1376  0.0616
    7MOL0     O  858   3.859  10.239   3.393  0.0733  0.2459  1.1650
    7MOL0     C  859   4.123  10.146   3.433 -0.6817 -0.8892  0.2768
    7MOL0     C  860   4.258  10.119   3.447  0.1374 -0.1426  0.7720
    7MOL0     N  861   4.944  10.568   3.158  0.5589 -0.1136 -0.0879
    7MOL0     N  862   5.007  10.657   3.088  0.4535  0.2030 -0.4260
    7MOL0     C  863   5.874  10.697   2.578  0.6069  0.4163  0.5016
    7MOL0     C  864   6.010  10.722   2.608 -0.1806  0.2984 -0.5559
    7MOL0     C  865   6.477  10.638   2.610  0.5777  0.0430 -0.3572
    7MOL0     C  866   6.490  10.715   2.721  0.3177  0.4267 -1.4976
    7MOL0     C  867   6.619  10.764   2.769 -0.5266  0.5203 -0.4323
    7MOL0     C  868   6.738  10.720   2.704  0.3433 -0.3034 -0.0848
    7MOL0     O  869   6.863  10.767   2.749  0.4741  0.0758  0.0014
    7MOL0     C  870   6.939  10.822   2.641 -0.0225 -0.7060  0.0560
    7MOL0     C  871   7.026  10.942   2.703 -0.0915  0.1224  0.0396
    7MOL0     C  872   7.139  10.886   2.780 -0.6725  0.1612  0.2888
    7MOL0     C  873   7.105  10.851   2.918  0.5264 -0.7260 -0.6697
    7MOL0     C  874   7.219  10.855   3.013 -0.4553 -0.2688 -0.4420
    7MOL0     C  875   7.316  10.869   3.086 -0.3575  0.1454 -0.7407
    7MOL0     C  876   6.722  10.626   2.603 -0.7796  0.6366 -1.0242
    7MOL0     C  877   6.601  10.594   2.544  0.6469  0.2400  0.3520
    7MOL0     H  878   6.123  10.412   2.545  1.6031  0.8753  1.3996
    7MOL0     H  879   5.881  10.388   2.458 -0.2484  1.7410 -0.9191
    7MOL0     H  880   5.655  10.374   2.496 -1.8037 -1.9863  1.9461
    7MOL0     H  881   5.662  10.438   2.653  1.0015 -1.1811 -0.6381
    7MOL0     H  882   5.440  10.514   2.457 -2.2249  0.4007  0.5142
    7MOL0     H  883   5.427  10.380   2.576 -1.1267  0.7061  0.2149
    7MOL0     H  884   5.486  10.564   2.748 -1.5587 -0.7095  0.6335
    7MOL0     H  885   5.471  10.684   2.623 -0.0495 -0.3145 -0.6168
    7MOL0     H  886   5.247  10.624   2.550 -2.8162  1.0483  1.3062
    7MOL0     H  887   5.232  10.535   2.711 -1.1559 -0.1078 -0.2971
    7MOL0     H  888   5.303  10.737   2.835 -2.9397  1.7011  1.1030
    7MOL0     H  889   5.297  10.828   2.686 -1.1831 -1.1060 -1.3713
    7MOL0     H  890   5.056  10.797   2.661  0.2867  0.9371  1.1044
    7MOL0     H  891   5.060  10.659   2.759  0.5678  0.2715 -0.4412
    7MOL0     H  892   5.140  10.847   2.946 -0.0096  0.6408 -0.2633
    7MOL0     H  893   5.075  10.961   2.828  0.6310 -0.1959  0.2093
    7MOL0     H  894   4.860  10.837   2.841  2.4932 -0.7328 -1.3381
    7MOL0     H  895   4.894  10.927   2.989  1.3682 -0.6831  1.6410
    7MOL0     H  896   4.693  10.681   2.976  0.7678 -0.1924 -0.5378
    7MOL0     H  897   4.620  10.452   3.130  0.1575 -2.1726 -1.2788
    7MOL0     H  898   4.761  10.357   3.146 -1.2870 -0.3819  0.4605
    7MOL0     H  899   4.723  10.565   3.361 -0.4045 -0.5955  1.2688
    7MOL0     H  900   4.800  10.408   3.379  0.3582  0.1180  1.6456
    7MOL0     H  901   4.495  10.438   3.337 -1.0336 -0.7624  1.0905
    7MOL0     H  902   4.587  10.418   3.482  1.4733 -0.5096  0.8920
    7MOL0     H  903   4.677  10.207   3.420 -2.9862 -3.2603  1.5442
    7MOL0     H  904   4.608  10.216   3.252 -1.1022  1.2390 -1.0885
    7MOL0     H  905   4.392  10.289   3.200 -0.0439  1.3213  0.3923
    7MOL0     H  906   4.159  10.295   3.006  1.3359  0.8185 -0.1393
    7MOL0     H  907   4.054  10.401   3.093 -1.7578 -2.9680 -1.1035
    7MOL0     H  908   4.228  10.428   3.084 -2.8181  1.9290 -1.5863
    7MOL0     H  909   3.698  10.036   3.171 -1.1370 -0.7542 -0.0011
    7MOL0     H  910   3.460  10.089   3.145 -1.9807  1.5084 -1.3139
    7MOL0     H  911   3.253  10.154   3.188 -2.3197 -1.0891  0.0584
    7MOL0     H  912   3.251  10.313   3.281 -1.7408 -0.2713 -1.2687
    7MOL0     H  913   3.097  10.239   3.031  1.2453 -1.0951  0.6543
    7MOL0     H  914   3.020  10.274   3.187  0.0033  2.6416  1.4430
    7MOL0     H  915   2.993  10.472   3.053 -1.2353 -2.3134  1.6798
    7MOL0     H  916   3.172  10.495   3.026  1.2552 -0.6234  0.5107
    7MOL0     H  917   3.021  10.512   3.292 -0.9264 -0.9602 -2.5056
    7MOL0     H  918   3.194  10.539   3.273  1.2533  1.1582 -1.5619
    7MOL0     H  919   3.072  10.745   3.303  3.0051  0.4378  0.2925
    7MOL0     H  920   2.963  10.708   3.167  0.3834  2.1921  1.6611
    7MOL0     H  921   3.262  10.751   3.142 -0.4116 -0.9626  0.8007
    7MOL0     H  922   3.153  10.732   3.006 -4.7572 -2.3217  0.7106
    7MOL0     H  923   3.230  10.979   3.089 -2.3447  3.5815  0.5860
    7MOL0     H  924   3.077  10.943   3.197 -0.9859 -2.7201  0.7044
    7MOL0     H  925   2.933  10.914   3.027 -0.6224  1.3319  0.4552
    7MOL0     H  926   3.061  10.895   2.918  1.5603  4.1170 -2.0634
    7MOL0     H  927   3.543  10.504   3.097 -0.8320  0.1799  0.1363
    7MOL0     H  928   3.776  10.465   3.110 -0.5023 -0.0702 -2.5260
    7MOL0     H  929   4.054  10.098   3.501  1.8702 -1.3074  2.7778
    7MOL0     H  930   4.288  10.047   3.522  2.9864  1.3090  1.1275
    7MOL0     H  931   5.808  10.781   2.595  1.8470  1.9016 -1.5542
    7MOL0     H  932   6.031  10.820   2.651 -1.1971 -0.1384  1.0169
    7MOL0     H  933   6.398  10.761   2.755 -0.1232 -0.9061 -0.8162
    7MOL0     H  934   6.634  10.833   2.851  2.6150  0.6674 -1.0316
    7MOL0     H  935   7.001  10.741   2.601  2.4142 -0.3775  2.8239
    7MOL0     H  936   6.876  10.851   2.557 -2.9978 -0.6603  2.1515
    7MOL0     H  937   6.961  11.008   2.762  1.7131  1.9961  0.0238
    7MOL0     H  938   7.063  11.007   2.623  1.4814  0.1837  0.7844
    7MOL0     H  939   7.224  10.955   2.784 -1.1832  0.7597  1.2077
    7MOL0     H  940   7.179  10.796   2.733 -2.4948  0.8409 -2.7991
    7MOL0     H  941   7.080  10.744   2.912  2.9184 -1.3335 -1.1597
    7MOL0     H  942   7.022  10.911   2.955  2.4953  0.8951  1.4757
    7MOL0     H  943   7.393  10.879   3.160 -1.3461 -0.7501  0.4496
    7MOL0     H  944   6.815  10.593   2.558  1.1807  2.9680  0.9974
    7MOL0     H  945   6.603  10.534   2.454 -0.6977  0.3948  0.2103
    8MOL0     O  946   4.925   0.462   8.158 -0.0878 -0.6729  0.3767
    8MOL0     C  947   4.980   0.532   8.072  0.1335 -1.1980  0.2764
    8MOL0     O  948   4.916   0.609   7.976 -0.3918  0.6036 -0.2500
    8MOL0     C  949   4.776   0.610   7.964 -0.2272  0.0016 -0.5847
    8MOL0     C  950   4.703   0.491   7.970  0.3120 -0.6722  0.6409
    8MOL0     C  951   4.563   0.505   7.941 -0.0773  0.4560 -1.1761
    8MOL0     C  952   4.503   0.621   7.903  0.4770 -0.0994 -0.2646
    8MOL0     O  953   4.368   0.612   7.878  1.0404 -0.1796  0.3144
    8MOL0     C  954   4.310   0.728   7.815  0.2758  0.2128  0.3992
    8MOL0     C  955   4.164   0.703   7.774  0.6964 -0.4112  0.4639
    8MOL0     C  956   4.143   0.569   7.703 -0.9787  0.3693  0.8400
    8MOL0     C  957   4.074   0.461   7.788 -0.2203 -0.6190 -0.1880
    8MOL0     C  958   4.075   0.327   7.719  0.0854  0.0671 -0.5754
    8MOL0     C  959   3.996   0.225   7.805  0.5895 -0.8256  0.7562
    8MOL0     C  960   3.998   0.093   7.723  0.1786  0.8315 -0.1813
    8MOL0     C  961   3.873   0.088   7.623 -0.0036  0.2882 -0.7496
    8MOL0     N  962   3.734   0.109   7.683  0.3306  0.4071 -0.2399
    8MOL0     C  963   3.664   0.015   7.764 -0.0360 -0.2955 -0.0679
    8MOL0     C  964   3.543   0.087   7.777 -0.9019  0.4760 -0.2948
    8MOL0     C  965   3.432   0.040   7.862 -0.2463 -0.2601  0.5280
    8MOL0     C  966   3.473   0.070   8.001 -0.2479 -0.5210  0.6959
    8MOL0     C  967   3.499   0.220   8.037 -0.0463 -0.6026 -0.1400
    8MOL0     C  968   3.388   0.313   8.008  0.3812  0.0235 -0.4041
    8MOL0     O  969   3.276   0.305   8.099 -0.2492  0.3973 -0.1141
    8MOL0     C  970   3.170   0.386   8.094  0.5632 -0.9187  0.4890
    8MOL0     C  971   3.171   0.505   8.021 -0.8338 -0.7040 -0.0955
    8MOL0     C  972   3.066   0.603   8.031 -0.3219 -0.3763 -0.1604
    8MOL0     C  973   3.094   0.729   7.938  0.1743  0.3268 -0.4819
    8MOL0     C  974   2.939   0.576   8.104 -0.6463 -0.4342  0.0228
    8MOL0     C  975   2.820   0.664   8.109 -0.0897  0.7832  0.4613
    8MOL0     O  976   2.723   0.612   8.185  0.1233 -0.5062  0.8457
    8MOL0     C  977   2.598   0.667   8.169 -0.2825  0.0881 -0.5761
    8MOL0     C  978   2.517   0.672   8.283 -0.1775 -0.5993 -0.0406
    8MOL0     C  979   2.387   0.728   8.278  0.5518 -0.0073 -0.1654
    8MOL0     C  980   2.335   0.773   8.154  0.0548 -0.1231  0.1257
    8MOL0     O  981   2.208   0.832   8.162 -0.5587  0.5303  0.0253
    8MOL0     C  982   2.162   0.903   8.040 -0.4632 -0.0837  0.0931
    8MOL0     C  983   2.029   0.959   8.056 -0.2455 -0.0620 -0.7368
    8MOL0     C  984   1.978   1.070   7.962 -0.3555 -0.8285 -0.6929
    8MOL0     C  985   1.831   1.100   7.995  0.1790 -0.0701  1.0161
    8MOL0     C  986   1.781   1.204   7.888  0.1550 -0.3246  0.4804
    8MOL0     C  987   1.638   1.233   7.926 -0.5654  0.3753  0.2893
    8MOL0     C  988   1.626   1.367   8.003 -0.8313 -0.2721 -0.7363
    8MOL0     C  989   1.516   1.460   7.964 -0.5961 -0.3819  0.2023
    8MOL0    Cl  990   1.547   1.620   8.047  0.0250 -0.6534  0.0131
    8MOL0     C  991   2.416   0.773   8.044 -0.2266 -0.5219 -0.3398
    8MOL0     C  992   2.540   0.717   8.051 -0.6953 -0.9091  0.4833
    8MOL0     O  993   2.815   0.777   8.061 -0.1310 -0.8931 -0.0274
    8MOL0     C  994   2.943   0.457   8.167  0.4828 -0.2152 -0.5710
    8MOL0     C  995   3.054   0.367   8.166 -0.0495  0.4171  0.0290
    8MOL0     N  996   3.542   0.199   7.691 -0.4301  0.4257 -0.3389
    8MOL0     N  997   3.655   0.208   7.642  0.1901  0.1621  0.2379
    8MOL0     C  998   4.582   0.731   7.884 -0.4273 -0.4177  0.1051
    8MOL0     C  999   4.719   0.727   7.928 -0.2845  0.7833  0.3999
    8MOL0     C 1000   5.120   0.526   8.074 -1.0330 -1.1944 -0.1957
    8MOL0     C 1001   5.201   0.627   8.020 -0.2944 -0.5017  0.6320
    8MOL0     C 1002   5.337   0.631   8.032  0.0550 -0.3647  0.2046
    8MOL0     C 1003   5.409   0.521   8.091  1.1611 -0.1398  0.1181
    8MOL0     O 1004   5.546   0.524   8.107 -0.0236 -0.5287  1.1259
    8MOL0     C 1005   5.618   0.451   8.205  0.5588 -0.3131 -0.0658
    8MOL0     C 1006   5.767   0.498   8.197 -0.7149 -0.0268  0.4441
    8MOL0     C 1007   5.864   0.408   8.294  0.1089 -0.1491  0.4582
    8MOL0     C 1008   5.840   0.453   8.434 -0.4424 -0.3167 -0.1009
    8MOL0     C 1009   5.946   0.398   8.527 -0.1968  0.0638 -0.4685
    8MOL0     C 1010   6.007   0.346   8.620 -0.4964  0.0140  0.4355
    8MOL0     C 1011   5.332   0.414   8.153  0.0787  0.0638 -0.1695
    8MOL0     C 1012   5.194   0.419   8.139  0.2075  0.3183  0.0655
    8MOL0     H 1013   4.742   0.392   7.993  3.6538  0.2227 -0.5634
    8MOL0     H 1014   4.499   0.417   7.945  1.9104 -1.0854 -1.8890
    8MOL0     H 1015   4.318   0.814   7.883  2.0146 -0.6199  1.3133
    8MOL0     H 1016   4.362   0.766   7.727 -0.2754  0.8181  0.3318
    8MOL0     H 1017   4.102   0.704   7.864  0.1362 -0.1871  0.0860
    8MOL0     H 1018   4.119   0.774   7.703 -1.7785 -2.5121 -0.2326
    8MOL0     H 1019   4.083   0.580   7.611 -1.3732 -0.0698  1.0402
    8MOL0     H 1020   4.247   0.547   7.677 -0.1517  2.9506  1.6274
    8MOL0     H 1021   4.126   0.449   7.884 -1.5648  0.8810  0.7795
    8MOL0     H 1022   3.970   0.491   7.804 -0.4606 -0.8819 -1.1553
    8MOL0     H 1023   4.027   0.337   7.621  1.6164  4.1428 -1.1300
    8MOL0     H 1024   4.178   0.292   7.708  0.3899  1.0432 -0.9831
    8MOL0     H 1025   4.042   0.226   7.904  1.3966  2.2240  0.4309
    8MOL0     H 1026   3.893   0.256   7.826  0.9127  0.3780  0.5971
    8MOL0     H 1027   4.087   0.075   7.662 -0.7688  0.0445 -1.3635
    8MOL0     H 1028   3.985   0.016   7.801  1.0010 -0.5828 -1.3798
    8MOL0     H 1029   3.872  -0.011   7.575 -3.2647  0.4301 -1.2247
    8MOL0     H 1030   3.895   0.165   7.549  2.1110  0.4172 -0.0324
    8MOL0     H 1031   3.700  -0.065   7.827  0.3443  0.6651  0.9725
    8MOL0     H 1032   3.335   0.075   7.826 -0.5758  0.9280  2.4237
    8MOL0     H 1033   3.425  -0.070   7.866  0.5167 -0.3454 -0.2591
    8MOL0     H 1034   3.554   0.000   8.027  0.0186 -0.3018  0.4631
    8MOL0     H 1035   3.393   0.047   8.072  0.1154  1.0585  1.6992
    8MOL0     H 1036   3.584   0.259   7.980  0.8676 -0.2445  1.3903
    8MOL0     H 1037   3.521   0.228   8.144  1.2220  2.7036 -0.5197
    8MOL0     H 1038   3.348   0.295   7.907  0.2399 -3.4152  0.1455
    8MOL0     H 1039   3.427   0.415   8.014 -0.3444  0.2179  1.5660
    8MOL0     H 1040   3.259   0.534   7.965 -2.1032  2.3092 -0.7461
    8MOL0     H 1041   3.088   0.814   8.005 -0.9786  0.2608 -0.4779
    8MOL0     H 1042   3.194   0.738   7.894 -0.2011  3.5385 -0.8887
    8MOL0     H 1043   3.029   0.744   7.851  0.9083 -1.4829 -1.4097
    8MOL0     H 1044   2.562   0.636   8.375 -0.0587  0.1557  0.2042
    8MOL0     H 1045   2.318   0.734   8.362 -1.9286 -4.8301 -1.4977
    8MOL0     H 1046   2.222   0.992   8.021  0.7530 -0.8599  0.1693
    8MOL0     H 1047   2.163   0.828   7.960 -0.6882  0.2372 -0.2094
    8MOL0     H 1048   1.959   0.874   8.053 -1.2831  0.6014  1.6135
    8MOL0     H 1049   2.008   1.006   8.153 -2.6542 -0.0774 -1.1725
    8MOL0     H 1050   1.988   1.047   7.856 -1.9699  0.9568 -1.2947
    8MOL0     H 1051   2.038   1.159   7.985 -1.3455 -0.7271  1.8186
    8MOL0     H 1052   1.757   1.019   7.988  0.8296 -0.5128 -2.1739
    8MOL0     H 1053   1.835   1.142   8.096 -0.5789 -3.9234  2.8436
    8MOL0     H 1054   1.783   1.166   7.785 -1.6868  2.1238 -0.5907
    8MOL0     H 1055   1.842   1.295   7.888  1.5931 -1.2672  0.5430
    8MOL0     H 1056   1.579   1.226   7.834  0.3407 -1.0793 -0.2005
    8MOL0     H 1057   1.595   1.152   7.987 -3.5931  0.7084 -1.1989
    8MOL0     H 1058   1.723   1.417   8.006 -1.4406  0.9199 -0.3884
    8MOL0     H 1059   1.609   1.350   8.110 -0.6202  1.2820 -0.4266
    8MOL0     H 1060   1.418   1.423   7.994  0.8361 -3.2856  1.8180
    8MOL0     H 1061   1.515   1.478   7.857 -2.7472 -0.9251  0.1043
    8MOL0     H 1062   2.382   0.799   7.945  0.3887 -0.9954 -0.6825
    8MOL0     H 1063   2.600   0.708   7.961  1.0334  0.3957  1.4365
    8MOL0     H 1064   2.856   0.421   8.221  0.2277  0.0548 -0.7986
    8MOL0     H 1065   3.056   0.285   8.238 -2.6483 -0.2150 -0.5232
    8MOL0     H 1066   4.534   0.823   7.852 -1.9115 -0.2443  2.5730
    8MOL0     H 1067   4.788   0.810   7.918  1.2671 -0.3572  1.2810
    8MOL0     H 1068   5.148   0.707   7.968 -1.5764 -0.8523  1.3330
    8MOL0     H 1069   5.391   0.717   7.993  1.5547 -0.9157  0.9900
    8MOL0     H 1070   5.582   0.458   8.308 -2.1203  0.1673 -0.9489
    8MOL0     H 1071   5.605   0.343   8.190 -0.0003 -1.1647  4.7722
    8MOL0     H 1072   5.783   0.601   8.230  0.0804 -0.2822  0.8852
    8MOL0     H 1073   5.800   0.484   8.093 -1.2852 -0.0062  0.2604
    8MOL0     H 1074   5.965   0.415   8.251 -0.7684  0.4813 -1.6654
    8MOL0     H 1075   5.838   0.303   8.279 -3.4093  0.6531  0.0009
    8MOL0     H 1076   5.741   0.415   8.464 -1.2412  0.3197 -1.7938
    8MOL0     H 1077   5.847   0.562   8.439  1.0912 -0.1796 -3.1485
    8MOL0     H 1078   6.052   0.298   8.704 -0.0122  0.2409  0.3093
    8MOL0     H 1079   5.374   0.340   8.221 -0.2329  1.5912  1.7727
    8MOL0     H 1080   5.133   0.348   8.194 -1.5565  0.6414 -1.3892
    9MOL0     O 1081   1.668   5.123   8.446 -0.5075  0.8935  0.3679
    9MOL0     C 1082   1.593   5.057   8.368  0.3121  0.4200 -1.3426
    9MOL0     O 1083   1.459   5.069   8.360  0.1370  0.2775  0.1599
    9MOL0     C 1084   1.392   5.165   8.426 -0.0621 -0.0224  0.1648
    9MOL0     C 1085   1.329   5.257   8.351  0.7466  0.4325  0.5394
    9MOL0     C 1086   1.244   5.347   8.414 -0.1089 -1.0402  0.7466
    9MOL0     C 1087   1.231   5.356   8.554 -0.9619 -0.3033 -0.0726
    9MOL0     O 1088   1.159   5.454   8.618 -0.4911  0.0024 -0.1581
    9MOL0     C 1089   1.065   5.534   8.549 -0.1064 -0.5380  0.6380
    9MOL0     C 1090   0.992   5.643   8.632 -0.0593 -1.0441  0.0286
    9MOL0     C 1091   0.922   5.758   8.560 -0.2888 -0.5263  0.4931
    9MOL0     C 1092   0.818   5.822   8.647  0.0628  0.4677 -0.0622
    9MOL0     C 1093   0.736   5.933   8.569  0.6462 -0.4998  0.2454
    9MOL0     C 1094   0.586   5.952   8.608 -0.2653  0.0994  0.1511
    9MOL0     C 1095   0.581   6.099   8.663 -1.1045 -0.3970  0.5578
    9MOL0     C 1096   0.435   6.123   8.693 -0.3113 -0.6112  0.5886
    9MOL0     N 1097   0.338   6.113   8.582  0.3573 -0.0442 -0.0306
    9MOL0     C 1098   0.205   6.112   8.601 -0.9628  0.8632 -0.8532
    9MOL0     C 1099   0.153   6.128   8.475 -0.4302 -0.8329 -0.7265
    9MOL0     C 1100   0.004   6.132   8.425  0.2499 -0.0815 -0.0550
    9MOL0     C 1101  -0.075   6.245   8.487  0.1290 -0.1753  0.4269
    9MOL0     C 1102  -0.021   6.385   8.443 -0.2352 -0.8512  0.1778
    9MOL0     C 1103  -0.132   6.482   8.475 -0.7893  0.4411 -0.1388
    9MOL0     O 1104  -0.249   6.446   8.394 -0.1241 -0.6801 -0.0892
    9MOL0     C 1105  -0.268   6.520   8.278  0.4613 -0.7998 -1.0823
    9MOL0     C 1106  -0.180   6.596   8.207 -0.6849 -0.2647  0.0572
    9MOL0     C 1107  -0.216   6.655   8.079  0.3985  0.0904 -0.3610
    9MOL0     C 1108  -0.112   6.724   8.006  0.9561 -0.4597  0.0944
    9MOL0     C 1109  -0.356   6.639   8.042 -0.9249 -0.4052 -0.1979
    9MOL0     C 1110  -0.419   6.712   7.928 -1.1094  0.9947 -0.7321
    9MOL0     O 1111  -0.519   6.797   7.954 -0.3532  1.0693 -0.4366
    9MOL0     C 1112  -0.584   6.844   7.840 -0.3510 -0.0055 -0.6753
    9MOL0     C 1113  -0.522   6.915   7.743 -0.5583  0.4176 -0.8870
    9MOL0     C 1114  -0.594   6.954   7.637  0.1761 -0.1649  0.2801
    9MOL0     C 1115  -0.733   6.936   7.628  0.2702 -0.6561 -0.0605
    9MOL0     O 1116  -0.820   6.979   7.527 -0.1773 -0.1419 -0.0357
    9MOL0     C 1117  -0.745   7.013   7.403 -0.0600  0.3475 -0.6439
    9MOL0     C 1118  -0.838   7.023   7.285  0.3345 -0.8540  0.0870
    9MOL0     C 1119  -0.940   6.917   7.251 -0.0012  0.7234  0.0789
    9MOL0     C 1120  -1.042   6.955   7.150  0.4479 -0.2275  0.1097
    9MOL0     C 1121  -1.152   6.853   7.160 -0.5458  0.3527  0.1264
    9MOL0     C 1122  -1.269   6.862   7.060  0.1667  0.0048 -0.8166
    9MOL0     C 1123  -1.357   6.971   7.110  0.0538  0.4897  0.0336
    9MOL0     C 1124  -1.476   6.986   7.020  0.1790 -0.6886 -0.5610
    9MOL0    Cl 1125  -1.595   6.855   7.022  0.1473 -0.1874  0.0550
    9MOL0     C 1126  -0.795   6.859   7.727  0.2796  0.5297 -0.0611
    9MOL0     C 1127  -0.721   6.813   7.832 -0.5427  0.4111 -0.7328
    9MOL0     O 1128  -0.375   6.677   7.815 -0.0421 -0.3005 -0.2079
    9MOL0     C 1129  -0.444   6.570   8.127 -1.1056 -0.0159  0.2763
    9MOL0     C 1130  -0.395   6.502   8.237  0.6945  0.0211  1.0041
    9MOL0     N 1131   0.256   6.147   8.387  0.2848  0.5194  0.5574
    9MOL0     N 1132   0.364   6.146   8.459 -0.1468 -0.5554 -0.1775
    9MOL0     C 1133   1.304   5.263   8.627  0.5638 -0.6541  0.0270
    9MOL0     C 1134   1.383   5.163   8.569 -0.3009 -0.6442  0.8497
    9MOL0     C 1135   1.653   4.937   8.301 -0.6606  0.2002 -1.2412
    9MOL0     C 1136   1.790   4.914   8.314 -0.3236 -0.3674  0.0588
    9MOL0     C 1137   1.854   4.802   8.258  0.1842  0.4472 -0.5488
    9MOL0     C 1138   1.781   4.707   8.179  0.1803 -0.4406  0.4022
    9MOL0     O 1139   1.837   4.599   8.109 -0.5529  0.1015 -0.2029
    9MOL0     C 1140   1.962   4.552   8.158 -0.4987 -0.4852  0.4309
    9MOL0     C 1141   1.972   4.506   8.307  0.5338  0.2609 -0.0087
    9MOL0     C 1142   2.112   4.483   8.365 -1.2899 -0.6441 -0.1630
    9MOL0     C 1143   2.218   4.596   8.351 -0.5934 -0.5610 -0.0709
    9MOL0     C 1144   2.352   4.534   8.372 -0.6058 -0.4636  0.0783
    9MOL0     C 1145   2.463   4.475   8.381  0.3623  0.3676 -0.1215
    9MOL0     C 1146   1.647   4.729   8.166 -0.2757  0.3812  0.4294
    9MOL0     C 1147   1.581   4.837   8.236 -0.0246 -0.0746  0.1032
    9MOL0     H 1148   1.324   5.259   8.243  0.4453  4.2475  0.5040
    9MOL0     H 1149   1.204   5.432   8.360  0.2351 -0.2029  1.7827
    9MOL0     H 1150   1.123   5.581   8.470 -4.3357  2.0572 -1.2408
    9MOL0     H 1151   0.991   5.470   8.500 -0.3949  0.1731  0.1380
    9MOL0     H 1152   0.919   5.590   8.694 -0.3718  0.7330  1.2490
    9MOL0     H 1153   1.070   5.683   8.698  1.1650 -2.7506 -0.3039
    9MOL0     H 1154   0.999   5.828   8.528 -0.7668  2.9612  5.8042
    9MOL0     H 1155   0.869   5.713   8.475  0.8549 -0.0054 -0.5242
    9MOL0     H 1156   0.748   5.748   8.687 -2.2594  0.4144 -3.7226
    9MOL0     H 1157   0.876   5.864   8.730 -0.1424  0.5306  0.0509
    9MOL0     H 1158   0.791   6.027   8.569  0.0914 -0.0937  3.1050
    9MOL0     H 1159   0.740   5.900   8.464  2.0828 -1.9747  0.7101
    9MOL0     H 1160   0.507   5.939   8.533 -4.0101  4.4492  2.8252
    9MOL0     H 1161   0.561   5.886   8.691  1.9259 -2.3083 -0.9567
    9MOL0     H 1162   0.639   6.105   8.755  1.9642  0.4599 -1.3215
    9MOL0     H 1163   0.627   6.173   8.597 -0.1602 -1.4357  0.0188
    9MOL0     H 1164   0.426   6.226   8.729 -1.1873 -0.9193  1.3047
    9MOL0     H 1165   0.407   6.061   8.778 -2.0490  2.7383  2.7077
    9MOL0     H 1166   0.155   6.083   8.693 -0.1018 -1.9584 -1.1705
    9MOL0     H 1167   0.001   6.148   8.317  0.8518  0.9619  0.0759
    9MOL0     H 1168  -0.041   6.036   8.453  0.0527  0.5086  1.7984
    9MOL0     H 1169  -0.080   6.237   8.596 -0.0692  0.2623  0.4513
    9MOL0     H 1170  -0.177   6.236   8.449 -0.5649  0.5665  2.0432
    9MOL0     H 1171   0.011   6.383   8.338  2.4726 -0.6822  0.9258
    9MOL0     H 1172   0.072   6.402   8.497 -0.0954  1.8871 -0.7386
    9MOL0     H 1173  -0.097   6.581   8.446 -1.6143  0.8838  0.3494
    9MOL0     H 1174  -0.142   6.480   8.584  2.2685  0.8272  0.2435
    9MOL0     H 1175  -0.077   6.616   8.237 -1.1787  2.8850  0.0106
    9MOL0     H 1176  -0.125   6.831   8.025 -0.4131 -0.8748  1.6360
    9MOL0     H 1177  -0.015   6.687   8.040  1.5426 -0.4943 -1.5276
    9MOL0     H 1178  -0.118   6.705   7.898 -1.9552  0.9249 -0.0835
    9MOL0     H 1179  -0.414   6.921   7.743 -0.2961 -2.3192  1.0992
    9MOL0     H 1180  -0.547   7.002   7.552 -1.3816 -3.1507 -2.4746
    9MOL0     H 1181  -0.693   7.106   7.428 -1.1730  0.8278 -0.0478
    9MOL0     H 1182  -0.686   6.923   7.384 -0.7592  0.2687 -2.5762
    9MOL0     H 1183  -0.894   7.113   7.313 -0.1396 -2.3085  4.5175
    9MOL0     H 1184  -0.784   7.053   7.194 -0.8123 -1.5816 -0.8560
    9MOL0     H 1185  -0.999   6.888   7.338  0.0669  2.9090  0.9154
    9MOL0     H 1186  -0.895   6.822   7.219 -0.1812 -0.1684  2.2957
    9MOL0     H 1187  -1.084   7.049   7.185  0.2200 -0.7602  1.3007
    9MOL0     H 1188  -1.016   6.952   7.043  0.7723  2.1863  0.0592
    9MOL0     H 1189  -1.192   6.834   7.260 -0.9842 -1.0636 -0.2858
    9MOL0     H 1190  -1.110   6.755   7.134 -0.7423  0.5534 -1.0246
    9MOL0     H 1191  -1.232   6.878   6.959 -0.3362 -1.0165 -1.1722
    9MOL0     H 1192  -1.327   6.769   7.060 -0.0459  0.1325 -0.2977
    9MOL0     H 1193  -1.300   7.064   7.110  0.7544  0.1884 -3.3905
    9MOL0     H 1194  -1.404   6.954   7.208 -0.3797  1.1750 -0.0479
    9MOL0     H 1195  -1.430   6.982   6.921  0.0675 -0.4419 -0.6224
    9MOL0     H 1196  -1.519   7.086   7.036  1.8145 -0.0826  0.2053
    9MOL0     H 1197  -0.900   6.834   7.717  0.7650 -1.4043 -0.7967
    9MOL0     H 1198  -0.762   6.743   7.905 -1.6796 -0.3656 -2.0604
    9MOL0     H 1199  -0.549   6.561   8.102 -0.5396 -1.0045 -1.9631
    9MOL0     H 1200  -0.453   6.438   8.303  0.9388 -0.5684  0.6533
    9MOL0     H 1201   1.299   5.268   8.735 -2.5919  1.8664 -0.1025
    9MOL0     H 1202   1.415   5.079   8.629 -0.9026 -1.6961 -0.2676
    9MOL0     H 1203   1.854   4.988   8.360  2.6814 -2.6434 -0.1298
    9MOL0     H 1204   1.962   4.810   8.261  0.0852  1.9063  2.0649
    9MOL0     H 1205   1.982   4.466   8.094  2.1467  0.3079  0.0617
    9MOL0     H 1206   2.039   4.625   8.131 -0.0142 -0.3126  2.1413
    9MOL0     H 1207   1.898   4.427   8.326  1.3104 -0.5107 -0.0978
    9MOL0     H 1208   1.944   4.591   8.368  0.0751  0.0648  0.0550
    9MOL0     H 1209   2.161   4.390   8.336 -1.6135  0.0440 -3.2520
    9MOL0     H 1210   2.092   4.473   8.472 -1.7947  2.0004  0.0723
    9MOL0     H 1211   2.194   4.673   8.425 -1.0110 -0.5525 -0.2103
    9MOL0     H 1212   2.218   4.633   8.249  1.0247  1.9940  0.7742
    9MOL0     H 1213   2.547   4.409   8.391 -1.0709 -1.2792  1.9948
    9MOL0     H 1214   1.597   4.658   8.100 -0.0706 -0.7270  1.4329
    9MOL0     H 1215   1.475   4.850   8.217 -0.3102 -1.7067  0.4471
   10MOL0     O 1216   5.343   9.688   1.867 -0.1088  0.2669  0.0179
   10MOL0     C 1217   5.362   9.574   1.890 -0.0857 -0.3062 -0.1893
   10MOL0     O 1218   5.358   9.473   1.800 -0.6920 -0.0841 -0.1065
   10MOL0     C 1219   5.327   9.491   1.668  0.5793  0.3632  0.5000
   10MOL0     C 1220   5.224   9.566   1.612 -0.1175  0.2495  0.6735
   10MOL0     C 1221   5.193   9.564   1.474  0.0017  0.6279  0.2263
   10MOL0     C 1222   5.278   9.506   1.384  0.0095  0.1947  0.3597
   10MOL0     O 1223   5.262   9.509   1.247 -0.0230 -0.0521  0.1900
   10MOL0     C 1224   5.173   9.598   1.183  0.2143  0.0950  0.4041
   10MOL0     C 1225   5.179   9.594   1.032 -0.6707  0.6084  0.9166
   10MOL0     C 1226   5.097   9.706   0.969  0.0622  0.1644 -0.3135
   10MOL0     C 1227   4.951   9.732   1.014  0.3327  0.6313  0.3083
   10MOL0     C 1228   4.880   9.830   0.923 -0.7504 -0.2717  0.0985
   10MOL0     C 1229   4.807   9.753   0.817  0.3335  0.0435  0.5240
   10MOL0     C 1230   4.735   9.836   0.706  0.5925 -0.0663  0.2668
   10MOL0     C 1231   4.640   9.760   0.612 -1.1848 -0.1856 -0.0443
   10MOL0     N 1232   4.570   9.838   0.516 -0.3470 -0.0706  0.2894
   10MOL0     C 1233   4.606   9.957   0.457 -0.4614 -0.2929 -0.7577
   10MOL0     C 1234   4.507   9.989   0.374 -0.8894 -0.0373  1.4598
   10MOL0     C 1235   4.493  10.104   0.266 -0.4947  0.4700 -0.4052
   10MOL0     C 1236   4.354  10.166   0.272  0.2314 -0.2124 -0.2450
   10MOL0     C 1237   4.339  10.272   0.178  0.5917 -0.1805  0.0005
   10MOL0     C 1238   4.313  10.232   0.033 -0.1031  0.5460 -0.3002
   10MOL0     O 1239   4.254  10.332  -0.054  0.1471  0.0840  0.4363
   10MOL0     C 1240   4.117  10.345  -0.056  0.0498  0.2479  0.2670
   10MOL0     C 1241   4.026  10.267   0.015  0.4987 -0.1210  0.4816
   10MOL0     C 1242   3.886  10.287   0.023  0.1967  0.1496  0.1152
   10MOL0     C 1243   3.795  10.191   0.105 -0.1013 -0.7077  0.5526
   10MOL0     C 1244   3.830  10.405  -0.029  0.2780  0.1909  0.8291
   10MOL0     C 1245   3.684  10.450  -0.027  0.3308  0.5934  0.7568
   10MOL0     O 1246   3.595  10.397   0.067 -0.3896  0.2124  0.3618
   10MOL0     C 1247   3.458  10.405   0.065  0.7181 -0.5810 -0.5943
   10MOL0     C 1248   3.372  10.490  -0.014  0.9605 -0.1443 -0.5836
   10MOL0     C 1249   3.229  10.471  -0.009 -0.0928 -0.6685  0.5503
   10MOL0     C 1250   3.177  10.382   0.073 -0.0197  0.3262  0.4533
   10MOL0     O 1251   3.041  10.372   0.077 -0.4298 -0.4921 -0.4753
   10MOL0     C 1252   2.978  10.273   0.156 -0.0258 -0.4190  0.6191
   10MOL0     C 1253   2.834  10.283   0.180  0.0055  0.4977 -0.1366
   10MOL0     C 1254   2.754  10.286   0.060  0.1669 -0.7505 -0.5694
   10MOL0     C 1255   2.599  10.282   0.091  0.0981  0.4369  0.1222
   10MOL0     C 1256   2.523  10.294  -0.035 -0.5210  0.0386 -0.2928
   10MOL0     C 1257   2.363  10.288  -0.032 -0.0792  0.0447 -0.6263
   10MOL0     C 1258   2.306  10.163   0.048  0.4082  0.2679 -0.1748
   10MOL0     C 1259   2.139  10.168   0.039 -0.4470  0.4545 -0.1674
   10MOL0    Cl 1260   2.091  10.254   0.199 -0.1811  0.3865  0.2606
   10MOL0     C 1261   3.258  10.312   0.157  0.3167 -0.0245  0.0507
   10MOL0     C 1262   3.393  10.323   0.152  0.2276 -0.0490 -0.3813
   10MOL0     O 1263   3.647  10.511  -0.126  0.2315 -0.2125 -0.4058
   10MOL0     C 1264   3.924  10.490  -0.091  0.5040 -0.5014  0.3068
   10MOL0     C 1265   4.059  10.460  -0.110  0.6301  0.5814 -0.2962
   10MOL0     N 1266   4.420   9.888   0.388  0.0820  0.8374  0.6688
   10MOL0     N 1267   4.458   9.790   0.462  0.2432  0.5142 -0.5753
   10MOL0     C 1268   5.386   9.436   1.432 -0.0073  0.0794 -0.3203
   10MOL0     C 1269   5.406   9.422   1.571 -0.0481  0.4508  0.3392
   10MOL0     C 1270   5.362   9.538   2.034 -0.7700  0.7735  1.1826
   10MOL0     C 1271   5.389   9.622   2.140 -0.4136  0.9357 -1.7075
   10MOL0     C 1272   5.360   9.582   2.273 -0.4592 -0.0958 -0.1741
   10MOL0     C 1273   5.310   9.454   2.298  0.6127 -0.3184  0.4807
   10MOL0     O 1274   5.277   9.402   2.417  0.1932 -0.1733 -0.2050
   10MOL0     C 1275   5.240   9.498   2.525  0.1584 -0.3769 -0.1830
   10MOL0     C 1276   5.117   9.595   2.499  0.3266  0.5556  0.5435
   10MOL0     C 1277   5.007   9.533   2.405  0.6921  0.0048 -0.5511
   10MOL0     C 1278   4.952   9.398   2.456  0.0600 -0.2890  0.0629
   10MOL0     C 1279   4.832   9.349   2.380 -1.0292  0.1888 -0.1630
   10MOL0     C 1280   4.739   9.314   2.309  0.7310 -0.7090  0.3997
   10MOL0     C 1281   5.288   9.368   2.186 -0.1430 -0.6996  0.1979
   10MOL0     C 1282   5.319   9.410   2.061 -0.1839 -0.1784  0.1619
   10MOL0     H 1283   5.153   9.624   1.671 -0.9328  0.5651 -0.5711
   10MOL0     H 1284   5.095   9.604   1.455 -1.4129 -1.5531  2.2699
   10MOL0     H 1285   5.071   9.582   1.219  0.2016  2.5398  1.6922
   10MOL0     H 1286   5.199   9.699   1.217 -1.1261  0.1899  1.2406
   10MOL0     H 1287   5.287   9.595   1.012 -0.8885 -1.9756 -0.8866
   10MOL0     H 1288   5.157   9.500   0.980 -1.6291  2.3937 -2.1834
   10MOL0     H 1289   5.144   9.804   0.984 -0.6836  1.0714 -3.1811
   10MOL0     H 1290   5.096   9.702   0.859 -0.7774  0.2680 -0.3181
   10MOL0     H 1291   4.897   9.636   1.017 -0.6128  1.0833 -1.1019
   10MOL0     H 1292   4.955   9.767   1.117  1.8105 -1.4915  1.0459
   10MOL0     H 1293   4.798   9.883   0.972 -3.2844 -2.5906 -1.3602
   10MOL0     H 1294   4.956   9.902   0.891  0.2539 -0.3544  2.0850
   10MOL0     H 1295   4.866   9.673   0.771  2.5855  2.2311 -0.6665
   10MOL0     H 1296   4.723   9.712   0.872  0.7370 -0.3749  0.8337
   10MOL0     H 1297   4.682   9.922   0.748  1.9546  1.8488 -1.7312
   10MOL0     H 1298   4.810   9.876   0.638 -0.0480  0.1829 -0.2997
   10MOL0     H 1299   4.580   9.696   0.677 -0.2619 -0.7160  0.3086
   10MOL0     H 1300   4.709   9.696   0.556  0.8606  0.6955  1.3200
   10MOL0     H 1301   4.691  10.023   0.471 -1.5041  0.6582  1.6983
   10MOL0     H 1302   4.570  10.176   0.293  2.3958 -2.1664 -0.9951
   10MOL0     H 1303   4.501  10.063   0.165  0.7533  3.2115 -1.5156
   10MOL0     H 1304   4.345  10.201   0.375 -0.5144 -2.0748  0.3765
   10MOL0     H 1305   4.283  10.086   0.247  1.6510 -0.9265 -2.2409
   10MOL0     H 1306   4.430  10.334   0.170  2.0012 -1.8389  2.1648
   10MOL0     H 1307   4.252  10.334   0.200  0.1464 -1.3154  1.5668
   10MOL0     H 1308   4.258  10.138   0.019 -0.2605  0.9911 -3.3578
   10MOL0     H 1309   4.408  10.201  -0.013 -0.0786 -1.1546  0.7972
   10MOL0     H 1310   4.065  10.176   0.060  0.0508 -0.4666  0.1738
   10MOL0     H 1311   3.728  10.138   0.037  0.2298 -0.6953  0.2151
   10MOL0     H 1312   3.849  10.102   0.139  0.7944 -1.7996 -3.2132
   10MOL0     H 1313   3.735  10.249   0.176 -0.2167  1.2597 -1.0690
   10MOL0     H 1314   3.404  10.571  -0.078  3.5255  0.0046  0.7519
   10MOL0     H 1315   3.154  10.538  -0.050  0.7665  0.1282  0.2680
   10MOL0     H 1316   3.004  10.174   0.118 -0.3190 -0.9582  1.8075
   10MOL0     H 1317   3.012  10.267   0.259 -0.9688 -2.1863  0.8627
   10MOL0     H 1318   2.798  10.193   0.232 -1.2434 -0.4455 -2.4919
   10MOL0     H 1319   2.815  10.369   0.245  1.6292 -1.8773  3.9209
   10MOL0     H 1320   2.791  10.221  -0.019  3.5737  1.6501 -1.1623
   10MOL0     H 1321   2.763  10.388   0.020  1.9273 -0.8093 -0.3625
   10MOL0     H 1322   2.575  10.188   0.143 -0.3515 -0.1103 -1.0563
   10MOL0     H 1323   2.572  10.368   0.154  0.9121  0.9816 -0.2556
   10MOL0     H 1324   2.569  10.221  -0.101  0.4508  0.7723 -0.4450
   10MOL0     H 1325   2.558  10.387  -0.080 -1.7134 -0.0720 -1.4966
   10MOL0     H 1326   2.318  10.377   0.012  1.2421 -0.1449  1.2357
   10MOL0     H 1327   2.334  10.286  -0.137 -1.4716  3.1380 -0.3861
   10MOL0     H 1328   2.333  10.161   0.154 -2.2869  4.5102  0.8340
   10MOL0     H 1329   2.345  10.071   0.003  0.2034  0.5082 -0.8599
   10MOL0     H 1330   2.101  10.068   0.019  3.0504 -0.5721 -2.5836
   10MOL0     H 1331   2.110  10.223  -0.051 -2.1965 -1.1054 -0.6273
   10MOL0     H 1332   3.212  10.239   0.223 -1.2509 -1.1416 -2.1175
   10MOL0     H 1333   3.449  10.260   0.221 -2.2707 -1.6176  0.3129
   10MOL0     H 1334   3.884  10.587  -0.118 -1.6246 -1.0308  1.3397
   10MOL0     H 1335   4.125  10.535  -0.151  2.0694 -0.2391  0.4472
   10MOL0     H 1336   5.457   9.397   1.359 -0.5127 -0.1091 -0.7128
   10MOL0     H 1337   5.482   9.351   1.601 -0.7759 -1.1242 -1.3384
   10MOL0     H 1338   5.423   9.724   2.126  1.8504  1.2134  3.3800
   10MOL0     H 1339   5.407   9.644   2.348 -1.1821  0.1781  0.0652
   10MOL0     H 1340   5.229   9.445   2.620 -1.0094 -0.2122 -0.2141
   10MOL0     H 1341   5.331   9.554   2.549 -0.0691 -0.0963  0.0339
   10MOL0     H 1342   5.150   9.694   2.467  2.5455 -0.5839 -1.0039
   10MOL0     H 1343   5.071   9.614   2.597 -1.1498  1.8942 -0.3655
   10MOL0     H 1344   5.058   9.507   2.311  1.0849  2.1516 -0.9841
   10MOL0     H 1345   4.930   9.610   2.389  0.8260  0.5463  1.2047
   10MOL0     H 1346   4.922   9.410   2.560 -1.7115 -1.2577 -0.2910
   10MOL0     H 1347   5.022   9.314   2.453 -1.4695 -1.7487  2.0771
   10MOL0     H 1348   4.651   9.280   2.257  0.7340 -1.0887  0.6423
   10MOL0     H 1349   5.258   9.263   2.181 -2.1661 -0.1034 -2.0986
   10MOL0     H 1350   5.295   9.333   1.989  1.9838 -2.1491  1.4362
   11MOL0     O 1351  10.965   2.041   1.845  0.3200 -0.4886 -0.2407
   11MOL0     C 1352  11.002   2.102   1.748 -0.3298 -0.4539  0.4635
   11MOL0     O 1353  10.924   2.122   1.635 -0.0682  0.5370 -0.4770
   11MOL0     C 1354  10.808   2.052   1.621  0.4355 -0.0064  0.5119
   11MOL0     C 1355  10.681   2.103   1.644 -0.8194  0.2866  0.1686
   11MOL0     C 1356  10.574   2.020   1.653  0.9049 -0.6356  0.3206
   11MOL0     C 1357  10.579   1.889   1.607  0.3919 -0.1583  0.7031
   11MOL0     O 1358  10.470   1.812   1.580  0.1737 -0.9683 -0.0438
   11MOL0     C 1359  10.337   1.863   1.609 -0.1647 -0.4115 -0.2738
   11MOL0     C 1360  10.240   1.774   1.538 -0.2102  0.5154  0.6337
   11MOL0     C 1361  10.092   1.823   1.538 -0.2167  0.3336 -0.3934
   11MOL0     C 1362  10.065   1.924   1.432  0.0510 -1.1621  0.6274
   11MOL0     C 1363   9.922   1.978   1.432  0.0255  0.4901 -0.1593
   11MOL0     C 1364   9.821   1.866   1.392  0.2866  0.2643 -0.9343
   11MOL0     C 1365   9.677   1.925   1.404  0.9989  0.1522 -0.4220
   11MOL0     C 1366   9.636   2.016   1.288 -0.0524  0.1653 -0.0055
   11MOL0     N 1367   9.506   2.078   1.302  0.2395  0.2490 -0.1827
   11MOL0     C 1368   9.398   2.006   1.341 -0.1661 -1.1542 -0.0260
   11MOL0     C 1369   9.289   2.073   1.282 -0.7608 -0.7201  0.8203
   11MOL0     C 1370   9.146   2.016   1.281  0.1338 -0.1079  0.3580
   11MOL0     C 1371   9.107   1.954   1.414  1.1116 -0.5511  0.1265
   11MOL0     C 1372   9.081   2.054   1.525  0.7926  0.2644  0.2410
   11MOL0     C 1373   9.031   1.982   1.654 -0.6846 -0.2016 -0.2452
   11MOL0     O 1374   9.119   1.889   1.721  0.2315  0.5183 -0.4466
   11MOL0     C 1375   9.240   1.938   1.756  0.1952 -0.7173  0.3690
   11MOL0     C 1376   9.260   2.044   1.840  0.2949  0.2922  0.1070
   11MOL0     C 1377   9.389   2.087   1.883  0.4262 -0.8568 -0.3313
   11MOL0     C 1378   9.396   2.222   1.963 -0.1657  0.6086 -0.1438
   11MOL0     C 1379   9.507   2.008   1.838  0.0030  0.6920  0.3405
   11MOL0     C 1380   9.645   2.044   1.863  0.4251 -0.7891  0.1902
   11MOL0     O 1381   9.744   1.995   1.783  0.1259 -0.4789 -0.2732
   11MOL0     C 1382   9.875   2.008   1.819 -0.2609 -0.1036  0.3121
   11MOL0     C 1383   9.932   1.901   1.887  1.0956  0.1118 -0.2790
   11MOL0     C 1384  10.073   1.903   1.925 -0.0908 -0.1766 -0.0530
   11MOL0     C 1385  10.156   2.010   1.898  1.0573 -0.5313  0.3672
   11MOL0     O 1386  10.288   2.010   1.929 -0.0953  0.3389 -0.4928
   11MOL0     C 1387  10.328   2.055   2.060  0.6179  0.1143  0.5344
   11MOL0     C 1388  10.474   2.080   2.074 -0.5261 -0.2553  0.1116
   11MOL0     C 1389  10.565   1.960   2.076 -0.1947  0.1725  0.1417
   11MOL0     C 1390  10.715   1.990   2.069 -0.3226 -0.6657 -0.2012
   11MOL0     C 1391  10.775   2.008   2.213  0.6971  0.5374 -0.1842
   11MOL0     C 1392  10.923   2.017   2.205 -0.8268  0.3083  0.3374
   11MOL0     C 1393  10.987   2.000   2.337 -0.4314 -0.4622  0.3457
   11MOL0     C 1394  11.136   1.983   2.331  0.4103  0.3541  0.4646
   11MOL0    Cl 1395  11.218   2.138   2.369  0.6594  0.5060  0.1348
   11MOL0     C 1396  10.103   2.117   1.832 -0.8498 -1.2849  1.1398
   11MOL0     C 1397   9.967   2.113   1.792 -0.2005  0.5096  0.3585
   11MOL0     O 1398   9.659   2.108   1.972  0.1964  0.1757 -0.1483
   11MOL0     C 1399   9.483   1.902   1.753 -0.0351 -0.0005  0.5613
   11MOL0     C 1400   9.353   1.870   1.710 -0.5110 -0.3775 -1.0933
   11MOL0     N 1401   9.332   2.167   1.195  0.6525 -0.6428 -0.0375
   11MOL0     N 1402   9.468   2.174   1.208 -0.2668  0.0053  0.6269
   11MOL0     C 1403  10.700   1.827   1.572 -0.1513  0.0728 -1.1116
   11MOL0     C 1404  10.808   1.916   1.579 -0.5730 -0.4066  0.1586
   11MOL0     C 1405  11.144   2.157   1.752  0.5950  0.4511 -0.2924
   11MOL0     C 1406  11.200   2.214   1.638 -0.2645 -0.4324 -0.9793
   11MOL0     C 1407  11.318   2.280   1.641 -0.5800  0.6237 -0.0378
   11MOL0     C 1408  11.384   2.307   1.758  0.3740  0.4678 -0.4284
   11MOL0     O 1409  11.507   2.364   1.773 -0.1994  0.1767  0.3915
   11MOL0     C 1410  11.523   2.483   1.712  0.2724 -0.4924  1.0538
   11MOL0     C 1411  11.668   2.528   1.712  0.0002  0.8416 -0.4983
   11MOL0     C 1412  11.709   2.645   1.630  0.8534 -0.3696  0.0059
   11MOL0     C 1413  11.855   2.647   1.626 -0.7448  0.3008  0.4099
   11MOL0     C 1414  11.916   2.721   1.507 -0.5766  0.4952 -0.8222
   11MOL0     C 1415  11.966   2.790   1.419  0.8110  1.5000  0.3702
   11MOL0     C 1416  11.320   2.259   1.876  0.2011  0.1462  0.3465
   11MOL0     C 1417  11.201   2.188   1.875 -0.4456  0.0063  0.8207
   11MOL0     H 1418  10.679   2.202   1.689 -0.5409  0.1789  0.4273
   11MOL0     H 1419  10.487   2.072   1.692  0.2588 -0.5710 -1.1300
   11MOL0     H 1420  10.327   1.864   1.718  4.3385  1.9280  0.3418
   11MOL0     H 1421  10.334   1.964   1.567 -0.3553 -0.9265 -1.5185
   11MOL0     H 1422  10.270   1.766   1.433 -0.5625  0.5914  0.5252
   11MOL0     H 1423  10.234   1.680   1.594  1.3354  0.3025  0.4803
   11MOL0     H 1424  10.029   1.734   1.526  0.9709 -0.5334 -0.3596
   11MOL0     H 1425  10.071   1.875   1.632  2.1327  1.6493 -0.5129
   11MOL0     H 1426  10.115   2.018   1.458  0.5376 -1.1515 -0.3308
   11MOL0     H 1427  10.089   1.896   1.329 -0.8937  1.1975 -0.3008
   11MOL0     H 1428   9.890   2.020   1.528  2.8090  1.2708  0.4900
   11MOL0     H 1429   9.907   2.064   1.365 -1.7808 -0.1287 -0.6243
   11MOL0     H 1430   9.842   1.837   1.289  0.5394 -0.1154 -0.7793
   11MOL0     H 1431   9.832   1.774   1.450 -2.8157 -0.3792 -1.2124
   11MOL0     H 1432   9.610   1.839   1.392  1.1514 -0.5166  2.6080
   11MOL0     H 1433   9.651   1.962   1.504 -1.4575  1.2011 -1.3953
   11MOL0     H 1434   9.639   1.951   1.200  2.0971 -0.9301  0.8071
   11MOL0     H 1435   9.708   2.094   1.262  1.4629 -1.9233 -2.5571
   11MOL0     H 1436   9.388   1.920   1.406 -0.9882 -0.7588  0.3948
   11MOL0     H 1437   9.077   2.094   1.247 -0.4222 -2.6120 -5.3306
   11MOL0     H 1438   9.135   1.933   1.211 -2.1198 -2.5958  3.3884
   11MOL0     H 1439   9.171   1.869   1.440  1.7120 -0.5913 -1.3854
   11MOL0     H 1440   9.007   1.914   1.393  1.2525  0.4774 -2.9234
   11MOL0     H 1441   9.000   2.120   1.496 -0.7981 -1.8572 -0.4048
   11MOL0     H 1442   9.170   2.114   1.548  1.9913 -0.3518 -2.3873
   11MOL0     H 1443   8.936   1.931   1.633  0.0399 -1.2067 -1.1674
   11MOL0     H 1444   9.008   2.064   1.723  2.9433  1.4935 -0.8174
   11MOL0     H 1445   9.174   2.101   1.874 -0.7670 -1.5677  0.6750
   11MOL0     H 1446   9.483   2.278   1.929  1.0704  0.3108  2.3249
   11MOL0     H 1447   9.302   2.277   1.957 -1.5934 -1.2566  2.9383
   11MOL0     H 1448   9.407   2.185   2.065 -2.0447 -1.7097 -0.6745
   11MOL0     H 1449   9.862   1.825   1.920 -2.0369  3.1588  0.7383
   11MOL0     H 1450  10.136   1.821   1.960 -1.3770 -1.0001  0.3975
   11MOL0     H 1451  10.287   2.156   2.062  2.4959  0.9957 -1.5333
   11MOL0     H 1452  10.292   1.993   2.143 -0.9937  0.8789  0.4607
   11MOL0     H 1453  10.501   2.144   1.990  0.0945  1.2954  1.4384
   11MOL0     H 1454  10.484   2.134   2.168  3.0198 -2.4330  1.1674
   11MOL0     H 1455  10.539   1.900   1.987 -1.1965 -0.9062  1.1143
   11MOL0     H 1456  10.549   1.911   2.172 -1.1590  0.7740  0.2959
   11MOL0     H 1457  10.764   1.911   2.011  1.2968  0.1197  0.0467
   11MOL0     H 1458  10.732   2.082   2.012  0.7183 -1.7230 -1.6734
   11MOL0     H 1459  10.745   1.928   2.282  0.5780  0.1354 -0.6896
   11MOL0     H 1460  10.733   2.101   2.252  1.4000  1.2870 -1.1480
   11MOL0     H 1461  10.958   1.937   2.139  1.0727  1.3337  0.0284
   11MOL0     H 1462  10.959   2.104   2.150  1.0572 -0.8246 -0.3293
   11MOL0     H 1463  10.945   1.918   2.396 -1.8333  1.5701  2.3234
   11MOL0     H 1464  10.968   2.091   2.394  3.1648  1.0349 -0.6005
   11MOL0     H 1465  11.159   1.948   2.230 -2.8426  0.4048 -0.4187
   11MOL0     H 1466  11.160   1.904   2.403 -1.6620  1.5589  2.6633
   11MOL0     H 1467  10.156   2.208   1.806  0.5532 -2.9121 -2.3495
   11MOL0     H 1468   9.938   2.192   1.724 -3.4404 -1.8984 -1.3353
   11MOL0     H 1469   9.559   1.851   1.695  0.2491  1.3906 -0.3408
   11MOL0     H 1470   9.351   1.789   1.638 -0.1009  0.9195 -2.6469
   11MOL0     H 1471  10.719   1.725   1.539 -0.5584 -1.3612  2.5845
   11MOL0     H 1472  10.900   1.862   1.556  0.7255  1.7434  0.0197
   11MOL0     H 1473  11.146   2.200   1.545 -0.8074 -1.1625 -0.5691
   11MOL0     H 1474  11.369   2.304   1.548 -0.1776  0.2831  0.0917
   11MOL0     H 1475  11.500   2.481   1.605  4.6724  0.2800 -0.1204
   11MOL0     H 1476  11.457   2.555   1.761 -2.9205 -1.2047 -1.7706
   11MOL0     H 1477  11.735   2.443   1.700  2.7621  2.5001  1.8513
   11MOL0     H 1478  11.680   2.563   1.816  1.5838 -0.7163 -0.1162
   11MOL0     H 1479  11.665   2.738   1.665  0.7452 -0.3696 -0.1270
   11MOL0     H 1480  11.674   2.628   1.528  1.5269 -0.3421 -0.2335
   11MOL0     H 1481  11.891   2.545   1.636 -0.3702  0.3872 -0.0478
   11MOL0     H 1482  11.895   2.702   1.712 -0.4983  0.7711  0.0020
   11MOL0     H 1483  12.004   2.859   1.347  1.9708  0.3774 -0.1243
   11MOL0     H 1484  11.375   2.269   1.969  0.9084 -1.9334  0.1996
   11MOL0     H 1485  11.160   2.147   1.966 -0.2828  0.5042  1.1248
   12MOL0     O 1486   3.624  10.908  10.587  0.5316  0.1297 -0.1616
   12MOL0     C 1487   3.665  11.027  10.594 -0.2069 -0.2233 -0.0395
   12MOL0     O 1488   3.613  11.119  10.674 -0.5513 -0.3239 -0.1660
   12MOL0     C 1489   3.512  11.085  10.752 -0.1571 -0.3481  0.1322
   12MOL0     C 1490   3.383  11.046  10.708 -0.1821  0.0770 -0.0299
   12MOL0     C 1491   3.293  10.995  10.796  0.6794  0.6332  0.1495
   12MOL0     C 1492   3.323  10.993  10.934  0.3014  0.0798 -0.0135
   12MOL0     O 1493   3.240  10.950  11.037 -0.0550 -0.2032  0.4884
   12MOL0     C 1494   3.100  10.945  11.019  0.2814 -0.5275 -0.5348
   12MOL0     C 1495   3.028  10.890  11.145 -0.3373  0.4976  0.5414
   12MOL0     C 1496   2.876  10.899  11.120  0.5198 -0.2039  0.0694
   12MOL0     C 1497   2.796  10.817  11.228 -0.5425  0.0242 -0.0369
   12MOL0     C 1498   2.643  10.821  11.198 -0.1349  0.2848  0.3687
   12MOL0     C 1499   2.573  10.740  11.315 -0.8057 -0.5326  0.5585
   12MOL0     C 1500   2.425  10.751  11.306  1.1168 -0.0772  0.2286
   12MOL0     C 1501   2.344  10.715  11.430 -0.8802 -0.1963 -0.3590
   12MOL0     N 1502   2.201  10.730  11.398 -0.3826 -0.5185 -0.4068
   12MOL0     C 1503   2.130  10.849  11.401  0.1104 -0.2011  0.1769
   12MOL0     C 1504   2.001  10.821  11.366  0.8944  0.6283 -0.0770
   12MOL0     C 1505   1.895  10.914  11.404 -0.1210  0.2098  0.5778
   12MOL0     C 1506   1.752  10.862  11.394  0.6410 -0.4382  0.3571
   12MOL0     C 1507   1.707  10.772  11.510 -0.4182 -0.6381  0.6480
   12MOL0     C 1508   1.578  10.698  11.478 -0.4328  0.0714  0.1465
   12MOL0     O 1509   1.480  10.791  11.426  0.8349 -0.3989 -0.0001
   12MOL0     C 1510   1.351  10.738  11.399  0.3848 -0.4720 -0.3239
   12MOL0     C 1511   1.279  10.796  11.295  0.7199 -0.2616  0.5556
   12MOL0     C 1512   1.144  10.763  11.266 -0.1114 -1.1177 -0.8774
   12MOL0     C 1513   1.072  10.843  11.163  0.2568 -0.0049 -0.3315
   12MOL0     C 1514   1.083  10.659  11.344 -0.5487  0.4168  0.4174
   12MOL0     C 1515   0.940  10.625  11.343 -0.1889 -0.4017  1.0427
   12MOL0     O 1516   0.909  10.493  11.326 -0.4392 -0.0192 -0.4035
   12MOL0     C 1517   0.776  10.458  11.338  0.1091  0.3762  0.4500
   12MOL0     C 1518   0.734  10.384  11.446 -0.3908  0.2636 -0.3595
   12MOL0     C 1519   0.596  10.339  11.453 -0.5042  0.2122 -0.6130
   12MOL0     C 1520   0.505  10.362  11.357 -0.4794  0.2141 -0.0011
   12MOL0     O 1521   0.384  10.301  11.341  0.2377 -0.5231 -0.5520
   12MOL0     C 1522   0.304  10.244  11.448 -0.0821  0.1144 -0.2254
   12MOL0     C 1523   0.225  10.349  11.520  0.1195 -0.2556 -0.4267
   12MOL0     C 1524   0.127  10.435  11.445  0.1474  0.3856 -0.1644
   12MOL0     C 1525   0.027  10.351  11.360 -0.1663  0.8524  0.2063
   12MOL0     C 1526  -0.100  10.445  11.362  0.0176 -0.2076  0.1579
   12MOL0     C 1527  -0.219  10.391  11.286 -0.1508 -1.1322 -0.1361
   12MOL0     C 1528  -0.183  10.355  11.141 -1.0571 -0.3657  0.0570
   12MOL0     C 1529  -0.305  10.360  11.046  0.5361 -0.0426 -0.3923
   12MOL0    Cl 1530  -0.451  10.271  11.083  0.2960  0.0576  0.0856
   12MOL0     C 1531   0.545  10.451  11.250 -0.2130  0.7737 -0.0370
   12MOL0     C 1532   0.681  10.505  11.243  0.0569 -0.1848  0.6887
   12MOL0     O 1533   0.861  10.715  11.371 -0.6280  0.2751  0.3499
   12MOL0     C 1534   1.167  10.585  11.435 -0.5412 -0.6271  0.4583
   12MOL0     C 1535   1.295  10.627  11.470 -0.4048 -0.2898  0.2909
   12MOL0     N 1536   1.999  10.683  11.355  1.1967 -0.1976 -0.1923
   12MOL0     N 1537   2.120  10.630  11.369  0.4612 -0.0953  0.7422
   12MOL0     C 1538   3.449  11.040  10.970  0.5342 -0.8490 -0.5498
   12MOL0     C 1539   3.544  11.089  10.888  0.1000  0.1700  0.7738
   12MOL0     C 1540   3.772  11.072  10.497  0.3829  0.7900 -0.7129
   12MOL0     C 1541   3.818  11.203  10.486  0.6896  0.2683  0.2417
   12MOL0     C 1542   3.907  11.234  10.383  1.0276  0.1967  1.0678
   12MOL0     C 1543   3.965  11.142  10.288  1.0455 -0.6693 -1.5315
   12MOL0     O 1544   4.062  11.169  10.200  0.7249 -0.4044  0.3309
   12MOL0     C 1545   4.057  11.289  10.125 -0.5609 -0.5829  0.0887
   12MOL0     C 1546   4.121  11.260   9.989 -0.1019 -0.4074 -0.6390
   12MOL0     C 1547   4.117  11.377   9.888 -0.2258  0.3168 -0.0129
   12MOL0     C 1548   4.203  11.331   9.761  0.9028 -0.1771 -0.5437
   12MOL0     C 1549   4.345  11.325   9.791  0.2761  0.6421  0.0197
   12MOL0     C 1550   4.469  11.334   9.799  0.5861  0.0334 -0.1611
   12MOL0     C 1551   3.919  11.010  10.311  0.4419  0.4070  0.5448
   12MOL0     C 1552   3.828  10.970  10.407 -0.4528 -0.2931  0.5085
   12MOL0     H 1553   3.363  11.044  10.601 -1.3590  1.8325  0.1127
   12MOL0     H 1554   3.194  10.971  10.757  2.1055 -1.0775 -2.7535
   12MOL0     H 1555   3.061  11.047  11.017  1.5553 -0.0187 -0.7290
   12MOL0     H 1556   3.083  10.884  10.931  3.0475 -0.4440 -1.2266
   12MOL0     H 1557   3.069  10.790  11.166 -0.5713  0.1634 -0.5142
   12MOL0     H 1558   3.047  10.966  11.221  0.8828 -2.1643  3.0712
   12MOL0     H 1559   2.842  11.003  11.118 -0.2471 -0.4291  0.6827
   12MOL0     H 1560   2.849  10.873  11.017  4.0724  1.6108 -1.4713
   12MOL0     H 1561   2.831  10.713  11.234  1.6941  0.6999 -0.4836
   12MOL0     H 1562   2.813  10.855  11.329  0.1255  1.2924 -0.6112
   12MOL0     H 1563   2.601  10.922  11.200  1.7538  1.1868 -1.7370
   12MOL0     H 1564   2.626  10.776  11.100 -0.4994 -0.4240  0.7470
   12MOL0     H 1565   2.599  10.635  11.299  0.0916  0.2361 -5.1781
   12MOL0     H 1566   2.604  10.781  11.411  0.0385 -0.9267  0.4606
   12MOL0     H 1567   2.413  10.859  11.292  2.3734  0.0311 -0.1456
   12MOL0     H 1568   2.389  10.690  11.223  1.8730  2.2912 -1.9502
   12MOL0     H 1569   2.373  10.787  11.507  1.9736 -1.0908 -0.4624
   12MOL0     H 1570   2.365  10.613  11.461  1.2888  0.2894 -0.0473
   12MOL0     H 1571   2.162  10.940  11.449  1.9269  0.4293 -2.0184
   12MOL0     H 1572   1.909  10.938  11.510 -0.7332  1.8354  0.3213
   12MOL0     H 1573   1.909  11.007  11.348 -0.0861 -0.1087  0.0558
   12MOL0     H 1574   1.736  10.800  11.305 -0.2364  0.9448 -0.4789
   12MOL0     H 1575   1.677  10.938  11.373  0.6100 -1.1541 -2.5130
   12MOL0     H 1576   1.683  10.839  11.593 -3.7660  0.3559 -0.9565
   12MOL0     H 1577   1.774  10.696  11.551 -0.7157 -2.5627 -2.1882
   12MOL0     H 1578   1.542  10.663  11.575 -1.2509  1.9802  0.5694
   12MOL0     H 1579   1.602  10.616  11.409 -0.0910 -0.7673  1.2209
   12MOL0     H 1580   1.333  10.876  11.245  1.9490 -1.0800  0.5372
   12MOL0     H 1581   1.003  10.911  11.214 -0.3993 -1.4091  0.7157
   12MOL0     H 1582   1.145  10.891  11.098  0.5178  0.8637  0.5763
   12MOL0     H 1583   1.010  10.776  11.103 -0.5187  2.0481 -1.9663
   12MOL0     H 1584   0.802  10.377  11.530  0.3461 -0.7682 -1.0154
   12MOL0     H 1585   0.564  10.269  11.530 -3.3725  1.5067 -0.5151
   12MOL0     H 1586   0.235  10.175  11.398 -0.2561 -1.4865  2.0508
   12MOL0     H 1587   0.359  10.184  11.521 -3.0199  0.0023  2.0588
   12MOL0     H 1588   0.172  10.296  11.600 -0.1266 -1.0765 -1.1264
   12MOL0     H 1589   0.298  10.414  11.569 -1.2326  0.4907  0.6858
   12MOL0     H 1590   0.181  10.503  11.379 -2.3628  1.8011 -0.8862
   12MOL0     H 1591   0.082  10.516  11.503 -0.6713 -0.5536  0.5442
   12MOL0     H 1592   0.068  10.329  11.261 -1.2561  2.0544 -0.5426
   12MOL0     H 1593   0.007  10.250  11.398 -0.6351  0.6572 -0.5417
   12MOL0     H 1594  -0.064  10.536  11.313  0.8747  0.0627  1.2500
   12MOL0     H 1595  -0.136  10.465  11.463  3.4639  2.8317  0.9902
   12MOL0     H 1596  -0.248  10.300  11.339 -2.1991 -0.6102 -0.3042
   12MOL0     H 1597  -0.304  10.458  11.296 -1.0954 -1.9274 -2.1646
   12MOL0     H 1598  -0.138  10.258  11.121 -0.1383  0.3751 -1.7033
   12MOL0     H 1599  -0.113  10.427  11.098 -3.6224  2.9762  1.0497
   12MOL0     H 1600  -0.276  10.335  10.943 -1.0990 -0.2362 -0.8359
   12MOL0     H 1601  -0.335  10.465  11.050  1.2211  0.1737 -0.7170
   12MOL0     H 1602   0.463  10.493  11.194 -1.6767 -1.7741  0.0464
   12MOL0     H 1603   0.703  10.584  11.171  2.5892  1.1386  2.7224
   12MOL0     H 1604   1.116  10.501  11.481  0.8207 -1.4919  0.4242
   12MOL0     H 1605   1.355  10.572  11.542  0.1682  0.7929  0.6656
   12MOL0     H 1606   3.464  11.054  11.077 -0.9281  1.9363 -0.6215
   12MOL0     H 1607   3.635  11.129  10.930 -1.4047 -0.0539  4.6530
   12MOL0     H 1608   3.780  11.278  10.555 -1.2779 -0.4447 -0.0055
   12MOL0     H 1609   3.937  11.337  10.398  0.2100  0.6323 -0.0741
   12MOL0     H 1610   3.959  11.338  10.117  0.2929  1.2330  0.1235
   12MOL0     H 1611   4.126  11.354  10.180 -1.4149 -1.2632  2.0440
   12MOL0     H 1612   4.065  11.171   9.962 -1.2578 -0.9258  2.9143
   12MOL0     H 1613   4.225  11.234  10.012 -0.5541  0.0343  2.3347
   12MOL0     H 1614   4.166  11.464   9.933  0.8008 -0.7098  0.9194
   12MOL0     H 1615   4.015  11.404   9.857 -0.0495 -0.3379 -1.1991
   12MOL0     H 1616   4.174  11.412   9.694 -0.8076  0.0707  0.4147
   12MOL0     H 1617   4.165  11.234   9.728  1.7356 -0.9300  0.6682
   12MOL0     H 1618   4.575  11.342   9.816  0.5917  0.7073 -0.4619
   12MOL0     H 1619   3.956  10.940  10.237 -1.1095 -0.0737  0.1838
   12MOL0     H 1620   3.804  10.864  10.409 -0.7229 -0.2456  3.2681
   13MOL0     O 1621   7.619   2.781   3.565 -0.0747 -0.4390  0.3041
   13MOL0     C 1622   7.575   2.755   3.452 -0.6647 -0.8254  0.6427
   13MOL0     O 1623   7.444   2.726   3.419  0.2608  0.2833 -0.5261
   13MOL0     C 1624   7.354   2.743   3.513 -0.2018  0.0942 -0.2682
   13MOL0     C 1625   7.294   2.871   3.537  1.2836 -1.3244  0.5225
   13MOL0     C 1626   7.201   2.891   3.642  0.3075  0.5137  0.6908
   13MOL0     C 1627   7.158   2.780   3.715 -0.3120  0.1662 -0.0279
   13MOL0     O 1628   7.079   2.790   3.825 -0.1505  0.0229 -0.3306
   13MOL0     C 1629   6.944   2.769   3.798  0.4048 -0.6632  0.6527
   13MOL0     C 1630   6.863   2.847   3.905 -0.0950  0.2835 -0.1146
   13MOL0     C 1631   6.717   2.835   3.892  0.0008 -0.4730 -0.3035
   13MOL0     C 1632   6.663   2.716   3.964 -1.0208 -0.2945 -0.6080
   13MOL0     C 1633   6.513   2.721   3.951 -0.0971  0.2021 -0.0662
   13MOL0     C 1634   6.443   2.584   4.003  0.1480 -0.6531  0.0554
   13MOL0     C 1635   6.289   2.592   3.991 -1.6562 -0.2867 -0.6550
   13MOL0     C 1636   6.225   2.463   4.026  1.0158 -0.2000  0.1231
   13MOL0     N 1637   6.089   2.490   4.056  0.3945 -0.5775  0.7278
   13MOL0     C 1638   5.992   2.527   3.962  0.0508  0.9065 -0.2272
   13MOL0     C 1639   5.886   2.565   4.035 -0.9958 -0.6476 -0.0783
   13MOL0     C 1640   5.745   2.598   3.992 -0.1796  1.0245 -0.2649
   13MOL0     C 1641   5.661   2.468   3.989  1.8308  0.0451 -0.4253
   13MOL0     C 1642   5.515   2.522   3.965  0.9867  0.3860 -0.0643
   13MOL0     C 1643   5.435   2.404   3.927 -0.1495  0.0733 -0.0760
   13MOL0     O 1644   5.296   2.450   3.930 -0.5873  0.0009  1.2006
   13MOL0     C 1645   5.220   2.381   3.837 -0.3804 -0.4430  0.8688
   13MOL0     C 1646   5.230   2.246   3.800 -1.0350 -0.0238 -0.1929
   13MOL0     C 1647   5.142   2.180   3.721 -0.3221  0.8115  0.3073
   13MOL0     C 1648   5.152   2.037   3.701 -0.5749  0.5586 -0.0823
   13MOL0     C 1649   5.040   2.252   3.652  0.8549 -0.5063  0.4366
   13MOL0     C 1650   4.944   2.186   3.553 -0.5534 -0.0417  0.4932
   13MOL0     O 1651   4.984   2.075   3.474 -0.4476  0.1852  0.3122
   13MOL0     C 1652   4.879   2.006   3.418 -1.0992  0.4771  0.6900
   13MOL0     C 1653   4.780   2.058   3.323  0.4902  0.2865 -0.6964
   13MOL0     C 1654   4.691   1.976   3.250  0.4830 -0.6844 -0.0595
   13MOL0     C 1655   4.685   1.839   3.286 -0.2786  0.3627  0.2289
   13MOL0     O 1656   4.592   1.752   3.243 -0.6956 -0.4190 -0.5634
   13MOL0     C 1657   4.463   1.798   3.228 -0.3942  0.8364  0.1754
   13MOL0     C 1658   4.368   1.682   3.241 -0.7690  0.2319 -0.4014
   13MOL0     C 1659   4.226   1.703   3.251 -0.0668 -0.3575 -0.0052
   13MOL0     C 1660   4.192   1.759   3.383  0.6425 -0.3210 -0.4927
   13MOL0     C 1661   4.037   1.772   3.412 -0.8801 -0.8101  1.3448
   13MOL0     C 1662   3.989   1.896   3.334  0.0947 -0.1327  0.1092
   13MOL0     C 1663   3.833   1.914   3.362 -0.6066  0.9612 -0.4188
   13MOL0     C 1664   3.742   1.795   3.308  0.1126  0.1333 -0.9287
   13MOL0    Cl 1665   3.773   1.788   3.131  0.1540  0.0736  0.0043
   13MOL0     C 1666   4.774   1.793   3.381 -0.3181  0.0888 -0.1837
   13MOL0     C 1667   4.873   1.870   3.446 -0.1506  0.2250  0.4386
   13MOL0     O 1668   4.837   2.239   3.536  0.4245  0.2218  0.2197
   13MOL0     C 1669   5.017   2.389   3.689 -0.1323  0.5196 -0.5705
   13MOL0     C 1670   5.107   2.446   3.780  0.3194  0.2511  0.8398
   13MOL0     N 1671   5.923   2.567   4.169 -0.8949  0.1380 -0.2079
   13MOL0     N 1672   6.036   2.515   4.178 -0.4074 -0.0535 -0.2263
   13MOL0     C 1673   7.217   2.659   3.695  0.7323 -0.1986 -0.0551
   13MOL0     C 1674   7.314   2.639   3.599  0.1435 -0.6301  0.0204
   13MOL0     C 1675   7.667   2.777   3.335  0.5288  0.2462 -0.4028
   13MOL0     C 1676   7.624   2.759   3.209 -0.3228  0.8709  1.4894
   13MOL0     C 1677   7.715   2.752   3.100  0.7844 -0.6357 -0.2821
   13MOL0     C 1678   7.845   2.786   3.119 -0.7834  0.2587 -0.2414
   13MOL0     O 1679   7.940   2.796   3.020  0.0632  0.6614  0.1629
   13MOL0     C 1680   7.900   2.758   2.885 -0.4377 -0.2666 -0.0137
   13MOL0     C 1681   8.035   2.761   2.803  0.0038 -0.1443 -0.4000
   13MOL0     C 1682   8.127   2.654   2.842 -0.0108 -0.5460 -0.9114
   13MOL0     C 1683   8.235   2.614   2.742 -0.8343  0.5940  1.5423
   13MOL0     C 1684   8.339   2.718   2.725  0.7022 -0.6823 -0.1841
   13MOL0     C 1685   8.428   2.797   2.710  0.8939  0.8292 -0.4205
   13MOL0     C 1686   7.891   2.803   3.249 -0.5618 -0.3430 -0.9631
   13MOL0     C 1687   7.802   2.798   3.361 -0.0159 -0.5624  0.0114
   13MOL0     H 1688   7.302   2.962   3.479 -3.2108 -0.6189  0.6171
   13MOL0     H 1689   7.154   2.988   3.654 -2.2629 -0.8340  3.0010
   13MOL0     H 1690   6.907   2.826   3.713 -2.3352  1.0423  2.7942
   13MOL0     H 1691   6.914   2.664   3.796 -2.1066  0.0074 -0.3730
   13MOL0     H 1692   6.890   2.812   4.005  0.3017  1.4200  0.1874
   13MOL0     H 1693   6.889   2.953   3.897  0.5794  0.1117 -0.2631
   13MOL0     H 1694   6.667   2.919   3.940  0.4322 -1.2324  1.5578
   13MOL0     H 1695   6.689   2.823   3.787 -0.1130 -0.4552 -0.2747
   13MOL0     H 1696   6.702   2.633   3.904  0.9530  0.0631  0.0953
   13MOL0     H 1697   6.696   2.705   4.068 -2.3471  0.2731 -0.1024
   13MOL0     H 1698   6.464   2.802   4.006  0.4272  1.1139 -0.9164
   13MOL0     H 1699   6.479   2.734   3.848  0.3424  2.0860 -0.0070
   13MOL0     H 1700   6.468   2.504   3.932 -2.3527 -0.9779 -0.5611
   13MOL0     H 1701   6.472   2.562   4.106  0.5046 -3.0369 -0.4903
   13MOL0     H 1702   6.252   2.673   4.054 -0.0375 -1.7690  2.4736
   13MOL0     H 1703   6.279   2.624   3.887  2.4009  1.7057 -0.6396
   13MOL0     H 1704   6.253   2.421   4.123  1.0088  1.8869  1.0953
   13MOL0     H 1705   6.223   2.389   3.946 -0.2372 -0.8375  0.7165
   13MOL0     H 1706   6.003   2.504   3.857 -1.1709  2.0675 -0.6304
   13MOL0     H 1707   5.711   2.666   4.070 -2.4908 -0.1486 -0.1525
   13MOL0     H 1708   5.727   2.634   3.890 -0.1718 -0.0011 -0.6436
   13MOL0     H 1709   5.671   2.410   4.081  0.8525  2.0522  1.0165
   13MOL0     H 1710   5.681   2.403   3.903 -2.0409 -0.5589 -1.0820
   13MOL0     H 1711   5.516   2.582   3.874  1.6025 -0.1152 -0.3940
   13MOL0     H 1712   5.481   2.588   4.046  0.1745  1.8112 -1.5253
   13MOL0     H 1713   5.432   2.316   3.992 -1.3108 -0.8114 -1.2706
   13MOL0     H 1714   5.470   2.361   3.833 -0.8604  0.3750 -0.4829
   13MOL0     H 1715   5.304   2.184   3.850  1.0637  2.3048 -0.1899
   13MOL0     H 1716   5.203   1.996   3.788  3.4536  0.2220 -2.3622
   13MOL0     H 1717   5.052   1.992   3.695  1.5723 -4.8755 -0.4680
   13MOL0     H 1718   5.206   2.009   3.610 -1.9492 -2.6729 -0.0348
   13MOL0     H 1719   4.805   2.160   3.296  0.2742 -0.0622 -2.3413
   13MOL0     H 1720   4.615   2.018   3.185  1.4321  0.8243 -0.2233
   13MOL0     H 1721   4.435   1.869   3.307 -0.5966  1.1629 -0.1839
   13MOL0     H 1722   4.443   1.839   3.128  0.3996  0.6914 -0.0499
   13MOL0     H 1723   4.381   1.620   3.152 -0.6113 -2.3479  1.3006
   13MOL0     H 1724   4.409   1.614   3.317  1.7893  0.0951 -1.7957
   13MOL0     H 1725   4.174   1.609   3.231  0.4819 -0.9131  1.0600
   13MOL0     H 1726   4.198   1.768   3.167  0.8661 -2.5991 -2.1598
   13MOL0     H 1727   4.240   1.695   3.458  2.2008  1.8389  0.4637
   13MOL0     H 1728   4.234   1.860   3.388 -2.0309  0.8502 -0.2880
   13MOL0     H 1729   4.022   1.782   3.520 -0.3048 -1.0668  1.4515
   13MOL0     H 1730   3.984   1.679   3.387  1.1045 -1.6594  0.0586
   13MOL0     H 1731   4.034   1.990   3.366 -0.7119  0.9169 -1.6484
   13MOL0     H 1732   4.013   1.900   3.227 -1.0431 -0.9070 -0.1929
   13MOL0     H 1733   3.795   2.005   3.314 -1.2581  0.9819  0.1297
   13MOL0     H 1734   3.815   1.917   3.470  0.0918  1.6559 -0.3081
   13MOL0     H 1735   3.634   1.806   3.325  0.0728 -2.6097  1.2748
   13MOL0     H 1736   3.767   1.706   3.365 -0.2585  0.4542 -0.2481
   13MOL0     H 1737   4.783   1.692   3.419  0.1766 -0.6065 -2.0492
   13MOL0     H 1738   4.951   1.830   3.509 -0.2580  0.4877  0.7430
   13MOL0     H 1739   4.937   2.450   3.649  0.6422  2.1827  0.3120
   13MOL0     H 1740   5.086   2.548   3.810  2.9499  0.5485  1.8915
   13MOL0     H 1741   7.197   2.583   3.770  1.2861 -1.4985 -1.1789
   13MOL0     H 1742   7.361   2.542   3.584  0.6336 -0.2128 -1.3110
   13MOL0     H 1743   7.521   2.739   3.182  0.1549 -0.1421  0.3570
   13MOL0     H 1744   7.671   2.725   3.005  1.3365 -1.7532 -0.2391
   13MOL0     H 1745   7.866   2.657   2.862 -0.1962  0.1988 -2.8509
   13MOL0     H 1746   7.829   2.831   2.843  1.2594  1.4850  0.0081
   13MOL0     H 1747   8.087   2.857   2.806  2.5747 -1.4588  2.4436
   13MOL0     H 1748   8.009   2.741   2.699 -0.7259 -2.7087  0.2042
   13MOL0     H 1749   8.064   2.565   2.856  0.8096 -0.7867  1.6987
   13MOL0     H 1750   8.176   2.676   2.937 -1.6327  2.4758 -0.6618
   13MOL0     H 1751   8.188   2.595   2.645  0.6386 -5.6003  1.6153
   13MOL0     H 1752   8.281   2.516   2.761 -1.1086 -0.2596 -1.6457
   13MOL0     H 1753   8.519   2.852   2.695  2.4227 -1.6534 -0.7556
   13MOL0     H 1754   7.996   2.812   3.272 -0.7135  3.0893 -1.1392
   13MOL0     H 1755   7.840   2.788   3.462  1.6372  2.5395 -0.1843
   14MOL0     O 1756   9.060   6.486   5.862 -0.2394 -0.5615 -0.6441
   14MOL0     C 1757   9.087   6.406   5.949 -0.9348  0.5725  0.0758
   14MOL0     O 1758   8.996   6.331   6.013  0.4962 -0.2293  0.8608
   14MOL0     C 1759   8.868   6.331   5.952  0.1847  0.0461  0.5138
   14MOL0     C 1760   8.752   6.360   6.030 -0.6330  0.3639  0.1861
   14MOL0     C 1761   8.619   6.338   5.976 -0.1815 -0.0845 -0.1596
   14MOL0     C 1762   8.604   6.294   5.845  0.4095 -0.0718 -0.3258
   14MOL0     O 1763   8.481   6.285   5.799  0.1974 -0.0646  0.4462
   14MOL0     C 1764   8.451   6.216   5.674 -0.7926  0.2484 -0.3965
   14MOL0     C 1765   8.448   6.066   5.689 -0.5072 -1.0386  0.5584
   14MOL0     C 1766   8.352   6.026   5.795 -0.3138 -2.0311 -0.1668
   14MOL0     C 1767   8.204   6.066   5.771 -0.8659 -0.6021 -0.3580
   14MOL0     C 1768   8.110   5.980   5.862 -0.0294  0.3359  0.3041
   14MOL0     C 1769   8.114   6.027   6.011  0.2942  0.7978  0.2932
   14MOL0     C 1770   8.014   5.944   6.098 -0.0437 -0.6235 -0.5659
   14MOL0     C 1771   7.967   6.030   6.216  0.2046 -0.3554 -0.8857
   14MOL0     N 1772   7.843   6.101   6.178  0.3894  0.0807  0.5366
   14MOL0     C 1773   7.825   6.211   6.098 -0.1611 -0.2731 -0.0887
   14MOL0     C 1774   7.699   6.253   6.112 -0.1830  0.6760  0.7001
   14MOL0     C 1775   7.652   6.383   6.049  0.2949 -0.0566  0.7249
   14MOL0     C 1776   7.504   6.376   6.016 -0.1273  0.4536  0.0263
   14MOL0     C 1777   7.448   6.519   5.988 -0.6076  0.5517  0.6407
   14MOL0     C 1778   7.302   6.520   6.019  0.8939  1.0189  0.7160
   14MOL0     O 1779   7.233   6.402   5.973 -0.5191 -0.2397  0.1163
   14MOL0     C 1780   7.103   6.398   6.003 -0.1049  0.4120  0.3676
   14MOL0     C 1781   7.037   6.287   5.951  0.0948 -0.4556  0.2680
   14MOL0     C 1782   6.901   6.269   5.950  0.1835  0.3276 -0.4483
   14MOL0     C 1783   6.853   6.139   5.883 -0.0143  0.3441  0.5369
   14MOL0     C 1784   6.819   6.367   6.010 -0.1652  0.2826 -0.7127
   14MOL0     C 1785   6.669   6.344   6.032 -0.5937  0.0145 -0.1218
   14MOL0     O 1786   6.615   6.234   5.995  0.1964 -0.4911  0.3452
   14MOL0     C 1787   6.481   6.221   5.988  0.1552  0.3083 -0.1303
   14MOL0     C 1788   6.410   6.266   5.875  0.6269  0.0089 -0.4249
   14MOL0     C 1789   6.275   6.238   5.857  0.2671 -0.0953  0.5309
   14MOL0     C 1790   6.208   6.168   5.957 -0.1964 -0.2480 -0.9772
   14MOL0     O 1791   6.070   6.131   5.947 -0.2932  0.4368  0.2368
   14MOL0     C 1792   6.008   6.165   5.821 -0.2847  0.4860  0.8003
   14MOL0     C 1793   5.857   6.110   5.807 -0.2234 -0.4492  0.6971
   14MOL0     C 1794   5.810   6.136   5.663  0.2730  0.3086 -0.2623
   14MOL0     C 1795   5.661   6.092   5.652  0.7900  0.3326 -0.1850
   14MOL0     C 1796   5.623   6.126   5.509 -1.2402  0.3857 -0.0054
   14MOL0     C 1797   5.480   6.103   5.469  0.3700 -0.4756  0.2880
   14MOL0     C 1798   5.442   5.957   5.458 -0.3241 -0.4276 -0.2955
   14MOL0     C 1799   5.295   5.934   5.450 -0.7505  0.3794 -0.1507
   14MOL0    Cl 1800   5.257   5.780   5.495  0.3849 -0.3038 -0.0529
   14MOL0     C 1801   6.275   6.133   6.079  0.0328  0.0411 -0.2992
   14MOL0     C 1802   6.414   6.163   6.096  0.0364 -0.1036  0.5659
   14MOL0     O 1803   6.613   6.432   6.095  0.3643  0.0254  0.1696
   14MOL0     C 1804   6.881   6.476   6.069 -0.0706 -0.1129 -0.1509
   14MOL0     C 1805   7.024   6.489   6.069  0.4857  0.1469 -0.5430
   14MOL0     N 1806   7.635   6.166   6.194  0.3469  0.3241 -0.1058
   14MOL0     N 1807   7.722   6.083   6.238  0.1670 -0.0597 -0.1389
   14MOL0     C 1808   8.724   6.261   5.767 -0.2782 -0.5209  0.0213
   14MOL0     C 1809   8.849   6.281   5.819  0.2506 -0.8659  0.6285
   14MOL0     C 1810   9.217   6.415   6.019  0.4774  0.1472  0.6095
   14MOL0     C 1811   9.317   6.494   5.970 -0.7814 -0.9994  0.3042
   14MOL0     C 1812   9.435   6.506   6.040  0.8899 -0.4595 -0.3584
   14MOL0     C 1813   9.456   6.453   6.165  0.1167 -0.4322  0.4258
   14MOL0     O 1814   9.583   6.467   6.218 -0.0802  0.0403 -0.0526
   14MOL0     C 1815   9.576   6.504   6.370  0.5913  0.2813  0.6304
   14MOL0     C 1816   9.719   6.508   6.419 -0.3616  0.1051  0.2767
   14MOL0     C 1817   9.717   6.518   6.570  0.3030  0.2307  0.1053
   14MOL0     C 1818   9.843   6.546   6.639 -0.4791 -0.0777  0.0709
   14MOL0     C 1819   9.925   6.431   6.629  0.0946  0.5425 -0.1076
   14MOL0     C 1820  10.016   6.344   6.618  0.5178  0.2838 -0.0285
   14MOL0     C 1821   9.351   6.379   6.223  0.3951 -0.0826 -0.2464
   14MOL0     C 1822   9.235   6.362   6.148 -0.4751  0.6194  0.4978
   14MOL0     H 1823   8.764   6.408   6.126 -1.7907  5.4552 -1.8924
   14MOL0     H 1824   8.547   6.353   6.055 -0.0042  0.8130 -0.1547
   14MOL0     H 1825   8.349   6.243   5.648 -0.6525  1.0828 -0.1373
   14MOL0     H 1826   8.519   6.259   5.600 -2.1577  0.8995 -1.2954
   14MOL0     H 1827   8.415   6.025   5.593  3.6154 -0.9991 -1.0475
   14MOL0     H 1828   8.548   6.026   5.705  0.8730  1.0109 -2.0928
   14MOL0     H 1829   8.353   5.918   5.809  0.6534 -2.0458 -0.3297
   14MOL0     H 1830   8.382   6.073   5.889  0.9963 -0.2429 -1.4115
   14MOL0     H 1831   8.184   6.172   5.789  2.2407  0.0248 -0.0994
   14MOL0     H 1832   8.191   6.040   5.665  1.2051 -0.2809 -0.7278
   14MOL0     H 1833   8.009   5.985   5.822  0.3308 -1.6431 -1.0273
   14MOL0     H 1834   8.144   5.876   5.854 -0.0701  0.3551 -0.1369
   14MOL0     H 1835   8.213   5.997   6.047 -0.2374 -0.7201  0.5546
   14MOL0     H 1836   8.090   6.133   6.026 -2.0998  0.3825 -0.2352
   14MOL0     H 1837   7.925   5.921   6.039 -0.4185 -0.3174 -0.1267
   14MOL0     H 1838   8.070   5.859   6.136 -0.0472 -0.5512 -0.4013
   14MOL0     H 1839   8.050   6.098   6.238 -0.2653 -0.6167  2.1569
   14MOL0     H 1840   7.957   5.971   6.308  2.6259  0.4627 -0.0050
   14MOL0     H 1841   7.900   6.267   6.045  0.2023  1.8781  2.4904
   14MOL0     H 1842   7.671   6.468   6.115 -2.5814  0.2905  1.2363
   14MOL0     H 1843   7.700   6.407   5.953  1.4050 -3.8610  0.1470
   14MOL0     H 1844   7.455   6.347   6.109  0.1745  1.5423  0.5477
   14MOL0     H 1845   7.482   6.311   5.931  2.0797 -2.4512  1.5025
   14MOL0     H 1846   7.463   6.550   5.884  2.4344 -3.1087 -0.2427
   14MOL0     H 1847   7.497   6.593   6.052 -0.0390  2.0914 -1.4844
   14MOL0     H 1848   7.248   6.603   5.972 -3.1517 -1.3273  0.7488
   14MOL0     H 1849   7.288   6.538   6.126 -0.3947  0.3003  0.6939
   14MOL0     H 1850   7.107   6.215   5.910  1.4577  0.7479  0.3922
   14MOL0     H 1851   6.819   6.062   5.953 -2.1531  0.1147 -0.6781
   14MOL0     H 1852   6.773   6.158   5.811 -0.3592 -0.7228  0.6316
   14MOL0     H 1853   6.928   6.087   5.823 -0.9903 -0.4581 -0.0127
   14MOL0     H 1854   6.468   6.330   5.809  0.9909 -0.0735 -0.1879
   14MOL0     H 1855   6.227   6.283   5.770 -0.7588 -1.3096  0.4376
   14MOL0     H 1856   6.012   6.273   5.808  0.5086  0.2115 -1.6010
   14MOL0     H 1857   6.063   6.117   5.740 -2.6605  1.3452 -1.4373
   14MOL0     H 1858   5.848   6.006   5.838  2.9841 -0.8769  0.6195
   14MOL0     H 1859   5.788   6.164   5.872  1.2192  0.9891  1.1182
   14MOL0     H 1860   5.876   6.086   5.591 -0.7037  1.3943 -1.9790
   14MOL0     H 1861   5.808   6.245   5.651 -0.9888  0.3313 -0.0230
   14MOL0     H 1862   5.642   5.985   5.669  0.4482  0.2467 -1.0633
   14MOL0     H 1863   5.594   6.145   5.719 -1.6095 -2.2201 -0.3791
   14MOL0     H 1864   5.682   6.082   5.428 -2.7931  0.3307 -1.1700
   14MOL0     H 1865   5.631   6.234   5.496 -4.1691  1.0291  2.2823
   14MOL0     H 1866   5.414   6.147   5.544 -0.9682 -0.7021 -0.7177
   14MOL0     H 1867   5.461   6.151   5.373  0.0249  0.8578  0.9991
   14MOL0     H 1868   5.488   5.908   5.545 -0.4403  0.8912  0.5339
   14MOL0     H 1869   5.485   5.912   5.368 -0.6943 -0.1638 -0.6041
   14MOL0     H 1870   5.264   5.957   5.348  1.5530  0.0450 -0.9785
   14MOL0     H 1871   5.238   6.003   5.514  1.4982  1.1204  1.1733
   14MOL0     H 1872   6.215   6.097   6.162 -2.6142  1.2070 -1.5635
   14MOL0     H 1873   6.476   6.145   6.183 -1.2305 -4.4375  0.8433
   14MOL0     H 1874   6.824   6.557   6.114  1.7391  0.7629  0.6799
   14MOL0     H 1875   7.072   6.576   6.114 -1.5383  0.7140  0.6040
   14MOL0     H 1876   8.705   6.232   5.664 -0.0906  1.1520 -0.5276
   14MOL0     H 1877   8.932   6.257   5.753 -1.8274 -2.3430 -1.6245
   14MOL0     H 1878   9.335   6.551   5.879  0.3119 -1.1903  0.3867
   14MOL0     H 1879   9.521   6.558   5.998 -0.9562  1.6329 -1.7430
   14MOL0     H 1880   9.513   6.594   6.376  0.1323  0.0651 -0.5586
   14MOL0     H 1881   9.541   6.422   6.432  1.4652  0.9017  1.9965
   14MOL0     H 1882   9.772   6.591   6.372  0.1268 -0.9443 -1.0755
   14MOL0     H 1883   9.771   6.413   6.404  2.3718  1.1606  2.3592
   14MOL0     H 1884   9.673   6.425   6.607  1.0423 -1.1992 -2.3688
   14MOL0     H 1885   9.645   6.595   6.601  1.2380  0.0870  2.9171
   14MOL0     H 1886   9.832   6.568   6.746  2.1751 -3.1472  1.1289
   14MOL0     H 1887   9.893   6.632   6.595 -2.1757  1.4415  0.9750
   14MOL0     H 1888  10.087   6.264   6.614 -1.5740 -1.6784 -0.2345
   14MOL0     H 1889   9.350   6.326   6.317 -0.4337 -1.6123 -1.0778
   14MOL0     H 1890   9.161   6.292   6.186  0.9180 -2.2054 -1.5565
   15MOL0     O 1891   6.365   3.753   1.047 -0.4762  0.5162 -0.1499
   15MOL0     C 1892   6.404   3.720   1.161 -0.8311 -0.4160 -0.8380
   15MOL0     O 1893   6.321   3.659   1.259 -0.2310  0.2827  0.6048
   15MOL0     C 1894   6.188   3.656   1.222  0.9302 -0.0651  0.0710
   15MOL0     C 1895   6.127   3.527   1.190  0.3904 -0.6355 -0.7181
   15MOL0     C 1896   5.989   3.526   1.156  0.0640 -0.3120  0.2655
   15MOL0     C 1897   5.920   3.651   1.154  0.0878  0.3377  0.0204
   15MOL0     O 1898   5.786   3.643   1.124  0.0180 -0.3375 -0.4677
   15MOL0     C 1899   5.702   3.691   1.229  0.7666 -0.5232 -0.8324
   15MOL0     C 1900   5.543   3.679   1.195 -0.5330  0.1545  0.3761
   15MOL0     C 1901   5.449   3.710   1.318 -0.8815  0.3083 -0.1806
   15MOL0     C 1902   5.296   3.684   1.295  0.1930  0.3603  0.4233
   15MOL0     C 1903   5.215   3.626   1.411  0.0503  0.0258  0.7415
   15MOL0     C 1904   5.161   3.727   1.511  1.1759  0.2736 -0.1022
   15MOL0     C 1905   5.270   3.807   1.586  0.2199  1.1359 -0.1731
   15MOL0     C 1906   5.206   3.889   1.705 -1.0732  0.2449  0.1881
   15MOL0     N 1907   5.298   3.954   1.796 -0.8107  0.3718 -0.2416
   15MOL0     C 1908   5.335   3.920   1.925  0.2876  0.0021  0.4952
   15MOL0     C 1909   5.401   4.029   1.983 -0.6028 -0.4590  0.2791
   15MOL0     C 1910   5.442   4.042   2.130 -0.4950 -0.2272  0.0021
   15MOL0     C 1911   5.328   4.003   2.227  0.4292  0.1728  0.7129
   15MOL0     C 1912   5.249   4.122   2.271 -0.0113 -0.2708  1.0919
   15MOL0     C 1913   5.136   4.064   2.350 -0.6595  0.0140 -0.1621
   15MOL0     O 1914   5.064   4.167   2.416  0.2920 -0.1070  0.5629
   15MOL0     C 1915   4.970   4.133   2.507 -1.0096 -0.9051 -0.5366
   15MOL0     C 1916   4.936   4.226   2.614 -0.2512 -0.3392  0.0750
   15MOL0     C 1917   4.829   4.204   2.703  0.1201  0.9398 -0.0801
   15MOL0     C 1918   4.809   4.308   2.806  0.1131  0.6037 -0.4673
   15MOL0     C 1919   4.755   4.079   2.690 -0.4819 -0.7555 -1.0329
   15MOL0     C 1920   4.635   4.044   2.780  0.0845  0.4746 -0.1674
   15MOL0     O 1921   4.566   3.933   2.753 -0.2494 -0.1151 -0.5566
   15MOL0     C 1922   4.466   3.909   2.844  0.1808 -0.0157  0.0976
   15MOL0     C 1923   4.332   3.900   2.799 -0.6129 -0.1558  0.6569
   15MOL0     C 1924   4.225   3.841   2.874 -0.0126 -0.0706  0.3126
   15MOL0     C 1925   4.250   3.799   3.003 -1.4114 -0.5145 -0.6674
   15MOL0     O 1926   4.139   3.768   3.082  0.2591  0.0566 -0.1825
   15MOL0     C 1927   4.157   3.770   3.219 -0.7134 -0.0091 -0.2210
   15MOL0     C 1928   4.034   3.740   3.299  0.7222  0.1269 -0.6950
   15MOL0     C 1929   4.016   3.585   3.307  0.2965  0.1454  1.1986
   15MOL0     C 1930   3.878   3.540   3.366  0.1136  0.9659  0.7327
   15MOL0     C 1931   3.885   3.389   3.390 -0.4672  0.1434  0.3733
   15MOL0     C 1932   3.760   3.332   3.467  0.3367  0.2886 -0.6001
   15MOL0     C 1933   3.749   3.359   3.619  0.1808 -0.0490  0.1292
   15MOL0     C 1934   3.640   3.280   3.689  0.1154 -0.1203 -0.1427
   15MOL0    Cl 1935   3.486   3.329   3.623 -0.1259  0.3592 -0.4919
   15MOL0     C 1936   4.381   3.818   3.049  0.3413 -0.4930 -0.7607
   15MOL0     C 1937   4.480   3.858   2.971 -1.2836  0.6792  0.0447
   15MOL0     O 1938   4.603   4.128   2.866  0.0878 -0.0302 -0.0758
   15MOL0     C 1939   4.787   3.992   2.591 -0.2356 -0.7957 -0.1083
   15MOL0     C 1940   4.898   4.012   2.502 -0.0306  0.1097 -0.2191
   15MOL0     N 1941   5.416   4.124   1.887 -0.5097 -0.4919 -0.8537
   15MOL0     N 1942   5.362   4.076   1.776 -0.4575  0.2263 -0.1451
   15MOL0     C 1943   5.988   3.769   1.178  0.1745  0.5819 -1.4334
   15MOL0     C 1944   6.119   3.775   1.203  0.6799 -0.6927  0.2111
   15MOL0     C 1945   6.548   3.738   1.196  0.8898  1.4412  0.5780
   15MOL0     C 1946   6.640   3.785   1.103  0.3332 -1.6600  0.3945
   15MOL0     C 1947   6.776   3.782   1.126 -0.4922  0.3158 -0.6775
   15MOL0     C 1948   6.822   3.747   1.256  0.4219  0.2098  0.9852
   15MOL0     O 1949   6.949   3.753   1.300  0.8018 -0.6163  0.1617
   15MOL0     C 1950   7.049   3.769   1.203 -0.7960  0.1349  0.2921
   15MOL0     C 1951   7.182   3.698   1.230 -0.9497 -0.0600 -0.3846
   15MOL0     C 1952   7.234   3.753   1.364  0.1895  0.1052 -0.4394
   15MOL0     C 1953   7.385   3.730   1.372 -0.1457 -0.5008 -0.1740
   15MOL0     C 1954   7.449   3.745   1.503 -0.8756 -0.2606 -0.6857
   15MOL0     C 1955   7.497   3.754   1.618 -0.1798  0.2872  0.8964
   15MOL0     C 1956   6.730   3.701   1.353 -0.6841  0.0410 -0.1738
   15MOL0     C 1957   6.594   3.698   1.321 -0.0385 -0.5981 -0.6137
   15MOL0     H 1958   6.184   3.437   1.212  2.5384  0.5624 -1.0344
   15MOL0     H 1959   5.942   3.429   1.155 -0.2194 -0.1857  0.7934
   15MOL0     H 1960   5.719   3.651   1.329 -3.3367  1.4634  0.8896
   15MOL0     H 1961   5.731   3.796   1.237  2.0425 -0.9312  0.4055
   15MOL0     H 1962   5.520   3.748   1.113 -0.8916  0.9543  1.1363
   15MOL0     H 1963   5.514   3.580   1.157 -1.0499  0.5863 -0.3862
   15MOL0     H 1964   5.482   3.643   1.398 -0.7119 -0.0198 -0.5245
   15MOL0     H 1965   5.471   3.810   1.356 -0.1551 -0.6967  2.2974
   15MOL0     H 1966   5.257   3.778   1.255  0.5939 -0.3074 -1.7051
   15MOL0     H 1967   5.279   3.617   1.209 -1.2528  1.6117 -0.3070
   15MOL0     H 1968   5.125   3.578   1.372  0.6938 -0.7650  0.1896
   15MOL0     H 1969   5.260   3.542   1.465  2.7518  1.3349  0.6959
   15MOL0     H 1970   5.093   3.795   1.458  0.8650 -1.3161 -1.8240
   15MOL0     H 1971   5.105   3.663   1.580  0.1607 -0.2942 -1.4096
   15MOL0     H 1972   5.344   3.736   1.624 -0.4639 -0.3510 -1.4893
   15MOL0     H 1973   5.309   3.870   1.506  0.7983 -0.8630 -1.5536
   15MOL0     H 1974   5.143   3.812   1.752  2.3565 -1.6687  2.0677
   15MOL0     H 1975   5.137   3.967   1.669 -0.4939  1.5669  1.7948
   15MOL0     H 1976   5.300   3.834   1.981 -1.3279  1.6407  2.1184
   15MOL0     H 1977   5.533   3.985   2.149  0.9974  1.5509 -1.3765
   15MOL0     H 1978   5.484   4.141   2.151  0.0687 -0.4138 -0.2261
   15MOL0     H 1979   5.383   3.964   2.313  1.8672  1.5975  0.5027
   15MOL0     H 1980   5.260   3.926   2.190 -3.2479  3.2189  0.5371
   15MOL0     H 1981   5.213   4.188   2.191  1.9660 -0.2660  0.1448
   15MOL0     H 1982   5.317   4.185   2.328  0.5781  2.9868 -2.7455
   15MOL0     H 1983   5.178   4.001   2.429  0.8532  0.9616 -0.1542
   15MOL0     H 1984   5.085   3.999   2.279  2.3929 -1.2287 -1.4078
   15MOL0     H 1985   4.997   4.314   2.629 -0.4565 -0.5875  2.8119
   15MOL0     H 1986   4.904   4.361   2.813  0.5746  0.0964 -2.1639
   15MOL0     H 1987   4.721   4.374   2.804  1.9654  3.1998 -1.1084
   15MOL0     H 1988   4.811   4.254   2.901 -1.9008 -0.1968 -0.8209
   15MOL0     H 1989   4.313   3.940   2.699 -2.6894  0.0799  1.1016
   15MOL0     H 1990   4.121   3.846   2.844 -0.7226 -0.8323  2.4392
   15MOL0     H 1991   4.242   3.707   3.248 -1.7880 -0.4542  2.2443
   15MOL0     H 1992   4.194   3.868   3.250 -0.0247  0.4087 -2.2475
   15MOL0     H 1993   4.048   3.775   3.402  0.5186  1.2921 -1.0477
   15MOL0     H 1994   3.940   3.778   3.259 -0.5093 -3.3061 -1.4309
   15MOL0     H 1995   4.096   3.554   3.376  4.0342 -2.7172 -3.7302
   15MOL0     H 1996   4.044   3.540   3.211  0.9573 -1.9364  2.3180
   15MOL0     H 1997   3.858   3.593   3.460 -2.8793 -0.3159  0.9496
   15MOL0     H 1998   3.790   3.567   3.307 -0.7655  0.2876  1.6939
   15MOL0     H 1999   3.980   3.367   3.441 -0.8022 -0.6706  0.6690
   15MOL0     H 2000   3.906   3.343   3.293  0.2598 -0.3172  0.7341
   15MOL0     H 2001   3.675   3.361   3.405  0.8285 -3.0561 -3.1579
   15MOL0     H 2002   3.785   3.226   3.460  0.2363  0.2858 -0.9110
   15MOL0     H 2003   3.726   3.465   3.637  5.0091  1.4958 -1.2933
   15MOL0     H 2004   3.842   3.328   3.667 -1.9755 -2.5770  3.1174
   15MOL0     H 2005   3.639   3.300   3.797  1.5320  0.5257 -0.2213
   15MOL0     H 2006   3.650   3.173   3.667 -0.9955 -0.1934 -0.3452
   15MOL0     H 2007   4.404   3.794   3.153 -0.9027 -0.1800 -0.3972
   15MOL0     H 2008   4.580   3.866   3.014 -1.5457 -1.1521  1.0943
   15MOL0     H 2009   4.721   3.906   2.583 -1.9385  0.1159  2.7561
   15MOL0     H 2010   4.926   3.930   2.437  0.4819 -0.3934  0.6200
   15MOL0     H 2011   5.931   3.861   1.177  0.9982  1.1856  0.7507
   15MOL0     H 2012   6.165   3.873   1.209  1.7381 -1.0527 -1.4312
   15MOL0     H 2013   6.600   3.823   1.010 -1.4263 -1.2203  1.2885
   15MOL0     H 2014   6.845   3.827   1.056  0.1739  0.6547  0.1828
   15MOL0     H 2015   7.034   3.713   1.111 -0.7119 -4.7278  2.9209
   15MOL0     H 2016   7.058   3.874   1.173  2.0143  0.0608  0.5911
   15MOL0     H 2017   7.259   3.716   1.155 -0.7069  0.7083  0.0401
   15MOL0     H 2018   7.179   3.589   1.241  2.0655 -0.1472  0.5149
   15MOL0     H 2019   7.185   3.704   1.449 -0.6312  0.5004 -0.6740
   15MOL0     H 2020   7.206   3.858   1.371  0.8658  0.3092 -0.7045
   15MOL0     H 2021   7.416   3.809   1.303  1.3146 -2.8524 -2.4132
   15MOL0     H 2022   7.406   3.629   1.335  0.9565  0.4689 -2.4032
   15MOL0     H 2023   7.548   3.755   1.712  1.1783  0.1600  0.1757
   15MOL0     H 2024   6.748   3.678   1.458  0.4628  2.1591  0.1560
   15MOL0     H 2025   6.515   3.663   1.387 -1.4340 -1.4167 -2.6169
   16MOL0     O 2026   8.008   2.374   2.344 -0.4040  0.1382 -0.3372
   16MOL0     C 2027   8.016   2.261   2.293  0.0283 -0.2701  0.2753
   16MOL0     O 2028   7.919   2.166   2.293 -0.2873 -0.3284 -0.1845
   16MOL0     C 2029   7.791   2.192   2.338 -0.2614  0.0374 -0.9153
   16MOL0     C 2030   7.739   2.101   2.424 -0.7262  0.0267  0.2737
   16MOL0     C 2031   7.611   2.112   2.485  1.4338 -0.6835  0.2913
   16MOL0     C 2032   7.540   2.231   2.464 -1.1699 -0.2320  0.2033
   16MOL0     O 2033   7.410   2.249   2.510 -0.0056 -0.3465  0.2838
   16MOL0     C 2034   7.365   2.181   2.624  0.3337 -0.1935 -0.4411
   16MOL0     C 2035   7.256   2.264   2.681 -1.0734 -0.3021 -0.5147
   16MOL0     C 2036   7.180   2.195   2.802 -0.1896 -0.0997  0.1695
   16MOL0     C 2037   7.043   2.269   2.824 -0.4162  0.5048  0.1997
   16MOL0     C 2038   6.983   2.209   2.950  0.3867 -0.3279  0.3055
   16MOL0     C 2039   6.860   2.285   2.989  0.1553 -0.2299 -0.2300
   16MOL0     C 2040   6.767   2.225   3.094 -0.3288  0.3563 -0.7690
   16MOL0     C 2041   6.687   2.106   3.039  0.2209  0.2404  0.2552
   16MOL0     N 2042   6.563   2.156   2.982 -0.2906  0.2688 -1.0815
   16MOL0     C 2043   6.438   2.145   3.040 -0.7878 -0.6345 -0.9673
   16MOL0     C 2044   6.361   2.238   2.964 -0.5919  1.2539  0.1381
   16MOL0     C 2045   6.237   2.300   3.020 -0.6601 -0.3279 -0.5937
   16MOL0     C 2046   6.101   2.233   2.992 -0.7613  0.9700 -0.0389
   16MOL0     C 2047   6.048   2.264   2.853 -0.3409  0.7477 -0.3799
   16MOL0     C 2048   5.910   2.228   2.821  0.0156 -0.0659  0.2370
   16MOL0     O 2049   5.816   2.282   2.916 -0.9627 -0.1408 -0.1803
   16MOL0     C 2050   5.702   2.213   2.912  1.0813  0.4011 -0.0750
   16MOL0     C 2051   5.593   2.266   2.841 -0.5034  0.1400 -0.4520
   16MOL0     C 2052   5.461   2.212   2.849  0.2788  0.4918  0.1653
   16MOL0     C 2053   5.347   2.286   2.771  0.5464 -0.1451 -0.6793
   16MOL0     C 2054   5.437   2.091   2.918 -0.0989 -0.3685  0.1463
   16MOL0     C 2055   5.314   2.005   2.913 -0.4934 -0.3768 -1.1847
   16MOL0     O 2056   5.340   1.888   2.983 -0.0236  0.1290 -0.0034
   16MOL0     C 2057   5.228   1.814   3.013  0.2873 -0.1172 -0.0067
   16MOL0     C 2058   5.189   1.782   3.144  0.6675  0.1242  0.1034
   16MOL0     C 2059   5.090   1.692   3.168  0.6433  0.9701  0.0559
   16MOL0     C 2060   5.035   1.620   3.056  0.2263  0.0380  0.2681
   16MOL0     O 2061   4.955   1.506   3.078 -0.2733 -0.5909 -0.1302
   16MOL0     C 2062   4.836   1.536   3.151 -0.4400  0.7519 -0.2218
   16MOL0     C 2063   4.726   1.440   3.121 -0.2688  0.0703 -0.1666
   16MOL0     C 2064   4.753   1.307   3.202 -0.3845 -0.6251 -0.4330
   16MOL0     C 2065   4.681   1.182   3.147 -0.3941 -0.4768 -0.0250
   16MOL0     C 2066   4.534   1.179   3.149  0.5455  0.7827 -0.5776
   16MOL0     C 2067   4.466   1.214   3.282  0.4783  0.5072  0.9267
   16MOL0     C 2068   4.311   1.204   3.253  0.6947 -0.4606  0.8086
   16MOL0     C 2069   4.256   1.075   3.322  0.0043 -0.3028  0.2050
   16MOL0    Cl 2070   4.206   1.091   3.491  0.0630  0.4942  0.3526
   16MOL0     C 2071   5.087   1.645   2.929 -0.4841  0.5198  0.3420
   16MOL0     C 2072   5.172   1.750   2.902 -0.5837 -0.4867 -0.0766
   16MOL0     O 2073   5.211   2.042   2.864 -0.3120  0.6358  0.7780
   16MOL0     C 2074   5.550   2.041   2.987  0.1576 -0.3544 -0.1672
   16MOL0     C 2075   5.676   2.103   2.994  0.2209  0.8092  0.6718
   16MOL0     N 2076   6.438   2.293   2.860  0.2769  0.7355  0.4235
   16MOL0     N 2077   6.555   2.245   2.882 -0.5018 -0.3949 -0.0947
   16MOL0     C 2078   7.588   2.321   2.368  0.4444 -0.5583 -0.3747
   16MOL0     C 2079   7.710   2.305   2.305 -0.4446 -0.5975 -0.7701
   16MOL0     C 2080   8.141   2.222   2.226  0.4546 -0.7566 -1.1377
   16MOL0     C 2081   8.160   2.082   2.194 -0.3168 -0.4741 -0.5263
   16MOL0     C 2082   8.281   2.030   2.144  0.0435  0.1942  0.2747
   16MOL0     C 2083   8.384   2.124   2.111 -0.1214  0.0000  0.0850
   16MOL0     O 2084   8.509   2.088   2.052 -0.3344 -0.6304 -0.4510
   16MOL0     C 2085   8.559   1.957   2.071  0.3943  0.4133 -0.0931
   16MOL0     C 2086   8.710   1.930   2.043 -0.4359  0.1429  0.2872
   16MOL0     C 2087   8.799   2.039   2.113 -0.2148 -0.2260  0.6238
   16MOL0     C 2088   8.945   2.024   2.068 -0.5783 -0.1566 -0.1744
   16MOL0     C 2089   8.991   1.893   2.113  0.2460 -0.4016  1.1532
   16MOL0     C 2090   9.034   1.785   2.153  0.7320 -0.3981 -0.0595
   16MOL0     C 2091   8.371   2.261   2.140 -0.6659  0.2897  0.2401
   16MOL0     C 2092   8.252   2.303   2.208 -0.0010  0.1766 -0.3840
   16MOL0     H 2093   7.799   2.011   2.437 -0.6057  0.1581  0.6504
   16MOL0     H 2094   7.561   2.030   2.534  0.3206 -0.8015 -0.9675
   16MOL0     H 2095   7.332   2.081   2.597 -0.1412 -0.0274 -0.4935
   16MOL0     H 2096   7.443   2.178   2.701  1.2014  2.2723 -1.1151
   16MOL0     H 2097   7.298   2.359   2.717 -4.0704  1.5466 -1.5168
   16MOL0     H 2098   7.182   2.292   2.605 -1.2160  0.1708 -0.2054
   16MOL0     H 2099   7.151   2.097   2.764  3.1309 -1.1645  0.0041
   16MOL0     H 2100   7.239   2.180   2.893 -0.9966 -4.1270  0.2089
   16MOL0     H 2101   7.068   2.373   2.846  0.1769  0.3454  0.2908
   16MOL0     H 2102   6.977   2.260   2.738 -0.4062 -0.3098  0.2640
   16MOL0     H 2103   6.966   2.101   2.937 -2.5324  0.2101 -1.2021
   16MOL0     H 2104   7.048   2.201   3.037  1.6411 -2.4991 -0.7405
   16MOL0     H 2105   6.893   2.380   3.033 -0.7183  0.3936 -0.8972
   16MOL0     H 2106   6.800   2.317   2.903 -0.8708 -0.2793  0.4565
   16MOL0     H 2107   6.820   2.193   3.184  1.3755  0.9683 -1.5227
   16MOL0     H 2108   6.698   2.301   3.132 -0.9513 -0.6576  0.1787
   16MOL0     H 2109   6.667   2.034   3.119 -0.8878 -0.9597 -1.0402
   16MOL0     H 2110   6.739   2.047   2.963 -0.9949  1.6555 -1.8179
   16MOL0     H 2111   6.418   2.088   3.131  0.8799  2.5824  1.6192
   16MOL0     H 2112   6.241   2.307   3.129 -0.9988  0.1541 -0.6113
   16MOL0     H 2113   6.234   2.402   2.981  1.7889 -0.5560 -1.5509
   16MOL0     H 2114   6.029   2.266   3.067 -0.5574 -1.6147  1.4238
   16MOL0     H 2115   6.110   2.126   3.013 -0.6702  1.0526  0.3545
   16MOL0     H 2116   6.117   2.216   2.783  0.7601  0.1393  1.0785
   16MOL0     H 2117   6.056   2.372   2.845 -0.2597  0.7045 -0.8923
   16MOL0     H 2118   5.901   2.119   2.821  0.0976 -0.0730  0.4957
   16MOL0     H 2119   5.891   2.276   2.724  0.8817 -1.9133 -0.9060
   16MOL0     H 2120   5.607   2.359   2.787  0.8048  0.3227  0.1637
   16MOL0     H 2121   5.327   2.253   2.669 -3.4575  0.7498 -0.3560
   16MOL0     H 2122   5.256   2.274   2.832  2.0604 -1.4356  1.4637
   16MOL0     H 2123   5.367   2.393   2.759 -1.8137  0.2626 -1.6897
   16MOL0     H 2124   5.240   1.825   3.230  1.7612 -0.4342 -0.2442
   16MOL0     H 2125   5.065   1.671   3.272  0.7345  2.0240  0.3063
   16MOL0     H 2126   4.849   1.540   3.259  0.2138  1.5084 -0.3264
   16MOL0     H 2127   4.807   1.638   3.122  1.9258  1.1403 -1.4213
   16MOL0     H 2128   4.638   1.492   3.159 -0.2722 -2.1202  3.2972
   16MOL0     H 2129   4.710   1.423   3.014  0.2838  0.9433 -0.4031
   16MOL0     H 2130   4.740   1.328   3.309  0.5869  2.5390 -0.8356
   16MOL0     H 2131   4.861   1.292   3.193 -0.3467  0.6128 -2.5272
   16MOL0     H 2132   4.711   1.172   3.042  1.5907  1.9000  0.2376
   16MOL0     H 2133   4.711   1.099   3.212  1.4960  1.3289  1.5388
   16MOL0     H 2134   4.502   1.076   3.133  2.2726  0.4637 -2.2901
   16MOL0     H 2135   4.496   1.247   3.071  1.0290  1.5387 -0.1727
   16MOL0     H 2136   4.507   1.151   3.362  1.8419  1.7074  1.2074
   16MOL0     H 2137   4.485   1.319   3.303 -2.8342  0.9370  2.4080
   16MOL0     H 2138   4.294   1.202   3.145  0.7257  2.8612  0.6255
   16MOL0     H 2139   4.267   1.298   3.289  1.9416  1.0647 -1.3985
   16MOL0     H 2140   4.328   0.994   3.309 -0.9999 -1.4982  1.7743
   16MOL0     H 2141   4.163   1.039   3.276  0.2514 -0.4084 -0.2194
   16MOL0     H 2142   5.048   1.579   2.852 -0.5681  1.1482 -0.1632
   16MOL0     H 2143   5.202   1.774   2.800  0.4688  0.8927  0.5106
   16MOL0     H 2144   5.538   1.957   3.055 -2.6417 -0.3300 -0.5069
   16MOL0     H 2145   5.748   2.062   3.064  1.5814  0.1079 -1.0592
   16MOL0     H 2146   7.534   2.410   2.337  2.2069  0.5676 -0.3225
   16MOL0     H 2147   7.736   2.385   2.236 -1.9978  0.2848 -0.3728
   16MOL0     H 2148   8.083   2.007   2.209  2.3966 -4.3309 -3.6625
   16MOL0     H 2149   8.294   1.924   2.125  1.6111  0.4694 -0.3136
   16MOL0     H 2150   8.526   1.923   2.169  2.3355  3.0713  1.6580
   16MOL0     H 2151   8.509   1.906   1.989 -1.5910  2.8387 -0.5047
   16MOL0     H 2152   8.735   1.950   1.939  3.4089  1.2509  1.2805
   16MOL0     H 2153   8.735   1.830   2.078 -1.0344  0.3919  1.4920
   16MOL0     H 2154   8.791   2.033   2.223 -0.7823 -0.8606  0.5606
   16MOL0     H 2155   8.765   2.137   2.078  2.5497 -0.3046 -2.6984
   16MOL0     H 2156   8.998   2.113   2.105  0.2822  0.5555 -2.9298
   16MOL0     H 2157   8.954   2.017   1.960  2.5142 -1.1833  0.0619
   16MOL0     H 2158   9.088   1.699   2.187 -1.0281 -1.7580 -0.5889
   16MOL0     H 2159   8.452   2.330   2.116 -0.0553 -0.4719  0.0820
   16MOL0     H 2160   8.236   2.406   2.237 -0.3422 -0.7920  3.2967
   17MOL0     O 2161   0.599  10.856   8.208  0.4249 -0.0974 -0.4537
   17MOL0     C 2162   0.629  10.890   8.095 -0.0786  0.1743  0.8332
   17MOL0     O 2163   0.557  10.973   8.017  0.1656 -0.0683  0.2123
   17MOL0     C 2164   0.460  11.048   8.086  1.1708 -0.1062  0.6951
   17MOL0     C 2165   0.341  10.983   8.122 -0.1549 -0.0402  0.1299
   17MOL0     C 2166   0.236  11.061   8.165 -0.1021 -0.2882 -0.2291
   17MOL0     C 2167   0.246  11.198   8.193  0.7792  0.8681  0.6385
   17MOL0     O 2168   0.150  11.280   8.243  0.0460 -0.4651 -0.3044
   17MOL0     C 2169   0.013  11.244   8.235  0.1229 -0.3415  0.2880
   17MOL0     C 2170  -0.061  11.356   8.283  0.4667 -0.4788 -0.7860
   17MOL0     C 2171  -0.209  11.313   8.300 -0.4465 -0.3631 -0.1988
   17MOL0     C 2172  -0.293  11.429   8.356 -0.3724  0.0725  0.2267
   17MOL0     C 2173  -0.415  11.365   8.439  0.5320 -0.6380  0.3057
   17MOL0     C 2174  -0.504  11.472   8.487 -0.0715  0.4155  0.2556
   17MOL0     C 2175  -0.635  11.410   8.560  0.2282  1.5167  0.1523
   17MOL0     C 2176  -0.735  11.362   8.448 -0.7819 -0.0192  0.2129
   17MOL0     N 2177  -0.850  11.289   8.492 -0.0736  0.8442 -0.1061
   17MOL0     C 2178  -0.882  11.156   8.474 -0.5451  0.3073 -0.1241
   17MOL0     C 2179  -0.992  11.135   8.550 -0.2370 -0.9427 -0.5637
   17MOL0     C 2180  -1.057  11.006   8.583 -0.1951  0.5171  0.3920
   17MOL0     C 2181  -1.161  10.956   8.485 -0.2844 -0.0780  0.4387
   17MOL0     C 2182  -1.284  11.044   8.487  0.3041 -0.1621  0.3770
   17MOL0     C 2183  -1.415  10.978   8.436 -0.2082  0.3597 -1.3824
   17MOL0     O 2184  -1.516  11.080   8.477 -0.0599 -0.2551 -0.7184
   17MOL0     C 2185  -1.644  11.056   8.454  0.0722 -0.8012 -0.1150
   17MOL0     C 2186  -1.736  11.124   8.537  0.2514  0.1676  0.5400
   17MOL0     C 2187  -1.878  11.105   8.537 -0.3391 -0.0320 -0.1594
   17MOL0     C 2188  -1.959  11.206   8.622  0.1830 -0.3476  0.9627
   17MOL0     C 2189  -1.924  11.005   8.441  0.6932 -0.0097 -0.3650
   17MOL0     C 2190  -2.064  10.965   8.436  0.4164 -0.1660  0.4982
   17MOL0     O 2191  -2.103  10.880   8.332  0.8614  0.2990 -0.2609
   17MOL0     C 2192  -2.236  10.834   8.341 -0.3844  0.3244  0.4031
   17MOL0     C 2193  -2.256  10.692   8.350  0.3615 -0.3320 -0.5350
   17MOL0     C 2194  -2.386  10.646   8.358  0.2401 -0.8830 -0.2005
   17MOL0     C 2195  -2.498  10.741   8.344  0.3320  0.5823  0.4854
   17MOL0     O 2196  -2.630  10.695   8.337 -0.6331  0.0502  0.1494
   17MOL0     C 2197  -2.668  10.580   8.248  0.1567 -1.0713 -0.2986
   17MOL0     C 2198  -2.823  10.543   8.267 -0.3323  0.0494  0.3295
   17MOL0     C 2199  -2.852  10.475   8.398 -0.5782 -0.0125 -0.7630
   17MOL0     C 2200  -3.003  10.449   8.416 -1.0250  0.3487  0.5962
   17MOL0     C 2201  -3.047  10.371   8.541 -0.5778 -0.4753 -0.0636
   17MOL0     C 2202  -3.199  10.345   8.543 -0.6254 -0.4578 -0.1756
   17MOL0     C 2203  -3.280  10.473   8.542  0.0110 -0.0768  0.2701
   17MOL0     C 2204  -3.430  10.453   8.546 -0.2642  0.5145 -0.1470
   17MOL0    Cl 2205  -3.493  10.356   8.417  0.5085 -0.2438 -0.4236
   17MOL0     C 2206  -2.483  10.872   8.313  0.0154  0.7714 -0.3122
   17MOL0     C 2207  -2.350  10.919   8.323 -0.1976  0.9289  0.0331
   17MOL0     O 2208  -2.138  11.004   8.527 -0.1479  1.0086  0.1220
   17MOL0     C 2209  -1.835  10.939   8.356 -0.7393 -0.1660 -0.6919
   17MOL0     C 2210  -1.695  10.965   8.365  0.4582 -0.7281 -0.2044
   17MOL0     N 2211  -1.024  11.258   8.604  0.0882  1.1924 -0.5687
   17MOL0     N 2212  -0.943  11.347   8.576 -0.5318 -0.8057  0.3137
   17MOL0     C 2213   0.367  11.257   8.152 -0.4520  0.3032 -0.8132
   17MOL0     C 2214   0.475  11.181   8.102 -0.0790  0.1949 -0.5168
   17MOL0     C 2215   0.747  10.820   8.034  0.1637 -0.3367 -0.0348
   17MOL0     C 2216   0.784  10.861   7.905 -0.2990 -0.0869  0.1695
   17MOL0     C 2217   0.892  10.804   7.838  0.0468 -0.5189  0.2145
   17MOL0     C 2218   0.967  10.700   7.903 -0.9676 -0.1001 -0.0198
   17MOL0     O 2219   1.080  10.641   7.850 -0.1572 -0.3825 -0.1924
   17MOL0     C 2220   1.114  10.651   7.714  1.2065  0.3723 -0.4478
   17MOL0     C 2221   1.191  10.782   7.698  0.1157 -0.4358 -0.7353
   17MOL0     C 2222   1.228  10.801   7.547 -0.4798  0.2328  0.1954
   17MOL0     C 2223   1.326  10.685   7.503 -0.1063 -0.6916 -0.4965
   17MOL0     C 2224   1.406  10.735   7.389  0.2123  0.2967  0.4367
   17MOL0     C 2225   1.486  10.780   7.310 -0.8977 -0.1841 -0.7843
   17MOL0     C 2226   0.931  10.661   8.037  0.1481  1.1195  0.4188
   17MOL0     C 2227   0.824  10.717   8.097  0.5843 -0.4369  0.7196
   17MOL0     H 2228   0.319  10.877   8.124 -1.9593  0.2265 -1.7402
   17MOL0     H 2229   0.139  11.017   8.190 -0.1300  0.0318  0.2361
   17MOL0     H 2230  -0.011  11.223   8.130  2.0688  2.5096 -0.8750
   17MOL0     H 2231  -0.008  11.157   8.297  2.3774 -0.0951  1.5000
   17MOL0     H 2232  -0.026  11.369   8.386 -2.3931 -3.1533  0.7048
   17MOL0     H 2233  -0.062  11.447   8.222  1.5217 -0.0933 -0.2499
   17MOL0     H 2234  -0.262  11.315   8.204 -3.2117  0.1100  1.2380
   17MOL0     H 2235  -0.215  11.222   8.360  0.3838  0.3069  0.9234
   17MOL0     H 2236  -0.237  11.487   8.430  0.8048  0.4831 -0.9686
   17MOL0     H 2237  -0.338  11.490   8.278  0.8688  0.6369 -0.0489
   17MOL0     H 2238  -0.467  11.293   8.376 -0.3636  1.5994 -1.6599
   17MOL0     H 2239  -0.373  11.317   8.528  1.1440 -0.9111 -0.1280
   17MOL0     H 2240  -0.457  11.545   8.555 -1.8771  1.2459  0.6788
   17MOL0     H 2241  -0.546  11.534   8.407 -0.3647  0.0506  0.1267
   17MOL0     H 2242  -0.621  11.336   8.639  1.2317  1.9736  0.4261
   17MOL0     H 2243  -0.689  11.482   8.621  1.0194  0.4359  2.2073
   17MOL0     H 2244  -0.681  11.287   8.388 -0.6390 -0.5763  1.0287
   17MOL0     H 2245  -0.761  11.439   8.375 -0.1330 -0.7696 -0.8533
   17MOL0     H 2246  -0.825  11.081   8.421  0.4942  0.8675  0.1859
   17MOL0     H 2247  -0.994  10.917   8.594 -1.7861 -0.6557  0.3382
   17MOL0     H 2248  -1.105  11.021   8.680  0.0002 -1.2681  0.8006
   17MOL0     H 2249  -1.198  10.855   8.504 -2.6791  0.4225 -1.2011
   17MOL0     H 2250  -1.114  10.947   8.386 -1.7188  0.0929 -0.2741
   17MOL0     H 2251  -1.266  11.126   8.417  2.4817  0.6710  1.7930
   17MOL0     H 2252  -1.308  11.090   8.583 -1.9748  2.3391 -1.2340
   17MOL0     H 2253  -1.427  10.881   8.485 -0.2415  1.8064  1.7193
   17MOL0     H 2254  -1.402  10.961   8.329  2.3152 -3.4309 -0.6697
   17MOL0     H 2255  -1.690  11.194   8.607 -0.1362 -0.4887  1.4728
   17MOL0     H 2256  -1.898  11.290   8.657 -0.1520  0.9423 -1.3229
   17MOL0     H 2257  -2.032  11.251   8.555 -0.0736  0.0999  1.5416
   17MOL0     H 2258  -2.013  11.158   8.704 -0.4648  0.1879  0.8612
   17MOL0     H 2259  -2.166  10.631   8.346 -0.5607 -1.8618  0.9732
   17MOL0     H 2260  -2.411  10.543   8.379 -0.8267 -1.0396 -2.0682
   17MOL0     H 2261  -2.658  10.614   8.144 -0.0954  1.3258  0.4137
   17MOL0     H 2262  -2.603  10.496   8.276  2.3581  1.0282  1.3174
   17MOL0     H 2263  -2.885  10.633   8.258 -4.4689 -2.5647 -0.0523
   17MOL0     H 2264  -2.859  10.476   8.188  1.7422  2.0798 -2.5098
   17MOL0     H 2265  -2.828  10.545   8.479 -0.4635  2.3571 -2.7320
   17MOL0     H 2266  -2.787  10.388   8.407 -0.1030  0.2471 -1.5828
   17MOL0     H 2267  -3.046  10.549   8.405  0.3905  0.9491  0.3733
   17MOL0     H 2268  -3.044  10.393   8.331 -2.1528  1.9598  0.0370
   17MOL0     H 2269  -3.024  10.430   8.630 -0.7081  0.6628 -0.7685
   17MOL0     H 2270  -2.996  10.274   8.535 -0.8438 -0.5664 -0.9543
   17MOL0     H 2271  -3.227  10.293   8.451 -0.5871 -2.3748  0.8387
   17MOL0     H 2272  -3.232  10.285   8.628 -0.3510 -4.6884 -2.7482
   17MOL0     H 2273  -3.264  10.519   8.444  0.0660 -0.6234  0.0170
   17MOL0     H 2274  -3.233  10.533   8.620  2.8094  1.4178 -2.3724
   17MOL0     H 2275  -3.477  10.551   8.540 -1.7642 -0.2501 -1.7429
   17MOL0     H 2276  -3.463  10.398   8.635 -0.9745 -0.8989 -1.2422
   17MOL0     H 2277  -2.566  10.937   8.288  0.2409  1.6942  1.1750
   17MOL0     H 2278  -2.331  11.024   8.307 -4.0554  1.4662 -2.1675
   17MOL0     H 2279  -1.848  10.853   8.292  3.5684 -1.0368 -0.7323
   17MOL0     H 2280  -1.623  10.918   8.298 -0.5783 -3.9098  0.7423
   17MOL0     H 2281   0.398  11.360   8.166  0.2520  0.1029 -0.9047
   17MOL0     H 2282   0.573  11.217   8.070  0.6380 -0.4823  0.8000
   17MOL0     H 2283   0.729  10.931   7.842 -0.2453 -2.2112 -2.4037
   17MOL0     H 2284   0.910  10.857   7.745 -3.3889  0.5499  0.0137
   17MOL0     H 2285   1.180  10.569   7.684  0.5106 -0.2775 -0.2350
   17MOL0     H 2286   1.028  10.654   7.648  0.4342  0.1993  0.5195
   17MOL0     H 2287   1.277  10.762   7.762 -0.4005 -3.8157 -0.9006
   17MOL0     H 2288   1.134  10.870   7.729 -0.8524 -0.0704 -3.3195
   17MOL0     H 2289   1.286  10.893   7.536  2.4192 -1.7585 -4.0460
   17MOL0     H 2290   1.141  10.793   7.481 -0.0429  0.0742 -0.3631
   17MOL0     H 2291   1.268  10.593   7.491 -1.9914  0.2970  0.5650
   17MOL0     H 2292   1.393  10.666   7.588 -1.2262 -2.7049 -0.0004
   17MOL0     H 2293   1.560  10.832   7.251  2.3345 -1.0029  2.1926
   17MOL0     H 2294   0.990  10.582   8.084  0.9919  0.2734 -1.9131
   17MOL0     H 2295   0.796  10.685   8.197  1.1230 -0.1480  0.9651
   18MOL0     O 2296   2.502  11.202   4.308 -0.0955 -0.1832 -0.7863
   18MOL0     C 2297   2.578  11.297   4.322 -0.3309 -0.8412  0.1499
   18MOL0     O 2298   2.556  11.400   4.410 -0.3038  0.1648  0.9227
   18MOL0     C 2299   2.468  11.387   4.508  0.9859  0.4394  0.9582
   18MOL0     C 2300   2.329  11.378   4.483  0.0478  0.2461  0.5167
   18MOL0     C 2301   2.246  11.381   4.593 -0.4917  0.0448  0.7740
   18MOL0     C 2302   2.288  11.383   4.725 -0.2777 -0.4795  0.3933
   18MOL0     O 2303   2.208  11.392   4.833 -0.4225  0.1229 -0.0601
   18MOL0     C 2304   2.109  11.289   4.825 -0.2791  0.0696  0.0341
   18MOL0     C 2305   2.058  11.270   4.963 -0.0078 -0.0438  0.1433
   18MOL0     C 2306   1.944  11.174   4.972 -0.1733  0.1319 -0.0378
   18MOL0     C 2307   1.904  11.151   5.122 -0.4108 -0.3763 -0.4869
   18MOL0     C 2308   1.803  11.038   5.132  0.9243 -0.1790 -0.1382
   18MOL0     C 2309   1.680  11.060   5.056  0.8971  0.0540 -0.1428
   18MOL0     C 2310   1.564  10.971   5.089  0.1041  0.0106  0.0182
   18MOL0     C 2311   1.428  11.027   5.046  0.8937  0.8524 -0.5943
   18MOL0     N 2312   1.325  10.924   5.060 -0.9430  0.2584 -0.0302
   18MOL0     C 2313   1.267  10.886   5.180 -0.7580 -0.4144 -0.3141
   18MOL0     C 2314   1.220  10.761   5.163 -0.7892  0.5599  0.8719
   18MOL0     C 2315   1.151  10.666   5.248 -0.4344 -0.2920 -0.1443
   18MOL0     C 2316   1.249  10.561   5.304  0.0611 -0.1828  1.2825
   18MOL0     C 2317   1.291  10.599   5.442 -0.1798 -0.2329 -0.0812
   18MOL0     C 2318   1.415  10.532   5.484 -0.5000 -0.0097 -0.0539
   18MOL0     O 2319   1.532  10.616   5.471  0.3075  0.0739 -0.1837
   18MOL0     C 2320   1.619  10.586   5.373 -0.3052 -0.2376  0.1358
   18MOL0     C 2321   1.711  10.481   5.382 -0.9631  0.1849 -0.0948
   18MOL0     C 2322   1.802  10.453   5.279  0.0625 -0.2562  0.5173
   18MOL0     C 2323   1.900  10.343   5.297  0.5689 -0.0761  0.0466
   18MOL0     C 2324   1.787  10.529   5.159 -0.1618 -0.6821 -0.1894
   18MOL0     C 2325   1.888  10.529   5.050  0.0307 -0.3440  0.0808
   18MOL0     O 2326   1.981  10.436   5.050  1.2157  0.1514  0.2023
   18MOL0     C 2327   2.070  10.423   4.946  1.0321  0.1768  0.1849
   18MOL0     C 2328   2.195  10.480   4.955 -0.2130 -0.3608 -0.0092
   18MOL0     C 2329   2.293  10.463   4.846 -0.5628  0.1872  0.2617
   18MOL0     C 2330   2.260  10.383   4.735 -1.1528 -0.2560  0.2550
   18MOL0     O 2331   2.346  10.366   4.628  0.2061  0.0061  0.5934
   18MOL0     C 2332   2.320  10.471   4.533 -0.0479 -0.8384  0.5664
   18MOL0     C 2333   2.429  10.472   4.422  0.2982  0.6633 -0.1743
   18MOL0     C 2334   2.440  10.604   4.346  0.5344  0.1120 -0.6557
   18MOL0     C 2335   2.362  10.623   4.223  0.3633 -1.0375  0.0330
   18MOL0     C 2336   2.377  10.768   4.166 -0.8754 -0.5145 -0.2859
   18MOL0     C 2337   2.513  10.829   4.127 -0.3720  0.6337 -0.5412
   18MOL0     C 2338   2.605  10.730   4.046 -0.1319 -0.4049 -0.1493
   18MOL0     C 2339   2.755  10.775   4.043  0.2729  0.2184 -0.0085
   18MOL0    Cl 2340   2.758  10.942   3.992 -0.1749  0.0695  0.5319
   18MOL0     C 2341   2.142  10.319   4.741  0.4273  0.3163  0.2102
   18MOL0     C 2342   2.040  10.337   4.839  0.5148 -0.0289  0.2862
   18MOL0     O 2343   1.873  10.611   4.964  0.8730 -0.6107  0.1586
   18MOL0     C 2344   1.685  10.626   5.148 -0.5611  0.0385  0.1523
   18MOL0     C 2345   1.602  10.650   5.250  0.1537  0.5206 -0.9104
   18MOL0     N 2346   1.245  10.729   5.026  0.4172 -0.8284  0.1319
   18MOL0     N 2347   1.301  10.831   4.969  0.1993 -0.9704 -0.6556
   18MOL0     C 2348   2.427  11.386   4.742  0.1846  0.0960 -0.2104
   18MOL0     C 2349   2.513  11.385   4.637  0.4154 -0.4881 -0.6277
   18MOL0     C 2350   2.683  11.324   4.217 -0.1488 -0.5154  0.0205
   18MOL0     C 2351   2.668  11.273   4.088  0.4681 -0.7291  0.4407
   18MOL0     C 2352   2.768  11.282   3.985 -0.1469  0.7530  0.7404
   18MOL0     C 2353   2.888  11.349   4.011 -0.1717  1.1525 -0.3871
   18MOL0     O 2354   3.003  11.350   3.939  0.4442 -0.3411  0.3193
   18MOL0     C 2355   2.998  11.301   3.807  0.3663  0.7144  0.2180
   18MOL0     C 2356   3.133  11.308   3.740 -0.4729 -0.3582 -0.1076
   18MOL0     C 2357   3.240  11.242   3.816  0.2490 -0.1012  0.0003
   18MOL0     C 2358   3.367  11.245   3.724  0.7939  0.1102  0.3370
   18MOL0     C 2359   3.474  11.166   3.788 -0.5151 -0.5082 -0.0566
   18MOL0     C 2360   3.569  11.103   3.833 -0.5062  0.5696 -0.4446
   18MOL0     C 2361   2.909  11.394   4.147  0.5109 -0.7684  0.2833
   18MOL0     C 2362   2.810  11.372   4.246 -0.1300 -1.0193 -1.0152
   18MOL0     H 2363   2.293  11.378   4.381  1.9051  0.1997 -0.1774
   18MOL0     H 2364   2.142  11.384   4.564  0.7724 -0.7103 -5.1518
   18MOL0     H 2365   2.023  11.323   4.766 -2.2329 -0.9077  2.1550
   18MOL0     H 2366   2.149  11.193   4.791  0.1508 -0.4461  1.8634
   18MOL0     H 2367   2.146  11.240   5.021 -1.2542 -0.6522  1.8196
   18MOL0     H 2368   2.025  11.368   4.996 -2.3255 -1.4899  2.5372
   18MOL0     H 2369   1.861  11.204   4.907  1.1006 -0.3819 -1.9817
   18MOL0     H 2370   1.973  11.073   4.940 -1.1485  0.2063 -1.2200
   18MOL0     H 2371   1.986  11.116   5.186  0.2408 -2.1266 -2.1515
   18MOL0     H 2372   1.855  11.236   5.169  0.6020  0.1358 -0.3325
   18MOL0     H 2373   1.843  10.945   5.091 -2.2234 -1.6875 -0.0250
   18MOL0     H 2374   1.776  11.027   5.238  1.3060  3.5718  0.5131
   18MOL0     H 2375   1.631  11.156   5.079 -2.2563 -1.7936  1.5434
   18MOL0     H 2376   1.696  11.071   4.948  3.0100  0.0187  0.1243
   18MOL0     H 2377   1.579  10.873   5.043  2.1774  1.1628 -1.9750
   18MOL0     H 2378   1.573  10.956   5.197 -1.6185 -2.7056 -0.0953
   18MOL0     H 2379   1.438  11.058   4.942 -1.2352  2.0551 -0.4845
   18MOL0     H 2380   1.405  11.106   5.117 -0.5267 -0.9387  1.0440
   18MOL0     H 2381   1.273  10.931   5.279  2.6799 -2.7729  0.7521
   18MOL0     H 2382   1.110  10.723   5.332  1.6881 -0.1788  0.8644
   18MOL0     H 2383   1.060  10.622   5.207  1.2230 -1.3079 -2.9849
   18MOL0     H 2384   1.334  10.562   5.236 -1.6466  1.3879 -1.0182
   18MOL0     H 2385   1.197  10.465   5.307 -1.2814  0.4408  5.7520
   18MOL0     H 2386   1.215  10.565   5.513  0.4440  0.3287  0.8617
   18MOL0     H 2387   1.305  10.708   5.439  2.7683 -0.5586 -2.4853
   18MOL0     H 2388   1.436  10.433   5.441 -2.7097  0.3807 -2.2462
   18MOL0     H 2389   1.408  10.522   5.593  0.1494 -0.8810 -0.0813
   18MOL0     H 2390   1.718  10.428   5.477 -2.3736  0.9611  0.4809
   18MOL0     H 2391   1.888  10.281   5.207  0.1606 -0.7068  0.5292
   18MOL0     H 2392   2.004  10.376   5.307  0.7253  0.2470 -2.0261
   18MOL0     H 2393   1.870  10.283   5.383  0.4824  1.2337  0.9517
   18MOL0     H 2394   2.218  10.540   5.043  2.2627 -0.2192 -0.6643
   18MOL0     H 2395   2.390  10.511   4.855 -1.5121  1.7596  3.4118
   18MOL0     H 2396   2.226  10.451   4.482  0.6350 -0.9253 -0.6986
   18MOL0     H 2397   2.311  10.565   4.589 -0.8002 -2.9327  4.3013
   18MOL0     H 2398   2.516  10.433   4.476 -0.2732  0.1663  0.4026
   18MOL0     H 2399   2.402  10.406   4.340  1.4299  0.6810 -0.5777
   18MOL0     H 2400   2.547  10.604   4.322  0.8955 -1.8858  0.6795
   18MOL0     H 2401   2.420  10.681   4.421  0.7622 -0.9444  0.5311
   18MOL0     H 2402   2.392  10.546   4.152  0.7130  1.5088 -2.8047
   18MOL0     H 2403   2.254  10.606   4.228  0.5741 -2.5479 -0.1488
   18MOL0     H 2404   2.334  10.835   4.242  0.5625 -1.4085  1.3915
   18MOL0     H 2405   2.315  10.775   4.076  1.4357 -2.5923 -2.2121
   18MOL0     H 2406   2.497  10.923   4.074 -0.7333  0.8790 -0.0026
   18MOL0     H 2407   2.578  10.860   4.210  1.7087 -0.6783 -1.5803
   18MOL0     H 2408   2.565  10.734   3.945 -0.4944 -5.2448 -0.4477
   18MOL0     H 2409   2.599  10.629   4.089 -1.6017 -0.5064 -0.5339
   18MOL0     H 2410   2.805  10.706   3.974 -2.3225 -1.6961 -0.1241
   18MOL0     H 2411   2.800  10.759   4.141 -1.7996  1.2632  1.1906
   18MOL0     H 2412   2.108  10.249   4.666  2.5199 -1.2240  0.6221
   18MOL0     H 2413   1.944  10.286   4.837 -1.9295  4.1266 -0.3394
   18MOL0     H 2414   1.674  10.688   5.059  1.9026 -0.7017 -0.7556
   18MOL0     H 2415   1.525  10.722   5.224 -1.3610 -1.2737 -1.5625
   18MOL0     H 2416   2.453  11.380   4.848  0.2242 -0.0263 -0.2269
   18MOL0     H 2417   2.620  11.382   4.655  0.5075 -2.5561 -1.2238
   18MOL0     H 2418   2.574  11.229   4.055 -1.2125  3.0311 -0.2688
   18MOL0     H 2419   2.749  11.230   3.892 -2.9299  2.2487  0.3659
   18MOL0     H 2420   2.964  11.197   3.800  3.5365 -0.3345 -1.3744
   18MOL0     H 2421   2.926  11.367   3.758  1.1730  1.4173 -0.0452
   18MOL0     H 2422   3.150  11.417   3.735 -2.3831 -0.0012  0.5826
   18MOL0     H 2423   3.139  11.262   3.641 -2.0348  0.8375 -0.8134
   18MOL0     H 2424   3.202  11.141   3.828  0.2174 -0.1724 -0.6774
   18MOL0     H 2425   3.246  11.282   3.918  0.8847 -1.8847  0.6912
   18MOL0     H 2426   3.411  11.345   3.721  3.2102 -0.7198  3.2115
   18MOL0     H 2427   3.349  11.188   3.632 -0.4768  0.4294  0.3726
   18MOL0     H 2428   3.657  11.059   3.875 -0.9062  2.6094  2.9440
   18MOL0     H 2429   3.003  11.441   4.174  0.2900 -0.5952  0.7553
   18MOL0     H 2430   2.828  11.401   4.349 -3.6000  2.5165 -1.1762
   19MOL0     O 2431   4.964   8.467   2.518 -0.3666 -0.0615  0.0723
   19MOL0     C 2432   4.962   8.500   2.639  0.5265 -0.9552 -0.2986
   19MOL0     O 2433   4.850   8.485   2.731 -0.3213 -0.1540 -0.6173
   19MOL0     C 2434   4.732   8.423   2.693 -0.4080 -0.0024  0.2998
   19MOL0     C 2435   4.680   8.412   2.555 -0.0874  0.5128 -0.3557
   19MOL0     C 2436   4.568   8.333   2.520 -0.6306 -0.4081  0.3612
   19MOL0     C 2437   4.499   8.273   2.620  0.0283 -0.1280 -0.2044
   19MOL0     O 2438   4.392   8.204   2.578  0.3188  0.9385  0.2119
   19MOL0     C 2439   4.278   8.205   2.668 -0.0454 -0.0994 -0.2872
   19MOL0     C 2440   4.168   8.112   2.617 -0.5635  0.1376  0.0979
   19MOL0     C 2441   4.101   8.171   2.496 -0.0230 -0.7364 -0.9025
   19MOL0     C 2442   3.944   8.196   2.509  0.2400  0.7361  0.0265
   19MOL0     C 2443   3.867   8.067   2.536 -0.1868 -0.7888  0.1371
   19MOL0     C 2444   3.727   8.107   2.593 -0.2143  0.5084  0.1322
   19MOL0     C 2445   3.620   8.171   2.506  1.0134 -0.4162  0.4746
   19MOL0     C 2446   3.594   8.109   2.365  0.4490 -0.3445 -0.4735
   19MOL0     N 2447   3.577   7.968   2.357  0.2242 -0.4642 -0.2619
   19MOL0     C 2448   3.643   7.892   2.261 -0.0364  0.9417 -0.5113
   19MOL0     C 2449   3.582   7.765   2.267  0.4394 -0.1015 -0.3001
   19MOL0     C 2450   3.618   7.641   2.186  0.2199  0.0031 -0.5605
   19MOL0     C 2451   3.515   7.618   2.073  0.1420  0.3143 -0.5025
   19MOL0     C 2452   3.479   7.744   1.987  0.4187 -0.0228  0.9600
   19MOL0     C 2453   3.350   7.711   1.903  0.0645  0.2506 -0.9296
   19MOL0     O 2454   3.242   7.709   2.002  0.0335  0.1488  0.9847
   19MOL0     C 2455   3.124   7.680   1.941 -0.5172 -0.4320  0.4141
   19MOL0     C 2456   3.032   7.784   1.923  0.3160 -0.7791  0.4737
   19MOL0     C 2457   2.902   7.761   1.877  0.5911 -0.3876 -0.4833
   19MOL0     C 2458   2.807   7.883   1.870  0.4998  0.2982 -0.4377
   19MOL0     C 2459   2.861   7.630   1.841 -1.0826 -0.7203 -0.9559
   19MOL0     C 2460   2.733   7.593   1.785 -0.5357 -0.7113  0.2808
   19MOL0     O 2461   2.730   7.550   1.663  0.0361  0.6108 -0.6601
   19MOL0     C 2462   2.616   7.490   1.617 -0.0390 -0.1215 -0.8730
   19MOL0     C 2463   2.537   7.396   1.691  0.5903  0.5433  0.9591
   19MOL0     C 2464   2.424   7.341   1.622  0.2788 -0.6581 -0.0799
   19MOL0     C 2465   2.391   7.377   1.490  0.1473  0.0140 -0.1638
   19MOL0     O 2466   2.270   7.346   1.429  0.0151  0.1049 -0.6172
   19MOL0     C 2467   2.156   7.358   1.514  0.5240 -0.7507  0.5564
   19MOL0     C 2468   2.040   7.329   1.424 -0.0972 -0.1327  0.1543
   19MOL0     C 2469   2.058   7.187   1.356  0.1334  0.7594 -0.1466
   19MOL0     C 2470   2.069   7.080   1.464  0.4643 -0.2069  0.3464
   19MOL0     C 2471   2.039   6.948   1.397  0.5790 -0.4571 -0.3111
   19MOL0     C 2472   2.026   6.832   1.499 -0.3002 -0.0328  1.2371
   19MOL0     C 2473   2.168   6.795   1.571 -0.2540 -0.8866  0.3138
   19MOL0     C 2474   2.161   6.659   1.651 -0.0551  0.4758 -0.3463
   19MOL0    Cl 2475   2.196   6.528   1.531  0.2771 -0.0515  0.0627
   19MOL0     C 2476   2.481   7.457   1.419  0.7590  1.1664  0.1968
   19MOL0     C 2477   2.596   7.509   1.476 -0.6534 -0.8870 -1.0180
   19MOL0     O 2478   2.637   7.588   1.865 -0.6393 -0.2910 -0.2014
   19MOL0     C 2479   2.954   7.529   1.862 -0.6403  0.7660  0.3656
   19MOL0     C 2480   3.080   7.547   1.914  0.1450 -0.4193 -0.3401
   19MOL0     N 2481   3.481   7.778   2.360 -0.6017  0.5723 -0.0550
   19MOL0     N 2482   3.477   7.899   2.410  0.5085 -0.2637 -0.5044
   19MOL0     C 2483   4.549   8.283   2.752  0.8757 -0.8062 -0.0859
   19MOL0     C 2484   4.663   8.354   2.784  0.0697  0.1914 -0.6819
   19MOL0     C 2485   5.081   8.562   2.697 -0.6792 -0.4596  0.3976
   19MOL0     C 2486   5.187   8.598   2.619  0.1000  0.1537  0.1498
   19MOL0     C 2487   5.292   8.660   2.671 -0.0532  0.0591 -0.4293
   19MOL0     C 2488   5.309   8.671   2.810 -0.8795  0.2685  0.0078
   19MOL0     O 2489   5.426   8.730   2.853 -0.5346 -0.0303  0.7225
   19MOL0     C 2490   5.474   8.715   2.983 -0.0185  0.6586 -0.6227
   19MOL0     C 2491   5.545   8.856   3.015  0.7622 -0.3712 -0.9371
   19MOL0     C 2492   5.661   8.884   2.920  0.2544  0.6298  0.4739
   19MOL0     C 2493   5.797   8.874   2.995  0.6458  0.3516 -0.7687
   19MOL0     C 2494   5.904   8.858   2.892 -0.2800 -0.4130  0.1798
   19MOL0     C 2495   5.997   8.878   2.817  0.0643 -0.4468  0.6281
   19MOL0     C 2496   5.202   8.635   2.893  0.2056 -0.4788 -0.1026
   19MOL0     C 2497   5.092   8.574   2.838  0.6833 -0.4984  0.0861
   19MOL0     H 2498   4.731   8.459   2.471  2.6078  1.3563  1.6015
   19MOL0     H 2499   4.537   8.328   2.416 -1.1647  0.6077  0.4640
   19MOL0     H 2500   4.311   8.171   2.766  0.2442  1.4342  0.1852
   19MOL0     H 2501   4.238   8.307   2.672 -1.2073 -0.4818 -1.6302
   19MOL0     H 2502   4.203   8.010   2.598  0.7438  0.4808  0.6149
   19MOL0     H 2503   4.103   8.100   2.704  1.6896  1.6358  2.1296
   19MOL0     H 2504   4.163   8.254   2.459  1.7602 -1.4783  0.3223
   19MOL0     H 2505   4.106   8.088   2.425  0.0733 -3.8563  2.4931
   19MOL0     H 2506   3.932   8.265   2.592 -1.4622 -0.1070  0.5149
   19MOL0     H 2507   3.901   8.246   2.422 -0.1807  1.5711  0.7014
   19MOL0     H 2508   3.866   8.021   2.437  0.3859  0.7229 -0.6030
   19MOL0     H 2509   3.925   8.009   2.608  1.0322 -2.1035 -1.7932
   19MOL0     H 2510   3.695   8.012   2.637  0.3787  0.3239  0.1632
   19MOL0     H 2511   3.749   8.172   2.678 -0.4096  2.6291 -1.3617
   19MOL0     H 2512   3.534   8.166   2.573  1.7980 -1.5167  1.4400
   19MOL0     H 2513   3.642   8.277   2.491 -0.0650 -0.2287  0.1327
   19MOL0     H 2514   3.676   8.126   2.294  1.9449 -1.0694  1.0048
   19MOL0     H 2515   3.505   8.149   2.316  2.0125  2.7530 -1.0566
   19MOL0     H 2516   3.716   7.928   2.189  0.9342 -0.2767 -0.1690
   19MOL0     H 2517   3.719   7.652   2.144 -0.4553  1.3010 -1.9683
   19MOL0     H 2518   3.636   7.556   2.251  1.9264  0.4917 -0.3389
   19MOL0     H 2519   3.431   7.562   2.115  1.4735  1.4526  4.3541
   19MOL0     H 2520   3.562   7.546   2.005 -1.1053 -0.4346 -0.6052
   19MOL0     H 2521   3.559   7.766   1.916 -0.9730  0.2117 -0.5897
   19MOL0     H 2522   3.470   7.830   2.054  0.3650  2.1194 -1.6317
   19MOL0     H 2523   3.368   7.619   1.848  1.6780 -0.3107  0.4507
   19MOL0     H 2524   3.330   7.791   1.831 -0.5734  1.2309  0.2972
   19MOL0     H 2525   3.068   7.880   1.959  0.9615 -0.7856 -0.1435
   19MOL0     H 2526   2.700   7.860   1.870 -0.0088  2.4630  0.7092
   19MOL0     H 2527   2.819   7.928   1.969 -1.2325 -1.9288  0.8935
   19MOL0     H 2528   2.834   7.948   1.787  1.1322  1.3814  0.5806
   19MOL0     H 2529   2.559   7.379   1.796  0.7868 -0.4890  0.7596
   19MOL0     H 2530   2.355   7.281   1.680 -0.3706  0.7353  0.6275
   19MOL0     H 2531   2.153   7.281   1.591  0.3336 -0.2771  1.0230
   19MOL0     H 2532   2.141   7.462   1.544  0.2679  0.7723 -4.0641
   19MOL0     H 2533   1.946   7.331   1.480 -1.1083 -4.3358 -1.0618
   19MOL0     H 2534   2.040   7.398   1.339  0.4283 -3.2064 -2.5605
   19MOL0     H 2535   2.148   7.190   1.293  1.4365  1.8218  1.6651
   19MOL0     H 2536   1.976   7.169   1.286 -1.0533  2.8816  0.6092
   19MOL0     H 2537   2.164   7.077   1.517  1.1550 -0.0686 -0.8348
   19MOL0     H 2538   1.997   7.093   1.545  0.7864  0.8048  0.4854
   19MOL0     H 2539   2.122   6.931   1.329 -0.3655 -2.0365 -1.1193
   19MOL0     H 2540   1.948   6.950   1.336 -0.0231  1.0134  0.5819
   19MOL0     H 2541   1.959   6.860   1.581 -0.8984  0.4131  0.6086
   19MOL0     H 2542   1.983   6.744   1.451  0.4434 -0.4951  1.4020
   19MOL0     H 2543   2.190   6.875   1.643 -4.1896 -0.0630  0.8256
   19MOL0     H 2544   2.242   6.793   1.491 -0.2007 -2.8237  0.3879
   19MOL0     H 2545   2.060   6.643   1.688  0.8436  0.3702  2.2373
   19MOL0     H 2546   2.231   6.660   1.735 -0.8796  2.5528  0.3720
   19MOL0     H 2547   2.459   7.475   1.314  1.2463 -2.7157 -0.7094
   19MOL0     H 2548   2.664   7.572   1.420 -0.1326 -0.2812  0.2307
   19MOL0     H 2549   2.920   7.427   1.848  2.8605 -0.5936  0.7851
   19MOL0     H 2550   3.145   7.469   1.952  0.0525  0.0945  0.9065
   19MOL0     H 2551   4.482   8.254   2.832 -2.6133  1.5196 -1.9356
   19MOL0     H 2552   4.687   8.363   2.889 -0.2483  1.3482 -0.7003
   19MOL0     H 2553   5.180   8.597   2.511  0.3750 -4.7796 -0.0558
   19MOL0     H 2554   5.371   8.683   2.602 -0.2160 -0.6009 -0.8406
   19MOL0     H 2555   5.394   8.697   3.055 -0.8193 -2.0498 -2.0577
   19MOL0     H 2556   5.546   8.633   2.983  1.2656  1.7382 -0.7775
   19MOL0     H 2557   5.582   8.854   3.118  0.6878 -3.3763 -0.8817
   19MOL0     H 2558   5.470   8.935   3.006 -0.5729 -1.2819  1.2900
   19MOL0     H 2559   5.633   8.983   2.882 -2.2540 -0.2415 -0.1634
   19MOL0     H 2560   5.652   8.811   2.840  0.8912  0.2206  0.7676
   19MOL0     H 2561   5.802   8.789   3.063 -0.9152 -1.4313 -2.7567
   19MOL0     H 2562   5.813   8.967   3.051  2.1699  0.5189 -1.4157
   19MOL0     H 2563   6.077   8.892   2.747 -0.3042 -1.2810  0.0341
   19MOL0     H 2564   5.217   8.632   3.000 -2.0653 -1.6871  0.2413
   19MOL0     H 2565   5.007   8.550   2.901 -1.1827 -1.1959 -2.5052
   20MOL0     O 2566  10.197   4.201   7.338  0.2036 -0.2726 -0.1225
   20MOL0     C 2567  10.292   4.270   7.313  0.4145  0.7302  0.2195
   20MOL0     O 2568  10.288   4.361   7.211  0.3617 -0.4097  0.3529
   20MOL0     C 2569  10.172   4.414   7.162  0.3281  0.4476 -0.9184
   20MOL0     C 2570  10.171   4.433   7.025  0.3448  0.8037  0.1289
   20MOL0     C 2571  10.052   4.484   6.972  0.4256 -0.3191  0.7983
   20MOL0     C 2572   9.941   4.530   7.047 -0.4062  0.4252 -0.1390
   20MOL0     O 2573   9.819   4.577   7.000  0.8558  0.7777  0.0749
   20MOL0     C 2574   9.787   4.555   6.861 -0.6464 -0.4211  0.1322
   20MOL0     C 2575   9.644   4.595   6.835  0.2651  0.9064 -0.3532
   20MOL0     C 2576   9.610   4.575   6.692  0.2411  0.3847  0.6226
   20MOL0     C 2577   9.534   4.440   6.679 -0.8545 -1.1332 -0.4176
   20MOL0     C 2578   9.439   4.434   6.562 -0.0495  0.3398  0.1213
   20MOL0     C 2579   9.298   4.472   6.597  0.4636  0.0007  0.1488
   20MOL0     C 2580   9.193   4.355   6.574  0.0213  0.3342 -0.0292
   20MOL0     C 2581   9.201   4.233   6.676  0.3987  0.4721  1.1084
   20MOL0     N 2582   9.109   4.129   6.636  0.5095  0.0927 -0.3097
   20MOL0     C 2583   9.134   4.015   6.566 -0.3565 -0.3091  1.4915
   20MOL0     C 2584   9.021   3.949   6.561  0.2908 -0.1895 -0.0904
   20MOL0     C 2585   9.006   3.809   6.512  0.3867 -0.7165  0.3643
   20MOL0     C 2586   8.873   3.782   6.435  1.3245  0.2057  0.5087
   20MOL0     C 2587   8.741   3.748   6.518 -0.9227 -0.2169  0.2204
   20MOL0     C 2588   8.635   3.698   6.426 -0.2725  0.0442 -0.8465
   20MOL0     O 2589   8.575   3.799   6.344  0.7886  0.0542 -0.2579
   20MOL0     C 2590   8.445   3.773   6.312 -0.2126  0.0157 -0.5404
   20MOL0     C 2591   8.392   3.648   6.263  0.1274 -0.0431 -0.5506
   20MOL0     C 2592   8.257   3.634   6.231 -0.4613  0.5691  0.6961
   20MOL0     C 2593   8.217   3.507   6.158  0.4488  0.5402 -0.3750
   20MOL0     C 2594   8.159   3.737   6.254 -0.1094 -0.3737 -0.7108
   20MOL0     C 2595   8.012   3.724   6.228  0.4820  0.7547  0.5456
   20MOL0     O 2596   7.945   3.841   6.249 -0.1927 -0.4516 -0.3726
   20MOL0     C 2597   7.812   3.868   6.210  0.1644  0.2816 -0.3944
   20MOL0     C 2598   7.733   3.785   6.133  0.9827 -0.4687  0.7586
   20MOL0     C 2599   7.597   3.813   6.101 -0.4503 -0.2904  0.8098
   20MOL0     C 2600   7.537   3.919   6.165  0.1908 -0.0770 -0.2927
   20MOL0     O 2601   7.404   3.944   6.145 -0.0551  0.2333 -0.1535
   20MOL0     C 2602   7.325   3.837   6.201 -0.3654 -0.4481  0.0217
   20MOL0     C 2603   7.296   3.860   6.348  0.1252  0.4362 -0.1944
   20MOL0     C 2604   7.191   3.755   6.408  0.5274 -0.2579 -0.2748
   20MOL0     C 2605   7.264   3.616   6.432  0.4060  0.1527  0.6349
   20MOL0     C 2606   7.164   3.520   6.497  0.7178 -0.5738 -0.6115
   20MOL0     C 2607   7.218   3.372   6.507  0.1261 -0.3356  0.3297
   20MOL0     C 2608   7.120   3.285   6.590  0.7172 -0.8616 -0.2100
   20MOL0     C 2609   6.971   3.286   6.543 -0.2509 -0.1711 -0.2007
   20MOL0    Cl 2610   6.888   3.154   6.643  0.4856 -0.0829  0.2598
   20MOL0     C 2611   7.610   4.012   6.237 -0.2015  0.6158  0.2663
   20MOL0     C 2612   7.748   3.986   6.251  0.1532 -0.1788  0.0147
   20MOL0     O 2613   7.958   3.613   6.199 -0.5256  0.0432 -0.0256
   20MOL0     C 2614   8.216   3.857   6.295 -0.0707 -0.2869  0.0328
   20MOL0     C 2615   8.353   3.874   6.320  0.2657 -0.4889 -0.9117
   20MOL0     N 2616   8.931   4.018   6.640 -0.3497 -0.1669  0.1255
   20MOL0     N 2617   8.983   4.123   6.687  0.4994 -0.4069  0.0408
   20MOL0     C 2618   9.945   4.512   7.180  0.5719 -0.1823  0.1435
   20MOL0     C 2619  10.062   4.449   7.241  0.9845 -0.0503  0.5458
   20MOL0     C 2620  10.427   4.235   7.345 -0.4880 -0.5549  0.2433
   20MOL0     C 2621  10.539   4.317   7.295  0.2193 -0.3947  0.0912
   20MOL0     C 2622  10.670   4.276   7.332  0.9761  0.3808 -0.3706
   20MOL0     C 2623  10.690   4.166   7.418 -0.8698 -0.2698 -0.5022
   20MOL0     O 2624  10.823   4.153   7.466  0.2840 -0.2380  0.2432
   20MOL0     C 2625  10.853   4.020   7.526  0.4503  0.1184  0.1198
   20MOL0     C 2626  10.997   4.019   7.582 -0.4906 -0.5173  0.3203
   20MOL0     C 2627  11.095   4.056   7.470 -1.0612 -0.2504 -0.0869
   20MOL0     C 2628  11.236   4.062   7.536 -0.4985  0.0893 -0.7058
   20MOL0     C 2629  11.313   3.937   7.523  0.2814  0.5734  0.9045
   20MOL0     C 2630  11.381   3.830   7.514 -0.0438  0.9654 -0.6496
   20MOL0     C 2631  10.582   4.084   7.445 -0.0772  0.3060 -0.0455
   20MOL0     C 2632  10.458   4.113   7.406 -0.6659  0.2647  0.4612
   20MOL0     H 2633  10.258   4.415   6.963 -0.1819  2.7076 -1.2592
   20MOL0     H 2634  10.054   4.503   6.865  0.0913  1.5379  1.0891
   20MOL0     H 2635   9.851   4.617   6.798 -2.4585 -0.2915 -1.6983
   20MOL0     H 2636   9.810   4.454   6.828 -1.9371  0.1610 -2.9542
   20MOL0     H 2637   9.573   4.537   6.894  0.2612  1.8226  0.5702
   20MOL0     H 2638   9.630   4.700   6.863 -3.9800  0.0589  1.4160
   20MOL0     H 2639   9.538   4.656   6.675  1.9180  1.8516  0.1988
   20MOL0     H 2640   9.694   4.579   6.622 -1.3840 -0.0704 -1.4819
   20MOL0     H 2641   9.610   4.362   6.665  0.6747  0.3081 -0.4691
   20MOL0     H 2642   9.476   4.412   6.767 -0.1855  2.8981  1.4953
   20MOL0     H 2643   9.470   4.503   6.483 -0.8680 -0.2667 -0.7491
   20MOL0     H 2644   9.436   4.332   6.524 -1.7101 -0.7104  2.7847
   20MOL0     H 2645   9.289   4.500   6.702  0.1824  0.3583  0.0337
   20MOL0     H 2646   9.274   4.565   6.544 -2.4730 -1.2038 -0.8490
   20MOL0     H 2647   9.098   4.408   6.582 -0.8149 -0.9608 -1.0563
   20MOL0     H 2648   9.193   4.328   6.468  1.7121  2.0534 -0.5394
   20MOL0     H 2649   9.183   4.263   6.779  3.0206  0.7577  1.5632
   20MOL0     H 2650   9.301   4.187   6.669  0.2105  0.2941 -1.2587
   20MOL0     H 2651   9.232   3.971   6.546 -1.0859 -1.1351 -0.6125
   20MOL0     H 2652   9.085   3.784   6.441 -0.7084 -0.8925 -0.8266
   20MOL0     H 2653   9.022   3.737   6.594 -1.5494 -2.6894 -0.8657
   20MOL0     H 2654   8.884   3.698   6.365 -0.6726  1.3513 -1.3038
   20MOL0     H 2655   8.871   3.862   6.360  0.9018  0.2976  0.6185
   20MOL0     H 2656   8.702   3.833   6.575  0.0133  0.4493 -0.1201
   20MOL0     H 2657   8.765   3.678   6.598 -3.9168 -0.3963  1.0835
   20MOL0     H 2658   8.559   3.644   6.483  0.5303 -2.8773 -2.3638
   20MOL0     H 2659   8.685   3.624   6.364 -0.0278  0.8744 -1.6617
   20MOL0     H 2660   8.466   3.570   6.249  0.3312 -0.4696  2.1944
   20MOL0     H 2661   8.305   3.442   6.146  0.4507  0.5533 -0.4341
   20MOL0     H 2662   8.139   3.468   6.224  0.8850  2.8438  1.6300
   20MOL0     H 2663   8.157   3.520   6.067 -0.0849  3.9338  0.3578
   20MOL0     H 2664   7.772   3.691   6.097 -1.6971 -1.2212 -0.4996
   20MOL0     H 2665   7.534   3.753   6.037 -0.9890 -0.5744  1.5864
   20MOL0     H 2666   7.222   3.830   6.165 -0.8140 -0.2835  1.2345
   20MOL0     H 2667   7.373   3.740   6.186 -0.9635 -0.9787  1.4183
   20MOL0     H 2668   7.384   3.866   6.412 -0.4736  1.7293  0.5481
   20MOL0     H 2669   7.246   3.957   6.343 -0.3949  0.1112 -2.1654
   20MOL0     H 2670   7.111   3.734   6.337  1.3984  0.7471 -1.5886
   20MOL0     H 2671   7.137   3.798   6.493  0.1613 -2.9584  0.9502
   20MOL0     H 2672   7.295   3.574   6.336 -1.9363 -1.6325  0.5492
   20MOL0     H 2673   7.360   3.630   6.483  0.3912  1.5886  0.2894
   20MOL0     H 2674   7.071   3.524   6.439 -1.5190 -1.6932  2.6213
   20MOL0     H 2675   7.133   3.548   6.598 -0.7791 -1.8015 -0.6898
   20MOL0     H 2676   7.233   3.328   6.408  0.0052 -1.6832  0.8882
   20MOL0     H 2677   7.311   3.382   6.562 -0.6823 -0.0882  1.6898
   20MOL0     H 2678   7.128   3.318   6.694 -0.3997  0.4336 -0.5164
   20MOL0     H 2679   7.163   3.184   6.597  4.5758  0.7443  3.3951
   20MOL0     H 2680   6.975   3.264   6.436  1.1038 -1.0375  0.0044
   20MOL0     H 2681   6.921   3.381   6.561 -0.7531  0.0052 -2.2912
   20MOL0     H 2682   7.569   4.099   6.288 -1.9101 -0.0235  0.0438
   20MOL0     H 2683   7.800   4.047   6.325 -3.0277  1.0924  1.3601
   20MOL0     H 2684   8.158   3.947   6.312  1.8952  1.0836 -0.1889
   20MOL0     H 2685   8.389   3.974   6.339 -0.8443  0.5053 -3.5232
   20MOL0     H 2686   9.856   4.535   7.239  0.8296 -0.4658  0.6507
   20MOL0     H 2687  10.055   4.436   7.349  0.0282  1.5847  0.7245
   20MOL0     H 2688  10.534   4.415   7.249 -0.3816  0.1724  1.3191
   20MOL0     H 2689  10.759   4.331   7.304  0.3878  0.9471 -1.1506
   20MOL0     H 2690  10.795   3.998   7.616 -0.5145 -2.4632 -1.0270
   20MOL0     H 2691  10.827   3.937   7.460 -0.5640  0.8131 -0.3666
   20MOL0     H 2692  11.020   3.920   7.622  1.3675  0.1698  1.0702
   20MOL0     H 2693  11.007   4.089   7.665 -0.2134  1.0689 -0.9900
   20MOL0     H 2694  11.063   4.155   7.434  0.8844  1.1444  1.7655
   20MOL0     H 2695  11.094   3.982   7.390  1.4659 -0.6104  0.1103
   20MOL0     H 2696  11.237   4.075   7.645  0.7745 -3.1408 -0.2219
   20MOL0     H 2697  11.290   4.146   7.491  1.6422 -0.7678  0.1242
   20MOL0     H 2698  11.433   3.737   7.515 -1.3851  0.1245  2.0562
   20MOL0     H 2699  10.591   4.007   7.521 -1.8292  1.5741  1.5783
   20MOL0     H 2700  10.386   4.037   7.438  1.2420 -0.3029  3.8844
   21MOL0     O 2701   5.387   3.801   7.167  0.2102 -0.2776  0.5238
   21MOL0     C 2702   5.475   3.765   7.083  0.4589  0.2384  0.8605
   21MOL0     O 2703   5.457   3.682   6.979  0.9349 -0.2551 -0.0046
   21MOL0     C 2704   5.326   3.625   6.967 -0.6460 -0.4061  0.9100
   21MOL0     C 2705   5.269   3.626   6.844  0.0158  0.2044  0.8266
   21MOL0     C 2706   5.141   3.571   6.815  0.2472  0.7967 -0.2064
   21MOL0     C 2707   5.069   3.507   6.915 -0.0947  0.7354  0.1069
   21MOL0     O 2708   4.955   3.437   6.891  0.5957 -0.5229 -0.4102
   21MOL0     C 2709   4.959   3.353   6.772  0.0825  0.3460  0.4399
   21MOL0     C 2710   4.863   3.239   6.770 -0.2714 -0.0531 -0.2884
   21MOL0     C 2711   4.729   3.259   6.837 -0.4471 -0.0243 -0.7696
   21MOL0     C 2712   4.623   3.146   6.808  0.0669 -0.1569 -0.1283
   21MOL0     C 2713   4.476   3.190   6.827 -0.3969 -0.2707 -0.1359
   21MOL0     C 2714   4.377   3.074   6.815 -0.0245  0.0754 -0.1093
   21MOL0     C 2715   4.234   3.121   6.809 -0.3079 -0.1759  0.2227
   21MOL0     C 2716   4.185   3.212   6.919 -0.0945 -0.1321 -1.2084
   21MOL0     N 2717   4.039   3.232   6.937 -0.2670  0.0157 -0.7667
   21MOL0     C 2718   3.978   3.246   7.058 -0.5887 -1.0781  0.1198
   21MOL0     C 2719   3.845   3.238   7.028 -0.2797 -0.0529  0.2351
   21MOL0     C 2720   3.734   3.274   7.132 -0.1204 -0.2748  0.2410
   21MOL0     C 2721   3.630   3.159   7.135  0.2307  0.7232 -0.5005
   21MOL0     C 2722   3.531   3.163   7.248  0.5429 -0.5062 -0.0190
   21MOL0     C 2723   3.480   3.296   7.305 -0.8177 -0.1048 -1.3190
   21MOL0     O 2724   3.359   3.294   7.372 -0.1203 -0.2086 -0.0595
   21MOL0     C 2725   3.246   3.348   7.307 -0.5458 -0.0870  0.2440
   21MOL0     C 2726   3.171   3.425   7.389  0.9798 -0.3560  0.9014
   21MOL0     C 2727   3.054   3.492   7.338  0.0572  0.1199  0.0859
   21MOL0     C 2728   2.976   3.583   7.423  0.7084  0.3069 -0.6859
   21MOL0     C 2729   3.012   3.467   7.201  0.5750  0.3162 -0.2033
   21MOL0     C 2730   2.893   3.522   7.136  0.3558 -0.6552  0.5265
   21MOL0     O 2731   2.836   3.434   7.043 -0.0793 -0.1133  0.1258
   21MOL0     C 2732   2.720   3.479   6.984  0.0661 -0.0369  0.0142
   21MOL0     C 2733   2.720   3.481   6.839  0.2890 -0.0931  0.8072
   21MOL0     C 2734   2.598   3.531   6.779 -0.6895 -0.1439 -0.8175
   21MOL0     C 2735   2.493   3.590   6.850  0.3370  0.4406 -1.1077
   21MOL0     O 2736   2.391   3.640   6.782  0.6801 -0.4585 -0.5384
   21MOL0     C 2737   2.267   3.685   6.845 -0.1073  0.0198 -0.1616
   21MOL0     C 2738   2.184   3.778   6.756  0.2613  0.5166  0.4801
   21MOL0     C 2739   2.063   3.827   6.833 -0.5125  0.0672 -0.0655
   21MOL0     C 2740   2.086   3.959   6.912  0.9438  0.1388 -0.3014
   21MOL0     C 2741   1.958   4.011   6.977  0.6697  0.2570  0.0048
   21MOL0     C 2742   1.879   4.102   6.887  0.0044 -0.5144  0.2898
   21MOL0     C 2743   1.762   4.159   6.959 -0.0846 -0.7470 -0.8008
   21MOL0     C 2744   1.701   4.283   6.883  0.3950 -0.0635  0.7663
   21MOL0    Cl 2745   1.607   4.223   6.747 -0.1131  0.3701  0.0631
   21MOL0     C 2746   2.501   3.588   6.995  0.0682  0.0706 -1.0195
   21MOL0     C 2747   2.613   3.527   7.056 -0.0981  0.2492  0.2347
   21MOL0     O 2748   2.858   3.642   7.151  0.0557  0.1981  0.8924
   21MOL0     C 2749   3.085   3.373   7.129  0.3655  0.1668  0.8927
   21MOL0     C 2750   3.202   3.322   7.174 -0.8567  0.6958 -0.2014
   21MOL0     N 2751   3.834   3.207   6.894  0.0752 -0.6190  0.0008
   21MOL0     N 2752   3.949   3.204   6.839  0.7438 -0.1397  0.7410
   21MOL0     C 2753   5.117   3.521   7.042 -0.0426 -0.4476 -0.8080
   21MOL0     C 2754   5.249   3.557   7.068  0.0749  0.5784 -0.2960
   21MOL0     C 2755   5.610   3.768   7.123 -0.4250  0.3145 -0.2201
   21MOL0     C 2756   5.663   3.859   7.220  0.1872 -0.2952  0.5847
   21MOL0     C 2757   5.806   3.858   7.240  0.2631  0.0045 -0.3238
   21MOL0     C 2758   5.886   3.760   7.190 -0.1008  0.1265 -0.9636
   21MOL0     O 2759   6.017   3.740   7.223 -0.1806 -0.7462 -0.3156
   21MOL0     C 2760   6.065   3.824   7.336  0.1528  0.5612  0.2073
   21MOL0     C 2761   6.107   3.964   7.286 -0.7172 -0.0545 -0.2751
   21MOL0     C 2762   6.209   4.039   7.384 -0.3864 -1.0036  0.0526
   21MOL0     C 2763   6.254   4.173   7.326  0.6138 -0.5943 -0.0518
   21MOL0     C 2764   6.144   4.247   7.267 -0.4656 -0.7585  0.6908
   21MOL0     C 2765   6.056   4.314   7.210 -0.2362  0.0713 -0.1212
   21MOL0     C 2766   5.826   3.658   7.118 -0.3867  0.3124 -0.2740
   21MOL0     C 2767   5.694   3.667   7.079  0.8053 -0.7534 -0.1146
   21MOL0     H 2768   5.319   3.675   6.762  3.1925 -2.4571  0.9956
   21MOL0     H 2769   5.105   3.574   6.713  0.3866  3.0662 -0.2435
   21MOL0     H 2770   4.939   3.416   6.685 -0.7231  1.0902  1.1547
   21MOL0     H 2771   5.053   3.300   6.751 -0.4960  0.5470 -3.3371
   21MOL0     H 2772   4.856   3.214   6.663 -0.6448  2.1062 -0.8380
   21MOL0     H 2773   4.909   3.154   6.821 -1.4594 -0.5023  0.0652
   21MOL0     H 2774   4.744   3.270   6.945 -3.2694 -4.4290  0.3105
   21MOL0     H 2775   4.685   3.356   6.811  0.9355  0.7115 -0.4573
   21MOL0     H 2776   4.637   3.113   6.704 -0.0454 -1.6908  0.3179
   21MOL0     H 2777   4.653   3.062   6.872  1.8556 -1.1331 -2.1249
   21MOL0     H 2778   4.466   3.222   6.932  0.9013  0.4376 -0.2047
   21MOL0     H 2779   4.453   3.277   6.766 -0.2558  1.6205  2.3230
   21MOL0     H 2780   4.389   3.020   6.721 -0.4795 -0.2267  0.0074
   21MOL0     H 2781   4.398   3.007   6.899  0.3525 -2.0655 -1.8301
   21MOL0     H 2782   4.214   3.174   6.715 -0.0496 -0.2231  0.1417
   21MOL0     H 2783   4.167   3.035   6.801  0.0453 -0.3121 -1.9231
   21MOL0     H 2784   4.222   3.313   6.902  0.8600 -0.1835  0.3593
   21MOL0     H 2785   4.229   3.167   7.009 -3.0537 -0.3249  0.2599
   21MOL0     H 2786   4.023   3.293   7.144  0.2105  1.1459 -1.4372
   21MOL0     H 2787   3.785   3.271   7.229 -0.3062  0.4648  0.3697
   21MOL0     H 2788   3.694   3.375   7.117  1.1387  0.1981 -0.0846
   21MOL0     H 2789   3.681   3.063   7.131 -1.5223 -0.2238 -1.4551
   21MOL0     H 2790   3.571   3.157   7.042 -1.2339 -0.4808  0.4138
   21MOL0     H 2791   3.571   3.109   7.334  0.8120 -1.3325 -0.6531
   21MOL0     H 2792   3.442   3.118   7.205  0.2455  1.8904 -2.1182
   21MOL0     H 2793   3.468   3.370   7.225 -0.3942  0.6742 -0.6781
   21MOL0     H 2794   3.563   3.345   7.358  0.7995 -2.4369 -1.5084
   21MOL0     H 2795   3.187   3.440   7.496  1.5770 -1.6516  1.0138
   21MOL0     H 2796   3.011   3.584   7.527 -0.4347  1.2723 -0.2967
   21MOL0     H 2797   2.984   3.686   7.386  1.9482 -0.1915 -1.9515
   21MOL0     H 2798   2.874   3.546   7.433  0.5200  1.2225  1.1475
   21MOL0     H 2799   2.802   3.452   6.774  1.8425  0.6894  2.3409
   21MOL0     H 2800   2.594   3.528   6.671 -1.7259  0.5014 -0.8047
   21MOL0     H 2801   2.209   3.597   6.874 -1.4455  1.1877  0.9061
   21MOL0     H 2802   2.295   3.749   6.930  0.6373  0.0590 -0.4286
   21MOL0     H 2803   2.251   3.859   6.725 -1.0715  2.1017  1.6101
   21MOL0     H 2804   2.143   3.731   6.666  0.1862 -1.6437  1.5567
   21MOL0     H 2805   2.037   3.749   6.904  3.8933  1.0451  3.0744
   21MOL0     H 2806   1.980   3.838   6.762 -2.3407  0.9198  2.0752
   21MOL0     H 2807   2.151   3.948   6.999  0.3767  2.4797  0.4773
   21MOL0     H 2808   2.131   4.019   6.833  3.3512  0.0431  0.8952
   21MOL0     H 2809   1.989   4.072   7.062  1.4622  0.1373 -0.1858
   21MOL0     H 2810   1.888   3.933   7.006 -0.7075  0.3963 -2.6521
   21MOL0     H 2811   1.940   4.186   6.851 -0.8870 -1.0620 -2.7841
   21MOL0     H 2812   1.845   4.052   6.796 -2.0461  0.5845  0.3996
   21MOL0     H 2813   1.797   4.186   7.059 -4.1485  1.0195  0.3941
   21MOL0     H 2814   1.687   4.083   6.982 -2.1915  2.3220  4.3341
   21MOL0     H 2815   1.776   4.353   6.844  0.2728  0.1214  0.8624
   21MOL0     H 2816   1.631   4.333   6.950 -0.0826 -1.2221  1.1509
   21MOL0     H 2817   2.432   3.640   7.061  1.7947 -2.1072  2.8711
   21MOL0     H 2818   2.615   3.519   7.164 -2.2621 -2.6564  0.1850
   21MOL0     H 2819   3.073   3.331   7.030 -1.3760 -2.0569  1.9558
   21MOL0     H 2820   3.262   3.252   7.118 -0.6249  0.8398 -0.1373
   21MOL0     H 2821   5.060   3.498   7.132  0.1952 -0.2258 -0.5994
   21MOL0     H 2822   5.295   3.546   7.165  1.3098 -0.5308 -0.9715
   21MOL0     H 2823   5.595   3.935   7.258 -0.9938 -0.0915 -1.7237
   21MOL0     H 2824   5.852   3.935   7.301  1.1514 -1.2923  0.7073
   21MOL0     H 2825   5.997   3.826   7.421 -2.1073  1.8681 -1.5289
   21MOL0     H 2826   6.153   3.768   7.369 -0.3448  0.0147  0.6209
   21MOL0     H 2827   6.019   4.021   7.254 -0.4633  0.0176 -0.8568
   21MOL0     H 2828   6.161   3.953   7.191 -2.6141  0.9790 -1.5333
   21MOL0     H 2829   6.298   3.977   7.397  0.1247 -1.0165 -2.8180
   21MOL0     H 2830   6.154   4.047   7.478 -2.4807 -2.2285 -0.9995
   21MOL0     H 2831   6.339   4.144   7.264  0.4656 -1.6714  0.2271
   21MOL0     H 2832   6.289   4.242   7.403 -2.4548 -0.9385  1.8205
   21MOL0     H 2833   5.986   4.384   7.169 -0.8508  1.3788  2.8943
   21MOL0     H 2834   5.893   3.577   7.090  1.4020  1.0221  1.6845
   21MOL0     H 2835   5.656   3.581   7.024 -0.3681 -1.8883  2.2963
   22MOL0     O 2836   1.858   5.350   5.862 -0.0978  0.2418  0.5798
   22MOL0     C 2837   1.872   5.247   5.801  2.4464  1.7348 -0.1082
   22MOL0     O 2838   1.988   5.206   5.744 -0.2437  0.8794  0.2640
   22MOL0     C 2839   2.087   5.290   5.704 -0.3444 -0.0493 -0.0574
   22MOL0     C 2840   2.211   5.238   5.683 -1.3539 -0.2888 -1.0142
   22MOL0     C 2841   2.310   5.312   5.623  0.6934  0.4383  1.0016
   22MOL0     C 2842   2.289   5.450   5.588 -0.1808  0.0167 -0.0317
   22MOL0     O 2843   2.388   5.519   5.523 -0.3431 -0.4602  0.5082
   22MOL0     C 2844   2.351   5.642   5.468  0.4345 -0.7393  0.2000
   22MOL0     C 2845   2.471   5.695   5.379 -0.1128  0.1058 -0.3353
   22MOL0     C 2846   2.452   5.641   5.234  0.6413  0.3190 -1.3939
   22MOL0     C 2847   2.545   5.708   5.143 -0.4762 -0.6923  0.6762
   22MOL0     C 2848   2.506   5.844   5.092 -0.1710 -0.1768 -0.6903
   22MOL0     C 2849   2.381   5.831   5.007  0.0436  0.5498 -0.5143
   22MOL0     C 2850   2.395   5.880   4.862  0.3222  0.2659  0.5644
   22MOL0     C 2851   2.368   6.028   4.846 -0.4174 -0.6504  0.1810
   22MOL0     N 2852   2.252   6.075   4.911  0.5433  0.4977 -0.2357
   22MOL0     C 2853   2.117   6.045   4.878 -0.3850  0.6373  0.0154
   22MOL0     C 2854   2.046   6.089   4.985 -0.0897 -0.6773  0.0466
   22MOL0     C 2855   1.893   6.094   5.016 -0.3156  0.4894 -0.1072
   22MOL0     C 2856   1.851   6.093   5.162 -0.5174 -1.3194 -1.1075
   22MOL0     C 2857   1.706   6.147   5.187  0.2111 -0.3241  0.7408
   22MOL0     C 2858   1.653   6.146   5.326 -0.8259  1.1524 -0.4263
   22MOL0     O 2859   1.612   6.005   5.356  0.5716  0.7388  0.3207
   22MOL0     C 2860   1.479   5.985   5.364 -0.4819 -0.4925 -0.5885
   22MOL0     C 2861   1.422   5.898   5.276 -0.3150 -0.5089 -0.1026
   22MOL0     C 2862   1.280   5.869   5.274  0.1754 -0.1998 -0.9738
   22MOL0     C 2863   1.234   5.775   5.175  0.0827  0.5970 -0.3995
   22MOL0     C 2864   1.195   5.943   5.358  0.3777  0.2610  0.2103
   22MOL0     C 2865   1.058   5.909   5.387 -0.4282  0.3318 -0.2815
   22MOL0     O 2866   1.023   5.923   5.516 -0.1977 -0.4799 -0.1021
   22MOL0     C 2867   0.902   5.877   5.559  0.6113  1.6792 -0.0817
   22MOL0     C 2868   0.800   5.963   5.599 -0.8913 -0.6217 -0.4973
   22MOL0     C 2869   0.687   5.914   5.656 -0.3345 -0.1113 -0.9020
   22MOL0     C 2870   0.682   5.784   5.699 -0.7803 -0.2800 -1.4280
   22MOL0     O 2871   0.569   5.745   5.762  0.9349  0.6233  0.7523
   22MOL0     C 2872   0.525   5.605   5.754  0.1404  0.1522  0.6405
   22MOL0     C 2873   0.386   5.599   5.815 -0.0894  0.2718 -0.1902
   22MOL0     C 2874   0.279   5.638   5.717  0.0335  0.2138  0.5997
   22MOL0     C 2875   0.141   5.616   5.788 -0.4989 -0.2976  0.4470
   22MOL0     C 2876   0.018   5.638   5.697 -0.0116  0.0882  0.5381
   22MOL0     C 2877  -0.113   5.607   5.764  0.2899  0.2201  0.6362
   22MOL0     C 2878  -0.233   5.606   5.665 -0.2944 -0.3331 -0.1413
   22MOL0     C 2879  -0.248   5.753   5.613  0.2692 -0.6312  0.5494
   22MOL0    Cl 2880  -0.384   5.735   5.500  0.0153  0.4537 -0.0523
   22MOL0     C 2881   0.789   5.697   5.668 -0.2511 -1.1131  0.1103
   22MOL0     C 2882   0.892   5.740   5.591 -0.3826  0.5527  0.6324
   22MOL0     O 2883   0.981   5.884   5.289 -0.8387 -0.7843 -0.1175
   22MOL0     C 2884   1.252   6.044   5.442 -0.8112  0.6220  0.0852
   22MOL0     C 2885   1.394   6.062   5.434 -0.5067  0.2933  0.0735
   22MOL0     N 2886   2.132   6.174   5.066 -0.3520  0.0449  0.1940
   22MOL0     N 2887   2.255   6.162   5.021 -0.5440  0.1403 -0.0203
   22MOL0     C 2888   2.167   5.508   5.628 -0.8294 -0.7924 -0.6787
   22MOL0     C 2889   2.072   5.421   5.683  0.0347 -0.3377  0.2331
   22MOL0     C 2890   1.758   5.144   5.813 -0.1495  0.6006  0.5258
   22MOL0     C 2891   1.636   5.178   5.878  0.4643  0.9067  0.9647
   22MOL0     C 2892   1.529   5.082   5.883 -0.1790  0.5094 -0.6191
   22MOL0     C 2893   1.534   4.955   5.828  0.6897 -0.2892 -0.2156
   22MOL0     O 2894   1.418   4.885   5.838 -0.5455 -0.2104 -0.5492
   22MOL0     C 2895   1.411   4.743   5.802 -0.3210 -0.3111 -0.2901
   22MOL0     C 2896   1.270   4.711   5.813 -0.9439  0.3099 -0.1611
   22MOL0     C 2897   1.249   4.685   5.961 -0.1034  0.3817  0.2657
   22MOL0     C 2898   1.100   4.666   5.998  1.3638 -0.5901  0.6583
   22MOL0     C 2899   1.043   4.548   5.939  0.1953  0.0603 -0.1703
   22MOL0     C 2900   0.983   4.447   5.899 -0.6574 -0.4348 -0.3113
   22MOL0     C 2901   1.651   4.926   5.776 -0.3473 -0.5227  0.2075
   22MOL0     C 2902   1.755   5.018   5.755  0.0152 -0.7305 -0.3398
   22MOL0     H 2903   2.234   5.136   5.715 -1.6695  0.1746  0.7787
   22MOL0     H 2904   2.403   5.261   5.600  0.2994  0.0596  0.2049
   22MOL0     H 2905   2.258   5.639   5.410  0.3695  2.8998 -0.1277
   22MOL0     H 2906   2.337   5.715   5.548 -0.9607  0.4443 -1.0616
   22MOL0     H 2907   2.485   5.803   5.388  3.1505 -0.1928 -0.6745
   22MOL0     H 2908   2.564   5.648   5.413 -0.7668 -2.1310 -1.4426
   22MOL0     H 2909   2.472   5.534   5.230 -1.1986 -0.0422 -2.3855
   22MOL0     H 2910   2.348   5.663   5.207  0.6828 -0.2339 -2.0229
   22MOL0     H 2911   2.633   5.720   5.208 -0.5869 -0.5247  0.7939
   22MOL0     H 2912   2.566   5.656   5.049  1.9210  2.3805 -0.6839
   22MOL0     H 2913   2.490   5.914   5.175  0.8553 -1.4050  0.5981
   22MOL0     H 2914   2.587   5.882   5.029  1.0154 -0.0415  0.8570
   22MOL0     H 2915   2.346   5.728   5.001 -0.5304  0.7433 -0.5189
   22MOL0     H 2916   2.304   5.886   5.063 -2.6236 -3.8567  0.5800
   22MOL0     H 2917   2.494   5.853   4.823 -1.4444 -0.5809 -4.0172
   22MOL0     H 2918   2.311   5.837   4.806 -1.1954  5.3249 -1.6391
   22MOL0     H 2919   2.360   6.053   4.740 -0.3460  2.9248  0.8695
   22MOL0     H 2920   2.454   6.082   4.886  1.9638 -2.7939 -1.7499
   22MOL0     H 2921   2.080   5.983   4.797  2.3946 -1.1574  0.0013
   22MOL0     H 2922   1.857   6.187   4.972  1.8272  1.8622  0.8644
   22MOL0     H 2923   1.837   6.015   4.966 -0.2131  1.3701 -1.6704
   22MOL0     H 2924   1.919   6.155   5.221 -0.2315 -0.8896 -1.8736
   22MOL0     H 2925   1.847   5.996   5.212  2.4025 -0.6439  0.6863
   22MOL0     H 2926   1.635   6.096   5.121  0.1791  2.7158 -1.7983
   22MOL0     H 2927   1.714   6.250   5.153 -2.2304 -0.0954  0.7044
   22MOL0     H 2928   1.568   6.214   5.323 -2.1917 -0.5042 -3.3739
   22MOL0     H 2929   1.734   6.186   5.387 -0.3243  1.0441 -1.0075
   22MOL0     H 2930   1.480   5.833   5.211  0.8832 -0.2670  0.6904
   22MOL0     H 2931   1.203   5.678   5.214  4.9954 -0.7159  0.8637
   22MOL0     H 2932   1.149   5.822   5.125  0.7029 -0.0096 -2.1106
   22MOL0     H 2933   1.309   5.767   5.095  0.9307  0.4986  0.3960
   22MOL0     H 2934   0.814   6.068   5.623  0.8909 -1.3501  2.0034
   22MOL0     H 2935   0.597   5.970   5.677 -0.8446 -0.6173 -1.7015
   22MOL0     H 2936   0.506   5.577   5.650 -3.1859 -1.4585  1.5414
   22MOL0     H 2937   0.598   5.540   5.804  2.3125  0.8371 -1.4280
   22MOL0     H 2938   0.357   5.501   5.854  0.6828  0.6533  1.4448
   22MOL0     H 2939   0.380   5.661   5.905 -1.3165  0.6901 -0.5433
   22MOL0     H 2940   0.279   5.571   5.631 -0.2731 -3.2983  3.1114
   22MOL0     H 2941   0.304   5.740   5.687  0.9546 -0.1372  0.1500
   22MOL0     H 2942   0.140   5.512   5.822 -1.4366 -1.3323 -2.4753
   22MOL0     H 2943   0.133   5.679   5.877 -2.7085 -0.2271  0.2596
   22MOL0     H 2944   0.025   5.578   5.606 -2.0286  0.3697  0.1471
   22MOL0     H 2945   0.020   5.743   5.666 -0.0390 -0.2030 -0.4727
   22MOL0     H 2946  -0.104   5.505   5.801  2.6708  0.4775  0.9120
   22MOL0     H 2947  -0.131   5.673   5.849 -0.8798  2.8546 -1.4986
   22MOL0     H 2948  -0.326   5.581   5.716 -0.2604 -0.1747 -0.0010
   22MOL0     H 2949  -0.213   5.529   5.590  1.4607 -2.9151  2.7376
   22MOL0     H 2950  -0.161   5.802   5.567 -1.3007  0.2125 -1.6808
   22MOL0     H 2951  -0.270   5.812   5.702 -2.8767 -0.7062 -0.0684
   22MOL0     H 2952   0.797   5.595   5.704  1.5366 -1.1673 -0.3834
   22MOL0     H 2953   0.963   5.666   5.557 -0.4753 -0.2316  2.0992
   22MOL0     H 2954   1.196   6.098   5.517 -1.1934  1.6307 -0.9017
   22MOL0     H 2955   1.435   6.133   5.505 -0.1894  1.2406 -1.0258
   22MOL0     H 2956   2.152   5.616   5.619 -0.7076 -0.7046  0.1256
   22MOL0     H 2957   1.976   5.468   5.698  0.7502  0.5787  2.1578
   22MOL0     H 2958   1.622   5.275   5.925  1.9439  0.4996  2.3715
   22MOL0     H 2959   1.432   5.110   5.924 -0.3406  0.0330 -0.6672
   22MOL0     H 2960   1.453   4.738   5.701  0.8131 -1.4112  0.2069
   22MOL0     H 2961   1.482   4.693   5.869 -2.0994 -0.4651  1.5568
   22MOL0     H 2962   1.248   4.617   5.760 -0.1854 -2.7658  4.3694
   22MOL0     H 2963   1.217   4.795   5.766 -1.3341 -0.7035 -1.6173
   22MOL0     H 2964   1.296   4.764   6.021 -1.1713 -0.1201  1.8071
   22MOL0     H 2965   1.298   4.590   5.982 -1.7672 -0.5019  0.3337
   22MOL0     H 2966   1.045   4.752   5.960 -2.2274 -2.4620  1.2133
   22MOL0     H 2967   1.077   4.662   6.105 -1.8803 -1.7634  0.0276
   22MOL0     H 2968   0.929   4.359   5.872  0.4486 -0.7619 -1.5459
   22MOL0     H 2969   1.666   4.823   5.745  0.2491 -0.5571  0.5985
   22MOL0     H 2970   1.837   4.975   5.698 -0.9218  0.1498 -2.5015
   23MOL0     O 2971   2.189   9.014   5.775 -0.3840 -0.7102 -0.0279
   23MOL0     C 2972   2.167   8.935   5.863 -0.7599  0.7605 -0.0752
   23MOL0     O 2973   2.042   8.890   5.905  0.1847 -0.4247 -0.0400
   23MOL0     C 2974   1.931   8.911   5.815 -0.3111  0.1424 -0.4129
   23MOL0     C 2975   1.808   8.966   5.865 -0.7317  0.6147 -0.1410
   23MOL0     C 2976   1.701   8.978   5.782 -0.2651  0.4276 -0.5289
   23MOL0     C 2977   1.699   8.932   5.656  0.0304  0.4728 -0.1707
   23MOL0     O 2978   1.577   8.957   5.585  0.0145  0.3723 -0.4054
   23MOL0     C 2979   1.557   8.901   5.459 -0.2221 -0.0035  0.3671
   23MOL0     C 2980   1.456   8.976   5.378 -0.8043 -0.4553  0.2571
   23MOL0     C 2981   1.314   8.985   5.421 -1.1516  0.5917 -0.2735
   23MOL0     C 2982   1.240   8.860   5.476 -0.0297 -0.0488  0.0755
   23MOL0     C 2983   1.094   8.903   5.494  0.0355  0.6252  0.4107
   23MOL0     C 2984   1.016   8.781   5.538 -0.2245  0.8096 -0.0454
   23MOL0     C 2985   0.866   8.809   5.538  0.2462 -0.8543 -0.2472
   23MOL0     C 2986   0.797   8.702   5.617  0.9820  0.4316 -0.1197
   23MOL0     N 2987   0.648   8.713   5.603 -0.1227 -0.3839 -0.2121
   23MOL0     C 2988   0.572   8.683   5.495 -0.2891  0.8101  0.5856
   23MOL0     C 2989   0.455   8.732   5.524  0.4644 -0.0334  0.2694
   23MOL0     C 2990   0.328   8.746   5.437  0.7133  0.4759  0.1284
   23MOL0     C 2991   0.227   8.644   5.473  0.9100 -0.1464  0.2577
   23MOL0     C 2992   0.131   8.685   5.578  0.8042  0.3174 -0.7097
   23MOL0     C 2993   0.044   8.810   5.543  0.6827  0.3354  0.5864
   23MOL0     O 2994  -0.078   8.797   5.612 -0.0433 -0.4849  0.4139
   23MOL0     C 2995  -0.189   8.788   5.536  0.3897 -0.3449  0.1857
   23MOL0     C 2996  -0.295   8.866   5.570 -0.2814  0.0343 -0.2886
   23MOL0     C 2997  -0.420   8.844   5.515  1.1855  0.6274  0.8060
   23MOL0     C 2998  -0.534   8.942   5.535 -0.7028  0.5153 -0.0440
   23MOL0     C 2999  -0.429   8.738   5.423  0.3499 -0.4405 -0.4909
   23MOL0     C 3000  -0.552   8.708   5.345  0.7586 -0.0335 -0.0379
   23MOL0     O 3001  -0.667   8.722   5.415 -0.1142  0.9736 -0.2705
   23MOL0     C 3002  -0.779   8.723   5.344  0.4844  0.3054 -0.4891
   23MOL0     C 3003  -0.847   8.850   5.310 -0.8474 -0.9716 -0.2641
   23MOL0     C 3004  -0.965   8.840   5.240  0.9444 -0.0361 -0.7656
   23MOL0     C 3005  -1.013   8.716   5.196 -0.1835 -0.8364 -0.3144
   23MOL0     O 3006  -1.104   8.716   5.094  0.8172 -0.3718  0.2505
   23MOL0     C 3007  -1.196   8.825   5.089  1.3594  1.4272  0.0987
   23MOL0     C 3008  -1.331   8.783   5.021 -0.2860  0.2773 -0.0473
   23MOL0     C 3009  -1.313   8.733   4.871  0.6633  0.1550  0.4799
   23MOL0     C 3010  -1.451   8.733   4.808  0.5236  0.3309 -0.1999
   23MOL0     C 3011  -1.449   8.671   4.668  0.1693 -0.4443 -1.3593
   23MOL0     C 3012  -1.592   8.687   4.618  0.6804  0.2679 -0.3130
   23MOL0     C 3013  -1.581   8.660   4.467  0.6875  0.2798  0.9587
   23MOL0     C 3014  -1.706   8.717   4.401  0.0691 -0.0359  0.4906
   23MOL0    Cl 3015  -1.850   8.638   4.455  0.2238 -0.2471  0.3236
   23MOL0     C 3016  -0.959   8.600   5.235 -0.1636  0.3177 -0.4882
   23MOL0     C 3017  -0.839   8.603   5.306 -0.3037 -0.8047 -0.8626
   23MOL0     O 3018  -0.547   8.679   5.225 -0.2690  0.1942  0.4463
   23MOL0     C 3019  -0.322   8.667   5.384 -0.6232  0.1943 -0.9180
   23MOL0     C 3020  -0.194   8.683   5.445 -0.8866 -0.9281  1.3517
   23MOL0     N 3021   0.457   8.792   5.655 -0.7052  0.0043 -0.4389
   23MOL0     N 3022   0.583   8.785   5.687 -0.4005  0.5582 -0.0004
   23MOL0     C 3023   1.814   8.867   5.609 -0.9822  0.0185 -0.6869
   23MOL0     C 3024   1.928   8.865   5.682 -0.0066  2.0781  0.4010
   23MOL0     C 3025   2.284   8.881   5.935  0.3413 -0.6307 -0.4411
   23MOL0     C 3026   2.266   8.794   6.046  0.4257  0.6687 -0.6336
   23MOL0     C 3027   2.377   8.745   6.116 -0.4718 -0.5766  0.8473
   23MOL0     C 3028   2.504   8.772   6.073  0.5110  1.3322 -0.8296
   23MOL0     O 3029   2.607   8.701   6.137  0.5571 -0.8168  0.0804
   23MOL0     C 3030   2.734   8.694   6.076  0.4599  0.4480  0.5228
   23MOL0     C 3031   2.808   8.590   6.158 -0.7758  0.4646 -0.3646
   23MOL0     C 3032   2.930   8.532   6.097  0.0708 -0.7991 -0.2457
   23MOL0     C 3033   2.997   8.430   6.187 -0.4895 -0.8241 -0.0981
   23MOL0     C 3034   3.146   8.441   6.187 -0.1649 -0.2198 -0.1684
   23MOL0     C 3035   3.266   8.434   6.192  0.1436  0.2650  0.8337
   23MOL0     C 3036   2.522   8.861   5.965 -1.0404  0.4919 -0.9646
   23MOL0     C 3037   2.412   8.909   5.894  0.0433  0.8919 -0.3473
   23MOL0     H 3038   1.794   8.999   5.968 -1.2949 -2.7768  1.0097
   23MOL0     H 3039   1.611   9.035   5.805  0.6877  2.0599 -0.7148
   23MOL0     H 3040   1.648   8.903   5.398 -0.6879 -1.7758 -0.4527
   23MOL0     H 3041   1.513   8.801   5.468 -1.0408  0.1485 -1.5246
   23MOL0     H 3042   1.499   9.076   5.368  0.7677 -1.2425 -1.6077
   23MOL0     H 3043   1.445   8.928   5.280 -0.8008  0.1010 -0.0236
   23MOL0     H 3044   1.302   9.066   5.494 -0.0994 -1.3208  2.1814
   23MOL0     H 3045   1.256   9.016   5.333 -2.2438 -0.4063  0.0621
   23MOL0     H 3046   1.251   8.783   5.399 -0.9615  2.4058 -2.7455
   23MOL0     H 3047   1.271   8.831   5.576  0.9686 -0.0681 -0.2238
   23MOL0     H 3048   1.092   8.983   5.569  2.1388 -3.0715  4.8942
   23MOL0     H 3049   1.051   8.940   5.401  0.6227  0.7806  0.1991
   23MOL0     H 3050   1.036   8.693   5.477  1.0107  1.3755 -0.4874
   23MOL0     H 3051   1.049   8.765   5.642 -0.5516 -0.3027 -0.1007
   23MOL0     H 3052   0.827   8.903   5.578 -3.4580 -2.2354 -0.1425
   23MOL0     H 3053   0.825   8.806   5.437  0.5491 -0.0242 -0.3982
   23MOL0     H 3054   0.831   8.698   5.721  0.4930 -0.4198  0.0209
   23MOL0     H 3055   0.823   8.602   5.581 -2.1735 -1.1286  1.4792
   23MOL0     H 3056   0.606   8.626   5.409 -2.0711 -0.2130  0.5130
   23MOL0     H 3057   0.293   8.850   5.435  1.6707  0.7948 -0.6317
   23MOL0     H 3058   0.358   8.726   5.334  1.7934  0.6788  0.3933
   23MOL0     H 3059   0.274   8.553   5.513 -0.1764 -0.1165  1.6203
   23MOL0     H 3060   0.171   8.622   5.382  2.1596  2.1108 -1.1650
   23MOL0     H 3061   0.175   8.691   5.678 -1.6690 -2.5589  0.7219
   23MOL0     H 3062   0.056   8.607   5.596 -1.0101  2.2348  0.4856
   23MOL0     H 3063   0.029   8.814   5.435  1.5610 -0.4020  0.4240
   23MOL0     H 3064   0.102   8.899   5.569  2.3520  0.0222 -1.6965
   23MOL0     H 3065  -0.281   8.933   5.654 -3.6807 -1.4262  1.6429
   23MOL0     H 3066  -0.500   9.041   5.565  3.4484 -0.3550 -1.2933
   23MOL0     H 3067  -0.587   8.943   5.440  0.1860 -0.4976 -0.5671
   23MOL0     H 3068  -0.596   8.893   5.611  1.0175 -1.1261  0.3813
   23MOL0     H 3069  -0.804   8.944   5.345 -0.2817 -1.6098  0.8515
   23MOL0     H 3070  -1.015   8.933   5.214 -2.2752 -0.1904  3.8326
   23MOL0     H 3071  -1.209   8.857   5.193 -1.3769 -0.6354  0.5054
   23MOL0     H 3072  -1.145   8.903   5.031 -0.5659  0.3967 -3.2128
   23MOL0     H 3073  -1.382   8.704   5.077  0.9813  0.1144  0.9226
   23MOL0     H 3074  -1.395   8.871   5.019 -0.3172  0.2495 -0.4092
   23MOL0     H 3075  -1.286   8.627   4.875  1.1675  0.3084  1.5694
   23MOL0     H 3076  -1.244   8.802   4.822 -0.2357  3.0878  3.0667
   23MOL0     H 3077  -1.524   8.682   4.871  0.8142 -1.7614 -1.4575
   23MOL0     H 3078  -1.495   8.833   4.797 -1.0331 -0.4870 -1.9236
   23MOL0     H 3079  -1.408   8.570   4.663  2.0690  0.2172 -0.3240
   23MOL0     H 3080  -1.390   8.742   4.609  0.0793  0.8810  0.0810
   23MOL0     H 3081  -1.665   8.636   4.681  1.5236  1.4073  1.7007
   23MOL0     H 3082  -1.618   8.793   4.622 -0.7386  0.0390 -2.2705
   23MOL0     H 3083  -1.570   8.554   4.443 -0.5927  0.5920 -1.1893
   23MOL0     H 3084  -1.497   8.707   4.415 -0.0448  0.0175 -0.5118
   23MOL0     H 3085  -1.697   8.694   4.295  0.6657 -2.9037  1.0749
   23MOL0     H 3086  -1.715   8.826   4.409 -1.8113 -0.0562 -0.8106
   23MOL0     H 3087  -1.000   8.505   5.201  0.4654 -0.2823  0.3734
   23MOL0     H 3088  -0.802   8.506   5.339  0.9423 -1.3135 -3.5247
   23MOL0     H 3089  -0.347   8.586   5.317 -3.8487  0.0940  0.2511
   23MOL0     H 3090  -0.110   8.616   5.431 -1.7086 -1.9595  1.2981
   23MOL0     H 3091   1.815   8.827   5.509  0.1819 -0.1611 -0.6188
   23MOL0     H 3092   2.017   8.817   5.642 -0.2163  0.4414  1.8084
   23MOL0     H 3093   2.166   8.773   6.083  1.1641 -1.6582  0.2554
   23MOL0     H 3094   2.355   8.690   6.207 -3.9460 -1.1769 -0.1842
   23MOL0     H 3095   2.721   8.663   5.972 -2.1135  2.8976 -0.0015
   23MOL0     H 3096   2.792   8.787   6.068  1.6118 -0.3201 -0.5847
   23MOL0     H 3097   2.739   8.505   6.167  0.6976 -1.0066 -1.9888
   23MOL0     H 3098   2.835   8.628   6.257  2.1897 -1.1988 -0.3967
   23MOL0     H 3099   3.000   8.612   6.073 -0.3476 -0.7576 -1.4212
   23MOL0     H 3100   2.898   8.486   6.003 -0.2708  0.6588 -0.8697
   23MOL0     H 3101   2.957   8.332   6.157  0.9950 -1.8977  1.2473
   23MOL0     H 3102   2.961   8.429   6.290  0.7726 -0.7939  0.3635
   23MOL0     H 3103   3.373   8.427   6.185  0.2880 -8.0708  1.2652
   23MOL0     H 3104   2.618   8.882   5.920 -2.1110  2.2116 -2.5893
   23MOL0     H 3105   2.416   8.972   5.806 -2.7184  0.7812 -0.6297
   24MOL0     O 3106   5.299   1.281   8.847  0.4848 -0.0586 -0.2103
   24MOL0     C 3107   5.305   1.377   8.771 -0.0407  1.0534 -0.8847
   24MOL0     O 3108   5.208   1.423   8.687 -0.4590 -0.7515  0.0290
   24MOL0     C 3109   5.103   1.339   8.649 -0.2088  0.4103  0.2755
   24MOL0     C 3110   5.106   1.204   8.656  0.0371  0.5646  0.0278
   24MOL0     C 3111   5.000   1.123   8.606 -0.7562  0.0339 -0.2434
   24MOL0     C 3112   4.883   1.179   8.560  0.4342 -0.4370  0.4219
   24MOL0     O 3113   4.779   1.102   8.522  0.4414  0.4038  0.3302
   24MOL0     C 3114   4.657   1.131   8.592 -0.4184 -0.1877 -0.8506
   24MOL0     C 3115   4.578   0.996   8.607  0.1642 -0.3398  0.0037
   24MOL0     C 3116   4.422   1.025   8.641 -0.6306  0.2415  0.1612
   24MOL0     C 3117   4.329   0.899   8.654  0.4378  0.2055  0.9436
   24MOL0     C 3118   4.185   0.928   8.684  0.9812 -1.2408  0.3297
   24MOL0     C 3119   4.098   0.803   8.709 -0.4069  0.1678  0.2311
   24MOL0     C 3120   3.949   0.832   8.717  0.9311 -0.5410 -0.5523
   24MOL0     C 3121   3.861   0.701   8.696 -0.0492  0.2901  0.2568
   24MOL0     N 3122   3.722   0.738   8.743 -0.2355 -0.2467  0.0494
   24MOL0     C 3123   3.697   0.782   8.871  0.0165 -0.1973 -0.1196
   24MOL0     C 3124   3.566   0.810   8.868 -0.0222 -1.0180 -0.0932
   24MOL0     C 3125   3.479   0.870   8.971 -0.1995 -0.3159 -0.1509
   24MOL0     C 3126   3.359   0.777   8.998  0.5376 -0.1382 -0.9759
   24MOL0     C 3127   3.232   0.822   8.913  0.0623  0.1944 -0.1833
   24MOL0     C 3128   3.109   0.742   8.950 -0.4716 -0.4861  0.4324
   24MOL0     O 3129   3.042   0.818   9.054  0.3491  0.5640  0.1785
   24MOL0     C 3130   2.910   0.825   9.046  0.0068  0.3406  0.8992
   24MOL0     C 3131   2.837   0.738   9.121  0.5375  0.4588 -0.1192
   24MOL0     C 3132   2.701   0.733   9.110  0.9211 -0.0554  0.6749
   24MOL0     C 3133   2.634   0.639   9.210  0.1797  0.7313  0.3124
   24MOL0     C 3134   2.626   0.812   9.011 -0.5152  0.6486 -0.7553
   24MOL0     C 3135   2.484   0.797   8.982  0.2868  0.3237 -0.6953
   24MOL0     O 3136   2.436   0.872   8.885 -0.0967  0.2868 -0.3843
   24MOL0     C 3137   2.302   0.885   8.857 -0.3352  0.3797  0.7940
   24MOL0     C 3138   2.270   0.905   8.718 -0.6853  0.1354 -0.3290
   24MOL0     C 3139   2.139   0.937   8.681  0.3646 -0.5720 -1.0452
   24MOL0     C 3140   2.035   0.935   8.769 -0.5000 -0.5520 -0.1785
   24MOL0     O 3141   1.916   0.965   8.717  0.3240  0.2008 -0.2959
   24MOL0     C 3142   1.820   1.043   8.798 -0.3178 -0.2604  0.2125
   24MOL0     C 3143   1.722   0.951   8.863 -0.1592 -0.3696  0.0800
   24MOL0     C 3144   1.673   1.018   9.001  0.0499  0.0074 -0.0993
   24MOL0     C 3145   1.597   1.153   8.976  0.4842  0.1291  0.9915
   24MOL0     C 3146   1.493   1.201   9.070  0.5527 -0.0510 -0.9214
   24MOL0     C 3147   1.468   1.357   9.060  0.2692  0.5363 -0.0316
   24MOL0     C 3148   1.465   1.425   9.199 -0.0899  0.4508  0.0261
   24MOL0     C 3149   1.395   1.564   9.205 -0.1630  0.1437  0.3060
   24MOL0    Cl 3150   1.222   1.579   9.156  0.2806  0.0497  0.3648
   24MOL0     C 3151   2.065   0.905   8.910 -0.2121  0.0512  0.1281
   24MOL0     C 3152   2.200   0.888   8.953  0.6107 -0.5581 -0.0011
   24MOL0     O 3153   2.424   0.718   9.049  0.9205  0.0056 -0.4567
   24MOL0     C 3154   2.704   0.904   8.936 -1.1395 -0.5067  0.3747
   24MOL0     C 3155   2.848   0.909   8.944  0.3818  0.0701  0.6152
   24MOL0     N 3156   3.522   0.789   8.740  0.3159 -0.1789  0.0062
   24MOL0     N 3157   3.612   0.745   8.666  0.1671  0.5578  0.1395
   24MOL0     C 3158   4.877   1.323   8.577  0.0614 -0.4885 -0.0200
   24MOL0     C 3159   4.984   1.398   8.617 -0.1506  0.3342  0.3256
   24MOL0     C 3160   5.438   1.446   8.769 -0.0969 -1.2988 -0.4968
   24MOL0     C 3161   5.462   1.570   8.703 -0.8659  0.7479  0.9766
   24MOL0     C 3162   5.581   1.632   8.730 -0.3972  0.2650  0.3324
   24MOL0     C 3163   5.686   1.582   8.809  0.4412  0.2324 -0.2171
   24MOL0     O 3164   5.807   1.646   8.816 -0.2699 -0.7692  0.4533
   24MOL0     C 3165   5.906   1.599   8.901  0.3236  0.2540  0.3437
   24MOL0     C 3166   5.977   1.497   8.816  0.6171 -0.0427 -0.2020
   24MOL0     C 3167   6.112   1.460   8.877  0.1352 -0.0138 -0.0812
   24MOL0     C 3168   6.188   1.348   8.807 -0.9734  0.1304  0.5163
   24MOL0     C 3169   6.287   1.408   8.721  0.6937  0.0630  0.1670
   24MOL0     C 3170   6.366   1.467   8.654  1.0218  0.5651 -0.4630
   24MOL0     C 3171   5.655   1.462   8.876  0.1968 -0.7573 -0.0362
   24MOL0     C 3172   5.533   1.399   8.862 -0.5649  0.7880  0.9102
   24MOL0     H 3173   5.204   1.160   8.673  0.3063  0.0811 -2.4204
   24MOL0     H 3174   5.003   1.016   8.590 -1.1783  0.3262 -2.7870
   24MOL0     H 3175   4.661   1.184   8.688 -0.0557 -0.2350 -0.8386
   24MOL0     H 3176   4.605   1.197   8.523  1.2997  0.5066 -1.5316
   24MOL0     H 3177   4.582   0.949   8.508  1.5220 -1.6452  0.6520
   24MOL0     H 3178   4.616   0.926   8.682  1.4934  1.0255  0.6588
   24MOL0     H 3179   4.423   1.083   8.733  0.0486  2.1341 -0.9769
   24MOL0     H 3180   4.378   1.087   8.562 -3.1966 -1.1984  0.3745
   24MOL0     H 3181   4.319   0.855   8.555 -0.0451  1.4962  0.4031
   24MOL0     H 3182   4.367   0.825   8.725  2.6121 -0.3420 -0.7118
   24MOL0     H 3183   4.188   0.995   8.770  3.2728 -0.4275 -0.3174
   24MOL0     H 3184   4.136   0.986   8.605 -0.8130  0.7786  2.7638
   24MOL0     H 3185   4.121   0.734   8.627  0.2949  1.9203 -1.1018
   24MOL0     H 3186   4.139   0.771   8.805  3.1575  0.2305 -1.1297
   24MOL0     H 3187   3.932   0.888   8.810  0.0959  0.7879 -1.4681
   24MOL0     H 3188   3.913   0.911   8.650 -0.8376 -2.2005 -1.6700
   24MOL0     H 3189   3.897   0.613   8.750  0.0869 -0.4230 -0.9585
   24MOL0     H 3190   3.867   0.665   8.593 -2.1570 -1.0673  0.5416
   24MOL0     H 3191   3.754   0.785   8.963 -0.8914 -0.3974  0.4680
   24MOL0     H 3192   3.540   0.871   9.061  1.9528 -0.2039 -1.5354
   24MOL0     H 3193   3.435   0.969   8.954 -0.2078 -0.3990 -0.6319
   24MOL0     H 3194   3.337   0.784   9.105  1.6810  0.8302 -0.7807
   24MOL0     H 3195   3.391   0.676   8.974  1.0550  0.1168 -1.3826
   24MOL0     H 3196   3.244   0.817   8.804  0.1932  2.1836 -0.2972
   24MOL0     H 3197   3.226   0.930   8.932  1.5393  0.1416  0.7179
   24MOL0     H 3198   3.132   0.641   8.986  3.4934  0.3061  0.5488
   24MOL0     H 3199   3.044   0.731   8.862 -2.9688  0.2331  2.0935
   24MOL0     H 3200   2.892   0.690   9.201  0.9785  2.5435  0.9022
   24MOL0     H 3201   2.543   0.679   9.255 -1.9892 -2.5055 -0.8044
   24MOL0     H 3202   2.604   0.541   9.171 -2.2094  0.4358  2.6628
   24MOL0     H 3203   2.699   0.613   9.294 -0.0767 -1.0046  0.0104
   24MOL0     H 3204   2.342   0.888   8.639  2.7959  1.9959  2.1582
   24MOL0     H 3205   2.124   0.955   8.575  1.4926  1.7322 -0.8783
   24MOL0     H 3206   1.872   1.094   8.880 -0.9000  1.3721 -0.4006
   24MOL0     H 3207   1.764   1.111   8.734  1.8580  0.9673 -0.4976
   24MOL0     H 3208   1.640   0.936   8.792 -0.1074  0.4347 -0.1640
   24MOL0     H 3209   1.776   0.861   8.891  0.0166 -0.4957 -0.6287
   24MOL0     H 3210   1.754   1.029   9.073  0.2347 -2.4261  0.1409
   24MOL0     H 3211   1.598   0.952   9.046 -0.2915 -1.0447 -2.0672
   24MOL0     H 3212   1.679   1.224   8.967  0.6421  0.1444  2.3455
   24MOL0     H 3213   1.551   1.165   8.877  2.6024 -0.9203 -0.1977
   24MOL0     H 3214   1.519   1.181   9.175 -1.7608  0.9144 -0.0892
   24MOL0     H 3215   1.399   1.154   9.041 -0.8726  1.5919  0.7853
   24MOL0     H 3216   1.552   1.404   9.007 -0.6234  0.6272 -1.4222
   24MOL0     H 3217   1.383   1.385   8.997  0.0227  0.4435  0.2582
   24MOL0     H 3218   1.565   1.431   9.244 -2.0407 -0.5079  5.2409
   24MOL0     H 3219   1.405   1.368   9.270 -0.6078  0.0924 -0.6921
   24MOL0     H 3220   1.467   1.623   9.148  0.8950 -2.2922 -1.0656
   24MOL0     H 3221   1.405   1.603   9.307  1.7668 -2.3600  1.2078
   24MOL0     H 3222   1.993   0.893   8.990 -1.5973  1.3507 -0.8618
   24MOL0     H 3223   2.208   0.881   9.061 -0.8594  0.1776  0.1851
   24MOL0     H 3224   2.646   0.962   8.866 -1.0632 -0.0013  0.7239
   24MOL0     H 3225   2.904   0.973   8.876 -2.1770  1.0667 -0.6731
   24MOL0     H 3226   4.780   1.368   8.557  0.7677  2.4321  2.3774
   24MOL0     H 3227   4.988   1.506   8.611 -2.1792  0.5243  1.4622
   24MOL0     H 3228   5.384   1.609   8.638 -1.7307 -0.7391  1.0857
   24MOL0     H 3229   5.594   1.727   8.681  0.4726 -0.6138 -1.2066
   24MOL0     H 3230   5.977   1.678   8.928  1.1407 -0.1892 -0.4660
   24MOL0     H 3231   5.876   1.563   9.000 -0.1894  2.4044  1.0315
   24MOL0     H 3232   5.985   1.531   8.712 -1.3833 -1.5918 -0.9374
   24MOL0     H 3233   5.923   1.402   8.822  0.6859 -0.1024 -0.5044
   24MOL0     H 3234   6.102   1.436   8.984  1.2365 -1.3200 -0.2335
   24MOL0     H 3235   6.167   1.554   8.877 -0.4496  0.4280  2.9249
   24MOL0     H 3236   6.127   1.277   8.750  3.4152 -2.6774 -1.3053
   24MOL0     H 3237   6.244   1.300   8.888  0.5567 -1.4885 -1.3861
   24MOL0     H 3238   6.452   1.520   8.617  5.1723 -3.8064  1.7167
   24MOL0     H 3239   5.735   1.408   8.926  0.1368  0.9467  2.0549
   24MOL0     H 3240   5.505   1.316   8.926 -4.0154 -0.5083 -1.8839
   25MOL0     O 3241   1.621   0.328   6.379 -0.0362  0.1260 -0.1168
   25MOL0     C 3242   1.677   0.439   6.408 -0.1305  0.1952  0.9188
   25MOL0     O 3243   1.613   0.556   6.438 -0.4770  1.0634  0.1839
   25MOL0     C 3244   1.474   0.570   6.431  0.0686 -0.2948  1.3205
   25MOL0     C 3245   1.397   0.625   6.537  0.6482 -0.3884 -0.2534
   25MOL0     C 3246   1.263   0.648   6.528 -0.4095  0.1883 -1.5726
   25MOL0     C 3247   1.197   0.624   6.414  0.5603 -0.4077  0.3434
   25MOL0     O 3248   1.063   0.656   6.403  0.3277  0.2096  0.4065
   25MOL0     C 3249   0.975   0.552   6.446 -0.0764 -0.2327 -0.5247
   25MOL0     C 3250   0.861   0.523   6.356 -0.2988  0.0968  0.9003
   25MOL0     C 3251   0.762   0.424   6.410 -0.0228 -0.1834 -0.5119
   25MOL0     C 3252   0.617   0.469   6.381  0.9355 -0.4397 -0.9223
   25MOL0     C 3253   0.537   0.338   6.384 -0.2246 -0.9118  0.2960
   25MOL0     C 3254   0.387   0.364   6.346 -0.0920  0.4699  0.0516
   25MOL0     C 3255   0.372   0.446   6.218 -0.0265 -0.3542  0.5299
   25MOL0     C 3256   0.231   0.460   6.183 -0.2276  0.3756 -0.3336
   25MOL0     N 3257   0.148   0.522   6.292 -0.4461 -0.7606  0.0893
   25MOL0     C 3258   0.012   0.489   6.306  0.3227 -0.5185 -0.1822
   25MOL0     C 3259  -0.038   0.572   6.399  0.0679 -1.0401  0.1832
   25MOL0     C 3260  -0.177   0.549   6.458 -0.2464  0.7333  0.7423
   25MOL0     C 3261  -0.290   0.548   6.356 -0.5114  0.3770  0.4596
   25MOL0     C 3262  -0.415   0.541   6.433  0.4274 -0.1614 -0.7683
   25MOL0     C 3263  -0.537   0.500   6.348 -0.2345  1.0144 -0.5774
   25MOL0     O 3264  -0.659   0.548   6.419 -0.3952  0.1020 -0.0505
   25MOL0     C 3265  -0.774   0.537   6.349 -0.0414 -0.4630 -0.0222
   25MOL0     C 3266  -0.797   0.470   6.229  1.3639  0.6059 -0.8758
   25MOL0     C 3267  -0.928   0.461   6.173 -0.2670  0.1499 -0.2589
   25MOL0     C 3268  -0.938   0.364   6.057  0.6836  0.1428 -1.0312
   25MOL0     C 3269  -1.036   0.532   6.233  1.0383  0.4705 -0.2973
   25MOL0     C 3270  -1.182   0.530   6.188 -0.8758  0.4595 -0.2293
   25MOL0     O 3271  -1.269   0.614   6.254  0.0781  0.8821 -0.6157
   25MOL0     C 3272  -1.399   0.643   6.213 -0.3493  0.6209 -0.1114
   25MOL0     C 3273  -1.487   0.540   6.175  0.3451 -0.0093 -0.2416
   25MOL0     C 3274  -1.612   0.577   6.135  0.2494  0.9195  0.2205
   25MOL0     C 3275  -1.659   0.712   6.144 -0.1492  0.3029 -0.5421
   25MOL0     O 3276  -1.790   0.748   6.117 -0.1815 -0.4043 -0.2489
   25MOL0     C 3277  -1.873   0.653   6.040 -0.2366  0.5027 -0.8076
   25MOL0     C 3278  -2.012   0.691   6.020  0.1154  0.0138  0.2070
   25MOL0     C 3279  -2.091   0.751   6.139 -0.5112  0.5550 -0.1253
   25MOL0     C 3280  -2.082   0.678   6.276  0.1203 -0.1574 -0.4414
   25MOL0     C 3281  -2.195   0.718   6.377 -0.7771 -0.1188  1.1243
   25MOL0     C 3282  -2.160   0.702   6.523  0.7725  0.7545 -0.3468
   25MOL0     C 3283  -2.278   0.712   6.618 -0.5520  0.0234  0.7683
   25MOL0     C 3284  -2.256   0.640   6.750  0.1736 -0.4036  1.0987
   25MOL0    Cl 3285  -2.243   0.469   6.724  0.2718  0.1054 -0.1417
   25MOL0     C 3286  -1.573   0.803   6.198  0.0125  0.2650  0.1212
   25MOL0     C 3287  -1.442   0.777   6.231 -0.5649 -0.1630  0.9312
   25MOL0     O 3288  -1.207   0.462   6.089  0.9658 -0.1765 -0.2518
   25MOL0     C 3289  -1.009   0.600   6.353  0.6274 -0.0037 -1.2159
   25MOL0     C 3290  -0.883   0.599   6.414 -0.4493  0.1714  0.0131
   25MOL0     N 3291   0.059   0.663   6.445 -0.6506 -0.5334  0.0935
   25MOL0     N 3292   0.175   0.631   6.384  0.2781  0.4048 -0.2016
   25MOL0     C 3293   1.264   0.564   6.303  0.4340 -0.1514 -0.0494
   25MOL0     C 3294   1.402   0.535   6.312  0.0990 -0.2597 -0.0937
   25MOL0     C 3295   1.822   0.435   6.399  0.5458 -0.0144 -0.4378
   25MOL0     C 3296   1.900   0.319   6.355 -0.1791  0.2710 -0.0611
   25MOL0     C 3297   2.038   0.326   6.344 -0.7495  0.0423 -0.0392
   25MOL0     C 3298   2.114   0.442   6.385  0.5095 -1.1843 -0.0387
   25MOL0     O 3299   2.247   0.465   6.373 -1.0979  0.2025 -0.6434
   25MOL0     C 3300   2.334   0.352   6.378 -0.7156 -1.3564  0.6642
   25MOL0     C 3301   2.470   0.407   6.340 -0.1701 -0.9727  0.2928
   25MOL0     C 3302   2.529   0.510   6.438  0.5840 -0.4839  0.1452
   25MOL0     C 3303   2.656   0.586   6.390 -0.6673 -0.8791 -0.1784
   25MOL0     C 3304   2.762   0.495   6.441 -0.6923  0.1789 -1.0098
   25MOL0     C 3305   2.843   0.435   6.502  0.4856  0.9914 -0.3439
   25MOL0     C 3306   2.039   0.544   6.446  0.3466 -0.3634 -0.5623
   25MOL0     C 3307   1.894   0.556   6.441 -0.0780  1.0826 -0.1039
   25MOL0     H 3308   1.453   0.644   6.627 -0.9739 -0.7434  0.8716
   25MOL0     H 3309   1.219   0.703   6.611  2.3529  1.4602 -0.8239
   25MOL0     H 3310   1.027   0.456   6.448 -0.2971 -0.3449 -0.1239
   25MOL0     H 3311   0.932   0.569   6.545  3.0604  0.7468  0.8157
   25MOL0     H 3312   0.814   0.620   6.339  0.0056  0.3904  1.7049
   25MOL0     H 3313   0.903   0.486   6.261  0.0295  0.7271  0.7960
   25MOL0     H 3314   0.782   0.327   6.365 -0.8113 -0.2463 -0.7454
   25MOL0     H 3315   0.778   0.408   6.517 -4.6312 -0.2387  0.3463
   25MOL0     H 3316   0.559   0.535   6.446 -0.8378 -2.5327 -0.2748
   25MOL0     H 3317   0.614   0.515   6.282 -1.4757  0.8377 -0.3324
   25MOL0     H 3318   0.576   0.271   6.306 -0.3820  0.3336 -0.8932
   25MOL0     H 3319   0.540   0.280   6.477  1.9293  1.6568  1.9785
   25MOL0     H 3320   0.347   0.262   6.342  0.3190  0.2782  0.6680
   25MOL0     H 3321   0.342   0.419   6.429  0.5198  2.5585 -0.9307
   25MOL0     H 3322   0.423   0.543   6.229  1.1976 -0.8885 -0.2351
   25MOL0     H 3323   0.424   0.401   6.133 -2.4940 -1.3811 -0.5237
   25MOL0     H 3324   0.194   0.361   6.154 -1.5437  0.9377 -0.6304
   25MOL0     H 3325   0.216   0.528   6.098 -0.3598 -1.1923 -1.6197
   25MOL0     H 3326  -0.034   0.398   6.269  0.9035 -1.5217  1.5127
   25MOL0     H 3327  -0.172   0.466   6.529 -2.7067 -1.1149 -1.0501
   25MOL0     H 3328  -0.204   0.633   6.522 -2.1160  0.1060  0.8362
   25MOL0     H 3329  -0.288   0.466   6.284 -1.3305 -0.7270  1.6383
   25MOL0     H 3330  -0.286   0.643   6.302  0.1409  0.6264  0.9228
   25MOL0     H 3331  -0.422   0.634   6.491 -1.5460 -1.0854  0.5991
   25MOL0     H 3332  -0.409   0.467   6.513 -1.4470  0.5367  0.0798
   25MOL0     H 3333  -0.534   0.395   6.320  3.7477  1.3579 -1.9554
   25MOL0     H 3334  -0.543   0.554   6.253  2.0342 -0.2753 -1.5311
   25MOL0     H 3335  -0.715   0.422   6.176 -0.6619 -0.2306 -3.5420
   25MOL0     H 3336  -0.958   0.429   5.971 -1.1136  0.9191 -0.0808
   25MOL0     H 3337  -0.845   0.311   6.035  0.4521 -0.3329 -0.8695
   25MOL0     H 3338  -1.006   0.281   6.075  1.1313 -0.2682 -1.2096
   25MOL0     H 3339  -1.450   0.441   6.151 -2.0628 -0.5013 -2.4745
   25MOL0     H 3340  -1.667   0.507   6.072 -0.2096  0.8822  0.6549
   25MOL0     H 3341  -1.827   0.645   5.942  0.8905  0.9828 -0.3414
   25MOL0     H 3342  -1.879   0.555   6.087  0.4714 -0.7679 -3.2409
   25MOL0     H 3343  -2.025   0.772   5.947  2.1512  2.1657  2.0820
   25MOL0     H 3344  -2.057   0.598   5.983  0.1668  0.0889 -0.0487
   25MOL0     H 3345  -2.195   0.769   6.111 -0.6245  3.0672  1.5996
   25MOL0     H 3346  -2.046   0.850   6.152 -0.9315  0.8161 -0.5955
   25MOL0     H 3347  -2.085   0.569   6.262 -0.0158 -0.2409  0.2073
   25MOL0     H 3348  -1.985   0.708   6.317 -1.4483  1.5476  2.3197
   25MOL0     H 3349  -2.288   0.670   6.343 -0.8494  0.2390  0.8096
   25MOL0     H 3350  -2.202   0.827   6.365 -1.2402 -0.3885 -1.7498
   25MOL0     H 3351  -2.118   0.601   6.528  0.0319  0.3062 -2.2847
   25MOL0     H 3352  -2.080   0.774   6.547  1.5270  0.0356 -0.6421
   25MOL0     H 3353  -2.360   0.668   6.561 -1.0460  2.0533 -0.1853
   25MOL0     H 3354  -2.300   0.819   6.625  1.5817  0.5658 -0.1091
   25MOL0     H 3355  -2.349   0.660   6.805 -1.2270  1.1911 -1.6175
   25MOL0     H 3356  -2.167   0.675   6.803  2.3075 -1.9474 -1.2522
   25MOL0     H 3357  -1.603   0.906   6.216  1.1863  1.6533 -4.6190
   25MOL0     H 3358  -1.371   0.841   6.282 -0.6010  0.5915  0.0654
   25MOL0     H 3359  -1.078   0.656   6.415 -1.6215 -0.4519 -3.1829
   25MOL0     H 3360  -0.879   0.659   6.505  3.1229  1.0918 -0.6018
   25MOL0     H 3361   1.209   0.554   6.210  0.7081 -2.0904 -0.0287
   25MOL0     H 3362   1.469   0.484   6.243  0.6187  1.0376 -0.5916
   25MOL0     H 3363   1.862   0.220   6.330  1.1292 -0.7047  1.5515
   25MOL0     H 3364   2.091   0.243   6.299 -0.3294  0.7104 -0.8246
   25MOL0     H 3365   2.336   0.311   6.480 -1.5055 -0.1569  1.1795
   25MOL0     H 3366   2.299   0.273   6.311 -0.3331  0.1508 -1.4104
   25MOL0     H 3367   2.456   0.461   6.246  1.8033  0.7199  0.8963
   25MOL0     H 3368   2.549   0.333   6.324  0.8985  0.2257 -0.1445
   25MOL0     H 3369   2.542   0.466   6.538 -0.5610  1.7964  1.3748
   25MOL0     H 3370   2.459   0.590   6.464  2.6384  2.2996 -2.1510
   25MOL0     H 3371   2.670   0.684   6.436 -0.4286 -2.1232  2.5908
   25MOL0     H 3372   2.646   0.596   6.281  2.8862 -2.7540 -0.8253
   25MOL0     H 3373   2.919   0.379   6.552  0.2765  0.2138 -0.8834
   25MOL0     H 3374   2.105   0.621   6.484 -1.6147  1.9022 -1.4993
   25MOL0     H 3375   1.842   0.636   6.491  1.1792 -0.5145  4.2165
   26MOL0     O 3376   4.772   8.566  10.543 -0.5102  0.5769 -0.2350
   26MOL0     C 3377   4.845   8.653  10.589  0.4580  0.2238  0.1285
   26MOL0     O 3378   4.802   8.753  10.681  0.0699  0.9568  0.6066
   26MOL0     C 3379   4.677   8.784  10.671  0.0975  0.5340 -0.6164
   26MOL0     C 3380   4.626   8.833  10.550 -0.0656 -0.0261 -0.1883
   26MOL0     C 3381   4.503   8.887  10.535  0.6900  0.6673  0.4097
   26MOL0     C 3382   4.412   8.896  10.648 -0.1703 -0.0983 -0.4255
   26MOL0     O 3383   4.288   8.954  10.626  0.7929  0.2194 -0.1126
   26MOL0     C 3384   4.197   8.976  10.739  0.4225  0.3924  0.3069
   26MOL0     C 3385   4.194   9.122  10.790  0.5830  0.2900 -0.6725
   26MOL0     C 3386   4.100   9.147  10.912 -0.1728 -0.1186  0.0991
   26MOL0     C 3387   4.076   9.300  10.929  0.5742  0.8272 -0.3049
   26MOL0     C 3388   3.967   9.326  11.033 -0.7237  0.0836 -0.7206
   26MOL0     C 3389   3.925   9.470  11.033  0.1828 -1.0492 -0.0184
   26MOL0     C 3390   3.838   9.503  11.149 -0.5031  0.2919 -0.3843
   26MOL0     C 3391   3.823   9.651  11.145  0.5258  0.3696  0.1870
   26MOL0     N 3392   3.732   9.699  11.250  0.3301  0.4954 -0.9131
   26MOL0     C 3393   3.604   9.642  11.283  0.1736  0.6583  1.3954
   26MOL0     C 3394   3.593   9.665  11.422 -0.1096 -0.7968  0.3335
   26MOL0     C 3395   3.502   9.596  11.522  0.4124  1.1212  0.8502
   26MOL0     C 3396   3.553   9.455  11.562 -0.7485  0.4770 -0.5779
   26MOL0     C 3397   3.706   9.446  11.586  0.6261 -0.1241  0.2158
   26MOL0     C 3398   3.779   9.545  11.682  0.0315 -0.2975  0.1672
   26MOL0     O 3399   3.782   9.478  11.799  0.3110 -0.0449 -0.8388
   26MOL0     C 3400   3.833   9.542  11.912  0.8221  0.8969 -0.2542
   26MOL0     C 3401   3.928   9.645  11.904  0.8782 -0.9961 -0.6090
   26MOL0     C 3402   3.971   9.722  12.020  0.9816  0.6673  0.1892
   26MOL0     C 3403   4.086   9.814  11.999 -0.6380  0.7052  0.4788
   26MOL0     C 3404   3.899   9.696  12.142  0.5012 -0.2691  0.6786
   26MOL0     C 3405   3.914   9.779  12.265 -0.3007 -0.3921  0.2419
   26MOL0     O 3406   3.886   9.719  12.391 -0.2060  0.2475  0.1129
   26MOL0     C 3407   3.874   9.811  12.489  0.6315 -0.3386 -0.3812
   26MOL0     C 3408   3.750   9.868  12.524  0.4049  1.3128 -0.1079
   26MOL0     C 3409   3.736   9.975  12.609 -0.1191  0.2120 -1.2936
   26MOL0     C 3410   3.854  10.024  12.682  0.1682  0.0981 -0.4847
   26MOL0     O 3411   3.837  10.124  12.776 -0.1444  0.8118 -0.2505
   26MOL0     C 3412   3.957  10.192  12.817  0.9585 -0.8870  0.7007
   26MOL0     C 3413   3.919  10.314  12.896 -0.1585 -0.6290 -0.3504
   26MOL0     C 3414   3.824  10.301  13.021  0.2503  0.8729  0.1357
   26MOL0     C 3415   3.786  10.443  13.056 -0.9746  0.1970  0.4504
   26MOL0     C 3416   3.682  10.454  13.172 -0.3418  0.0254 -0.0678
   26MOL0     C 3417   3.748  10.431  13.308  0.5543 -0.1982  0.1719
   26MOL0     C 3418   3.638  10.423  13.421  0.4867 -0.3077  0.1689
   26MOL0     C 3419   3.709  10.353  13.535  0.2398  0.1357 -0.6988
   26MOL0    Cl 3420   3.860  10.437  13.583  0.2150  0.5102  0.2714
   26MOL0     C 3421   3.976   9.955  12.655  0.5408  0.1577  0.8240
   26MOL0     C 3422   3.992   9.848  12.564 -0.2696 -0.5737 -0.2795
   26MOL0     O 3423   3.954   9.899  12.251  0.7438  0.4965  0.1565
   26MOL0     C 3424   3.807   9.584  12.146 -0.1093 -0.1885 -0.1691
   26MOL0     C 3425   3.783   9.508  12.037 -0.3399  0.0481  0.8594
   26MOL0     N 3426   3.695   9.749  11.461 -0.1048  0.3250 -0.0383
   26MOL0     N 3427   3.771   9.766  11.365  0.4275  0.3046  1.0221
   26MOL0     C 3428   4.463   8.849  10.767 -0.5618 -0.1274 -0.3653
   26MOL0     C 3429   4.592   8.800  10.785 -0.3065 -0.8924  0.5885
   26MOL0     C 3430   4.990   8.641  10.567  0.0669  0.6348 -0.3355
   26MOL0     C 3431   5.078   8.661  10.670  0.5958 -0.0993  0.3632
   26MOL0     C 3432   5.213   8.656  10.649 -0.3295  0.6600 -0.5725
   26MOL0     C 3433   5.259   8.605  10.528  0.2532 -0.1349 -0.2651
   26MOL0     O 3434   5.389   8.576  10.493 -0.7513 -0.0371  0.8140
   26MOL0     C 3435   5.433   8.449  10.550  0.0689 -0.8117 -0.2188
   26MOL0     C 3436   5.570   8.414  10.496  0.6996  0.7627 -0.0038
   26MOL0     C 3437   5.554   8.382  10.345 -0.0052  0.4147 -0.1741
   26MOL0     C 3438   5.690   8.323  10.283  0.3058 -0.3081  0.1495
   26MOL0     C 3439   5.817   8.403  10.313  0.0901 -1.3360  0.0535
   26MOL0     C 3440   5.928   8.455  10.339  0.1375 -0.7562 -0.2372
   26MOL0     C 3441   5.175   8.587  10.422  0.3901  0.1867  0.2967
   26MOL0     C 3442   5.039   8.610  10.438  0.2248 -0.4447  0.1944
   26MOL0     H 3443   4.680   8.818  10.457  0.8411  0.1906  0.2909
   26MOL0     H 3444   4.471   8.916  10.436  1.8843 -1.8854 -0.7977
   26MOL0     H 3445   4.096   8.962  10.701  0.8427 -2.7206  0.1316
   26MOL0     H 3446   4.205   8.899  10.816 -1.4963 -1.4446 -1.2421
   26MOL0     H 3447   4.295   9.142  10.826  0.6128 -0.5309 -0.2860
   26MOL0     H 3448   4.159   9.196  10.717  1.4116  2.3387  0.9286
   26MOL0     H 3449   3.997   9.113  10.896  0.0463 -0.6700 -0.1744
   26MOL0     H 3450   4.146   9.097  10.997 -0.5417 -2.6995 -1.1225
   26MOL0     H 3451   4.176   9.331  10.963  1.9386 -0.8118 -2.5484
   26MOL0     H 3452   4.050   9.351  10.836 -2.5201  0.8466  0.4678
   26MOL0     H 3453   3.889   9.252  11.016  0.0449 -0.7583 -0.6441
   26MOL0     H 3454   4.006   9.303  11.133  0.7493 -0.3734 -1.3752
   26MOL0     H 3455   4.015   9.532  11.037 -0.6138  0.0987  0.3935
   26MOL0     H 3456   3.882   9.497  10.937 -2.1893  0.0497  1.2725
   26MOL0     H 3457   3.746   9.446  11.139  0.1474 -0.5791 -1.6931
   26MOL0     H 3458   3.887   9.484  11.245  0.2988  0.4814 -0.7430
   26MOL0     H 3459   3.778   9.672  11.047 -0.7843 -1.9179  0.2119
   26MOL0     H 3460   3.915   9.709  11.149 -0.1440  1.8311 -2.5790
   26MOL0     H 3461   3.551   9.577  11.214  0.5957  2.5299 -0.8199
   26MOL0     H 3462   3.497   9.664  11.607 -1.9818  1.6178  0.3618
   26MOL0     H 3463   3.398   9.588  11.491  0.3892  1.1590  0.9172
   26MOL0     H 3464   3.540   9.390  11.476  3.6911  0.1711 -1.2505
   26MOL0     H 3465   3.511   9.406  11.651  3.4180 -2.0597  0.2402
   26MOL0     H 3466   3.747   9.447  11.485 -1.4184 -0.7414 -0.6791
   26MOL0     H 3467   3.723   9.346  11.627  1.3610 -0.1486 -0.1357
   26MOL0     H 3468   3.727   9.641  11.682 -1.7506 -1.2109  1.6423
   26MOL0     H 3469   3.879   9.562  11.640 -0.0214 -2.1462 -0.7861
   26MOL0     H 3470   3.962   9.675  11.806 -0.7101 -0.9363 -1.1665
   26MOL0     H 3471   4.138   9.832  12.094 -0.1724  0.8118  0.2071
   26MOL0     H 3472   4.167   9.776  11.937 -0.0740 -0.6921  1.9725
   26MOL0     H 3473   4.050   9.907  11.956  0.2484  0.6070 -0.5116
   26MOL0     H 3474   3.662   9.827  12.475  0.7641  1.7863 -1.1784
   26MOL0     H 3475   3.641  10.024  12.626 -0.0954 -0.0794 -0.2595
   26MOL0     H 3476   4.031  10.137  12.875  2.4421  1.3401  1.0297
   26MOL0     H 3477   4.014  10.226  12.730  0.0039  0.2295  0.4808
   26MOL0     H 3478   4.003  10.369  12.939 -1.2589 -0.4832  1.7575
   26MOL0     H 3479   3.874  10.387  12.828 -1.8365 -0.5619  0.7818
   26MOL0     H 3480   3.879  10.253  13.102 -0.4170  1.7181  1.1108
   26MOL0     H 3481   3.740  10.232  13.010  0.0522  1.0958  0.2529
   26MOL0     H 3482   3.873  10.500  13.092  0.0538  0.4763 -2.2497
   26MOL0     H 3483   3.755  10.505  12.971 -0.7052  1.8073  1.4766
   26MOL0     H 3484   3.594  10.393  13.149 -2.2170  3.4439 -2.9217
   26MOL0     H 3485   3.658  10.559  13.186  0.4338  0.0248  1.5579
   26MOL0     H 3486   3.808  10.339  13.304  0.8403 -0.0515  0.8519
   26MOL0     H 3487   3.820  10.512  13.323  0.4615  0.4655 -2.4586
   26MOL0     H 3488   3.555  10.358  13.391 -0.0409  0.1410  0.6389
   26MOL0     H 3489   3.596  10.519  13.453 -3.1632 -2.3672  2.3471
   26MOL0     H 3490   3.741  10.259  13.488  2.0611  0.5712 -0.3881
   26MOL0     H 3491   3.648  10.338  13.625  0.7296 -1.0253 -0.5500
   26MOL0     H 3492   4.067   9.992  12.703  1.2197  1.5308 -1.3853
   26MOL0     H 3493   4.086   9.802  12.535 -1.1542 -4.8235  2.5717
   26MOL0     H 3494   3.758   9.559  12.239 -0.1285  2.8570  0.7687
   26MOL0     H 3495   3.715   9.425  12.051 -2.5605  1.4901 -0.8696
   26MOL0     H 3496   4.413   8.851  10.863  1.3590  0.1481  0.6623
   26MOL0     H 3497   4.615   8.745  10.876 -2.2054 -1.3554  0.8377
   26MOL0     H 3498   5.040   8.680  10.770  0.6159 -0.0493  0.3606
   26MOL0     H 3499   5.275   8.670  10.737 -4.0210 -3.1662  3.0694
   26MOL0     H 3500   5.439   8.463  10.658 -1.5217  0.3115 -0.2431
   26MOL0     H 3501   5.353   8.378  10.530 -3.0182  2.7878 -1.9049
   26MOL0     H 3502   5.602   8.323  10.547 -1.7151 -0.4770 -0.5671
   26MOL0     H 3503   5.634   8.503  10.498 -0.2163  1.6012 -2.7634
   26MOL0     H 3504   5.540   8.476  10.291  1.1074  1.9163  1.9901
   26MOL0     H 3505   5.467   8.315  10.340  0.4333 -0.2346  0.6597
   26MOL0     H 3506   5.681   8.300  10.176  0.9315  3.1211 -0.7697
   26MOL0     H 3507   5.696   8.227  10.334 -4.2600 -1.5465 -1.2653
   26MOL0     H 3508   6.026   8.495  10.358 -0.5141  0.0500  1.6209
   26MOL0     H 3509   5.211   8.547  10.328  0.4593 -1.2417  0.9026
   26MOL0     H 3510   4.978   8.606  10.348  0.4460 -2.2170  0.1005
   27MOL0     O 3511   1.827  10.803   7.947  0.0579 -0.1474  0.0592
   27MOL0     C 3512   1.813  10.854   8.058  0.1719 -0.6624 -0.4584
   27MOL0     O 3513   1.713  10.834   8.148  0.3950  0.3213  0.5800
   27MOL0     C 3514   1.623  10.731   8.128 -0.8068 -0.0501 -1.1809
   27MOL0     C 3515   1.658  10.595   8.140  0.1316  0.2394  0.6578
   27MOL0     C 3516   1.565  10.501   8.118  0.0593  0.9673 -0.3196
   27MOL0     C 3517   1.431  10.525   8.109 -0.9363 -0.6682 -0.1390
   27MOL0     O 3518   1.350  10.419   8.090  0.0900 -0.2615  0.2914
   27MOL0     C 3519   1.219  10.424   8.165  0.2858  0.3370 -0.0797
   27MOL0     C 3520   1.207  10.282   8.226  0.9978 -0.1595 -1.0885
   27MOL0     C 3521   1.091  10.287   8.329  0.0113  0.7667 -0.4224
   27MOL0     C 3522   0.950  10.290   8.259  0.5329  0.6260  0.3874
   27MOL0     C 3523   0.846  10.382   8.335  0.4164  1.0207  0.0182
   27MOL0     C 3524   0.715  10.384   8.257 -0.0387 -0.2362  0.3384
   27MOL0     C 3525   0.601  10.456   8.334  0.3316 -0.0426  0.5791
   27MOL0     C 3526   0.473  10.459   8.263  0.2347  0.4980 -0.6502
   27MOL0     N 3527   0.371  10.533   8.349 -0.0579  0.9070  0.2770
   27MOL0     C 3528   0.362  10.663   8.367  0.3275 -1.3260  0.3987
   27MOL0     C 3529   0.236  10.686   8.413 -0.4022 -0.0536  0.4632
   27MOL0     C 3530   0.165  10.814   8.453  0.3896 -0.1865  0.5974
   27MOL0     C 3531   0.101  10.825   8.583  0.5301  0.7734 -0.4123
   27MOL0     C 3532  -0.014  10.924   8.593  0.0598 -0.1082 -0.0799
   27MOL0     C 3533  -0.047  10.945   8.731  0.2567  0.6536 -0.5494
   27MOL0     O 3534  -0.120  10.841   8.801 -0.3728  0.4188 -0.3530
   27MOL0     C 3535  -0.247  10.814   8.770 -0.3533 -0.1983  0.3446
   27MOL0     C 3536  -0.337  10.907   8.727 -0.0878 -0.3287 -0.3741
   27MOL0     C 3537  -0.480  10.889   8.712 -0.1482 -0.5023  0.5835
   27MOL0     C 3538  -0.555  11.008   8.655  0.2335  0.6425  0.6415
   27MOL0     C 3539  -0.526  10.760   8.725 -0.3783 -0.1284 -0.0384
   27MOL0     C 3540  -0.653  10.705   8.683  0.0801  0.7535 -0.9298
   27MOL0     O 3541  -0.674  10.576   8.709  0.2368 -0.1893 -0.1398
   27MOL0     C 3542  -0.791  10.511   8.669 -0.4008 -1.2947 -0.2353
   27MOL0     C 3543  -0.841  10.528   8.539 -0.2324  0.1555 -0.3075
   27MOL0     C 3544  -0.961  10.457   8.505  0.6571 -0.1135 -0.3707
   27MOL0     C 3545  -1.028  10.367   8.599  0.5788 -0.1155  0.3254
   27MOL0     O 3546  -1.131  10.291   8.552 -0.1687  0.0131  0.0315
   27MOL0     C 3547  -1.245  10.273   8.647 -0.0356  0.2538 -0.2807
   27MOL0     C 3548  -1.367  10.221   8.567  0.4319  0.6301  0.0508
   27MOL0     C 3549  -1.493  10.173   8.652 -0.1593  0.7916 -0.0912
   27MOL0     C 3550  -1.621  10.186   8.566 -0.9136  0.0832  0.0709
   27MOL0     C 3551  -1.743  10.119   8.631 -0.9280  0.1097 -0.9184
   27MOL0     C 3552  -1.836  10.078   8.517  0.2567 -0.0471 -0.2663
   27MOL0     C 3553  -1.975  10.016   8.557 -0.2275 -0.1214 -0.6018
   27MOL0     C 3554  -2.050   9.952   8.440  0.3734 -0.6863 -0.5078
   27MOL0    Cl 3555  -2.040  10.062   8.306 -0.1614 -0.1899  0.4204
   27MOL0     C 3556  -0.979  10.371   8.732 -0.2312 -0.0070  1.4254
   27MOL0     C 3557  -0.863  10.433   8.761 -0.1137  0.1069 -0.2828
   27MOL0     O 3558  -0.731  10.779   8.631  0.6668 -0.5455 -0.1862
   27MOL0     C 3559  -0.431  10.659   8.773 -0.6362 -0.4386 -0.9265
   27MOL0     C 3560  -0.295  10.688   8.792  0.8382  0.6410 -0.3834
   27MOL0     N 3561   0.179  10.567   8.443  0.2080 -0.3154 -0.0193
   27MOL0     N 3562   0.253  10.470   8.395 -0.1557 -0.1003 -0.3698
   27MOL0     C 3563   1.392  10.667   8.100  0.2418  0.4300 -0.4180
   27MOL0     C 3564   1.483  10.770   8.104 -1.1639 -0.3199  0.4613
   27MOL0     C 3565   1.915  10.966   8.082  0.4711  0.1289 -0.1999
   27MOL0     C 3566   1.885  11.104   8.106  0.7014 -0.1658  0.4925
   27MOL0     C 3567   1.988  11.202   8.117 -0.2004 -0.2005  0.6972
   27MOL0     C 3568   2.123  11.163   8.099  0.3843  0.4223  0.8258
   27MOL0     O 3569   2.229  11.246   8.099 -0.5803  0.5567  0.0927
   27MOL0     C 3570   2.225  11.386   8.133 -0.4598 -0.5975  0.3449
   27MOL0     C 3571   2.364  11.465   8.132 -0.0795 -0.0789 -0.0850
   27MOL0     C 3572   2.377  11.604   8.197 -0.3356  0.2100 -0.3029
   27MOL0     C 3573   2.523  11.652   8.178 -0.0337 -0.3463 -0.4099
   27MOL0     C 3574   2.622  11.549   8.226  0.1612 -1.1531  0.8307
   27MOL0     C 3575   2.714  11.482   8.250 -0.3547 -0.8967 -1.1763
   27MOL0     C 3576   2.151  11.022   8.067 -0.7830  0.6818  0.2743
   27MOL0     C 3577   2.047  10.925   8.064  0.6476 -0.2828  0.1996
   27MOL0     H 3578   1.762  10.564   8.142  0.2504  0.1057 -2.3541
   27MOL0     H 3579   1.595  10.400   8.092 -0.8559  0.8877 -1.1262
   27MOL0     H 3580   1.225  10.510   8.233 -0.5053 -1.3708  2.2667
   27MOL0     H 3581   1.137  10.446   8.096  0.5670  0.6354 -0.3219
   27MOL0     H 3582   1.189  10.200   8.156 -1.8769  0.5738 -1.3480
   27MOL0     H 3583   1.296  10.254   8.283  0.0213  0.7949  1.0162
   27MOL0     H 3584   1.086  10.201   8.396 -2.0616  1.3948  0.2865
   27MOL0     H 3585   1.105  10.374   8.394  0.5219  0.2003  0.2434
   27MOL0     H 3586   0.967  10.325   8.157  1.2844  1.0958  0.6648
   27MOL0     H 3587   0.917  10.186   8.259  1.1934  0.4089 -0.5109
   27MOL0     H 3588   0.816  10.342   8.432  1.3456  0.8280  0.2397
   27MOL0     H 3589   0.892  10.481   8.350 -0.2047  1.2257  0.6142
   27MOL0     H 3590   0.729  10.435   8.161 -1.7729 -1.9983 -0.9051
   27MOL0     H 3591   0.689  10.282   8.229 -0.9640  0.3270 -0.9571
   27MOL0     H 3592   0.586  10.390   8.419 -1.8022 -0.0667  0.2256
   27MOL0     H 3593   0.624  10.555   8.374 -3.3235  0.4558  1.7440
   27MOL0     H 3594   0.450  10.355   8.238 -2.5973  1.3734 -2.1357
   27MOL0     H 3595   0.475  10.509   8.166  0.7961  0.5095 -0.6370
   27MOL0     H 3596   0.441  10.731   8.338 -1.3903  0.5698 -0.0292
   27MOL0     H 3597   0.239  10.894   8.445 -1.3448  1.5910  1.2571
   27MOL0     H 3598   0.084  10.826   8.381 -0.1754 -0.0116  1.2446
   27MOL0     H 3599   0.192  10.847   8.639  0.9514  0.1086 -0.8156
   27MOL0     H 3600   0.068  10.726   8.616 -1.9623  1.6191 -0.2033
   27MOL0     H 3601  -0.093  10.877   8.533 -0.2484 -0.3179  0.4807
   27MOL0     H 3602   0.015  11.021   8.551  0.2648 -0.4705 -0.7963
   27MOL0     H 3603  -0.113  11.032   8.724 -3.9998 -2.1925  0.4458
   27MOL0     H 3604   0.039  10.973   8.793 -0.2897 -1.0238  1.0737
   27MOL0     H 3605  -0.309  11.011   8.714 -0.4727 -0.3652 -1.5765
   27MOL0     H 3606  -0.646  11.018   8.713 -0.2934 -0.6803  0.0957
   27MOL0     H 3607  -0.492  11.097   8.659  1.6308 -0.1542 -1.2634
   27MOL0     H 3608  -0.581  10.986   8.551 -1.2465  0.2151  1.0862
   27MOL0     H 3609  -0.793  10.589   8.464  1.3847  0.2982  0.7886
   27MOL0     H 3610  -1.006  10.469   8.407  0.6964  1.5660 -0.2155
   27MOL0     H 3611  -1.213  10.205   8.726  2.5762  1.6045 -0.0659
   27MOL0     H 3612  -1.279  10.363   8.700  1.7177 -0.2624  1.8713
   27MOL0     H 3613  -1.403  10.305   8.507 -1.1466  1.0920  1.5559
   27MOL0     H 3614  -1.327  10.141   8.504  1.2007  0.4204  0.7929
   27MOL0     H 3615  -1.498  10.225   8.748  4.2093 -0.1153  0.8358
   27MOL0     H 3616  -1.467  10.068   8.667  3.5766  1.6564  0.5659
   27MOL0     H 3617  -1.640  10.292   8.544  1.7173  0.5005 -0.5309
   27MOL0     H 3618  -1.592  10.137   8.473  0.8326  2.4446 -0.7288
   27MOL0     H 3619  -1.792  10.195   8.692  2.1823  1.3017  0.2420
   27MOL0     H 3620  -1.717  10.039   8.701 -1.8156  1.4705  1.0529
   27MOL0     H 3621  -1.837  10.163   8.448 -0.5192 -1.4916 -2.1281
   27MOL0     H 3622  -1.780   9.998   8.469  2.2960  1.8831 -1.2530
   27MOL0     H 3623  -2.038  10.082   8.617  1.2196 -1.1532  2.2752
   27MOL0     H 3624  -1.953   9.941   8.634  0.1306  0.7948  0.2112
   27MOL0     H 3625  -2.153   9.932   8.472 -0.1377 -1.7270 -2.5577
   27MOL0     H 3626  -2.006   9.856   8.409 -0.2327 -0.7771 -1.1313
   27MOL0     H 3627  -1.012  10.309   8.815  2.6492 -2.4683  0.8700
   27MOL0     H 3628  -0.819  10.411   8.858 -1.2514 -0.9567  0.0309
   27MOL0     H 3629  -0.459  10.556   8.794  0.2146 -0.3250  1.0233
   27MOL0     H 3630  -0.237  10.604   8.828 -2.9833 -0.6687  3.5637
   27MOL0     H 3631   1.292  10.696   8.070  1.5650  1.9480 -4.0778
   27MOL0     H 3632   1.452  10.873   8.087  2.2098  0.5430 -1.4272
   27MOL0     H 3633   1.780  11.129   8.120 -0.4449 -2.0474 -3.4173
   27MOL0     H 3634   1.960  11.302   8.149  3.0065  1.0207  0.0053
   27MOL0     H 3635   2.162  11.435   8.059  0.0591 -1.6600 -0.8353
   27MOL0     H 3636   2.188  11.398   8.235  0.4067 -1.9338  0.8501
   27MOL0     H 3637   2.406  11.480   8.032 -0.6792  0.3715 -0.2775
   27MOL0     H 3638   2.430  11.393   8.181 -0.3636 -0.8305 -0.7862
   27MOL0     H 3639   2.353  11.603   8.304 -5.1740 -0.2833 -1.1732
   27MOL0     H 3640   2.311  11.680   8.155  0.9882  1.2330 -0.6315
   27MOL0     H 3641   2.531  11.743   8.238 -1.5737  1.8391 -3.2393
   27MOL0     H 3642   2.540  11.677   8.073 -0.8427  3.5127  0.2201
   27MOL0     H 3643   2.806  11.431   8.272  1.4244  2.1062 -1.1792
   27MOL0     H 3644   2.253  10.984   8.063 -1.1430 -0.3243  0.2855
   27MOL0     H 3645   2.067  10.820   8.047 -1.2246 -0.5154 -0.7793
   28MOL0     O 3646   4.941  10.713  10.998  0.3595 -0.9617  0.2274
   28MOL0     C 3647   5.038  10.766  11.053  0.7449 -0.0469 -0.7156
   28MOL0     O 3648   5.030  10.872  11.134 -0.8558  0.3966  0.3272
   28MOL0     C 3649   4.911  10.947  11.148 -0.2587 -0.3403 -1.1425
   28MOL0     C 3650   4.919  11.031  11.261 -0.2906  0.4853 -0.1718
   28MOL0     C 3651   4.818  11.132  11.280 -0.3948  0.4043 -0.1947
   28MOL0     C 3652   4.699  11.135  11.201 -0.3479 -0.0917 -0.9749
   28MOL0     O 3653   4.591  11.213  11.237  0.1247 -0.1173  0.1879
   28MOL0     C 3654   4.577  11.264  11.367  0.0335  0.0077 -0.4410
   28MOL0     C 3655   4.439  11.332  11.379  0.5440  0.3266  0.4910
   28MOL0     C 3656   4.318  11.235  11.359 -0.7520  0.7391 -0.3199
   28MOL0     C 3657   4.191  11.308  11.355  0.1659  0.5799  0.7322
   28MOL0     C 3658   4.178  11.380  11.223  0.3617 -0.2057  0.4005
   28MOL0     C 3659   4.045  11.457  11.211  0.7008 -0.0905  0.0148
   28MOL0     C 3660   3.933  11.359  11.225  0.0966 -0.7707 -0.4611
   28MOL0     C 3661   3.807  11.429  11.177  0.4389  0.1250 -0.3835
   28MOL0     N 3662   3.678  11.360  11.212  0.3433 -0.8123  0.8125
   28MOL0     C 3663   3.645  11.265  11.309 -0.1811  0.6054  0.9450
   28MOL0     C 3664   3.509  11.264  11.311 -0.9464 -0.0994 -0.5821
   28MOL0     C 3665   3.425  11.197  11.422 -0.0123 -0.3368 -0.7016
   28MOL0     C 3666   3.301  11.286  11.473 -0.1710  0.5487  1.4388
   28MOL0     C 3667   3.211  11.197  11.565 -0.1763  0.1831  0.1247
   28MOL0     C 3668   3.073  11.261  11.599  0.0527 -0.2346  0.1644
   28MOL0     O 3669   2.972  11.193  11.523  0.2874 -0.5909 -0.1250
   28MOL0     C 3670   2.835  11.196  11.552 -0.0421 -0.0555 -0.2895
   28MOL0     C 3671   2.772  11.256  11.659  0.1496 -0.1616  0.8317
   28MOL0     C 3672   2.633  11.246  11.681  0.4027  0.1167 -0.3645
   28MOL0     C 3673   2.583  11.290  11.804  0.4268  0.1790 -0.8202
   28MOL0     C 3674   2.558  11.181  11.581  0.5672  0.9903  0.4212
   28MOL0     C 3675   2.412  11.139  11.599 -0.1396 -0.1950 -0.6755
   28MOL0     O 3676   2.336  11.179  11.709 -0.3888 -0.2361 -0.2460
   28MOL0     C 3677   2.208  11.141  11.721 -0.0688 -0.4357 -0.1061
   28MOL0     C 3678   2.127  11.230  11.660 -0.2734  0.1822  0.1492
   28MOL0     C 3679   1.986  11.224  11.673 -0.0393  0.3118  1.4434
   28MOL0     C 3680   1.936  11.115  11.756  0.8165 -0.0335  1.0958
   28MOL0     O 3681   1.805  11.080  11.787  0.7008  0.3535  0.1806
   28MOL0     C 3682   1.708  11.148  11.711 -0.0927  0.1826 -0.2885
   28MOL0     C 3683   1.575  11.144  11.780 -1.0078  0.2683 -0.5636
   28MOL0     C 3684   1.492  11.018  11.762  0.2009 -0.4740 -0.2623
   28MOL0     C 3685   1.396  11.011  11.885  0.6447 -0.1221  0.1201
   28MOL0     C 3686   1.318  10.880  11.897  0.3031  0.9452  0.7194
   28MOL0     C 3687   1.196  10.893  11.802 -0.2944 -0.6314 -0.0392
   28MOL0     C 3688   1.097  10.779  11.822 -0.3565  0.0919 -0.0591
   28MOL0     C 3689   0.985  10.805  11.717  1.0078 -0.4019 -0.7438
   28MOL0    Cl 3690   0.865  10.678  11.723  0.2660 -0.1654  0.2246
   28MOL0     C 3691   2.020  11.033  11.819 -0.0676  0.5850 -0.6815
   28MOL0     C 3692   2.158  11.042  11.799 -0.3018 -0.2103 -0.1838
   28MOL0     O 3693   2.373  11.056  11.517  0.0584  0.7326 -0.3829
   28MOL0     C 3694   2.622  11.131  11.461  0.8074 -0.1195  0.2724
   28MOL0     C 3695   2.758  11.132  11.450  0.3521  0.1042  0.1067
   28MOL0     N 3696   3.459  11.353  11.213  0.8696  0.1557 -0.5332
   28MOL0     N 3697   3.562  11.398  11.152 -0.4194  0.1385  1.0150
   28MOL0     C 3698   4.700  11.052  11.087 -0.5464 -0.1347 -0.0284
   28MOL0     C 3699   4.805  10.965  11.066 -0.3550 -0.5312  0.2026
   28MOL0     C 3700   5.167  10.718  11.025  0.1357 -1.0269 -0.1670
   28MOL0     C 3701   5.186  10.626  10.919 -0.2308  0.2658  0.0189
   28MOL0     C 3702   5.314  10.586  10.881  0.3913  0.2922 -0.0212
   28MOL0     C 3703   5.426  10.631  10.955  0.9519 -0.4609  0.0415
   28MOL0     O 3704   5.538  10.578  10.914  0.0369 -0.1760  0.4677
   28MOL0     C 3705   5.643  10.567  11.014  0.0616  0.2620  0.8079
   28MOL0     C 3706   5.727  10.450  10.958  0.5394 -0.0468 -0.2821
   28MOL0     C 3707   5.866  10.451  11.002 -0.0166 -0.1494 -0.1351
   28MOL0     C 3708   5.943  10.325  10.953 -1.2285 -0.1579  0.6135
   28MOL0     C 3709   6.093  10.346  10.964 -0.3427 -0.2145  0.3846
   28MOL0     C 3710   6.214  10.356  10.969 -0.2188 -0.2418 -0.1670
   28MOL0     C 3711   5.407  10.730  11.051 -0.5885  0.1745 -0.1208
   28MOL0     C 3712   5.284  10.782  11.075  0.4035 -0.7318 -0.5013
   28MOL0     H 3713   5.006  11.025  11.326 -1.7368 -6.0858  1.9893
   28MOL0     H 3714   4.836  11.197  11.365  1.9958 -0.8281  0.3360
   28MOL0     H 3715   4.580  11.182  11.438 -1.7061  1.1264  0.9956
   28MOL0     H 3716   4.647  11.345  11.390 -2.5681  1.7106  2.1012
   28MOL0     H 3717   4.434  11.367  11.483 -3.1432 -0.5565  0.7360
   28MOL0     H 3718   4.442  11.415  11.308  0.3862  2.2173  2.5935
   28MOL0     H 3719   4.322  11.188  11.260 -1.2878  0.8603 -0.4006
   28MOL0     H 3720   4.305  11.162  11.439 -4.7044 -0.8537 -2.1354
   28MOL0     H 3721   4.107  11.239  11.351  1.5620 -1.1541 -0.1326
   28MOL0     H 3722   4.190  11.379  11.438 -0.8612  1.7900 -0.2685
   28MOL0     H 3723   4.254  11.454  11.195 -1.7557  1.1449 -2.1382
   28MOL0     H 3724   4.177  11.302  11.147 -1.1076 -1.8896  2.0334
   28MOL0     H 3725   4.037  11.533  11.289 -0.6250  3.2590 -3.1167
   28MOL0     H 3726   4.056  11.507  11.114  1.0189 -0.3656 -0.0970
   28MOL0     H 3727   3.948  11.271  11.161 -2.7556  0.2185 -2.7137
   28MOL0     H 3728   3.911  11.319  11.324 -1.3333 -1.9986 -1.2222
   28MOL0     H 3729   3.809  11.429  11.068 -0.4403 -0.9706 -0.4253
   28MOL0     H 3730   3.802  11.534  11.206 -1.2336 -0.3256  1.1503
   28MOL0     H 3731   3.715  11.209  11.371  1.5599  0.9732 -0.5923
   28MOL0     H 3732   3.400  11.092  11.404 -3.1728  0.0868  0.5779
   28MOL0     H 3733   3.503  11.210  11.497 -0.8515  1.8008 -0.1330
   28MOL0     H 3734   3.239  11.329  11.394 -1.9950  0.1744  2.6042
   28MOL0     H 3735   3.343  11.376  11.519  2.1533  1.5325 -2.2122
   28MOL0     H 3736   3.270  11.174  11.654 -0.8220  1.5722  0.9550
   28MOL0     H 3737   3.187  11.101  11.519  0.1455 -0.5580  1.4392
   28MOL0     H 3738   3.067  11.365  11.565 -0.5724 -0.6895 -1.1691
   28MOL0     H 3739   3.064  11.255  11.708  0.1057 -1.2857  0.1256
   28MOL0     H 3740   2.837  11.308  11.728  0.5177 -0.0964  0.4402
   28MOL0     H 3741   2.657  11.341  11.866  0.7304  1.5740 -2.2726
   28MOL0     H 3742   2.507  11.366  11.784  2.5014  2.5001 -0.4304
   28MOL0     H 3743   2.543  11.203  11.858 -0.5485  1.1779  0.1341
   28MOL0     H 3744   2.163  11.312  11.599 -0.5324 -1.8038 -2.9091
   28MOL0     H 3745   1.934  11.301  11.617 -0.0427 -0.6607  0.0658
   28MOL0     H 3746   1.741  11.251  11.693  0.9624 -0.2239 -0.7623
   28MOL0     H 3747   1.684  11.104  11.614 -2.5060  0.3595  0.1689
   28MOL0     H 3748   1.599  11.151  11.886 -0.9738 -1.0017 -0.4684
   28MOL0     H 3749   1.513  11.232  11.759 -0.1259  1.4765  1.5629
   28MOL0     H 3750   1.558  10.931  11.768  1.1926  0.3502  1.9147
   28MOL0     H 3751   1.427  11.033  11.675 -1.6116  0.9977  1.2686
   28MOL0     H 3752   1.460  11.013  11.974 -0.7042 -1.2860  1.1637
   28MOL0     H 3753   1.330  11.098  11.890  0.4677 -0.0690 -2.3391
   28MOL0     H 3754   1.296  10.864  12.003 -2.0053 -2.0306 -0.0620
   28MOL0     H 3755   1.372  10.793  11.858 -1.9970 -0.8072  1.2625
   28MOL0     H 3756   1.135  10.982  11.820  0.4775 -0.1223  0.0957
   28MOL0     H 3757   1.226  10.899  11.697 -1.1625  2.8219 -0.2128
   28MOL0     H 3758   1.064  10.783  11.926 -2.6929 -0.0436 -0.7306
   28MOL0     H 3759   1.142  10.682  11.800  1.2815  0.7676  0.1340
   28MOL0     H 3760   1.031  10.800  11.618 -1.3032  0.7956 -1.9565
   28MOL0     H 3761   0.943  10.906  11.721  1.9096  0.0165 -1.4461
   28MOL0     H 3762   1.976  10.950  11.874  2.2574  0.3082  0.9099
   28MOL0     H 3763   2.226  10.963  11.828 -1.6399 -1.1508  0.4754
   28MOL0     H 3764   2.560  11.078  11.388  0.8697  1.8959 -1.3288
   28MOL0     H 3765   2.800  11.079  11.365  3.0360 -0.7860  1.8572
   28MOL0     H 3766   4.624  11.063  11.011 -1.0662  3.6123  0.8295
   28MOL0     H 3767   4.799  10.917  10.969 -0.9094 -0.9967  0.4563
   28MOL0     H 3768   5.103  10.573  10.874  0.4737 -1.9534  1.1900
   28MOL0     H 3769   5.310  10.511  10.803 -1.1526  0.1585  0.1495
   28MOL0     H 3770   5.707  10.656  11.015  0.1226  0.2143  2.0052
   28MOL0     H 3771   5.603  10.559  11.115  1.0730  2.5384  1.4524
   28MOL0     H 3772   5.735  10.446  10.849 -0.7158 -3.5420 -0.3607
   28MOL0     H 3773   5.684  10.354  10.987 -1.0588  0.5508 -0.5507
   28MOL0     H 3774   5.857  10.439  11.110 -0.2778  1.4188  0.0344
   28MOL0     H 3775   5.925  10.541  10.979  1.1964 -0.5373  1.2800
   28MOL0     H 3776   5.933  10.321  10.844  0.1937 -2.7908  0.5005
   28MOL0     H 3777   5.915  10.235  11.009  1.2723 -0.3350  1.7031
   28MOL0     H 3778   6.319  10.373  10.959 -0.2189 -0.5037 -0.6706
   28MOL0     H 3779   5.492  10.778  11.098  0.5103 -0.9072 -0.9515
   28MOL0     H 3780   5.281  10.855  11.155  1.4315 -2.3670  1.1166
   29MOL0     O 3781   2.523   4.246   7.098  0.0529 -0.0900  0.8464
   29MOL0     C 3782   2.423   4.212   7.038 -0.1942 -0.4650 -0.7006
   29MOL0     O 3783   2.369   4.090   7.054 -0.3454 -0.1733 -0.3377
   29MOL0     C 3784   2.412   4.018   7.168  0.2648 -0.3276 -0.4044
   29MOL0     C 3785   2.514   3.928   7.152 -0.1401  0.1344 -0.2819
   29MOL0     C 3786   2.577   3.870   7.255  0.1131  0.0256 -0.0051
   29MOL0     C 3787   2.535   3.884   7.382  1.4151  0.8709  0.1721
   29MOL0     O 3788   2.589   3.813   7.487  0.0223  0.2715 -0.7730
   29MOL0     C 3789   2.596   3.672   7.465  0.4355  0.1886 -0.2836
   29MOL0     C 3790   2.451   3.617   7.456 -0.1111  0.8213  0.3229
   29MOL0     C 3791   2.374   3.637   7.590 -0.3855  0.4760 -0.1468
   29MOL0     C 3792   2.245   3.712   7.576  0.7327 -0.9188 -0.2464
   29MOL0     C 3793   2.146   3.677   7.685  0.4331  0.3050 -0.4077
   29MOL0     C 3794   2.017   3.757   7.663  0.4879  0.1691 -0.6118
   29MOL0     C 3795   1.915   3.720   7.775  0.3487  0.7563 -0.5167
   29MOL0     C 3796   1.784   3.788   7.753  0.6666  0.3239 -0.4224
   29MOL0     N 3797   1.682   3.761   7.853  0.3178 -0.1462 -0.4357
   29MOL0     C 3798   1.682   3.806   7.986 -0.4844  0.8339  0.3378
   29MOL0     C 3799   1.604   3.722   8.051  0.3423  0.7525  0.5141
   29MOL0     C 3800   1.560   3.731   8.201  1.0934 -0.1946  0.8084
   29MOL0     C 3801   1.541   3.876   8.241 -0.8177  0.3410  0.1980
   29MOL0     C 3802   1.412   3.956   8.200 -0.3884  0.5391 -0.3824
   29MOL0     C 3803   1.298   3.920   8.289  0.4854 -0.4973  0.1351
   29MOL0     O 3804   1.187   4.013   8.274 -0.7940  0.3981 -0.0247
   29MOL0     C 3805   1.061   3.986   8.322 -0.1606  0.2682  0.1531
   29MOL0     C 3806   1.023   3.891   8.420 -0.5413 -0.8357  0.3230
   29MOL0     C 3807   0.898   3.900   8.476 -0.4070  0.3641  0.4396
   29MOL0     C 3808   0.873   3.811   8.588  0.0475 -0.7250 -0.2417
   29MOL0     C 3809   0.801   3.985   8.423 -0.0449  0.3128  0.1487
   29MOL0     C 3810   0.659   3.992   8.463 -0.6198 -0.7777  0.0694
   29MOL0     O 3811   0.590   4.104   8.412  0.7648 -0.0057 -0.1399
   29MOL0     C 3812   0.467   4.127   8.469 -0.5455  0.1823  0.5201
   29MOL0     C 3813   0.469   4.189   8.597  0.0600  0.1772 -0.1150
   29MOL0     C 3814   0.344   4.214   8.660  0.4249  0.9163  1.2032
   29MOL0     C 3815   0.221   4.197   8.590 -0.6380  0.8258  0.0003
   29MOL0     O 3816   0.104   4.224   8.659  0.1774  0.2269  1.2229
   29MOL0     C 3817  -0.027   4.218   8.593  0.8429 -0.6434  0.3602
   29MOL0     C 3818  -0.053   4.342   8.496 -0.5244  0.1875 -0.0492
   29MOL0     C 3819  -0.204   4.354   8.476  0.6995 -0.1472 -0.9739
   29MOL0     C 3820  -0.279   4.449   8.571  0.6511 -0.6051 -0.0401
   29MOL0     C 3821  -0.407   4.403   8.636  0.2498  0.1070 -0.3175
   29MOL0     C 3822  -0.387   4.338   8.765 -1.0768 -0.0071 -0.6628
   29MOL0     C 3823  -0.519   4.339   8.835  0.2684  0.1860 -0.2377
   29MOL0     C 3824  -0.507   4.241   8.950  0.2723  0.0188  0.0623
   29MOL0    Cl 3825  -0.654   4.207   9.058 -0.0683 -0.3010  0.1279
   29MOL0     C 3826   0.225   4.149   8.456  0.0782  0.4062  0.7182
   29MOL0     C 3827   0.349   4.108   8.399  0.0612 -0.9423  0.7168
   29MOL0     O 3828   0.612   3.904   8.531 -0.5353 -0.3644 -0.0492
   29MOL0     C 3829   0.840   4.074   8.314 -0.0814  0.6518 -0.0709
   29MOL0     C 3830   0.974   4.085   8.284  0.0310  0.5556  0.5777
   29MOL0     N 3831   1.567   3.625   7.962  0.6691 -0.2887 -0.5225
   29MOL0     N 3832   1.608   3.647   7.847  0.2607 -0.3118 -0.2330
   29MOL0     C 3833   2.431   3.984   7.407  0.3060 -0.1866  0.9183
   29MOL0     C 3834   2.369   4.048   7.290  0.7250  0.2811 -0.6674
   29MOL0     C 3835   2.370   4.314   6.949  1.0191  0.1329  0.5228
   29MOL0     C 3836   2.232   4.324   6.937  0.2212  0.2524 -0.4170
   29MOL0     C 3837   2.184   4.432   6.861  0.5072 -0.4919  0.5200
   29MOL0     C 3838   2.263   4.532   6.808  0.4403 -0.0617  0.2639
   29MOL0     O 3839   2.192   4.630   6.747  0.0441 -0.5497 -0.2333
   29MOL0     C 3840   2.261   4.745   6.696 -0.3675  0.0436  0.4977
   29MOL0     C 3841   2.165   4.837   6.614 -0.2063  0.5707  1.0925
   29MOL0     C 3842   2.078   4.926   6.706  0.3051 -0.2789  0.8539
   29MOL0     C 3843   2.153   5.032   6.774  0.3444  0.3114 -1.1650
   29MOL0     C 3844   2.256   5.091   6.695  0.2486 -0.5028  0.3736
   29MOL0     C 3845   2.354   5.138   6.641  1.1179 -0.8347  0.2473
   29MOL0     C 3846   2.399   4.525   6.831 -0.7816  0.5870  0.0533
   29MOL0     C 3847   2.451   4.409   6.897  1.1737 -0.2422  0.8202
   29MOL0     H 3848   2.548   3.897   7.054 -0.8029  0.9335 -0.7730
   29MOL0     H 3849   2.662   3.804   7.245  3.0417  3.2994  1.2050
   29MOL0     H 3850   2.659   3.647   7.379  0.0126 -2.6257  0.1119
   29MOL0     H 3851   2.655   3.625   7.544 -1.7529 -1.0009  0.7386
   29MOL0     H 3852   2.394   3.665   7.376 -2.6201 -1.4438  0.5987
   29MOL0     H 3853   2.447   3.509   7.436  0.5621  0.7655  0.4708
   29MOL0     H 3854   2.370   3.535   7.628  2.1276  1.0045  1.8345
   29MOL0     H 3855   2.426   3.695   7.667 -0.7966 -0.6273  0.9973
   29MOL0     H 3856   2.262   3.820   7.581 -3.3669 -0.1845  1.8534
   29MOL0     H 3857   2.209   3.689   7.475  3.2872 -2.5092 -0.8673
   29MOL0     H 3858   2.116   3.573   7.668 -0.8971  0.5629  0.2638
   29MOL0     H 3859   2.168   3.679   7.792 -3.2726  2.0953  0.4771
   29MOL0     H 3860   2.040   3.863   7.676  2.8277 -0.4512  0.8589
   29MOL0     H 3861   1.976   3.747   7.562 -0.5926  1.1221 -0.2924
   29MOL0     H 3862   1.899   3.613   7.762  4.9125 -0.3316  0.8624
   29MOL0     H 3863   1.944   3.745   7.877  2.1828 -0.6647 -0.6354
   29MOL0     H 3864   1.737   3.765   7.657 -0.4616 -2.4366  0.6795
   29MOL0     H 3865   1.797   3.896   7.759 -2.4934  0.7631  0.8376
   29MOL0     H 3866   1.740   3.893   8.017  1.6347 -0.3261 -0.1859
   29MOL0     H 3867   1.465   3.688   8.233  2.3171 -1.6334  2.7408
   29MOL0     H 3868   1.630   3.677   8.266  2.7445 -0.0124 -0.7284
   29MOL0     H 3869   1.634   3.928   8.219 -0.8085  0.2924  0.1191
   29MOL0     H 3870   1.546   3.881   8.351 -1.6083  2.7290  0.1759
   29MOL0     H 3871   1.402   3.934   8.093  0.7009  2.0883 -0.8422
   29MOL0     H 3872   1.430   4.063   8.216  0.8324  0.3724 -0.5813
   29MOL0     H 3873   1.330   3.918   8.394 -1.1746  0.3794  0.6938
   29MOL0     H 3874   1.259   3.826   8.249  1.1805 -1.7750  2.2856
   29MOL0     H 3875   1.098   3.817   8.446  0.6022  0.8481  2.1961
   29MOL0     H 3876   0.805   3.726   8.571 -2.7110  1.3335 -0.1848
   29MOL0     H 3877   0.971   3.782   8.626 -0.5077 -2.2631  0.1042
   29MOL0     H 3878   0.811   3.866   8.659  0.9516 -0.9277  0.7385
   29MOL0     H 3879   0.558   4.206   8.657 -0.0094  2.4563 -0.5734
   29MOL0     H 3880   0.342   4.250   8.762 -1.1430  2.8839  0.5349
   29MOL0     H 3881  -0.045   4.129   8.532 -0.3392  1.3060 -2.3017
   29MOL0     H 3882  -0.100   4.226   8.675 -0.2915  1.3455 -0.7870
   29MOL0     H 3883   0.000   4.431   8.530  0.7515 -0.7463  0.4938
   29MOL0     H 3884   0.000   4.323   8.402  1.6415  2.6176  0.5973
   29MOL0     H 3885  -0.247   4.256   8.494 -0.0915  0.5194  1.1230
   29MOL0     H 3886  -0.234   4.395   8.379 -1.3432 -3.4994 -1.9148
   29MOL0     H 3887  -0.210   4.487   8.648 -1.9622 -0.7224  2.5403
   29MOL0     H 3888  -0.299   4.536   8.507  1.3732 -0.7840 -0.5223
   29MOL0     H 3889  -0.469   4.335   8.577 -1.0259  1.6328 -0.7994
   29MOL0     H 3890  -0.466   4.492   8.662 -1.6967 -2.1378  3.9935
   29MOL0     H 3891  -0.363   4.232   8.751  0.6905  0.5035 -1.9364
   29MOL0     H 3892  -0.302   4.373   8.824 -0.6475 -2.6899  0.4732
   29MOL0     H 3893  -0.600   4.312   8.767  0.8517 -1.4674 -0.3283
   29MOL0     H 3894  -0.529   4.435   8.887  0.2539 -0.2782  0.6340
   29MOL0     H 3895  -0.435   4.291   9.016  1.3714 -2.0458  0.5390
   29MOL0     H 3896  -0.464   4.148   8.912  1.9093 -0.5418  2.9560
   29MOL0     H 3897   0.135   4.143   8.396 -0.6215  1.0992  1.6846
   29MOL0     H 3898   0.359   4.053   8.306 -1.2615 -1.7779  1.0390
   29MOL0     H 3899   0.778   4.142   8.258  1.5038 -0.2037 -3.0366
   29MOL0     H 3900   0.998   4.167   8.216 -1.4202  0.9926  0.5537
   29MOL0     H 3901   2.401   3.996   7.510 -1.8099 -2.7783  0.7017
   29MOL0     H 3902   2.289   4.120   7.308  0.1339 -0.9167  2.0308
   29MOL0     H 3903   2.170   4.253   6.990  1.5578 -0.8744 -0.3108
   29MOL0     H 3904   2.080   4.426   6.831  1.5716 -2.4357 -3.4011
   29MOL0     H 3905   2.309   4.799   6.778  0.9179 -1.7615  0.9957
   29MOL0     H 3906   2.339   4.710   6.628  0.5903  0.1266  1.5162
   29MOL0     H 3907   2.115   4.763   6.551 -0.1537 -1.6555  3.5060
   29MOL0     H 3908   2.226   4.901   6.550 -1.1075 -1.5831 -2.2011
   29MOL0     H 3909   2.021   4.868   6.779 -0.3941  0.4414  0.8885
   29MOL0     H 3910   2.016   4.983   6.637  0.5002  0.7115  1.4687
   29MOL0     H 3911   2.191   4.999   6.871 -2.0503 -1.2533 -0.6637
   29MOL0     H 3912   2.081   5.114   6.786 -1.0131 -0.9568 -0.3702
   29MOL0     H 3913   2.438   5.186   6.595  1.0360 -1.1479 -0.2347
   29MOL0     H 3914   2.469   4.603   6.803  1.0048 -1.4605 -1.5470
   29MOL0     H 3915   2.558   4.406   6.910  1.2521 -0.0771  0.2502
   30MOL0     O 3916   0.659   0.737   8.298 -0.3299  0.5671 -0.1011
   30MOL0     C 3917   0.691   0.656   8.211 -0.7705  0.1395 -0.0494
   30MOL0     O 3918   0.674   0.675   8.080  0.0632  0.4213  0.4922
   30MOL0     C 3919   0.599   0.780   8.035 -0.8785 -0.2643 -0.2782
   30MOL0     C 3920   0.648   0.849   7.922  0.6615  0.1677  0.3874
   30MOL0     C 3921   0.594   0.969   7.866  0.7005  0.3755  0.3224
   30MOL0     C 3922   0.470   1.014   7.920 -0.6291 -0.0995  1.1342
   30MOL0     O 3923   0.393   1.114   7.866 -0.2263 -0.2149 -0.5943
   30MOL0     C 3924   0.413   1.145   7.730 -0.5689  0.4665 -0.3397
   30MOL0     C 3925   0.306   1.240   7.679  0.6643  0.7690 -0.7912
   30MOL0     C 3926   0.166   1.199   7.712 -0.0048  0.3987  0.2214
   30MOL0     C 3927   0.053   1.282   7.639 -0.4163 -0.2951 -0.4311
   30MOL0     C 3928  -0.098   1.222   7.640 -0.9101 -0.3845 -0.0073
   30MOL0     C 3929  -0.144   1.171   7.776 -0.0839 -0.2612 -0.3810
   30MOL0     C 3930  -0.294   1.184   7.800  0.1437 -0.2851 -0.0510
   30MOL0     C 3931  -0.337   1.136   7.938 -0.0015  0.0303 -0.9971
   30MOL0     N 3932  -0.431   1.027   7.928 -0.1976 -0.1478  0.3371
   30MOL0     C 3933  -0.568   1.032   7.922  0.2015  0.5186 -1.2943
   30MOL0     C 3934  -0.611   0.909   7.887 -0.0701  0.3881 -0.8951
   30MOL0     C 3935  -0.758   0.864   7.865  0.1327 -0.1573 -0.0165
   30MOL0     C 3936  -0.803   0.878   7.725 -0.6892 -0.0593  0.6166
   30MOL0     C 3937  -0.840   1.025   7.670  0.1634 -0.5767 -0.2943
   30MOL0     C 3938  -0.955   1.095   7.747 -0.6999 -0.2259 -0.0544
   30MOL0     O 3939  -1.080   1.027   7.708  0.2385 -0.2058 -0.2377
   30MOL0     C 3940  -1.197   1.073   7.762  0.8866 -0.2052 -0.8122
   30MOL0     C 3941  -1.212   1.187   7.837 -0.8953 -0.1386 -0.0608
   30MOL0     C 3942  -1.336   1.224   7.891  0.0985  0.6519 -0.2426
   30MOL0     C 3943  -1.343   1.345   7.976  0.5484  0.9951  0.0477
   30MOL0     C 3944  -1.451   1.149   7.865  0.0720  0.6469  0.1445
   30MOL0     C 3945  -1.595   1.177   7.908 -0.4085  0.2707  0.3914
   30MOL0     O 3946  -1.688   1.080   7.869  0.5062  0.1845  0.1487
   30MOL0     C 3947  -1.806   1.099   7.937 -0.4074  0.3411 -0.3191
   30MOL0     C 3948  -1.898   1.194   7.904  0.3172  0.8392 -0.3522
   30MOL0     C 3949  -2.009   1.209   7.981  0.4590  0.4534  0.4300
   30MOL0     C 3950  -2.037   1.122   8.087 -0.6115 -0.5657  0.0650
   30MOL0     O 3951  -2.149   1.141   8.166  0.1692  0.8086 -0.2405
   30MOL0     C 3952  -2.269   1.162   8.083  0.1634 -1.5063 -0.1248
   30MOL0     C 3953  -2.402   1.134   8.147 -0.0639  0.7021  0.3205
   30MOL0     C 3954  -2.427   0.982   8.154 -0.3879 -0.4273  0.0066
   30MOL0     C 3955  -2.574   0.962   8.167 -1.1781  0.1171  0.6046
   30MOL0     C 3956  -2.602   0.810   8.163 -0.0693 -0.0503 -0.3451
   30MOL0     C 3957  -2.752   0.779   8.154 -0.6345  0.8084 -0.0665
   30MOL0     C 3958  -2.762   0.624   8.159  0.4773 -0.7935  0.2078
   30MOL0     C 3959  -2.894   0.569   8.204  0.6891  0.0899 -0.0251
   30MOL0    Cl 3960  -3.023   0.590   8.078 -0.2529  0.0219 -0.2686
   30MOL0     C 3961  -1.933   1.038   8.134  0.7228 -0.8110 -0.1816
   30MOL0     C 3962  -1.823   1.027   8.053 -0.1337 -0.0755 -0.1011
   30MOL0     O 3963  -1.616   1.290   7.945  0.0911 -0.5856  0.1064
   30MOL0     C 3964  -1.436   1.032   7.787 -0.2298  0.5385  0.4513
   30MOL0     C 3965  -1.313   0.995   7.742 -0.5324  0.4934  0.1179
   30MOL0     N 3966  -0.497   0.830   7.875 -0.0013 -0.0508 -0.0244
   30MOL0     N 3967  -0.396   0.903   7.897 -0.3029  0.9428  0.1807
   30MOL0     C 3968   0.416   0.948   8.026  0.0887  0.7185  0.2589
   30MOL0     C 3969   0.484   0.836   8.098 -0.5598 -0.4924  0.2034
   30MOL0     C 3970   0.791   0.550   8.248 -1.0018  0.6345  0.4991
   30MOL0     C 3971   0.845   0.458   8.159 -0.1299  0.7531  0.8492
   30MOL0     C 3972   0.962   0.385   8.191  0.5371 -0.7920  0.1369
   30MOL0     C 3973   1.026   0.389   8.314  0.1043  0.1835  0.3788
   30MOL0     O 3974   1.150   0.319   8.351 -0.3502 -0.1362  0.0763
   30MOL0     C 3975   1.144   0.176   8.310 -0.6218 -0.2931 -0.1240
   30MOL0     C 3976   1.264   0.100   8.348 -0.2740 -0.2102 -0.1077
   30MOL0     C 3977   1.251  -0.047   8.290  0.0950  0.4913 -0.4399
   30MOL0     C 3978   1.393  -0.118   8.279  0.4990 -0.4664  0.0082
   30MOL0     C 3979   1.488  -0.033   8.206  0.4509 -0.2296 -0.3085
   30MOL0     C 3980   1.556   0.052   8.147  0.4337  0.8126 -0.2843
   30MOL0     C 3981   0.968   0.481   8.415 -0.0792 -0.9483  0.3016
   30MOL0     C 3982   0.851   0.551   8.376 -0.7808 -0.4664 -0.1964
   30MOL0     H 3983   0.742   0.812   7.882  1.9454  0.2600  3.0702
   30MOL0     H 3984   0.641   1.003   7.774  3.0223  1.9473  1.9567
   30MOL0     H 3985   0.512   1.192   7.727  0.0030 -0.5941  0.8274
   30MOL0     H 3986   0.419   1.058   7.665  0.5162  1.5199 -1.7115
   30MOL0     H 3987   0.325   1.339   7.721  0.8605  0.4749 -0.1910
   30MOL0     H 3988   0.309   1.259   7.571 -2.0076  1.5460 -0.7982
   30MOL0     H 3989   0.162   1.092   7.686 -1.9553  0.9156 -1.8770
   30MOL0     H 3990   0.149   1.209   7.820  3.8312  0.5294  0.9418
   30MOL0     H 3991   0.042   1.382   7.681 -1.4148  0.5087 -2.4497
   30MOL0     H 3992   0.075   1.294   7.532  0.9289 -1.0629 -0.2684
   30MOL0     H 3993  -0.162   1.299   7.595  1.0513  0.7309 -1.0511
   30MOL0     H 3994  -0.095   1.139   7.569  0.9353  1.2522 -2.0238
   30MOL0     H 3995  -0.113   1.066   7.779 -0.3622 -0.3475  2.2814
   30MOL0     H 3996  -0.085   1.218   7.855  2.9927  0.0793 -2.6868
   30MOL0     H 3997  -0.300   1.293   7.800 -0.2826 -0.2873  1.5843
   30MOL0     H 3998  -0.348   1.141   7.715  1.5887 -0.0244 -1.1264
   30MOL0     H 3999  -0.383   1.214   8.000 -1.6727 -3.9138  3.2678
   30MOL0     H 4000  -0.252   1.095   7.994  0.4118 -0.2837 -1.8398
   30MOL0     H 4001  -0.628   1.117   7.953 -1.9532 -1.7668  1.4166
   30MOL0     H 4002  -0.771   0.758   7.889 -0.6913  0.3604  2.0741
   30MOL0     H 4003  -0.826   0.925   7.926 -3.2403 -2.6636 -0.9574
   30MOL0     H 4004  -0.888   0.810   7.715  0.1359 -0.8887 -1.0576
   30MOL0     H 4005  -0.731   0.835   7.655 -0.5088  2.1214 -0.6100
   30MOL0     H 4006  -0.885   1.028   7.571  0.2951  1.4429 -0.3308
   30MOL0     H 4007  -0.750   1.088   7.674 -0.0974 -0.0652 -1.7701
   30MOL0     H 4008  -0.958   1.201   7.719  0.5520 -0.0444  0.4338
   30MOL0     H 4009  -0.940   1.087   7.855 -3.5867 -0.0057  0.4373
   30MOL0     H 4010  -1.123   1.243   7.864 -2.6654  1.4933  2.8714
   30MOL0     H 4011  -1.417   1.409   7.928 -0.9266  0.8915  2.0302
   30MOL0     H 4012  -1.393   1.308   8.066  0.7022  0.0401 -0.2506
   30MOL0     H 4013  -1.245   1.386   8.001  0.4277  0.9005  0.6906
   30MOL0     H 4014  -1.883   1.246   7.810 -1.5475 -2.8940 -2.9969
   30MOL0     H 4015  -2.081   1.284   7.951  2.3332  2.0912 -0.2049
   30MOL0     H 4016  -2.275   1.268   8.059 -0.4920 -1.6412 -0.5986
   30MOL0     H 4017  -2.272   1.092   7.999 -2.3217 -0.2172 -1.2160
   30MOL0     H 4018  -2.418   1.178   8.247 -0.7524  0.4444  0.3301
   30MOL0     H 4019  -2.482   1.168   8.081  0.2691 -1.3565 -1.2368
   30MOL0     H 4020  -2.366   0.944   8.237  0.9729  0.5176 -0.5299
   30MOL0     H 4021  -2.398   0.935   8.060 -0.8160 -1.9434  0.5976
   30MOL0     H 4022  -2.616   0.999   8.261 -0.9149  0.9696  0.4033
   30MOL0     H 4023  -2.627   1.003   8.080  1.7263  1.7894 -0.5481
   30MOL0     H 4024  -2.559   0.769   8.254 -1.4614  1.7012  1.1822
   30MOL0     H 4025  -2.561   0.774   8.068  0.4130  1.0009 -0.5605
   30MOL0     H 4026  -2.798   0.807   8.249  0.0073 -1.0691  0.8433
   30MOL0     H 4027  -2.815   0.831   8.081 -1.3580 -0.0071 -0.0405
   30MOL0     H 4028  -2.678   0.588   8.220  1.2043 -0.4790 -0.5832
   30MOL0     H 4029  -2.740   0.592   8.056 -1.2496 -0.8008 -0.1883
   30MOL0     H 4030  -2.920   0.617   8.299  2.0390 -0.6612  0.7593
   30MOL0     H 4031  -2.884   0.462   8.224 -1.8346  0.5305  5.6533
   30MOL0     H 4032  -1.953   0.979   8.222 -0.0016  0.1353  0.3080
   30MOL0     H 4033  -1.752   0.946   8.068  2.2755  1.5022 -2.0622
   30MOL0     H 4034  -1.513   0.963   7.751  0.0706 -0.7914  2.2279
   30MOL0     H 4035  -1.308   0.898   7.693  0.1074 -0.4963  2.0664
   30MOL0     H 4036   0.323   0.990   8.064 -0.7346 -0.4627 -0.4045
   30MOL0     H 4037   0.430   0.798   8.184 -1.4399  0.8544  0.2930
   30MOL0     H 4038   0.803   0.449   8.059 -1.9454  0.3208  1.6302
   30MOL0     H 4039   1.001   0.314   8.119  2.8613  0.8800 -0.3933
   30MOL0     H 4040   1.054   0.138   8.359  0.1582  0.5309  2.0444
   30MOL0     H 4041   1.146   0.172   8.200  1.5001  2.5172 -0.3139
   30MOL0     H 4042   1.261   0.085   8.456  0.5256  1.7776  0.2236
   30MOL0     H 4043   1.359   0.145   8.319 -1.5843  1.9655 -1.3421
   30MOL0     H 4044   1.223  -0.043   8.184 -2.1864  0.1582  0.0985
   30MOL0     H 4045   1.177  -0.107   8.343  1.2772 -0.6998 -0.0890
   30MOL0     H 4046   1.376  -0.211   8.224 -1.0728  0.7425 -1.6849
   30MOL0     H 4047   1.438  -0.147   8.374  2.3720 -0.8075 -0.9489
   30MOL0     H 4048   1.622   0.120   8.096  0.3359 -0.3002 -1.9876
   30MOL0     H 4049   1.020   0.497   8.509  0.3431  0.5406 -0.1659
   30MOL0     H 4050   0.816   0.614   8.457  2.3031  0.7930  0.2978
   31MOL0     O 4051   8.732   4.832  10.696  0.2253 -0.7597  0.3647
   31MOL0     C 4052   8.777   4.948  10.689 -0.7375  0.1557  0.8836
   31MOL0     O 4053   8.709   5.065  10.692  0.7334  0.1840  0.5443
   31MOL0     C 4054   8.572   5.060  10.712  0.5073  0.0853 -0.2715
   31MOL0     C 4055   8.513   5.015  10.836 -0.0212  0.4892  0.4971
   31MOL0     C 4056   8.376   4.988  10.848 -0.8831 -0.2151 -0.5167
   31MOL0     C 4057   8.287   4.999  10.741  0.1739  0.2266  0.2328
   31MOL0     O 4058   8.159   4.953  10.774 -0.6653  0.0883  0.2396
   31MOL0     C 4059   8.083   4.895  10.666 -0.4138  0.1544  0.6580
   31MOL0     C 4060   7.954   4.831  10.711 -0.0511  0.1127  0.3832
   31MOL0     C 4061   7.838   4.931  10.720  0.0974 -0.1636  0.1623
   31MOL0     C 4062   7.728   4.864  10.801 -0.2467  0.1130  0.9735
   31MOL0     C 4063   7.618   4.959  10.835  0.5206 -0.2785  1.0489
   31MOL0     C 4064   7.557   5.008  10.699 -0.3318  0.4253  1.0976
   31MOL0     C 4065   7.414   5.057  10.709  0.3583  0.4791 -1.3706
   31MOL0     C 4066   7.400   5.190  10.792  0.5959  0.0281 -0.9748
   31MOL0     N 4067   7.255   5.194  10.806  0.9076  0.3111  0.1758
   31MOL0     C 4068   7.186   5.154  10.916  0.0589 -0.0508 -0.1871
   31MOL0     C 4069   7.070   5.227  10.906  0.7590 -0.1486 -0.1028
   31MOL0     C 4070   6.971   5.216  11.010 -0.7851  0.0187 -0.2809
   31MOL0     C 4071   6.865   5.117  10.971  0.0193 -0.0263  0.3795
   31MOL0     C 4072   6.756   5.107  11.086 -0.5778  0.4936 -0.0087
   31MOL0     C 4073   6.651   4.996  11.060 -0.6890 -0.6141 -0.8205
   31MOL0     O 4074   6.542   5.046  10.984  0.3143 -0.6789 -0.2381
   31MOL0     C 4075   6.418   4.990  11.005  0.2240 -0.1289 -1.1736
   31MOL0     C 4076   6.315   5.049  11.079 -0.0950 -0.5917 -0.1238
   31MOL0     C 4077   6.184   5.002  11.076 -0.0840  1.2285 -0.0416
   31MOL0     C 4078   6.083   5.086  11.161  0.2650 -0.3944  0.0294
   31MOL0     C 4079   6.155   4.887  11.003  0.1902  1.2422 -0.1184
   31MOL0     C 4080   6.011   4.825  10.997  0.0969 -1.2804 -0.1602
   31MOL0     O 4081   6.007   4.697  10.942  0.0209 -0.0604  0.1739
   31MOL0     C 4082   5.880   4.643  10.924  0.5455  0.0036 -0.7575
   31MOL0     C 4083   5.852   4.529  10.996  0.2149 -0.6364 -0.0104
   31MOL0     C 4084   5.741   4.451  10.967 -0.0420  0.0516  0.6452
   31MOL0     C 4085   5.647   4.496  10.877  0.0056 -1.1323  0.0688
   31MOL0     O 4086   5.534   4.423  10.864  0.5488 -0.1329  0.3902
   31MOL0     C 4087   5.421   4.495  10.810  0.0736 -0.5080 -0.0698
   31MOL0     C 4088   5.297   4.393  10.826 -0.5801 -0.1554 -0.7674
   31MOL0     C 4089   5.161   4.467  10.800  0.0906 -0.9391 -0.2602
   31MOL0     C 4090   5.146   4.515  10.654  1.0336 -0.5838 -0.0269
   31MOL0     C 4091   5.012   4.587  10.634  0.6906  1.0645  0.1770
   31MOL0     C 4092   4.952   4.558  10.491 -0.3885 -0.6050 -0.3673
   31MOL0     C 4093   5.051   4.583  10.380 -0.2595 -0.9817 -0.2975
   31MOL0     C 4094   5.010   4.520  10.241  0.5105 -0.4421  0.0413
   31MOL0    Cl 4095   4.842   4.570  10.207  0.0501 -0.2195  0.0028
   31MOL0     C 4096   5.672   4.609  10.794 -0.0550 -0.0993  0.0246
   31MOL0     C 4097   5.791   4.675  10.819 -1.0313  0.0160 -0.1672
   31MOL0     O 4098   5.912   4.891  11.029  0.5859 -0.3508  0.1036
   31MOL0     C 4099   6.261   4.821  10.931 -0.2020 -0.1043  0.6723
   31MOL0     C 4100   6.386   4.875  10.933 -0.8471 -0.7743  0.1929
   31MOL0     N 4101   7.065   5.297  10.786  0.1238  0.1217 -0.1273
   31MOL0     N 4102   7.181   5.279  10.734 -0.6572 -0.4635  0.8139
   31MOL0     C 4103   8.345   5.045  10.619 -0.8712 -0.7537  0.2061
   31MOL0     C 4104   8.487   5.073  10.600 -0.2490  0.6779  0.1080
   31MOL0     C 4105   8.933   4.956  10.697 -0.6912 -0.3708  1.0772
   31MOL0     C 4106   9.001   4.854  10.761 -0.5133  1.3738  0.4450
   31MOL0     C 4107   9.139   4.854  10.767 -0.8579 -0.1475  0.7194
   31MOL0     C 4108   9.211   4.971  10.715 -0.6147 -0.5776  0.2774
   31MOL0     O 4109   9.346   4.984  10.713  0.5660 -0.3347  0.0898
   31MOL0     C 4110   9.431   4.888  10.771  0.2302 -0.6800  0.3841
   31MOL0     C 4111   9.572   4.942  10.790  0.9214 -0.5723  0.4887
   31MOL0     C 4112   9.642   4.951  10.659  0.4034  0.4043  0.1377
   31MOL0     C 4113   9.790   4.999  10.687  0.0582  0.5766  0.0462
   31MOL0     C 4114   9.813   5.118  10.758 -0.2848 -1.4698  0.2555
   31MOL0     C 4115   9.842   5.219  10.824 -0.3130 -0.4720  0.7074
   31MOL0     C 4116   9.135   5.076  10.661 -0.2891 -0.0987  0.1565
   31MOL0     C 4117   9.001   5.065  10.644 -0.0555 -1.2446 -0.0003
   31MOL0     H 4118   8.581   5.009  10.920  0.4768  0.0267  0.0680
   31MOL0     H 4119   8.338   4.964  10.946 -0.5115  0.0053 -0.3152
   31MOL0     H 4120   8.060   4.976  10.595 -2.0869  0.3317  1.3611
   31MOL0     H 4121   8.149   4.821  10.620  1.9486  1.4017  1.8738
   31MOL0     H 4122   7.920   4.761  10.634  0.0621 -1.4705  1.7071
   31MOL0     H 4123   7.970   4.786  10.810 -0.9659  1.6236  1.2593
   31MOL0     H 4124   7.859   5.027  10.767  0.7318 -1.1200  1.9420
   31MOL0     H 4125   7.808   4.950  10.616 -0.6213  0.2343  0.4328
   31MOL0     H 4126   7.685   4.780  10.745 -1.6179  3.0308 -2.8040
   31MOL0     H 4127   7.781   4.836  10.892  1.4427 -2.4934 -0.6560
   31MOL0     H 4128   7.541   4.919  10.902 -0.6330 -0.1572 -0.1582
   31MOL0     H 4129   7.657   5.050  10.882  0.0559 -0.3546  1.5843
   31MOL0     H 4130   7.614   5.091  10.656 -2.2377  1.7128  0.9668
   31MOL0     H 4131   7.558   4.935  10.618 -0.5996  2.1479 -0.5097
   31MOL0     H 4132   7.375   5.073  10.608  0.3482  0.4132 -1.3777
   31MOL0     H 4133   7.362   4.971  10.751  0.4100 -0.2508 -2.7496
   31MOL0     H 4134   7.437   5.280  10.743  1.3697  0.3891  0.2275
   31MOL0     H 4135   7.454   5.180  10.886 -0.1222 -2.5544 -0.7453
   31MOL0     H 4136   7.216   5.089  10.998 -0.4362 -0.0353  0.0126
   31MOL0     H 4137   7.013   5.182  11.104 -2.2032  0.4635  0.5514
   31MOL0     H 4138   6.917   5.309  11.030 -1.4743 -0.8342  2.1186
   31MOL0     H 4139   6.924   5.030  10.942  1.0597  1.9444 -4.2898
   31MOL0     H 4140   6.831   5.140  10.870  0.4133  1.9752  0.6470
   31MOL0     H 4141   6.700   5.200  11.094 -0.3338  0.5661  1.0001
   31MOL0     H 4142   6.797   5.079  11.184 -0.0496  0.7566 -0.1485
   31MOL0     H 4143   6.601   4.970  11.154 -2.7352  1.1503 -1.3330
   31MOL0     H 4144   6.696   4.903  11.024 -1.3210 -1.8508  1.4146
   31MOL0     H 4145   6.347   5.143  11.122 -0.4694  0.7107 -2.5337
   31MOL0     H 4146   6.123   5.185  11.186 -0.1588 -0.4648  1.0269
   31MOL0     H 4147   5.982   5.106  11.125  0.3011  0.0327  0.1556
   31MOL0     H 4148   6.060   5.034  11.254 -0.0392 -1.3695 -0.5756
   31MOL0     H 4149   5.923   4.490  11.068 -1.2887 -2.9626  0.2916
   31MOL0     H 4150   5.732   4.354  11.013  1.9610 -1.1737 -1.3308
   31MOL0     H 4151   5.393   4.588  10.858 -1.4990  0.5501 -2.7971
   31MOL0     H 4152   5.441   4.510  10.703  0.4494 -2.5859 -0.3420
   31MOL0     H 4153   5.324   4.318  10.751  0.5739  1.9424 -2.5882
   31MOL0     H 4154   5.308   4.357  10.928 -0.7866  1.1006 -0.2839
   31MOL0     H 4155   5.158   4.546  10.875  0.0808 -0.6698 -0.5450
   31MOL0     H 4156   5.083   4.397  10.832 -1.2231  1.7205  2.8245
   31MOL0     H 4157   5.223   4.585  10.620  0.3140 -0.2708 -1.0750
   31MOL0     H 4158   5.151   4.424  10.594 -0.3744 -1.3744  0.9961
   31MOL0     H 4159   5.028   4.694  10.646  0.9017  1.1957 -1.1114
   31MOL0     H 4160   4.938   4.558  10.709  0.0725  3.6106  0.6403
   31MOL0     H 4161   4.929   4.451  10.490  0.7596 -0.9030  1.0696
   31MOL0     H 4162   4.860   4.616  10.488 -0.7841 -1.2091 -0.1652
   31MOL0     H 4163   5.155   4.559  10.404 -0.5173 -0.7574  1.1183
   31MOL0     H 4164   5.052   4.691  10.359  0.3848 -1.3154 -2.1897
   31MOL0     H 4165   5.010   4.411  10.237 -3.1487 -0.6793  2.0878
   31MOL0     H 4166   5.076   4.547  10.158 -2.7029 -0.6883 -2.8379
   31MOL0     H 4167   5.611   4.645  10.711  0.4231 -0.7309 -0.6103
   31MOL0     H 4168   5.814   4.759  10.754  0.8481  2.1937  3.0789
   31MOL0     H 4169   6.232   4.733  10.873  0.8719  1.2907 -2.1989
   31MOL0     H 4170   6.457   4.834  10.862 -1.5030 -1.6281  0.0020
   31MOL0     H 4171   8.284   5.029  10.530 -0.4353  1.0122 -0.4681
   31MOL0     H 4172   8.523   5.096  10.500  1.7011  2.9779  1.2198
   31MOL0     H 4173   8.954   4.767  10.806  2.1770  0.2603  1.3615
   31MOL0     H 4174   9.194   4.767  10.804  1.1035  0.6069 -0.3006
   31MOL0     H 4175   9.389   4.865  10.870 -3.8422  4.0054  0.1716
   31MOL0     H 4176   9.426   4.802  10.705 -1.1037 -0.5437  0.2778
   31MOL0     H 4177   9.617   4.864  10.852 -0.3373 -2.4359 -0.8649
   31MOL0     H 4178   9.569   5.040  10.839 -0.6805 -1.5545  2.5060
   31MOL0     H 4179   9.596   5.024  10.592  1.9797  2.6144  1.2817
   31MOL0     H 4180   9.647   4.849  10.620  0.6052 -0.3859  2.1239
   31MOL0     H 4181   9.846   5.013  10.594  2.4285 -0.5188  1.2108
   31MOL0     H 4182   9.853   4.926  10.738  0.1198 -0.1641 -1.0392
   31MOL0     H 4183   9.876   5.301  10.884  4.3764 -2.6038  1.4299
   31MOL0     H 4184   9.179   5.171  10.634 -1.7315  0.5980  0.2056
   31MOL0     H 4185   8.946   5.141  10.588 -0.9056 -2.4782 -0.9170
   32MOL0     O 4186   6.306   5.691   9.187  0.1260 -0.2640  0.1253
   32MOL0     C 4187   6.324   5.732   9.078 -0.1935 -0.6913  0.7382
   32MOL0     O 4188   6.244   5.811   8.998  0.1891  0.5220  0.5265
   32MOL0     C 4189   6.134   5.854   9.056  0.4571 -0.4721 -0.2577
   32MOL0     C 4190   6.138   5.932   9.174  0.7963 -0.0910 -0.0331
   32MOL0     C 4191   6.027   5.982   9.228  0.2622  0.0165 -0.1439
   32MOL0     C 4192   5.901   5.965   9.175  0.6435  0.1131  0.9822
   32MOL0     O 4193   5.784   6.017   9.228  0.6036 -0.1626 -0.6292
   32MOL0     C 4194   5.790   6.088   9.351 -0.5903  1.5494 -0.1275
   32MOL0     C 4195   5.656   6.139   9.401  0.9528  0.1839 -0.4574
   32MOL0     C 4196   5.645   6.182   9.549  0.3476 -0.1798 -0.1174
   32MOL0     C 4197   5.504   6.235   9.583 -0.3211  1.0617  0.0614
   32MOL0     C 4198   5.495   6.305   9.715  0.5452 -0.4277  0.1211
   32MOL0     C 4199   5.351   6.326   9.753 -0.0948  0.4776  1.0023
   32MOL0     C 4200   5.277   6.431   9.652  0.6272  0.0664  1.0064
   32MOL0     C 4201   5.131   6.441   9.701  0.7550  0.0738  0.0143
   32MOL0     N 4202   5.059   6.546   9.632  0.6758 -0.4811  0.5948
   32MOL0     C 4203   5.090   6.674   9.655 -0.3420 -0.6813  0.6013
   32MOL0     C 4204   5.035   6.742   9.551 -0.0213  0.5664 -0.2688
   32MOL0     C 4205   5.014   6.895   9.531 -0.8464  0.4537 -0.2218
   32MOL0     C 4206   4.873   6.931   9.593 -0.4091 -0.2271 -0.1078
   32MOL0     C 4207   4.856   7.080   9.600  0.5848  0.1363 -0.3849
   32MOL0     C 4208   4.713   7.114   9.636 -0.0111  0.0585 -0.7870
   32MOL0     O 4209   4.677   7.250   9.635 -0.1214 -0.1230 -0.5071
   32MOL0     C 4210   4.536   7.268   9.635  0.2075 -0.9437 -0.3467
   32MOL0     C 4211   4.457   7.227   9.528 -0.8221 -0.1668 -0.4276
   32MOL0     C 4212   4.322   7.259   9.521  1.3050 -0.1666  0.5358
   32MOL0     C 4213   4.237   7.203   9.406 -0.3951  0.3780  0.1676
   32MOL0     C 4214   4.264   7.340   9.624  0.1636  0.5650 -0.1473
   32MOL0     C 4215   4.121   7.372   9.616  0.6703  0.9732  0.4690
   32MOL0     O 4216   4.078   7.482   9.548  0.1081  0.1449 -0.0901
   32MOL0     C 4217   3.946   7.500   9.559 -0.1327 -0.4456 -1.1209
   32MOL0     C 4218   3.876   7.480   9.443  0.5064  0.5313 -0.2762
   32MOL0     C 4219   3.740   7.514   9.444  0.2829 -0.2401 -0.0969
   32MOL0     C 4220   3.685   7.590   9.557  0.1949 -0.2996  0.1242
   32MOL0     O 4221   3.552   7.636   9.550  0.3894 -0.3320  0.3019
   32MOL0     C 4222   3.511   7.739   9.649 -0.0047  0.1269  0.2916
   32MOL0     C 4223   3.372   7.777   9.604  0.3850 -0.5005 -0.5404
   32MOL0     C 4224   3.273   7.659   9.619 -0.0181  0.1384  0.4201
   32MOL0     C 4225   3.135   7.688   9.561  0.0207  0.1902  0.4680
   32MOL0     C 4226   3.027   7.576   9.542  0.6324  0.0128 -0.1118
   32MOL0     C 4227   2.911   7.631   9.466  0.0165 -0.8994 -0.0170
   32MOL0     C 4228   2.806   7.707   9.553 -0.1364 -0.4807  0.0103
   32MOL0     C 4229   2.694   7.748   9.456  0.4892  0.1834  0.3782
   32MOL0    Cl 4230   2.608   7.606   9.396  0.1571 -0.0743  0.2473
   32MOL0     C 4231   3.761   7.617   9.671  0.3867 -0.2959 -0.1143
   32MOL0     C 4232   3.891   7.565   9.673 -0.2205  0.9984 -0.2809
   32MOL0     O 4233   4.053   7.285   9.667  0.8910  0.4293  0.0757
   32MOL0     C 4234   4.342   7.384   9.722 -0.4854 -0.6969 -0.6230
   32MOL0     C 4235   4.475   7.349   9.725  0.6661 -0.5981  0.8682
   32MOL0     N 4236   4.965   6.649   9.467 -0.2863 -1.1965 -0.5600
   32MOL0     N 4237   4.983   6.535   9.519  0.2424 -0.5514  0.5941
   32MOL0     C 4238   5.896   5.879   9.060  0.1192 -0.4407  0.7338
   32MOL0     C 4239   6.008   5.826   8.994 -0.5118  0.2802 -0.1151
   32MOL0     C 4240   6.453   5.699   9.015 -0.1735 -0.0578  0.6674
   32MOL0     C 4241   6.566   5.661   9.090  0.2372 -0.4996 -0.3694
   32MOL0     C 4242   6.684   5.658   9.026  0.5210  0.6619  0.0799
   32MOL0     C 4243   6.702   5.678   8.881  0.0166  0.0554  0.1870
   32MOL0     O 4244   6.828   5.694   8.819 -0.4607  0.8863 -0.9533
   32MOL0     C 4245   6.944   5.636   8.890  0.6338 -0.0943  0.5465
   32MOL0     C 4246   7.063   5.655   8.795 -0.9870 -0.2411 -0.5041
   32MOL0     C 4247   7.198   5.611   8.855  0.0708  0.5465  0.3732
   32MOL0     C 4248   7.323   5.641   8.762 -0.1798 -0.3095  0.6920
   32MOL0     C 4249   7.448   5.598   8.836  0.1867  1.2985 -0.4416
   32MOL0     C 4250   7.544   5.572   8.902  0.6299  0.5359  0.0648
   32MOL0     C 4251   6.588   5.699   8.805 -0.3145  0.0910  0.3844
   32MOL0     C 4252   6.465   5.712   8.868 -0.1158  0.5820  0.5760
   32MOL0     H 4253   6.232   5.960   9.220  2.2645 -0.3960 -2.6573
   32MOL0     H 4254   6.037   6.038   9.321 -2.5571 -0.6265  0.6447
   32MOL0     H 4255   5.838   6.037   9.434 -0.1857  0.7710 -0.8199
   32MOL0     H 4256   5.856   6.172   9.324  1.1710  0.8251  1.7186
   32MOL0     H 4257   5.624   6.222   9.337 -0.9516  1.4226  1.9057
   32MOL0     H 4258   5.587   6.055   9.390  2.2315 -0.7174 -1.9590
   32MOL0     H 4259   5.658   6.095   9.614 -0.1586 -0.3480 -0.2368
   32MOL0     H 4260   5.728   6.247   9.578  0.9738 -0.7222 -0.6814
   32MOL0     H 4261   5.475   6.298   9.498 -1.6801 -1.3584 -1.3956
   32MOL0     H 4262   5.435   6.151   9.576  2.3174 -1.1187 -1.3093
   32MOL0     H 4263   5.536   6.244   9.796 -0.5976  1.3784  2.1961
   32MOL0     H 4264   5.540   6.405   9.718  0.2341 -0.2945  0.6226
   32MOL0     H 4265   5.311   6.224   9.755 -0.2605  0.3559 -2.5400
   32MOL0     H 4266   5.356   6.367   9.854 -0.4113  1.8493  0.4829
   32MOL0     H 4267   5.327   6.529   9.661  1.5667 -0.0755 -1.6568
   32MOL0     H 4268   5.278   6.406   9.545 -0.8203  0.4285  0.8845
   32MOL0     H 4269   5.118   6.442   9.810  0.7361  0.6932  0.0096
   32MOL0     H 4270   5.090   6.342   9.676  0.8439  0.5693 -2.3399
   32MOL0     H 4271   5.149   6.708   9.739  2.7945 -0.2014 -1.6333
   32MOL0     H 4272   5.096   6.952   9.577 -0.2548 -0.9668  0.5713
   32MOL0     H 4273   5.015   6.919   9.425 -0.1757  3.1364  0.2961
   32MOL0     H 4274   4.856   6.883   9.689 -0.5425  1.2786  0.6462
   32MOL0     H 4275   4.802   6.902   9.515 -0.1716 -1.2438  0.0385
   32MOL0     H 4276   4.888   7.122   9.504 -1.1925  0.3633 -0.9123
   32MOL0     H 4277   4.911   7.122   9.685 -1.1595 -1.3274  1.5638
   32MOL0     H 4278   4.700   7.065   9.733 -1.1225 -0.8631 -1.3721
   32MOL0     H 4279   4.647   7.066   9.564  1.0313 -0.2381 -1.5734
   32MOL0     H 4280   4.498   7.156   9.457  1.0057 -0.3356  0.7315
   32MOL0     H 4281   4.130   7.223   9.420 -0.4962 -0.3021  0.3907
   32MOL0     H 4282   4.272   7.239   9.309 -0.2913  1.1792  0.4962
   32MOL0     H 4283   4.232   7.095   9.394 -2.9784  0.7042 -3.0430
   32MOL0     H 4284   3.932   7.443   9.358  1.1678 -1.6150  1.0347
   32MOL0     H 4285   3.672   7.496   9.361  0.4406 -0.9463 -0.0773
   32MOL0     H 4286   3.505   7.696   9.749 -3.4053 -1.7049 -0.5265
   32MOL0     H 4287   3.574   7.829   9.647  2.0112 -1.1600  1.7925
   32MOL0     H 4288   3.352   7.864   9.667  0.5181  0.6960 -2.0935
   32MOL0     H 4289   3.371   7.813   9.500  0.5131  1.4837  0.1135
   32MOL0     H 4290   3.260   7.637   9.726  0.9667  1.7661  0.9085
   32MOL0     H 4291   3.313   7.576   9.560  0.1103  0.2004  0.4209
   32MOL0     H 4292   3.086   7.758   9.629  0.0790  0.7748 -0.0797
   32MOL0     H 4293   3.142   7.741   9.466 -0.4608 -1.1217 -0.3400
   32MOL0     H 4294   2.997   7.532   9.637 -1.6364 -2.6830 -1.8986
   32MOL0     H 4295   3.077   7.501   9.480  2.3500  1.4280 -0.5348
   32MOL0     H 4296   2.945   7.682   9.375 -0.1957 -1.2942 -0.3184
   32MOL0     H 4297   2.858   7.546   9.423  0.0644 -1.3183  0.7371
   32MOL0     H 4298   2.859   7.793   9.594  0.5021 -1.1150  0.5459
   32MOL0     H 4299   2.769   7.644   9.635 -2.2799  1.6227  0.7496
   32MOL0     H 4300   2.731   7.802   9.369 -0.2713 -3.9519 -2.7865
   32MOL0     H 4301   2.629   7.820   9.508  1.1448  1.2852 -0.2920
   32MOL0     H 4302   3.736   7.677   9.759 -0.6704 -0.5179 -0.2571
   32MOL0     H 4303   3.950   7.589   9.761  1.2191  3.7335 -1.8492
   32MOL0     H 4304   4.297   7.448   9.797 -2.9822 -2.5644 -0.4216
   32MOL0     H 4305   4.530   7.383   9.812 -0.3895  2.0600  0.6081
   32MOL0     H 4306   5.798   5.861   9.017 -0.0618  1.4151  0.3017
   32MOL0     H 4307   5.991   5.767   8.905  2.0320 -1.0027  0.1590
   32MOL0     H 4308   6.558   5.650   9.197 -1.2967  2.8843 -0.0017
   32MOL0     H 4309   6.771   5.626   9.084 -0.4384 -1.1759  0.5967
   32MOL0     H 4310   6.944   5.682   8.989 -1.0182  1.9176 -0.3085
   32MOL0     H 4311   6.937   5.527   8.896 -0.0730 -0.0448  0.6793
   32MOL0     H 4312   7.075   5.758   8.759  1.0903  0.0450  0.7942
   32MOL0     H 4313   7.052   5.591   8.707 -1.1088  0.4535 -0.9941
   32MOL0     H 4314   7.185   5.505   8.881 -3.3910  0.4767 -1.1180
   32MOL0     H 4315   7.214   5.673   8.944 -0.1803  1.9232 -0.5171
   32MOL0     H 4316   7.333   5.746   8.736  1.3235 -0.7035 -0.4534
   32MOL0     H 4317   7.319   5.582   8.670  4.3033 -2.1456  1.3995
   32MOL0     H 4318   7.631   5.551   8.960  0.5852  1.3708  0.4539
   32MOL0     H 4319   6.589   5.731   8.701 -1.0068  1.3139  0.7243
   32MOL0     H 4320   6.384   5.744   8.803 -0.4204  0.3734  0.8539
   33MOL0     O 4321   6.637   9.137  11.127 -0.9030  0.1753 -0.5663
   33MOL0     C 4322   6.716   9.220  11.078  0.0792 -0.4986  0.7454
   33MOL0     O 4323   6.690   9.300  10.970 -0.2002  0.6043 -0.4133
   33MOL0     C 4324   6.592   9.244  10.888 -0.2532  0.8055  0.1545
   33MOL0     C 4325   6.612   9.112  10.827 -0.2515 -0.2671  0.8271
   33MOL0     C 4326   6.506   9.062  10.750 -1.4783 -0.5617 -0.7526
   33MOL0     C 4327   6.399   9.148  10.715  0.5287  0.2549 -0.3501
   33MOL0     O 4328   6.301   9.074  10.649  0.0277  0.2898 -0.1934
   33MOL0     C 4329   6.164   9.127  10.633  0.3949 -0.2420 -0.2616
   33MOL0     C 4330   6.071   9.019  10.579 -0.0745  0.4639 -0.3664
   33MOL0     C 4331   6.113   8.943  10.449  0.0371  0.2558  0.3910
   33MOL0     C 4332   6.002   8.835  10.422 -0.0031 -0.5579 -0.4340
   33MOL0     C 4333   5.875   8.888  10.369 -0.5091 -0.6432  0.0632
   33MOL0     C 4334   5.800   8.761  10.353  0.2452  0.5812  0.7140
   33MOL0     C 4335   5.659   8.810  10.303  0.3629  0.4744 -0.7414
   33MOL0     C 4336   5.565   8.861  10.403  0.3155  0.1962  0.1884
   33MOL0     N 4337   5.465   8.937  10.322  0.6801 -0.4387 -0.0456
   33MOL0     C 4338   5.335   8.891  10.301  0.0555  0.0521 -0.2905
   33MOL0     C 4339   5.276   8.994  10.229  0.0805  0.1190 -0.3808
   33MOL0     C 4340   5.137   8.986  10.171 -0.8979  0.5195  0.1371
   33MOL0     C 4341   5.038   9.028  10.274 -0.1127  0.1255  0.9351
   33MOL0     C 4342   4.899   9.040  10.208  1.0890 -0.6376  0.2033
   33MOL0     C 4343   4.795   9.104  10.296 -0.4746  0.7102 -0.5043
   33MOL0     O 4344   4.827   9.235  10.337  0.2347 -0.3957  0.1059
   33MOL0     C 4345   4.723   9.317  10.384  0.4642  0.2044  1.2986
   33MOL0     C 4346   4.614   9.259  10.450 -0.3400 -0.3695 -0.3737
   33MOL0     C 4347   4.507   9.338  10.486 -0.2010 -0.3594 -0.6958
   33MOL0     C 4348   4.404   9.259  10.560 -0.6194  0.4268  0.0907
   33MOL0     C 4349   4.493   9.475  10.436 -0.2347  0.8339  0.3479
   33MOL0     C 4350   4.367   9.555  10.449  0.0986 -0.1971 -1.4572
   33MOL0     O 4351   4.250   9.487  10.460 -0.9609  0.9207  0.1658
   33MOL0     C 4352   4.148   9.557  10.517  0.7269  0.8039  0.5509
   33MOL0     C 4353   4.148   9.619  10.644  0.1915  0.2267 -0.2683
   33MOL0     C 4354   4.035   9.670  10.699 -0.5500  0.3813 -0.0311
   33MOL0     C 4355   3.912   9.651  10.636 -0.5158 -0.0755  0.5016
   33MOL0     O 4356   3.798   9.698  10.701 -0.1337  0.5147  0.4470
   33MOL0     C 4357   3.656   9.686  10.648 -0.3178 -0.6097 -0.3578
   33MOL0     C 4358   3.576   9.770  10.742 -0.2076 -0.5871  0.1682
   33MOL0     C 4359   3.426   9.752  10.731 -0.3719  0.6081 -0.0673
   33MOL0     C 4360   3.363   9.868  10.795 -0.1055  0.0108  1.4462
   33MOL0     C 4361   3.213   9.865  10.759 -0.1388 -0.1102 -0.3370
   33MOL0     C 4362   3.123   9.760  10.829 -0.9711  0.2142 -0.0869
   33MOL0     C 4363   2.990   9.747  10.754  0.1068 -0.2263 -0.3576
   33MOL0     C 4364   2.906   9.659  10.831 -0.1763 -0.1613 -0.2002
   33MOL0    Cl 4365   2.744   9.662  10.766  0.0493  0.1134 -0.3666
   33MOL0     C 4366   3.905   9.590  10.508 -0.6711 -0.3051  0.3826
   33MOL0     C 4367   4.027   9.548  10.446  0.1705 -0.7560  0.3396
   33MOL0     O 4368   4.372   9.680  10.441 -0.8859  0.2065  0.7425
   33MOL0     C 4369   4.608   9.524  10.364  0.7278 -0.5471 -0.0702
   33MOL0     C 4370   4.717   9.452  10.343  0.2362  0.2236 -0.3550
   33MOL0     N 4371   5.366   9.099  10.211  0.4879  0.2634 -0.3205
   33MOL0     N 4372   5.484   9.055  10.259 -0.0638  0.9381  0.2322
   33MOL0     C 4373   6.391   9.278  10.754 -0.5135 -0.3906 -0.0607
   33MOL0     C 4374   6.489   9.329  10.846  0.9296  0.0889  1.6055
   33MOL0     C 4375   6.851   9.250  11.134  0.8589 -0.0617  0.6549
   33MOL0     C 4376   6.942   9.325  11.059  0.0359  0.3847  0.5875
   33MOL0     C 4377   7.068   9.354  11.108  0.2127  0.1453 -0.5972
   33MOL0     C 4378   7.122   9.297  11.222  1.3934 -0.5306 -0.2466
   33MOL0     O 4379   7.252   9.328  11.251 -0.5482 -0.2186  0.2477
   33MOL0     C 4380   7.298   9.296  11.383  0.7179 -0.0872 -0.2613
   33MOL0     C 4381   7.420   9.383  11.423 -0.9473  0.2732 -0.2608
   33MOL0     C 4382   7.516   9.425  11.308  0.0021 -0.4175 -0.6840
   33MOL0     C 4383   7.660   9.468  11.360 -0.5081  0.2775  0.0889
   33MOL0     C 4384   7.717   9.566  11.265 -0.6678  0.5481  0.6889
   33MOL0     C 4385   7.774   9.639  11.179  0.3365  0.4601  0.9099
   33MOL0     C 4386   7.029   9.214  11.302  0.8294  0.4657 -0.0012
   33MOL0     C 4387   6.895   9.201  11.256  0.0430  0.1479 -0.3853
   33MOL0     H 4388   6.700   9.054  10.852 -0.5353 -0.4188  1.5024
   33MOL0     H 4389   6.517   8.958  10.721  0.7444 -0.5182 -0.2665
   33MOL0     H 4390   6.130   9.150  10.734  3.6901 -0.8284  1.1209
   33MOL0     H 4391   6.156   9.210  10.563  0.4593 -0.9401 -1.1120
   33MOL0     H 4392   6.063   8.953  10.665  1.7168  1.3897  0.5466
   33MOL0     H 4393   5.969   9.060  10.574 -0.2515  0.1469  0.5407
   33MOL0     H 4394   6.137   9.014  10.369 -0.4476  0.0842  0.0872
   33MOL0     H 4395   6.202   8.883  10.468 -1.0057 -0.6495  2.7634
   33MOL0     H 4396   6.035   8.765  10.344 -4.6733  0.4350 -3.7026
   33MOL0     H 4397   5.974   8.794  10.519 -1.9723  2.1853  0.2607
   33MOL0     H 4398   5.834   8.955  10.445 -1.6503 -1.6741  0.3822
   33MOL0     H 4399   5.873   8.944  10.275 -0.6128 -0.1930  0.3308
   33MOL0     H 4400   5.842   8.701  10.271 -0.1215  1.9698 -0.5207
   33MOL0     H 4401   5.791   8.705  10.446 -0.4831  1.1536  0.9978
   33MOL0     H 4402   5.665   8.882  10.220 -1.6122 -3.1638 -4.4429
   33MOL0     H 4403   5.609   8.725  10.255 -1.9641 -0.0517  2.3177
   33MOL0     H 4404   5.624   8.929  10.465  0.1110  0.9326 -0.4067
   33MOL0     H 4405   5.519   8.779  10.459  2.5879 -2.8241 -2.0564
   33MOL0     H 4406   5.292   8.795  10.329  1.8625 -0.5657  0.4537
   33MOL0     H 4407   5.128   9.056  10.088  2.2805  0.1622 -0.6513
   33MOL0     H 4408   5.127   8.887  10.126  0.7871  1.3045 -2.1896
   33MOL0     H 4409   5.065   9.124  10.319  0.2034  1.4492 -1.8670
   33MOL0     H 4410   5.034   8.947  10.348 -3.1034 -2.2331 -1.4974
   33MOL0     H 4411   4.861   8.942  10.179 -1.8990  1.0844 -2.2932
   33MOL0     H 4412   4.901   9.098  10.116  1.9329  1.3907  1.4307
   33MOL0     H 4413   4.785   9.039  10.383  3.5538 -2.1417 -1.9110
   33MOL0     H 4414   4.700   9.089  10.244  0.9362 -2.1601 -2.5267
   33MOL0     H 4415   4.616   9.155  10.482 -1.6358 -0.5741 -0.9098
   33MOL0     H 4416   4.430   9.266  10.666 -0.4196  1.3745 -0.0163
   33MOL0     H 4417   4.300   9.274  10.531 -0.4249  0.8067 -0.4325
   33MOL0     H 4418   4.417   9.152  10.541 -1.8171 -0.1703  2.2483
   33MOL0     H 4419   4.242   9.625  10.698  0.6880 -1.8955 -0.7775
   33MOL0     H 4420   4.041   9.711  10.800  1.2002  1.7164 -0.6218
   33MOL0     H 4421   3.650   9.727  10.547 -1.3360  0.8814  0.2618
   33MOL0     H 4422   3.617   9.585  10.661  0.1527 -0.8542 -0.8374
   33MOL0     H 4423   3.607   9.731  10.839  0.2564 -1.5837 -0.3643
   33MOL0     H 4424   3.609   9.875  10.736 -1.5807 -0.1071  0.6875
   33MOL0     H 4425   3.404   9.662  10.788 -0.7513 -0.8419 -2.3708
   33MOL0     H 4426   3.403   9.744  10.624  1.1930  1.1054 -0.4713
   33MOL0     H 4427   3.384   9.865  10.903 -0.3700 -3.9560  1.5399
   33MOL0     H 4428   3.403   9.961  10.754 -2.2240  1.3010  2.1732
   33MOL0     H 4429   3.203   9.845  10.652  2.8033 -1.0926 -0.4996
   33MOL0     H 4430   3.173   9.961  10.794  0.3923 -0.0098  0.0038
   33MOL0     H 4431   3.167   9.660  10.841 -1.8776 -0.4878 -2.0080
   33MOL0     H 4432   3.114   9.791  10.933 -1.5353  0.8045 -0.3008
   33MOL0     H 4433   3.008   9.697  10.659 -1.3028 -0.9065 -0.2910
   33MOL0     H 4434   2.947   9.847  10.746 -0.0505  0.0428  2.7577
   33MOL0     H 4435   2.902   9.691  10.936 -1.1279  0.5908 -0.4554
   33MOL0     H 4436   2.947   9.557  10.837  0.4595  0.0406 -0.8953
   33MOL0     H 4437   3.813   9.572  10.453 -1.3488 -1.4093  1.8038
   33MOL0     H 4438   4.029   9.508  10.345  0.2353  1.0480 -0.4005
   33MOL0     H 4439   4.609   9.627  10.330  0.5953 -0.9251 -1.2696
   33MOL0     H 4440   4.799   9.495  10.287  0.7532 -0.3326 -0.0391
   33MOL0     H 4441   6.310   9.346  10.729  1.5416  2.4468  0.4052
   33MOL0     H 4442   6.491   9.430  10.886 -0.7808  1.3212 -1.1324
   33MOL0     H 4443   6.906   9.366  10.965 -0.9083  1.1466  1.2662
   33MOL0     H 4444   7.147   9.405  11.053  0.8102 -3.3135 -3.2557
   33MOL0     H 4445   7.222   9.329  11.455  0.1274  0.4046 -1.0974
   33MOL0     H 4446   7.311   9.189  11.402  0.4528 -0.2443 -0.9249
   33MOL0     H 4447   7.478   9.342  11.506  0.4937  1.4553 -0.6357
   33MOL0     H 4448   7.376   9.470  11.472 -2.2672  1.0849 -2.7311
   33MOL0     H 4449   7.474   9.506  11.248 -3.4518 -1.9877 -0.6154
   33MOL0     H 4450   7.524   9.347  11.232  1.1610 -0.0796 -0.9234
   33MOL0     H 4451   7.716   9.376  11.378 -1.9974 -0.6013  0.4154
   33MOL0     H 4452   7.642   9.524  11.453  1.8752 -1.8432  1.9569
   33MOL0     H 4453   7.826   9.682  11.096  0.8879 -0.7446  0.6003
   33MOL0     H 4454   7.063   9.173  11.396 -0.2904 -0.1117  0.1691
   33MOL0     H 4455   6.827   9.146  11.321 -2.3683  0.6913 -2.3196
   34MOL0     O 4456   6.531   1.444   0.187  0.0960 -0.3877 -0.4324
   34MOL0     C 4457   6.588   1.513   0.275  0.9300  0.0843  0.1466
   34MOL0     O 4458   6.544   1.619   0.345 -0.1111 -0.0401 -0.3207
   34MOL0     C 4459   6.416   1.668   0.333 -1.3463 -0.1018 -0.3632
   34MOL0     C 4460   6.353   1.719   0.442 -0.3260 -0.9083 -0.1196
   34MOL0     C 4461   6.222   1.785   0.436  1.0194 -0.5614 -0.1844
   34MOL0     C 4462   6.164   1.800   0.310 -0.2195 -1.4495 -0.0750
   34MOL0     O 4463   6.051   1.865   0.279 -0.0209 -0.7180  0.1130
   34MOL0     C 4464   5.979   1.921   0.389  0.1728  1.0411  0.9676
   34MOL0     C 4465   5.870   2.027   0.335 -0.8132  0.1214  1.2933
   34MOL0     C 4466   5.770   1.977   0.220 -1.1655 -0.2245  0.7269
   34MOL0     C 4467   5.709   2.086   0.132 -0.1403  1.0556 -0.6599
   34MOL0     C 4468   5.589   2.159   0.216 -0.2741  0.3213 -0.5396
   34MOL0     C 4469   5.522   2.271   0.146  0.5605 -0.8461  0.8731
   34MOL0     C 4470   5.417   2.346   0.224  0.2650  0.7177  0.4233
   34MOL0     C 4471   5.376   2.482   0.162 -0.8378 -0.0724  0.6072
   34MOL0     N 4472   5.255   2.523   0.225 -0.2392 -1.1277  0.3422
   34MOL0     C 4473   5.236   2.548   0.359  0.2334 -0.4582 -0.7504
   34MOL0     C 4474   5.105   2.538   0.368 -0.5242  0.3842 -0.9713
   34MOL0     C 4475   5.037   2.562   0.503  1.3383  0.7287 -0.0814
   34MOL0     C 4476   4.894   2.629   0.498  0.6217 -0.7010  0.1966
   34MOL0     C 4477   4.894   2.774   0.456 -0.2898  0.5387 -0.3360
   34MOL0     C 4478   4.909   2.795   0.304 -0.1545 -0.0470  0.4365
   34MOL0     O 4479   4.794   2.776   0.228 -0.1876  0.2140  0.1297
   34MOL0     C 4480   4.695   2.872   0.243  0.2369 -0.4000  0.5871
   34MOL0     C 4481   4.578   2.837   0.177 -0.0016  0.0868  0.4759
   34MOL0     C 4482   4.455   2.908   0.190  0.1995  0.0570  0.3399
   34MOL0     C 4483   4.323   2.867   0.114  0.2420  0.4396  0.1774
   34MOL0     C 4484   4.455   3.018   0.274  0.3832 -0.4201  0.4471
   34MOL0     C 4485   4.326   3.095   0.296 -0.1598  0.1384  0.8589
   34MOL0     O 4486   4.339   3.231   0.267  0.6633 -0.2468 -0.1614
   34MOL0     C 4487   4.240   3.316   0.317  0.4398  0.6830  0.4982
   34MOL0     C 4488   4.226   3.334   0.458  0.3041 -0.3938  0.0297
   34MOL0     C 4489   4.124   3.428   0.503 -0.7537 -0.7244  0.6990
   34MOL0     C 4490   4.039   3.491   0.407 -0.6479 -0.1631 -0.1527
   34MOL0     O 4491   3.946   3.572   0.455 -0.7783  0.1968 -0.3154
   34MOL0     C 4492   3.910   3.578   0.599  0.4100  0.2301 -0.5811
   34MOL0     C 4493   3.804   3.480   0.636  0.2552  0.1225  0.7626
   34MOL0     C 4494   3.726   3.527   0.761 -0.1368 -0.0995 -0.2108
   34MOL0     C 4495   3.582   3.464   0.773 -0.0222 -0.6057 -0.5817
   34MOL0     C 4496   3.503   3.526   0.883 -0.2508 -0.5754 -0.9268
   34MOL0     C 4497   3.371   3.457   0.913  0.8890  0.3021  0.0289
   34MOL0     C 4498   3.278   3.440   0.800  0.0508  1.0552  0.0900
   34MOL0     C 4499   3.208   3.573   0.770 -0.1303  0.1613  0.1954
   34MOL0    Cl 4500   3.102   3.552   0.635 -0.3392  0.6357  0.0188
   34MOL0     C 4501   4.051   3.454   0.272 -0.6593 -0.3126 -0.0344
   34MOL0     C 4502   4.156   3.368   0.226 -0.2277 -0.1830 -0.5623
   34MOL0     O 4503   4.218   3.038   0.328 -0.2313 -0.8704 -0.9692
   34MOL0     C 4504   4.567   3.062   0.344 -1.5377 -0.0202 -0.5841
   34MOL0     C 4505   4.691   2.988   0.333 -1.2992 -0.1910  0.4832
   34MOL0     N 4506   5.043   2.505   0.251 -0.2063  0.1884  0.1448
   34MOL0     N 4507   5.139   2.491   0.167 -0.7819  0.2702 -0.1688
   34MOL0     C 4508   6.233   1.760   0.201 -0.6023  1.4861  0.7106
   34MOL0     C 4509   6.347   1.676   0.214  0.4043 -0.8829  0.2495
   34MOL0     C 4510   6.728   1.479   0.289  0.4623 -0.4230 -0.3626
   34MOL0     C 4511   6.773   1.354   0.245  0.3373 -0.1363 -0.2904
   34MOL0     C 4512   6.908   1.317   0.269  0.1644 -0.6802  0.0231
   34MOL0     C 4513   6.994   1.401   0.332  0.4174 -0.0345 -0.3227
   34MOL0     O 4514   7.120   1.370   0.359 -0.4037 -0.3304  0.1033
   34MOL0     C 4515   7.219   1.439   0.281  0.2053 -1.3345 -0.7531
   34MOL0     C 4516   7.322   1.343   0.243  0.4235 -0.2274 -0.0443
   34MOL0     C 4517   7.464   1.391   0.222 -0.3281 -0.1113  0.7574
   34MOL0     C 4518   7.501   1.451   0.088 -0.6831  0.3572  0.4889
   34MOL0     C 4519   7.418   1.569   0.051 -0.4834  0.0881 -0.3883
   34MOL0     C 4520   7.347   1.664   0.027 -0.0895 -0.2059 -0.0308
   34MOL0     C 4521   6.948   1.523   0.385 -0.0215 -0.1920 -0.7116
   34MOL0     C 4522   6.814   1.555   0.370 -1.2615  0.2598  0.0688
   34MOL0     H 4523   6.401   1.718   0.539  0.8603  0.3272 -0.6456
   34MOL0     H 4524   6.184   1.826   0.529  0.0116 -1.8460 -0.0093
   34MOL0     H 4525   5.924   1.845   0.444  1.1583 -0.6397 -0.2637
   34MOL0     H 4526   6.041   1.986   0.452 -1.8940  3.2887  0.8253
   34MOL0     H 4527   5.805   2.075   0.409 -1.8785  1.8026 -0.6041
   34MOL0     H 4528   5.936   2.101   0.288  0.4749 -2.3097 -0.9847
   34MOL0     H 4529   5.822   1.894   0.172  1.7874  0.7825  1.9699
   34MOL0     H 4530   5.685   1.927   0.268 -0.2290 -0.6122  2.0297
   34MOL0     H 4531   5.786   2.152   0.092 -0.9818  2.0037 -0.7565
   34MOL0     H 4532   5.666   2.029   0.049 -0.3316 -2.2668  1.5537
   34MOL0     H 4533   5.510   2.085   0.234  0.3532 -0.0657  0.7541
   34MOL0     H 4534   5.634   2.204   0.305 -1.7228  0.8789 -0.0608
   34MOL0     H 4535   5.596   2.346   0.118 -0.8373  0.2053 -0.1673
   34MOL0     H 4536   5.477   2.246   0.050 -0.3981  0.5113  0.9357
   34MOL0     H 4537   5.322   2.291   0.225  0.0437  1.0396 -0.9927
   34MOL0     H 4538   5.450   2.361   0.327 -0.1860 -0.9478  0.8451
   34MOL0     H 4539   5.369   2.471   0.053 -1.3133  0.5202  0.5686
   34MOL0     H 4540   5.455   2.554   0.181 -0.2453 -0.3158 -0.8053
   34MOL0     H 4541   5.306   2.568   0.439 -0.1968 -1.4362 -0.1192
   34MOL0     H 4542   5.017   2.467   0.553 -4.0982  2.6667  2.1800
   34MOL0     H 4543   5.101   2.619   0.571  2.2626  1.2568 -1.3469
   34MOL0     H 4544   4.844   2.614   0.594  0.1989  0.1284  0.1187
   34MOL0     H 4545   4.824   2.578   0.431  1.3862 -0.1852 -1.0449
   34MOL0     H 4546   4.966   2.826   0.520  0.3017  0.3028 -0.8044
   34MOL0     H 4547   4.804   2.824   0.493 -0.4383  0.2768 -0.3413
   34MOL0     H 4548   4.990   2.738   0.259 -0.4941 -0.5881  0.5052
   34MOL0     H 4549   4.948   2.896   0.289 -2.8866  1.5144  2.6551
   34MOL0     H 4550   4.576   2.747   0.117 -0.3688  1.1629 -1.1899
   34MOL0     H 4551   4.276   2.950   0.061 -1.3742 -0.7840 -0.4104
   34MOL0     H 4552   4.343   2.782   0.048  0.3393  0.9419 -0.4405
   34MOL0     H 4553   4.247   2.835   0.187  0.1501  1.6900  0.6489
   34MOL0     H 4554   4.298   3.297   0.530  0.8740  0.0026 -0.3304
   34MOL0     H 4555   4.124   3.440   0.611  3.0022 -2.0173  0.9712
   34MOL0     H 4556   3.989   3.566   0.673 -2.6188  0.5966  3.0498
   34MOL0     H 4557   3.874   3.681   0.614 -2.0489 -0.6657  0.2323
   34MOL0     H 4558   3.743   3.452   0.550  0.8258  0.1717  0.3395
   34MOL0     H 4559   3.854   3.388   0.667 -0.1277  0.1576  1.5216
   34MOL0     H 4560   3.710   3.635   0.771  1.0704  0.2537 -1.7907
   34MOL0     H 4561   3.782   3.493   0.849  0.2249 -0.6838 -0.6678
   34MOL0     H 4562   3.536   3.480   0.674  0.3760 -0.4348 -0.7408
   34MOL0     H 4563   3.597   3.357   0.793 -1.2917 -0.6019  0.4884
   34MOL0     H 4564   3.478   3.631   0.868 -0.9872 -0.5676  0.2112
   34MOL0     H 4565   3.567   3.526   0.972  0.6594 -1.2875 -1.5680
   34MOL0     H 4566   3.394   3.355   0.943 -0.7520 -0.6485 -1.7477
   34MOL0     H 4567   3.322   3.502   1.000  1.9107  0.5994  0.4660
   34MOL0     H 4568   3.206   3.357   0.807  2.4100 -1.1211  0.1410
   34MOL0     H 4569   3.329   3.398   0.712 -2.3453 -0.3123 -0.7623
   34MOL0     H 4570   3.279   3.650   0.738  0.1112 -0.8142 -1.7752
   34MOL0     H 4571   3.151   3.619   0.852  0.6712  1.1069  0.2431
   34MOL0     H 4572   3.980   3.499   0.203 -0.3493  1.3672  0.6811
   34MOL0     H 4573   4.154   3.356   0.118  1.1321  1.0025 -0.7313
   34MOL0     H 4574   4.549   3.144   0.413  1.0005 -0.8002  1.1113
   34MOL0     H 4575   4.769   3.032   0.394 -1.5500  3.0552 -1.2907
   34MOL0     H 4576   6.176   1.765   0.109 -0.3860 -1.8245  0.2660
   34MOL0     H 4577   6.394   1.622   0.131  0.1443 -2.9067  1.3454
   34MOL0     H 4578   6.707   1.287   0.190  2.0815  0.3383 -3.1489
   34MOL0     H 4579   6.944   1.220   0.237 -2.4456 -1.6926 -0.0768
   34MOL0     H 4580   7.175   1.474   0.187  0.8031 -1.5605 -1.1167
   34MOL0     H 4581   7.267   1.523   0.333 -1.2789 -0.1095 -1.2651
   34MOL0     H 4582   7.281   1.299   0.151 -2.8392  0.3505  1.0281
   34MOL0     H 4583   7.316   1.261   0.315  2.2782 -0.3240  0.0537
   34MOL0     H 4584   7.525   1.300   0.225 -2.9440 -2.2773 -3.0094
   34MOL0     H 4585   7.485   1.461   0.303  1.6540 -0.4254  0.5549
   34MOL0     H 4586   7.504   1.375   0.010  1.0089  2.1615 -1.3448
   34MOL0     H 4587   7.603   1.489   0.098 -0.5843  0.4765 -0.7558
   34MOL0     H 4588   7.297   1.753  -0.005  1.8725  0.4761 -1.4532
   34MOL0     H 4589   7.009   1.590   0.446  0.5055  0.8357 -2.3129
   34MOL0     H 4590   6.782   1.653   0.405 -3.2060 -0.4788  0.4698
   35MOL0     O 4591   0.609   7.882   6.890  0.7097  0.4169  0.2400
   35MOL0     C 4592   0.573   7.931   6.782  1.2343  0.4972  0.3330
   35MOL0     O 4593   0.646   7.950   6.667  0.1608  0.0205  0.3828
   35MOL0     C 4594   0.781   7.949   6.700 -0.4735 -0.1871 -0.6969
   35MOL0     C 4595   0.854   7.829   6.713  1.0781  0.0376  0.0316
   35MOL0     C 4596   0.991   7.827   6.758  0.0994  0.1548  0.4251
   35MOL0     C 4597   1.059   7.947   6.768  0.1745 -0.1650  0.1521
   35MOL0     O 4598   1.194   7.937   6.815 -0.1150  0.1731 -0.1308
   35MOL0     C 4599   1.282   8.046   6.772 -0.5084 -0.3901  0.1135
   35MOL0     C 4600   1.332   8.135   6.884  0.1098 -0.0901 -0.2038
   35MOL0     C 4601   1.447   8.220   6.832  0.2184  0.2386 -0.2230
   35MOL0     C 4602   1.547   8.258   6.937  0.1914  0.8083  0.2490
   35MOL0     C 4603   1.655   8.355   6.890  0.3281 -0.2125 -0.8109
   35MOL0     C 4604   1.765   8.372   7.001  0.1703 -0.8507  0.7703
   35MOL0     C 4605   1.853   8.497   6.969  0.9796  0.1090  0.0914
   35MOL0     C 4606   1.987   8.502   7.048 -0.5016 -0.1011 -0.3231
   35MOL0     N 4607   1.949   8.507   7.193  0.4009 -0.1231 -0.4166
   35MOL0     C 4608   1.933   8.399   7.273 -0.2890  0.7710  0.1034
   35MOL0     C 4609   1.914   8.454   7.397 -0.0222 -1.0533  0.0525
   35MOL0     C 4610   1.897   8.394   7.531 -0.7649 -1.1815  0.1920
   35MOL0     C 4611   1.744   8.386   7.577  0.1602 -0.3808 -0.0770
   35MOL0     C 4612   1.657   8.288   7.489  0.5645  1.0555  0.3455
   35MOL0     C 4613   1.540   8.362   7.418  0.0297 -0.0745 -0.1521
   35MOL0     O 4614   1.480   8.270   7.328 -0.2123  0.1665 -0.6292
   35MOL0     C 4615   1.364   8.288   7.268 -0.1831  0.0329  0.4854
   35MOL0     C 4616   1.297   8.172   7.233  0.1923  0.2176  0.6731
   35MOL0     C 4617   1.159   8.178   7.188 -0.1086 -0.7523  0.6469
   35MOL0     C 4618   1.088   8.058   7.148 -0.1720 -0.6552 -0.1960
   35MOL0     C 4619   1.087   8.301   7.192 -0.2950 -0.8829  0.0558
   35MOL0     C 4620   0.944   8.324   7.160 -0.5558  0.3448 -0.3760
   35MOL0     O 4621   0.856   8.228   7.196  0.1397  0.1924 -0.3877
   35MOL0     C 4622   0.728   8.248   7.168  1.2978 -0.8066 -0.2593
   35MOL0     C 4623   0.630   8.316   7.249 -0.1313 -0.8361 -0.6121
   35MOL0     C 4624   0.492   8.318   7.213 -0.3745 -0.4407 -0.2452
   35MOL0     C 4625   0.447   8.276   7.086 -0.0001  0.6210  0.5293
   35MOL0     O 4626   0.321   8.249   7.038  1.4337  0.4818  0.2469
   35MOL0     C 4627   0.239   8.203   7.149 -0.1602  0.0364  0.3886
   35MOL0     C 4628   0.108   8.135   7.103 -0.8299  0.5798  0.0240
   35MOL0     C 4629   0.014   8.223   7.019  1.1775 -0.5626  0.9656
   35MOL0     C 4630  -0.107   8.155   6.967 -0.5316  1.0170 -0.3219
   35MOL0     C 4631  -0.172   8.241   6.859  0.7355 -0.1264 -0.1289
   35MOL0     C 4632  -0.235   8.379   6.910 -0.2825  0.0286 -0.0872
   35MOL0     C 4633  -0.334   8.444   6.814 -0.2567 -0.3388 -0.0879
   35MOL0     C 4634  -0.268   8.493   6.690  0.5924 -0.3406  0.1956
   35MOL0    Cl 4635  -0.389   8.602   6.601 -0.0652 -0.2466  0.3584
   35MOL0     C 4636   0.547   8.228   6.994  0.1705 -0.5827 -0.2600
   35MOL0     C 4637   0.685   8.221   7.031  0.0727 -0.4590  0.9288
   35MOL0     O 4638   0.914   8.434   7.123 -0.3400  0.3720 -0.5238
   35MOL0     C 4639   1.168   8.415   7.230  0.2158  0.1038  0.0561
   35MOL0     C 4640   1.297   8.406   7.267  0.6207 -0.0879 -0.4534
   35MOL0     N 4641   1.919   8.597   7.383 -0.7480  0.2711  0.5661
   35MOL0     N 4642   1.939   8.625   7.258 -0.4486 -0.1189 -0.4746
   35MOL0     C 4643   0.987   8.069   6.743 -0.1454 -0.8274  0.4973
   35MOL0     C 4644   0.852   8.070   6.719  0.2654 -0.4413  0.3980
   35MOL0     C 4645   0.439   7.965   6.765  0.2363  0.5172  0.7225
   35MOL0     C 4646   0.401   8.060   6.665  0.2627 -0.2283  0.2739
   35MOL0     C 4647   0.270   8.091   6.630  0.2897 -0.0878  0.6260
   35MOL0     C 4648   0.171   8.025   6.704 -0.7839 -0.5080 -0.1329
   35MOL0     O 4649   0.036   8.035   6.688 -0.7315 -0.1241  0.0787
   35MOL0     C 4650  -0.018   8.062   6.553 -0.6642  0.2095 -0.1719
   35MOL0     C 4651  -0.160   8.047   6.543  0.6532 -0.8028  0.7990
   35MOL0     C 4652  -0.220   8.130   6.428  0.1601  0.4058  0.0847
   35MOL0     C 4653  -0.151   8.107   6.295 -0.5417  0.8084 -0.0093
   35MOL0     C 4654  -0.218   8.171   6.184  0.4665  1.1285  0.4716
   35MOL0     C 4655  -0.284   8.225   6.100 -0.1078 -0.0475 -0.3845
   35MOL0     C 4656   0.202   7.943   6.822  1.0107 -0.2452 -0.1387
   35MOL0     C 4657   0.332   7.912   6.840 -0.8566  0.6100 -0.4204
   35MOL0     H 4658   0.805   7.738   6.683  1.8764 -1.1130  2.0137
   35MOL0     H 4659   1.052   7.741   6.780  1.3022  0.6402 -0.8780
   35MOL0     H 4660   1.370   7.992   6.736 -1.0330 -2.1341  1.2641
   35MOL0     H 4661   1.242   8.107   6.692 -0.5552 -0.3088  0.1987
   35MOL0     H 4662   1.255   8.206   6.917 -1.4084 -2.2764  1.2091
   35MOL0     H 4663   1.377   8.079   6.966  0.3062  0.8391  0.3346
   35MOL0     H 4664   1.515   8.155   6.775 -0.1432 -2.7967  2.4984
   35MOL0     H 4665   1.411   8.311   6.785 -0.8394 -0.0133  0.0863
   35MOL0     H 4666   1.495   8.291   7.027  0.7540 -1.7856  1.6111
   35MOL0     H 4667   1.601   8.167   6.962 -1.5419 -0.3588 -0.0915
   35MOL0     H 4668   1.698   8.353   6.789  0.2735  0.6524 -0.8643
   35MOL0     H 4669   1.606   8.453   6.889 -4.1916 -2.1681  1.0938
   35MOL0     H 4670   1.713   8.383   7.096 -0.1350  3.5379  0.3040
   35MOL0     H 4671   1.829   8.284   7.007  1.2081 -0.0103  2.7523
   35MOL0     H 4672   1.882   8.487   6.864 -1.4498 -1.1463 -0.5357
   35MOL0     H 4673   1.807   8.595   6.988  1.0375  0.5166 -1.7052
   35MOL0     H 4674   2.045   8.591   7.022  0.4451 -0.0327  1.8151
   35MOL0     H 4675   2.050   8.417   7.023  1.5295  1.6670 -1.5801
   35MOL0     H 4676   1.933   8.293   7.251 -2.9422  0.3483  1.5903
   35MOL0     H 4677   1.935   8.292   7.537  2.1422 -0.1215  1.9876
   35MOL0     H 4678   1.958   8.452   7.601  0.1722 -2.7863  0.7535
   35MOL0     H 4679   1.705   8.488   7.585 -2.4289 -1.1697 -1.3936
   35MOL0     H 4680   1.745   8.349   7.680 -0.0358 -2.1388 -0.6679
   35MOL0     H 4681   1.616   8.205   7.547  0.5307  0.4104 -0.5783
   35MOL0     H 4682   1.719   8.246   7.408 -0.4509 -0.5088  0.3447
   35MOL0     H 4683   1.569   8.458   7.374 -0.8883  0.4355  0.3195
   35MOL0     H 4684   1.461   8.392   7.488  0.1120  0.6609 -0.3681
   35MOL0     H 4685   1.352   8.078   7.230 -2.1605 -1.2753  1.6117
   35MOL0     H 4686   1.048   8.009   7.238 -1.4169  0.3484 -0.1775
   35MOL0     H 4687   1.011   8.074   7.072 -0.7423 -3.7053 -0.4098
   35MOL0     H 4688   1.162   7.995   7.096 -2.0989 -1.0473 -2.6549
   35MOL0     H 4689   0.655   8.365   7.342 -0.8691 -0.4734 -0.6011
   35MOL0     H 4690   0.411   8.351   7.277 -1.3471  2.4257 -2.7049
   35MOL0     H 4691   0.293   8.134   7.214 -2.0448  0.4650  2.5568
   35MOL0     H 4692   0.219   8.290   7.213  0.3025  0.5675 -0.1775
   35MOL0     H 4693   0.138   8.041   7.057  2.7645  1.0438  1.1704
   35MOL0     H 4694   0.044   8.107   7.187 -2.1363 -1.7690 -1.6451
   35MOL0     H 4695   0.060   8.262   6.927 -1.6669  0.1544 -0.2569
   35MOL0     H 4696  -0.013   8.318   7.067 -0.3477 -0.0728 -0.7139
   35MOL0     H 4697  -0.089   8.059   6.918 -2.3822 -0.0548  0.9938
   35MOL0     H 4698  -0.181   8.140   7.045  0.2690 -0.4683  0.1985
   35MOL0     H 4699  -0.258   8.190   6.815  1.8004 -2.2650  0.1482
   35MOL0     H 4700  -0.101   8.282   6.787  0.5514  0.2035 -0.1276
   35MOL0     H 4701  -0.283   8.358   7.006  0.0319 -0.1179  0.0369
   35MOL0     H 4702  -0.154   8.450   6.929  1.1679 -1.5008 -0.3324
   35MOL0     H 4703  -0.377   8.531   6.865 -0.8160  0.6201 -2.0807
   35MOL0     H 4704  -0.411   8.371   6.787 -1.4216  1.2815 -1.3245
   35MOL0     H 4705  -0.240   8.405   6.631  2.7201  0.7647 -0.5465
   35MOL0     H 4706  -0.176   8.549   6.708 -0.4366  1.2829  0.5270
   35MOL0     H 4707   0.534   8.183   6.896 -1.7721 -0.1207 -0.2516
   35MOL0     H 4708   0.751   8.169   6.963  0.6883  3.7673 -2.0838
   35MOL0     H 4709   1.119   8.511   7.241  0.7034  0.3480  0.0890
   35MOL0     H 4710   1.345   8.488   7.320 -1.5160  0.3562  0.9404
   35MOL0     H 4711   1.032   8.164   6.772 -0.8005 -0.7745  1.4108
   35MOL0     H 4712   0.788   8.156   6.702  2.7229  1.2849 -0.7054
   35MOL0     H 4713   0.480   8.105   6.606  1.4378  1.0000  2.6732
   35MOL0     H 4714   0.249   8.176   6.567  2.0858  1.5300  2.1250
   35MOL0     H 4715   0.015   8.165   6.536  1.2702 -0.1884  0.8395
   35MOL0     H 4716   0.035   7.997   6.483  1.7427  2.0865 -0.2110
   35MOL0     H 4717  -0.208   8.076   6.637 -2.9200  1.1728 -1.3824
   35MOL0     H 4718  -0.184   7.942   6.525 -0.6358 -0.2543 -1.0330
   35MOL0     H 4719  -0.207   8.234   6.458 -1.9188  0.5319  0.7543
   35MOL0     H 4720  -0.328   8.114   6.415 -0.2604  2.1167  1.1205
   35MOL0     H 4721  -0.142   7.999   6.277  1.9041  0.6324  1.7378
   35MOL0     H 4722  -0.049   8.146   6.281 -0.6079  1.1762  0.5459
   35MOL0     H 4723  -0.336   8.290   6.033  1.8343  1.5640 -0.4111
   35MOL0     H 4724   0.118   7.894   6.870  1.9215 -2.3951 -0.6437
   35MOL0     H 4725   0.357   7.845   6.921  0.1193  0.9861 -0.4000
   36MOL0     O 4726  10.463   9.864  10.738 -0.3252  0.1296 -1.0721
   36MOL0     C 4727  10.552   9.792  10.694 -0.7181 -0.2820 -0.3079
   36MOL0     O 4728  10.532   9.683  10.611 -0.0502 -0.6290  0.0507
   36MOL0     C 4729  10.405   9.666  10.575  0.9433 -0.1253 -0.2534
   36MOL0     C 4730  10.330   9.549  10.622 -0.5300 -0.0913 -0.2204
   36MOL0     C 4731  10.203   9.517  10.577 -0.2267 -0.2606 -0.5644
   36MOL0     C 4732  10.139   9.606  10.495 -0.2176 -0.0561  0.8881
   36MOL0     O 4733  10.009   9.600  10.452 -0.0492  0.5722 -0.1239
   36MOL0     C 4734   9.921   9.507  10.511 -0.1406 -0.1828  0.2246
   36MOL0     C 4735   9.786   9.492  10.437 -0.2606  0.5298  0.0101
   36MOL0     C 4736   9.765   9.346  10.377 -0.3916  0.4959  0.2119
   36MOL0     C 4737   9.630   9.341  10.310 -1.3529 -0.2494 -0.4032
   36MOL0     C 4738   9.610   9.201  10.250  0.7007  0.1139 -0.0206
   36MOL0     C 4739   9.473   9.187  10.185  0.2700 -0.2139 -0.6232
   36MOL0     C 4740   9.430   9.040  10.152  0.0525  0.9004  0.7517
   36MOL0     C 4741   9.414   8.944  10.267  0.4479  0.2423 -0.5486
   36MOL0     N 4742   9.276   8.951  10.324 -0.1077 -0.3400 -0.1247
   36MOL0     C 4743   9.207   8.843  10.362  0.6065  0.2602  0.5888
   36MOL0     C 4744   9.076   8.887  10.375  0.6775  0.0079 -0.1532
   36MOL0     C 4745   8.949   8.806  10.385 -0.7182 -0.0033  0.1609
   36MOL0     C 4746   8.926   8.757  10.537 -0.7708 -0.5814 -0.0292
   36MOL0     C 4747   9.026   8.649  10.578  0.4505 -0.3968 -0.3750
   36MOL0     C 4748   8.997   8.592  10.724  0.3673 -0.3634  0.4768
   36MOL0     O 4749   9.000   8.698  10.826 -0.8349 -0.8090 -0.6194
   36MOL0     C 4750   9.119   8.738  10.888 -0.1632  0.1897  0.9114
   36MOL0     C 4751   9.254   8.696  10.861  1.0545 -0.1047 -0.6117
   36MOL0     C 4752   9.366   8.745  10.934  0.4596  0.6967 -0.5492
   36MOL0     C 4753   9.506   8.698  10.898 -0.2992 -0.2456 -0.3931
   36MOL0     C 4754   9.340   8.826  11.051 -0.2252  0.5918 -0.4326
   36MOL0     C 4755   9.444   8.875  11.146  0.2792  0.2448 -0.6691
   36MOL0     O 4756   9.482   9.001  11.126  0.0598  0.0043 -0.2097
   36MOL0     C 4757   9.560   9.056  11.220  0.5958 -0.7300 -0.1503
   36MOL0     C 4758   9.506   9.076  11.350  0.5918 -0.4282  0.0224
   36MOL0     C 4759   9.591   9.135  11.443 -1.4270 -0.5836 -0.1524
   36MOL0     C 4760   9.739   9.160  11.429 -0.2918  0.7346 -0.0562
   36MOL0     O 4761   9.818   9.229  11.515  0.5323  0.6922 -0.7681
   36MOL0     C 4762   9.956   9.221  11.513 -0.5457  0.7036  0.0909
   36MOL0     C 4763   9.995   9.299  11.630 -0.7691 -0.5358 -0.3248
   36MOL0     C 4764  10.142   9.272  11.664  0.4540 -0.6410 -0.2402
   36MOL0     C 4765  10.159   9.309  11.811 -0.3133 -0.1774  0.1819
   36MOL0     C 4766  10.312   9.295  11.838 -0.4450 -0.3190 -0.4301
   36MOL0     C 4767  10.348   9.310  11.983  0.0883 -0.3452 -0.1615
   36MOL0     C 4768  10.470   9.229  12.015 -0.8269  0.0540  1.1208
   36MOL0     C 4769  10.536   9.260  12.152  0.1677 -0.1564  0.7971
   36MOL0    Cl 4770  10.434   9.208  12.287 -0.3268 -0.1634 -0.0310
   36MOL0     C 4771   9.779   9.129  11.299  1.0330 -0.1928  0.3276
   36MOL0     C 4772   9.688   9.090  11.195  1.0018  0.0294 -0.0206
   36MOL0     O 4773   9.497   8.799  11.230  0.3441 -0.2826 -0.5653
   36MOL0     C 4774   9.208   8.875  11.069  0.8369 -0.7135  0.8044
   36MOL0     C 4775   9.100   8.841  10.984 -0.2867 -0.7081  0.2490
   36MOL0     N 4776   9.070   9.017  10.330 -0.6004 -0.1069  1.3438
   36MOL0     N 4777   9.193   9.053  10.303 -0.4026 -0.2365 -0.4192
   36MOL0     C 4778  10.203   9.732  10.458  0.0585  0.7517 -0.2704
   36MOL0     C 4779  10.335   9.756  10.487 -0.6920 -0.1576  0.1789
   36MOL0     C 4780  10.693   9.830  10.731 -0.8562  0.4856 -0.1302
   36MOL0     C 4781  10.799   9.769  10.660  0.2714 -0.5163  0.1365
   36MOL0     C 4782  10.926   9.821  10.683  0.2348  0.4023 -0.0089
   36MOL0     C 4783  10.955   9.924  10.772  0.3007  0.4244  0.0511
   36MOL0     O 4784  11.081   9.962  10.806  0.2168  0.4751  0.1667
   36MOL0     C 4785  11.179   9.856  10.812  0.7393  1.3106  0.1820
   36MOL0     C 4786  11.149   9.764  10.938  0.0893  0.1889  0.4091
   36MOL0     C 4787  11.155   9.853  11.067  0.6795  0.2011 -0.4005
   36MOL0     C 4788  11.290   9.933  11.099  1.0890  0.9878 -0.2614
   36MOL0     C 4789  11.398   9.836  11.098  0.3114 -0.0852  0.8946
   36MOL0     C 4790  11.474   9.744  11.115  0.4248 -0.1554 -0.0088
   36MOL0     C 4791  10.854   9.988  10.829  0.3729 -0.1637  0.3138
   36MOL0     C 4792  10.727   9.939  10.807  0.4725 -0.1916 -0.2374
   36MOL0     H 4793  10.393   9.481  10.678  0.2570 -0.1285 -1.1239
   36MOL0     H 4794  10.144   9.436  10.620  1.8428 -0.8878  1.3309
   36MOL0     H 4795   9.969   9.409  10.506 -0.9796 -0.5365 -1.6096
   36MOL0     H 4796   9.904   9.546  10.612  2.5453  3.3985 -0.4921
   36MOL0     H 4797   9.711   9.504  10.515  0.0232  0.4424  0.2995
   36MOL0     H 4798   9.775   9.571  10.362  2.1256  2.2011  1.2853
   36MOL0     H 4799   9.859   9.333  10.324  0.0920  2.3729  0.5224
   36MOL0     H 4800   9.757   9.271  10.456  1.1023  1.1717  1.0411
   36MOL0     H 4801   9.559   9.377  10.384  1.1083  0.9075  1.5574
   36MOL0     H 4802   9.628   9.409  10.224 -0.5382 -1.6266 -1.5726
   36MOL0     H 4803   9.687   9.192  10.173  2.5463  0.6005  1.7124
   36MOL0     H 4804   9.624   9.123  10.324 -2.8002 -0.2169  0.4708
   36MOL0     H 4805   9.405   9.220  10.264  2.7588 -1.1037  2.0550
   36MOL0     H 4806   9.475   9.251  10.096  0.8370 -0.0407 -0.4891
   36MOL0     H 4807   9.341   9.030  10.089 -2.0898 -1.2492  3.8607
   36MOL0     H 4808   9.500   9.000  10.078 -1.2028 -0.9957  0.5224
   36MOL0     H 4809   9.485   8.962  10.349 -0.9820 -3.3658  1.7111
   36MOL0     H 4810   9.428   8.840  10.239  1.2988  0.6089 -1.5443
   36MOL0     H 4811   9.249   8.745  10.384 -3.3986 -1.2242  2.7726
   36MOL0     H 4812   8.863   8.871  10.365  1.5523  2.4727 -2.2405
   36MOL0     H 4813   8.946   8.718  10.321 -1.4314 -0.8692  1.3263
   36MOL0     H 4814   8.824   8.719  10.539 -0.2612 -2.1367 -1.4308
   36MOL0     H 4815   8.928   8.843  10.605 -3.0308 -0.0266 -0.5811
   36MOL0     H 4816   9.115   8.709  10.597 -1.5366  2.2967  0.9890
   36MOL0     H 4817   9.044   8.580  10.495 -0.8553  1.2416 -2.1047
   36MOL0     H 4818   9.073   8.520  10.755  2.1734  0.6625 -1.3532
   36MOL0     H 4819   8.899   8.544  10.724 -0.0412  0.4146 -1.1866
   36MOL0     H 4820   9.269   8.626  10.780  0.0717 -2.3435  1.0501
   36MOL0     H 4821   9.521   8.597  10.939  1.6554 -0.7309 -2.1223
   36MOL0     H 4822   9.515   8.690  10.789 -1.2241  0.3291 -0.5231
   36MOL0     H 4823   9.582   8.770  10.930 -1.0714 -0.4935  2.2166
   36MOL0     H 4824   9.401   9.057  11.368  0.7255 -1.1767  0.0226
   36MOL0     H 4825   9.553   9.158  11.542 -1.1266  0.8091 -0.3437
   36MOL0     H 4826   9.982   9.115  11.519  0.7955  1.0300  0.3115
   36MOL0     H 4827  10.008   9.267  11.428 -2.5137  0.8050 -1.1322
   36MOL0     H 4828   9.979   9.404  11.604 -1.2659  0.1542  2.4957
   36MOL0     H 4829   9.932   9.276  11.716  1.2817  1.2530  1.7999
   36MOL0     H 4830  10.192   9.336  11.590 -3.5736  1.8691 -1.1205
   36MOL0     H 4831  10.156   9.164  11.652 -0.0216 -0.7304  0.0043
   36MOL0     H 4832  10.127   9.413  11.820  0.7067  0.9077 -5.1955
   36MOL0     H 4833  10.101   9.241  11.875 -2.1739  3.5565  2.8744
   36MOL0     H 4834  10.364   9.380  11.791  1.0999 -0.5750  0.7336
   36MOL0     H 4835  10.334   9.194  11.802 -2.0239 -2.0847  3.0710
   36MOL0     H 4836  10.356   9.418  11.993 -3.2843  0.6144 -4.5937
   36MOL0     H 4837  10.262   9.286  12.046 -0.6723  3.2689  0.3603
   36MOL0     H 4838  10.548   9.260  11.945  0.2503 -0.1388  2.2066
   36MOL0     H 4839  10.442   9.123  12.013 -0.7469 -0.0283  2.8330
   36MOL0     H 4840  10.565   9.366  12.153 -0.4841  0.0471 -0.0493
   36MOL0     H 4841  10.632   9.208  12.154  2.4707  3.6120 -0.6069
   36MOL0     H 4842   9.882   9.153  11.275  0.8936  1.5923  1.3103
   36MOL0     H 4843   9.717   9.101  11.091  0.2949 -1.4061 -0.3907
   36MOL0     H 4844   9.183   8.959  11.134 -4.1719  0.9408 -2.6564
   36MOL0     H 4845   9.005   8.886  11.011  0.8264  2.6263 -0.9317
   36MOL0     H 4846  10.151   9.807  10.399 -0.2508  0.4662 -0.3583
   36MOL0     H 4847  10.388   9.840  10.444  1.8390 -1.1398  1.1868
   36MOL0     H 4848  10.786   9.686  10.591 -0.0994 -0.3256 -0.0249
   36MOL0     H 4849  11.010   9.770  10.637  2.2047  3.7423 -0.4530
   36MOL0     H 4850  11.178   9.791  10.724  1.1120  0.4334  0.8155
   36MOL0     H 4851  11.278   9.903  10.819  1.5760 -0.2361 -0.6199
   36MOL0     H 4852  11.231   9.693  10.950 -0.1934  0.0770  1.8099
   36MOL0     H 4853  11.059   9.705  10.921  1.0497 -1.5766  1.2516
   36MOL0     H 4854  11.140   9.779  11.147  1.3808  0.5655  0.0785
   36MOL0     H 4855  11.084   9.935  11.059  1.3061  0.6901 -1.0954
   36MOL0     H 4856  11.287   9.975  11.199  0.9693 -1.7959  1.0009
   36MOL0     H 4857  11.306  10.007  11.020 -3.8784  1.1104 -1.4756
   36MOL0     H 4858  11.543   9.662  11.129  0.0839 -0.1362  2.2000
   36MOL0     H 4859  10.880  10.062  10.904  3.0198  0.2177 -0.8807
   36MOL0     H 4860  10.650   9.985  10.867  1.2420 -1.2174  1.6252
   37MOL0     O 4861   8.711   9.001   6.611 -0.1791 -0.0312 -0.4766
   37MOL0     C 4862   8.793   8.993   6.521 -0.4950 -0.1754 -0.0065
   37MOL0     O 4863   8.774   9.042   6.393 -0.2484 -0.8520 -1.1248
   37MOL0     C 4864   8.655   9.046   6.340  0.0007  0.5927 -0.1312
   37MOL0     C 4865   8.613   9.160   6.269 -0.0680 -0.2313 -0.7110
   37MOL0     C 4866   8.482   9.169   6.208  0.1371 -0.4699  0.4147
   37MOL0     C 4867   8.400   9.053   6.206  0.0821  0.5757 -0.2841
   37MOL0     O 4868   8.278   9.039   6.141 -0.3415  0.2008  0.8225
   37MOL0     C 4869   8.217   9.149   6.076 -0.5913 -0.7423 -0.2714
   37MOL0     C 4870   8.073   9.116   6.026  0.1412  0.3770 -0.0693
   37MOL0     C 4871   8.077   9.048   5.881 -0.2819  0.1678 -0.8721
   37MOL0     C 4872   7.932   9.030   5.833 -1.1982 -0.1503  0.0429
   37MOL0     C 4873   7.854   8.922   5.911  1.1628 -0.3466 -1.3024
   37MOL0     C 4874   7.703   8.911   5.860  0.5238  0.0474  0.9038
   37MOL0     C 4875   7.631   8.791   5.917  0.3610 -0.1905 -0.1931
   37MOL0     C 4876   7.683   8.654   5.870  0.0128  1.2499  0.1402
   37MOL0     N 4877   7.578   8.558   5.898  0.5232  0.1585  0.0190
   37MOL0     C 4878   7.452   8.555   5.837 -1.5349  0.0170 -0.1313
   37MOL0     C 4879   7.393   8.445   5.882 -0.7167 -0.1863 -0.6064
   37MOL0     C 4880   7.260   8.410   5.833 -0.4130 -0.3483 -0.5476
   37MOL0     C 4881   7.153   8.437   5.933  0.2660  0.5176 -0.2176
   37MOL0     C 4882   7.104   8.586   5.927 -0.5935  0.1372 -0.1543
   37MOL0     C 4883   6.988   8.608   6.021 -0.7442 -0.2469  0.3677
   37MOL0     O 4884   6.873   8.540   5.966  0.1153  0.6941 -0.4548
   37MOL0     C 4885   6.768   8.517   6.050  0.6683 -0.8680  0.7389
   37MOL0     C 4886   6.749   8.596   6.161 -0.1543  0.3749  0.1004
   37MOL0     C 4887   6.637   8.593   6.235  0.3302  0.1285  0.5266
   37MOL0     C 4888   6.633   8.699   6.342 -0.4135 -0.2718  0.3765
   37MOL0     C 4889   6.529   8.510   6.204  0.3936  0.3688  0.5155
   37MOL0     C 4890   6.393   8.502   6.266 -0.3674  0.1958  0.8001
   37MOL0     O 4891   6.318   8.394   6.237  0.1134  0.2924  0.1206
   37MOL0     C 4892   6.198   8.366   6.297  0.4584 -0.4611  0.7295
   37MOL0     C 4893   6.113   8.282   6.229  0.6286 -0.1331  0.2542
   37MOL0     C 4894   5.994   8.243   6.285 -0.7579  0.1363  0.0452
   37MOL0     C 4895   5.955   8.290   6.412 -0.4174 -0.0455  0.1782
   37MOL0     O 4896   5.820   8.272   6.452  0.0036  0.2602 -0.1642
   37MOL0     C 4897   5.773   8.313   6.576 -0.5735 -0.5357  0.2312
   37MOL0     C 4898   5.623   8.295   6.580  0.5900  0.8914 -0.4205
   37MOL0     C 4899   5.554   8.356   6.711  0.3005 -0.3930 -0.2034
   37MOL0     C 4900   5.401   8.343   6.695  0.3998  0.7553 -1.1704
   37MOL0     C 4901   5.334   8.298   6.828  0.5445 -0.1373 -0.0242
   37MOL0     C 4902   5.188   8.280   6.819 -0.1710 -1.1511 -0.0941
   37MOL0     C 4903   5.146   8.203   6.939 -0.4305  0.1569  0.0807
   37MOL0     C 4904   4.998   8.180   6.942  0.7753  0.2023 -0.0447
   37MOL0    Cl 4905   4.925   8.333   6.952  0.1140 -0.2115 -0.2947
   37MOL0     C 4906   6.051   8.371   6.488  0.3888  0.5521 -0.3853
   37MOL0     C 4907   6.165   8.406   6.430 -0.1842  0.1909  0.2934
   37MOL0     O 4908   6.357   8.599   6.329  0.5322 -0.0639  0.1266
   37MOL0     C 4909   6.552   8.417   6.103 -0.3291  0.0928  0.9917
   37MOL0     C 4910   6.668   8.425   6.021  0.1722  1.1686  0.3783
   37MOL0     N 4911   7.477   8.376   5.970  0.0883 -0.5336 -0.4128
   37MOL0     N 4912   7.589   8.440   5.970  0.0683  0.1861  0.3321
   37MOL0     C 4913   8.445   8.939   6.270 -0.4339 -0.0930 -0.0878
   37MOL0     C 4914   8.568   8.936   6.338 -0.4299 -0.5411 -0.7480
   37MOL0     C 4915   8.926   8.941   6.553 -0.1482  0.0545 -0.7917
   37MOL0     C 4916   9.005   8.876   6.454  0.8242 -0.4734 -0.4197
   37MOL0     C 4917   9.129   8.827   6.476 -0.0259 -0.4843 -0.1156
   37MOL0     C 4918   9.188   8.846   6.593 -0.1688  0.8800 -0.7107
   37MOL0     O 4919   9.316   8.815   6.629 -0.8154  0.7163  0.0663
   37MOL0     C 4920   9.407   8.769   6.529 -0.6520  0.0654  0.2950
   37MOL0     C 4921   9.542   8.759   6.599  1.2892  0.3859  0.3569
   37MOL0     C 4922   9.658   8.774   6.497  0.1413  0.0783  0.3387
   37MOL0     C 4923   9.793   8.810   6.575 -0.8290  0.4208  0.0416
   37MOL0     C 4924   9.829   8.713   6.682  0.6504 -1.1981 -0.1830
   37MOL0     C 4925   9.864   8.627   6.766  0.6202 -0.2156  0.1371
   37MOL0     C 4926   9.115   8.906   6.700 -0.2003  0.1212 -0.5179
   37MOL0     C 4927   8.986   8.950   6.679  1.0829  0.4855  0.3597
   37MOL0     H 4928   8.682   9.243   6.278 -0.3408  0.1469 -1.9062
   37MOL0     H 4929   8.447   9.260   6.160 -3.2738 -1.1839  1.2488
   37MOL0     H 4930   8.197   9.228   6.148  1.6108  1.3248 -1.7647
   37MOL0     H 4931   8.277   9.201   6.000 -1.9770  0.5698 -0.5266
   37MOL0     H 4932   8.023   9.046   6.092  1.5715 -1.4269 -0.8058
   37MOL0     H 4933   8.009   9.203   6.007 -0.7410  0.3904  2.6037
   37MOL0     H 4934   8.134   9.110   5.811  1.4514  1.8873  1.8769
   37MOL0     H 4935   8.114   8.945   5.883  1.4014  0.6544  2.7559
   37MOL0     H 4936   7.872   9.121   5.835  0.8204  1.3322 -1.5470
   37MOL0     H 4937   7.936   8.998   5.728  2.3697 -0.8088  0.2397
   37MOL0     H 4938   7.904   8.828   5.887  0.9115 -0.8090 -0.0774
   37MOL0     H 4939   7.846   8.950   6.017 -1.6180  1.1464 -1.8052
   37MOL0     H 4940   7.653   9.006   5.881  0.2267 -0.1539  1.1090
   37MOL0     H 4941   7.699   8.897   5.751 -2.8214 -1.5787  1.1179
   37MOL0     H 4942   7.636   8.788   6.026  3.4528  2.1816 -0.1277
   37MOL0     H 4943   7.524   8.801   5.898  0.6103 -0.0100 -1.5984
   37MOL0     H 4944   7.777   8.626   5.920  1.5693 -3.6475 -4.5341
   37MOL0     H 4945   7.702   8.658   5.762 -1.2806 -0.3726 -0.1803
   37MOL0     H 4946   7.415   8.632   5.770  1.3487  2.3776  0.7692
   37MOL0     H 4947   7.238   8.463   5.740  1.5065 -0.0231 -0.8698
   37MOL0     H 4948   7.270   8.303   5.812  0.3776  0.0606 -2.4111
   37MOL0     H 4949   7.176   8.411   6.037 -1.9370  0.6984  0.3632
   37MOL0     H 4950   7.074   8.366   5.909  0.3984  0.5572 -0.7747
   37MOL0     H 4951   7.077   8.605   5.823  3.7470  0.4420 -1.4337
   37MOL0     H 4952   7.180   8.657   5.961 -1.6825  1.5129 -0.4925
   37MOL0     H 4953   6.964   8.713   6.040 -0.6390  0.1594 -1.4926
   37MOL0     H 4954   7.018   8.557   6.112  0.6934  0.0448  0.0786
   37MOL0     H 4955   6.810   8.683   6.182  1.5495 -0.5993 -0.5554
   37MOL0     H 4956   6.571   8.665   6.426  0.2203 -1.6942  0.2968
   37MOL0     H 4957   6.722   8.738   6.391 -1.5661 -0.7169  3.0223
   37MOL0     H 4958   6.587   8.788   6.299  1.9207  0.4890 -0.7001
   37MOL0     H 4959   6.132   8.247   6.128  1.3741  0.8166  0.0474
   37MOL0     H 4960   5.935   8.172   6.228 -1.0686 -1.9422  2.7666
   37MOL0     H 4961   5.826   8.260   6.656 -0.9483 -0.2795  0.6524
   37MOL0     H 4962   5.788   8.421   6.581 -0.3435 -0.2859 -3.1305
   37MOL0     H 4963   5.582   8.341   6.490  3.8273  0.2811 -2.3712
   37MOL0     H 4964   5.587   8.192   6.580 -0.4397  1.2370 -1.1912
   37MOL0     H 4965   5.590   8.459   6.721 -1.0865  0.2165 -1.1732
   37MOL0     H 4966   5.588   8.296   6.796 -0.7748  0.2494  0.7095
   37MOL0     H 4967   5.349   8.437   6.675  1.1067  1.4589  0.1703
   37MOL0     H 4968   5.371   8.270   6.619  0.6005 -0.4308 -0.1381
   37MOL0     H 4969   5.350   8.369   6.909 -3.1861  0.0514  0.7106
   37MOL0     H 4970   5.378   8.202   6.858  0.7030  0.4442  1.7339
   37MOL0     H 4971   5.138   8.377   6.813  0.4236 -0.9194 -1.6456
   37MOL0     H 4972   5.157   8.212   6.739  0.8027 -0.4613 -1.0746
   37MOL0     H 4973   5.161   8.261   7.031 -0.2423  2.4495 -1.3215
   37MOL0     H 4974   5.199   8.108   6.951  0.7456  0.4439 -2.3326
   37MOL0     H 4975   4.970   8.115   7.025 -1.2004 -0.8144 -1.4097
   37MOL0     H 4976   4.959   8.135   6.850 -0.6511  1.0994  0.0833
   37MOL0     H 4977   6.023   8.413   6.584 -0.5983 -0.9043  0.0064
   37MOL0     H 4978   6.242   8.460   6.484 -0.1131 -0.4862  0.8830
   37MOL0     H 4979   6.488   8.334   6.074  1.6186 -0.6869 -1.4729
   37MOL0     H 4980   6.680   8.362   5.933 -0.9017  2.5274 -0.7977
   37MOL0     H 4981   8.382   8.851   6.279 -0.4714  0.0657  1.4822
   37MOL0     H 4982   8.601   8.843   6.383  1.5265  0.4607  0.0075
   37MOL0     H 4983   8.950   8.863   6.361  0.3008 -0.4361 -0.1177
   37MOL0     H 4984   9.179   8.783   6.390 -0.2138  0.1762 -0.5675
   37MOL0     H 4985   9.385   8.670   6.488  0.8313  0.7404 -2.3612
   37MOL0     H 4986   9.408   8.832   6.439 -1.5885 -0.6030 -0.2084
   37MOL0     H 4987   9.540   8.662   6.650 -0.9745  0.0518 -0.2333
   37MOL0     H 4988   9.556   8.841   6.671 -0.2432  3.0267 -2.1383
   37MOL0     H 4989   9.638   8.855   6.427  0.2062 -0.0009  0.2278
   37MOL0     H 4990   9.663   8.678   6.444  1.0024 -1.0548  2.3449
   37MOL0     H 4991   9.796   8.909   6.622  1.8520 -0.2505  1.5305
   37MOL0     H 4992   9.872   8.794   6.502 -0.9738 -0.8319  0.1352
   37MOL0     H 4993   9.898   8.550   6.833  4.2998  0.2578 -0.9612
   37MOL0     H 4994   9.162   8.919   6.797 -0.6184  0.1289 -0.3152
   37MOL0     H 4995   8.925   8.977   6.765  0.6393  1.6676 -0.3018
   38MOL0     O 4996   3.682   7.778   0.578  0.3239  0.4114 -0.3368
   38MOL0     C 4997   3.771   7.806   0.660  0.3739  0.4286  0.1734
   38MOL0     O 4998   3.758   7.892   0.764 -0.5928  0.0002 -0.3386
   38MOL0     C 4999   3.639   7.958   0.788 -0.3408 -0.3696 -0.8295
   38MOL0     C 5000   3.653   8.065   0.881  0.5809 -0.3338 -0.3411
   38MOL0     C 5001   3.537   8.145   0.908 -0.9729 -0.6800 -0.8872
   38MOL0     C 5002   3.413   8.130   0.843 -0.7813  0.3742 -1.0841
   38MOL0     O 5003   3.304   8.212   0.883  0.2014  0.4255  0.2134
   38MOL0     C 5004   3.345   8.348   0.862 -0.4059 -0.0710  0.0571
   38MOL0     C 5005   3.210   8.421   0.888  0.9193 -0.0421  0.2898
   38MOL0     C 5006   3.244   8.572   0.890 -0.6529  0.6984 -0.4109
   38MOL0     C 5007   3.142   8.659   0.958 -0.5572 -0.9547  0.2222
   38MOL0     C 5008   3.012   8.630   0.902  0.0024  0.4534 -0.0987
   38MOL0     C 5009   2.917   8.739   0.958  0.2565 -0.2257  0.1663
   38MOL0     C 5010   2.783   8.696   0.901 -0.3295 -0.3180  0.6162
   38MOL0     C 5011   2.684   8.808   0.902  0.0420  0.0638  0.7828
   38MOL0     N 5012   2.628   8.842   1.027 -0.0458 -0.8120 -0.5803
   38MOL0     C 5013   2.625   8.971   1.074  0.5354 -0.5608 -0.1159
   38MOL0     C 5014   2.538   8.965   1.183 -0.4275 -0.2762 -0.2924
   38MOL0     C 5015   2.494   9.082   1.271 -0.0192  0.1258 -0.1082
   38MOL0     C 5016   2.375   9.163   1.215 -0.3645  0.3839  0.2852
   38MOL0     C 5017   2.247   9.141   1.283  0.3045  0.4429  0.8169
   38MOL0     C 5018   2.196   8.998   1.260 -0.4650  0.5259 -0.9874
   38MOL0     O 5019   2.065   8.997   1.318  0.1774 -0.0638  0.4943
   38MOL0     C 5020   1.999   8.876   1.320 -0.1317  0.6165 -0.1590
   38MOL0     C 5021   1.884   8.872   1.394  0.3002  0.5343 -0.5431
   38MOL0     C 5022   1.804   8.759   1.401 -0.4862  1.3021  0.3646
   38MOL0     C 5023   1.669   8.752   1.472  0.4933 -0.2401  0.0574
   38MOL0     C 5024   1.844   8.644   1.322 -0.6427 -0.4500 -0.3360
   38MOL0     C 5025   1.767   8.515   1.320 -0.5883  0.9226  0.0340
   38MOL0     O 5026   1.815   8.422   1.230  0.3283 -0.0218  0.5981
   38MOL0     C 5027   1.742   8.307   1.209 -0.2525 -0.2846  0.2983
   38MOL0     C 5028   1.809   8.221   1.126 -0.3210  0.4455 -0.1163
   38MOL0     C 5029   1.749   8.104   1.076  0.5204  0.2602  1.1038
   38MOL0     C 5030   1.616   8.076   1.099  0.3476 -0.4335  0.0593
   38MOL0     O 5031   1.561   7.974   1.034  0.0460 -0.0899  0.4505
   38MOL0     C 5032   1.416   7.968   1.012 -0.6444  0.7836 -0.1604
   38MOL0     C 5033   1.399   7.872   0.892 -0.2441  0.3536  0.5292
   38MOL0     C 5034   1.447   7.728   0.905  0.1553  0.5333  0.3014
   38MOL0     C 5035   1.342   7.633   0.947  0.5144 -0.2145 -0.4240
   38MOL0     C 5036   1.270   7.570   0.831 -0.0404  0.0145 -0.4906
   38MOL0     C 5037   1.155   7.470   0.858  0.0159 -0.6213 -0.4653
   38MOL0     C 5038   1.219   7.355   0.930  0.7212  0.1970  0.5702
   38MOL0     C 5039   1.122   7.241   0.952 -0.1209 -0.5032  0.7866
   38MOL0    Cl 5040   1.209   7.102   1.026 -0.1022  0.1290 -0.0615
   38MOL0     C 5041   1.551   8.164   1.196  0.8023  0.2253 -0.5238
   38MOL0     C 5042   1.610   8.274   1.250  0.1994 -0.9110 -0.4650
   38MOL0     O 5043   1.702   8.485   1.418 -0.0251  0.1267 -0.0251
   38MOL0     C 5044   1.974   8.648   1.263 -0.2668 -0.0160  0.3980
   38MOL0     C 5045   2.053   8.761   1.258 -1.5740 -0.1294  0.3678
   38MOL0     N 5046   2.492   8.838   1.183  0.5877 -0.4678 -0.0904
   38MOL0     N 5047   2.535   8.762   1.088  0.1057 -0.3141 -0.3180
   38MOL0     C 5048   3.394   8.010   0.767 -0.2237  0.4375 -0.0823
   38MOL0     C 5049   3.504   7.932   0.736 -0.4449  0.5481 -0.2552
   38MOL0     C 5050   3.902   7.754   0.633  0.8634  0.3162  0.0091
   38MOL0     C 5051   3.926   7.670   0.523 -0.0620  0.2572 -0.3835
   38MOL0     C 5052   4.056   7.624   0.482  0.5945  0.7149  0.9774
   38MOL0     C 5053   4.165   7.663   0.564 -0.1045 -0.7479 -0.1574
   38MOL0     O 5054   4.291   7.612   0.555 -0.0275  0.4984  0.2292
   38MOL0     C 5055   4.333   7.543   0.431 -0.0116 -0.1055 -0.1622
   38MOL0     C 5056   4.483   7.502   0.443 -0.6488  0.3961  0.5966
   38MOL0     C 5057   4.534   7.426   0.323  0.3349  0.2871 -0.2080
   38MOL0     C 5058   4.687   7.413   0.309  0.6078 -0.2648 -0.1442
   38MOL0     C 5059   4.723   7.315   0.408 -1.1069  0.0975  0.0236
   38MOL0     C 5060   4.748   7.238   0.501 -0.1208  0.0896 -0.3796
   38MOL0     C 5061   4.142   7.752   0.668  1.1814  0.0095  0.0542
   38MOL0     C 5062   4.012   7.802   0.699 -0.2915 -0.0066 -0.3073
   38MOL0     H 5063   3.742   8.087   0.939  1.2331 -3.0466 -0.1773
   38MOL0     H 5064   3.541   8.217   0.989 -2.9336 -1.5864  0.1014
   38MOL0     H 5065   3.406   8.371   0.950 -2.0258 -0.9924  1.5214
   38MOL0     H 5066   3.384   8.375   0.764 -0.6260  0.6213  0.1594
   38MOL0     H 5067   3.135   8.412   0.809 -0.2319 -0.9752  1.4517
   38MOL0     H 5068   3.175   8.388   0.987 -0.6237 -1.9870 -0.8337
   38MOL0     H 5069   3.338   8.587   0.945  1.8067 -5.2400 -2.1885
   38MOL0     H 5070   3.260   8.607   0.787 -0.8202 -0.2429 -0.7639
   38MOL0     H 5071   3.145   8.635   1.065  0.0905 -3.6863 -0.3440
   38MOL0     H 5072   3.160   8.766   0.940  2.2708 -1.5736 -1.2649
   38MOL0     H 5073   3.016   8.653   0.795  2.9422  0.0781 -0.1494
   38MOL0     H 5074   2.972   8.530   0.921  0.7367  0.3132  0.7489
   38MOL0     H 5075   2.921   8.728   1.066  2.5763 -2.1153 -0.0294
   38MOL0     H 5076   2.948   8.837   0.921 -0.0255 -1.4738 -3.8730
   38MOL0     H 5077   2.788   8.675   0.794 -2.8955  2.0527 -0.1019
   38MOL0     H 5078   2.737   8.607   0.945 -2.2706  1.1938  1.8071
   38MOL0     H 5079   2.598   8.769   0.846 -0.3386 -2.6610  3.0339
   38MOL0     H 5080   2.729   8.897   0.859 -0.6968 -0.7740 -1.8852
   38MOL0     H 5081   2.692   9.053   1.048 -0.0378 -0.4375 -1.2506
   38MOL0     H 5082   2.460   9.050   1.369  0.0622 -2.7435 -0.9495
   38MOL0     H 5083   2.587   9.136   1.295  0.0678 -0.4467  0.8825
   38MOL0     H 5084   2.365   9.136   1.109 -2.8265  1.3820  0.1989
   38MOL0     H 5085   2.406   9.268   1.213  0.0655  0.2690 -2.3581
   38MOL0     H 5086   2.184   9.223   1.246 -1.8270 -0.9769  1.0975
   38MOL0     H 5087   2.257   9.162   1.390  1.0406  2.5574  0.3843
   38MOL0     H 5088   2.262   8.935   1.320 -3.8872 -0.3073  2.2777
   38MOL0     H 5089   2.203   8.980   1.152 -0.2612  0.6492 -0.9948
   38MOL0     H 5090   1.852   8.959   1.451 -0.4014 -0.7162  1.0458
   38MOL0     H 5091   1.595   8.716   1.400 -0.0003 -1.6233  1.2136
   38MOL0     H 5092   1.671   8.683   1.556  0.0590 -0.8752 -0.4469
   38MOL0     H 5093   1.638   8.849   1.513 -1.2573 -1.0239  0.6842
   38MOL0     H 5094   1.905   8.239   1.078  0.3001 -0.1593  0.8514
   38MOL0     H 5095   1.806   8.056   0.997  0.9666  0.6425  1.1890
   38MOL0     H 5096   1.371   7.932   1.105 -2.3568  1.2617 -0.7821
   38MOL0     H 5097   1.378   8.063   0.975  0.2743  0.5629 -1.7593
   38MOL0     H 5098   1.296   7.870   0.857  0.1302 -2.1397 -0.6763
   38MOL0     H 5099   1.456   7.914   0.808  0.0792 -1.2380 -0.0960
   38MOL0     H 5100   1.528   7.722   0.978  0.1916  1.2764  0.3292
   38MOL0     H 5101   1.492   7.688   0.813 -0.4742 -1.3350  0.7657
   38MOL0     H 5102   1.399   7.557   1.001 -1.5265  0.0769  2.3657
   38MOL0     H 5103   1.273   7.678   1.019  1.5176 -1.5572  1.4756
   38MOL0     H 5104   1.344   7.520   0.768 -0.3478  0.1159 -0.9364
   38MOL0     H 5105   1.229   7.655   0.776 -0.2762  0.5161  0.4329
   38MOL0     H 5106   1.084   7.515   0.929 -2.0119  0.2912 -2.9464
   38MOL0     H 5107   1.098   7.441   0.770 -0.2060 -0.1130 -0.4933
   38MOL0     H 5108   1.249   7.382   1.032 -1.1443  0.8914  0.9777
   38MOL0     H 5109   1.307   7.314   0.880 -0.3942 -1.4785 -0.0849
   38MOL0     H 5110   1.089   7.205   0.854 -0.1687  0.1710  0.5526
   38MOL0     H 5111   1.027   7.264   1.001 -1.1106  0.5469 -1.4511
   38MOL0     H 5112   1.445   8.145   1.206  0.6539  0.6035 -1.2502
   38MOL0     H 5113   1.545   8.343   1.303  0.8617  0.0365 -0.8647
   38MOL0     H 5114   2.025   8.565   1.215  1.4165  1.0485  0.2832
   38MOL0     H 5115   2.141   8.757   1.194 -0.2764 -0.7858  2.1322
   38MOL0     H 5116   3.299   7.991   0.719  0.1121 -2.6241  0.2772
   38MOL0     H 5117   3.481   7.869   0.651  0.1085 -1.1224  0.7913
   38MOL0     H 5118   3.846   7.642   0.455 -1.4005  3.4557 -0.3127
   38MOL0     H 5119   4.065   7.561   0.395 -0.5867  1.1282  0.5406
   38MOL0     H 5120   4.282   7.447   0.417 -1.7260  0.2549  2.6355
   38MOL0     H 5121   4.319   7.615   0.350 -0.1003  0.0808  0.0185
   38MOL0     H 5122   4.517   7.449   0.532  3.8985  1.0852 -0.4898
   38MOL0     H 5123   4.534   7.597   0.424  1.6648 -0.8198  0.4323
   38MOL0     H 5124   4.500   7.475   0.231 -3.9844  0.6158  1.3522
   38MOL0     H 5125   4.489   7.327   0.326  3.2351 -1.2166 -1.8233
   38MOL0     H 5126   4.744   7.506   0.316  2.0036 -1.1779  1.7307
   38MOL0     H 5127   4.713   7.370   0.212  0.6128 -0.9811  0.1666
   38MOL0     H 5128   4.783   7.165   0.571  1.4835 -0.0836 -1.3165
   38MOL0     H 5129   4.223   7.799   0.723  0.6501  3.8110 -2.1108
   38MOL0     H 5130   4.011   7.886   0.768  0.5337  2.6458 -3.2355
   39MOL0     O 5131   4.117  10.468  10.526 -0.1848 -0.3544  0.5689
   39MOL0     C 5132   4.059  10.464  10.419  0.3527  0.6772  0.4934
   39MOL0     O 5133   3.931  10.443  10.398 -0.1404  1.0827  0.8413
   39MOL0     C 5134   3.835  10.460  10.494 -1.1621  0.2321 -0.6787
   39MOL0     C 5135   3.714  10.536  10.466  0.0914 -0.3078 -0.9125
   39MOL0     C 5136   3.628  10.551  10.581 -0.8882  0.3219 -0.0091
   39MOL0     C 5137   3.655  10.486  10.702  0.7765 -0.3283 -0.6752
   39MOL0     O 5138   3.563  10.485  10.812 -0.2119  0.2155  0.0745
   39MOL0     C 5139   3.545  10.603  10.890  0.2989 -0.4169 -0.6624
   39MOL0     C 5140   3.394  10.619  10.915 -0.4557  0.2557  0.2303
   39MOL0     C 5141   3.322  10.487  10.946  0.0746 -0.1147 -0.3656
   39MOL0     C 5142   3.170  10.517  10.965  0.8204 -0.3726  0.0647
   39MOL0     C 5143   3.087  10.393  11.004  0.7529 -0.1266 -0.8868
   39MOL0     C 5144   3.095  10.283  10.908 -0.5827 -0.6398  0.1610
   39MOL0     C 5145   2.992  10.168  10.934 -1.0431 -0.5390  0.3698
   39MOL0     C 5146   2.861  10.186  10.850  0.6763  0.3985  0.4127
   39MOL0     N 5147   2.755  10.113  10.932 -0.0520  0.3655  0.0283
   39MOL0     C 5148   2.701   9.992  10.897 -0.2037 -0.1059 -0.1735
   39MOL0     C 5149   2.618   9.956  10.995 -0.0829 -0.4489  0.8835
   39MOL0     C 5150   2.516   9.853  11.004 -0.0687 -0.1001 -0.3713
   39MOL0     C 5151   2.382   9.896  10.936 -0.8794 -0.3222 -0.4346
   39MOL0     C 5152   2.324  10.020  10.997  0.1120 -0.0008  0.0267
   39MOL0     C 5153   2.175  10.039  10.998  0.8989  0.4194 -0.9273
   39MOL0     O 5154   2.111   9.920  11.048 -0.2892 -0.2002  0.1887
   39MOL0     C 5155   1.972   9.926  11.070  0.2123 -0.4443  0.1442
   39MOL0     C 5156   1.901   9.806  11.075 -0.0014  0.3912  0.2503
   39MOL0     C 5157   1.767   9.790  11.070  0.0986 -0.0521  0.0041
   39MOL0     C 5158   1.720   9.644  11.067  0.1594  0.1762  0.0663
   39MOL0     C 5159   1.688   9.911  11.077 -0.5118 -0.4525  0.7464
   39MOL0     C 5160   1.539   9.916  11.085  0.1969  0.4010  0.2879
   39MOL0     O 5161   1.479  10.039  11.086  0.4099 -0.0296 -0.4269
   39MOL0     C 5162   1.345  10.035  11.109 -0.3374  0.2540 -0.3706
   39MOL0     C 5163   1.259   9.999  11.011  0.5154  0.8347  0.3532
   39MOL0     C 5164   1.119  10.008  11.033  0.4596 -0.4827  0.5389
   39MOL0     C 5165   1.068  10.036  11.158 -0.7908 -0.3436 -0.7882
   39MOL0     O 5166   0.940  10.052  11.186 -0.1480 -1.2176  0.4854
   39MOL0     C 5167   0.837  10.009  11.098  0.1407  0.0054 -0.2022
   39MOL0     C 5168   0.706  10.050  11.163  0.0455  0.0803  0.3213
   39MOL0     C 5169   0.597  10.015  11.062 -0.1441 -0.7980 -1.1656
   39MOL0     C 5170   0.461  10.090  11.085 -0.2369 -0.4589 -0.7225
   39MOL0     C 5171   0.353  10.027  10.996  0.3307 -0.1646 -0.0828
   39MOL0     C 5172   0.240  10.133  10.957 -0.8871  0.0091 -1.0742
   39MOL0     C 5173   0.287  10.241  10.856 -0.4761  0.4919 -0.1741
   39MOL0     C 5174   0.163  10.308  10.803 -0.1069 -0.1387 -0.7180
   39MOL0    Cl 5175   0.106  10.419  10.942 -0.0174  0.4239 -0.3902
   39MOL0     C 5176   1.160  10.068  11.256  0.5048 -0.7357 -0.4952
   39MOL0     C 5177   1.296  10.071  11.232  0.5202 -0.6245 -0.2339
   39MOL0     O 5178   1.484   9.808  11.107 -0.8995 -0.5693  0.0650
   39MOL0     C 5179   1.760  10.034  11.073 -0.1172 -0.0586 -0.2132
   39MOL0     C 5180   1.897  10.044  11.070  0.9954 -0.4629  0.5131
   39MOL0     N 5181   2.615  10.069  11.075 -0.0129 -0.9323  0.2583
   39MOL0     N 5182   2.693  10.159  11.043 -0.0992  0.1742  0.2234
   39MOL0     C 5183   3.759  10.394  10.714 -0.5289 -0.0715 -0.1995
   39MOL0     C 5184   3.853  10.386  10.616  0.0147 -0.0326  0.5024
   39MOL0     C 5185   4.130  10.489  10.293 -1.3047 -0.3541  0.1318
   39MOL0     C 5186   4.266  10.458  10.300  0.2852 -0.6149  0.7596
   39MOL0     C 5187   4.351  10.462  10.189 -0.0521 -0.6370  0.7576
   39MOL0     C 5188   4.293  10.526  10.075 -0.2491 -0.0546  0.1110
   39MOL0     O 5189   4.352  10.553   9.959  0.6732  0.4503 -0.3031
   39MOL0     C 5190   4.470  10.474   9.917  0.7461  0.4644  0.7754
   39MOL0     C 5191   4.546  10.561   9.820 -0.0042  0.1600  0.2645
   39MOL0     C 5192   4.646  10.480   9.733 -0.6138 -0.0618  0.0852
   39MOL0     C 5193   4.750  10.413   9.814 -0.5684  0.4219 -0.6762
   39MOL0     C 5194   4.842  10.361   9.712  0.3616  0.5844 -0.5746
   39MOL0     C 5195   4.928  10.317   9.635  0.2498  0.0371  0.3914
   39MOL0     C 5196   4.166  10.581  10.074 -0.1104 -0.0028  0.1151
   39MOL0     C 5197   4.080  10.550  10.178  0.1639 -0.8793 -0.6072
   39MOL0     H 5198   3.711  10.597  10.377 -2.7491 -0.4358 -1.0021
   39MOL0     H 5199   3.542  10.616  10.586 -0.2471  1.1173  1.0898
   39MOL0     H 5200   3.600  10.587  10.983  3.4397 -1.1569 -2.4903
   39MOL0     H 5201   3.578  10.699  10.848 -2.9707  0.6439 -1.0723
   39MOL0     H 5202   3.377  10.683  11.002 -3.8718  0.1684 -0.2232
   39MOL0     H 5203   3.351  10.664  10.824 -0.7189 -1.7747 -0.6963
   39MOL0     H 5204   3.331  10.409  10.869  2.6962 -1.3741  1.0968
   39MOL0     H 5205   3.366  10.438  11.033  0.7857 -0.1078 -0.7195
   39MOL0     H 5206   3.151  10.599  11.035 -0.3389 -0.1677 -0.4598
   39MOL0     H 5207   3.126  10.548  10.870 -2.1974  0.9950  1.7655
   39MOL0     H 5208   3.109  10.368  11.109  2.6177  2.7953 -0.4686
   39MOL0     H 5209   2.986  10.434  11.004 -0.3785 -2.7445 -2.2360
   39MOL0     H 5210   3.069  10.321  10.808  1.0134 -2.4296 -1.0098
   39MOL0     H 5211   3.195  10.240  10.912 -0.2431  0.0179 -0.8018
   39MOL0     H 5212   3.053  10.080  10.911  1.6191  0.6950  2.2523
   39MOL0     H 5213   2.961  10.175  11.039  0.2419  3.2318  0.6553
   39MOL0     H 5214   2.866  10.147  10.748 -2.8690  1.3762 -0.2750
   39MOL0     H 5215   2.829  10.290  10.837  3.8183  1.3337 -0.7352
   39MOL0     H 5216   2.726   9.929  10.813 -1.4817  1.1643 -1.5713
   39MOL0     H 5217   2.551   9.770  10.942  1.7779  0.8227 -0.6417
   39MOL0     H 5218   2.516   9.820  11.108  0.2261 -2.9209 -1.1707
   39MOL0     H 5219   2.308   9.815  10.942 -0.4304 -0.6551  1.0761
   39MOL0     H 5220   2.400   9.906  10.829 -1.6583 -0.0976 -0.5554
   39MOL0     H 5221   2.357  10.111  10.945 -1.6490 -0.1733 -1.4862
   39MOL0     H 5222   2.364  10.016  11.098 -1.1929 -1.4597  0.5155
   39MOL0     H 5223   2.132  10.072  10.903 -0.0241 -0.9295 -1.0002
   39MOL0     H 5224   2.151  10.124  11.063  1.6680  0.8418 -1.1878
   39MOL0     H 5225   1.958   9.713  11.074  0.2560  0.4647 -2.7886
   39MOL0     H 5226   1.636   9.628  10.999 -0.2852 -2.6537  1.1578
   39MOL0     H 5227   1.799   9.577  11.032  0.0027  0.1485 -0.2365
   39MOL0     H 5228   1.682   9.607  11.162 -1.0904  0.4931 -0.2913
   39MOL0     H 5229   1.293   9.970  10.912 -1.1541 -1.5977  0.4076
   39MOL0     H 5230   1.051  10.017  10.948 -0.7129  0.4327  1.5423
   39MOL0     H 5231   0.857  10.066  11.007 -0.2892 -0.8535 -0.8494
   39MOL0     H 5232   0.834   9.904  11.068 -2.0017  0.5088 -2.0672
   39MOL0     H 5233   0.689   9.990  11.253  4.8844  1.3419  2.4572
   39MOL0     H 5234   0.705  10.151  11.204 -0.2746 -0.1969  1.0098
   39MOL0     H 5235   0.583   9.907  11.072  0.2641 -0.6635  1.9631
   39MOL0     H 5236   0.635  10.036  10.962  1.8212  1.7023 -0.0263
   39MOL0     H 5237   0.427  10.072  11.188 -0.2509 -4.2181 -1.2608
   39MOL0     H 5238   0.465  10.198  11.063 -1.9008 -0.0518  0.7278
   39MOL0     H 5239   0.313   9.944  11.055 -1.0967  0.5028 -0.0746
   39MOL0     H 5240   0.404   9.982  10.909  1.2641 -0.0870  0.4095
   39MOL0     H 5241   0.157  10.078  10.911  1.8502 -3.6501 -2.1257
   39MOL0     H 5242   0.203  10.182  11.047 -1.1771  2.1405 -2.2691
   39MOL0     H 5243   0.343  10.185  10.780 -0.7156 -2.2755  1.5533
   39MOL0     H 5244   0.351  10.313  10.908  0.0662  0.4861 -0.8163
   39MOL0     H 5245   0.089  10.232  10.776 -0.7936  0.1820  0.2220
   39MOL0     H 5246   0.198  10.368  10.717 -0.7022  0.3874 -0.5999
   39MOL0     H 5247   1.117  10.105  11.348 -1.3900 -2.3690 -0.6534
   39MOL0     H 5248   1.361  10.106  11.312 -0.0777 -0.9965  0.4224
   39MOL0     H 5249   1.699  10.125  11.074  0.9308  0.6628  0.9261
   39MOL0     H 5250   1.944  10.142  11.070 -2.4629  1.4061 -1.3121
   39MOL0     H 5251   3.766  10.321  10.794 -1.3257 -0.5749 -0.5717
   39MOL0     H 5252   3.933  10.313  10.624 -0.2795 -0.7747 -2.3313
   39MOL0     H 5253   4.303  10.429  10.399 -0.0546 -0.8549  0.8164
   39MOL0     H 5254   4.454  10.431  10.183 -0.3492 -1.8286  1.5653
   39MOL0     H 5255   4.538  10.435   9.993 -0.4019 -1.7757  0.7131
   39MOL0     H 5256   4.429  10.392   9.857  0.3603  1.5230 -0.4666
   39MOL0     H 5257   4.589  10.643   9.878 -0.9529 -1.1714  3.0431
   39MOL0     H 5258   4.475  10.600   9.746 -1.3193 -1.3681  0.6743
   39MOL0     H 5259   4.698  10.557   9.676  2.4412 -1.8116  0.2562
   39MOL0     H 5260   4.591  10.405   9.675 -2.2465  1.0795  0.0997
   39MOL0     H 5261   4.704  10.328   9.866 -1.4697  0.4168 -1.4469
   39MOL0     H 5262   4.796  10.479   9.888 -0.7960  1.4392 -1.4101
   39MOL0     H 5263   5.004  10.289   9.565 -0.3194 -1.4493  0.3340
   39MOL0     H 5264   4.128  10.622   9.982 -1.5510 -1.6500 -0.0901
   39MOL0     H 5265   3.973  10.567  10.177 -0.0069 -1.4183  2.0095
   40MOL0     O 5266   1.485   8.377   5.810 -0.1111  0.1024  0.4934
   40MOL0     C 5267   1.527   8.430   5.702  0.6729  0.2619 -0.2326
   40MOL0     O 5268   1.449   8.475   5.592 -0.1770 -0.9919 -0.4496
   40MOL0     C 5269   1.314   8.473   5.614  0.1366  0.4715  0.0361
   40MOL0     C 5270   1.232   8.410   5.526 -0.3661  1.1450  0.0634
   40MOL0     C 5271   1.089   8.386   5.561 -0.2406 -0.4728 -0.1418
   40MOL0     C 5272   1.028   8.434   5.681 -0.5235  0.0102 -0.1292
   40MOL0     O 5273   0.904   8.391   5.705 -0.2195  0.0153  0.5917
   40MOL0     C 5274   0.881   8.353   5.837 -0.0159  0.4725 -0.0601
   40MOL0     C 5275   0.733   8.377   5.866  0.0651 -0.1514  0.4111
   40MOL0     C 5276   0.634   8.280   5.800  0.9429 -0.6071  0.1324
   40MOL0     C 5277   0.590   8.333   5.662 -0.2072 -0.3355  0.7666
   40MOL0     C 5278   0.504   8.231   5.600 -0.7247  0.6158 -0.2361
   40MOL0     C 5279   0.360   8.208   5.641 -0.1744 -0.2009 -0.1027
   40MOL0     C 5280   0.272   8.101   5.575 -0.5505 -0.6374 -0.1166
   40MOL0     C 5281   0.256   8.122   5.421  0.6558  0.1776 -1.0389
   40MOL0     N 5282   0.119   8.162   5.388  0.2484  0.0767 -0.2383
   40MOL0     C 5283   0.009   8.077   5.406  0.3426  0.2305 -0.4063
   40MOL0     C 5284  -0.096   8.165   5.381 -0.4339  0.4376 -0.3968
   40MOL0     C 5285  -0.244   8.119   5.360 -0.6045 -0.4940 -0.5571
   40MOL0     C 5286  -0.250   8.082   5.215  0.1660 -0.0470 -0.0066
   40MOL0     C 5287  -0.379   8.029   5.176 -0.2769  0.7084  0.0553
   40MOL0     C 5288  -0.399   8.038   5.022  0.8567 -0.6908  0.2010
   40MOL0     O 5289  -0.537   7.999   4.989  0.2013 -0.1825 -0.0315
   40MOL0     C 5290  -0.589   8.054   4.873  0.1452  0.3385  0.7301
   40MOL0     C 5291  -0.535   8.147   4.784  0.6437 -0.3185  0.4588
   40MOL0     C 5292  -0.589   8.178   4.656 -0.8023 -0.6810 -0.1366
   40MOL0     C 5293  -0.526   8.290   4.579  0.0351 -0.1160  0.6017
   40MOL0     C 5294  -0.709   8.108   4.620  1.0165 -0.0534  0.5865
   40MOL0     C 5295  -0.796   8.137   4.505 -0.1579  0.1286 -0.2580
   40MOL0     O 5296  -0.924   8.075   4.497  0.4092 -0.2723  0.6021
   40MOL0     C 5297  -0.975   8.053   4.374  0.7218 -0.3103  0.6431
   40MOL0     C 5298  -1.018   8.166   4.300 -0.3197  0.4141  0.5694
   40MOL0     C 5299  -1.073   8.139   4.181  0.1274 -0.0629 -0.1506
   40MOL0     C 5300  -1.062   8.010   4.110  0.4086 -0.4248  0.1074
   40MOL0     O 5301  -1.096   8.002   3.975  0.7768  0.4111  0.0812
   40MOL0     C 5302  -1.036   8.099   3.886 -1.1694 -0.0078  0.0523
   40MOL0     C 5303  -1.095   8.118   3.749 -0.7854  0.0429  1.0023
   40MOL0     C 5304  -1.049   7.995   3.668  0.3681 -0.3453  0.1437
   40MOL0     C 5305  -1.140   7.955   3.550  0.4875 -0.4195  0.0229
   40MOL0     C 5306  -1.287   7.935   3.575  0.0210  0.4323  1.0631
   40MOL0     C 5307  -1.322   7.857   3.705  0.3102  0.6455 -0.0317
   40MOL0     C 5308  -1.469   7.873   3.742  0.5309  0.2242  0.1508
   40MOL0     C 5309  -1.561   7.798   3.643 -0.2450  0.6500 -0.4176
   40MOL0    Cl 5310  -1.505   7.627   3.625  0.5876  0.0602 -0.1851
   40MOL0     C 5311  -1.026   7.900   4.185 -0.6589  0.5631  1.0124
   40MOL0     C 5312  -0.982   7.925   4.317  0.7151  0.3279  0.0141
   40MOL0     O 5313  -0.751   8.211   4.420  0.2341 -0.0560  0.3654
   40MOL0     C 5314  -0.764   8.014   4.711  0.1739  0.6385 -0.1790
   40MOL0     C 5315  -0.707   7.992   4.839  0.6007 -0.3212  0.3708
   40MOL0     N 5316  -0.049   8.286   5.339  0.7555  0.3773 -1.0367
   40MOL0     N 5317   0.077   8.283   5.341 -0.0956 -0.3444 -0.9979
   40MOL0     C 5318   1.114   8.514   5.756  0.4938 -0.8415  0.1201
   40MOL0     C 5319   1.250   8.539   5.724 -0.4060  1.0490 -0.0857
   40MOL0     C 5320   1.676   8.449   5.694 -0.2028 -0.7028 -0.5436
   40MOL0     C 5321   1.766   8.384   5.785  0.1855  0.4395 -0.0964
   40MOL0     C 5322   1.900   8.405   5.768 -0.5436  0.5816  0.8899
   40MOL0     C 5323   1.953   8.479   5.664  0.1447  0.2723 -0.3677
   40MOL0     O 5324   2.082   8.504   5.658 -0.2019 -0.2419 -0.1007
   40MOL0     C 5325   2.169   8.494   5.777  0.9725 -0.1517  0.1214
   40MOL0     C 5326   2.301   8.555   5.751  0.1415  0.4063 -0.3092
   40MOL0     C 5327   2.376   8.470   5.649  0.0249 -0.0370 -0.2368
   40MOL0     C 5328   2.497   8.397   5.708 -1.3108  0.5881  0.2833
   40MOL0     C 5329   2.535   8.275   5.631 -0.3277 -0.5235  0.2178
   40MOL0     C 5330   2.582   8.181   5.566  0.3385 -0.7355 -0.0164
   40MOL0     C 5331   1.862   8.537   5.572  0.2496  0.5406  0.2106
   40MOL0     C 5332   1.725   8.526   5.593 -1.0232  0.1254 -0.1401
   40MOL0     H 5333   1.283   8.346   5.454 -0.6104 -0.8544  1.5867
   40MOL0     H 5334   1.037   8.308   5.506 -0.5510 -0.9035  0.7420
   40MOL0     H 5335   0.887   8.245   5.851 -0.2893 -0.1916 -3.9625
   40MOL0     H 5336   0.948   8.407   5.905  2.3369 -2.9441  0.5562
   40MOL0     H 5337   0.712   8.382   5.974 -1.9974 -0.1376  0.0479
   40MOL0     H 5338   0.707   8.477   5.833 -0.0938  0.8917  3.3555
   40MOL0     H 5339   0.681   8.181   5.791  2.9007  0.3431 -0.6448
   40MOL0     H 5340   0.541   8.264   5.855  0.4054  2.8502  0.4018
   40MOL0     H 5341   0.545   8.433   5.674  3.2596  1.6634 -1.3201
   40MOL0     H 5342   0.675   8.332   5.593 -0.9684 -2.0930 -0.2063
   40MOL0     H 5343   0.505   8.252   5.493 -1.9300 -0.6692 -0.5146
   40MOL0     H 5344   0.558   8.136   5.604 -0.4358  0.7942  0.2655
   40MOL0     H 5345   0.359   8.173   5.745  1.5967 -0.3132 -0.0917
   40MOL0     H 5346   0.304   8.301   5.639 -2.3742 -1.4316  0.8310
   40MOL0     H 5347   0.329   8.008   5.588  0.9520 -0.4270 -3.9130
   40MOL0     H 5348   0.174   8.100   5.623 -2.9736  1.7659 -4.3737
   40MOL0     H 5349   0.300   8.046   5.357  2.2075 -0.3302  0.5658
   40MOL0     H 5350   0.310   8.209   5.382 -2.9024  1.3261 -3.9580
   40MOL0     H 5351   0.009   7.971   5.430 -0.7365  0.4513  0.6645
   40MOL0     H 5352  -0.274   8.035   5.424  0.0887 -1.8776 -1.9832
   40MOL0     H 5353  -0.313   8.202   5.382  3.9659  2.6228  4.8591
   40MOL0     H 5354  -0.181   7.997   5.216 -1.0792 -1.1036  2.2728
   40MOL0     H 5355  -0.215   8.153   5.140 -1.0617  1.8872  1.1652
   40MOL0     H 5356  -0.467   8.086   5.207 -1.6652 -0.9727 -0.6543
   40MOL0     H 5357  -0.388   7.928   5.217 -1.0410  0.0807 -1.5573
   40MOL0     H 5358  -0.319   7.989   4.967 -0.0411  0.1092 -1.9288
   40MOL0     H 5359  -0.383   8.144   5.000  0.1107  0.0922  2.9648
   40MOL0     H 5360  -0.451   8.211   4.810  0.3763  0.7495 -1.1720
   40MOL0     H 5361  -0.509   8.256   4.477 -2.2649 -0.3154  0.2195
   40MOL0     H 5362  -0.590   8.378   4.567  0.2143  0.0693  0.9862
   40MOL0     H 5363  -0.431   8.314   4.628  0.2509  0.0995  0.0812
   40MOL0     H 5364  -1.011   8.271   4.325 -0.8459  0.9023 -1.2149
   40MOL0     H 5365  -1.121   8.222   4.132 -0.7693  1.6677  3.3338
   40MOL0     H 5366  -1.042   8.195   3.938  0.6376  0.1856 -0.0129
   40MOL0     H 5367  -0.932   8.070   3.869 -0.8552  1.8721 -1.6463
   40MOL0     H 5368  -1.202   8.140   3.749 -1.1527 -1.3532 -1.3348
   40MOL0     H 5369  -1.047   8.207   3.710  1.0636  0.6346  4.2589
   40MOL0     H 5370  -1.043   7.905   3.730  3.1557  0.2526  0.8850
   40MOL0     H 5371  -0.945   8.012   3.638  0.2872  0.9724  0.5354
   40MOL0     H 5372  -1.150   8.018   3.461 -1.3333 -2.8888 -1.6804
   40MOL0     H 5373  -1.106   7.857   3.516  1.9335 -0.3357  1.1202
   40MOL0     H 5374  -1.319   7.877   3.488  1.1193  0.8743  0.3534
   40MOL0     H 5375  -1.340   8.031   3.569 -4.0725 -1.6827 -0.9432
   40MOL0     H 5376  -1.303   7.750   3.691 -0.9022  0.4776 -0.4917
   40MOL0     H 5377  -1.253   7.890   3.783  1.4447 -1.2372 -0.1815
   40MOL0     H 5378  -1.498   7.978   3.744  2.2819  0.7419  0.0206
   40MOL0     H 5379  -1.495   7.834   3.841 -0.0996  1.1338  0.3482
   40MOL0     H 5380  -1.550   7.850   3.547  0.1040  1.8583  0.2480
   40MOL0     H 5381  -1.669   7.805   3.663 -0.2180 -1.7327  0.7953
   40MOL0     H 5382  -1.025   7.801   4.139 -2.4412  1.3038 -0.7826
   40MOL0     H 5383  -0.935   7.846   4.374  0.4022 -0.4255 -0.7374
   40MOL0     H 5384  -0.857   7.958   4.704  0.7462 -0.1865 -1.5020
   40MOL0     H 5385  -0.746   7.918   4.909  0.7570 -1.2621 -0.5012
   40MOL0     H 5386   1.087   8.566   5.848  3.5349 -2.6940  2.2734
   40MOL0     H 5387   1.320   8.599   5.781 -0.9715  1.2814  0.3711
   40MOL0     H 5388   1.723   8.326   5.865  1.3769 -4.1572 -2.4194
   40MOL0     H 5389   1.956   8.366   5.853 -0.8558 -0.8467  0.4604
   40MOL0     H 5390   2.130   8.546   5.865 -1.0237 -2.6581  0.8329
   40MOL0     H 5391   2.177   8.388   5.799 -0.5445  0.0088  1.6671
   40MOL0     H 5392   2.347   8.549   5.850 -0.7979 -0.9092  0.0890
   40MOL0     H 5393   2.299   8.658   5.715  2.5758  0.3980 -0.5835
   40MOL0     H 5394   2.411   8.535   5.569  0.5695 -0.9964 -0.7946
   40MOL0     H 5395   2.312   8.400   5.595 -1.3308  0.4627  0.6711
   40MOL0     H 5396   2.473   8.366   5.810  0.6772 -0.2599  0.5284
   40MOL0     H 5397   2.581   8.467   5.710 -0.5740 -0.2838  1.7299
   40MOL0     H 5398   2.625   8.094   5.520 -0.1901 -1.7693  1.3865
   40MOL0     H 5399   1.901   8.591   5.486  0.7866  0.0135  0.1170
   40MOL0     H 5400   1.668   8.594   5.531 -0.7148  1.1157  0.6324
   41MOL0     O 5401  11.028   7.659   6.812 -0.3060 -1.1486  0.8267
   41MOL0     C 5402  11.062   7.743   6.887 -0.2959 -0.4488 -0.1464
   41MOL0     O 5403  10.984   7.842   6.941 -0.3707 -0.6527 -0.9372
   41MOL0     C 5404  10.853   7.842   6.917  0.3239  0.7884  0.3964
   41MOL0     C 5405  10.775   7.901   7.017  0.1994 -0.5791 -0.2293
   41MOL0     C 5406  10.637   7.909   7.004  0.1578 -0.2650 -0.1729
   41MOL0     C 5407  10.564   7.872   6.896 -1.0464 -0.4301  0.6803
   41MOL0     O 5408  10.435   7.902   6.869  0.6015  0.8187 -0.3712
   41MOL0     C 5409  10.364   8.015   6.919  1.2053  0.7950 -0.1931
   41MOL0     C 5410  10.300   7.982   7.060 -0.7494  0.8423 -0.5287
   41MOL0     C 5411  10.195   7.873   7.064 -0.0985  1.0068  0.0139
   41MOL0     C 5412  10.069   7.895   7.161 -0.1672  0.3402  0.0562
   41MOL0     C 5413   9.973   7.773   7.129 -0.1056  0.5029 -0.4621
   41MOL0     C 5414   9.824   7.801   7.176  0.1445  0.6033  0.4734
   41MOL0     C 5415   9.811   7.864   7.320  0.4187  0.2897  0.3506
   41MOL0     C 5416   9.666   7.830   7.359  0.0142 -0.4322  0.3295
   41MOL0     N 5417   9.624   7.892   7.490 -0.3125 -0.0063 -0.1964
   41MOL0     C 5418   9.661   7.845   7.612  0.2419  0.7320  0.4640
   41MOL0     C 5419   9.640   7.950   7.692 -0.0999 -0.0841 -0.0850
   41MOL0     C 5420   9.657   7.939   7.845 -0.6049 -0.2962  0.2443
   41MOL0     C 5421   9.788   7.993   7.901 -0.1742 -0.8834  0.3916
   41MOL0     C 5422   9.798   7.956   8.042  0.4866  0.1648 -0.4155
   41MOL0     C 5423   9.933   8.013   8.096  0.0614  0.3495 -0.7746
   41MOL0     O 5424  10.047   7.983   8.013 -0.0004 -0.5444  0.3406
   41MOL0     C 5425  10.175   7.982   8.073  0.7841  1.1569  1.1891
   41MOL0     C 5426  10.274   8.012   7.976 -0.3899 -0.6661 -0.0088
   41MOL0     C 5427  10.413   8.026   8.021  0.8585 -0.5352  0.5395
   41MOL0     C 5428  10.507   8.066   7.918  0.3139 -0.2300 -0.1534
   41MOL0     C 5429  10.444   8.004   8.156 -0.0553  0.8489  0.4807
   41MOL0     C 5430  10.577   8.021   8.218  1.3142  0.1649 -1.3050
   41MOL0     O 5431  10.673   8.079   8.149  0.5067  0.4086 -1.3278
   41MOL0     C 5432  10.798   8.075   8.200  0.7283  0.6254  0.2720
   41MOL0     C 5433  10.873   7.967   8.159 -0.4518 -0.4460  0.6191
   41MOL0     C 5434  11.014   7.960   8.198  0.0852 -0.0934  0.2057
   41MOL0     C 5435  11.071   8.055   8.284  0.7810 -0.0768  0.5436
   41MOL0     O 5436  11.201   8.043   8.316 -0.5162  0.6559  0.0358
   41MOL0     C 5437  11.254   8.122   8.425  0.0036 -0.5709 -0.2814
   41MOL0     C 5438  11.376   8.045   8.480  0.4984 -0.0158  0.4943
   41MOL0     C 5439  11.494   8.050   8.373  0.2844  1.5375  0.3737
   41MOL0     C 5440  11.620   8.041   8.452  0.4324  0.1388 -0.7609
   41MOL0     C 5441  11.743   8.064   8.381 -0.5952  0.0381  0.8106
   41MOL0     C 5442  11.791   7.946   8.284  0.0139 -0.5161  0.8931
   41MOL0     C 5443  11.820   7.807   8.347  0.5812 -0.4747 -0.2691
   41MOL0     C 5444  11.919   7.816   8.470  0.2622 -0.2477  0.1032
   41MOL0    Cl 5445  11.934   7.644   8.526  0.1264 -0.1796 -0.2719
   41MOL0     C 5446  10.985   8.163   8.323  0.0301  0.1696 -0.7329
   41MOL0     C 5447  10.852   8.174   8.280 -0.0272  0.2932  0.5344
   41MOL0     O 5448  10.595   7.958   8.326  0.0418 -0.0821 -0.2055
   41MOL0     C 5449  10.342   7.974   8.241  0.1932  0.0167 -0.2938
   41MOL0     C 5450  10.206   7.962   8.210 -0.3429  0.0193  0.0975
   41MOL0     N 5451   9.593   8.053   7.620 -0.3971 -0.2911 -0.0798
   41MOL0     N 5452   9.594   8.025   7.494  0.1699 -0.6011 -0.4011
   41MOL0     C 5453  10.640   7.822   6.790  0.1989 -0.1134  0.0264
   41MOL0     C 5454  10.783   7.812   6.797  0.5001  1.1036  0.2917
   41MOL0     C 5455  11.200   7.732   6.938  0.2444  0.7622 -0.9432
   41MOL0     C 5456  11.239   7.794   7.060  0.0613 -0.8276 -1.3466
   41MOL0     C 5457  11.364   7.763   7.116  0.1565  0.4259 -0.4488
   41MOL0     C 5458  11.456   7.671   7.051  0.0003 -0.9615  0.7405
   41MOL0     O 5459  11.584   7.639   7.105  0.2038  0.1958  0.5671
   41MOL0     C 5460  11.621   7.648   7.242  0.5274  0.0493  0.4514
   41MOL0     C 5461  11.756   7.706   7.242 -0.2346  0.3393  0.5432
   41MOL0     C 5462  11.752   7.858   7.267  1.3575  0.3642 -0.0971
   41MOL0     C 5463  11.893   7.913   7.272 -0.0766 -0.6461 -0.5916
   41MOL0     C 5464  11.944   7.894   7.408 -0.4453  0.9184 -0.0266
   41MOL0     C 5465  11.991   7.869   7.510 -0.1615  1.0304 -0.2227
   41MOL0     C 5466  11.414   7.625   6.929  0.8060 -1.0139  0.9167
   41MOL0     C 5467  11.289   7.650   6.875 -0.0450 -0.1666  0.3477
   41MOL0     H 5468  10.821   7.918   7.115 -0.5389 -3.8672  0.8259
   41MOL0     H 5469  10.587   7.946   7.093  2.0081  0.2200  0.7266
   41MOL0     H 5470  10.425   8.105   6.925 -1.5733  2.7427  0.5198
   41MOL0     H 5471  10.280   8.033   6.851  0.1912 -1.2930  0.4043
   41MOL0     H 5472  10.377   7.953   7.132  0.7207  0.8336 -2.0622
   41MOL0     H 5473  10.245   8.064   7.108 -0.9442 -0.4284  1.5702
   41MOL0     H 5474  10.157   7.850   6.964 -0.1434  1.0313  0.0254
   41MOL0     H 5475  10.250   7.786   7.102 -1.0201 -0.2936 -1.5034
   41MOL0     H 5476  10.101   7.908   7.264 -1.2517  0.8532  0.3412
   41MOL0     H 5477  10.018   7.986   7.129  0.0433  0.5816  0.4076
   41MOL0     H 5478   9.964   7.767   7.020 -0.8143 -2.6125 -0.3302
   41MOL0     H 5479  10.002   7.679   7.177 -4.2041  0.3731  2.2308
   41MOL0     H 5480   9.766   7.867   7.111 -0.6744 -1.5537 -1.1168
   41MOL0     H 5481   9.764   7.711   7.164 -0.1995  1.0913 -1.9691
   41MOL0     H 5482   9.873   7.818   7.397  1.3510  2.9239  1.2532
   41MOL0     H 5483   9.819   7.972   7.327 -1.3132  0.4807 -0.0626
   41MOL0     H 5484   9.664   7.721   7.363 -1.2012 -0.4457 -0.1687
   41MOL0     H 5485   9.591   7.857   7.284 -0.8820 -1.9564  0.6303
   41MOL0     H 5486   9.705   7.748   7.632  1.3099  0.4384 -2.6820
   41MOL0     H 5487   9.583   7.996   7.902  1.1789 -0.2942  2.7284
   41MOL0     H 5488   9.659   7.833   7.874 -1.1820 -0.9685 -1.9352
   41MOL0     H 5489   9.788   8.102   7.885 -0.8668 -1.2411 -2.8334
   41MOL0     H 5490   9.878   7.945   7.860  1.4502  2.3961 -0.2246
   41MOL0     H 5491   9.796   7.846   8.043  1.0852  0.1433 -1.0932
   41MOL0     H 5492   9.709   7.989   8.096 -1.3618 -2.2850 -1.7483
   41MOL0     H 5493   9.951   7.979   8.199 -2.2100 -2.8764 -1.2868
   41MOL0     H 5494   9.916   8.120   8.104 -1.3406  0.0306  1.1176
   41MOL0     H 5495  10.238   8.033   7.876 -1.8777 -0.5100  0.5254
   41MOL0     H 5496  10.521   8.174   7.928 -1.6190 -0.0833  1.7320
   41MOL0     H 5497  10.608   8.024   7.924  1.0371  1.6145  2.2699
   41MOL0     H 5498  10.466   8.028   7.824 -1.4900 -1.1512  0.9557
   41MOL0     H 5499  10.832   7.883   8.104 -3.0136  0.2206  1.3632
   41MOL0     H 5500  11.074   7.873   8.175  1.3734  0.4265  1.4117
   41MOL0     H 5501  11.289   8.217   8.384  1.1860 -1.7026 -2.0395
   41MOL0     H 5502  11.187   8.134   8.511  0.2260 -0.5990 -0.1042
   41MOL0     H 5503  11.408   8.077   8.579 -0.5418 -1.8450  1.4784
   41MOL0     H 5504  11.362   7.937   8.495 -2.2412  0.3006  0.7663
   41MOL0     H 5505  11.488   8.140   8.312 -2.2309 -0.2578 -2.3348
   41MOL0     H 5506  11.498   7.970   8.298  2.5604  1.4848  0.4908
   41MOL0     H 5507  11.625   8.116   8.531  1.1615  0.8558 -1.4672
   41MOL0     H 5508  11.626   7.945   8.505  1.0235 -0.4622 -1.8772
   41MOL0     H 5509  11.822   8.088   8.453 -0.4004 -1.7466  1.2518
   41MOL0     H 5510  11.719   8.149   8.317 -0.1235 -1.4759 -1.5270
   41MOL0     H 5511  11.712   7.928   8.210  0.2494 -2.6443  1.0918
   41MOL0     H 5512  11.879   7.990   8.237  0.0200 -0.9851  0.4638
   41MOL0     H 5513  11.846   7.728   8.275  1.3863  0.8656 -1.5051
   41MOL0     H 5514  11.727   7.774   8.394 -0.1285  0.1597 -1.1854
   41MOL0     H 5515  11.875   7.881   8.546  1.8646 -0.0964  0.9395
   41MOL0     H 5516  12.019   7.848   8.440 -1.1880  1.9698 -2.9632
   41MOL0     H 5517  11.035   8.232   8.390  0.6956 -1.8384  0.9486
   41MOL0     H 5518  10.791   8.254   8.320  1.7923  2.6566 -1.1822
   41MOL0     H 5519  10.360   7.954   8.346  0.3233  0.6831 -0.1818
   41MOL0     H 5520  10.131   7.929   8.281 -1.9612  1.2922 -0.9383
   41MOL0     H 5521  10.592   7.794   6.697 -0.2055  2.2552 -0.5458
   41MOL0     H 5522  10.841   7.776   6.713  0.6627  1.8820  0.0634
   41MOL0     H 5523  11.174   7.871   7.100  1.7949 -0.3729  0.7957
   41MOL0     H 5524  11.390   7.813   7.209  2.6606 -0.2085 -0.7537
   41MOL0     H 5525  11.556   7.710   7.303  1.5838  0.1685  1.4871
   41MOL0     H 5526  11.629   7.546   7.281  2.7873 -0.4284 -1.0508
   41MOL0     H 5527  11.803   7.705   7.143  2.7570  5.2523  1.5745
   41MOL0     H 5528  11.814   7.646   7.312 -1.1350 -2.0216 -0.6410
   41MOL0     H 5529  11.706   7.873   7.366  3.7992 -1.5780  1.4568
   41MOL0     H 5530  11.684   7.903   7.195  0.3833  0.2535  0.7181
   41MOL0     H 5531  11.889   8.022   7.266  1.4242 -0.2939  2.5779
   41MOL0     H 5532  11.964   7.868   7.202  1.2091 -1.5479  1.2004
   41MOL0     H 5533  12.032   7.850   7.608  0.0283  0.1991 -0.4610
   41MOL0     H 5534  11.480   7.571   6.862 -0.9777 -0.1884 -1.6653
   41MOL0     H 5535  11.261   7.593   6.786 -1.0221 -0.4020  0.7858
   42MOL0     O 5536   5.006   3.866   7.028 -0.4081 -0.5679  0.2126
   42MOL0     C 5537   5.001   3.895   6.910  0.1372 -1.4644  0.2893
   42MOL0     O 5538   4.886   3.897   6.834 -0.0325  0.2843  0.0484
   42MOL0     C 5539   4.770   3.842   6.883 -0.1594  0.1926 -0.1432
   42MOL0     C 5540   4.651   3.917   6.845 -1.2286 -0.7206  0.3416
   42MOL0     C 5541   4.524   3.857   6.850  0.8692  0.7063  0.1910
   42MOL0     C 5542   4.511   3.733   6.913 -0.5181 -0.8002 -1.0112
   42MOL0     O 5543   4.384   3.680   6.930 -0.4786  0.0033  0.8430
   42MOL0     C 5544   4.351   3.574   7.017  0.4867  0.6779  0.7637
   42MOL0     C 5545   4.227   3.599   7.101  0.2705  0.5082 -0.0724
   42MOL0     C 5546   4.099   3.609   7.010 -0.0065  0.0325 -0.5393
   42MOL0     C 5547   3.977   3.646   7.095  0.4345  0.2579  0.0429
   42MOL0     C 5548   3.872   3.684   6.997 -0.0291 -0.4175  0.8668
   42MOL0     C 5549   3.755   3.764   7.061  0.4996  0.0166 -0.1799
   42MOL0     C 5550   3.653   3.672   7.145  0.2268  0.2799  0.5525
   42MOL0     C 5551   3.517   3.739   7.173  0.0319 -0.0001  0.3123
   42MOL0     N 5552   3.433   3.728   7.055 -0.2242  0.2832  1.5584
   42MOL0     C 5553   3.332   3.635   7.026 -0.4160 -0.5114  0.0913
   42MOL0     C 5554   3.310   3.653   6.895 -0.3153 -0.2193  0.4058
   42MOL0     C 5555   3.212   3.569   6.813  0.0167  0.9861  0.8886
   42MOL0     C 5556   3.074   3.625   6.846  0.9693 -1.0063 -0.8165
   42MOL0     C 5557   3.063   3.772   6.820  0.4602 -0.0907 -0.1496
   42MOL0     C 5558   2.915   3.819   6.794 -0.3350  0.5276  0.4274
   42MOL0     O 5559   2.870   3.776   6.664 -0.0897 -0.0792  0.2289
   42MOL0     C 5560   2.750   3.833   6.618 -0.3724 -0.0553 -0.8541
   42MOL0     C 5561   2.665   3.914   6.695 -0.0589  0.5407  0.6468
   42MOL0     C 5562   2.546   3.969   6.637 -0.4258 -0.4815 -0.3588
   42MOL0     C 5563   2.489   4.084   6.727 -0.4747  0.2749  0.1215
   42MOL0     C 5564   2.496   3.940   6.510  0.4719  0.0272 -0.0221
   42MOL0     C 5565   2.370   3.983   6.445 -0.5239  0.4761  0.0710
   42MOL0     O 5566   2.272   4.046   6.522  0.7740 -0.0789  0.0881
   42MOL0     C 5567   2.170   4.114   6.466  0.8222 -0.1823  1.1809
   42MOL0     C 5568   2.202   4.224   6.393  0.2736 -0.2882 -0.4922
   42MOL0     C 5569   2.102   4.307   6.337  0.7609  0.3860  0.0055
   42MOL0     C 5570   1.962   4.275   6.354 -0.3866  0.3423  0.6884
   42MOL0     O 5571   1.865   4.342   6.306  0.6323 -0.5070  1.1717
   42MOL0     C 5572   1.876   4.478   6.265 -0.2622 -0.3089 -0.1205
   42MOL0     C 5573   1.891   4.576   6.389  0.6440  0.3518  1.1830
   42MOL0     C 5574   1.774   4.576   6.483  0.7764 -0.1166 -0.3440
   42MOL0     C 5575   1.793   4.670   6.592 -0.0796 -0.2904 -1.2605
   42MOL0     C 5576   1.685   4.650   6.708  0.2291 -0.8868  0.3831
   42MOL0     C 5577   1.554   4.729   6.665 -0.4289 -0.7490 -0.5874
   42MOL0     C 5578   1.455   4.711   6.779  0.5057 -1.6592  0.7516
   42MOL0     C 5579   1.310   4.757   6.744  0.3554 -0.5013 -0.6683
   42MOL0    Cl 5580   1.213   4.771   6.895 -0.5374 -0.0866  0.1951
   42MOL0     C 5581   1.931   4.162   6.427  0.9899 -0.0370 -0.7226
   42MOL0     C 5582   2.029   4.081   6.484 -0.1902 -0.2517 -0.1877
   42MOL0     O 5583   2.342   3.944   6.339  0.1634 -0.5644  0.5537
   42MOL0     C 5584   2.579   3.860   6.430  0.4155  0.4344  0.3112
   42MOL0     C 5585   2.706   3.811   6.483 -0.7330  0.4049  0.3628
   42MOL0     N 5586   3.382   3.756   6.840 -0.1759 -0.0083 -0.2650
   42MOL0     N 5587   3.447   3.805   6.936 -0.4377  0.5132 -0.8741
   42MOL0     C 5588   4.616   3.679   6.979  0.4242 -0.3711  0.0391
   42MOL0     C 5589   4.749   3.721   6.949  1.0071 -0.4876 -0.3894
   42MOL0     C 5590   5.122   3.963   6.853 -0.3778  0.3341  0.6875
   42MOL0     C 5591   5.130   4.001   6.726 -0.2107  0.0157  0.0842
   42MOL0     C 5592   5.253   4.042   6.675  0.7466  0.2523  0.0996
   42MOL0     C 5593   5.362   4.058   6.757 -1.2803 -0.4190 -0.7081
   42MOL0     O 5594   5.473   4.127   6.711 -0.3210 -0.1284 -0.6479
   42MOL0     C 5595   5.600   4.069   6.742  0.4052  0.1987  0.7309
   42MOL0     C 5596   5.619   3.942   6.657  0.0112  0.1095  0.9326
   42MOL0     C 5597   5.759   3.889   6.639 -0.5552  0.7473 -0.1312
   42MOL0     C 5598   5.772   3.762   6.556  0.2732 -0.2643 -0.7509
   42MOL0     C 5599   5.750   3.648   6.651  0.2622  0.1528  0.6054
   42MOL0     C 5600   5.735   3.561   6.729 -1.3012 -0.6987 -0.0855
   42MOL0     C 5601   5.354   4.027   6.887  0.5833  0.2368 -0.0672
   42MOL0     C 5602   5.236   3.984   6.937  0.8919 -1.1657 -0.1088
   42MOL0     H 5603   4.649   4.010   6.788  1.5858  0.2569  1.6461
   42MOL0     H 5604   4.431   3.889   6.805  1.3226  0.5852 -0.8765
   42MOL0     H 5605   4.333   3.481   6.963 -0.8908  0.6094  1.3050
   42MOL0     H 5606   4.425   3.563   7.097 -1.8021 -0.2628  2.8937
   42MOL0     H 5607   4.221   3.511   7.167  3.8918  0.9898  1.1530
   42MOL0     H 5608   4.231   3.690   7.162  2.6453  0.9812 -0.7922
   42MOL0     H 5609   4.116   3.677   6.926 -3.8790 -1.3838 -2.7595
   42MOL0     H 5610   4.073   3.515   6.961 -2.6815  0.0688  0.6388
   42MOL0     H 5611   3.950   3.569   7.167  1.1792  0.1740  0.2443
   42MOL0     H 5612   4.010   3.735   7.151  3.2552 -0.3685 -0.4583
   42MOL0     H 5613   3.922   3.738   6.916  2.1366 -2.8025  0.4983
   42MOL0     H 5614   3.823   3.600   6.947 -2.8560  2.1771 -1.1575
   42MOL0     H 5615   3.792   3.834   7.136  1.1670 -1.4163  0.8743
   42MOL0     H 5616   3.692   3.818   6.989 -0.9851 -0.7358  0.5274
   42MOL0     H 5617   3.643   3.575   7.097  2.1914  1.1868 -1.8936
   42MOL0     H 5618   3.699   3.632   7.236  0.0645 -2.1848 -0.3942
   42MOL0     H 5619   3.542   3.841   7.205  0.3224  0.1423 -0.3646
   42MOL0     H 5620   3.462   3.694   7.257 -0.8227  1.8452  0.7909
   42MOL0     H 5621   3.288   3.565   7.095  0.0709 -1.2244 -0.3110
   42MOL0     H 5622   3.237   3.579   6.707 -2.2079 -0.4825  0.1702
   42MOL0     H 5623   3.220   3.463   6.838 -0.7484  0.1848 -1.9999
   42MOL0     H 5624   3.050   3.623   6.953 -1.7683 -0.7031 -1.3535
   42MOL0     H 5625   2.987   3.577   6.800  1.1509  0.3833 -2.7302
   42MOL0     H 5626   3.132   3.807   6.743  0.3366  0.2953 -0.0867
   42MOL0     H 5627   3.080   3.837   6.907 -0.5891  2.7259 -1.9342
   42MOL0     H 5628   2.919   3.927   6.783  0.1494  0.2617 -4.3891
   42MOL0     H 5629   2.843   3.786   6.870 -0.9398 -2.4612 -1.2425
   42MOL0     H 5630   2.692   3.932   6.799 -2.0806 -0.8347  1.4771
   42MOL0     H 5631   2.447   4.164   6.666 -0.9470  0.2850  0.4495
   42MOL0     H 5632   2.412   4.039   6.791 -0.5632  0.7912  0.3842
   42MOL0     H 5633   2.568   4.121   6.793 -1.9282  0.7471  1.6640
   42MOL0     H 5634   2.304   4.259   6.380  0.5686 -0.1725  1.7050
   42MOL0     H 5635   2.124   4.395   6.277 -2.5949  1.4731  0.1707
   42MOL0     H 5636   1.956   4.488   6.191  1.4475 -0.3583  1.6270
   42MOL0     H 5637   1.786   4.516   6.217  0.6008  1.4889 -0.4010
   42MOL0     H 5638   1.990   4.551   6.428  3.0430  0.9712 -3.7261
   42MOL0     H 5639   1.902   4.676   6.346  3.7954  0.3546  1.7926
   42MOL0     H 5640   1.778   4.475   6.525 -1.8575 -0.7419 -1.4083
   42MOL0     H 5641   1.676   4.585   6.436  1.5105  0.5319 -1.8210
   42MOL0     H 5642   1.890   4.670   6.642 -0.0561  4.1252 -0.8774
   42MOL0     H 5643   1.789   4.770   6.547  2.2755 -1.0300 -3.3168
   42MOL0     H 5644   1.724   4.687   6.803 -0.0941  1.1979 -0.2420
   42MOL0     H 5645   1.670   4.543   6.723  1.4090 -0.8387  2.2761
   42MOL0     H 5646   1.562   4.834   6.635  1.2460 -0.7539 -0.3028
   42MOL0     H 5647   1.510   4.673   6.583  0.8274 -1.8432 -0.5520
   42MOL0     H 5648   1.498   4.782   6.850 -1.2312  0.5049 -0.2333
   42MOL0     H 5649   1.455   4.603   6.796  1.4718 -1.9341 -0.8023
   42MOL0     H 5650   1.267   4.680   6.680  2.1883 -3.1380  1.0398
   42MOL0     H 5651   1.314   4.855   6.695 -1.8310  0.0760  0.2046
   42MOL0     H 5652   1.824   4.143   6.430  1.2472 -1.5434 -0.2295
   42MOL0     H 5653   1.990   4.015   6.561  1.1466  0.1647  0.8773
   42MOL0     H 5654   2.553   3.819   6.333 -0.0825 -2.9794  1.7250
   42MOL0     H 5655   2.769   3.748   6.419 -0.8333  0.9385 -0.2793
   42MOL0     H 5656   4.616   3.591   7.042  1.2317  1.3882  2.6358
   42MOL0     H 5657   4.839   3.667   6.976  1.0484 -0.0302  0.3999
   42MOL0     H 5658   5.040   3.998   6.665 -1.7876  0.9738  2.2628
   42MOL0     H 5659   5.260   4.076   6.572 -2.0371 -1.3908 -0.7283
   42MOL0     H 5660   5.677   4.146   6.734 -0.5017  1.2487  1.5851
   42MOL0     H 5661   5.600   4.034   6.846 -1.7469  0.5403  0.8936
   42MOL0     H 5662   5.593   3.972   6.555  0.3339 -1.2141  0.4395
   42MOL0     H 5663   5.552   3.861   6.687 -1.2027 -0.1023 -1.9477
   42MOL0     H 5664   5.802   3.878   6.739  2.0699  0.7450 -1.1848
   42MOL0     H 5665   5.827   3.964   6.597  1.3291 -0.6388  0.3321
   42MOL0     H 5666   5.877   3.759   6.527  0.6688  0.2974  0.5664
   42MOL0     H 5667   5.697   3.760   6.476  0.1023 -1.7564 -0.5836
   42MOL0     H 5668   5.723   3.486   6.804  1.9030 -0.3780  0.9033
   42MOL0     H 5669   5.439   4.023   6.954  1.6242 -0.8334 -1.3956
   42MOL0     H 5670   5.239   3.951   7.040  2.4193 -2.0147 -0.3972
   43MOL0     O 5671   2.956   1.416   0.446  0.1416 -0.3711  0.7848
   43MOL0     C 5672   2.990   1.319   0.382 -0.1097 -0.6287 -0.3709
   43MOL0     O 5673   2.907   1.217   0.337 -0.3042 -0.2588  0.1334
   43MOL0     C 5674   2.770   1.244   0.345  0.2072 -0.9924 -0.1027
   43MOL0     C 5675   2.712   1.360   0.291  0.1393  0.3593 -1.1776
   43MOL0     C 5676   2.576   1.379   0.290 -0.3669 -0.2367 -0.3749
   43MOL0     C 5677   2.497   1.267   0.320  0.7459 -1.1410  0.4101
   43MOL0     O 5678   2.364   1.270   0.297 -0.1891 -0.5366  0.1435
   43MOL0     C 5679   2.297   1.155   0.244  1.9545  0.9062  0.4396
   43MOL0     C 5680   2.184   1.216   0.152 -0.4065 -0.0449  0.1542
   43MOL0     C 5681   2.069   1.270   0.232  0.5439  0.0767  1.4428
   43MOL0     C 5682   1.942   1.299   0.148  0.3081  0.0320  0.1389
   43MOL0     C 5683   1.836   1.395   0.230 -0.5582  0.3885 -0.1368
   43MOL0     C 5684   1.696   1.379   0.172 -0.2712  0.4332 -0.2403
   43MOL0     C 5685   1.591   1.443   0.259 -0.0651  0.4883 -0.2435
   43MOL0     C 5686   1.523   1.340   0.347 -0.5606 -0.0493 -0.9926
   43MOL0     N 5687   1.410   1.272   0.289 -0.3958 -0.1931 -0.7563
   43MOL0     C 5688   1.416   1.176   0.197 -0.2735 -0.0790  0.4768
   43MOL0     C 5689   1.289   1.136   0.179 -0.4694  0.1961  0.4017
   43MOL0     C 5690   1.237   1.052   0.067 -0.3567 -0.2444  0.5740
   43MOL0     C 5691   1.194   1.131  -0.060  0.4848  0.2356 -0.1993
   43MOL0     C 5692   1.054   1.195  -0.045 -0.2490 -0.1363 -1.2134
   43MOL0     C 5693   1.001   1.234  -0.181  0.0939 -0.0883 -0.3434
   43MOL0     O 5694   0.864   1.278  -0.156 -0.5071 -0.0065 -0.6183
   43MOL0     C 5695   0.766   1.182  -0.147  0.0752  0.0231 -0.5190
   43MOL0     C 5696   0.784   1.046  -0.163 -0.4476  0.8701  0.3494
   43MOL0     C 5697   0.675   0.956  -0.163  0.2450 -0.0946  0.6893
   43MOL0     C 5698   0.718   0.817  -0.172  0.3889 -0.6921 -0.3970
   43MOL0     C 5699   0.539   0.999  -0.142 -0.5952  0.4039  1.0354
   43MOL0     C 5700   0.413   0.917  -0.127  0.7527 -0.2074  0.1082
   43MOL0     O 5701   0.299   0.988  -0.135  0.4686 -0.4876 -0.1262
   43MOL0     C 5702   0.184   0.922  -0.171 -0.0817 -0.5002 -0.1635
   43MOL0     C 5703   0.113   0.980  -0.274 -0.7911  0.0519  0.1955
   43MOL0     C 5704  -0.003   0.924  -0.326  0.3247 -0.4252  0.3626
   43MOL0     C 5705  -0.053   0.805  -0.277 -0.6531  0.2320  0.5041
   43MOL0     O 5706  -0.165   0.741  -0.324 -0.0733 -0.2690  0.4697
   43MOL0     C 5707  -0.250   0.795  -0.421 -0.1762  1.2883 -0.0239
   43MOL0     C 5708  -0.377   0.831  -0.345 -0.6419  0.1596  0.4536
   43MOL0     C 5709  -0.498   0.884  -0.434 -0.7077 -0.5007 -0.4877
   43MOL0     C 5710  -0.490   1.037  -0.412 -0.5123  0.1061  0.7520
   43MOL0     C 5711  -0.576   1.098  -0.526  0.1641 -0.3757  0.1194
   43MOL0     C 5712  -0.727   1.059  -0.509 -0.5858 -0.5101  0.3043
   43MOL0     C 5713  -0.776   0.983  -0.635  0.0371  0.8197  0.6099
   43MOL0     C 5714  -0.931   0.964  -0.628 -0.1977  1.2325  0.3164
   43MOL0    Cl 5715  -1.005   0.882  -0.766  0.0602 -0.4256 -0.1063
   43MOL0     C 5716   0.006   0.750  -0.164  0.1419 -1.2549 -0.4997
   43MOL0     C 5717   0.129   0.802  -0.107 -1.4564 -0.9666  0.5798
   43MOL0     O 5718   0.418   0.794  -0.119  0.0460  0.0981  0.5271
   43MOL0     C 5719   0.524   1.144  -0.134 -0.3066 -0.0531 -0.0303
   43MOL0     C 5720   0.636   1.225  -0.133 -0.3998 -0.1008 -0.7579
   43MOL0     N 5721   1.213   1.206   0.262 -0.2000  0.2764 -0.1917
   43MOL0     N 5722   1.285   1.277   0.335  0.2290 -0.4476 -0.1960
   43MOL0     C 5723   2.556   1.144   0.371 -0.0709  0.0028  0.9099
   43MOL0     C 5724   2.698   1.139   0.389  0.3995 -0.4620  0.0857
   43MOL0     C 5725   3.136   1.295   0.354  0.1926  0.3031 -0.0282
   43MOL0     C 5726   3.178   1.172   0.311  1.0810  0.2237 -0.1256
   43MOL0     C 5727   3.314   1.142   0.309  0.0540 -0.3412  0.1211
   43MOL0     C 5728   3.414   1.231   0.350 -0.0290 -0.4245 -0.3349
   43MOL0     O 5729   3.542   1.192   0.353  0.3347  0.0462  0.3342
   43MOL0     C 5730   3.643   1.295   0.360 -0.2107  0.0580  0.3748
   43MOL0     C 5731   3.767   1.252   0.273  1.1539 -0.1628  0.1266
   43MOL0     C 5732   3.844   1.378   0.206  0.2173 -0.3926 -0.2267
   43MOL0     C 5733   3.890   1.491   0.312  0.5439  1.1096 -0.2021
   43MOL0     C 5734   3.975   1.423   0.408 -1.2937 -0.8654  0.3458
   43MOL0     C 5735   4.054   1.368   0.481 -1.3469 -0.0039 -0.0424
   43MOL0     C 5736   3.363   1.356   0.393  0.0819  1.3774 -0.0102
   43MOL0     C 5737   3.237   1.390   0.381  0.3601  0.9776 -0.1801
   43MOL0     H 5738   2.774   1.443   0.259 -3.5572  2.6566 -3.1596
   43MOL0     H 5739   2.537   1.476   0.259  1.2027  0.4346 -0.3680
   43MOL0     H 5740   2.372   1.095   0.191  0.4976 -1.4976  0.8977
   43MOL0     H 5741   2.248   1.104   0.328 -0.2533  0.8446 -0.8061
   43MOL0     H 5742   2.236   1.292   0.093 -0.9173  0.6289  0.5667
   43MOL0     H 5743   2.149   1.144   0.077 -1.0697 -2.5424  2.7111
   43MOL0     H 5744   2.034   1.200   0.309 -0.2913 -1.2814 -0.0920
   43MOL0     H 5745   2.114   1.359   0.276 -1.2625  1.5365  0.4916
   43MOL0     H 5746   1.972   1.342   0.051  0.7275 -1.7894 -0.5777
   43MOL0     H 5747   1.886   1.206   0.134 -1.1042  0.5555  1.9069
   43MOL0     H 5748   1.838   1.361   0.334  1.0627  1.7106  0.3289
   43MOL0     H 5749   1.862   1.502   0.234  0.7904  0.2071 -2.2354
   43MOL0     H 5750   1.685   1.438   0.080  0.7228  0.4258 -0.3744
   43MOL0     H 5751   1.680   1.275   0.143 -1.1626  0.5052 -0.0304
   43MOL0     H 5752   1.633   1.520   0.324 -0.3974  0.5020 -0.0390
   43MOL0     H 5753   1.512   1.492   0.201 -0.9055 -1.3606 -0.7354
   43MOL0     H 5754   1.493   1.388   0.440  0.3685 -0.3643 -0.5128
   43MOL0     H 5755   1.603   1.268   0.367  0.4746  1.2065 -0.4516
   43MOL0     H 5756   1.499   1.134   0.140 -0.5544 -0.8595  0.6348
   43MOL0     H 5757   1.319   0.986   0.038 -0.9527 -0.5770 -0.4019
   43MOL0     H 5758   1.158   0.991   0.110 -1.0795 -0.4590 -0.9831
   43MOL0     H 5759   1.182   1.060  -0.142  0.2869 -2.7171  2.2043
   43MOL0     H 5760   1.271   1.207  -0.079  2.2577 -0.8655  2.0243
   43MOL0     H 5761   1.062   1.274   0.029  0.5342  0.6949 -2.1547
   43MOL0     H 5762   0.994   1.113  -0.003 -0.1477 -0.0879 -0.9715
   43MOL0     H 5763   1.003   1.157  -0.258  0.8752  0.7729 -1.2065
   43MOL0     H 5764   1.068   1.318  -0.201 -0.4704  1.1674  2.5271
   43MOL0     H 5765   0.887   1.019  -0.186 -0.1112  1.9238  0.5696
   43MOL0     H 5766   0.745   0.779  -0.074 -1.2500 -1.4671 -0.2205
   43MOL0     H 5767   0.644   0.748  -0.215 -0.2633  0.6199 -1.4669
   43MOL0     H 5768   0.799   0.809  -0.246 -0.4824 -0.8222 -1.3581
   43MOL0     H 5769   0.143   1.069  -0.328 -0.4007 -0.1700  0.0439
   43MOL0     H 5770  -0.048   0.980  -0.406  2.7861  1.8156  0.4046
   43MOL0     H 5771  -0.216   0.881  -0.479 -1.3641  1.0979 -1.0615
   43MOL0     H 5772  -0.273   0.717  -0.495 -0.6333  2.3095 -0.9993
   43MOL0     H 5773  -0.430   0.746  -0.300  1.2784 -0.1406  2.3354
   43MOL0     H 5774  -0.345   0.897  -0.264  1.0903  3.2027 -2.4774
   43MOL0     H 5775  -0.591   0.840  -0.395 -0.7745  0.0701  0.0170
   43MOL0     H 5776  -0.478   0.851  -0.536 -0.8024 -2.5601  0.1166
   43MOL0     H 5777  -0.531   1.060  -0.313 -0.1054 -1.0712  1.2158
   43MOL0     H 5778  -0.388   1.073  -0.421 -1.3377  2.0993 -2.4495
   43MOL0     H 5779  -0.531   1.067  -0.621 -0.2108 -0.3298 -0.0729
   43MOL0     H 5780  -0.574   1.207  -0.527 -0.6602 -0.3582 -1.5244
   43MOL0     H 5781  -0.741   0.997  -0.420 -2.7599 -3.0383 -1.6357
   43MOL0     H 5782  -0.777   1.155  -0.491 -0.4978  0.2890 -3.0319
   43MOL0     H 5783  -0.728   0.886  -0.650 -4.2137 -1.1530 -2.5603
   43MOL0     H 5784  -0.748   1.033  -0.728  1.4289 -0.9923  0.0077
   43MOL0     H 5785  -0.964   1.068  -0.620  1.8521  2.1160 -1.6672
   43MOL0     H 5786  -0.949   0.905  -0.538  0.3343 -1.0713 -1.0010
   43MOL0     H 5787  -0.045   0.662  -0.128  0.9992 -2.0799 -1.2532
   43MOL0     H 5788   0.163   0.763  -0.012  2.1911 -0.1328 -0.2313
   43MOL0     H 5789   0.421   1.180  -0.137 -0.1288  0.4191 -2.0429
   43MOL0     H 5790   0.611   1.330  -0.139 -1.9548 -0.4251 -0.3147
   43MOL0     H 5791   2.504   1.054   0.401 -0.3847  0.4980  1.9050
   43MOL0     H 5792   2.740   1.046   0.426 -1.3098 -0.5800  1.8813
   43MOL0     H 5793   3.108   1.091   0.291  0.8011 -0.2200  2.4224
   43MOL0     H 5794   3.349   1.043   0.280 -1.4471 -0.4047 -1.6291
   43MOL0     H 5795   3.613   1.391   0.316  0.5518 -0.3381 -1.0908
   43MOL0     H 5796   3.682   1.315   0.460 -1.2919 -0.7291  0.9685
   43MOL0     H 5797   3.724   1.188   0.195  0.1161  2.8072 -1.9178
   43MOL0     H 5798   3.830   1.207   0.350  0.7615  0.9974  1.1478
   43MOL0     H 5799   3.778   1.426   0.133 -1.1866  0.4666  1.5165
   43MOL0     H 5800   3.934   1.338   0.159  0.8848 -2.3798  2.4388
   43MOL0     H 5801   3.799   1.532   0.356 -1.1120 -3.1264  0.7935
   43MOL0     H 5802   3.957   1.568   0.273  3.0121 -0.2117  1.1645
   43MOL0     H 5803   4.123   1.321   0.548 -1.0249  2.6654  1.6630
   43MOL0     H 5804   3.432   1.431   0.431  0.3809  1.8495 -1.4498
   43MOL0     H 5805   3.204   1.487   0.416 -2.1831 -0.1643  0.8165
   44MOL0     O 5806   2.921   0.180   1.129  0.2334  0.4702  0.6222
   44MOL0     C 5807   2.950   0.091   1.045  0.3419 -0.0007  0.2484
   44MOL0     O 5808   2.859   0.021   0.974  1.3912  0.2380 -0.5776
   44MOL0     C 5809   2.735   0.091   0.960  0.5603  0.7480 -0.2595
   44MOL0     C 5810   2.647   0.127   1.069  0.0818 -0.4735  0.3479
   44MOL0     C 5811   2.523   0.181   1.043 -0.3542  0.3749 -0.8943
   44MOL0     C 5812   2.460   0.169   0.918 -0.4501  0.7088 -0.1726
   44MOL0     O 5813   2.331   0.210   0.906 -0.2825  0.4433 -0.2603
   44MOL0     C 5814   2.268   0.163   0.791  1.0101 -0.3982 -0.4246
   44MOL0     C 5815   2.123   0.216   0.789  0.4551 -0.0135 -0.4158
   44MOL0     C 5816   2.052   0.158   0.663 -0.2926  0.6420 -0.3529
   44MOL0     C 5817   1.907   0.197   0.649  1.0534  0.8849  0.2091
   44MOL0     C 5818   1.813   0.065   0.660 -0.8829 -0.7082 -0.2081
   44MOL0     C 5819   1.793  -0.001   0.801  0.2424  0.1458 -0.3274
   44MOL0     C 5820   1.680  -0.095   0.823  0.7817 -0.3620 -0.0130
   44MOL0     C 5821   1.542  -0.024   0.819 -0.1396  0.4000 -0.0972
   44MOL0     N 5822   1.501   0.017   0.958 -0.2503  0.0127  0.0893
   44MOL0     C 5823   1.387  -0.016   1.032 -0.6073  0.4049  0.1350
   44MOL0     C 5824   1.404   0.054   1.146  1.1180  0.4706  0.2266
   44MOL0     C 5825   1.326   0.042   1.282  0.8883 -0.1416 -0.1618
   44MOL0     C 5826   1.393  -0.075   1.361  0.2895 -0.6358  0.4180
   44MOL0     C 5827   1.292  -0.156   1.433  0.4747  0.0519  0.2757
   44MOL0     C 5828   1.193  -0.243   1.341 -1.0646 -1.3547 -0.0274
   44MOL0     O 5829   1.076  -0.170   1.315  0.3645 -0.7161  0.2107
   44MOL0     C 5830   0.978  -0.240   1.237  1.1128 -1.6661  0.2339
   44MOL0     C 5831   0.846  -0.191   1.236  0.6730  0.4800  0.5996
   44MOL0     C 5832   0.740  -0.262   1.171  0.2098 -0.9653  0.8984
   44MOL0     C 5833   0.607  -0.188   1.179  0.5372  0.5807  0.4154
   44MOL0     C 5834   0.768  -0.383   1.100  0.1302 -0.0941 -0.0899
   44MOL0     C 5835   0.670  -0.465   1.030  0.3831 -0.2454 -0.2035
   44MOL0     O 5836   0.540  -0.440   1.044  0.5248  0.3079 -0.2434
   44MOL0     C 5837   0.435  -0.517   0.994 -0.2036 -0.7460 -0.5225
   44MOL0     C 5838   0.319  -0.531   1.063  0.6076  0.2961 -0.5275
   44MOL0     C 5839   0.199  -0.572   1.007  0.4686 -0.5020  0.8817
   44MOL0     C 5840   0.198  -0.631   0.875 -0.3792  0.1108 -1.2337
   44MOL0     O 5841   0.092  -0.693   0.817 -0.4766  0.3752 -0.4992
   44MOL0     C 5842  -0.035  -0.660   0.870  0.1821  0.2637 -0.1040
   44MOL0     C 5843  -0.145  -0.705   0.774  0.2518 -0.8102  0.3896
   44MOL0     C 5844  -0.289  -0.678   0.814  0.6502 -0.4674  0.2511
   44MOL0     C 5845  -0.376  -0.688   0.688  0.1254  0.7308  0.2181
   44MOL0     C 5846  -0.512  -0.622   0.726  0.4636  0.1901 -0.4887
   44MOL0     C 5847  -0.601  -0.628   0.609 -0.1954 -0.5054 -0.3805
   44MOL0     C 5848  -0.735  -0.566   0.635  0.0016 -0.1763  0.1238
   44MOL0     C 5849  -0.829  -0.589   0.527  0.2809  0.0565  0.1546
   44MOL0    Cl 5850  -0.832  -0.764   0.460 -0.2436 -0.1316  0.1124
   44MOL0     C 5851   0.315  -0.626   0.807  0.2122 -0.1755  0.0848
   44MOL0     C 5852   0.429  -0.569   0.862  0.7995 -0.3160 -0.5449
   44MOL0     O 5853   0.717  -0.553   0.960  0.3445 -0.5424  0.1261
   44MOL0     C 5854   0.907  -0.432   1.105  1.0971 -0.1588 -0.4892
   44MOL0     C 5855   1.009  -0.355   1.169  0.5210  0.7311 -0.1991
   44MOL0     N 5856   1.521   0.130   1.149 -0.0979  0.1186  0.3928
   44MOL0     N 5857   1.577   0.106   1.035 -0.5081 -0.2497 -0.3190
   44MOL0     C 5858   2.543   0.132   0.812  0.5561 -0.9423  0.4760
   44MOL0     C 5859   2.677   0.095   0.830  0.0695  0.0372  0.6629
   44MOL0     C 5860   3.090   0.057   1.043 -0.1428  0.2533 -0.6329
   44MOL0     C 5861   3.130  -0.064   0.979  0.4898  0.4160  0.4063
   44MOL0     C 5862   3.269  -0.082   0.953 -0.0968  0.2207 -0.3969
   44MOL0     C 5863   3.363   0.005   0.993 -0.0723  0.0450 -0.4243
   44MOL0     O 5864   3.492  -0.022   0.957  0.2735  0.0092  0.6098
   44MOL0     C 5865   3.544  -0.130   1.027 -1.1436  0.3290 -0.3485
   44MOL0     C 5866   3.602  -0.101   1.162  0.6561 -0.1259 -0.3648
   44MOL0     C 5867   3.741  -0.025   1.159 -0.1004  0.0517 -0.2051
   44MOL0     C 5868   3.858  -0.135   1.153 -0.1106  0.3669 -0.4478
   44MOL0     C 5869   3.988  -0.069   1.185 -0.0446  0.6091  0.4099
   44MOL0     C 5870   4.090  -0.007   1.218 -0.8445  0.6831  0.5211
   44MOL0     C 5871   3.329   0.111   1.065 -0.0231 -0.9342 -0.7250
   44MOL0     C 5872   3.196   0.133   1.098  0.5716  0.1666  0.5831
   44MOL0     H 5873   2.683   0.117   1.171  0.8593 -3.2984 -0.1252
   44MOL0     H 5874   2.462   0.207   1.129  0.2018  2.8698 -1.1785
   44MOL0     H 5875   2.311   0.202   0.699 -0.8036 -1.4844 -1.8165
   44MOL0     H 5876   2.272   0.057   0.765  0.1384 -0.2398 -1.2734
   44MOL0     H 5877   2.072   0.162   0.870 -0.5999  0.0300 -1.0362
   44MOL0     H 5878   2.118   0.325   0.797  0.3108 -0.0087 -0.5615
   44MOL0     H 5879   2.105   0.202   0.578  0.7958  0.9907  0.4721
   44MOL0     H 5880   2.074   0.051   0.662 -3.1727 -0.0310  0.3175
   44MOL0     H 5881   1.869   0.270   0.721 -1.9263  1.1663 -1.4967
   44MOL0     H 5882   1.890   0.236   0.548 -1.2343 -2.8006 -1.0748
   44MOL0     H 5883   1.712   0.093   0.628 -1.7300 -1.4241  1.6789
   44MOL0     H 5884   1.841  -0.022   0.600 -2.3914 -3.9451  3.3126
   44MOL0     H 5885   1.891  -0.046   0.819  0.6177  1.3956  0.9603
   44MOL0     H 5886   1.798   0.080   0.875 -1.7684  1.1609 -1.2117
   44MOL0     H 5887   1.685  -0.172   0.745 -0.7753  2.4032 -3.1005
   44MOL0     H 5888   1.697  -0.139   0.921 -0.4499  0.5392  0.6340
   44MOL0     H 5889   1.465  -0.093   0.784 -0.8553  1.1312  0.0008
   44MOL0     H 5890   1.540   0.060   0.748  0.3102 -0.9592 -1.7903
   44MOL0     H 5891   1.316  -0.087   0.991 -0.6955  1.6649 -2.0922
   44MOL0     H 5892   1.325   0.137   1.336 -2.1749 -0.6798  0.9110
   44MOL0     H 5893   1.220   0.021   1.264  0.5543  1.5721 -0.3599
   44MOL0     H 5894   1.456  -0.034   1.441 -2.7816  0.0952  2.6290
   44MOL0     H 5895   1.456  -0.135   1.295  1.2932  1.2404 -0.4202
   44MOL0     H 5896   1.238  -0.082   1.493 -0.2056  0.8119 -1.1934
   44MOL0     H 5897   1.340  -0.218   1.509 -1.5915  0.1615  1.7456
   44MOL0     H 5898   1.167  -0.332   1.398 -2.1501 -0.3827  1.0606
   44MOL0     H 5899   1.255  -0.274   1.257  3.3549 -1.3437  2.9046
   44MOL0     H 5900   0.827  -0.097   1.287 -1.9728  0.3206  0.0518
   44MOL0     H 5901   0.555  -0.219   1.270 -0.6685 -1.6290 -0.9484
   44MOL0     H 5902   0.620  -0.080   1.190  3.3837  0.6185 -1.9365
   44MOL0     H 5903   0.534  -0.202   1.100 -1.3294 -1.3954  2.3657
   44MOL0     H 5904   0.311  -0.511   1.169 -4.7586  0.3400 -0.6963
   44MOL0     H 5905   0.117  -0.572   1.079 -1.3982  1.8031 -1.0793
   44MOL0     H 5906  -0.042  -0.718   0.962 -2.4797  0.7538  0.0814
   44MOL0     H 5907  -0.043  -0.553   0.894 -0.9725  0.2684 -0.4560
   44MOL0     H 5908  -0.127  -0.666   0.674 -3.2700 -1.5445 -0.6671
   44MOL0     H 5909  -0.127  -0.810   0.751 -0.0738 -0.2334 -3.0506
   44MOL0     H 5910  -0.307  -0.585   0.868 -0.8508 -1.3025  1.2836
   44MOL0     H 5911  -0.318  -0.764   0.876  1.9639 -1.9997 -1.1344
   44MOL0     H 5912  -0.327  -0.646   0.600  2.9325  0.8893  1.7354
   44MOL0     H 5913  -0.391  -0.792   0.659 -0.1721  1.1673 -1.2878
   44MOL0     H 5914  -0.497  -0.520   0.764 -2.8416  0.0097  1.7137
   44MOL0     H 5915  -0.548  -0.677   0.813  3.0061  3.8546  3.2503
   44MOL0     H 5916  -0.555  -0.583   0.520 -0.3075 -0.8435 -0.6087
   44MOL0     H 5917  -0.616  -0.732   0.581  2.2060 -0.5155 -1.9376
   44MOL0     H 5918  -0.718  -0.460   0.655  1.7494 -0.5817  0.9429
   44MOL0     H 5919  -0.768  -0.615   0.727 -0.7693 -0.3871 -0.2496
   44MOL0     H 5920  -0.802  -0.521   0.445 -1.3297 -0.0121 -0.4696
   44MOL0     H 5921  -0.933  -0.568   0.553  1.1100  3.2813  1.4268
   44MOL0     H 5922   0.322  -0.647   0.701  3.5665  4.6118 -1.0066
   44MOL0     H 5923   0.520  -0.558   0.804  3.2178 -2.9749  2.3351
   44MOL0     H 5924   0.945  -0.525   1.065  2.4150 -0.3214  1.0517
   44MOL0     H 5925   1.113  -0.382   1.155  0.3964 -0.4004  0.8471
   44MOL0     H 5926   2.511   0.134   0.708  0.3020  0.3805  0.5683
   44MOL0     H 5927   2.738   0.069   0.744 -1.8200 -0.6787 -0.5229
   44MOL0     H 5928   3.054  -0.136   0.953  1.6119 -0.9364  0.7802
   44MOL0     H 5929   3.300  -0.173   0.903  1.7181 -0.3612  1.6585
   44MOL0     H 5930   3.474  -0.212   1.045  0.3253 -0.8792  0.0858
   44MOL0     H 5931   3.629  -0.163   0.967  0.1879  3.5425 -0.3994
   44MOL0     H 5932   3.621  -0.189   1.224 -0.8388 -1.2469 -1.4294
   44MOL0     H 5933   3.535  -0.030   1.212  0.3724  0.1665 -1.1393
   44MOL0     H 5934   3.750   0.027   1.254 -0.1953  0.5159 -0.4476
   44MOL0     H 5935   3.738   0.051   1.080 -1.5093  0.9347  0.6465
   44MOL0     H 5936   3.876  -0.171   1.052 -0.4457  2.2340 -1.2142
   44MOL0     H 5937   3.839  -0.220   1.219  0.2332  0.1391 -0.6369
   44MOL0     H 5938   4.182   0.037   1.251 -0.6287 -0.0097  0.8874
   44MOL0     H 5939   3.420   0.163   1.094  0.2067 -2.0099  0.5878
   44MOL0     H 5940   3.176   0.211   1.171 -3.5661 -2.0100  2.1149
   45MOL0     O 5941   6.939   0.163   4.500 -0.3023 -0.0083 -0.0824
   45MOL0     C 5942   7.015   0.250   4.555  0.1674 -0.2614 -0.4421
   45MOL0     O 5943   6.973   0.365   4.605  0.5834 -0.5553 -0.4275
   45MOL0     C 5944   6.837   0.386   4.609 -0.2347  1.0225 -0.0268
   45MOL0     C 5945   6.791   0.514   4.567  0.2107  0.2171  0.2255
   45MOL0     C 5946   6.662   0.538   4.569  0.3753 -0.6471  0.2614
   45MOL0     C 5947   6.572   0.457   4.630  0.4215  0.4682 -0.2663
   45MOL0     O 5948   6.448   0.503   4.640  0.0894  0.2072  0.3683
   45MOL0     C 5949   6.357   0.447   4.546 -0.4051 -0.2434  0.5526
   45MOL0     C 5950   6.209   0.456   4.586 -0.7011 -0.0938  0.3775
   45MOL0     C 5951   6.154   0.595   4.581  0.1053 -1.0699  0.0744
   45MOL0     C 5952   6.092   0.636   4.716 -0.4417 -0.4633  0.9576
   45MOL0     C 5953   6.023   0.776   4.692  0.0134 -0.3595 -0.7790
   45MOL0     C 5954   5.956   0.842   4.820 -0.8368 -0.3777  0.4395
   45MOL0     C 5955   6.068   0.886   4.927 -0.5478 -0.7717 -0.0584
   45MOL0     C 5956   5.992   0.887   5.060  0.1613  0.1013 -0.2996
   45MOL0     N 5957   5.864   0.959   5.064  0.4557 -0.2513  0.5673
   45MOL0     C 5958   5.842   1.083   5.004 -0.2512 -0.8460 -0.2551
   45MOL0     C 5959   5.723   1.121   5.052 -0.3871  0.1169 -0.6034
   45MOL0     C 5960   5.663   1.258   5.015  1.1459 -0.3774  0.1612
   45MOL0     C 5961   5.746   1.372   5.052  0.6243  0.0864 -0.4846
   45MOL0     C 5962   5.785   1.381   5.207  1.1473 -0.2542 -0.3954
   45MOL0     C 5963   5.667   1.380   5.303 -1.1322 -0.5005 -0.2451
   45MOL0     O 5964   5.582   1.489   5.287  0.0719  0.4919  0.4083
   45MOL0     C 5965   5.454   1.478   5.341 -0.4885 -0.3195  0.4685
   45MOL0     C 5966   5.409   1.374   5.428  1.1985 -0.4346 -0.3153
   45MOL0     C 5967   5.281   1.382   5.495 -0.8746 -1.4732  0.2247
   45MOL0     C 5968   5.232   1.272   5.587  0.0719 -0.0347  0.1897
   45MOL0     C 5969   5.199   1.489   5.465 -0.1980 -0.3292  0.4160
   45MOL0     C 5970   5.064   1.509   5.536  0.0587 -0.3981  0.1485
   45MOL0     O 5971   5.050   1.472   5.670  0.2106  0.4303 -0.0025
   45MOL0     C 5972   4.922   1.488   5.714  0.1925  0.2085 -0.0705
   45MOL0     C 5973   4.855   1.608   5.708  0.2902 -0.0183 -0.0158
   45MOL0     C 5974   4.733   1.626   5.763  0.8559 -0.0702  0.2149
   45MOL0     C 5975   4.670   1.515   5.836  0.1852  0.3584  1.0133
   45MOL0     O 5976   4.550   1.509   5.896 -0.5986 -0.5862  0.5367
   45MOL0     C 5977   4.488   1.638   5.917  0.3428 -0.0776  0.5567
   45MOL0     C 5978   4.383   1.622   6.029  0.1083  0.0065 -0.0566
   45MOL0     C 5979   4.303   1.746   6.054 -0.3877  0.6773  0.4849
   45MOL0     C 5980   4.152   1.708   6.103 -0.1670  0.0389 -0.4652
   45MOL0     C 5981   4.066   1.833   6.100 -0.2183  0.3437 -0.0129
   45MOL0     C 5982   3.924   1.802   6.121  0.2704  0.7256  0.3921
   45MOL0     C 5983   3.844   1.926   6.083 -0.0048 -0.2590  0.6619
   45MOL0     C 5984   3.701   1.917   6.106  0.0440 -0.3363  0.6004
   45MOL0    Cl 5985   3.617   2.077   6.065  0.1278 -0.4352  0.2136
   45MOL0     C 5986   4.749   1.396   5.829  0.1728  0.4857 -0.2995
   45MOL0     C 5987   4.872   1.382   5.770 -0.4419 -0.0765  0.3389
   45MOL0     O 5988   4.983   1.574   5.477  0.6567 -0.3374 -0.0799
   45MOL0     C 5989   5.237   1.587   5.371  0.2728  0.1986  0.4914
   45MOL0     C 5990   5.363   1.587   5.314  0.3375 -0.0133  0.4926
   45MOL0     N 5991   5.670   1.018   5.130 -0.8824  0.5282 -0.1759
   45MOL0     N 5992   5.762   0.928   5.146 -0.2290 -0.3413  0.1520
   45MOL0     C 5993   6.608   0.335   4.678 -0.6450  0.2286 -0.3120
   45MOL0     C 5994   6.743   0.294   4.660  0.5727 -0.5592 -0.4641
   45MOL0     C 5995   7.165   0.230   4.560 -0.0901  0.0545  0.5371
   45MOL0     C 5996   7.234   0.115   4.525  0.4435  0.7191 -0.0863
   45MOL0     C 5997   7.372   0.109   4.505 -0.1370  1.1780  0.5936
   45MOL0     C 5998   7.453   0.219   4.539  0.3006  0.2321  0.2972
   45MOL0     O 5999   7.590   0.230   4.565  0.9419 -0.0292 -0.3054
   45MOL0     C 6000   7.670   0.123   4.524 -0.1436  0.8164  0.4174
   45MOL0     C 6001   7.790   0.122   4.620  0.3780 -0.2237  0.0038
   45MOL0     C 6002   7.893   0.020   4.560 -0.0299  0.5056  0.4446
   45MOL0     C 6003   8.035   0.034   4.619  0.5183 -0.0622  0.9130
   45MOL0     C 6004   8.114  -0.080   4.597 -0.3373  0.5972  0.1918
   45MOL0     C 6005   8.197  -0.171   4.596  0.7976 -0.6620  0.6555
   45MOL0     C 6006   7.378   0.332   4.578  1.0975 -0.4980  0.1756
   45MOL0     C 6007   7.243   0.336   4.588 -0.3853 -0.7157 -0.1515
   45MOL0     H 6008   6.853   0.594   4.528 -0.0190  0.3862  0.2026
   45MOL0     H 6009   6.623   0.633   4.533  1.0306 -0.5703 -0.2603
   45MOL0     H 6010   6.376   0.499   4.451  2.4495  0.2271  1.2976
   45MOL0     H 6011   6.384   0.343   4.528 -2.8870 -0.5610 -2.2456
   45MOL0     H 6012   6.142   0.394   4.527 -1.8556  2.7646 -1.5423
   45MOL0     H 6013   6.201   0.424   4.690 -1.3648  1.5612  0.8761
   45MOL0     H 6014   6.231   0.667   4.552  1.2810 -1.7034  1.4726
   45MOL0     H 6015   6.072   0.595   4.509 -0.0853 -2.9704  0.2298
   45MOL0     H 6016   6.013   0.566   4.743 -0.6906 -0.6746 -0.2529
   45MOL0     H 6017   6.168   0.638   4.795 -1.2459 -1.0030  1.7687
   45MOL0     H 6018   6.085   0.854   4.648  1.6595 -1.5030 -0.5574
   45MOL0     H 6019   5.939   0.758   4.624  0.3011 -1.8892 -0.7708
   45MOL0     H 6020   5.903   0.932   4.786  0.2681  0.4956  0.9707
   45MOL0     H 6021   5.884   0.774   4.867  0.2741 -1.8918  0.0283
   45MOL0     H 6022   6.150   0.817   4.948 -1.7124 -1.6658  1.8207
   45MOL0     H 6023   6.106   0.986   4.907 -1.8752 -0.0174  0.9763
   45MOL0     H 6024   6.049   0.924   5.145 -0.9643 -0.4693  0.7373
   45MOL0     H 6025   5.976   0.783   5.089 -0.0593  0.7593  2.1649
   45MOL0     H 6026   5.909   1.136   4.938 -0.5937  1.0225  0.8164
   45MOL0     H 6027   5.652   1.268   4.907 -1.1359  0.4200  0.4304
   45MOL0     H 6028   5.566   1.263   5.064  0.1999 -0.8589 -1.5871
   45MOL0     H 6029   5.697   1.467   5.029 -0.1089  0.5245  2.4132
   45MOL0     H 6030   5.836   1.348   4.995 -0.8803 -4.1878 -1.4091
   45MOL0     H 6031   5.844   1.473   5.205 -0.5749  0.9732  1.5539
   45MOL0     H 6032   5.840   1.291   5.236 -0.8925 -1.4870 -0.1580
   45MOL0     H 6033   5.701   1.383   5.407 -0.3494 -1.0709 -0.4824
   45MOL0     H 6034   5.601   1.294   5.288 -1.8809 -0.7216  3.2595
   45MOL0     H 6035   5.462   1.284   5.458  0.6513 -0.6634 -0.0108
   45MOL0     H 6036   5.125   1.264   5.565 -0.5073  3.7194  0.9942
   45MOL0     H 6037   5.290   1.182   5.564  1.0755  0.1307  1.8992
   45MOL0     H 6038   5.252   1.295   5.692  0.9216  1.4745 -0.2745
   45MOL0     H 6039   4.899   1.695   5.660  0.4475  0.6280  1.2490
   45MOL0     H 6040   4.686   1.724   5.758  0.8168 -0.0659  0.6714
   45MOL0     H 6041   4.561   1.715   5.946  1.4058 -1.1955  0.9416
   45MOL0     H 6042   4.450   1.665   5.818  3.1664  1.9057 -0.1252
   45MOL0     H 6043   4.327   1.528   6.023 -0.7381  0.2992  2.3014
   45MOL0     H 6044   4.447   1.610   6.116 -0.2416 -1.9843 -0.0065
   45MOL0     H 6045   4.307   1.804   5.961  1.5015  0.7407  0.5751
   45MOL0     H 6046   4.347   1.807   6.133  0.1221  1.1956 -0.1919
   45MOL0     H 6047   4.106   1.640   6.030 -0.9193  0.5796 -0.5188
   45MOL0     H 6048   4.142   1.660   6.201  0.4176  1.3923  0.2725
   45MOL0     H 6049   4.074   1.889   6.006 -2.0414 -1.0892 -1.1070
   45MOL0     H 6050   4.090   1.892   6.189 -3.5411  1.6477  0.1541
   45MOL0     H 6051   3.888   1.719   6.059  2.9855 -0.4728  0.2847
   45MOL0     H 6052   3.906   1.775   6.225 -0.1107  1.7271  0.5931
   45MOL0     H 6053   3.853   1.929   5.974  0.0206  2.3793  0.6783
   45MOL0     H 6054   3.888   2.017   6.124 -2.1857  0.0096  2.6218
   45MOL0     H 6055   3.699   1.891   6.213  1.7248 -0.7908  0.5606
   45MOL0     H 6056   3.664   1.835   6.044  0.7551 -0.0768 -0.1822
   45MOL0     H 6057   4.713   1.317   5.894  1.1933  1.6760  1.8570
   45MOL0     H 6058   4.924   1.289   5.792  0.7549  0.7488  1.1222
   45MOL0     H 6059   5.161   1.659   5.341 -2.2549 -1.9906  1.2092
   45MOL0     H 6060   5.386   1.658   5.235  1.6586 -1.2879 -0.3061
   45MOL0     H 6061   6.534   0.272   4.726  1.5697 -0.6291  2.2438
   45MOL0     H 6062   6.770   0.203   4.712  2.7235  0.4424  0.3125
   45MOL0     H 6063   7.179   0.027   4.492  1.8231  0.6716 -2.5298
   45MOL0     H 6064   7.424   0.026   4.458 -0.6920  1.3519 -0.3334
   45MOL0     H 6065   7.617   0.028   4.515 -0.3465  1.1087 -2.0045
   45MOL0     H 6066   7.702   0.149   4.423 -0.7052 -0.5476 -0.1376
   45MOL0     H 6067   7.763   0.089   4.720  0.8394  0.6523  0.4278
   45MOL0     H 6068   7.845   0.216   4.625 -0.5142  0.4412 -1.6615
   45MOL0     H 6069   7.900   0.035   4.452 -1.7687 -2.8667 -0.3045
   45MOL0     H 6070   7.852  -0.081   4.567 -0.8690  0.7909 -0.1064
   45MOL0     H 6071   8.014   0.048   4.725 -3.2119  0.3553  0.2655
   45MOL0     H 6072   8.091   0.115   4.572 -0.7942  0.5140  0.2964
   45MOL0     H 6073   8.247  -0.265   4.590  0.1400 -1.0594  1.3846
   45MOL0     H 6074   7.430   0.420   4.614 -1.6468  1.5903 -0.6166
   45MOL0     H 6075   7.202   0.432   4.617  1.9232  0.3549 -0.1502
   46MOL0     O 6076   8.208   5.061   2.340 -0.3510 -0.3329 -0.2237
   46MOL0     C 6077   8.127   4.971   2.358  0.5603 -1.0868  0.6335
   46MOL0     O 6078   8.141   4.874   2.447  0.6615  0.5478 -0.3693
   46MOL0     C 6079   8.271   4.863   2.504 -0.7174 -1.1984  0.3446
   46MOL0     C 6080   8.362   4.770   2.438  0.6413 -0.6475 -1.4835
   46MOL0     C 6081   8.491   4.750   2.480 -0.6847 -0.0334 -0.5245
   46MOL0     C 6082   8.542   4.825   2.587 -0.8855 -0.0097 -0.6369
   46MOL0     O 6083   8.673   4.832   2.626 -0.6234 -0.4900  0.1420
   46MOL0     C 6084   8.767   4.734   2.568  0.6109  0.0166 -0.3656
   46MOL0     C 6085   8.893   4.745   2.652 -0.1666 -1.2126 -0.4774
   46MOL0     C 6086   8.942   4.893   2.662  0.8346 -0.4909 -0.0732
   46MOL0     C 6087   9.090   4.885   2.701 -0.4003  0.3805  0.1045
   46MOL0     C 6088   9.155   5.028   2.710 -0.2953  0.1255 -0.2264
   46MOL0     C 6089   9.303   5.033   2.748  0.2367  0.1165  0.2705
   46MOL0     C 6090   9.406   4.979   2.649 -0.7245  0.1497 -0.6095
   46MOL0     C 6091   9.547   5.007   2.692  0.5341  0.0913  0.8189
   46MOL0     N 6092   9.651   4.954   2.606  0.5444 -1.1557  0.6360
   46MOL0     C 6093   9.730   5.035   2.523  0.6175 -0.3534 -0.3052
   46MOL0     C 6094   9.828   4.952   2.489 -0.3059  0.3908 -0.7254
   46MOL0     C 6095   9.952   4.979   2.403 -0.5990  0.5089 -0.6918
   46MOL0     C 6096   9.924   4.940   2.253  0.6231  0.4053  0.2884
   46MOL0     C 6097   9.884   5.067   2.168  0.3932  0.6996  0.3349
   46MOL0     C 6098   9.753   5.053   2.088  0.3614  0.9333 -0.2414
   46MOL0     O 6099   9.634   5.049   2.170 -0.2669  0.3054  0.0110
   46MOL0     C 6100   9.511   5.032   2.109 -0.5776  0.0552 -0.5962
   46MOL0     C 6101   9.403   5.010   2.197 -0.4300 -0.8857  0.0042
   46MOL0     C 6102   9.272   4.996   2.156 -0.2857  0.5813 -0.1904
   46MOL0     C 6103   9.165   4.977   2.260  0.0494 -0.1333  0.3079
   46MOL0     C 6104   9.239   5.000   2.018 -1.0861  0.7196  0.5515
   46MOL0     C 6105   9.099   4.995   1.964 -0.2519  0.9363  0.2412
   46MOL0     O 6106   9.096   5.028   1.829 -0.2362 -0.6185  0.7308
   46MOL0     C 6107   8.965   5.042   1.782 -0.2447  0.9879  0.5852
   46MOL0     C 6108   8.889   5.147   1.816 -0.0805  0.5800 -0.2121
   46MOL0     C 6109   8.763   5.179   1.757 -0.0385 -1.1736 -0.0133
   46MOL0     C 6110   8.726   5.117   1.633  0.1433  0.0350 -0.8002
   46MOL0     O 6111   8.620   5.144   1.553  0.5977 -0.1465 -0.2232
   46MOL0     C 6112   8.561   5.272   1.576  0.2032 -0.2944  0.5934
   46MOL0     C 6113   8.444   5.299   1.491  1.0407  0.1396  0.3278
   46MOL0     C 6114   8.473   5.265   1.337 -0.0503  0.4531  0.1969
   46MOL0     C 6115   8.359   5.306   1.247  0.3660  0.3422  0.2702
   46MOL0     C 6116   8.388   5.266   1.106 -0.6044 -0.3463  1.0034
   46MOL0     C 6117   8.260   5.290   1.027 -0.1423  0.5624  0.2018
   46MOL0     C 6118   8.265   5.273   0.872  1.1475 -0.4824 -0.4824
   46MOL0     C 6119   8.251   5.128   0.821 -0.1158 -0.0036 -0.0588
   46MOL0    Cl 6120   8.107   5.033   0.862  0.0669 -0.1518 -0.1539
   46MOL0     C 6121   8.796   5.003   1.596 -0.3895 -0.0157 -0.1715
   46MOL0     C 6122   8.921   4.966   1.672  0.9013  0.2064  1.1157
   46MOL0     O 6123   9.008   4.967   2.037  0.5669 -0.3022 -0.8271
   46MOL0     C 6124   9.354   5.000   1.928  0.1187 -0.4630  0.0208
   46MOL0     C 6125   9.487   5.024   1.974  1.0296 -0.7797  0.0906
   46MOL0     N 6126   9.806   4.826   2.544 -0.2179  0.2284 -0.8651
   46MOL0     N 6127   9.698   4.829   2.611  0.5867  0.5376 -0.4548
   46MOL0     C 6128   8.462   4.920   2.645  0.1250 -0.9045  0.6094
   46MOL0     C 6129   8.328   4.942   2.607 -0.2394  0.2624 -0.2318
   46MOL0     C 6130   8.003   4.997   2.292  0.5851 -0.3272  0.8027
   46MOL0     C 6131   7.894   4.905   2.294 -0.3478 -0.2856  0.1463
   46MOL0     C 6132   7.772   4.931   2.230 -0.7019  0.3964  0.5444
   46MOL0     C 6133   7.742   5.053   2.163 -0.6042 -0.4193  0.4101
   46MOL0     O 6134   7.619   5.080   2.107  0.2557  0.8282  0.6110
   46MOL0     C 6135   7.565   5.212   2.121 -0.7299  0.0050  0.0760
   46MOL0     C 6136   7.421   5.204   2.068 -0.3294  0.2400 -0.3914
   46MOL0     C 6137   7.377   5.348   2.054  0.7259 -1.2160 -0.4199
   46MOL0     C 6138   7.255   5.385   1.965 -0.1498 -0.4608 -0.7366
   46MOL0     C 6139   7.226   5.532   1.980  0.3661  1.0856  0.9202
   46MOL0     C 6140   7.209   5.653   1.973 -0.1461  0.4479 -0.0303
   46MOL0     C 6141   7.853   5.139   2.147 -0.2401 -0.3651  0.3372
   46MOL0     C 6142   7.975   5.117   2.215  0.4828  0.9274  0.1351
   46MOL0     H 6143   8.313   4.708   2.363 -2.6722  0.1407 -0.1871
   46MOL0     H 6144   8.559   4.688   2.424  1.5226  1.8646 -0.0891
   46MOL0     H 6145   8.733   4.631   2.580  1.2940  0.0659  2.7584
   46MOL0     H 6146   8.783   4.762   2.463 -0.6262  0.4497 -0.4606
   46MOL0     H 6147   8.894   4.707   2.754 -2.9156  1.3619  0.6658
   46MOL0     H 6148   8.975   4.693   2.601  2.0245 -0.5059  2.0929
   46MOL0     H 6149   8.937   4.946   2.567  1.1867  0.0729  0.2160
   46MOL0     H 6150   8.884   4.944   2.740 -0.3602 -3.1195  0.8629
   46MOL0     H 6151   9.109   4.830   2.794 -1.0547 -1.0592 -0.5978
   46MOL0     H 6152   9.140   4.830   2.621  0.0326  0.4818  0.3020
   46MOL0     H 6153   9.156   5.075   2.611  1.2195 -1.1838 -0.8979
   46MOL0     H 6154   9.092   5.089   2.774 -0.0740  1.0495 -0.8668
   46MOL0     H 6155   9.323   5.138   2.769 -2.9541  1.0029 -0.6133
   46MOL0     H 6156   9.311   4.972   2.839  0.3386 -1.2868 -0.6491
   46MOL0     H 6157   9.393   4.871   2.652  0.5083  0.0131  0.4250
   46MOL0     H 6158   9.385   5.016   2.548 -1.8602  3.1966  0.6140
   46MOL0     H 6159   9.562   4.967   2.792 -0.8248  1.3398  1.5759
   46MOL0     H 6160   9.563   5.115   2.706  2.0555 -0.0178  0.0922
   46MOL0     H 6161   9.714   5.140   2.502 -1.4082  0.2424  3.3270
   46MOL0     H 6162   9.991   5.081   2.410 -3.3509  1.7801 -2.0086
   46MOL0     H 6163  10.038   4.918   2.432 -0.8746  0.2604 -0.3965
   46MOL0     H 6164   9.844   4.866   2.248  2.1101 -1.3907  1.8228
   46MOL0     H 6165  10.018   4.903   2.210 -0.5455 -1.8724 -0.4266
   46MOL0     H 6166   9.968   5.089   2.101 -0.4825 -0.5001 -1.2422
   46MOL0     H 6167   9.877   5.156   2.231 -1.9541  0.8862 -0.0964
   46MOL0     H 6168   9.748   4.966   2.022 -0.5995  0.8719 -0.1048
   46MOL0     H 6169   9.746   5.142   2.025  1.7321 -0.5530 -2.6088
   46MOL0     H 6170   9.430   5.007   2.302  2.1366 -1.9665 -0.5965
   46MOL0     H 6171   9.192   4.966   2.365 -2.3798  0.7405  1.0828
   46MOL0     H 6172   9.097   5.062   2.247 -0.3008 -0.6418 -1.5346
   46MOL0     H 6173   9.105   4.890   2.233 -2.5902  1.9551 -1.0451
   46MOL0     H 6174   8.908   5.189   1.914 -2.3169  0.9497  0.1080
   46MOL0     H 6175   8.700   5.258   1.797 -0.1706 -1.5483  0.5279
   46MOL0     H 6176   8.528   5.288   1.679 -1.3567  1.1283 -0.0729
   46MOL0     H 6177   8.640   5.342   1.546  1.9323 -1.8170  1.4729
   46MOL0     H 6178   8.357   5.243   1.526  0.0198  1.7308  0.4410
   46MOL0     H 6179   8.419   5.406   1.496  0.4053 -0.0318  0.9535
   46MOL0     H 6180   8.474   5.157   1.319 -3.0072  0.1005  1.4746
   46MOL0     H 6181   8.565   5.311   1.300  0.0655  1.6506  1.8432
   46MOL0     H 6182   8.272   5.249   1.283 -0.5376  2.5836  1.8848
   46MOL0     H 6183   8.332   5.411   1.256  3.5656  1.1720  1.6643
   46MOL0     H 6184   8.421   5.161   1.109 -0.2130 -0.2516  0.1487
   46MOL0     H 6185   8.462   5.331   1.058  0.8398 -1.1149  2.1013
   46MOL0     H 6186   8.184   5.224   1.069  0.7574 -1.4471 -1.1618
   46MOL0     H 6187   8.239   5.396   1.045  2.3938  1.4972 -1.6511
   46MOL0     H 6188   8.357   5.323   0.840  1.3259  3.7229  5.0689
   46MOL0     H 6189   8.175   5.330   0.848 -0.0399 -0.0629  4.0942
   46MOL0     H 6190   8.341   5.070   0.840 -0.0238  0.6641  1.7694
   46MOL0     H 6191   8.238   5.132   0.713  1.2071  2.5937 -0.1863
   46MOL0     H 6192   8.756   4.945   1.513 -0.1370  0.1021 -0.3776
   46MOL0     H 6193   8.989   4.890   1.635 -0.1817 -1.4584  2.3766
   46MOL0     H 6194   9.340   4.990   1.821  0.6422 -1.5978  0.0452
   46MOL0     H 6195   9.566   5.030   1.900 -0.0558 -2.1096 -1.2458
   46MOL0     H 6196   8.504   4.976   2.728  2.6202 -2.7987  0.7331
   46MOL0     H 6197   8.263   5.015   2.653  0.0497 -0.1829  0.9408
   46MOL0     H 6198   7.913   4.817   2.355 -2.0003 -0.3471  0.6405
   46MOL0     H 6199   7.689   4.862   2.245  0.2426 -0.8591  0.1489
   46MOL0     H 6200   7.560   5.248   2.225  0.2932 -2.0807  0.9132
   46MOL0     H 6201   7.638   5.271   2.065 -0.4032  0.6710  1.1662
   46MOL0     H 6202   7.346   5.142   2.117  1.7741 -1.9146  0.2863
   46MOL0     H 6203   7.427   5.157   1.970  2.6069  0.3664 -0.3673
   46MOL0     H 6204   7.466   5.406   2.026  0.3426 -0.5815 -0.3294
   46MOL0     H 6205   7.350   5.382   2.154 -0.1938  1.0730 -1.3616
   46MOL0     H 6206   7.174   5.320   2.000 -1.3076  0.3432 -1.8029
   46MOL0     H 6207   7.279   5.367   1.860  1.8560  3.0053 -1.0318
   46MOL0     H 6208   7.185   5.756   1.959 -0.5342  0.5984  1.5562
   46MOL0     H 6209   7.856   5.226   2.081  0.0747 -1.4491 -1.1392
   46MOL0     H 6210   8.061   5.182   2.204  1.5901 -0.5289 -0.2119
   47MOL0     O 6211   5.194   1.896   0.015  0.3578 -0.0886  0.4357
   47MOL0     C 6212   5.161   1.875   0.131 -0.4516 -0.2791 -0.8070
   47MOL0     O 6213   5.045   1.917   0.191 -0.7856  0.4837  0.6126
   47MOL0     C 6214   4.970   2.004   0.124 -0.0136 -0.3447  0.2882
   47MOL0     C 6215   5.003   2.140   0.120 -0.4318  0.7152  0.0501
   47MOL0     C 6216   4.916   2.232   0.068 -1.6540  0.0636 -0.2987
   47MOL0     C 6217   4.801   2.194   0.010 -0.6337  0.1246  0.3144
   47MOL0     O 6218   4.710   2.272  -0.052 -0.4546 -0.1825  0.0241
   47MOL0     C 6219   4.676   2.412  -0.001 -0.1200  0.2419 -0.5629
   47MOL0     C 6220   4.549   2.464  -0.076  0.2431 -0.2267  0.6662
   47MOL0     C 6221   4.434   2.369  -0.040 -0.1975  0.3569 -0.1082
   47MOL0     C 6222   4.302   2.406  -0.100  0.2939  0.7976  0.1294
   47MOL0     C 6223   4.179   2.359  -0.007  0.0761  0.0361 -0.4674
   47MOL0     C 6224   4.055   2.413  -0.074  0.0591 -0.1612  0.4756
   47MOL0     C 6225   3.932   2.384   0.018  0.0697  0.0494  0.2926
   47MOL0     C 6226   3.877   2.234   0.006 -0.0953 -0.5027 -0.1422
   47MOL0     N 6227   3.744   2.218   0.068  0.9417 -0.1318  0.0603
   47MOL0     C 6228   3.628   2.292   0.064 -0.4198 -0.2414 -0.2865
   47MOL0     C 6229   3.537   2.215   0.137  0.3115 -0.9297 -0.1815
   47MOL0     C 6230   3.411   2.274   0.192  0.0188 -0.4358 -0.4490
   47MOL0     C 6231   3.311   2.309   0.082 -0.0798 -0.7064  0.0632
   47MOL0     C 6232   3.177   2.382   0.122  0.4273  0.3722 -0.7985
   47MOL0     C 6233   3.200   2.532   0.162  0.4956  0.0776 -0.9399
   47MOL0     O 6234   3.090   2.580   0.232  0.1973  0.3383  0.1802
   47MOL0     C 6235   2.972   2.627   0.179 -0.2829 -0.0485 -0.2709
   47MOL0     C 6236   2.936   2.624   0.046  0.4488  0.3175  1.0135
   47MOL0     C 6237   2.808   2.637   0.004 -0.0707 -1.3667 -0.3485
   47MOL0     C 6238   2.771   2.615  -0.142 -0.8122  0.6621  0.7045
   47MOL0     C 6239   2.712   2.675   0.100  0.4838 -1.2916 -0.6078
   47MOL0     C 6240   2.568   2.711   0.059 -0.6685 -0.4411 -0.5877
   47MOL0     O 6241   2.552   2.774  -0.064  0.1232  0.3723  0.2047
   47MOL0     C 6242   2.424   2.806  -0.117 -0.3168  0.0031  0.2230
   47MOL0     C 6243   2.323   2.868  -0.048  0.2622  0.3289 -0.1009
   47MOL0     C 6244   2.195   2.896  -0.106  0.2249 -0.3174  0.1736
   47MOL0     C 6245   2.179   2.902  -0.243 -1.3731  0.4371  0.7124
   47MOL0     O 6246   2.083   2.951  -0.323 -0.1396  0.0491 -0.5539
   47MOL0     C 6247   1.988   3.040  -0.250 -0.6324 -0.0801 -0.1549
   47MOL0     C 6248   1.876   3.091  -0.340  0.2190  0.1165  0.4742
   47MOL0     C 6249   1.808   2.959  -0.393 -0.0579 -0.1228 -0.2588
   47MOL0     C 6250   1.655   2.967  -0.383 -0.2036  0.8448 -0.1887
   47MOL0     C 6251   1.583   2.838  -0.351  0.2150 -0.0917 -0.1840
   47MOL0     C 6252   1.430   2.865  -0.318  0.0081 -0.0087  0.3749
   47MOL0     C 6253   1.363   2.732  -0.301 -0.5514 -0.3925 -0.5774
   47MOL0     C 6254   1.217   2.758  -0.289 -0.0452 -0.2539 -0.5260
   47MOL0    Cl 6255   1.140   2.763  -0.456  0.2864  0.1534 -0.1381
   47MOL0     C 6256   2.289   2.854  -0.313  0.2440 -0.7390 -0.3679
   47MOL0     C 6257   2.410   2.816  -0.257 -0.5109 -0.6693  0.5066
   47MOL0     O 6258   2.482   2.673   0.136 -0.7209  0.6794 -1.0407
   47MOL0     C 6259   2.752   2.706   0.236  1.1072  0.1833  0.8892
   47MOL0     C 6260   2.883   2.675   0.277  0.2327  0.7934 -0.0349
   47MOL0     N 6261   3.598   2.099   0.174 -0.6693 -0.5761  0.7822
   47MOL0     N 6262   3.718   2.104   0.131  0.0273  0.2213  0.2925
   47MOL0     C 6263   4.769   2.058   0.001 -0.6663  0.1258 -0.1813
   47MOL0     C 6264   4.849   1.961   0.063  0.1170 -0.3206 -0.5042
   47MOL0     C 6265   5.243   1.781   0.219  0.4109 -0.0256 -0.1137
   47MOL0     C 6266   5.208   1.748   0.353  0.3714  0.5555  0.3281
   47MOL0     C 6267   5.289   1.675   0.442  0.7399 -0.2425  0.6264
   47MOL0     C 6268   5.411   1.617   0.400 -0.3060  0.9550 -0.8972
   47MOL0     O 6269   5.470   1.538   0.491 -0.3187 -0.1406 -0.1525
   47MOL0     C 6270   5.592   1.474   0.461 -0.3828 -0.0080  0.7404
   47MOL0     C 6271   5.611   1.365   0.564 -0.2781 -0.4720  0.6513
   47MOL0     C 6272   5.693   1.245   0.520  0.2750 -0.5962 -1.1703
   47MOL0     C 6273   5.844   1.280   0.514  0.8246  0.0415  0.5867
   47MOL0     C 6274   5.902   1.365   0.410  0.1115 -0.5506  0.3635
   47MOL0     C 6275   5.966   1.402   0.312  0.3742 -0.2529 -0.4142
   47MOL0     C 6276   5.455   1.646   0.261 -0.2760  0.5119 -0.6176
   47MOL0     C 6277   5.366   1.720   0.183  0.4259 -0.1631  0.7493
   47MOL0     H 6278   5.099   2.177   0.153  1.3577 -1.4155 -2.2833
   47MOL0     H 6279   4.933   2.339   0.069 -0.8392 -0.0583 -0.3528
   47MOL0     H 6280   4.658   2.400   0.106  1.9286  1.1700 -0.0697
   47MOL0     H 6281   4.761   2.477  -0.022  2.9639 -3.1446  0.4179
   47MOL0     H 6282   4.527   2.566  -0.042 -2.2218 -0.3084 -0.4467
   47MOL0     H 6283   4.556   2.476  -0.185  3.8755  0.2285  0.8291
   47MOL0     H 6284   4.458   2.263  -0.055  1.1116  0.2723  2.1811
   47MOL0     H 6285   4.423   2.373   0.069  1.0308  0.5455  0.0238
   47MOL0     H 6286   4.289   2.513  -0.116  0.5534  0.4371 -3.0468
   47MOL0     H 6287   4.282   2.369  -0.201  1.3864  3.6613 -1.2381
   47MOL0     H 6288   4.181   2.249  -0.005  1.1389  0.0338  2.3357
   47MOL0     H 6289   4.195   2.384   0.098  2.2762 -1.9941 -0.2270
   47MOL0     H 6290   4.061   2.522  -0.067  2.1183 -0.2562  1.1504
   47MOL0     H 6291   4.050   2.377  -0.177  0.3772 -3.0553  1.3754
   47MOL0     H 6292   3.936   2.420   0.121 -1.5983  4.9074 -1.1043
   47MOL0     H 6293   3.850   2.443  -0.024 -0.5462 -1.2300 -0.4020
   47MOL0     H 6294   3.946   2.164   0.055  0.7018 -0.6857 -1.4714
   47MOL0     H 6295   3.879   2.209  -0.100 -0.8671  3.3235 -1.1900
   47MOL0     H 6296   3.627   2.394   0.026  1.6333 -0.1867 -0.2749
   47MOL0     H 6297   3.372   2.205   0.267  0.1207  1.8308  1.7903
   47MOL0     H 6298   3.442   2.365   0.243  2.3410 -3.4619  4.2182
   47MOL0     H 6299   3.293   2.207   0.044  1.6702 -1.2462  0.5887
   47MOL0     H 6300   3.362   2.369   0.006 -0.7522  0.3331  0.4274
   47MOL0     H 6301   3.126   2.323   0.198  1.3094 -0.1672 -0.6149
   47MOL0     H 6302   3.116   2.375   0.031  0.0334  1.6308 -0.6456
   47MOL0     H 6303   3.232   2.597   0.080  3.3014  0.9779  0.7163
   47MOL0     H 6304   3.290   2.545   0.223 -0.4032 -1.4289  0.8124
   47MOL0     H 6305   3.010   2.594  -0.028 -0.6766  0.5265 -0.2414
   47MOL0     H 6306   2.672   2.570  -0.154 -0.4859 -1.5399  4.5373
   47MOL0     H 6307   2.770   2.711  -0.195  1.8573  0.6609  0.5573
   47MOL0     H 6308   2.843   2.547  -0.187  0.2863 -0.4611  3.8750
   47MOL0     H 6309   2.353   2.892   0.054  2.0293  0.3674 -0.5896
   47MOL0     H 6310   2.129   2.936  -0.030 -1.9930 -1.6321 -0.9533
   47MOL0     H 6311   1.954   2.975  -0.169 -1.9173 -1.5703 -1.7885
   47MOL0     H 6312   2.044   3.128  -0.219 -0.1942 -0.0037 -1.1082
   47MOL0     H 6313   1.800   3.144  -0.281 -1.7645 -0.6450 -1.2431
   47MOL0     H 6314   1.906   3.152  -0.426  0.6494 -0.7396 -0.0017
   47MOL0     H 6315   1.836   2.868  -0.338 -1.6057 -2.4263 -3.0102
   47MOL0     H 6316   1.850   2.926  -0.488 -2.9896  1.4589 -2.2624
   47MOL0     H 6317   1.627   3.022  -0.292 -0.7903  0.3726 -0.0798
   47MOL0     H 6318   1.603   3.018  -0.464 -2.0928  0.0861  0.4966
   47MOL0     H 6319   1.635   2.783  -0.271 -1.3561 -0.5387  0.5636
   47MOL0     H 6320   1.587   2.770  -0.437  0.7456  1.5243 -1.4855
   47MOL0     H 6321   1.411   2.904  -0.218 -1.7427 -2.4219  1.0461
   47MOL0     H 6322   1.374   2.921  -0.394  0.3341 -0.2101 -0.0183
   47MOL0     H 6323   1.393   2.679  -0.210  0.3094 -0.8091 -1.0925
   47MOL0     H 6324   1.380   2.665  -0.386 -0.7713  0.7732 -1.5669
   47MOL0     H 6325   1.190   2.855  -0.246 -2.1001 -0.9004 -0.2528
   47MOL0     H 6326   1.172   2.685  -0.221 -1.0922 -0.0683 -0.9840
   47MOL0     H 6327   2.280   2.848  -0.421 -0.4917 -1.2115 -0.2828
   47MOL0     H 6328   2.491   2.781  -0.320 -1.7889 -2.4705 -0.2130
   47MOL0     H 6329   2.684   2.726   0.318 -1.6239 -2.4001 -0.5691
   47MOL0     H 6330   2.915   2.695   0.378  1.9131  0.7574 -0.5240
   47MOL0     H 6331   4.675   2.025  -0.043 -0.2739 -2.7301  0.9236
   47MOL0     H 6332   4.821   1.856   0.072 -0.6491 -0.1571 -0.9735
   47MOL0     H 6333   5.114   1.782   0.393  1.7878  1.1201  3.5040
   47MOL0     H 6334   5.253   1.661   0.543 -0.5927  0.2133  0.2384
   47MOL0     H 6335   5.575   1.418   0.369 -0.3212  0.0038  0.7215
   47MOL0     H 6336   5.674   1.544   0.446  1.2983 -1.7668  1.2129
   47MOL0     H 6337   5.512   1.328   0.590 -0.3726 -0.2709  0.5837
   47MOL0     H 6338   5.656   1.413   0.651  1.4874  0.7415 -0.8365
   47MOL0     H 6339   5.663   1.203   0.424 -0.7815 -0.6779 -0.8149
   47MOL0     H 6340   5.671   1.161   0.587 -0.9230 -1.6782 -2.8557
   47MOL0     H 6341   5.892   1.182   0.515 -3.2273 -2.1648  1.8783
   47MOL0     H 6342   5.858   1.318   0.616  1.0113  2.8303 -0.3994
   47MOL0     H 6343   6.013   1.432   0.220 -0.5069 -0.8567 -1.0677
   47MOL0     H 6344   5.539   1.593   0.218 -2.3256 -2.3459 -1.4199
   47MOL0     H 6345   5.400   1.734   0.080 -0.7709  2.2936  0.6233
   48MOL0     O 6346   5.760   2.888  11.082 -0.3820  0.3785 -0.3715
   48MOL0     C 6347   5.769   2.797  11.001  0.5180 -0.6021 -0.0057
   48MOL0     O 6348   5.671   2.749  10.922 -0.4505  0.0613  0.5717
   48MOL0     C 6349   5.551   2.810  10.920 -0.3693 -0.3293 -0.3020
   48MOL0     C 6350   5.446   2.722  10.918  0.1793 -0.6140 -0.2870
   48MOL0     C 6351   5.313   2.776  10.914 -0.1539 -0.1669  1.0146
   48MOL0     C 6352   5.277   2.913  10.922  0.6614  0.8356  0.1822
   48MOL0     O 6353   5.145   2.957  10.918 -0.1982  0.5359  0.1336
   48MOL0     C 6354   5.125   3.100  10.929 -0.1799 -0.3831 -0.1648
   48MOL0     C 6355   4.979   3.147  10.941 -0.5327  0.2382  0.2394
   48MOL0     C 6356   4.965   3.301  10.942 -1.5272  0.1187 -0.7351
   48MOL0     C 6357   4.827   3.343  10.909 -0.2622 -0.0276  0.1057
   48MOL0     C 6358   4.766   3.448  11.006  0.5100 -0.6160 -0.7909
   48MOL0     C 6359   4.626   3.488  10.973  0.2689 -0.2224  1.3785
   48MOL0     C 6360   4.592   3.508  10.825  0.5361 -0.1083 -0.4588
   48MOL0     C 6361   4.477   3.609  10.799 -1.3875 -0.9530  0.0212
   48MOL0     N 6362   4.454   3.631  10.654 -0.1196  0.5597 -0.0762
   48MOL0     C 6363   4.526   3.718  10.578 -0.6098  0.1559  0.5301
   48MOL0     C 6364   4.483   3.698  10.453  0.4113 -0.3848 -0.5172
   48MOL0     C 6365   4.549   3.763  10.327 -0.2265  0.3957 -0.6991
   48MOL0     C 6366   4.508   3.909  10.301  0.1899 -0.1231  0.2513
   48MOL0     C 6367   4.354   3.920  10.289 -0.2860 -0.4191  0.1592
   48MOL0     C 6368   4.306   4.038  10.204 -1.1922 -0.6772 -0.0849
   48MOL0     O 6369   4.161   4.006  10.194  0.5895  0.5345  0.2716
   48MOL0     C 6370   4.070   4.049  10.287 -0.2059  0.2421 -0.4327
   48MOL0     C 6371   4.098   4.124  10.402  0.0388 -0.2982 -0.4133
   48MOL0     C 6372   3.990   4.180  10.472  0.5279  0.6373 -0.3912
   48MOL0     C 6373   4.022   4.277  10.581 -0.5526 -0.0572  0.3788
   48MOL0     C 6374   3.858   4.137  10.449  0.0481  0.7403 -0.0758
   48MOL0     C 6375   3.746   4.195  10.517 -0.7031  0.1739 -0.2302
   48MOL0     O 6376   3.646   4.109  10.548  0.6587  0.2607 -0.5406
   48MOL0     C 6377   3.539   4.139  10.625  0.1893 -0.4676 -0.5121
   48MOL0     C 6378   3.433   4.051  10.600 -0.2654  0.5301  0.7745
   48MOL0     C 6379   3.318   4.060  10.673  0.1200 -0.1588  0.3191
   48MOL0     C 6380   3.301   4.160  10.778 -0.2899  0.0831  0.0462
   48MOL0     O 6381   3.195   4.159  10.861 -0.2418  0.0369 -0.2449
   48MOL0     C 6382   3.073   4.164  10.795 -0.1802  0.2556  0.0246
   48MOL0     C 6383   2.978   4.170  10.912  0.0841  0.0757 -0.2317
   48MOL0     C 6384   2.828   4.171  10.869 -0.4192  0.7144  0.7541
   48MOL0     C 6385   2.796   4.139  10.718  0.0946 -1.2664 -0.5230
   48MOL0     C 6386   2.650   4.175  10.690  0.6999  0.1612  1.0843
   48MOL0     C 6387   2.628   4.178  10.530  0.9496 -0.5470 -1.3120
   48MOL0     C 6388   2.649   4.048  10.456  0.0456  0.4227  0.1666
   48MOL0     C 6389   2.547   3.941  10.483  0.2414  0.2449 -0.1221
   48MOL0    Cl 6390   2.384   4.018  10.480  0.7951 -0.3356  0.0187
   48MOL0     C 6391   3.399   4.251  10.797 -0.7276  1.0369 -0.6156
   48MOL0     C 6392   3.515   4.236  10.718 -0.7093 -0.5585 -0.6876
   48MOL0     O 6393   3.741   4.317  10.534 -0.2289 -0.0418 -0.1627
   48MOL0     C 6394   3.838   4.043  10.351  0.6460 -0.1658 -0.4862
   48MOL0     C 6395   3.937   4.002  10.267  0.0183 -0.7315 -0.1134
   48MOL0     N 6396   4.390   3.598  10.456 -0.8270  0.0277 -0.1930
   48MOL0     N 6397   4.375   3.550  10.574  1.0142 -0.3091 -0.4892
   48MOL0     C 6398   5.385   3.000  10.928  0.0929  0.5844 -0.1858
   48MOL0     C 6399   5.527   2.950  10.928 -0.2528  0.1396  0.7639
   48MOL0     C 6400   5.899   2.712  10.996  0.4520 -0.8152  0.0650
   48MOL0     C 6401   5.907   2.574  10.957 -0.0119 -0.0246  0.9900
   48MOL0     C 6402   6.031   2.508  10.946 -0.5361 -1.0748  0.1045
   48MOL0     C 6403   6.144   2.572  10.980  0.2829 -0.3160 -0.6914
   48MOL0     O 6404   6.263   2.508  10.957 -0.1792 -0.5592  0.5324
   48MOL0     C 6405   6.383   2.551  11.010  0.1650  0.4121 -0.1174
   48MOL0     C 6406   6.485   2.435  10.998 -0.0044 -0.7844 -0.1712
   48MOL0     C 6407   6.556   2.408  11.134  0.1720  0.6390 -0.1907
   48MOL0     C 6408   6.644   2.281  11.136 -0.8878 -0.1753 -0.4033
   48MOL0     C 6409   6.730   2.266  11.016  0.4198 -0.7230 -0.3542
   48MOL0     C 6410   6.782   2.233  10.913 -0.9878 -0.2611  0.6321
   48MOL0     C 6411   6.136   2.704  11.029 -0.8885 -0.6736  0.2298
   48MOL0     C 6412   6.021   2.777  11.029  0.0874 -0.2478  0.1173
   48MOL0     H 6413   5.460   2.615  10.904  2.9339 -0.1382 -2.0463
   48MOL0     H 6414   5.234   2.703  10.898 -0.3534  0.0104  1.1957
   48MOL0     H 6415   5.180   3.128  11.020 -2.6871  2.9210  0.5156
   48MOL0     H 6416   5.182   3.151  10.851 -0.6907 -0.1541 -0.3904
   48MOL0     H 6417   4.917   3.097  10.866 -0.4080  0.9111 -0.3184
   48MOL0     H 6418   4.930   3.114  11.034  1.7255 -2.7459  0.5303
   48MOL0     H 6419   5.002   3.338  11.038  2.5900 -0.5189 -1.8761
   48MOL0     H 6420   5.027   3.350  10.867  2.7347 -0.8036  1.8429
   48MOL0     H 6421   4.835   3.380  10.806 -0.6668 -0.2864 -0.0238
   48MOL0     H 6422   4.770   3.250  10.902  2.3599 -1.9198  2.0126
   48MOL0     H 6423   4.774   3.399  11.104  3.7704  0.8987 -0.1722
   48MOL0     H 6424   4.829   3.537  11.004  1.1209 -0.8298  2.4844
   48MOL0     H 6425   4.557   3.412  11.011  0.1199 -0.6191  0.3489
   48MOL0     H 6426   4.600   3.582  11.023  0.1928  0.2073  0.5551
   48MOL0     H 6427   4.681   3.543  10.773  1.0255  0.7240  0.8640
   48MOL0     H 6428   4.577   3.411  10.778  1.4079 -0.1115 -0.7456
   48MOL0     H 6429   4.499   3.700  10.856 -1.1336 -0.0651 -1.4434
   48MOL0     H 6430   4.387   3.571  10.847 -1.4298 -0.7147  0.1319
   48MOL0     H 6431   4.614   3.775  10.604 -0.1815 -0.4251  0.3604
   48MOL0     H 6432   4.657   3.756  10.345 -0.5124 -0.4837  0.7564
   48MOL0     H 6433   4.523   3.709  10.236 -0.6879 -1.7935  0.6592
   48MOL0     H 6434   4.556   3.938  10.207 -2.0988 -0.1691 -1.0156
   48MOL0     H 6435   4.538   3.977  10.381 -2.4603  0.1433  1.1091
   48MOL0     H 6436   4.317   3.938  10.391  0.0796  0.2146  0.1887
   48MOL0     H 6437   4.308   3.832  10.243 -0.7608 -1.0748  1.7823
   48MOL0     H 6438   4.363   4.023  10.112 -2.5109  2.9009 -1.6557
   48MOL0     H 6439   4.331   4.134  10.250  0.2630 -0.6871 -0.8068
   48MOL0     H 6440   4.195   4.156  10.437 -1.0837 -0.1963  3.0395
   48MOL0     H 6441   3.991   4.238  10.679 -0.8134  0.9180  0.6998
   48MOL0     H 6442   4.129   4.288  10.600 -0.5234 -0.7360  0.6415
   48MOL0     H 6443   3.978   4.376  10.567  1.2257  0.9879  1.7522
   48MOL0     H 6444   3.450   3.978  10.521 -0.4797  2.0273 -0.6980
   48MOL0     H 6445   3.239   3.988  10.656 -3.0040  2.9547  0.5192
   48MOL0     H 6446   3.075   4.258  10.738 -1.1187  0.1883 -0.1269
   48MOL0     H 6447   3.054   4.072  10.741 -0.8065  0.3025  0.1543
   48MOL0     H 6448   3.011   4.098  10.988  2.9020 -0.6915 -2.0504
   48MOL0     H 6449   2.987   4.270  10.955 -0.0303  0.3036 -0.7310
   48MOL0     H 6450   2.786   4.270  10.891  0.8060  2.0048 -2.1575
   48MOL0     H 6451   2.787   4.093  10.933  2.8426 -1.7344  0.1149
   48MOL0     H 6452   2.863   4.203  10.660  1.8463 -1.8533  0.7916
   48MOL0     H 6453   2.818   4.034  10.699 -0.6284 -1.3366 -1.0300
   48MOL0     H 6454   2.630   4.268  10.743 -3.2141  0.6864 -0.8979
   48MOL0     H 6455   2.581   4.103  10.735  0.7961  0.3491  1.5394
   48MOL0     H 6456   2.528   4.219  10.511  0.3156 -0.7651  1.2150
   48MOL0     H 6457   2.696   4.248  10.479 -1.2604  0.9785 -2.3463
   48MOL0     H 6458   2.750   4.009  10.464 -0.8081 -2.6395 -2.2267
   48MOL0     H 6459   2.648   4.068  10.349 -0.2153 -1.7726 -0.2856
   48MOL0     H 6460   2.568   3.890  10.577  0.9285 -2.6190 -1.6907
   48MOL0     H 6461   2.561   3.868  10.403  0.9364  0.7623 -0.4864
   48MOL0     H 6462   3.373   4.335  10.861  0.4091 -0.5353  2.0888
   48MOL0     H 6463   3.586   4.316  10.736 -0.5447  0.1515 -3.9420
   48MOL0     H 6464   3.735   4.016  10.329  0.4727  1.2720 -1.6000
   48MOL0     H 6465   3.917   3.943  10.178  1.2598 -0.3219 -0.6889
   48MOL0     H 6466   5.368   3.107  10.934 -1.0079  0.5234 -1.6473
   48MOL0     H 6467   5.611   3.018  10.930  0.6547 -0.9770  1.9834
   48MOL0     H 6468   5.818   2.517  10.933 -0.4913  1.3369 -0.6568
   48MOL0     H 6469   6.034   2.406  10.908 -0.4997 -0.7127 -0.8829
   48MOL0     H 6470   6.418   2.644  10.963  2.3465 -0.6409 -0.7372
   48MOL0     H 6471   6.367   2.583  11.113  0.2446  0.3832 -0.0956
   48MOL0     H 6472   6.554   2.454  10.915 -1.6913  4.2042 -0.7513
   48MOL0     H 6473   6.441   2.344  10.956 -1.8399  0.0763 -0.2024
   48MOL0     H 6474   6.475   2.385  11.204 -1.8326 -2.1793 -3.1330
   48MOL0     H 6475   6.613   2.499  11.153  0.0009  0.9154 -0.9696
   48MOL0     H 6476   6.580   2.192  11.139 -1.8207  0.5032  1.7575
   48MOL0     H 6477   6.702   2.279  11.228  1.5051 -2.7749 -1.8046
   48MOL0     H 6478   6.829   2.221  10.817 -0.1603 -0.4609  1.0515
   48MOL0     H 6479   6.229   2.755  11.051 -1.3148  0.2689 -0.0712
   48MOL0     H 6480   6.035   2.880  11.058 -0.9564 -0.3563  1.0817
   49MOL0     O 6481   7.580   1.647   2.435 -0.7151  0.5356  0.4606
   49MOL0     C 6482   7.611   1.712   2.342 -0.1401  0.5774 -0.0462
   49MOL0     O 6483   7.524   1.784   2.266 -0.4833  0.9360  0.2432
   49MOL0     C 6484   7.398   1.799   2.314  0.2582 -0.5917  0.3398
   49MOL0     C 6485   7.346   1.928   2.325  0.3271 -0.2450 -0.8522
   49MOL0     C 6486   7.218   1.949   2.373  0.5829  0.3823  0.7550
   49MOL0     C 6487   7.144   1.852   2.430  0.3693  1.1505 -0.0413
   49MOL0     O 6488   7.036   1.899   2.495  0.8390 -0.0014  0.2753
   49MOL0     C 6489   6.909   1.835   2.497  0.5288 -0.6051 -1.3808
   49MOL0     C 6490   6.809   1.948   2.538 -1.1737 -0.6074 -0.5898
   49MOL0     C 6491   6.666   1.885   2.552  0.1630 -0.2102  0.3656
   49MOL0     C 6492   6.565   1.981   2.623  0.0745 -0.1210 -0.3663
   49MOL0     C 6493   6.418   1.935   2.623 -0.0631  1.1040  0.3165
   49MOL0     C 6494   6.364   1.955   2.470  0.7131 -0.1148  0.0573
   49MOL0     C 6495   6.249   2.056   2.462 -0.5932  0.5750  0.5022
   49MOL0     C 6496   6.292   2.187   2.521  0.5396 -0.8021 -0.4968
   49MOL0     N 6497   6.182   2.284   2.478 -1.3612  0.1127 -0.2106
   49MOL0     C 6498   6.186   2.359   2.370 -0.1690  0.1406  0.4003
   49MOL0     C 6499   6.089   2.448   2.385  0.6046 -0.7542  1.4756
   49MOL0     C 6500   6.054   2.563   2.299  0.2607 -0.4050  0.5990
   49MOL0     C 6501   5.938   2.549   2.206 -0.2811  1.7359  0.3510
   49MOL0     C 6502   5.899   2.671   2.127 -0.2178 -1.0059  0.4075
   49MOL0     C 6503   5.761   2.654   2.063 -0.5788  0.6981  1.3600
   49MOL0     O 6504   5.773   2.534   1.987  0.2995 -0.2375  0.0532
   49MOL0     C 6505   5.663   2.505   1.904  0.3252 -0.2046 -0.1126
   49MOL0     C 6506   5.676   2.394   1.829  0.6885  0.8387  0.3859
   49MOL0     C 6507   5.579   2.357   1.734 -0.2997  0.4248  0.1079
   49MOL0     C 6508   5.606   2.233   1.657  0.0616  0.4406 -0.4656
   49MOL0     C 6509   5.465   2.435   1.717 -0.1628 -0.3461 -0.7346
   49MOL0     C 6510   5.378   2.429   1.601 -0.3289 -0.4643 -0.4596
   49MOL0     O 6511   5.258   2.498   1.605 -0.1702  0.2341 -0.6596
   49MOL0     C 6512   5.157   2.468   1.519 -0.8600 -0.1849  0.9518
   49MOL0     C 6513   5.032   2.460   1.585 -0.4386 -0.4131  0.2629
   49MOL0     C 6514   4.915   2.422   1.514 -0.0006 -0.3896 -0.7744
   49MOL0     C 6515   4.922   2.401   1.378 -0.2158 -1.0031  0.1660
   49MOL0     O 6516   4.815   2.358   1.309  0.1685  0.0701 -0.4838
   49MOL0     C 6517   4.697   2.299   1.376 -0.2946  0.3440  0.3503
   49MOL0     C 6518   4.605   2.249   1.263 -1.0454 -0.1911 -0.1518
   49MOL0     C 6519   4.468   2.216   1.337 -1.0502 -0.9357 -0.1648
   49MOL0     C 6520   4.347   2.199   1.250 -0.1561 -0.1932 -0.9393
   49MOL0     C 6521   4.223   2.157   1.328  0.3569  0.0169  0.1828
   49MOL0     C 6522   4.242   2.019   1.394  0.1435  0.9815 -0.0804
   49MOL0     C 6523   4.099   1.961   1.434  0.1412  0.8178  0.3472
   49MOL0     C 6524   4.113   1.816   1.486 -0.1844  0.2752  0.4082
   49MOL0    Cl 6525   3.939   1.760   1.477 -0.1921  0.5692 -0.4293
   49MOL0     C 6526   5.045   2.431   1.310  0.0177 -0.2459  0.0068
   49MOL0     C 6527   5.166   2.460   1.374  0.6764  0.0434 -0.7978
   49MOL0     O 6528   5.420   2.370   1.505  0.3894 -0.0322  0.2652
   49MOL0     C 6529   5.446   2.549   1.802  0.1840  0.2208  0.1116
   49MOL0     C 6530   5.544   2.576   1.900  0.5441  0.3356 -0.6595
   49MOL0     N 6531   6.015   2.412   2.489  0.1796  0.2523 -0.4780
   49MOL0     N 6532   6.072   2.322   2.549  0.5687  0.2171 -0.5927
   49MOL0     C 6533   7.192   1.721   2.416  1.3539 -0.5332 -0.5951
   49MOL0     C 6534   7.317   1.689   2.352 -0.2196 -0.0413 -0.6556
   49MOL0     C 6535   7.749   1.700   2.305 -0.1834 -0.3526 -1.4034
   49MOL0     C 6536   7.857   1.645   2.387  0.3633 -0.0521  0.3644
   49MOL0     C 6537   7.983   1.619   2.338  0.0503 -0.7456  0.1779
   49MOL0     C 6538   8.013   1.630   2.204  0.2003  0.0326 -0.1082
   49MOL0     O 6539   8.142   1.594   2.163 -0.0293  0.3531 -0.3561
   49MOL0     C 6540   8.180   1.657   2.036  0.0981 -0.0382  0.2298
   49MOL0     C 6541   8.324   1.633   2.025  0.1752 -0.1794 -0.2167
   49MOL0     C 6542   8.368   1.661   1.883 -0.9323  0.7499  0.3881
   49MOL0     C 6543   8.520   1.626   1.879  0.6946  0.0064  0.7149
   49MOL0     C 6544   8.593   1.691   1.764 -0.2122 -0.2428 -0.0714
   49MOL0     C 6545   8.625   1.749   1.663 -0.7171  0.3270 -0.3210
   49MOL0     C 6546   7.903   1.672   2.115 -0.5343  0.6732 -0.2813
   49MOL0     C 6547   7.781   1.714   2.165 -0.9153 -0.6833  0.1605
   49MOL0     H 6548   7.401   2.014   2.288 -1.7782  2.5546  1.9797
   49MOL0     H 6549   7.170   2.047   2.369  0.6063  0.5588  3.2685
   49MOL0     H 6550   6.886   1.801   2.396 -1.1718  1.0883 -1.6169
   49MOL0     H 6551   6.912   1.761   2.579 -0.9039 -1.7572 -2.3204
   49MOL0     H 6552   6.833   1.992   2.635 -1.2867  0.5097 -1.0598
   49MOL0     H 6553   6.810   2.021   2.457 -1.1228 -1.5302 -1.4445
   49MOL0     H 6554   6.629   1.859   2.452 -0.2067 -0.5131  0.5819
   49MOL0     H 6555   6.665   1.789   2.604 -3.0366 -0.5709 -0.1718
   49MOL0     H 6556   6.595   1.993   2.728  1.5826  0.6219 -0.8578
   49MOL0     H 6557   6.584   2.084   2.591 -1.9075  0.7794  1.1047
   49MOL0     H 6558   6.416   1.829   2.649 -1.6484  0.9544 -0.2901
   49MOL0     H 6559   6.361   1.993   2.696 -1.4392 -0.9091  0.9159
   49MOL0     H 6560   6.448   1.983   2.406  0.4616 -2.3282 -1.3410
   49MOL0     H 6561   6.336   1.854   2.439  1.2471 -0.5258  0.8817
   49MOL0     H 6562   6.226   2.064   2.356  2.3300 -4.9136 -0.9520
   49MOL0     H 6563   6.162   2.029   2.522 -0.7670  2.6706  1.2544
   49MOL0     H 6564   6.389   2.222   2.485  1.2318  0.2669  2.1582
   49MOL0     H 6565   6.282   2.196   2.629 -1.4629 -1.6852 -0.5619
   49MOL0     H 6566   6.255   2.355   2.287  1.7780  0.2551  1.9401
   49MOL0     H 6567   6.030   2.653   2.356 -2.2271 -0.5688 -0.1083
   49MOL0     H 6568   6.145   2.599   2.249 -0.0587 -2.3603 -1.5820
   49MOL0     H 6569   5.865   2.521   2.283 -0.3387  0.6750 -0.0678
   49MOL0     H 6570   5.951   2.459   2.144  1.3022  1.2684  1.3117
   49MOL0     H 6571   5.971   2.691   2.047  1.7052 -3.7518  1.2702
   49MOL0     H 6572   5.894   2.752   2.199  1.7425 -0.8615  0.4545
   49MOL0     H 6573   5.734   2.746   2.010 -4.3175 -0.8001  0.3795
   49MOL0     H 6574   5.678   2.635   2.132 -1.6775  0.0312 -0.0821
   49MOL0     H 6575   5.765   2.332   1.833 -0.4834 -0.8371  1.8973
   49MOL0     H 6576   5.702   2.184   1.672 -0.0272 -0.5247 -2.5964
   49MOL0     H 6577   5.530   2.155   1.666  2.8447 -2.2972  1.3402
   49MOL0     H 6578   5.614   2.250   1.549 -1.8213  1.1340 -0.5419
   49MOL0     H 6579   5.029   2.484   1.691  0.0105  2.0173 -0.2236
   49MOL0     H 6580   4.814   2.432   1.553 -0.3485 -0.3861 -1.6578
   49MOL0     H 6581   4.732   2.212   1.432  0.3772 -0.5797 -1.4237
   49MOL0     H 6582   4.658   2.379   1.440  4.0371  1.7633  1.5492
   49MOL0     H 6583   4.601   2.339   1.201  4.4881 -0.0339 -0.7993
   49MOL0     H 6584   4.657   2.171   1.205 -0.9374  0.5174 -1.0284
   49MOL0     H 6585   4.450   2.294   1.411  0.1657 -0.2861 -0.5211
   49MOL0     H 6586   4.481   2.120   1.387  0.3729 -0.4023  0.5399
   49MOL0     H 6587   4.317   2.298   1.214 -0.9220 -0.5863 -1.4224
   49MOL0     H 6588   4.374   2.133   1.167 -2.3867  0.6027 -2.4018
   49MOL0     H 6589   4.138   2.140   1.261  0.7175  1.5216 -0.6976
   49MOL0     H 6590   4.197   2.232   1.403  0.1607  0.4762 -0.3349
   49MOL0     H 6591   4.285   1.951   1.320 -0.3027 -2.7304  2.7800
   49MOL0     H 6592   4.291   2.019   1.492  3.4269 -1.2022 -1.5594
   49MOL0     H 6593   4.043   1.972   1.340  3.3634  1.7689 -1.6368
   49MOL0     H 6594   4.055   2.029   1.507 -2.8225  1.0472 -1.4528
   49MOL0     H 6595   4.143   1.817   1.591 -1.3625  2.7932  0.8026
   49MOL0     H 6596   4.195   1.765   1.435  0.1482 -0.0686  1.2762
   49MOL0     H 6597   5.054   2.417   1.203 -0.4245 -0.6481  0.0152
   49MOL0     H 6598   5.261   2.478   1.325  1.2228 -1.3854 -0.2961
   49MOL0     H 6599   5.367   2.622   1.789  1.1645  1.2296 -0.3744
   49MOL0     H 6600   5.537   2.671   1.952 -0.0721  0.3254 -0.7194
   49MOL0     H 6601   7.140   1.633   2.451  1.0288 -0.8761 -1.8790
   49MOL0     H 6602   7.349   1.586   2.354  0.8432  0.2420 -1.6648
   49MOL0     H 6603   7.842   1.605   2.487  1.5603 -2.4520 -0.3541
   49MOL0     H 6604   8.065   1.601   2.407  1.2985  3.1141 -0.0505
   49MOL0     H 6605   8.131   1.609   1.951  0.9749 -2.0588  0.8042
   49MOL0     H 6606   8.169   1.765   2.029  0.2466 -0.0242  0.2124
   49MOL0     H 6607   8.348   1.533   2.063 -3.9377 -0.1112  3.3454
   49MOL0     H 6608   8.366   1.699   2.101 -0.6267  0.4541 -0.3141
   49MOL0     H 6609   8.360   1.770   1.874  3.3311  1.1869 -0.0549
   49MOL0     H 6610   8.307   1.603   1.814  0.2127 -0.9681  0.7580
   49MOL0     H 6611   8.527   1.517   1.875 -1.1351 -0.1199 -0.9894
   49MOL0     H 6612   8.566   1.671   1.967  1.6266 -0.2300  0.3632
   49MOL0     H 6613   8.663   1.797   1.576 -1.2049 -1.6590 -1.6826
   49MOL0     H 6614   7.917   1.689   2.009 -1.1443 -1.6035 -0.7785
   49MOL0     H 6615   7.711   1.751   2.090  1.6068  0.3250 -1.8412
   50MOL0     O 6616   2.361  10.818   4.817  0.1851 -0.0395  0.9714
   50MOL0     C 6617   2.386  10.881   4.713  0.3500 -0.3296 -0.3391
   50MOL0     O 6618   2.290  10.945   4.635  0.5068 -1.0116 -0.9279
   50MOL0     C 6619   2.145  10.945   4.652  0.4105 -0.9043  0.2925
   50MOL0     C 6620   2.067  10.859   4.741 -0.4888  0.8602  1.1118
   50MOL0     C 6621   1.928  10.884   4.745 -0.4811  0.2659  0.6128
   50MOL0     C 6622   1.869  10.987   4.668  0.4877 -0.0561  0.1380
   50MOL0     O 6623   1.737  11.011   4.706 -0.1090  0.6634  0.0436
   50MOL0     C 6624   1.671  11.104   4.619  0.3017  0.0901  0.2723
   50MOL0     C 6625   1.525  11.096   4.655  0.5474 -0.1248  0.8817
   50MOL0     C 6626   1.466  10.963   4.623  0.4109 -0.1652 -0.3176
   50MOL0     C 6627   1.317  10.973   4.653  0.1074  0.6202 -0.4127
   50MOL0     C 6628   1.248  10.831   4.642 -0.7144 -0.8931  0.3291
   50MOL0     C 6629   1.100  10.852   4.681 -0.1680  0.4587  0.8420
   50MOL0     C 6630   1.015  10.722   4.695  0.1702 -0.3064 -0.1823
   50MOL0     C 6631   0.899  10.732   4.793  0.5595  0.2911  0.0293
   50MOL0     N 6632   0.841  10.598   4.795  0.0362 -0.5786 -0.2036
   50MOL0     C 6633   0.780  10.526   4.692  0.1138  0.3193  0.2187
   50MOL0     C 6634   0.767  10.401   4.747 -0.1208 -0.5172  0.3309
   50MOL0     C 6635   0.732  10.277   4.665 -0.1348 -0.4915 -0.4461
   50MOL0     C 6636   0.579  10.273   4.641 -0.6043  0.8082  0.1796
   50MOL0     C 6637   0.555  10.190   4.509  0.7128 -0.5396 -0.0524
   50MOL0     C 6638   0.403  10.177   4.489 -0.0873 -0.0491  0.3824
   50MOL0     O 6639   0.350  10.299   4.439 -0.2302 -0.4486 -0.1257
   50MOL0     C 6640   0.214  10.308   4.407  0.7250 -0.2479 -0.2954
   50MOL0     C 6641   0.174  10.429   4.350  0.1448 -0.1568 -0.3198
   50MOL0     C 6642   0.043  10.445   4.302  0.5556  0.7908  0.3973
   50MOL0     C 6643   0.017  10.578   4.248  0.1578  0.0462 -0.4262
   50MOL0     C 6644  -0.056  10.349   4.334  0.1814 -0.4182 -0.1325
   50MOL0     C 6645  -0.204  10.352   4.303 -0.7365 -0.4883  0.1960
   50MOL0     O 6646  -0.272  10.226   4.298  1.0438 -0.7068  0.1029
   50MOL0     C 6647  -0.396  10.234   4.247 -0.3666 -0.4351 -0.4829
   50MOL0     C 6648  -0.415  10.169   4.124  0.1516  0.7278 -0.5733
   50MOL0     C 6649  -0.546  10.155   4.082  0.8777  0.6020 -0.5534
   50MOL0     C 6650  -0.654  10.201   4.159  0.8709 -1.1556 -0.5005
   50MOL0     O 6651  -0.782  10.185   4.114 -0.0368 -0.3491 -0.4181
   50MOL0     C 6652  -0.854  10.071   4.167 -0.0523 -0.3495 -0.2313
   50MOL0     C 6653  -1.010  10.086   4.154  0.1143  0.3329  0.0792
   50MOL0     C 6654  -1.088   9.957   4.125 -0.1975  0.5167 -0.2127
   50MOL0     C 6655  -1.242   9.977   4.110 -0.1719 -0.1391  1.2006
   50MOL0     C 6656  -1.323   9.841   4.140  0.2795 -0.6609  0.8226
   50MOL0     C 6657  -1.465   9.863   4.097  0.2536  0.0657  0.2316
   50MOL0     C 6658  -1.551   9.730   4.111  1.0187  0.4660 -0.6925
   50MOL0     C 6659  -1.689   9.745   4.059  0.0748  0.3891 -0.1040
   50MOL0    Cl 6660  -1.764   9.586   4.053 -0.1516 -0.9138  0.1138
   50MOL0     C 6661  -0.629  10.270   4.275 -0.0282  0.4806 -0.5235
   50MOL0     C 6662  -0.498  10.294   4.319 -0.5556  1.1319 -0.3549
   50MOL0     O 6663  -0.256  10.462   4.265 -0.5220  0.6556 -0.1439
   50MOL0     C 6664  -0.015  10.223   4.397  0.8843 -0.0249 -0.0957
   50MOL0     C 6665   0.122  10.203   4.414  0.2395  1.0133 -0.3190
   50MOL0     N 6666   0.809  10.398   4.875  0.2771 -0.9708  0.9688
   50MOL0     N 6667   0.850  10.515   4.904 -0.0664 -0.2185 -0.1975
   50MOL0     C 6668   1.945  11.063   4.587 -0.4107  0.7741  0.6630
   50MOL0     C 6669   2.082  11.048   4.578 -0.0444  0.3441  0.3849
   50MOL0     C 6670   2.522  10.886   4.664 -0.6069  0.1521  0.9105
   50MOL0     C 6671   2.546  10.964   4.550 -0.3357 -0.1332 -0.0200
   50MOL0     C 6672   2.684  10.983   4.509  0.4975  0.2072  0.8743
   50MOL0     C 6673   2.788  10.921   4.580  0.4252  0.1241  0.6833
   50MOL0     O 6674   2.918  10.944   4.547 -0.5155 -1.1452  0.0101
   50MOL0     C 6675   2.962  11.047   4.451  0.4445 -0.1568 -0.6212
   50MOL0     C 6676   2.939  11.003   4.306 -0.3093  0.7126 -0.5878
   50MOL0     C 6677   3.032  11.070   4.203  0.1641  0.7880  0.6446
   50MOL0     C 6678   3.180  11.020   4.209 -0.6851 -0.9225 -0.1839
   50MOL0     C 6679   3.186  10.881   4.176 -0.9226  0.1055 -0.6774
   50MOL0     C 6680   3.183  10.762   4.152  0.3491 -0.1048  0.5080
   50MOL0     C 6681   2.760  10.836   4.687  0.2292 -0.0089  0.0992
   50MOL0     C 6682   2.631  10.824   4.731 -0.2755 -0.6454  0.2778
   50MOL0     H 6683   2.116  10.780   4.797 -1.0133  0.0757  0.4804
   50MOL0     H 6684   1.871  10.813   4.803 -0.0524 -0.5150  0.0917
   50MOL0     H 6685   1.706  11.207   4.633  1.9339 -0.5165  0.9815
   50MOL0     H 6686   1.685  11.071   4.516  0.1291 -1.5010  0.7345
   50MOL0     H 6687   1.502  11.122   4.758  1.8953  3.1254  0.4835
   50MOL0     H 6688   1.472  11.169   4.593  1.8359  1.4361  1.5440
   50MOL0     H 6689   1.469  10.945   4.515 -2.4009 -0.8042 -0.3541
   50MOL0     H 6690   1.513  10.882   4.680 -0.4644  1.0513  2.2717
   50MOL0     H 6691   1.300  11.018   4.751 -0.2849 -1.3275  0.4519
   50MOL0     H 6692   1.265  11.041   4.584  1.4794  1.8229 -0.3200
   50MOL0     H 6693   1.258  10.778   4.547 -0.7139 -1.3947  0.6066
   50MOL0     H 6694   1.293  10.769   4.720  2.3482 -0.9281 -1.3411
   50MOL0     H 6695   1.101  10.906   4.776  0.7217  1.2259  0.4080
   50MOL0     H 6696   1.057  10.905   4.596 -0.6285 -3.3220 -1.5483
   50MOL0     H 6697   0.979  10.696   4.595  0.3113 -0.4787 -0.1880
   50MOL0     H 6698   1.083  10.646   4.734 -0.6273 -1.1599 -0.4230
   50MOL0     H 6699   0.824  10.805   4.762 -1.6195 -2.2908 -1.2850
   50MOL0     H 6700   0.936  10.747   4.895  2.7832 -1.3359 -0.4523
   50MOL0     H 6701   0.751  10.543   4.589 -1.1250 -0.8993  0.3322
   50MOL0     H 6702   0.779  10.292   4.567  0.2364  0.2615 -0.1659
   50MOL0     H 6703   0.773  10.192   4.720 -0.9360 -0.8600 -0.4116
   50MOL0     H 6704   0.531  10.367   4.614 -1.3942  0.4528  0.2807
   50MOL0     H 6705   0.528  10.215   4.719  0.3666 -1.1419 -0.5778
   50MOL0     H 6706   0.604  10.093   4.523 -0.4960 -1.0168  0.9776
   50MOL0     H 6707   0.602  10.245   4.426  0.3911  0.6697  0.5471
   50MOL0     H 6708   0.344  10.138   4.572  1.0519  2.3281  2.4466
   50MOL0     H 6709   0.402  10.101   4.411 -0.5041  1.1544 -0.8160
   50MOL0     H 6710   0.255  10.501   4.345  2.2030 -2.1207  1.8866
   50MOL0     H 6711  -0.044  10.569   4.158  1.5478 -0.0324 -1.4055
   50MOL0     H 6712  -0.040  10.635   4.321 -0.5961 -0.0499 -0.9344
   50MOL0     H 6713   0.105  10.636   4.219 -1.7506  2.9102 -0.8693
   50MOL0     H 6714  -0.335  10.133   4.060 -0.8817  1.1342 -2.1779
   50MOL0     H 6715  -0.576  10.102   3.993 -1.9125 -1.2901  1.3486
   50MOL0     H 6716  -0.815   9.975   4.132  2.6585  0.5292  0.1941
   50MOL0     H 6717  -0.839  10.065   4.275  0.6430  1.0424 -0.2329
   50MOL0     H 6718  -1.049  10.125   4.249  0.8579  1.8277 -0.2056
   50MOL0     H 6719  -1.025  10.158   4.073 -2.3238  0.4986  0.5818
   50MOL0     H 6720  -1.078   9.885   4.207 -0.3854  3.2244  2.3505
   50MOL0     H 6721  -1.057   9.910   4.031  0.1695  0.9250 -0.2954
   50MOL0     H 6722  -1.279  10.058   4.173  0.8853  1.1302  0.2514
   50MOL0     H 6723  -1.258   9.997   4.004 -0.7177  2.5517  1.7362
   50MOL0     H 6724  -1.312   9.813   4.245  2.4770  0.2951  0.9175
   50MOL0     H 6725  -1.278   9.764   4.077  0.7633  1.6772 -1.9120
   50MOL0     H 6726  -1.515   9.940   4.156 -0.4801 -0.5269  0.4117
   50MOL0     H 6727  -1.474   9.893   3.992  0.6974  0.8889  0.4200
   50MOL0     H 6728  -1.569   9.696   4.213 -3.2525 -0.3179 -1.5012
   50MOL0     H 6729  -1.505   9.644   4.061 -0.6855 -1.5342  0.9685
   50MOL0     H 6730  -1.669   9.772   3.955  0.9172 -1.8230 -0.5906
   50MOL0     H 6731  -1.757   9.817   4.106 -2.5353 -1.2875 -1.0541
   50MOL0     H 6732  -0.710  10.297   4.342 -0.9673 -0.6637 -1.1614
   50MOL0     H 6733  -0.484  10.344   4.414 -0.1603  3.4018 -1.5395
   50MOL0     H 6734  -0.088  10.153   4.436  0.1930  0.8947  0.3073
   50MOL0     H 6735   0.152  10.103   4.444  1.1454  1.0554 -1.0295
   50MOL0     H 6736   1.904  11.138   4.520  2.2972  0.9013 -1.0047
   50MOL0     H 6737   2.144  11.113   4.516  1.2924  0.3532  1.6562
   50MOL0     H 6738   2.472  11.032   4.509  0.5851  0.6372 -0.4312
   50MOL0     H 6739   2.702  11.049   4.425  0.4580  1.1677  1.5984
   50MOL0     H 6740   2.912  11.140   4.479  0.1325 -1.0332  1.9732
   50MOL0     H 6741   3.069  11.062   4.465  1.0219 -3.7561 -0.0361
   50MOL0     H 6742   2.835  11.019   4.276 -0.9875 -2.3765 -0.1827
   50MOL0     H 6743   2.953  10.895   4.300  2.2884  1.0641 -3.0816
   50MOL0     H 6744   3.022  11.177   4.219  0.5575  1.0633 -0.7885
   50MOL0     H 6745   2.995  11.070   4.100  1.5731  1.3724  0.1140
   50MOL0     H 6746   3.218  11.023   4.311  0.7146 -1.8908 -0.6530
   50MOL0     H 6747   3.247  11.072   4.141 -0.1301 -1.4740 -0.0663
   50MOL0     H 6748   3.173  10.656   4.138 -0.2288 -0.0188  0.2779
   50MOL0     H 6749   2.840  10.790   4.745  0.7930  1.2132  0.3247
   50MOL0     H 6750   2.608  10.760   4.816  0.2209  1.5991  2.2025
   51MOL0     O 6751   8.472   1.785   7.702  0.1557 -0.7018  0.5621
   51MOL0     C 6752   8.378   1.723   7.746 -0.3624 -0.1450 -0.2280
   51MOL0     O 6753   8.381   1.652   7.867  0.3390 -0.4826 -0.0459
   51MOL0     C 6754   8.499   1.670   7.935  0.5995 -0.0725  0.0044
   51MOL0     C 6755   8.585   1.560   7.953  0.5208  0.4362  0.4866
   51MOL0     C 6756   8.711   1.578   8.017  0.2316  1.4266 -0.2178
   51MOL0     C 6757   8.759   1.704   8.049 -0.8034  1.4488 -1.0645
   51MOL0     O 6758   8.888   1.719   8.087 -0.1228 -0.3405 -0.7090
   51MOL0     C 6759   8.976   1.603   8.112  0.2055 -0.0958  0.2134
   51MOL0     C 6760   9.115   1.664   8.159  0.8120  1.1046 -0.1933
   51MOL0     C 6761   9.219   1.550   8.189  0.6374  0.5956 -0.4982
   51MOL0     C 6762   9.342   1.597   8.270 -0.1517 -0.1427  0.3266
   51MOL0     C 6763   9.410   1.707   8.186  0.5810  0.0430 -0.4101
   51MOL0     C 6764   9.558   1.716   8.211 -0.5064  0.7031 -0.2515
   51MOL0     C 6765   9.631   1.585   8.171  1.1225  0.0483 -0.5414
   51MOL0     C 6766   9.782   1.606   8.122  1.0090  0.7457 -0.9442
   51MOL0     N 6767   9.850   1.684   8.218  0.2383 -0.4220  0.7778
   51MOL0     C 6768   9.898   1.818   8.228  0.0622 -0.1701 -0.1072
   51MOL0     C 6769   9.975   1.819   8.333  0.5171 -0.4631 -0.4074
   51MOL0     C 6770  10.020   1.945   8.400 -0.0529  0.2259  0.4539
   51MOL0     C 6771  10.111   2.023   8.303 -0.1862 -0.0574 -1.0005
   51MOL0     C 6772  10.140   2.160   8.361  0.6183 -0.0102  0.1980
   51MOL0     C 6773  10.195   2.262   8.254 -0.8883 -1.0434  0.0991
   51MOL0     O 6774  10.280   2.195   8.167 -0.3205 -0.4080 -0.3779
   51MOL0     C 6775  10.412   2.173   8.192  0.4554  0.6610  0.4877
   51MOL0     C 6776  10.483   2.119   8.087 -0.3360 -0.3083 -0.2245
   51MOL0     C 6777  10.630   2.089   8.087  1.1086 -0.3189  0.3198
   51MOL0     C 6778  10.691   2.018   7.967 -0.1339 -0.8339 -0.2935
   51MOL0     C 6779  10.696   2.132   8.201  0.6761  0.6371  0.0976
   51MOL0     C 6780  10.848   2.111   8.226 -0.1953 -0.8673 -0.1593
   51MOL0     O 6781  10.899   2.107   8.354  0.0264 -0.0656 -0.4061
   51MOL0     C 6782  11.038   2.119   8.367  0.4848 -0.4189  0.1604
   51MOL0     C 6783  11.119   2.022   8.311  0.1912  0.8485  0.4006
   51MOL0     C 6784  11.256   2.033   8.324  0.3762  0.7086 -0.5483
   51MOL0     C 6785  11.311   2.133   8.394  0.5868  0.1940 -0.1284
   51MOL0     O 6786  11.444   2.163   8.398  0.1900 -1.2530 -0.2495
   51MOL0     C 6787  11.524   2.105   8.298  0.2512 -0.6454  0.6219
   51MOL0     C 6788  11.669   2.134   8.316  0.0345 -0.1230 -0.4266
   51MOL0     C 6789  11.745   2.079   8.194 -0.0390 -1.1705  0.0716
   51MOL0     C 6790  11.892   2.137   8.194 -0.4177  1.0728 -0.3982
   51MOL0     C 6791  11.963   2.124   8.050  0.2931  0.6329 -0.3894
   51MOL0     C 6792  12.016   1.982   8.032 -0.6027  0.2659 -0.9743
   51MOL0     C 6793  12.084   1.963   7.893  0.0967  0.0498 -0.0009
   51MOL0     C 6794  12.164   1.835   7.902 -0.5826  0.1127  0.7313
   51MOL0    Cl 6795  12.242   1.825   7.749  0.3876 -0.3932  0.2753
   51MOL0     C 6796  11.224   2.225   8.461 -0.2646 -0.2605  0.1083
   51MOL0     C 6797  11.088   2.221   8.441  0.6467  0.3066 -0.7495
   51MOL0     O 6798  10.919   2.115   8.129 -0.5933 -0.0730  0.1026
   51MOL0     C 6799  10.626   2.191   8.306  0.3416  0.3124 -0.0144
   51MOL0     C 6800  10.490   2.217   8.300  1.1705 -0.2065 -0.2813
   51MOL0     N 6801   9.985   1.696   8.389  0.2528 -0.2755 -0.5439
   51MOL0     N 6802   9.906   1.618   8.322 -0.0663  0.3890 -0.5152
   51MOL0     C 6803   8.676   1.803   8.034  0.5686 -0.7521  0.6311
   51MOL0     C 6804   8.541   1.793   7.979 -0.0884 -0.4810 -0.7214
   51MOL0     C 6805   8.251   1.724   7.674 -0.4972  0.3788 -0.0910
   51MOL0     C 6806   8.136   1.673   7.732  0.2209 -0.4822  1.0154
   51MOL0     C 6807   8.018   1.698   7.665  0.2709  0.7125 -0.1699
   51MOL0     C 6808   8.010   1.768   7.544 -0.6731  0.0324  0.5505
   51MOL0     O 6809   7.892   1.793   7.483 -0.5034  0.1215 -0.0243
   51MOL0     C 6810   7.808   1.892   7.553  0.1020 -0.7429 -0.8019
   51MOL0     C 6811   7.666   1.902   7.497  0.4446 -0.2507  0.0744
   51MOL0     C 6812   7.590   1.984   7.595  0.0097  0.3687 -0.0771
   51MOL0     C 6813   7.442   1.996   7.566 -0.0095  0.2164 -0.2652
   51MOL0     C 6814   7.381   1.870   7.616 -0.2269 -1.0477  0.1115
   51MOL0     C 6815   7.350   1.763   7.658  0.8125 -0.0201 -0.9414
   51MOL0     C 6816   8.125   1.808   7.476 -0.2239 -0.1514  0.3337
   51MOL0     C 6817   8.247   1.789   7.544  0.6947  0.6774 -0.1717
   51MOL0     H 6818   8.553   1.465   7.913  2.3761 -0.4189  0.9108
   51MOL0     H 6819   8.759   1.481   8.025  0.2761  1.5404  0.9928
   51MOL0     H 6820   8.932   1.537   8.187  2.5279 -2.1703 -0.1192
   51MOL0     H 6821   8.986   1.558   8.013  2.1066 -1.9339  1.1634
   51MOL0     H 6822   9.162   1.723   8.080  2.5895 -1.8285 -1.5048
   51MOL0     H 6823   9.091   1.732   8.242  0.5249  2.9557 -1.7397
   51MOL0     H 6824   9.164   1.466   8.232  1.3705 -0.4774 -1.5621
   51MOL0     H 6825   9.263   1.508   8.098  2.5521 -0.1927  0.7137
   51MOL0     H 6826   9.311   1.633   8.369 -0.6985  0.5168 -0.0668
   51MOL0     H 6827   9.408   1.515   8.298  0.2974  0.5075  1.2281
   51MOL0     H 6828   9.397   1.698   8.078 -0.6831 -0.8332 -0.2046
   51MOL0     H 6829   9.365   1.806   8.202  3.0268  1.2064 -0.2403
   51MOL0     H 6830   9.604   1.796   8.152 -0.1353 -0.5243 -1.6838
   51MOL0     H 6831   9.568   1.746   8.315  0.4644 -0.7475  0.0932
   51MOL0     H 6832   9.628   1.521   8.260 -3.1129  1.5508  0.6251
   51MOL0     H 6833   9.580   1.532   8.090 -0.3066  0.0775  0.3116
   51MOL0     H 6834   9.783   1.659   8.026  0.5112  0.7109 -0.9734
   51MOL0     H 6835   9.823   1.508   8.100 -1.9231 -0.6685 -0.6237
   51MOL0     H 6836   9.867   1.901   8.164 -2.0265  0.1588  1.2452
   51MOL0     H 6837   9.935   2.005   8.432 -0.8817 -1.2166  1.0462
   51MOL0     H 6838  10.086   1.927   8.485  0.3308  0.9314  0.3174
   51MOL0     H 6839  10.066   2.035   8.203  0.5321 -0.5078 -1.3873
   51MOL0     H 6840  10.200   1.960   8.294  0.2524 -0.4658  3.7056
   51MOL0     H 6841  10.212   2.154   8.444  0.2132 -0.3928  0.5198
   51MOL0     H 6842  10.052   2.203   8.409  2.3735  2.4682  1.4606
   51MOL0     H 6843  10.242   2.341   8.313  0.8997 -1.1724 -1.0891
   51MOL0     H 6844  10.110   2.309   8.204 -2.3342 -1.8895  1.6239
   51MOL0     H 6845  10.425   2.089   8.000 -0.1416 -0.5049 -0.2882
   51MOL0     H 6846  10.763   2.086   7.920 -0.2955 -1.3960 -1.3805
   51MOL0     H 6847  10.734   1.927   8.010 -1.8114 -1.5241  0.0113
   51MOL0     H 6848  10.615   1.993   7.893  0.0612  0.8010 -1.0940
   51MOL0     H 6849  11.079   1.944   8.246 -0.9009  2.5100 -1.0239
   51MOL0     H 6850  11.327   1.967   8.275  0.9292  0.7106  0.2254
   51MOL0     H 6851  11.519   1.997   8.315  3.2606 -0.6616  2.0756
   51MOL0     H 6852  11.487   2.127   8.197 -1.3027  1.5975  1.6236
   51MOL0     H 6853  11.683   2.242   8.328 -1.7533  0.2113 -1.0819
   51MOL0     H 6854  11.705   2.079   8.404 -2.2909  0.3084  0.8703
   51MOL0     H 6855  11.701   2.112   8.099  2.2978 -0.7165 -0.9457
   51MOL0     H 6856  11.743   1.970   8.195 -3.4366 -1.2114 -0.3690
   51MOL0     H 6857  11.898   2.243   8.221 -0.3006  0.8581  0.4441
   51MOL0     H 6858  11.960   2.088   8.264 -2.2435  1.5840  1.8772
   51MOL0     H 6859  12.050   2.189   8.037 -0.9159  2.3606 -0.0925
   51MOL0     H 6860  11.893   2.149   7.971 -1.2038  1.1160  1.0317
   51MOL0     H 6861  12.094   1.969   8.108  0.7090  1.9778 -1.9331
   51MOL0     H 6862  11.944   1.902   8.046  1.5655 -1.5597  0.4477
   51MOL0     H 6863  12.143   2.048   7.860 -0.2816  0.4948  0.4452
   51MOL0     H 6864  12.005   1.947   7.818  2.3593  2.0595 -3.0321
   51MOL0     H 6865  12.106   1.743   7.914 -1.5524  0.3491 -1.5570
   51MOL0     H 6866  12.235   1.828   7.985  0.6944  1.5796 -0.1888
   51MOL0     H 6867  11.259   2.304   8.527  0.0994 -0.9339  0.7383
   51MOL0     H 6868  11.022   2.301   8.471  0.0579  1.7744 -5.1951
   51MOL0     H 6869  10.676   2.223   8.397 -1.9403 -2.5682  2.4827
   51MOL0     H 6870  10.444   2.256   8.390  0.6928 -0.6150 -0.3432
   51MOL0     H 6871   8.706   1.906   8.051  3.0992 -1.2748 -0.2069
   51MOL0     H 6872   8.477   1.879   7.963  1.4423  1.3573  2.0928
   51MOL0     H 6873   8.127   1.633   7.832 -1.3125 -0.9567  0.7151
   51MOL0     H 6874   7.919   1.668   7.699 -1.1137  0.2042 -4.1203
   51MOL0     H 6875   7.798   1.841   7.649  0.2587  0.3853 -0.1736
   51MOL0     H 6876   7.852   1.987   7.584 -2.2658  0.1903 -0.1494
   51MOL0     H 6877   7.618   1.804   7.491  1.0469 -0.8103  3.0805
   51MOL0     H 6878   7.662   1.951   7.399 -3.0207  2.1257  1.2392
   51MOL0     H 6879   7.629   2.085   7.610 -0.0108  0.5804 -1.3722
   51MOL0     H 6880   7.604   1.947   7.697  0.0826  4.6791  1.6884
   51MOL0     H 6881   7.418   2.003   7.460 -0.7666  1.0572 -0.0504
   51MOL0     H 6882   7.408   2.077   7.631  1.2211 -0.1022  0.8431
   51MOL0     H 6883   7.323   1.662   7.684 -1.1529  0.1759 -2.0070
   51MOL0     H 6884   8.132   1.843   7.373  1.2669 -0.1905  0.4015
   51MOL0     H 6885   8.333   1.833   7.494 -0.2149  0.2342 -2.2314
   52MOL0     O 6886   4.254   1.937   2.179 -0.1694 -0.6127 -0.5112
   52MOL0     C 6887   4.267   1.959   2.299 -0.2794  0.5362 -1.0315
   52MOL0     O 6888   4.165   1.971   2.395 -0.7329 -0.5971 -0.3217
   52MOL0     C 6889   4.047   1.911   2.370 -0.7427  0.0117 -0.9522
   52MOL0     C 6890   3.954   1.974   2.293 -0.0413 -0.5264 -0.6481
   52MOL0     C 6891   3.830   1.917   2.253 -0.5241  1.0527 -0.4574
   52MOL0     C 6892   3.797   1.788   2.310  0.7219 -0.4775 -0.0197
   52MOL0     O 6893   3.670   1.734   2.281 -0.3699  0.1486  0.2164
   52MOL0     C 6894   3.559   1.821   2.273  0.5209  1.1584 -0.1729
   52MOL0     C 6895   3.437   1.731   2.302 -0.8604  0.1114 -0.1000
   52MOL0     C 6896   3.402   1.615   2.206  0.5380 -0.2686  0.1288
   52MOL0     C 6897   3.292   1.535   2.258 -0.0212 -0.3799 -0.7737
   52MOL0     C 6898   3.158   1.612   2.255 -0.1393  0.0286 -0.8360
   52MOL0     C 6899   3.039   1.538   2.311 -0.0305 -0.2302  0.1394
   52MOL0     C 6900   2.999   1.559   2.461 -0.4020 -0.3127  0.3609
   52MOL0     C 6901   3.114   1.530   2.561  0.0068 -0.0107  1.0538
   52MOL0     N 6902   3.219   1.640   2.583  0.7949 -1.0575 -0.3683
   52MOL0     C 6903   3.349   1.619   2.632  0.1952  0.7481 -0.4087
   52MOL0     C 6904   3.389   1.742   2.657 -0.3066 -0.1917  0.2934
   52MOL0     C 6905   3.523   1.782   2.716 -0.5144 -0.0529  0.0515
   52MOL0     C 6906   3.643   1.727   2.644  0.5949 -0.4303  0.1620
   52MOL0     C 6907   3.763   1.806   2.700 -0.1735 -0.0008 -0.4365
   52MOL0     C 6908   3.772   1.955   2.653  0.2964  0.5998  0.7952
   52MOL0     O 6909   3.752   2.047   2.767  0.5086 -0.1829  1.3793
   52MOL0     C 6910   3.850   2.078   2.854  0.6935  0.0755 -0.2675
   52MOL0     C 6911   3.813   2.148   2.966  0.0864 -0.5005 -0.1067
   52MOL0     C 6912   3.909   2.172   3.068 -0.1541 -0.7826  0.7342
   52MOL0     C 6913   3.862   2.250   3.185  0.7962 -0.2495  0.0870
   52MOL0     C 6914   4.042   2.127   3.051  0.2897  1.6600 -0.7338
   52MOL0     C 6915   4.162   2.147   3.148 -0.5858  0.1197 -0.1531
   52MOL0     O 6916   4.132   2.233   3.259 -0.6465  0.2783  0.4458
   52MOL0     C 6917   4.223   2.278   3.346 -0.2107  1.1039 -0.2004
   52MOL0     C 6918   4.358   2.225   3.368 -0.7812 -0.9224 -0.0190
   52MOL0     C 6919   4.431   2.276   3.473 -0.0851 -0.9426  0.1050
   52MOL0     C 6920   4.379   2.385   3.552 -0.4497 -0.6132 -0.0542
   52MOL0     O 6921   4.456   2.455   3.640 -0.0056  0.3029  0.3792
   52MOL0     C 6922   4.582   2.400   3.682 -0.7540 -0.2941 -0.2634
   52MOL0     C 6923   4.640   2.475   3.801 -0.1117 -0.6696 -0.0095
   52MOL0     C 6924   4.577   2.459   3.944  0.4131 -0.1458 -0.0584
   52MOL0     C 6925   4.422   2.479   3.932  0.1765 -0.3480  0.3979
   52MOL0     C 6926   4.346   2.476   4.067 -0.3855  0.7992 -0.8596
   52MOL0     C 6927   4.201   2.510   4.039 -0.2805  0.1554 -0.6941
   52MOL0     C 6928   4.134   2.421   3.929 -0.1029  0.6642  0.1919
   52MOL0     C 6929   3.982   2.444   3.924 -0.2315  0.1247  0.1606
   52MOL0    Cl 6930   3.903   2.338   4.043  0.5013 -0.1270  0.0367
   52MOL0     C 6931   4.256   2.440   3.525  0.3702  0.3169  0.0827
   52MOL0     C 6932   4.170   2.379   3.429 -0.0721 -0.0773  1.2398
   52MOL0     O 6933   4.275   2.097   3.125  0.2620  0.4847  0.4984
   52MOL0     C 6934   4.066   2.049   2.931 -0.0112 -0.3139 -0.3555
   52MOL0     C 6935   3.976   2.030   2.835  0.2488  0.9872  0.0815
   52MOL0     N 6936   3.291   1.829   2.624 -0.1188  0.0564 -0.1909
   52MOL0     N 6937   3.194   1.766   2.578  0.4049 -0.3412  1.5681
   52MOL0     C 6938   3.889   1.727   2.388 -0.7198  0.1436  0.3380
   52MOL0     C 6939   4.009   1.783   2.423  0.8884 -0.4119  0.2039
   52MOL0     C 6940   4.411   1.968   2.335 -0.5554  0.3028 -0.5118
   52MOL0     C 6941   4.517   1.930   2.247  0.0387  0.2575  0.4497
   52MOL0     C 6942   4.654   1.938   2.280  0.2975  0.2762 -0.4461
   52MOL0     C 6943   4.696   1.973   2.406  0.6024  0.1000 -1.0831
   52MOL0     O 6944   4.832   1.982   2.433  0.1710  0.6057  0.4137
   52MOL0     C 6945   4.901   2.088   2.362 -0.4667 -0.4014 -0.9789
   52MOL0     C 6946   4.827   2.221   2.386 -0.2240  0.2571 -0.2612
   52MOL0     C 6947   4.830   2.270   2.538  0.6778  0.4237  0.4652
   52MOL0     C 6948   4.967   2.283   2.603 -0.3732 -0.0202  0.3922
   52MOL0     C 6949   5.069   2.364   2.537  0.1897  0.2987 -0.1531
   52MOL0     C 6950   5.148   2.435   2.476  0.0759 -0.4093  0.4384
   52MOL0     C 6951   4.593   1.984   2.508 -0.7685  0.4317 -0.7090
   52MOL0     C 6952   4.458   1.988   2.468 -0.9109  0.8869 -1.0472
   52MOL0     H 6953   3.968   2.077   2.264 -0.7335 -0.0930  0.5033
   52MOL0     H 6954   3.775   1.987   2.191  0.7049  1.7620 -0.7890
   52MOL0     H 6955   3.559   1.898   2.350  0.6329 -1.5587  2.7293
   52MOL0     H 6956   3.556   1.855   2.169 -0.6361 -3.8786 -2.0791
   52MOL0     H 6957   3.456   1.690   2.402  2.5209  0.3864 -0.4944
   52MOL0     H 6958   3.346   1.791   2.305 -1.9458 -1.4969 -0.0560
   52MOL0     H 6959   3.383   1.638   2.101 -3.4304  0.9097  0.9284
   52MOL0     H 6960   3.492   1.553   2.211  0.7324  0.0689  0.9997
   52MOL0     H 6961   3.296   1.445   2.196  2.3278 -0.9150  0.0291
   52MOL0     H 6962   3.305   1.509   2.364 -0.8720  0.2711 -0.4991
   52MOL0     H 6963   3.159   1.712   2.299 -1.6226  0.9223 -2.6613
   52MOL0     H 6964   3.147   1.636   2.149  0.8643  1.6550 -0.6028
   52MOL0     H 6965   2.944   1.573   2.270 -0.7240 -0.6371  1.3757
   52MOL0     H 6966   3.056   1.436   2.277 -1.6138 -0.2018 -0.8376
   52MOL0     H 6967   2.968   1.663   2.474 -2.3781 -0.5889 -1.6231
   52MOL0     H 6968   2.913   1.495   2.482 -1.1229  0.9973  1.5724
   52MOL0     H 6969   3.159   1.436   2.530  0.5779 -0.0645  2.0081
   52MOL0     H 6970   3.070   1.513   2.660 -1.7514  2.0124  0.6976
   52MOL0     H 6971   3.406   1.529   2.652  0.3374  0.4592 -1.9797
   52MOL0     H 6972   3.523   1.891   2.725 -3.5519  0.0264  0.1375
   52MOL0     H 6973   3.533   1.745   2.818  0.6501 -0.5956 -0.2475
   52MOL0     H 6974   3.627   1.753   2.539 -4.3705  2.2600  1.2913
   52MOL0     H 6975   3.655   1.618   2.653  0.1321 -0.4160  1.0057
   52MOL0     H 6976   3.848   1.749   2.662 -2.3685 -4.0602  0.1900
   52MOL0     H 6977   3.768   1.793   2.808 -1.6558  1.7479 -0.0997
   52MOL0     H 6978   3.698   1.974   2.575  0.3828  0.3546  0.6506
   52MOL0     H 6979   3.871   1.954   2.606  0.4847 -0.1416  1.1786
   52MOL0     H 6980   3.710   2.168   2.993  0.1471  0.4607 -0.5486
   52MOL0     H 6981   3.922   2.339   3.209  0.0563 -0.0308  1.1945
   52MOL0     H 6982   3.762   2.289   3.162  1.3710  1.4300  0.2639
   52MOL0     H 6983   3.845   2.189   3.274 -3.1648 -1.2614 -1.1875
   52MOL0     H 6984   4.408   2.144   3.317 -0.1642 -0.0409 -0.8416
   52MOL0     H 6985   4.530   2.235   3.492 -1.2545 -3.0269  2.1248
   52MOL0     H 6986   4.568   2.294   3.707 -2.8282 -0.6954 -2.6455
   52MOL0     H 6987   4.656   2.402   3.601 -1.4083  1.5750 -0.8755
   52MOL0     H 6988   4.746   2.451   3.816 -0.6307 -4.0601 -0.9125
   52MOL0     H 6989   4.653   2.580   3.771  1.2406 -0.9104 -0.3493
   52MOL0     H 6990   4.616   2.516   4.029 -2.9500  1.3958  0.6147
   52MOL0     H 6991   4.580   2.354   3.977 -2.7836 -0.0590  0.8384
   52MOL0     H 6992   4.404   2.571   3.875 -0.8847 -0.0511  1.1796
   52MOL0     H 6993   4.391   2.399   3.864  1.4666 -0.7867  0.2829
   52MOL0     H 6994   4.396   2.556   4.122 -0.3925  1.0535 -1.2251
   52MOL0     H 6995   4.375   2.384   4.119  2.3900  2.8235  1.4959
   52MOL0     H 6996   4.150   2.496   4.135  2.7207  0.2213  1.0369
   52MOL0     H 6997   4.191   2.612   4.003  2.2553 -0.0662 -2.2617
   52MOL0     H 6998   4.155   2.315   3.947  0.0517 -0.0730 -3.5550
   52MOL0     H 6999   4.176   2.455   3.835 -0.2665 -0.4273 -0.2935
   52MOL0     H 7000   3.947   2.423   3.822 -0.1371 -0.0003  0.1538
   52MOL0     H 7001   3.949   2.547   3.942  1.5231  0.4957  1.4798
   52MOL0     H 7002   4.223   2.527   3.579 -2.1651  0.2570 -1.2137
   52MOL0     H 7003   4.064   2.401   3.418 -1.0035 -4.3080  0.1649
   52MOL0     H 7004   4.168   2.011   2.926 -0.3022 -1.1495 -0.2375
   52MOL0     H 7005   4.001   1.964   2.752  0.8341  0.3544  0.7449
   52MOL0     H 7006   3.871   1.636   2.443  0.2545  1.3525  2.8193
   52MOL0     H 7007   4.077   1.720   2.479  0.6409  0.3893  1.4660
   52MOL0     H 7008   4.487   1.890   2.151 -1.8406 -0.1218  1.1374
   52MOL0     H 7009   4.734   1.915   2.210  1.5089  0.5085  0.8090
   52MOL0     H 7010   5.001   2.094   2.405 -0.6046  0.1794 -0.7292
   52MOL0     H 7011   4.904   2.076   2.254 -1.0960  3.6767 -1.6232
   52MOL0     H 7012   4.722   2.220   2.353 -0.3660  0.0437  0.1843
   52MOL0     H 7013   4.894   2.292   2.337  1.9473 -2.1403 -0.9676
   52MOL0     H 7014   4.764   2.206   2.597 -2.4985  0.2935 -2.8690
   52MOL0     H 7015   4.780   2.368   2.542  0.4071  0.2708  0.9678
   52MOL0     H 7016   5.013   2.186   2.619  1.2731  0.0899 -2.8066
   52MOL0     H 7017   4.952   2.333   2.700 -0.7069 -0.3488  0.5121
   52MOL0     H 7018   5.218   2.503   2.434  0.4177 -0.1891  1.3498
   52MOL0     H 7019   4.618   1.988   2.614 -0.7874 -2.0527 -0.5665
   52MOL0     H 7020   4.394   2.015   2.551  0.0273  1.8336 -0.6077
   53MOL0     O 7021   7.801  10.920   3.763  0.3768  0.0488  0.3075
   53MOL0     C 7022   7.794  10.871   3.647  0.4843 -1.0220  0.1767
   53MOL0     O 7023   7.683  10.820   3.590 -0.1931  0.0358  0.0874
   53MOL0     C 7024   7.553  10.870   3.622 -0.0726 -0.1690 -0.7230
   53MOL0     C 7025   7.445  10.798   3.577  0.0196  0.5809  0.3243
   53MOL0     C 7026   7.309  10.837   3.601  0.0415  0.2372  0.2056
   53MOL0     C 7027   7.284  10.950   3.673 -0.2420 -0.2968 -0.4235
   53MOL0     O 7028   7.145  10.981   3.665  0.1467 -0.2650  0.3357
   53MOL0     C 7029   7.091  11.081   3.746  0.4304 -0.0438 -0.8526
   53MOL0     C 7030   6.940  11.087   3.715 -0.0801 -0.3852  0.9607
   53MOL0     C 7031   6.867  10.955   3.743 -0.0218 -0.3912 -1.3308
   53MOL0     C 7032   6.719  10.983   3.787 -1.2295  0.6338 -0.0317
   53MOL0     C 7033   6.640  10.858   3.767  0.9254 -1.0129  0.1650
   53MOL0     C 7034   6.590  10.860   3.619  0.5679 -0.2692  0.2157
   53MOL0     C 7035   6.550  10.715   3.580  1.0346 -0.3174  0.0868
   53MOL0     C 7036   6.448  10.695   3.460 -0.2873 -0.0597 -0.6643
   53MOL0     N 7037   6.329  10.775   3.476  0.4284 -0.2206 -0.7299
   53MOL0     C 7038   6.254  10.861   3.396  0.8987 -0.1421 -0.7355
   53MOL0     C 7039   6.144  10.906   3.469 -0.9724 -0.3052 -0.2251
   53MOL0     C 7040   6.037  11.010   3.425 -0.0697  0.2947  0.0229
   53MOL0     C 7041   5.903  10.977   3.486 -0.3554  0.0044 -0.4581
   53MOL0     C 7042   5.800  11.082   3.436  0.7401  0.1644 -0.6382
   53MOL0     C 7043   5.672  11.072   3.524 -0.1155 -0.2479 -0.6004
   53MOL0     O 7044   5.569  11.164   3.485 -0.0276  0.8797 -0.6577
   53MOL0     C 7045   5.437  11.137   3.494  0.1577 -0.5064  0.4472
   53MOL0     C 7046   5.353  11.246   3.466 -0.1865  0.8696  0.5094
   53MOL0     C 7047   5.216  11.241   3.465  0.1781  0.4512  0.4682
   53MOL0     C 7048   5.135  11.358   3.425 -0.0131  0.2396  0.1040
   53MOL0     C 7049   5.155  11.118   3.508 -0.5991  0.1146 -0.6499
   53MOL0     C 7050   5.011  11.094   3.522 -0.4384  0.7391  0.2924
   53MOL0     O 7051   4.982  10.960   3.537  0.4128 -0.6170  0.3575
   53MOL0     C 7052   4.854  10.916   3.509  0.0164 -0.2992  0.0480
   53MOL0     C 7053   4.753  10.908   3.605 -0.3938 -0.2613  0.7553
   53MOL0     C 7054   4.621  10.871   3.570  0.3750  0.1678  0.0056
   53MOL0     C 7055   4.589  10.837   3.434 -0.3528 -0.0884 -0.0834
   53MOL0     O 7056   4.467  10.785   3.390 -0.3889 -0.5784  0.4362
   53MOL0     C 7057   4.362  10.762   3.489 -0.0625  0.3045  0.3603
   53MOL0     C 7058   4.258  10.678   3.427 -0.0620 -0.6011  0.3228
   53MOL0     C 7059   4.131  10.669   3.521 -0.0696 -0.5548 -0.2248
   53MOL0     C 7060   4.004  10.614   3.446  0.2042 -0.2998  0.1751
   53MOL0     C 7061   3.873  10.669   3.506 -0.3824 -0.1429 -0.0466
   53MOL0     C 7062   3.753  10.619   3.426 -0.1878  0.1430  0.4288
   53MOL0     C 7063   3.626  10.641   3.495 -0.3710 -0.2659 -0.4205
   53MOL0     C 7064   3.506  10.647   3.401 -0.3944 -0.0235 -0.7407
   53MOL0    Cl 7065   3.365  10.602   3.503 -0.5927 -0.3320  0.0623
   53MOL0     C 7066   4.704  10.837   3.344  0.5203 -0.1408  0.4654
   53MOL0     C 7067   4.832  10.882   3.374  0.0393  0.8560 -0.1052
   53MOL0     O 7068   4.926  11.187   3.512  0.2754 -0.4051 -0.4477
   53MOL0     C 7069   5.245  11.007   3.549 -0.6926  0.1280  0.8752
   53MOL0     C 7070   5.378  11.028   3.541  0.0787  0.4063  0.1962
   53MOL0     N 7071   6.152  10.835   3.591 -1.2417 -1.2820  0.4515
   53MOL0     N 7072   6.255  10.759   3.597  0.4896 -0.6042 -0.3412
   53MOL0     C 7073   7.393  11.045   3.707 -0.4350 -0.2729 -0.2121
   53MOL0     C 7074   7.523  10.998   3.679  0.0471 -0.4545 -0.7439
   53MOL0     C 7075   7.921  10.874   3.570 -0.1884  0.3385  1.0225
   53MOL0     C 7076   8.036  10.945   3.623  0.7087 -0.3749  0.8875
   53MOL0     C 7077   8.154  10.957   3.552 -0.1264 -0.0727 -0.8993
   53MOL0     C 7078   8.172  10.890   3.426  0.6249  0.2097 -0.2208
   53MOL0     O 7079   8.280  10.901   3.346  0.0382  0.9762  0.0267
   53MOL0     C 7080   8.390  10.979   3.383 -0.8031 -0.5580 -0.7055
   53MOL0     C 7081   8.523  10.951   3.299 -0.0830  0.3474 -0.3617
   53MOL0     C 7082   8.519  11.009   3.153  0.2816  0.9635 -0.4696
   53MOL0     C 7083   8.584  11.144   3.157  0.2955 -0.1544 -0.5126
   53MOL0     C 7084   8.586  11.209   3.032  0.0285  0.0854 -0.5294
   53MOL0     C 7085   8.558  11.281   2.939 -0.5758  0.1364 -0.0918
   53MOL0     C 7086   8.065  10.808   3.387  0.4786 -0.3828  0.4116
   53MOL0     C 7087   7.940  10.797   3.447  0.1283  0.4690  0.0524
   53MOL0     H 7088   7.458  10.709   3.516  1.6479  0.8538  0.2483
   53MOL0     H 7089   7.226  10.778   3.563 -1.6142 -0.8704  4.8931
   53MOL0     H 7090   7.115  11.062   3.851  2.1450  0.1015 -1.1765
   53MOL0     H 7091   7.145  11.176   3.739 -0.2745  0.8310  3.1460
   53MOL0     H 7092   6.894  11.164   3.778 -0.3404 -0.4482  0.8511
   53MOL0     H 7093   6.922  11.114   3.610  0.1401  1.5925  1.4002
   53MOL0     H 7094   6.874  10.886   3.659 -1.1284 -1.5407 -0.5044
   53MOL0     H 7095   6.922  10.915   3.828 -0.0981  2.2823  0.1136
   53MOL0     H 7096   6.711  11.010   3.893 -1.2472 -1.7811  0.6474
   53MOL0     H 7097   6.685  11.066   3.725  1.2560 -0.1306 -2.6763
   53MOL0     H 7098   6.689  10.762   3.785  0.7895 -1.2612 -0.7148
   53MOL0     H 7099   6.552  10.866   3.831  0.9809 -1.6710  0.3348
   53MOL0     H 7100   6.506  10.929   3.613  0.8036  0.0794  0.8665
   53MOL0     H 7101   6.672  10.889   3.552 -0.7861  1.0148 -0.9586
   53MOL0     H 7102   6.639  10.654   3.560  0.8093 -0.4761 -0.4481
   53MOL0     H 7103   6.503  10.666   3.666  0.1673 -3.1572 -1.8681
   53MOL0     H 7104   6.418  10.591   3.444  0.6020 -0.3815 -0.2915
   53MOL0     H 7105   6.502  10.718   3.368  4.3274 -1.8965  1.2884
   53MOL0     H 7106   6.277  10.891   3.294 -0.8001  0.8842 -0.8536
   53MOL0     H 7107   6.073  11.101   3.474 -1.0224 -0.0966  1.5240
   53MOL0     H 7108   6.030  11.005   3.316  0.7113 -1.1390  0.0175
   53MOL0     H 7109   5.913  10.972   3.595 -0.1775 -2.1384 -0.5342
   53MOL0     H 7110   5.865  10.879   3.458 -3.9003  1.0613  0.1653
   53MOL0     H 7111   5.777  11.046   3.336  0.0585  2.3541 -1.3256
   53MOL0     H 7112   5.844  11.182   3.427  1.3762 -0.0875 -0.4021
   53MOL0     H 7113   5.711  11.102   3.622  0.4960  0.6390 -1.0922
   53MOL0     H 7114   5.635  10.969   3.527  0.3221 -0.4156 -0.7972
   53MOL0     H 7115   5.405  11.329   3.420  1.7696 -1.1733 -1.1858
   53MOL0     H 7116   5.096  11.407   3.516 -1.2720 -0.3969 -0.0679
   53MOL0     H 7117   5.201  11.424   3.369 -0.8459  0.5046 -0.5918
   53MOL0     H 7118   5.055  11.336   3.354  0.6159 -0.3518 -0.4327
   53MOL0     H 7119   4.781  10.934   3.707 -0.4635  1.0360  0.4689
   53MOL0     H 7120   4.561  10.880   3.660 -1.6845  1.0345 -1.3848
   53MOL0     H 7121   4.391  10.709   3.580  0.8770  0.8904  0.4058
   53MOL0     H 7122   4.315  10.858   3.509  1.0827  0.9408  0.0408
   53MOL0     H 7123   4.237  10.721   3.328 -0.0349  2.6709  1.6389
   53MOL0     H 7124   4.311  10.582   3.423 -0.7852 -1.0278  0.6995
   53MOL0     H 7125   4.109  10.766   3.567  0.4028 -1.1399  1.2888
   53MOL0     H 7126   4.169  10.599   3.596  1.4348  2.0672  1.6358
   53MOL0     H 7127   3.997  10.640   3.340 -1.3538 -1.1278  0.0315
   53MOL0     H 7128   4.002  10.505   3.433  0.6138 -0.3640  0.6580
   53MOL0     H 7129   3.864  10.778   3.499  0.9783 -0.0035  0.0736
   53MOL0     H 7130   3.858  10.641   3.610 -3.0012  1.5622  0.1308
   53MOL0     H 7131   3.746  10.650   3.322  0.9005  1.4347  0.7049
   53MOL0     H 7132   3.765  10.511   3.428  1.3480  0.2624 -0.6333
   53MOL0     H 7133   3.618  10.729   3.560  0.5045 -0.7716  0.3983
   53MOL0     H 7134   3.615  10.563   3.572 -1.3856  0.9255  0.6867
   53MOL0     H 7135   3.502  10.571   3.323  1.9739 -3.3781  2.1053
   53MOL0     H 7136   3.488  10.751   3.372  0.2751  0.6369  1.0706
   53MOL0     H 7137   4.693  10.793   3.245 -0.3513  0.7280  0.1706
   53MOL0     H 7138   4.905  10.860   3.297 -2.2557 -2.4825 -1.5279
   53MOL0     H 7139   5.211  10.907   3.578 -4.0269  0.9673  0.3295
   53MOL0     H 7140   5.442  10.952   3.582  1.8328  0.8260 -1.6323
   53MOL0     H 7141   7.374  11.132   3.768 -1.0068 -0.8182  0.4098
   53MOL0     H 7142   7.606  11.060   3.711  0.2271 -0.8501 -0.4356
   53MOL0     H 7143   8.043  11.008   3.711  2.7208  1.3401 -0.3915
   53MOL0     H 7144   8.236  11.013   3.595  1.1269 -1.5787 -1.2324
   53MOL0     H 7145   8.361  11.084   3.373 -1.0499 -0.4529  0.7643
   53MOL0     H 7146   8.423  10.959   3.486  2.9944  0.2035 -1.6076
   53MOL0     H 7147   8.526  10.844   3.276  0.1883  0.2313  0.2065
   53MOL0     H 7148   8.617  10.971   3.352 -1.9659  1.5591  2.7689
   53MOL0     H 7149   8.415  11.020   3.123 -0.5706  3.1685  2.7545
   53MOL0     H 7150   8.573  10.936   3.091 -1.5460  0.1566 -1.1617
   53MOL0     H 7151   8.684  11.151   3.201  0.5004  2.9068 -1.2764
   53MOL0     H 7152   8.526  11.200   3.231  2.8012  0.1091  1.4256
   53MOL0     H 7153   8.544  11.338   2.850  2.9980  1.8962  0.2946
   53MOL0     H 7154   8.071  10.758   3.291  4.0465 -0.9483  0.8067
   53MOL0     H 7155   7.859  10.738   3.406 -1.5446  1.9789  1.0067
   54MOL0     O 7156   7.491   4.130   7.181  0.4878  0.3681  0.2349
   54MOL0     C 7157   7.517   4.203   7.080  0.5220  0.3664  0.9974
   54MOL0     O 7158   7.440   4.215   6.968 -0.0195  0.0365 -0.0344
   54MOL0     C 7159   7.348   4.120   6.931  0.1645 -0.1656  0.7789
   54MOL0     C 7160   7.355   4.084   6.797  0.2099  0.4294  0.4759
   54MOL0     C 7161   7.273   3.992   6.734 -0.3708 -1.0473  0.1079
   54MOL0     C 7162   7.177   3.927   6.810  0.6699 -0.0154  0.1809
   54MOL0     O 7163   7.095   3.828   6.756  0.7465 -0.7829 -0.2050
   54MOL0     C 7164   6.959   3.853   6.763 -0.1053 -0.5968  0.1431
   54MOL0     C 7165   6.885   3.733   6.694  0.0635 -0.1928 -0.3749
   54MOL0     C 7166   6.740   3.778   6.669 -0.3648  0.1601  0.3054
   54MOL0     C 7167   6.657   3.661   6.610  0.0452  0.5159  0.0301
   54MOL0     C 7168   6.680   3.632   6.465  0.0374  0.1714  0.1935
   54MOL0     C 7169   6.640   3.488   6.445  0.3477 -0.5705 -0.0612
   54MOL0     C 7170   6.676   3.447   6.303  0.3072  0.1924  0.2014
   54MOL0     C 7171   6.630   3.304   6.266  0.1618  0.9512 -0.0399
   54MOL0     N 7172   6.495   3.271   6.322 -0.0113  0.0626  0.4430
   54MOL0     C 7173   6.384   3.293   6.245  1.0982 -0.0962  0.3119
   54MOL0     C 7174   6.284   3.232   6.309  0.4897  0.4644 -0.2145
   54MOL0     C 7175   6.141   3.200   6.262  1.1788  0.1252 -0.0821
   54MOL0     C 7176   6.034   3.198   6.373  0.2745  0.1661  0.0850
   54MOL0     C 7177   5.952   3.330   6.366 -0.6851 -0.1000 -0.1122
   54MOL0     C 7178   5.850   3.325   6.485 -0.8066  0.3827 -0.1765
   54MOL0     O 7179   5.749   3.221   6.468 -0.2541  0.1313 -0.0381
   54MOL0     C 7180   5.658   3.256   6.370  0.3177  0.9749 -0.1992
   54MOL0     C 7181   5.656   3.176   6.255 -0.1829  0.3102  0.6758
   54MOL0     C 7182   5.574   3.202   6.144  0.4802  0.4577 -0.8282
   54MOL0     C 7183   5.594   3.105   6.034 -0.3646 -0.4007  0.6732
   54MOL0     C 7184   5.485   3.316   6.146 -0.3594  0.1392 -0.4076
   54MOL0     C 7185   5.391   3.352   6.036 -0.2744 -0.1681  0.2498
   54MOL0     O 7186   5.306   3.461   6.064  0.4693 -0.4068  0.0141
   54MOL0     C 7187   5.233   3.537   5.973 -0.9015 -0.7111 -1.0586
   54MOL0     C 7188   5.209   3.513   5.841  0.1598 -0.1576  0.5281
   54MOL0     C 7189   5.129   3.591   5.760 -0.0320  1.3704  0.3376
   54MOL0     C 7190   5.061   3.704   5.820 -0.6813 -0.1420 -0.3719
   54MOL0     O 7191   4.979   3.794   5.753  0.0137  0.4978  0.2812
   54MOL0     C 7192   5.004   3.806   5.616 -0.3373  0.6341  0.3782
   54MOL0     C 7193   4.932   3.917   5.540  0.4446 -1.0297  0.1459
   54MOL0     C 7194   4.944   4.056   5.620  0.3251  0.8044  0.0473
   54MOL0     C 7195   4.906   4.184   5.538 -0.7861  0.4457  0.0880
   54MOL0     C 7196   4.916   4.312   5.629 -0.3907  0.5220  0.6507
   54MOL0     C 7197   4.870   4.438   5.551 -1.3635 -0.5336 -0.2156
   54MOL0     C 7198   4.814   4.540   5.646  0.0662 -0.4216 -0.5265
   54MOL0     C 7199   4.799   4.683   5.576  0.1468 -0.7650  0.6118
   54MOL0    Cl 7200   4.945   4.781   5.593 -0.0754  0.1423  0.1385
   54MOL0     C 7201   5.089   3.735   5.960  0.1998 -0.0679 -0.4769
   54MOL0     C 7202   5.166   3.643   6.028  0.2252 -0.3343  0.3753
   54MOL0     O 7203   5.407   3.314   5.922 -0.0210 -0.1110  0.0193
   54MOL0     C 7204   5.484   3.391   6.264  0.3458  0.0107 -1.4408
   54MOL0     C 7205   5.565   3.363   6.373  0.3385 -0.3852  0.1556
   54MOL0     N 7206   6.345   3.175   6.423  0.0324  0.5201  0.1988
   54MOL0     N 7207   6.467   3.204   6.434  0.6919  0.1483 -0.0603
   54MOL0     C 7208   7.164   3.955   6.946  0.0487 -0.7529 -1.0773
   54MOL0     C 7209   7.250   4.046   7.015  0.5526  1.0213  1.3020
   54MOL0     C 7210   7.645   4.279   7.103  0.2591 -0.5333  0.6423
   54MOL0     C 7211   7.713   4.329   6.987  0.0585  0.0791 -0.5655
   54MOL0     C 7212   7.810   4.423   6.995  0.0946  0.6507  0.6673
   54MOL0     C 7213   7.850   4.474   7.118  1.3830  0.2056 -0.5552
   54MOL0     O 7214   7.944   4.571   7.123 -0.2815  0.1807 -0.2710
   54MOL0     C 7215   8.065   4.523   7.183  0.4546  1.0418  0.3218
   54MOL0     C 7216   8.172   4.629   7.193  0.1195  0.4492 -1.2669
   54MOL0     C 7217   8.216   4.672   7.052 -0.3027  0.5136 -0.6002
   54MOL0     C 7218   8.313   4.793   7.060  0.9151  0.0531  0.2640
   54MOL0     C 7219   8.340   4.843   6.931  0.0141  0.6062  1.3235
   54MOL0     C 7220   8.367   4.859   6.823  0.6679  0.4115  0.0519
   54MOL0     C 7221   7.797   4.419   7.240 -0.0396 -0.5916 -1.2569
   54MOL0     C 7222   7.689   4.332   7.227  0.9804  1.1418 -0.0921
   54MOL0     H 7223   7.437   4.130   6.741  1.9497  1.2678  3.4653
   54MOL0     H 7224   7.284   3.974   6.628  0.0677 -2.4684  0.3723
   54MOL0     H 7225   6.914   3.861   6.862 -2.2952  1.0704 -0.8813
   54MOL0     H 7226   6.927   3.939   6.703  0.2991 -2.0381 -2.2891
   54MOL0     H 7227   6.932   3.708   6.598 -0.5335 -2.5153 -0.1150
   54MOL0     H 7228   6.886   3.645   6.759 -2.4047 -0.5543 -0.7138
   54MOL0     H 7229   6.704   3.808   6.767 -0.1426 -1.1359  0.8089
   54MOL0     H 7230   6.731   3.861   6.598 -0.3929  0.8652  1.1155
   54MOL0     H 7231   6.687   3.574   6.669 -0.3509  0.1811 -0.2583
   54MOL0     H 7232   6.552   3.671   6.638  0.4602 -0.0583  1.8954
   54MOL0     H 7233   6.623   3.687   6.390  1.8832 -1.4990 -2.6050
   54MOL0     H 7234   6.786   3.643   6.439 -0.6902  1.1552 -2.6709
   54MOL0     H 7235   6.684   3.414   6.513  2.5316  0.3860 -0.3527
   54MOL0     H 7236   6.531   3.491   6.453  0.4376 -0.6256  1.5680
   54MOL0     H 7237   6.641   3.515   6.225 -3.2412 -1.7176 -0.0906
   54MOL0     H 7238   6.785   3.453   6.308  0.4536 -1.4148 -0.6317
   54MOL0     H 7239   6.701   3.233   6.309 -1.9100  0.2761  2.5308
   54MOL0     H 7240   6.615   3.291   6.159 -1.1222  3.4925 -0.2636
   54MOL0     H 7241   6.382   3.349   6.152 -1.5243 -0.0027  0.3759
   54MOL0     H 7242   6.121   3.269   6.180  3.7333 -1.6498 -2.3466
   54MOL0     H 7243   6.150   3.101   6.216 -1.4232 -0.3423  0.2642
   54MOL0     H 7244   6.094   3.187   6.464  1.5574 -4.5583 -1.0411
   54MOL0     H 7245   5.972   3.108   6.365  0.1527  0.1329  1.2155
   54MOL0     H 7246   5.897   3.352   6.274 -0.9986  1.1096  0.3500
   54MOL0     H 7247   6.021   3.414   6.373  0.6271 -1.1835  0.5354
   54MOL0     H 7248   5.806   3.425   6.488 -0.6806  0.6247 -3.0964
   54MOL0     H 7249   5.902   3.297   6.577  0.7798  0.8775 -0.8835
   54MOL0     H 7250   5.728   3.094   6.252 -0.1883  0.3417 -0.7546
   54MOL0     H 7251   5.691   3.057   6.048  0.6803  1.1195 -0.9209
   54MOL0     H 7252   5.516   3.028   6.032  3.2823 -4.5158 -2.9424
   54MOL0     H 7253   5.595   3.152   5.935  0.3127 -2.1428 -0.1799
   54MOL0     H 7254   5.257   3.428   5.793  1.5489  1.4489 -1.0271
   54MOL0     H 7255   5.110   3.563   5.657 -3.7014  1.1497  0.9445
   54MOL0     H 7256   5.107   3.832   5.591  0.1267 -2.5811 -1.6209
   54MOL0     H 7257   4.984   3.709   5.570  0.7983  0.7499 -0.3854
   54MOL0     H 7258   4.962   3.937   5.437  1.0534  0.3489  0.5803
   54MOL0     H 7259   4.824   3.895   5.536  0.4543 -1.4584  1.6238
   54MOL0     H 7260   5.049   4.054   5.652  0.6387 -3.5343 -0.5604
   54MOL0     H 7261   4.882   4.047   5.710 -0.1654 -1.9176 -0.4680
   54MOL0     H 7262   4.962   4.202   5.446 -0.1702  0.6677  0.5036
   54MOL0     H 7263   4.801   4.169   5.511 -0.5267 -1.1364 -0.1489
   54MOL0     H 7264   5.014   4.330   5.675 -0.7046  1.6276  0.9278
   54MOL0     H 7265   4.844   4.298   5.711 -0.0301  1.4766  1.1450
   54MOL0     H 7266   4.955   4.477   5.493 -1.9627  1.0593 -0.0916
   54MOL0     H 7267   4.798   4.401   5.478 -0.0699 -0.3211 -1.6630
   54MOL0     H 7268   4.884   4.540   5.730 -2.5971 -1.6958  1.8656
   54MOL0     H 7269   4.713   4.513   5.676 -0.2340  1.3677  0.1661
   54MOL0     H 7270   4.716   4.745   5.612 -0.0229  1.2458 -2.8639
   54MOL0     H 7271   4.798   4.665   5.468 -0.0682 -1.2839  0.6968
   54MOL0     H 7272   5.047   3.808   6.028  2.5681 -1.3566  2.6425
   54MOL0     H 7273   5.178   3.667   6.133  1.1742  0.3921  0.1155
   54MOL0     H 7274   5.415   3.474   6.273 -0.1970 -0.6556  2.8152
   54MOL0     H 7275   5.563   3.442   6.448  0.1684  0.3057 -0.5643
   54MOL0     H 7276   7.092   3.895   7.001 -0.0119  0.9239  0.8165
   54MOL0     H 7277   7.236   4.053   7.122 -0.5491 -0.1956  1.2692
   54MOL0     H 7278   7.676   4.292   6.893  0.3858 -2.5505  0.2461
   54MOL0     H 7279   7.840   4.464   6.899 -1.5613 -0.0194 -0.1893
   54MOL0     H 7280   8.040   4.500   7.286 -2.6004 -0.8608 -0.7284
   54MOL0     H 7281   8.089   4.428   7.134 -0.4366  0.2993  1.2765
   54MOL0     H 7282   8.264   4.600   7.246  1.0939  0.1282 -3.0603
   54MOL0     H 7283   8.138   4.726   7.231  3.1614  2.5321 -3.3214
   54MOL0     H 7284   8.124   4.702   7.000 -0.9767 -0.2523  0.1252
   54MOL0     H 7285   8.260   4.588   6.997 -4.8549 -0.6891 -2.9708
   54MOL0     H 7286   8.406   4.770   7.112 -0.0837  0.1583  2.1624
   54MOL0     H 7287   8.256   4.872   7.109  1.8682  0.2267  1.1156
   54MOL0     H 7288   8.387   4.889   6.722  0.2373 -0.1903 -0.2124
   54MOL0     H 7289   7.833   4.450   7.338  2.9251  0.3974 -2.5373
   54MOL0     H 7290   7.643   4.287   7.315 -1.1744  1.3731 -1.0471
   55MOL0     O 7291   3.276   4.431   6.015  0.1201 -0.1858 -0.0109
   55MOL0     C 7292   3.344   4.468   5.921 -0.4182 -0.3497  0.2703
   55MOL0     O 7293   3.482   4.463   5.918  0.3983  0.2026  0.4213
   55MOL0     C 7294   3.538   4.356   5.984 -1.2005  0.0978  0.3462
   55MOL0     C 7295   3.610   4.383   6.100  1.1926  0.3838 -0.6164
   55MOL0     C 7296   3.681   4.282   6.172  0.3080  0.8402 -0.8624
   55MOL0     C 7297   3.667   4.150   6.131 -0.3416 -0.1281 -0.5249
   55MOL0     O 7298   3.725   4.056   6.212  0.6303  0.7701  0.9533
   55MOL0     C 7299   3.779   3.939   6.143 -1.0186 -0.1928 -0.2000
   55MOL0     C 7300   3.872   3.859   6.236  0.5309  0.3370 -0.1435
   55MOL0     C 7301   4.008   3.921   6.262  0.6059 -0.1089 -0.8235
   55MOL0     C 7302   4.074   3.852   6.381  1.4151 -0.4980  0.3489
   55MOL0     C 7303   4.187   3.912   6.459 -0.7912 -0.1002  0.0903
   55MOL0     C 7304   4.313   3.904   6.377 -0.3915 -0.7597  0.0715
   55MOL0     C 7305   4.432   3.957   6.448 -0.8395  0.2331  0.2470
   55MOL0     C 7306   4.439   4.118   6.453  0.0530  0.1403  0.3739
   55MOL0     N 7307   4.428   4.185   6.584 -0.4490  0.0058 -0.0457
   55MOL0     C 7308   4.319   4.172   6.670  0.2216 -0.1525 -0.9094
   55MOL0     C 7309   4.363   4.195   6.797  0.1430 -0.4282 -0.3897
   55MOL0     C 7310   4.289   4.173   6.921  0.3088  0.6003 -0.5551
   55MOL0     C 7311   4.149   4.236   6.929  0.5881 -0.1085 -0.2029
   55MOL0     C 7312   4.088   4.223   7.071 -0.8646  0.5251  0.0479
   55MOL0     C 7313   3.945   4.279   7.073  0.0521  0.3335 -0.3866
   55MOL0     O 7314   3.860   4.182   7.010  0.3900 -0.3751  0.1483
   55MOL0     C 7315   3.728   4.188   7.009  1.6178  0.5448 -0.3812
   55MOL0     C 7316   3.657   4.300   7.054 -0.3728 -0.4270  0.6084
   55MOL0     C 7317   3.519   4.315   7.043  0.0282  0.1127 -0.5741
   55MOL0     C 7318   3.458   4.444   7.091 -0.2903  0.2885  0.3428
   55MOL0     C 7319   3.441   4.221   6.977  0.4216  0.6261 -0.0216
   55MOL0     C 7320   3.291   4.225   6.953 -0.4327 -0.3274 -0.2708
   55MOL0     O 7321   3.254   4.160   6.833  0.1529  0.0559 -0.0373
   55MOL0     C 7322   3.131   4.156   6.777  0.0088 -0.0862 -0.0484
   55MOL0     C 7323   3.115   4.136   6.639 -0.1185  0.8320  0.7403
   55MOL0     C 7324   2.990   4.163   6.572  0.1431 -0.3450  0.4696
   55MOL0     C 7325   2.879   4.198   6.644 -0.4822  0.5187  0.1397
   55MOL0     O 7326   2.766   4.248   6.585 -0.1017  0.2452  0.0878
   55MOL0     C 7327   2.746   4.218   6.447 -0.0925  0.6750 -0.1995
   55MOL0     C 7328   2.607   4.271   6.408 -0.9465 -0.6756  0.4151
   55MOL0     C 7329   2.607   4.423   6.436 -0.2974 -0.6051  1.0657
   55MOL0     C 7330   2.467   4.486   6.405 -0.0973 -0.4392 -0.1692
   55MOL0     C 7331   2.465   4.637   6.374  0.5837 -0.2349 -0.7363
   55MOL0     C 7332   2.322   4.681   6.329 -0.1486 -0.1076  0.8499
   55MOL0     C 7333   2.313   4.685   6.183  0.4093 -1.0447 -0.0263
   55MOL0     C 7334   2.186   4.724   6.108  0.0336  0.1895  1.0907
   55MOL0    Cl 7335   2.127   4.887   6.156  0.4028  0.1268  0.4462
   55MOL0     C 7336   2.889   4.192   6.784  0.9394  0.2905  0.0899
   55MOL0     C 7337   3.011   4.182   6.845  0.0602 -0.0842  0.4271
   55MOL0     O 7338   3.212   4.294   7.028 -0.5981  0.3364  0.1196
   55MOL0     C 7339   3.511   4.108   6.933 -1.3493 -0.3248 -0.0128
   55MOL0     C 7340   3.649   4.088   6.943  0.3007  0.5659 -0.2708
   55MOL0     N 7341   4.492   4.230   6.788 -0.5422 -0.3866  0.6327
   55MOL0     N 7342   4.531   4.219   6.662  0.2861 -0.6826 -0.6016
   55MOL0     C 7343   3.586   4.115   6.014  0.2783 -0.2344  0.1610
   55MOL0     C 7344   3.530   4.228   5.938  0.6636  0.8837  0.0345
   55MOL0     C 7345   3.268   4.537   5.815 -0.2996  0.6921 -0.1245
   55MOL0     C 7346   3.151   4.606   5.847 -0.7397  0.9692 -0.6546
   55MOL0     C 7347   3.077   4.668   5.745 -0.0410  0.3323  0.4122
   55MOL0     C 7348   3.121   4.666   5.613 -0.0932  0.7151  0.3864
   55MOL0     O 7349   3.029   4.713   5.524 -0.2514  0.0594 -0.7776
   55MOL0     C 7350   3.065   4.730   5.381 -0.7975 -0.6626  0.0234
   55MOL0     C 7351   2.943   4.813   5.322 -0.4196  0.2351 -0.2445
   55MOL0     C 7352   2.820   4.734   5.321  0.0270 -0.1284  0.0604
   55MOL0     C 7353   2.820   4.614   5.240  0.2964  0.7474 -0.2274
   55MOL0     C 7354   2.682   4.562   5.233  0.6306 -0.3698  1.3689
   55MOL0     C 7355   2.576   4.493   5.227 -0.1582  0.3207 -0.2383
   55MOL0     C 7356   3.233   4.597   5.579  0.0383 -0.4981  0.0492
   55MOL0     C 7357   3.310   4.539   5.680 -0.3868 -0.8117 -0.5683
   55MOL0     H 7358   3.632   4.485   6.130  1.8598  0.0485  0.0764
   55MOL0     H 7359   3.729   4.301   6.267  2.9202 -1.6615 -1.5596
   55MOL0     H 7360   3.703   3.868   6.107  1.1307 -2.9092  0.2390
   55MOL0     H 7361   3.842   3.976   6.062 -1.2989  1.2588  0.2098
   55MOL0     H 7362   3.818   3.841   6.330  0.0223  1.0035 -0.2992
   55MOL0     H 7363   3.894   3.767   6.182  2.9005 -0.3895  1.8719
   55MOL0     H 7364   4.067   3.916   6.171  0.7927 -0.6889 -0.6739
   55MOL0     H 7365   3.997   4.027   6.286 -1.9750  0.1408 -2.6507
   55MOL0     H 7366   4.001   3.819   6.456  0.3434  0.9825 -0.0137
   55MOL0     H 7367   4.110   3.761   6.331  3.2256  0.1237  0.4682
   55MOL0     H 7368   4.161   4.016   6.483 -0.9370 -0.3174  0.9250
   55MOL0     H 7369   4.201   3.867   6.558  0.0268  1.2518  0.6229
   55MOL0     H 7370   4.338   3.799   6.360  0.9197 -0.2454 -1.5159
   55MOL0     H 7371   4.290   3.945   6.278 -1.9538 -2.5552 -0.3659
   55MOL0     H 7372   4.442   3.899   6.540  0.8605  0.2093  0.0796
   55MOL0     H 7373   4.517   3.928   6.386  0.4253  0.9656  1.5873
   55MOL0     H 7374   4.372   4.164   6.380  0.3411 -0.1091 -0.0509
   55MOL0     H 7375   4.542   4.132   6.421  1.1157 -2.9305  2.0973
   55MOL0     H 7376   4.222   4.127   6.651  0.7092 -1.6380 -0.1101
   55MOL0     H 7377   4.305   4.067   6.943  2.3727  0.5002 -2.2220
   55MOL0     H 7378   4.344   4.220   7.003  1.3512 -2.3068  0.5587
   55MOL0     H 7379   4.076   4.183   6.867 -0.2951  0.7936  0.0352
   55MOL0     H 7380   4.150   4.344   6.912  1.9356 -0.1581 -0.5131
   55MOL0     H 7381   4.149   4.276   7.145  1.0699 -0.7048 -0.5892
   55MOL0     H 7382   4.094   4.116   7.097  2.8038  0.4153 -0.6596
   55MOL0     H 7383   3.939   4.380   7.031  1.0493  1.2360  1.5036
   55MOL0     H 7384   3.899   4.288   7.172 -2.4678  3.1438 -1.6625
   55MOL0     H 7385   3.710   4.385   7.095  2.4075 -1.8163  0.0686
   55MOL0     H 7386   3.526   4.522   7.126 -0.3885 -0.3649  2.1064
   55MOL0     H 7387   3.389   4.474   7.012 -0.4536  0.3224  0.4977
   55MOL0     H 7388   3.398   4.423   7.180  2.3324 -2.4926  1.6582
   55MOL0     H 7389   3.200   4.107   6.578  0.2257 -0.9685  2.0001
   55MOL0     H 7390   2.997   4.167   6.464  2.9716 -2.1768  0.4774
   55MOL0     H 7391   2.828   4.268   6.394  0.3560  0.3250  0.1575
   55MOL0     H 7392   2.752   4.109   6.440 -1.2216  0.3845  2.1389
   55MOL0     H 7393   2.577   4.249   6.305 -0.4006 -2.1874  0.5644
   55MOL0     H 7394   2.523   4.235   6.468  0.0989 -2.3136  0.9367
   55MOL0     H 7395   2.681   4.464   6.366  0.2251 -0.4932  1.6706
   55MOL0     H 7396   2.639   4.469   6.530  3.0196 -1.3283  0.4242
   55MOL0     H 7397   2.427   4.428   6.321 -1.6564 -0.4976  0.5824
   55MOL0     H 7398   2.397   4.462   6.486 -2.6637  1.6746 -1.5942
   55MOL0     H 7399   2.542   4.666   6.303  1.3685 -2.0491 -0.6809
   55MOL0     H 7400   2.488   4.693   6.465 -3.1144  1.1810 -0.4915
   55MOL0     H 7401   2.248   4.613   6.372 -1.0121 -0.7410 -1.4738
   55MOL0     H 7402   2.295   4.784   6.351 -2.2252 -0.9961  2.9724
   55MOL0     H 7403   2.343   4.586   6.146 -0.4860 -2.0141  1.7089
   55MOL0     H 7404   2.389   4.754   6.146 -1.6595  1.4649  0.1182
   55MOL0     H 7405   2.095   4.666   6.123 -1.3891  2.1731  0.5925
   55MOL0     H 7406   2.203   4.721   6.000 -1.6534  0.2100  0.7974
   55MOL0     H 7407   2.806   4.220   6.848 -0.3955  1.7627 -2.1100
   55MOL0     H 7408   3.018   4.185   6.953  2.0039 -1.5653  0.4088
   55MOL0     H 7409   3.455   4.038   6.873 -3.3317  2.8523 -2.1957
   55MOL0     H 7410   3.699   4.007   6.891  2.2463 -0.0044  2.2985
   55MOL0     H 7411   3.592   4.012   5.977 -0.8485 -0.1516 -0.2923
   55MOL0     H 7412   3.476   4.197   5.849 -0.5964 -0.7710  1.3027
   55MOL0     H 7413   3.124   4.626   5.950 -0.2724  2.5444 -0.8241
   55MOL0     H 7414   2.979   4.710   5.764 -0.1011 -0.2951  1.5936
   55MOL0     H 7415   3.150   4.799   5.382 -0.6503 -0.8178  1.6636
   55MOL0     H 7416   3.091   4.644   5.319  0.2053  1.8462 -3.2950
   55MOL0     H 7417   2.966   4.856   5.224  3.3805 -0.9426 -0.0439
   55MOL0     H 7418   2.929   4.896   5.392 -2.4558  0.8380 -1.2735
   55MOL0     H 7419   2.751   4.806   5.274  1.7484  0.7285 -1.2546
   55MOL0     H 7420   2.797   4.701   5.423 -1.5841  0.5505 -0.0440
   55MOL0     H 7421   2.886   4.540   5.287 -0.7220 -0.9977 -1.4100
   55MOL0     H 7422   2.853   4.623   5.136 -2.7250  1.7684 -1.1942
   55MOL0     H 7423   2.482   4.442   5.232 -1.0483  1.8638 -0.3576
   55MOL0     H 7424   3.268   4.595   5.476  0.0421  2.4923 -0.1106
   55MOL0     H 7425   3.408   4.501   5.655  0.5057  1.7483 -1.2612
   56MOL0     O 7426   2.655   2.781  10.845  0.3634 -0.1220  0.3287
   56MOL0     C 7427   2.756   2.854  10.838  0.6676 -0.3881  0.7376
   56MOL0     O 7428   2.749   2.986  10.793  0.4567  0.3671 -0.1938
   56MOL0     C 7429   2.624   3.035  10.765 -0.1662 -0.7860  0.3524
   56MOL0     C 7430   2.533   3.068  10.866  0.0655  0.4128  0.9217
   56MOL0     C 7431   2.412   3.127  10.837 -0.4832  0.1656  0.1814
   56MOL0     C 7432   2.375   3.163  10.704 -0.2243 -0.4334 -0.2074
   56MOL0     O 7433   2.256   3.224  10.663  0.0750  0.6609 -0.2549
   56MOL0     C 7434   2.136   3.217  10.751 -0.0400 -0.4014 -0.2069
   56MOL0     C 7435   2.018   3.210  10.650 -0.0751 -0.0347 -0.0546
   56MOL0     C 7436   1.996   3.078  10.572  0.5993 -0.2044 -0.3541
   56MOL0     C 7437   1.884   3.099  10.468 -0.0989 -0.5825 -0.5039
   56MOL0     C 7438   1.785   2.981  10.474 -0.5447 -0.3308  0.5226
   56MOL0     C 7439   1.675   3.007  10.577  0.0297 -0.8037  0.3661
   56MOL0     C 7440   1.597   2.874  10.603  0.6556 -0.1770  0.0179
   56MOL0     C 7441   1.672   2.754  10.662 -0.2083 -0.5358 -0.6654
   56MOL0     N 7442   1.592   2.632  10.657  0.5715 -0.1073  0.5071
   56MOL0     C 7443   1.622   2.515  10.588 -0.0323  0.3771  0.4114
   56MOL0     C 7444   1.514   2.435  10.611  0.0666 -0.9921  0.4245
   56MOL0     C 7445   1.503   2.294  10.577 -0.3143  0.7623  0.1087
   56MOL0     C 7446   1.580   2.201  10.681  0.6124 -0.2464  0.4845
   56MOL0     C 7447   1.598   2.065  10.609  0.6637  0.1413  0.1079
   56MOL0     C 7448   1.614   1.945  10.701 -0.4507 -0.2197  0.2904
   56MOL0     O 7449   1.542   1.946  10.827 -1.0980  0.0843  0.1247
   56MOL0     C 7450   1.407   1.942  10.842 -0.8005  0.5866 -0.5206
   56MOL0     C 7451   1.351   2.007  10.953  0.4500 -0.4613 -0.7643
   56MOL0     C 7452   1.214   2.012  10.982  0.6774  0.2292  0.1277
   56MOL0     C 7453   1.167   2.089  11.107  0.0748  0.5441 -0.7868
   56MOL0     C 7454   1.120   1.952  10.891 -0.1491  0.3954  0.5641
   56MOL0     C 7455   0.969   1.951  10.901 -0.3663 -0.3327 -0.3430
   56MOL0     O 7456   0.902   1.887  10.808  0.4897  0.5753 -0.0586
   56MOL0     C 7457   0.762   1.909  10.800 -1.1555 -0.1020  0.2187
   56MOL0     C 7458   0.674   1.803  10.791  0.7414  0.3206  0.0458
   56MOL0     C 7459   0.542   1.818  10.740 -0.8910 -0.2881 -0.2364
   56MOL0     C 7460   0.492   1.944  10.711  0.7605 -0.1623 -0.6016
   56MOL0     O 7461   0.365   1.964  10.660 -0.2431 -0.3001  0.4874
   56MOL0     C 7462   0.318   1.858  10.570  0.0587  0.3281 -0.4396
   56MOL0     C 7463   0.202   1.914  10.481 -1.7743  0.2271  0.4144
   56MOL0     C 7464   0.241   2.004  10.361 -0.3316 -0.5944 -0.3002
   56MOL0     C 7465   0.096   2.042  10.283 -0.7085  0.7068  0.1566
   56MOL0     C 7466   0.105   2.143  10.173 -0.3245 -0.1459 -0.5224
   56MOL0     C 7467  -0.033   2.188  10.129 -0.5160 -0.0369 -0.1372
   56MOL0     C 7468  -0.027   2.292  10.022  0.1695 -0.3362 -0.1350
   56MOL0     C 7469  -0.156   2.330   9.945 -1.1074 -0.0580 -0.0386
   56MOL0    Cl 7470  -0.101   2.423   9.808  0.6109  0.0762 -0.2439
   56MOL0     C 7471   0.577   2.059  10.745  0.2160  0.0431  0.8005
   56MOL0     C 7472   0.706   2.034  10.787 -1.3048 -0.1037  0.6802
   56MOL0     O 7473   0.916   2.017  10.991 -0.2285  0.0873  0.4578
   56MOL0     C 7474   1.181   1.903  10.776 -0.0421  0.0791 -0.9642
   56MOL0     C 7475   1.320   1.892  10.755  0.2802 -0.3236 -0.3927
   56MOL0     N 7476   1.425   2.515  10.682 -0.4129  1.1535 -0.0492
   56MOL0     N 7477   1.470   2.625  10.714 -0.1139 -0.1873 -0.1419
   56MOL0     C 7478   2.476   3.142  10.606 -0.9653  0.3112  0.1220
   56MOL0     C 7479   2.592   3.065  10.640  0.5517  0.7599 -0.1657
   56MOL0     C 7480   2.884   2.799  10.856  0.0978  0.1195  0.0635
   56MOL0     C 7481   2.991   2.881  10.843 -0.0832  0.1091  0.2831
   56MOL0     C 7482   3.124   2.834  10.842 -0.6793  0.6082 -0.3133
   56MOL0     C 7483   3.146   2.700  10.865  0.0582 -0.7347 -0.3266
   56MOL0     O 7484   3.277   2.668  10.887 -0.5986  0.5789  0.2442
   56MOL0     C 7485   3.356   2.668  10.765  0.2430  0.2805 -0.0085
   56MOL0     C 7486   3.508   2.681  10.779  0.0740 -0.0876  0.3578
   56MOL0     C 7487   3.562   2.822  10.781  0.1481 -0.6217  0.0407
   56MOL0     C 7488   3.709   2.824  10.733 -0.2318  0.2043 -0.3832
   56MOL0     C 7489   3.708   2.835  10.586  0.2723  0.1109 -0.8474
   56MOL0     C 7490   3.716   2.842  10.470  0.9502 -0.9210 -0.5129
   56MOL0     C 7491   3.037   2.617  10.889 -0.4435 -1.1012 -0.7438
   56MOL0     C 7492   2.904   2.662  10.873 -0.5954  0.9857 -0.4409
   56MOL0     H 7493   2.558   3.044  10.969 -0.8868  2.0418  1.5739
   56MOL0     H 7494   2.353   3.140  10.927  2.1033  3.9559  1.5898
   56MOL0     H 7495   2.136   3.132  10.820 -2.7537  0.5975  1.1783
   56MOL0     H 7496   2.117   3.305  10.813 -2.1731 -1.7523  1.1648
   56MOL0     H 7497   1.928   3.219  10.712  1.0517 -1.0212  1.8442
   56MOL0     H 7498   2.022   3.298  10.586 -0.6025 -0.2836 -0.4414
   56MOL0     H 7499   2.085   3.038  10.523  0.5280  1.5852 -2.0326
   56MOL0     H 7500   1.963   3.000  10.642 -1.3603 -1.9575 -3.0316
   56MOL0     H 7501   1.843   3.199  10.484 -0.2436 -0.6029 -0.7398
   56MOL0     H 7502   1.929   3.109  10.369  2.6488 -0.3883  0.6528
   56MOL0     H 7503   1.746   2.991  10.372  0.5866  1.2188  0.2130
   56MOL0     H 7504   1.837   2.887  10.492 -0.2610 -0.2919 -0.0624
   56MOL0     H 7505   1.724   3.040  10.669  3.0920  2.3252 -2.0995
   56MOL0     H 7506   1.609   3.089  10.544  3.0934  2.8244  2.4776
   56MOL0     H 7507   1.505   2.887  10.661 -2.0569  0.7590 -4.0686
   56MOL0     H 7508   1.557   2.842  10.506 -3.4680  1.4328  0.9946
   56MOL0     H 7509   1.699   2.770  10.767  3.4476 -2.3403 -1.1544
   56MOL0     H 7510   1.765   2.731  10.610 -0.6221 -2.7370 -0.5354
   56MOL0     H 7511   1.716   2.487  10.542  0.4906 -0.4779  1.9432
   56MOL0     H 7512   1.397   2.265  10.582 -0.1263  0.2204  1.3981
   56MOL0     H 7513   1.547   2.278  10.479 -0.1913 -3.1339  0.6583
   56MOL0     H 7514   1.532   2.193  10.779  0.4864  0.4501  0.4847
   56MOL0     H 7515   1.678   2.245  10.700  0.1383  0.6854  0.8755
   56MOL0     H 7516   1.673   2.064  10.529 -1.0591 -1.8450 -1.5879
   56MOL0     H 7517   1.501   2.052  10.562  0.0827  3.5698  0.0996
   56MOL0     H 7518   1.721   1.935  10.718 -0.3277  0.8861  0.1978
   56MOL0     H 7519   1.586   1.855  10.645  0.9115  0.2296 -1.1856
   56MOL0     H 7520   1.421   2.060  11.016  0.4515 -0.8495 -0.4332
   56MOL0     H 7521   1.248   2.129  11.169 -0.3654 -0.2544  0.3357
   56MOL0     H 7522   1.102   2.166  11.066 -1.5045 -0.6689 -0.6496
   56MOL0     H 7523   1.115   2.025  11.179 -0.3375  2.1537  0.4069
   56MOL0     H 7524   0.711   1.705  10.817 -1.2134  0.0134  2.0116
   56MOL0     H 7525   0.490   1.725  10.718  3.0714 -3.0838  1.0980
   56MOL0     H 7526   0.397   1.806  10.515 -1.1138  0.1477 -2.0202
   56MOL0     H 7527   0.269   1.786  10.636  0.2470  1.7133  1.2816
   56MOL0     H 7528   0.136   1.837  10.441  1.0867 -1.7360 -0.7926
   56MOL0     H 7529   0.142   1.979  10.546 -0.0288  1.3143  0.9970
   56MOL0     H 7530   0.302   1.942  10.295 -0.6201 -0.9841 -0.2045
   56MOL0     H 7531   0.298   2.094  10.386 -0.3020 -1.0207  1.3117
   56MOL0     H 7532   0.043   1.957  10.239  0.4368  0.9811 -1.8878
   56MOL0     H 7533   0.036   2.087  10.363  2.2664 -2.1746  4.4693
   56MOL0     H 7534   0.165   2.106  10.089  0.4368 -1.7965  0.6850
   56MOL0     H 7535   0.156   2.233  10.209  2.7460 -1.7147 -0.5794
   56MOL0     H 7536  -0.094   2.108  10.086 -2.0354 -0.4714  2.5675
   56MOL0     H 7537  -0.092   2.221  10.215  0.7157  0.5814  0.5046
   56MOL0     H 7538   0.039   2.256   9.943 -0.5920 -0.0646 -0.9091
   56MOL0     H 7539   0.015   2.384  10.064  0.7597 -0.4511 -0.4756
   56MOL0     H 7540  -0.228   2.373  10.015  0.8190  0.5593  1.6666
   56MOL0     H 7541  -0.199   2.243   9.895  0.8820 -0.9730 -0.2783
   56MOL0     H 7542   0.531   2.154  10.723 -1.9402 -0.5746  2.3095
   56MOL0     H 7543   0.774   2.119  10.795 -1.1741 -0.0503 -0.7093
   56MOL0     H 7544   1.112   1.862  10.703  1.3367 -0.0631 -2.2392
   56MOL0     H 7545   1.354   1.851  10.660 -4.0498  0.0209 -2.3525
   56MOL0     H 7546   2.450   3.191  10.513 -1.1794  0.1276  0.0816
   56MOL0     H 7547   2.674   3.055  10.569 -0.1974 -0.7446 -0.8542
   56MOL0     H 7548   2.976   2.987  10.829  1.3691  0.2670 -0.2156
   56MOL0     H 7549   3.205   2.906  10.839  0.9197 -0.7766  3.4824
   56MOL0     H 7550   3.324   2.579  10.710 -0.6553  0.4305  0.2575
   56MOL0     H 7551   3.331   2.759  10.710 -0.0883 -0.4157 -1.0433
   56MOL0     H 7552   3.553   2.630  10.693 -2.1431 -1.3117 -0.1660
   56MOL0     H 7553   3.544   2.623  10.864 -2.5377 -0.7560  1.1213
   56MOL0     H 7554   3.546   2.862  10.882 -0.4366 -3.2877  1.0802
   56MOL0     H 7555   3.502   2.869  10.703  1.6309 -1.3419 -1.5800
   56MOL0     H 7556   3.746   2.722  10.745 -1.0705 -0.3892 -2.4878
   56MOL0     H 7557   3.766   2.909  10.773 -0.3124  0.0575  0.0470
   56MOL0     H 7558   3.715   2.847  10.363 -1.9329 -1.6448 -0.6054
   56MOL0     H 7559   3.057   2.515  10.921  1.8425 -0.8210 -1.0765
   56MOL0     H 7560   2.821   2.592  10.870 -0.7714  1.1198  0.6396
   57MOL0     O 7561   2.697   3.592   2.457  0.4735  0.6943  0.0451
   57MOL0     C 7562   2.720   3.491   2.389  0.2962  0.6035 -0.6668
   57MOL0     O 7563   2.835   3.426   2.393  0.3296  0.2149  0.1008
   57MOL0     C 7564   2.932   3.480   2.461 -0.2573  0.4883  0.1485
   57MOL0     C 7565   3.057   3.487   2.391  0.0951 -1.0398  0.2092
   57MOL0     C 7566   3.172   3.527   2.456 -1.0118  0.4606 -0.2234
   57MOL0     C 7567   3.169   3.571   2.591  0.7286 -0.7839  0.2530
   57MOL0     O 7568   3.280   3.600   2.668 -0.4516  0.0228  0.4024
   57MOL0     C 7569   3.374   3.495   2.680 -0.5524  0.0706  0.4886
   57MOL0     C 7570   3.449   3.512   2.808  0.3521 -0.3332  0.1528
   57MOL0     C 7571   3.601   3.476   2.791 -0.6548 -0.1389  0.2690
   57MOL0     C 7572   3.678   3.509   2.915 -0.0984 -0.5974  0.2486
   57MOL0     C 7573   3.819   3.428   2.903  0.0669 -1.1620 -0.7741
   57MOL0     C 7574   3.905   3.478   2.779 -0.0056 -0.2166 -0.6909
   57MOL0     C 7575   4.040   3.423   2.766  0.1967  0.3176 -0.0442
   57MOL0     C 7576   4.145   3.499   2.857  0.4159  0.8079  0.5966
   57MOL0     N 7577   4.275   3.431   2.846 -0.6556 -0.1817  0.0916
   57MOL0     C 7578   4.346   3.372   2.741 -0.1669 -0.7086  0.2982
   57MOL0     C 7579   4.468   3.337   2.791  0.0741 -0.1254  0.0119
   57MOL0     C 7580   4.588   3.286   2.719  0.7933  0.6383 -0.0962
   57MOL0     C 7581   4.556   3.192   2.598 -0.4028  0.1221  0.4391
   57MOL0     C 7582   4.684   3.128   2.552 -0.6923 -0.1490  0.0474
   57MOL0     C 7583   4.684   3.055   2.410  0.2523  0.2956 -0.5728
   57MOL0     O 7584   4.613   3.136   2.315  0.5259  0.2166  0.4151
   57MOL0     C 7585   4.501   3.079   2.249 -0.3820  0.2109 -1.2621
   57MOL0     C 7586   4.515   2.958   2.182  0.0284 -0.3972 -0.3995
   57MOL0     C 7587   4.425   2.901   2.087  0.1119 -0.7375 -0.2462
   57MOL0     C 7588   4.458   2.771   2.019  0.2718 -0.2403  0.1757
   57MOL0     C 7589   4.301   2.981   2.072 -0.2897  0.4579  0.6918
   57MOL0     C 7590   4.194   2.947   1.979  0.1361  0.0527 -0.1524
   57MOL0     O 7591   4.072   3.005   2.002  0.1192  0.1200 -0.3192
   57MOL0     C 7592   3.973   2.995   1.911 -0.4737  0.3601 -0.2917
   57MOL0     C 7593   3.972   3.083   1.810 -0.4475  0.2551  1.3515
   57MOL0     C 7594   3.875   3.066   1.700 -0.6952  0.6341 -0.6800
   57MOL0     C 7595   3.777   2.964   1.708 -0.1842 -0.2049 -0.5386
   57MOL0     O 7596   3.685   2.949   1.609  0.1223  0.3547  0.3087
   57MOL0     C 7597   3.617   2.824   1.595  0.1613  0.8057  1.1653
   57MOL0     C 7598   3.500   2.841   1.495  1.0438  0.7718  0.4820
   57MOL0     C 7599   3.406   2.715   1.468 -0.5417  0.1559 -0.6034
   57MOL0     C 7600   3.280   2.746   1.385  0.1736  0.1781  0.7093
   57MOL0     C 7601   3.203   2.613   1.342 -0.1861 -0.3183 -0.4298
   57MOL0     C 7602   3.093   2.650   1.243  0.1813 -1.4069 -0.2928
   57MOL0     C 7603   2.970   2.721   1.296  0.5557  0.2588  0.6568
   57MOL0     C 7604   2.854   2.721   1.199  0.0929  0.8296 -0.0232
   57MOL0    Cl 7605   2.708   2.773   1.288 -0.2875 -0.0723 -0.2367
   57MOL0     C 7606   3.776   2.897   1.826 -0.2264  0.0201 -0.4229
   57MOL0     C 7607   3.872   2.909   1.923  0.1812  0.1685 -0.1382
   57MOL0     O 7608   4.214   2.873   1.887 -0.2701 -0.1172  0.3895
   57MOL0     C 7609   4.283   3.098   2.152 -0.3205 -0.2148  0.5023
   57MOL0     C 7610   4.380   3.142   2.241 -0.1770  0.8427 -0.4936
   57MOL0     N 7611   4.472   3.378   2.923  0.8270  0.2703 -0.2864
   57MOL0     N 7612   4.354   3.420   2.954  0.1210 -0.1257 -0.2339
   57MOL0     C 7613   3.051   3.556   2.661  0.4691 -0.0277 -0.5458
   57MOL0     C 7614   2.935   3.511   2.601 -0.1805 -0.0672  1.0974
   57MOL0     C 7615   2.626   3.452   2.277  0.4300  0.0329  0.3152
   57MOL0     C 7616   2.653   3.344   2.193  0.1212 -0.7046 -0.8233
   57MOL0     C 7617   2.571   3.330   2.076 -0.4365  0.2606 -0.6904
   57MOL0     C 7618   2.464   3.414   2.050 -0.0281  0.3726 -0.1987
   57MOL0     O 7619   2.380   3.390   1.950 -0.1878  0.0048  0.2756
   57MOL0     C 7620   2.393   3.463   1.827 -0.2470 -0.8140  0.1369
   57MOL0     C 7621   2.336   3.373   1.712 -0.0059 -0.1731 -0.2056
   57MOL0     C 7622   2.407   3.391   1.573  0.0960  0.1357 -0.5155
   57MOL0     C 7623   2.394   3.535   1.519 -0.7313  0.1973  0.1445
   57MOL0     C 7624   2.267   3.608   1.539  0.0025  0.7248 -0.0745
   57MOL0     C 7625   2.158   3.665   1.549 -0.0376  0.5008 -0.3539
   57MOL0     C 7626   2.443   3.523   2.135  0.1917 -0.1890 -0.4049
   57MOL0     C 7627   2.515   3.536   2.248 -0.7908  1.2877 -0.2000
   57MOL0     H 7628   3.043   3.470   2.285  1.0230  3.3197 -0.8392
   57MOL0     H 7629   3.273   3.520   2.417 -1.0254 -0.3005 -0.1180
   57MOL0     H 7630   3.323   3.398   2.684 -1.7442  0.6753  0.4687
   57MOL0     H 7631   3.441   3.481   2.595  0.8237 -0.3386  1.6034
   57MOL0     H 7632   3.447   3.616   2.843 -2.1880  0.2098 -1.3324
   57MOL0     H 7633   3.412   3.441   2.882 -0.4285  0.5620  0.6435
   57MOL0     H 7634   3.604   3.369   2.769  0.1302 -0.3424  1.3175
   57MOL0     H 7635   3.642   3.523   2.701 -1.8725 -1.9250 -1.2867
   57MOL0     H 7636   3.691   3.618   2.917 -1.9347 -0.3203 -0.3857
   57MOL0     H 7637   3.628   3.489   3.010 -0.8457  0.0004 -0.0076
   57MOL0     H 7638   3.874   3.464   2.991 -0.1688 -0.5017 -0.8895
   57MOL0     H 7639   3.812   3.320   2.892  2.2582 -1.5645  1.0074
   57MOL0     H 7640   3.861   3.436   2.688 -0.5753 -0.6545 -0.2193
   57MOL0     H 7641   3.893   3.586   2.793 -2.0106 -0.7577  3.1921
   57MOL0     H 7642   4.042   3.315   2.786  1.9618 -0.1128 -2.1012
   57MOL0     H 7643   4.070   3.438   2.661  1.2581  3.0561  0.5754
   57MOL0     H 7644   4.109   3.506   2.960 -1.2325 -1.5689  0.2585
   57MOL0     H 7645   4.156   3.602   2.819  1.3557  0.1578 -0.9989
   57MOL0     H 7646   4.303   3.353   2.643 -3.3220 -1.3918  1.6739
   57MOL0     H 7647   4.646   3.374   2.691  0.2421  0.8908 -0.4718
   57MOL0     H 7648   4.648   3.228   2.790 -1.4196 -3.7993 -1.4505
   57MOL0     H 7649   4.520   3.258   2.518  0.3175  0.5702  0.4789
   57MOL0     H 7650   4.482   3.113   2.617 -0.1293 -0.0458  0.8155
   57MOL0     H 7651   4.711   3.055   2.629  0.0435  0.7099  0.6262
   57MOL0     H 7652   4.756   3.210   2.539 -0.0761 -0.6994 -0.0364
   57MOL0     H 7653   4.641   2.956   2.427 -0.3589  0.8453  1.4045
   57MOL0     H 7654   4.788   3.049   2.378  0.3327 -1.3315 -0.1131
   57MOL0     H 7655   4.609   2.903   2.184 -0.6333 -1.5568  1.8381
   57MOL0     H 7656   4.422   2.764   1.917 -0.3932  1.0445  0.2999
   57MOL0     H 7657   4.565   2.749   2.013  0.0702 -0.8673 -1.3115
   57MOL0     H 7658   4.409   2.692   2.077  0.4784  0.1277  0.8663
   57MOL0     H 7659   4.047   3.160   1.822  0.7215 -0.8890  1.5452
   57MOL0     H 7660   3.883   3.126   1.610 -0.3922  1.1328 -0.3251
   57MOL0     H 7661   3.686   2.747   1.560 -1.4185 -0.2225  0.2122
   57MOL0     H 7662   3.569   2.792   1.688  2.3325 -0.7964  1.8278
   57MOL0     H 7663   3.435   2.921   1.531 -0.2687  0.3665 -0.9014
   57MOL0     H 7664   3.538   2.872   1.397  1.3519  0.2979  0.4490
   57MOL0     H 7665   3.378   2.688   1.570 -1.3525 -1.6801 -1.2686
   57MOL0     H 7666   3.461   2.635   1.417  1.4503  0.0115  1.6040
   57MOL0     H 7667   3.211   2.810   1.442 -0.2293  1.4460 -1.1144
   57MOL0     H 7668   3.317   2.794   1.294  1.0653 -2.5238 -0.4548
   57MOL0     H 7669   3.172   2.552   1.427  1.4623  0.0626  0.4920
   57MOL0     H 7670   3.279   2.551   1.293  0.7901  1.7925 -1.7893
   57MOL0     H 7671   3.129   2.702   1.154 -1.4032  0.4030  0.0583
   57MOL0     H 7672   3.052   2.551   1.217 -0.6370 -0.9035 -0.9912
   57MOL0     H 7673   2.996   2.823   1.323  2.6015 -0.4534  1.5626
   57MOL0     H 7674   2.935   2.685   1.393 -0.1576  1.2012  0.7580
   57MOL0     H 7675   2.854   2.619   1.160  4.1872 -0.5717  2.9133
   57MOL0     H 7676   2.866   2.797   1.121 -2.3966  2.9424  1.4549
   57MOL0     H 7677   3.690   2.834   1.846  0.6075 -0.2744  2.6536
   57MOL0     H 7678   3.868   2.856   2.018  0.4329  2.2725  1.0930
   57MOL0     H 7679   4.191   3.156   2.146 -0.3386 -0.3219 -0.3681
   57MOL0     H 7680   4.358   3.231   2.300  1.1814  0.6201  0.4077
   57MOL0     H 7681   3.053   3.564   2.770  3.1682  0.0853 -0.5430
   57MOL0     H 7682   2.841   3.512   2.656 -0.0851 -0.6787  1.2851
   57MOL0     H 7683   2.727   3.268   2.217  0.8881  0.2961  0.0818
   57MOL0     H 7684   2.581   3.242   2.014 -2.2794  0.1133 -0.8129
   57MOL0     H 7685   2.346   3.561   1.833 -1.4517 -1.0945 -2.7914
   57MOL0     H 7686   2.497   3.486   1.803  0.4009 -2.5648  1.0971
   57MOL0     H 7687   2.227   3.384   1.705  0.2258  2.7090 -0.0804
   57MOL0     H 7688   2.368   3.269   1.725  5.0136  1.1633  0.2071
   57MOL0     H 7689   2.382   3.319   1.494 -0.0009  0.9733 -1.2621
   57MOL0     H 7690   2.512   3.373   1.594 -0.6010 -2.3596  1.3867
   57MOL0     H 7691   2.418   3.530   1.412 -0.7565 -0.2477  0.1548
   57MOL0     H 7692   2.479   3.593   1.556  0.8152  0.3114 -3.1592
   57MOL0     H 7693   2.060   3.708   1.548 -0.8082 -1.0865 -2.6853
   57MOL0     H 7694   2.353   3.581   2.118  0.5525  0.0319 -1.6757
   57MOL0     H 7695   2.482   3.620   2.308  0.0752  2.4279 -1.2694
   58MOL0     O 7696   1.438  10.836   5.920 -0.2885 -0.4926  0.1715
   58MOL0     C 7697   1.469  10.724   5.879  1.1433 -0.1176  0.0447
   58MOL0     O 7698   1.382  10.626   5.851 -0.4594 -0.0483 -0.1398
   58MOL0     C 7699   1.254  10.661   5.842  0.6832  0.0346 -0.3757
   58MOL0     C 7700   1.197  10.760   5.750 -0.9924 -1.4507 -0.2479
   58MOL0     C 7701   1.064  10.799   5.758  0.1113  1.0845  0.2921
   58MOL0     C 7702   0.974  10.727   5.845 -0.5982 -0.9055  0.0208
   58MOL0     O 7703   0.844  10.761   5.873 -0.2256  0.2445  0.5388
   58MOL0     C 7704   0.796  10.889   5.827  0.1810 -0.2559  0.0794
   58MOL0     C 7705   0.652  10.909   5.876  0.1204  0.3208  0.0384
   58MOL0     C 7706   0.564  10.783   5.842 -0.1529 -0.2920 -1.3469
   58MOL0     C 7707   0.420  10.817   5.858  0.0500 -0.4170 -0.3466
   58MOL0     C 7708   0.328  10.690   5.839 -0.0524 -0.0892  0.5526
   58MOL0     C 7709   0.336  10.602   5.714  0.9190 -0.5613 -0.4736
   58MOL0     C 7710   0.308  10.684   5.589  0.5625 -0.0505  0.7253
   58MOL0     C 7711   0.279  10.587   5.476  0.6059 -0.2487 -0.6193
   58MOL0     N 7712   0.180  10.638   5.382  0.0863  0.1042 -0.0816
   58MOL0     C 7713   0.220  10.697   5.258  0.9188 -0.9284  0.3667
   58MOL0     C 7714   0.113  10.740   5.199  0.1987  1.0832 -0.0387
   58MOL0     C 7715   0.114  10.818   5.070  0.4305 -0.2544  0.1440
   58MOL0     C 7716  -0.033  10.829   5.025  0.0252  0.3918 -0.0261
   58MOL0     C 7717  -0.050  10.957   4.946  0.2658 -0.0569 -0.0795
   58MOL0     C 7718  -0.187  10.956   4.877 -0.2740 -0.5195  0.2291
   58MOL0     O 7719  -0.286  10.960   4.978  0.4996  0.2874  0.6966
   58MOL0     C 7720  -0.420  10.977   4.949 -0.6243  0.0360 -0.7046
   58MOL0     C 7721  -0.514  10.953   5.056 -0.4336 -0.4422 -0.1819
   58MOL0     C 7722  -0.652  10.967   5.030 -0.3670  0.3856  0.8645
   58MOL0     C 7723  -0.746  10.950   5.150 -0.3812 -0.1332 -0.1358
   58MOL0     C 7724  -0.702  11.002   4.902 -0.3118  0.5910  0.5110
   58MOL0     C 7725  -0.842  11.041   4.871 -0.1337  0.0190 -0.1531
   58MOL0     O 7726  -0.860  11.116   4.756 -0.0538 -0.2957 -0.5398
   58MOL0     C 7727  -0.996  11.146   4.735  0.3441 -0.0332  0.6986
   58MOL0     C 7728  -1.079  11.067   4.655  0.9564 -0.0693 -0.0682
   58MOL0     C 7729  -1.206  11.121   4.626  0.0104 -0.2683  0.6870
   58MOL0     C 7730  -1.262  11.237   4.685  0.1201  0.2715 -0.3803
   58MOL0     O 7731  -1.387  11.282   4.680 -0.0202 -0.2688 -0.1940
   58MOL0     C 7732  -1.495  11.181   4.696 -0.1048 -0.0147 -0.2416
   58MOL0     C 7733  -1.608  11.250   4.768 -0.3123 -0.0385  0.6583
   58MOL0     C 7734  -1.723  11.158   4.793  0.2645 -1.0584 -0.5774
   58MOL0     C 7735  -1.837  11.206   4.709 -0.1290 -1.3483  0.4746
   58MOL0     C 7736  -1.975  11.136   4.718  0.0443  0.6423  0.4599
   58MOL0     C 7737  -1.980  10.994   4.651 -0.0440  0.6420  0.4927
   58MOL0     C 7738  -1.955  10.990   4.496  0.1132  0.4381 -0.4128
   58MOL0     C 7739  -2.024  10.873   4.420 -0.4779 -0.0795 -0.6133
   58MOL0    Cl 7740  -1.949  10.708   4.463 -0.2213 -0.7000  0.0433
   58MOL0     C 7741  -1.177  11.313   4.768 -0.6174 -0.2600 -0.4072
   58MOL0     C 7742  -1.043  11.272   4.792  0.9512 -0.2922 -0.2892
   58MOL0     O 7743  -0.932  10.999   4.939 -0.2030 -0.3498  0.1515
   58MOL0     C 7744  -0.608  11.017   4.801  0.8972  0.1612  0.0291
   58MOL0     C 7745  -0.472  11.001   4.818 -0.2803  0.1997  0.3078
   58MOL0     N 7746   0.009  10.676   5.265 -0.6609  0.7515  0.0401
   58MOL0     N 7747   0.041  10.619   5.380 -0.1962  0.0693 -0.2963
   58MOL0     C 7748   1.029  10.627   5.928 -0.4174 -0.1476  0.7965
   58MOL0     C 7749   1.164  10.596   5.922  0.1510 -0.5632 -0.0606
   58MOL0     C 7750   1.612  10.707   5.852 -0.0767  0.4073  0.2591
   58MOL0     C 7751   1.653  10.594   5.774  0.2989 -0.3241 -0.4170
   58MOL0     C 7752   1.779  10.586   5.729 -0.1110 -0.4837 -0.0285
   58MOL0     C 7753   1.880  10.676   5.775  0.1341 -0.2695  0.0830
   58MOL0     O 7754   2.017  10.676   5.729  0.1958  0.0101  0.0037
   58MOL0     C 7755   2.052  10.604   5.604  0.0518  0.0878  0.1517
   58MOL0     C 7756   2.041  10.696   5.484  0.2358 -0.0960  0.5054
   58MOL0     C 7757   2.155  10.805   5.483  0.0995  0.5089 -0.3823
   58MOL0     C 7758   2.108  10.914   5.380 -0.6235  0.0907 -0.3254
   58MOL0     C 7759   2.136  10.885   5.238  0.8378 -0.7056  0.1556
   58MOL0     C 7760   2.153  10.883   5.116 -0.0479  0.7923 -0.2582
   58MOL0     C 7761   1.841  10.773   5.877  0.9720  0.3827  0.0370
   58MOL0     C 7762   1.707  10.796   5.912 -0.7750  0.0181 -0.2723
   58MOL0     H 7763   1.265  10.811   5.683 -0.0488 -0.7329  1.1830
   58MOL0     H 7764   1.039  10.889   5.702 -1.3423  1.2045  1.0822
   58MOL0     H 7765   0.868  10.966   5.856  2.2767 -1.6360 -1.1558
   58MOL0     H 7766   0.796  10.895   5.718 -0.4715 -0.2991  0.0739
   58MOL0     H 7767   0.660  10.933   5.983 -1.6108  0.4687  0.1520
   58MOL0     H 7768   0.615  11.002   5.833 -1.6378 -0.1179  0.5355
   58MOL0     H 7769   0.580  10.752   5.738  0.1723  1.8473 -1.9878
   58MOL0     H 7770   0.586  10.696   5.904 -1.5077 -1.3831 -2.3533
   58MOL0     H 7771   0.399  10.865   5.954 -0.7491 -2.0390  0.3430
   58MOL0     H 7772   0.385  10.880   5.776  1.6834  0.6573 -0.2540
   58MOL0     H 7773   0.360  10.620   5.916  1.0597 -1.1413 -0.8259
   58MOL0     H 7774   0.222  10.720   5.841 -0.6034 -1.0439 -4.0161
   58MOL0     H 7775   0.431  10.552   5.694  2.1754  2.0126 -1.4807
   58MOL0     H 7776   0.260  10.526   5.735  1.0514 -0.3607  0.8113
   58MOL0     H 7777   0.223  10.750   5.608 -0.1493  0.3725 -3.0932
   58MOL0     H 7778   0.397  10.737   5.552  0.0025  0.4823  0.1284
   58MOL0     H 7779   0.246  10.490   5.517  2.6392  0.6560  3.7585
   58MOL0     H 7780   0.374  10.564   5.428  0.9426  1.3026 -0.7398
   58MOL0     H 7781   0.325  10.714   5.235  0.9667 -1.1276  0.4308
   58MOL0     H 7782   0.155  10.919   5.078 -2.4621  1.1450 -1.0766
   58MOL0     H 7783   0.170  10.755   5.001 -1.4280 -2.9331  0.9095
   58MOL0     H 7784  -0.106  10.814   5.105  0.7744 -3.6460  0.0781
   58MOL0     H 7785  -0.048  10.744   4.959 -0.3939  0.0132  0.5502
   58MOL0     H 7786   0.032  10.969   4.875 -0.7250  3.3340 -0.8708
   58MOL0     H 7787  -0.033  11.029   5.027 -0.5958  0.1767 -0.0983
   58MOL0     H 7788  -0.198  10.868   4.813 -3.3185 -1.5531  1.9712
   58MOL0     H 7789  -0.204  11.038   4.805  4.5513 -0.7310 -1.5618
   58MOL0     H 7790  -0.476  10.920   5.153  0.5957  0.0532 -0.4157
   58MOL0     H 7791  -0.829  10.881   5.134  0.5240 -0.6062 -3.4672
   58MOL0     H 7792  -0.693  10.894   5.228 -0.7192 -1.5988 -0.9274
   58MOL0     H 7793  -0.785  11.049   5.177  1.4725  0.5873  0.0820
   58MOL0     H 7794  -1.048  10.976   4.605 -1.3415 -0.6754 -0.4965
   58MOL0     H 7795  -1.282  11.066   4.572  0.7181  1.6821 -2.5780
   58MOL0     H 7796  -1.522  11.146   4.596  0.8227  0.2680 -0.6043
   58MOL0     H 7797  -1.458  11.099   4.758 -0.7633 -1.1301 -1.2807
   58MOL0     H 7798  -1.568  11.284   4.864  0.4284  0.1810  0.2807
   58MOL0     H 7799  -1.640  11.338   4.712  2.6365 -1.0447 -3.0612
   58MOL0     H 7800  -1.761  11.152   4.895  0.5559  1.0153 -0.3086
   58MOL0     H 7801  -1.695  11.054   4.773 -1.3251 -1.5830 -0.2367
   58MOL0     H 7802  -1.858  11.314   4.712  0.8136 -1.1134 -0.5629
   58MOL0     H 7803  -1.807  11.210   4.604 -0.3090 -0.0051  0.4469
   58MOL0     H 7804  -2.048  11.188   4.656 -1.3317 -2.0895 -0.3833
   58MOL0     H 7805  -2.027  11.135   4.814 -1.7070  2.0872 -0.4249
   58MOL0     H 7806  -1.912  10.928   4.705 -1.5801  0.1700  1.9488
   58MOL0     H 7807  -2.075  10.942   4.672  1.6884 -2.5999  1.0029
   58MOL0     H 7808  -1.849  10.967   4.479  0.4225 -2.5201  3.9118
   58MOL0     H 7809  -1.996  11.083   4.455 -2.4591  0.2349  1.5188
   58MOL0     H 7810  -2.003  10.885   4.313  0.2623 -2.0794 -0.7361
   58MOL0     H 7811  -2.130  10.850   4.431 -0.2470 -0.6590  0.6656
   58MOL0     H 7812  -1.210  11.404   4.818 -2.0442 -0.9748  0.0204
   58MOL0     H 7813  -0.973  11.323   4.858  0.5331 -1.6537  1.2785
   58MOL0     H 7814  -0.637  11.026   4.696  2.0473 -0.4567 -0.3517
   58MOL0     H 7815  -0.402  11.027   4.740  1.5150 -1.9062  1.0970
   58MOL0     H 7816   0.960  10.583   5.999 -2.4312  0.2593 -0.8142
   58MOL0     H 7817   1.198  10.525   5.997  1.3863 -0.2379 -0.2775
   58MOL0     H 7818   1.582  10.526   5.728  0.5105 -1.1180  0.3967
   58MOL0     H 7819   1.802  10.507   5.658  1.0403 -2.2576  2.1787
   58MOL0     H 7820   2.152  10.561   5.613 -0.4586 -0.8538  1.7411
   58MOL0     H 7821   1.988  10.517   5.593  1.5300 -1.1898  1.2417
   58MOL0     H 7822   1.943  10.746   5.483 -0.9298 -2.1907 -1.8386
   58MOL0     H 7823   2.043  10.627   5.399 -0.0151  0.2466  0.2148
   58MOL0     H 7824   2.250  10.761   5.453 -0.4160 -0.6316 -0.4145
   58MOL0     H 7825   2.154  10.842   5.586 -1.3528  2.1413 -0.9466
   58MOL0     H 7826   2.157  11.007   5.411  0.0034  0.8191 -3.2240
   58MOL0     H 7827   2.006  10.948   5.401 -0.0999  1.9379 -0.5539
   58MOL0     H 7828   2.156  10.889   5.009 -0.9743  0.0196 -0.3389
   58MOL0     H 7829   1.920  10.836   5.917  0.5823  2.8593 -2.7105
   58MOL0     H 7830   1.677  10.865   5.990  3.9516  2.6098 -0.3322
   59MOL0     O 7831   1.591   1.335   9.479  0.1797  0.4313 -0.1197
   59MOL0     C 7832   1.570   1.221   9.444  1.2291 -0.0842  0.4044
   59MOL0     O 7833   1.446   1.161   9.446 -0.4133 -0.5924  0.3148
   59MOL0     C 7834   1.341   1.236   9.497 -0.7177 -0.0611 -0.5470
   59MOL0     C 7835   1.344   1.329   9.602  0.3515  0.1920  0.1182
   59MOL0     C 7836   1.231   1.402   9.632  0.9210 -1.7065  0.5947
   59MOL0     C 7837   1.113   1.387   9.567  0.3489 -0.0473  0.5005
   59MOL0     O 7838   1.003   1.471   9.580  0.1417 -0.0238 -0.6436
   59MOL0     C 7839   0.915   1.497   9.466  0.4261 -0.0764 -0.0997
   59MOL0     C 7840   0.887   1.647   9.443 -0.0582  0.4295 -0.1522
   59MOL0     C 7841   1.018   1.725   9.427  0.5712  0.0008  0.3152
   59MOL0     C 7842   1.075   1.771   9.558 -0.2598 -0.1007 -0.2261
   59MOL0     C 7843   1.229   1.762   9.574  0.3959  0.2661  0.2530
   59MOL0     C 7844   1.271   1.820   9.713  0.0148 -0.2528  0.3364
   59MOL0     C 7845   1.416   1.871   9.731 -0.1883 -0.1876 -0.4780
   59MOL0     C 7846   1.520   1.763   9.691 -0.0781  0.3565 -0.2151
   59MOL0     N 7847   1.656   1.815   9.705 -0.4383  0.1629  0.4228
   59MOL0     C 7848   1.729   1.892   9.611 -0.0515  0.4020  0.0705
   59MOL0     C 7849   1.854   1.882   9.663 -0.1865  0.5794 -0.0921
   59MOL0     C 7850   1.970   1.958   9.598  0.1978  0.8153 -0.5846
   59MOL0     C 7851   2.011   2.066   9.696 -0.9923 -0.3843  0.1095
   59MOL0     C 7852   2.085   2.193   9.632  0.2104 -0.7026 -0.2031
   59MOL0     C 7853   1.992   2.308   9.609  0.3892  0.0224  0.4829
   59MOL0     O 7854   1.886   2.265   9.523 -0.9903 -0.3607 -0.0989
   59MOL0     C 7855   1.772   2.343   9.499 -0.2254 -0.6435 -0.4861
   59MOL0     C 7856   1.751   2.473   9.556  0.2235  0.3528  0.4640
   59MOL0     C 7857   1.624   2.535   9.553  0.3510  0.9597  0.0171
   59MOL0     C 7858   1.606   2.656   9.645  0.2596 -0.4690 -0.0503
   59MOL0     C 7859   1.521   2.479   9.467 -0.3944 -0.3054  0.6583
   59MOL0     C 7860   1.385   2.540   9.445 -0.1921  0.1487 -1.0014
   59MOL0     O 7861   1.301   2.476   9.362 -0.0789  0.1661  0.4402
   59MOL0     C 7862   1.171   2.519   9.337 -0.0047 -0.9899 -0.6181
   59MOL0     C 7863   1.062   2.443   9.387  0.2521 -0.2098  0.2329
   59MOL0     C 7864   0.929   2.484   9.374  0.2874  0.0468 -0.4621
   59MOL0     C 7865   0.902   2.608   9.319  0.3691  0.0094  0.6667
   59MOL0     O 7866   0.772   2.648   9.293  0.1499  0.0996 -0.8156
   59MOL0     C 7867   0.747   2.778   9.242 -0.5781  0.1479 -0.3944
   59MOL0     C 7868   0.778   2.899   9.327  0.1540 -0.6719  1.4883
   59MOL0     C 7869   0.773   2.868   9.479  0.5514  0.5111 -0.0685
   59MOL0     C 7870   0.824   2.981   9.575 -0.7565  0.3212 -0.6482
   59MOL0     C 7871   0.984   2.970   9.584  0.3900  0.6727 -0.0911
   59MOL0     C 7872   1.024   2.837   9.652 -0.3121 -0.6517 -0.4104
   59MOL0     C 7873   1.174   2.839   9.700 -0.2766  0.0573  0.1332
   59MOL0     C 7874   1.197   2.723   9.787 -0.1863  1.1234  0.1223
   59MOL0    Cl 7875   1.126   2.745   9.957  0.0090 -0.2080  0.0805
   59MOL0     C 7876   1.007   2.691   9.263  0.2725  0.3074  0.6497
   59MOL0     C 7877   1.136   2.643   9.276 -0.2252  1.1078 -1.2053
   59MOL0     O 7878   1.355   2.640   9.510 -0.0379 -0.6072  0.8058
   59MOL0     C 7879   1.547   2.356   9.407 -0.3608 -0.4086 -0.4317
   59MOL0     C 7880   1.673   2.292   9.416 -0.3137 -1.0697  0.1498
   59MOL0     N 7881   1.854   1.805   9.780 -1.0881 -0.0126  0.2196
   59MOL0     N 7882   1.734   1.762   9.802  0.4378 -0.3411 -0.1981
   59MOL0     C 7883   1.103   1.288   9.476 -0.3632 -0.0354  0.1535
   59MOL0     C 7884   1.215   1.206   9.441 -0.5998 -0.8647  0.5747
   59MOL0     C 7885   1.691   1.157   9.383  0.3284 -0.6354 -1.5499
   59MOL0     C 7886   1.687   1.026   9.393 -0.8435  0.7371 -0.6046
   59MOL0     C 7887   1.799   0.958   9.369  0.1577  0.1713 -0.0468
   59MOL0     C 7888   1.918   1.011   9.323  0.9038  0.5077 -0.6777
   59MOL0     O 7889   2.023   0.924   9.303 -0.1666 -0.0592  0.1562
   59MOL0     C 7890   2.152   0.947   9.354 -0.0728  0.0675 -0.0103
   59MOL0     C 7891   2.169   0.918   9.501 -0.2224 -0.4106  0.2987
   59MOL0     C 7892   2.076   0.999   9.590 -0.2893 -0.1259 -0.2041
   59MOL0     C 7893   2.122   0.986   9.735 -0.2019 -0.9031  0.1485
   59MOL0     C 7894   2.257   1.032   9.766  1.2560  0.5269 -0.2121
   59MOL0     C 7895   2.366   1.088   9.778 -0.3706  0.2440 -0.6762
   59MOL0     C 7896   1.924   1.149   9.304  0.1360 -0.4125 -0.4864
   59MOL0     C 7897   1.818   1.224   9.352  0.0025 -0.5146 -0.3707
   59MOL0     H 7898   1.435   1.340   9.662  1.2046  0.8774 -1.2561
   59MOL0     H 7899   1.239   1.482   9.705  0.0123 -0.2688 -0.8132
   59MOL0     H 7900   0.966   1.464   9.375  5.1485 -0.6461  2.5043
   59MOL0     H 7901   0.821   1.443   9.485  2.0079 -3.3002 -0.7591
   59MOL0     H 7902   0.825   1.663   9.355 -0.7541  0.3058  0.3090
   59MOL0     H 7903   0.833   1.676   9.534 -1.5199 -1.0094 -0.5170
   59MOL0     H 7904   1.091   1.666   9.370 -2.2598 -2.4258 -1.1055
   59MOL0     H 7905   1.005   1.810   9.359  3.3539 -0.9875 -1.6351
   59MOL0     H 7906   1.054   1.877   9.575 -0.2829 -0.4897  2.5444
   59MOL0     H 7907   1.033   1.713   9.640  1.9469 -0.8353  0.4622
   59MOL0     H 7908   1.265   1.660   9.561  3.5076  1.2688  0.3089
   59MOL0     H 7909   1.280   1.823   9.498 -0.3397  0.8763  0.2299
   59MOL0     H 7910   1.202   1.902   9.734  0.6371  0.8467 -1.6384
   59MOL0     H 7911   1.256   1.736   9.782 -1.8028 -2.4412 -2.5025
   59MOL0     H 7912   1.427   1.955   9.662 -2.1822 -2.2776 -3.5995
   59MOL0     H 7913   1.433   1.895   9.837 -0.3452 -0.2802 -0.4312
   59MOL0     H 7914   1.502   1.734   9.587 -1.1081 -3.5583  0.9011
   59MOL0     H 7915   1.516   1.673   9.752 -1.7342 -0.5068 -1.5233
   59MOL0     H 7916   1.705   1.955   9.526  4.3222  3.9492  1.0620
   59MOL0     H 7917   2.054   1.891   9.576  0.4752  0.6891  0.7917
   59MOL0     H 7918   1.927   2.003   9.508 -2.6375  2.3574  1.3930
   59MOL0     H 7919   2.073   2.011   9.768 -0.8087 -4.4203 -2.7838
   59MOL0     H 7920   1.917   2.099   9.741 -2.7626  0.8961 -4.0416
   59MOL0     H 7921   2.126   2.161   9.535  2.4398  3.0639 -0.7059
   59MOL0     H 7922   2.167   2.218   9.699 -1.4362  2.9566  0.6581
   59MOL0     H 7923   2.051   2.382   9.554 -2.1349  0.4296 -1.8520
   59MOL0     H 7924   1.955   2.346   9.705  0.4551  2.9944 -0.5763
   59MOL0     H 7925   1.830   2.512   9.620  2.6644 -0.8837 -1.5907
   59MOL0     H 7926   1.513   2.660   9.703  0.6752 -0.7612  0.6565
   59MOL0     H 7927   1.689   2.658   9.717  2.2656  2.1780 -2.2251
   59MOL0     H 7928   1.613   2.745   9.581 -1.0182  1.1249  1.8919
   59MOL0     H 7929   1.080   2.352   9.444  1.3538  0.2117  0.5876
   59MOL0     H 7930   0.849   2.431   9.425  0.0564  1.3564  0.6016
   59MOL0     H 7931   0.799   2.783   9.146  0.7926  1.9777  0.3840
   59MOL0     H 7932   0.638   2.783   9.232 -0.9501 -0.9920  2.2888
   59MOL0     H 7933   0.879   2.930   9.300  0.4236 -3.4910 -1.4258
   59MOL0     H 7934   0.718   2.986   9.299  1.4635 -0.1194  0.2527
   59MOL0     H 7935   0.805   2.767   9.506  0.0943  1.0765  2.9837
   59MOL0     H 7936   0.666   2.867   9.503  0.9060 -0.4222  1.6415
   59MOL0     H 7937   0.790   3.079   9.538  0.4528  1.3769  0.9134
   59MOL0     H 7938   0.786   2.973   9.678  0.8941  2.9114  0.2742
   59MOL0     H 7939   1.021   3.053   9.645 -0.5120 -0.1658  1.6931
   59MOL0     H 7940   1.029   2.983   9.486  2.8461  1.3931  1.0702
   59MOL0     H 7941   0.963   2.808   9.738 -1.6524  2.5067 -0.1590
   59MOL0     H 7942   1.015   2.748   9.589 -0.5063  0.3629 -1.8436
   59MOL0     H 7943   1.200   2.930   9.754 -1.2854  0.2731  0.2839
   59MOL0     H 7944   1.233   2.836   9.608 -1.1522 -4.8873 -0.5507
   59MOL0     H 7945   1.305   2.706   9.787 -0.4911 -1.1262  0.9391
   59MOL0     H 7946   1.158   2.631   9.742 -1.6851  1.9431 -0.3306
   59MOL0     H 7947   1.000   2.780   9.200  0.2380  1.4561  2.2225
   59MOL0     H 7948   1.208   2.719   9.246 -0.1585  1.5147 -0.0481
   59MOL0     H 7949   1.472   2.306   9.347  1.1994  0.2821 -3.1462
   59MOL0     H 7950   1.723   2.206   9.372  0.3497  0.3801 -2.0730
   59MOL0     H 7951   1.011   1.252   9.431  0.8650 -1.4171 -1.3728
   59MOL0     H 7952   1.200   1.136   9.360 -0.6960 -1.4564  1.0965
   59MOL0     H 7953   1.597   0.974   9.423 -0.9636  0.9231 -0.6360
   59MOL0     H 7954   1.773   0.854   9.390 -4.5953  1.2921  0.6284
   59MOL0     H 7955   2.231   0.904   9.292 -0.2094  2.3995 -1.9831
   59MOL0     H 7956   2.180   1.048   9.321 -1.7695 -0.0697 -2.1694
   59MOL0     H 7957   2.273   0.950   9.514 -0.0041 -0.7807 -0.4256
   59MOL0     H 7958   2.169   0.811   9.524  0.2197 -0.2403  1.1120
   59MOL0     H 7959   1.975   0.958   9.593  0.9313 -3.4853  0.9156
   59MOL0     H 7960   2.071   1.102   9.555 -1.1102 -0.3608 -0.8027
   59MOL0     H 7961   2.110   0.885   9.774 -1.0941 -0.4543  1.0835
   59MOL0     H 7962   2.059   1.052   9.796 -0.3362 -1.4230  0.5816
   59MOL0     H 7963   2.459   1.137   9.799 -1.0474  0.9479  0.9015
   59MOL0     H 7964   2.008   1.209   9.271  1.8999 -0.3078  3.6060
   59MOL0     H 7965   1.812   1.330   9.372 -1.6136 -0.5773 -0.3966
   60MOL0     O 7966   3.894   6.948   4.187 -0.3267  0.7067 -0.3630
   60MOL0     C 7967   3.849   7.048   4.241 -0.4060 -0.0783 -0.0285
   60MOL0     O 7968   3.908   7.171   4.239 -0.5318 -0.3813 -0.2472
   60MOL0     C 7969   4.026   7.193   4.175  0.6894  0.1180 -0.0008
   60MOL0     C 7970   4.048   7.169   4.036  0.2431  0.8494 -1.3092
   60MOL0     C 7971   4.173   7.205   3.977  0.0321  0.3752 -0.7576
   60MOL0     C 7972   4.270   7.262   4.056 -0.5410  0.3705 -0.3241
   60MOL0     O 7973   4.382   7.330   4.011  0.0061  0.5477  1.0335
   60MOL0     C 7974   4.371   7.398   3.883 -0.6691  0.4286  1.1829
   60MOL0     C 7975   4.505   7.458   3.856  0.4637  0.5895  0.6407
   60MOL0     C 7976   4.506   7.544   3.720  0.7055 -0.4984  1.2606
   60MOL0     C 7977   4.616   7.656   3.729  0.3815  0.9661 -0.1013
   60MOL0     C 7978   4.755   7.609   3.676  0.1075 -0.2852 -0.3627
   60MOL0     C 7979   4.758   7.612   3.520  0.4242 -0.3212  0.1767
   60MOL0     C 7980   4.899   7.571   3.458  1.1829  0.1107 -0.7940
   60MOL0     C 7981   4.912   7.588   3.313 -0.0698 -0.5763  0.4889
   60MOL0     N 7982   4.842   7.510   3.219 -0.6350  0.0305 -0.0549
   60MOL0     C 7983   4.894   7.392   3.171 -0.4274  0.0277  0.4756
   60MOL0     C 7984   4.790   7.348   3.094 -0.3553  0.4057 -0.6398
   60MOL0     C 7985   4.788   7.234   3.001  0.0868  0.1700  0.9948
   60MOL0     C 7986   4.866   7.108   3.035 -0.8192  0.0346 -0.0989
   60MOL0     C 7987   4.823   7.050   3.175  0.1032  0.6459 -0.2134
   60MOL0     C 7988   4.678   7.008   3.167  0.0746  0.8365  0.3055
   60MOL0     O 7989   4.628   6.928   3.274  0.9035  0.0626 -0.1661
   60MOL0     C 7990   4.533   6.978   3.358  1.1437  1.1757  0.4231
   60MOL0     C 7991   4.508   7.116   3.379 -0.3122  0.4898  0.2419
   60MOL0     C 7992   4.394   7.159   3.447  0.0825 -0.1867 -0.0305
   60MOL0     C 7993   4.388   7.310   3.447 -0.0110 -0.3859  0.1267
   60MOL0     C 7994   4.303   7.066   3.497  0.4500 -0.3396  0.3773
   60MOL0     C 7995   4.171   7.106   3.557 -0.1758  0.4186  0.0517
   60MOL0     O 7996   4.069   7.026   3.542 -0.7420 -0.5900 -0.0960
   60MOL0     C 7997   3.940   7.079   3.556  0.0920  1.0810  0.1474
   60MOL0     C 7998   3.863   7.028   3.658  0.1355 -0.1359 -0.4444
   60MOL0     C 7999   3.728   7.083   3.687 -0.7267 -0.6991  0.2474
   60MOL0     C 8000   3.679   7.186   3.597  0.7395 -0.6130 -0.5761
   60MOL0     O 8001   3.549   7.233   3.611  0.0253 -0.2485  0.4575
   60MOL0     C 8002   3.463   7.178   3.709 -0.4613 -0.6217  0.6340
   60MOL0     C 8003   3.326   7.238   3.708  0.5766 -0.2299 -0.5098
   60MOL0     C 8004   3.256   7.200   3.570 -0.2980  0.1495  0.1066
   60MOL0     C 8005   3.118   7.263   3.558 -0.3317 -0.3871  0.0313
   60MOL0     C 8006   3.115   7.388   3.464  0.5645 -0.2663  0.3640
   60MOL0     C 8007   2.982   7.463   3.468 -0.5565 -0.8030 -0.0794
   60MOL0     C 8008   2.862   7.384   3.405  0.0381  0.0887  0.7543
   60MOL0     C 8009   2.732   7.461   3.391 -0.4461  0.9327  0.0865
   60MOL0    Cl 8010   2.598   7.351   3.349  0.2913 -0.0194  0.3198
   60MOL0     C 8011   3.757   7.236   3.493 -0.2019 -0.0560  0.3660
   60MOL0     C 8012   3.885   7.179   3.471 -0.0567 -0.1474 -0.9087
   60MOL0     O 8013   4.166   7.213   3.615  0.1468 -0.6338  0.4079
   60MOL0     C 8014   4.332   6.925   3.478  0.6709  0.5623 -0.1845
   60MOL0     C 8015   4.448   6.880   3.405  0.5614 -0.7507  0.0016
   60MOL0     N 8016   4.679   7.430   3.113  0.9793 -0.2215  0.2143
   60MOL0     N 8017   4.712   7.522   3.194 -0.1009 -0.0253  0.4545
   60MOL0     C 8018   4.258   7.262   4.195 -0.5552  0.3449 -0.3367
   60MOL0     C 8019   4.136   7.224   4.257  1.0859 -0.0447  0.0524
   60MOL0     C 8020   3.728   7.035   4.325  0.4896 -0.3818  0.8726
   60MOL0     C 8021   3.670   7.149   4.377  0.0602  0.6000 -0.4205
   60MOL0     C 8022   3.562   7.140   4.465 -0.1605  0.3769  0.3287
   60MOL0     C 8023   3.495   7.017   4.462  0.5566 -0.3126  0.7629
   60MOL0     O 8024   3.377   7.020   4.533 -0.0963  0.5007  0.0772
   60MOL0     C 8025   3.286   6.920   4.515  0.5202 -0.0187  0.1529
   60MOL0     C 8026   3.138   6.959   4.550  0.4386 -0.0367 -0.7861
   60MOL0     C 8027   3.028   6.846   4.525 -0.8885 -0.2157 -0.1425
   60MOL0     C 8028   2.889   6.890   4.579 -0.7893  0.3407  0.2331
   60MOL0     C 8029   2.787   6.798   4.545  0.2644 -0.2089 -0.5635
   60MOL0     C 8030   2.690   6.734   4.506 -0.2539 -0.1470  0.1360
   60MOL0     C 8031   3.545   6.906   4.411  0.0680  0.1535  0.9231
   60MOL0     C 8032   3.665   6.912   4.339  0.7470  0.8503 -0.6185
   60MOL0     H 8033   3.970   7.142   3.965  0.3064 -0.7845 -0.8021
   60MOL0     H 8034   4.189   7.213   3.870 -0.7412  0.7318 -0.8474
   60MOL0     H 8035   4.353   7.326   3.803  2.0537  0.1694  0.7101
   60MOL0     H 8036   4.300   7.480   3.895  1.3585  2.7105 -1.2022
   60MOL0     H 8037   4.530   7.519   3.943  0.8584 -0.7700  1.4996
   60MOL0     H 8038   4.581   7.381   3.841 -0.5485 -0.4532  0.6874
   60MOL0     H 8039   4.526   7.491   3.627 -0.7596  1.4563 -0.2545
   60MOL0     H 8040   4.406   7.584   3.703  0.7291  0.3000  2.8346
   60MOL0     H 8041   4.578   7.736   3.665 -2.8551  0.0781  0.5096
   60MOL0     H 8042   4.627   7.704   3.826  1.6748  0.1822  0.1662
   60MOL0     H 8043   4.823   7.684   3.717 -0.1445  1.0480 -2.2539
   60MOL0     H 8044   4.771   7.513   3.726  2.7427  0.7045  0.9126
   60MOL0     H 8045   4.682   7.549   3.473 -2.1955  1.2100  2.1066
   60MOL0     H 8046   4.753   7.721   3.505  1.2798 -0.3505 -0.4052
   60MOL0     H 8047   4.983   7.622   3.505  3.0155 -1.0343 -2.6964
   60MOL0     H 8048   4.913   7.463   3.471  2.1144  0.3633  0.4265
   60MOL0     H 8049   5.017   7.569   3.289 -0.5589 -1.7524 -0.9078
   60MOL0     H 8050   4.895   7.692   3.286  1.9091 -0.1798  0.5998
   60MOL0     H 8051   4.993   7.354   3.195  0.2548  1.1773 -0.3792
   60MOL0     H 8052   4.685   7.204   2.976  1.1248 -1.5358 -1.6726
   60MOL0     H 8053   4.810   7.264   2.898 -0.6281 -0.4389  0.6469
   60MOL0     H 8054   4.972   7.134   3.042 -1.2042  1.7724 -0.2244
   60MOL0     H 8055   4.842   7.027   2.966  0.0471  0.7272 -1.2456
   60MOL0     H 8056   4.847   7.098   3.270 -0.9162  0.1344  0.3264
   60MOL0     H 8057   4.873   6.953   3.179 -1.0352  0.0447  0.1255
   60MOL0     H 8058   4.664   6.946   3.078  2.0298  0.3014  0.3337
   60MOL0     H 8059   4.617   7.099   3.160 -0.6261  0.4647  1.3615
   60MOL0     H 8060   4.579   7.181   3.329  0.0680 -1.3132 -1.6993
   60MOL0     H 8061   4.300   7.341   3.390  1.1600  0.8549 -1.0931
   60MOL0     H 8062   4.372   7.356   3.545 -1.4615 -2.4849  0.9382
   60MOL0     H 8063   4.473   7.354   3.394 -0.7263  0.1472 -0.5935
   60MOL0     H 8064   3.903   6.949   3.722  1.8886  0.4701 -0.7375
   60MOL0     H 8065   3.672   7.028   3.763  0.3342 -3.1242 -0.6159
   60MOL0     H 8066   3.463   7.069   3.696 -1.0963 -0.9402  2.9293
   60MOL0     H 8067   3.512   7.209   3.801  1.3502 -3.1541  0.6207
   60MOL0     H 8068   3.258   7.200   3.786 -2.3615  0.6110 -2.4906
   60MOL0     H 8069   3.328   7.346   3.723  1.3806 -0.0310 -1.9381
   60MOL0     H 8070   3.241   7.092   3.562 -0.4453 -0.0511  2.5935
   60MOL0     H 8071   3.314   7.234   3.483 -0.7587 -0.7729 -0.5795
   60MOL0     H 8072   3.050   7.182   3.527 -0.4415 -0.4717  0.4884
   60MOL0     H 8073   3.091   7.300   3.657  1.9515  0.5196  0.3715
   60MOL0     H 8074   3.141   7.356   3.363  0.0436 -3.7649  1.1810
   60MOL0     H 8075   3.198   7.448   3.502  1.6101 -0.5339 -1.3913
   60MOL0     H 8076   2.952   7.485   3.571 -0.2829 -1.9646  0.2558
   60MOL0     H 8077   3.003   7.554   3.411 -0.4487 -1.4411 -1.0755
   60MOL0     H 8078   2.835   7.299   3.469  1.7201 -1.0562  0.0209
   60MOL0     H 8079   2.894   7.350   3.306  1.0743  0.1514  1.0545
   60MOL0     H 8080   2.739   7.534   3.310 -3.5248  1.1969 -0.0547
   60MOL0     H 8081   2.703   7.508   3.486  0.6985  0.9721  0.4404
   60MOL0     H 8082   3.723   7.316   3.429 -1.0208 -0.9788 -0.3879
   60MOL0     H 8083   3.947   7.215   3.389  1.4717 -0.6055  0.0183
   60MOL0     H 8084   4.255   6.862   3.521 -0.8334  3.0634  0.9687
   60MOL0     H 8085   4.462   6.777   3.373  2.6234 -0.1295 -1.2868
   60MOL0     H 8086   4.345   7.291   4.252 -0.1362  0.3914 -0.9875
   60MOL0     H 8087   4.130   7.241   4.364 -2.4795  1.1529 -0.2282
   60MOL0     H 8088   3.715   7.245   4.354  1.7469 -0.2615 -0.9566
   60MOL0     H 8089   3.526   7.227   4.518  0.6796  1.2885 -0.5564
   60MOL0     H 8090   3.292   6.887   4.410  3.4953 -3.6367  1.2509
   60MOL0     H 8091   3.313   6.835   4.578 -0.7881  1.5641  3.0183
   60MOL0     H 8092   3.109   7.042   4.485 -0.1501 -0.5591 -1.2118
   60MOL0     H 8093   3.146   6.986   4.656 -0.5380  0.5025 -0.8389
   60MOL0     H 8094   3.057   6.753   4.575 -1.6610  0.0464  0.8351
   60MOL0     H 8095   3.029   6.833   4.416  0.4605 -0.0671 -0.1631
   60MOL0     H 8096   2.865   6.986   4.531 -2.2417  0.1455  0.5317
   60MOL0     H 8097   2.903   6.900   4.687  2.0869  0.4818 -0.0634
   60MOL0     H 8098   2.613   6.675   4.461 -1.2628  2.4410 -1.7878
   60MOL0     H 8099   3.489   6.814   4.425  0.7192  0.1399  4.3391
   60MOL0     H 8100   3.705   6.815   4.311  1.6713 -0.8516  5.2358
   61MOL0     O 8101   6.996   5.722   9.759 -0.2379 -0.6949  0.6068
   61MOL0     C 8102   7.054   5.695   9.866 -0.3724 -0.2823 -0.3705
   61MOL0     O 8103   7.020   5.749   9.984  0.3937 -0.0566 -0.2958
   61MOL0     C 8104   6.906   5.833   9.996 -0.0467  0.2745 -0.2221
   61MOL0     C 8105   6.921   5.946  10.083 -0.0319  0.7125 -0.3372
   61MOL0     C 8106   6.820   6.038  10.097 -0.2586 -0.3927 -0.5009
   61MOL0     C 8107   6.696   6.012  10.034  0.0612 -0.3470 -0.2664
   61MOL0     O 8108   6.609   6.109  10.052  0.3390  0.8910 -0.3596
   61MOL0     C 8109   6.541   6.156   9.930 -0.3900 -1.6681 -0.0830
   61MOL0     C 8110   6.474   6.285   9.940 -0.3291 -1.2183  0.5853
   61MOL0     C 8111   6.347   6.287  10.030 -0.0442 -0.7534 -0.4559
   61MOL0     C 8112   6.377   6.303  10.174  0.0568 -0.3861 -0.2650
   61MOL0     C 8113   6.259   6.328  10.262 -0.4294  0.3228  0.1567
   61MOL0     C 8114   6.211   6.473  10.241 -0.3586 -0.2492 -0.2890
   61MOL0     C 8115   6.113   6.530  10.350 -0.0559 -0.7591  0.7354
   61MOL0     C 8116   5.984   6.455  10.341 -0.5477  0.0015 -0.4066
   61MOL0     N 8117   5.913   6.471  10.213  0.1474  0.3951 -0.5265
   61MOL0     C 8118   5.826   6.568  10.172 -0.2914  0.1301 -0.6310
   61MOL0     C 8119   5.789   6.528  10.044  0.4321  1.3607 -0.5445
   61MOL0     C 8120   5.693   6.606   9.960 -0.3603  0.3551 -0.8892
   61MOL0     C 8121   5.767   6.728   9.906 -0.6616  0.1260  0.1010
   61MOL0     C 8122   5.708   6.784   9.775 -0.0245  0.3126  0.0721
   61MOL0     C 8123   5.577   6.867   9.802 -0.6182 -0.7687 -1.4217
   61MOL0     O 8124   5.479   6.774   9.830 -0.0413 -0.2104 -0.2048
   61MOL0     C 8125   5.353   6.815   9.859 -0.1733 -0.8622 -0.0719
   61MOL0     C 8126   5.293   6.765   9.981 -0.0890  0.8917 -0.0075
   61MOL0     C 8127   5.165   6.798  10.019  0.1253 -0.9203  0.4257
   61MOL0     C 8128   5.109   6.731  10.140  0.6743 -0.2269  0.4309
   61MOL0     C 8129   5.099   6.909   9.951 -0.0313 -0.8019  0.6672
   61MOL0     C 8130   4.972   6.978  10.000  0.8693  0.4251 -0.5574
   61MOL0     O 8131   4.982   7.034  10.118  0.2602 -0.4470  0.5049
   61MOL0     C 8132   4.864   7.095  10.155  0.7311 -0.3147 -0.0836
   61MOL0     C 8133   4.820   7.211  10.100  0.9696 -0.4396 -0.1049
   61MOL0     C 8134   4.705   7.273  10.153  0.0769 -0.1593  0.0401
   61MOL0     C 8135   4.641   7.226  10.272 -0.4273  0.5089  0.2265
   61MOL0     O 8136   4.534   7.293  10.320 -0.7228  1.2369 -0.0544
   61MOL0     C 8137   4.444   7.232  10.413 -0.6274  0.7103  0.3042
   61MOL0     C 8138   4.497   7.255  10.563 -0.1914  0.8147 -0.4447
   61MOL0     C 8139   4.375   7.245  10.649 -0.3105 -0.3643  0.2857
   61MOL0     C 8140   4.413   7.293  10.797 -0.3083  0.4779  0.4581
   61MOL0     C 8141   4.296   7.282  10.894 -0.3943 -0.1885  0.2529
   61MOL0     C 8142   4.277   7.139  10.943 -0.1505  0.4618  0.3715
   61MOL0     C 8143   4.212   7.117  11.080 -0.0285  1.6153  0.4375
   61MOL0     C 8144   4.095   7.202  11.101 -0.0279  0.3193 -0.2550
   61MOL0    Cl 8145   3.961   7.135  10.997 -0.2647 -0.1632  0.0193
   61MOL0     C 8146   4.692   7.109  10.322  0.9845 -0.7009  0.4587
   61MOL0     C 8147   4.805   7.041  10.273 -0.0848 -0.4433  0.2152
   61MOL0     O 8148   4.876   6.985   9.924 -0.2080 -0.1062  0.1173
   61MOL0     C 8149   5.158   6.950   9.830 -0.7091  0.1710 -0.5053
   61MOL0     C 8150   5.281   6.907   9.786 -0.4014 -0.4703 -0.6691
   61MOL0     N 8151   5.851   6.410  10.010  0.7292  0.5868  0.3911
   61MOL0     N 8152   5.920   6.377  10.115  0.2720 -0.0074  0.1329
   61MOL0     C 8153   6.670   5.895   9.958  0.9918  0.5292 -0.1954
   61MOL0     C 8154   6.781   5.804   9.937 -0.0360 -0.2035 -0.2367
   61MOL0     C 8155   7.161   5.602   9.875 -1.0856  0.9044 -0.3854
   61MOL0     C 8156   7.202   5.540   9.996 -1.0888  0.4981 -1.0409
   61MOL0     C 8157   7.320   5.462  10.008  0.3702 -0.5129 -1.0874
   61MOL0     C 8158   7.405   5.450   9.900 -0.2779  0.5150  0.0002
   61MOL0     O 8159   7.526   5.373   9.912 -0.4960 -0.1163 -0.2405
   61MOL0     C 8160   7.608   5.376  10.029  0.8133  0.1679  0.2095
   61MOL0     C 8161   7.755   5.317  10.004  0.4890  0.1119 -0.6060
   61MOL0     C 8162   7.848   5.336  10.129 -0.0152  0.0051  0.2276
   61MOL0     C 8163   8.001   5.322  10.086  0.0120 -0.5397 -0.3600
   61MOL0     C 8164   8.083   5.299  10.207  0.2743 -0.3208 -0.5248
   61MOL0     C 8165   8.161   5.299  10.300 -1.3605 -0.3534 -0.6196
   61MOL0     C 8166   7.374   5.505   9.777 -0.3284  0.0997  0.6225
   61MOL0     C 8167   7.257   5.591   9.773  0.0276 -0.4697  0.2216
   61MOL0     H 8168   7.013   5.972  10.132 -0.6728  1.8274  0.3168
   61MOL0     H 8169   6.837   6.133  10.145  1.9938 -0.6986 -0.5864
   61MOL0     H 8170   6.618   6.165   9.853 -1.6633 -1.7200 -1.4189
   61MOL0     H 8171   6.467   6.083   9.895 -1.9963 -0.4474  0.6142
   61MOL0     H 8172   6.541   6.356   9.990 -0.6317 -2.1860  2.4724
   61MOL0     H 8173   6.449   6.312   9.837  2.6031 -0.3151  0.0425
   61MOL0     H 8174   6.294   6.376   9.994 -0.1258 -0.2084  0.9676
   61MOL0     H 8175   6.294   6.195  10.007  0.8759 -1.2518 -0.6525
   61MOL0     H 8176   6.424   6.208  10.201  1.5530  0.5721  0.6775
   61MOL0     H 8177   6.453   6.380  10.195  0.8573 -0.5735 -2.2423
   61MOL0     H 8178   6.176   6.264  10.232  0.5476 -1.0129  0.2073
   61MOL0     H 8179   6.286   6.317  10.368 -1.5050  1.5738  0.5933
   61MOL0     H 8180   6.299   6.536  10.248  0.7042 -1.3740 -2.4260
   61MOL0     H 8181   6.172   6.478  10.139 -2.1457  2.4052  0.4403
   61MOL0     H 8182   6.158   6.513  10.448 -0.8611 -2.7276  0.8165
   61MOL0     H 8183   6.087   6.636  10.347 -0.1645 -0.7898  0.5939
   61MOL0     H 8184   5.918   6.484  10.424  0.6978 -0.2321  0.7041
   61MOL0     H 8185   6.001   6.348  10.353  0.8330  0.0350 -1.7976
   61MOL0     H 8186   5.787   6.656  10.224  2.0033  1.3418 -0.8218
   61MOL0     H 8187   5.648   6.549   9.879  1.2986 -1.9966 -0.2746
   61MOL0     H 8188   5.610   6.636  10.025 -0.3232  1.4631 -1.3322
   61MOL0     H 8189   5.866   6.689   9.879 -1.2805 -0.8345 -0.8435
   61MOL0     H 8190   5.795   6.803   9.980  3.3482 -0.1833 -0.8888
   61MOL0     H 8191   5.682   6.703   9.706  1.2013  0.6256 -0.8067
   61MOL0     H 8192   5.782   6.841   9.717  0.0903 -0.8198 -0.9373
   61MOL0     H 8193   5.553   6.922   9.711 -1.1483  1.4666 -0.0397
   61MOL0     H 8194   5.590   6.939   9.884 -1.7265  1.2568 -2.9205
   61MOL0     H 8195   5.344   6.692  10.042 -4.3384 -1.9155  0.6657
   61MOL0     H 8196   5.078   6.810  10.210  1.9156  0.0284  0.7180
   61MOL0     H 8197   5.022   6.673  10.107 -1.4879  1.9360  1.9323
   61MOL0     H 8198   5.182   6.670  10.193  1.3471  2.2058  2.5520
   61MOL0     H 8199   4.868   7.263  10.017 -0.3326  2.1496  0.6500
   61MOL0     H 8200   4.679   7.368  10.107 -5.8376 -1.9683 -1.1421
   61MOL0     H 8201   4.341   7.268  10.399 -0.9415 -0.9817 -2.3976
   61MOL0     H 8202   4.439   7.124  10.399  1.7401  0.2362  2.5338
   61MOL0     H 8203   4.568   7.174  10.585  1.1945  1.3272 -2.6418
   61MOL0     H 8204   4.555   7.347  10.566  0.2130  0.5456  0.2945
   61MOL0     H 8205   4.346   7.140  10.656  1.8266 -1.4053 -3.6392
   61MOL0     H 8206   4.290   7.299  10.606 -0.3511 -1.0819 -0.5462
   61MOL0     H 8207   4.495   7.234  10.838 -0.8527 -0.9028 -0.3788
   61MOL0     H 8208   4.434   7.400  10.797 -0.8276  0.6062  1.7690
   61MOL0     H 8209   4.205   7.318  10.847  0.7066  1.2976 -0.8503
   61MOL0     H 8210   4.330   7.347  10.975 -0.0099  0.1556 -0.1780
   61MOL0     H 8211   4.235   7.074  10.867  0.8680 -0.3681  0.4913
   61MOL0     H 8212   4.377   7.095  10.940  0.0718  0.9647  0.2646
   61MOL0     H 8213   4.288   7.131  11.157 -2.3350 -0.0597  3.2214
   61MOL0     H 8214   4.179   7.013  11.097  0.9970  1.0469 -0.9202
   61MOL0     H 8215   4.121   7.306  11.084  2.4572 -0.1311  0.4864
   61MOL0     H 8216   4.057   7.181  11.201  3.2132  0.6038  1.1329
   61MOL0     H 8217   4.645   7.057  10.405  0.8213 -4.3644 -1.6712
   61MOL0     H 8218   4.842   6.950  10.319  2.0869 -0.9035 -2.2675
   61MOL0     H 8219   5.113   7.033   9.777  0.2727  2.2426  1.7381
   61MOL0     H 8220   5.323   6.968   9.707 -1.3124 -0.0405 -0.8305
   61MOL0     H 8221   6.579   5.880   9.900  1.6322 -0.5477 -0.9771
   61MOL0     H 8222   6.764   5.711   9.884  3.4412 -0.7595 -0.6679
   61MOL0     H 8223   7.148   5.553  10.090  3.2763 -0.2398  1.8514
   61MOL0     H 8224   7.346   5.408  10.099 -0.4600 -2.3710 -1.8866
   61MOL0     H 8225   7.621   5.476  10.070 -1.2354  0.3971  0.4307
   61MOL0     H 8226   7.555   5.320  10.107 -1.8302 -0.2091 -1.6865
   61MOL0     H 8227   7.799   5.370   9.920  2.4644  0.0456  0.3351
   61MOL0     H 8228   7.741   5.217   9.963 -1.4643 -0.7519  1.8700
   61MOL0     H 8229   7.835   5.258  10.205 -0.5539 -1.0504 -0.9096
   61MOL0     H 8230   7.836   5.432  10.180  2.0884  0.1498  0.5309
   61MOL0     H 8231   8.038   5.408  10.029 -0.9366  1.5153  1.9047
   61MOL0     H 8232   8.007   5.235  10.020 -1.3008 -1.2317  0.3890
   61MOL0     H 8233   8.217   5.281  10.390 -2.8357 -1.3820  0.1413
   61MOL0     H 8234   7.448   5.490   9.698 -1.9674  1.8318 -1.3689
   61MOL0     H 8235   7.240   5.643   9.680  0.2493 -2.9564 -1.3052
   62MOL0     O 8236   5.905   4.243   8.479 -0.0482 -1.0514 -0.2779
   62MOL0     C 8237   5.970   4.139   8.507  0.4380  0.0671 -0.1314
   62MOL0     O 8238   5.940   4.012   8.453 -0.9079  0.6004  0.4030
   62MOL0     C 8239   5.821   4.000   8.385 -0.0485  0.0496  0.4510
   62MOL0     C 8240   5.806   4.069   8.260  0.9800  0.0849 -1.7215
   62MOL0     C 8241   5.685   4.052   8.202  0.7962  0.4639  0.8833
   62MOL0     C 8242   5.577   3.987   8.260 -0.0031 -0.5050 -0.2944
   62MOL0     O 8243   5.465   3.976   8.188 -0.1451 -0.4739  0.2919
   62MOL0     C 8244   5.389   3.856   8.198  0.0946  0.4357 -0.0904
   62MOL0     C 8245   5.295   3.830   8.075 -0.8505 -0.7449 -0.8831
   62MOL0     C 8246   5.370   3.820   7.947 -0.2816 -0.8242 -0.2297
   62MOL0     C 8247   5.290   3.743   7.837 -0.4297 -0.0611  0.4590
   62MOL0     C 8248   5.292   3.805   7.698  0.8261 -1.0683 -0.9105
   62MOL0     C 8249   5.190   3.755   7.596  0.5610 -0.7398  1.1313
   62MOL0     C 8250   5.195   3.823   7.455  0.1544  1.1069  0.8176
   62MOL0     C 8251   5.118   3.741   7.350 -0.2310 -0.1577 -0.7978
   62MOL0     N 8252   4.976   3.757   7.374  1.0864  1.0679  0.1811
   62MOL0     C 8253   4.899   3.859   7.335 -0.8035 -0.2377  0.2717
   62MOL0     C 8254   4.778   3.826   7.372  0.8274 -0.4563 -0.4182
   62MOL0     C 8255   4.654   3.915   7.351  0.3418 -0.9814  0.3526
   62MOL0     C 8256   4.531   3.845   7.291 -0.3446  0.6006 -0.0780
   62MOL0     C 8257   4.441   3.941   7.212  0.4862  0.1383 -0.0544
   62MOL0     C 8258   4.372   4.060   7.291 -0.3031 -0.7734 -0.0776
   62MOL0     O 8259   4.301   4.005   7.404  0.1109  0.5986 -0.2162
   62MOL0     C 8260   4.160   4.021   7.402 -1.0480 -0.5344 -0.0979
   62MOL0     C 8261   4.101   4.140   7.437  0.8798 -0.1908  0.5914
   62MOL0     C 8262   3.964   4.153   7.438 -0.1107  0.3078  0.6389
   62MOL0     C 8263   3.923   4.288   7.498 -0.2895 -0.0886 -1.1359
   62MOL0     C 8264   3.876   4.045   7.400  0.0088 -0.1572  0.6489
   62MOL0     C 8265   3.731   4.051   7.419  0.1936  0.0481 -0.0926
   62MOL0     O 8266   3.669   4.175   7.427  0.0077  0.2641 -0.0620
   62MOL0     C 8267   3.531   4.188   7.434 -0.0126  0.2827 -0.0343
   62MOL0     C 8268   3.445   4.147   7.328  0.4068 -0.4751 -0.4661
   62MOL0     C 8269   3.311   4.156   7.358  0.3122 -0.6213  0.4016
   62MOL0     C 8270   3.257   4.221   7.468  0.7061  0.0041 -0.4224
   62MOL0     O 8271   3.121   4.250   7.481 -0.9458  0.6109 -0.4593
   62MOL0     C 8272   3.014   4.163   7.435 -0.6971  0.3890  0.4872
   62MOL0     C 8273   2.959   4.209   7.297 -0.5690  1.1467 -0.4996
   62MOL0     C 8274   2.905   4.351   7.299 -0.3635 -0.5430  0.3351
   62MOL0     C 8275   2.771   4.364   7.221 -0.7733  0.0397  0.0763
   62MOL0     C 8276   2.757   4.520   7.178 -0.4939  0.4543  0.1575
   62MOL0     C 8277   2.782   4.624   7.287 -0.2743 -0.4687 -0.2804
   62MOL0     C 8278   2.664   4.612   7.387  0.5852 -0.1517  0.4146
   62MOL0     C 8279   2.682   4.715   7.497 -0.5784  0.2354  0.2004
   62MOL0    Cl 8280   2.528   4.734   7.597  0.4116  0.0261 -0.0149
   62MOL0     C 8281   3.352   4.267   7.568  0.3485 -0.3016  0.2161
   62MOL0     C 8282   3.485   4.251   7.546  0.4893  0.5845  0.6479
   62MOL0     O 8283   3.681   3.933   7.415 -0.1017 -0.2880  0.6626
   62MOL0     C 8284   3.944   3.931   7.354 -0.0039 -0.0712 -0.2159
   62MOL0     C 8285   4.081   3.922   7.364  0.9257  0.8483 -0.1754
   62MOL0     N 8286   4.776   3.707   7.444 -0.8583 -0.4221 -0.4512
   62MOL0     N 8287   4.893   3.666   7.441 -0.4401 -0.5004 -0.1370
   62MOL0     C 8288   5.594   3.923   8.381  0.2698  0.2712  0.4149
   62MOL0     C 8289   5.719   3.928   8.445 -0.0323  0.4520 -0.0201
   62MOL0     C 8290   6.094   4.181   8.575  0.4825  0.0496 -0.5965
   62MOL0     C 8291   6.129   4.318   8.607  0.3540 -1.4971 -0.3675
   62MOL0     C 8292   6.248   4.345   8.663  1.2340 -0.2988 -0.1054
   62MOL0     C 8293   6.341   4.255   8.693 -0.2393  0.8120 -0.4159
   62MOL0     O 8294   6.460   4.306   8.728 -0.1160 -0.3623  0.2656
   62MOL0     C 8295   6.575   4.215   8.745  0.5407  0.2749  0.6549
   62MOL0     C 8296   6.689   4.289   8.809  0.6399  0.1959 -0.0589
   62MOL0     C 8297   6.649   4.350   8.941  1.0014 -0.7539  0.3360
   62MOL0     C 8298   6.620   4.503   8.942  0.5480 -0.2323  0.1553
   62MOL0     C 8299   6.734   4.590   8.929 -0.6982 -0.1210  0.0552
   62MOL0     C 8300   6.839   4.656   8.913  0.0529  0.9540 -0.0522
   62MOL0     C 8301   6.312   4.119   8.668 -0.7878 -0.2731  0.1640
   62MOL0     C 8302   6.188   4.084   8.609 -0.6522  0.1211 -0.1852
   62MOL0     H 8303   5.884   4.131   8.219  1.2486  1.2987  0.4885
   62MOL0     H 8304   5.685   4.091   8.101  2.1288 -2.2015 -0.2381
   62MOL0     H 8305   5.458   3.772   8.196  1.7767  1.7347  0.7498
   62MOL0     H 8306   5.331   3.842   8.290 -1.9677 -1.6603 -1.5692
   62MOL0     H 8307   5.242   3.734   8.078 -0.7183 -0.7957  0.2265
   62MOL0     H 8308   5.227   3.915   8.085  1.3124  0.8918  0.5429
   62MOL0     H 8309   5.385   3.919   7.904 -3.2124 -0.0621  0.2877
   62MOL0     H 8310   5.467   3.770   7.956 -0.8434 -1.8555  0.3429
   62MOL0     H 8311   5.325   3.640   7.821 -3.1213 -0.9991  0.0909
   62MOL0     H 8312   5.184   3.732   7.862 -0.5464 -0.3514 -0.1637
   62MOL0     H 8313   5.255   3.906   7.718  4.3062  0.2914 -0.6585
   62MOL0     H 8314   5.394   3.801   7.659  0.3148 -0.8016 -2.3699
   62MOL0     H 8315   5.202   3.647   7.582 -0.9240 -0.7708 -0.2860
   62MOL0     H 8316   5.088   3.756   7.634 -0.6595 -0.3604 -1.8421
   62MOL0     H 8317   5.152   3.924   7.459  0.7571  1.4351 -0.3728
   62MOL0     H 8318   5.302   3.835   7.438  0.0596  1.5229  0.4869
   62MOL0     H 8319   5.140   3.635   7.366 -2.4039 -0.5760 -0.2552
   62MOL0     H 8320   5.136   3.767   7.245  2.1120  1.4539 -0.0811
   62MOL0     H 8321   4.923   3.946   7.275 -2.4905 -0.3800 -0.6685
   62MOL0     H 8322   4.629   3.978   7.437 -0.7476 -0.6865 -0.1634
   62MOL0     H 8323   4.684   3.987   7.275  1.7488  2.1504  3.6040
   62MOL0     H 8324   4.470   3.785   7.359  0.9099 -3.7246 -2.4235
   62MOL0     H 8325   4.566   3.776   7.214 -4.3085 -1.4350 -0.3145
   62MOL0     H 8326   4.367   3.877   7.162 -1.6272  1.7135  0.8804
   62MOL0     H 8327   4.492   3.986   7.127  0.6873 -0.4439 -0.2473
   62MOL0     H 8328   4.294   4.116   7.238 -0.2106  1.8546  2.3554
   62MOL0     H 8329   4.442   4.137   7.323 -1.0898  0.9568 -2.2271
   62MOL0     H 8330   4.165   4.225   7.460  0.2472  0.5228 -0.2065
   62MOL0     H 8331   3.839   4.284   7.568 -0.6687  0.6801 -1.5418
   62MOL0     H 8332   3.999   4.311   7.573 -0.5479 -1.1237 -0.5354
   62MOL0     H 8333   3.909   4.365   7.422  0.0327 -2.4029 -3.6943
   62MOL0     H 8334   3.471   4.101   7.233  2.5905  0.2490 -0.2899
   62MOL0     H 8335   3.252   4.118   7.275 -0.4585  0.9543  0.1980
   62MOL0     H 8336   3.053   4.061   7.427 -0.2937  0.6780 -2.3147
   62MOL0     H 8337   2.928   4.166   7.502  0.4063 -1.1380  2.0740
   62MOL0     H 8338   3.033   4.196   7.218 -1.0475 -0.9441 -0.6384
   62MOL0     H 8339   2.881   4.137   7.270  1.9612 -1.3174 -1.7465
   62MOL0     H 8340   2.981   4.414   7.252 -0.6215  0.1535  0.8166
   62MOL0     H 8341   2.892   4.384   7.403  0.3108  0.0979  0.2263
   62MOL0     H 8342   2.770   4.306   7.129  1.7356  0.1839 -0.1281
   62MOL0     H 8343   2.690   4.329   7.285 -0.2629  1.2199  1.4419
   62MOL0     H 8344   2.666   4.539   7.121  0.3755 -0.8126 -1.7812
   62MOL0     H 8345   2.829   4.539   7.098  1.3747  1.4714  1.9767
   62MOL0     H 8346   2.874   4.601   7.341  0.3508 -0.3758 -1.2763
   62MOL0     H 8347   2.800   4.726   7.252  2.8834 -1.5159 -2.0776
   62MOL0     H 8348   2.660   4.512   7.431  1.0473 -1.4443 -2.2738
   62MOL0     H 8349   2.578   4.649   7.331  0.9062 -1.5195 -1.0595
   62MOL0     H 8350   2.698   4.811   7.447 -0.9738  0.6187  0.7967
   62MOL0     H 8351   2.763   4.687   7.565 -1.3932 -0.2804  0.9811
   62MOL0     H 8352   3.322   4.313   7.662  0.4657 -0.8884  0.5416
   62MOL0     H 8353   3.554   4.299   7.615  3.1062 -2.9308  0.7821
   62MOL0     H 8354   3.889   3.843   7.321 -0.7519  0.4951 -0.4875
   62MOL0     H 8355   4.131   3.827   7.350 -0.8314 -0.4864  1.9605
   62MOL0     H 8356   5.519   3.865   8.434 -0.7953  2.9252  2.0056
   62MOL0     H 8357   5.730   3.887   8.545 -0.3744  0.5353  0.0526
   62MOL0     H 8358   6.070   4.398   8.565  2.6793  0.2880 -0.4256
   62MOL0     H 8359   6.267   4.445   8.701  0.5647 -0.8077  1.6903
   62MOL0     H 8360   6.551   4.121   8.795  3.9114 -3.1537 -3.3880
   62MOL0     H 8361   6.616   4.184   8.648  2.0525  1.3357  0.9105
   62MOL0     H 8362   6.725   4.356   8.731 -2.6341  0.2847 -1.6914
   62MOL0     H 8363   6.770   4.219   8.832  0.1883 -1.5141 -3.1679
   62MOL0     H 8364   6.724   4.321   9.015  0.0482 -0.9617  1.2348
   62MOL0     H 8365   6.555   4.309   8.980  0.4567  1.6090  1.6331
   62MOL0     H 8366   6.580   4.527   9.041  2.4125  1.4768  0.5566
   62MOL0     H 8367   6.542   4.527   8.870  0.0827 -3.0827 -0.3859
   62MOL0     H 8368   6.920   4.720   8.883  0.3585 -0.3201 -2.1825
   62MOL0     H 8369   6.377   4.036   8.694 -2.4854 -0.7367  3.3714
   62MOL0     H 8370   6.174   3.980   8.580 -1.7927  0.3322 -0.4309
   63MOL0     O 8371  10.087   3.820   9.239 -0.9378  0.3806  0.7329
   63MOL0     C 8372  10.166   3.912   9.205  0.3346 -0.6893 -0.9376
   63MOL0     O 8373  10.151   3.990   9.091  0.1367  0.2339 -0.3686
   63MOL0     C 8374  10.034   3.966   9.017  0.8308 -0.2101  0.0331
   63MOL0     C 8375  10.050   3.901   8.896 -0.0876 -0.3499 -0.0548
   63MOL0     C 8376   9.943   3.858   8.824 -0.5963  0.8521 -0.1208
   63MOL0     C 8377   9.815   3.862   8.881  0.1728 -0.3611 -1.0404
   63MOL0     O 8378   9.721   3.805   8.809  0.1300 -0.2265  0.3327
   63MOL0     C 8379   9.589   3.807   8.849  0.1775 -0.5831 -0.2925
   63MOL0     C 8380   9.514   3.705   8.762 -0.0365 -0.4941 -0.1757
   63MOL0     C 8381   9.529   3.753   8.617  0.0931 -0.8796  0.3376
   63MOL0     C 8382   9.476   3.659   8.514 -0.3217 -0.0567  0.2275
   63MOL0     C 8383   9.328   3.673   8.486 -0.2535  0.4123  0.6045
   63MOL0     C 8384   9.292   3.684   8.340 -0.0469 -0.1602  0.2713
   63MOL0     C 8385   9.323   3.563   8.252  0.3190 -0.6806 -1.3623
   63MOL0     C 8386   9.282   3.599   8.110  0.6369 -0.6190  0.4700
   63MOL0     N 8387   9.333   3.509   8.007 -0.1125  0.0978  0.2633
   63MOL0     C 8388   9.465   3.501   7.964 -0.1292 -0.4048  0.0580
   63MOL0     C 8389   9.450   3.430   7.852 -0.1842  0.3773  0.1845
   63MOL0     C 8390   9.560   3.387   7.762 -0.2570  0.2565  0.8145
   63MOL0     C 8391   9.653   3.497   7.703  0.2840  0.7586  0.5228
   63MOL0     C 8392   9.781   3.430   7.640  0.3602  0.2421 -0.2781
   63MOL0     C 8393   9.869   3.531   7.569 -0.3334 -0.5549 -0.0187
   63MOL0     O 8394   9.995   3.472   7.518  0.3112  0.5549 -0.2297
   63MOL0     C 8395  10.002   3.397   7.397  0.2638 -0.0831  0.1436
   63MOL0     C 8396   9.902   3.396   7.301  1.0686 -0.3630  0.4915
   63MOL0     C 8397   9.903   3.311   7.191 -0.1750  0.6314  0.0151
   63MOL0     C 8398   9.793   3.307   7.090  0.2474  0.8230 -0.7876
   63MOL0     C 8399  10.013   3.228   7.168 -0.0090 -0.5883 -0.6202
   63MOL0     C 8400  10.036   3.125   7.059  0.5301 -0.6674 -0.5268
   63MOL0     O 8401  10.174   3.112   7.041  0.1635 -0.1840  0.2813
   63MOL0     C 8402  10.242   3.017   6.961  0.7671  0.1235  0.8249
   63MOL0     C 8403  10.185   2.893   6.925  0.2407  0.3512 -0.5389
   63MOL0     C 8404  10.260   2.792   6.845 -0.0224  0.3135 -0.7687
   63MOL0     C 8405  10.391   2.831   6.792  0.1526  0.4289 -0.4547
   63MOL0     O 8406  10.454   2.733   6.707  0.5550 -0.5842 -0.4082
   63MOL0     C 8407  10.598   2.734   6.676  0.2285  0.7173 -0.0129
   63MOL0     C 8408  10.630   2.600   6.608  0.2153  0.8713 -0.2143
   63MOL0     C 8409  10.782   2.580   6.595 -0.3186 -0.1719  0.0734
   63MOL0     C 8410  10.827   2.462   6.510 -1.0566  0.7064 -0.1597
   63MOL0     C 8411  10.989   2.458   6.515  0.2232 -1.2391  0.4772
   63MOL0     C 8412  11.039   2.346   6.420 -0.4002 -0.3706 -0.0564
   63MOL0     C 8413  11.195   2.359   6.405 -0.4066 -0.8120  0.2753
   63MOL0     C 8414  11.240   2.272   6.293  0.9288 -0.3507 -0.1233
   63MOL0    Cl 8415  11.408   2.301   6.272  0.0955  0.0232  0.1992
   63MOL0     C 8416  10.435   2.958   6.826  0.2982  0.9057 -1.3057
   63MOL0     C 8417  10.373   3.049   6.913  0.9384  0.0990 -0.3960
   63MOL0     O 8418   9.944   3.074   7.007 -0.4070 -0.2166  0.1697
   63MOL0     C 8419  10.121   3.242   7.264 -0.3038  0.4831 -0.8102
   63MOL0     C 8420  10.115   3.323   7.380 -0.3877  0.4711  1.1033
   63MOL0     N 8421   9.320   3.385   7.832 -0.4916 -0.3221 -0.5571
   63MOL0     N 8422   9.250   3.429   7.927  0.1055 -0.1703 -0.2274
   63MOL0     C 8423   9.794   3.936   9.009 -0.2794 -1.1156  0.0979
   63MOL0     C 8424   9.903   3.987   9.065  0.4156  0.1774  0.1786
   63MOL0     C 8425  10.286   3.941   9.285  1.2582  0.0997  0.9044
   63MOL0     C 8426  10.391   4.024   9.237 -0.0888 -1.1770 -1.1786
   63MOL0     C 8427  10.493   4.059   9.318 -0.0521  0.0737 -0.2224
   63MOL0     C 8428  10.501   4.005   9.442  0.2698 -0.1303 -0.3182
   63MOL0     O 8429  10.615   4.037   9.510  0.3662 -0.6615 -0.3706
   63MOL0     C 8430  10.672   3.945   9.607  0.4347  0.6343 -0.4345
   63MOL0     C 8431  10.806   3.986   9.602 -0.0102  0.1465  0.2588
   63MOL0     C 8432  10.886   3.910   9.707 -0.0408  0.4132  0.0323
   63MOL0     C 8433  11.024   3.984   9.735 -0.2420  0.4142  0.0740
   63MOL0     C 8434  11.023   4.112   9.802  0.1712  0.2925  0.4156
   63MOL0     C 8435  11.028   4.222   9.846 -0.6889  0.3414 -0.8733
   63MOL0     C 8436  10.404   3.926   9.491  1.2171 -0.3786 -0.4877
   63MOL0     C 8437  10.295   3.887   9.413  0.5511  0.4879 -0.1762
   63MOL0     H 8438  10.151   3.885   8.859  0.5103 -1.8150  2.0462
   63MOL0     H 8439   9.950   3.810   8.727 -3.7157  2.6891 -1.3871
   63MOL0     H 8440   9.579   3.790   8.957  0.5849 -2.0506 -0.4682
   63MOL0     H 8441   9.552   3.908   8.826  0.3036 -0.2553  0.8837
   63MOL0     H 8442   9.565   3.610   8.783  2.5860  1.0397  0.8102
   63MOL0     H 8443   9.405   3.707   8.775 -0.0316 -1.6304  0.1728
   63MOL0     H 8444   9.485   3.852   8.608  3.1041  0.4419 -1.2972
   63MOL0     H 8445   9.634   3.765   8.590  0.8034 -3.6199  1.5008
   63MOL0     H 8446   9.531   3.681   8.422  0.3142  1.8564  1.0395
   63MOL0     H 8447   9.501   3.556   8.544 -1.5960 -0.1050  1.1982
   63MOL0     H 8448   9.271   3.590   8.528  0.5759  0.1083  1.1520
   63MOL0     H 8449   9.288   3.762   8.535 -1.9808  0.3377 -0.5682
   63MOL0     H 8450   9.184   3.701   8.340 -0.1237 -0.6036  0.8732
   63MOL0     H 8451   9.336   3.770   8.290  0.1171 -1.9945 -2.9978
   63MOL0     H 8452   9.426   3.528   8.252  0.3601 -0.5573 -1.1885
   63MOL0     H 8453   9.265   3.484   8.300 -0.6840  0.2272 -1.0466
   63MOL0     H 8454   9.328   3.694   8.080  0.4894 -0.3886  0.9548
   63MOL0     H 8455   9.174   3.613   8.119  0.6229  0.7140 -1.1478
   63MOL0     H 8456   9.555   3.549   8.002  1.6414 -0.9356 -3.1105
   63MOL0     H 8457   9.620   3.306   7.806  1.1612  0.4822 -0.6041
   63MOL0     H 8458   9.509   3.341   7.677 -1.8287  1.1577  1.2349
   63MOL0     H 8459   9.695   3.549   7.789  0.1485  1.4030  0.2062
   63MOL0     H 8460   9.604   3.568   7.636  3.1099  1.0460 -1.4244
   63MOL0     H 8461   9.753   3.347   7.574  1.5584  0.9876 -1.7919
   63MOL0     H 8462   9.834   3.392   7.728 -1.0581  0.1841  0.5857
   63MOL0     H 8463   9.891   3.606   7.646  1.3442 -2.8949  1.9516
   63MOL0     H 8464   9.824   3.582   7.484  2.4139  0.7302 -0.8320
   63MOL0     H 8465   9.804   3.441   7.311 -0.6615 -3.7672  0.2621
   63MOL0     H 8466   9.823   3.331   6.987 -2.1105  1.9539 -1.2884
   63MOL0     H 8467   9.734   3.215   7.100 -0.2136  1.1962 -0.0288
   63MOL0     H 8468   9.725   3.389   7.115  3.8567  3.3233  1.8238
   63MOL0     H 8469  10.086   2.864   6.960 -1.2696  4.4815 -0.8876
   63MOL0     H 8470  10.224   2.690   6.835  0.5198  0.1713 -1.3059
   63MOL0     H 8471  10.622   2.825   6.621 -1.6994  1.7821  0.7933
   63MOL0     H 8472  10.640   2.727   6.777 -2.5348 -1.4133  1.1431
   63MOL0     H 8473  10.598   2.519   6.675  0.3850  0.5332 -0.5387
   63MOL0     H 8474  10.585   2.583   6.510 -1.3361  1.3591  0.3929
   63MOL0     H 8475  10.823   2.557   6.694  1.1082 -2.6588 -1.0004
   63MOL0     H 8476  10.824   2.668   6.547 -1.2373 -0.3213 -1.0495
   63MOL0     H 8477  10.801   2.364   6.549 -0.7390 -0.2552 -2.1966
   63MOL0     H 8478  10.782   2.472   6.411 -0.6141 -0.0947 -0.4507
   63MOL0     H 8479  11.029   2.448   6.616  1.0097 -0.9866  0.2055
   63MOL0     H 8480  11.029   2.552   6.477 -0.2599 -1.2294 -0.0187
   63MOL0     H 8481  11.015   2.241   6.438  1.3461 -0.3946  2.9584
   63MOL0     H 8482  10.981   2.368   6.330  2.9585  1.2162 -2.0304
   63MOL0     H 8483  11.245   2.332   6.498  1.2703 -3.7509 -1.3309
   63MOL0     H 8484  11.218   2.465   6.388 -1.1027 -0.7474 -0.3030
   63MOL0     H 8485  11.186   2.298   6.202  0.0343 -1.8839 -0.0733
   63MOL0     H 8486  11.226   2.166   6.317  0.4679  0.2189  2.4507
   63MOL0     H 8487  10.524   2.986   6.770  1.0789  1.6212  0.2468
   63MOL0     H 8488  10.422   3.142   6.941  1.3532 -0.6337  1.4519
   63MOL0     H 8489  10.216   3.191   7.250 -0.4687  0.5325 -2.1766
   63MOL0     H 8490  10.191   3.327   7.458 -1.6414  0.6272  2.3475
   63MOL0     H 8491   9.701   3.955   9.061  0.6197  0.5930  1.1543
   63MOL0     H 8492   9.892   4.042   9.158 -1.8123  1.8666 -0.9773
   63MOL0     H 8493  10.399   4.079   9.144 -0.0444 -0.3765 -0.7128
   63MOL0     H 8494  10.557   4.142   9.288 -3.6298  3.9481  1.7066
   63MOL0     H 8495  10.631   3.962   9.707  0.8066 -2.1077  0.2592
   63MOL0     H 8496  10.654   3.839   9.586 -0.3250  0.1471  2.3350
   63MOL0     H 8497  10.815   4.093   9.624 -0.2249 -0.1142  1.7497
   63MOL0     H 8498  10.844   3.955   9.504  0.0831 -3.4769  1.2757
   63MOL0     H 8499  10.911   3.813   9.663  2.4991  0.5331  1.0335
   63MOL0     H 8500  10.828   3.903   9.800 -0.6258  1.6454 -0.2225
   63MOL0     H 8501  11.080   3.983   9.641  1.5404  1.9536  1.0507
   63MOL0     H 8502  11.071   3.921   9.812  0.4923 -0.5016 -1.0811
   63MOL0     H 8503  11.052   4.315   9.893 -1.5222 -0.8021  1.9998
   63MOL0     H 8504  10.420   3.893   9.593  2.2682 -2.2389 -1.2068
   63MOL0     H 8505  10.223   3.820   9.458 -0.3495  1.4118 -0.1879
   64MOL0     O 8506   9.881   7.530   7.490  0.1662  0.2926  0.3259
   64MOL0     C 8507   9.951   7.430   7.488  1.4788 -0.8802 -1.0615
   64MOL0     O 8508   9.906   7.311   7.462  0.1510 -0.4274  0.6141
   64MOL0     C 8509   9.769   7.281   7.460  0.9822 -0.5206 -1.0027
   64MOL0     C 8510   9.713   7.175   7.534 -0.0772 -0.3917 -0.3975
   64MOL0     C 8511   9.577   7.143   7.539 -1.1876 -0.0335  0.2146
   64MOL0     C 8512   9.491   7.225   7.466  0.4211 -0.0422  0.4056
   64MOL0     O 8513   9.355   7.210   7.482 -0.3980  0.2372  0.5027
   64MOL0     C 8514   9.308   7.113   7.573  0.0793  0.4422  0.7521
   64MOL0     C 8515   9.160   7.101   7.575  0.1352 -0.3302  0.3163
   64MOL0     C 8516   9.096   7.226   7.636  1.2353  0.5369  0.9031
   64MOL0     C 8517   8.958   7.191   7.705 -0.0061 -0.1361  0.7498
   64MOL0     C 8518   8.845   7.216   7.597 -1.1269 -0.8827 -0.8344
   64MOL0     C 8519   8.717   7.193   7.676 -0.3565  0.5642  0.6810
   64MOL0     C 8520   8.598   7.189   7.584  0.1961  0.1455 -0.4708
   64MOL0     C 8521   8.588   7.298   7.477  0.2393 -0.4807 -0.6209
   64MOL0     N 8522   8.450   7.280   7.432  0.0556  0.2640  0.2119
   64MOL0     C 8523   8.334   7.352   7.456  0.2363 -0.0262  0.1712
   64MOL0     C 8524   8.232   7.294   7.390 -0.2948  0.1837  0.5227
   64MOL0     C 8525   8.097   7.353   7.358 -0.5144 -0.8424  0.5290
   64MOL0     C 8526   8.104   7.490   7.295 -0.1709 -0.3644  0.0000
   64MOL0     C 8527   7.960   7.546   7.266  0.3056  0.5897  0.2429
   64MOL0     C 8528   7.940   7.689   7.210 -0.9489  0.1594 -0.4949
   64MOL0     O 8529   7.808   7.697   7.165  0.6470 -0.6816 -0.0647
   64MOL0     C 8530   7.710   7.761   7.239 -0.8661 -0.5261  0.4358
   64MOL0     C 8531   7.733   7.873   7.322  0.1754 -0.1042 -0.0792
   64MOL0     C 8532   7.622   7.939   7.388  0.9320 -0.0709 -0.5707
   64MOL0     C 8533   7.650   8.075   7.460  0.0237  0.7762  0.3973
   64MOL0     C 8534   7.491   7.882   7.381 -0.7863  0.5837 -0.2627
   64MOL0     C 8535   7.373   7.930   7.457 -0.0586  0.3610  0.9562
   64MOL0     O 8536   7.268   7.851   7.435  0.4934  0.0618 -0.7805
   64MOL0     C 8537   7.139   7.847   7.502 -0.1743 -0.6481  0.8739
   64MOL0     C 8538   7.118   7.890   7.633  0.2207 -0.5015 -0.4806
   64MOL0     C 8539   6.986   7.896   7.688 -0.4317 -1.1665  0.7111
   64MOL0     C 8540   6.878   7.862   7.605  0.4088  1.1296 -0.2727
   64MOL0     O 8541   6.761   7.872   7.665 -0.0302  0.3729  0.1573
   64MOL0     C 8542   6.661   7.958   7.601 -0.0401 -0.4498  0.1217
   64MOL0     C 8543   6.519   7.896   7.620 -0.0284 -0.5292 -0.7026
   64MOL0     C 8544   6.488   7.838   7.760  0.9640 -0.4559  0.3969
   64MOL0     C 8545   6.334   7.810   7.764  0.0610  0.2542 -0.1915
   64MOL0     C 8546   6.262   7.798   7.902  0.1208 -0.5758 -0.7925
   64MOL0     C 8547   6.253   7.927   7.976 -0.3872 -0.7107  0.3351
   64MOL0     C 8548   6.202   7.925   8.122 -0.0393 -0.7316 -0.8481
   64MOL0     C 8549   6.063   7.856   8.137  0.3541 -0.8804  0.8249
   64MOL0    Cl 8550   6.016   7.868   8.301 -0.0136 -0.1982 -0.7264
   64MOL0     C 8551   6.897   7.809   7.482 -0.9037 -0.2657  0.1092
   64MOL0     C 8552   7.022   7.803   7.427 -1.5638 -0.3635  0.1282
   64MOL0     O 8553   7.378   8.031   7.527  0.1016  0.2657  0.1680
   64MOL0     C 8554   7.480   7.759   7.307 -0.0979 -0.1077  0.8241
   64MOL0     C 8555   7.587   7.699   7.242  0.1518  0.5573  0.0382
   64MOL0     N 8556   8.289   7.188   7.310  0.3069 -0.2216  0.2129
   64MOL0     N 8557   8.415   7.177   7.344  0.3916 -0.7634  0.0861
   64MOL0     C 8558   9.541   7.321   7.381  0.9739 -0.4046  0.2631
   64MOL0     C 8559   9.676   7.353   7.384 -0.3686 -0.3224 -0.3680
   64MOL0     C 8560  10.095   7.443   7.495 -0.1205 -0.0893  0.8716
   64MOL0     C 8561  10.162   7.569   7.501  0.2504  0.2429 -0.3158
   64MOL0     C 8562  10.299   7.565   7.513  0.3697  0.0657  0.2562
   64MOL0     C 8563  10.382   7.454   7.501 -1.3048 -0.1892 -0.0558
   64MOL0     O 8564  10.523   7.475   7.513  0.1542 -0.0259 -0.4423
   64MOL0     C 8565  10.616   7.364   7.512  0.3177 -0.2867  0.2514
   64MOL0     C 8566  10.743   7.414   7.565 -0.2061  0.5183 -0.3428
   64MOL0     C 8567  10.857   7.310   7.582 -0.9742  0.3396  0.3354
   64MOL0     C 8568  10.974   7.363   7.670  0.5710  0.0086  0.2943
   64MOL0     C 8569  11.081   7.267   7.678 -0.5109  0.6884 -0.6560
   64MOL0     C 8570  11.157   7.174   7.682  0.1523  0.1054 -1.9077
   64MOL0     C 8571  10.323   7.329   7.487 -1.2650 -0.4007  0.3095
   64MOL0     C 8572  10.181   7.325   7.478 -0.2184 -0.6453 -0.1259
   64MOL0     H 8573   9.789   7.127   7.594  1.7002  2.2159 -0.3804
   64MOL0     H 8574   9.544   7.072   7.614 -3.8967  0.1924 -0.6479
   64MOL0     H 8575   9.347   7.016   7.540 -1.4904 -0.1967  0.7312
   64MOL0     H 8576   9.355   7.131   7.670  2.1548  0.8058 -0.2471
   64MOL0     H 8577   9.139   7.099   7.467 -1.6262 -0.7432  0.6375
   64MOL0     H 8578   9.125   7.010   7.622  1.0247 -2.2957 -2.5455
   64MOL0     H 8579   9.154   7.270   7.717  1.7413 -0.9947  1.4027
   64MOL0     H 8580   9.075   7.294   7.552 -2.4399 -0.0786  1.1523
   64MOL0     H 8581   8.958   7.089   7.743  0.9519 -0.8468 -1.0405
   64MOL0     H 8582   8.937   7.251   7.794 -0.0929  0.8419  0.1007
   64MOL0     H 8583   8.845   7.318   7.559 -0.8242 -0.5215  0.1048
   64MOL0     H 8584   8.855   7.142   7.517 -4.7518 -2.3862 -0.0869
   64MOL0     H 8585   8.728   7.093   7.719  1.8943  0.0898 -0.8282
   64MOL0     H 8586   8.698   7.274   7.748 -0.4552  0.6295  0.5818
   64MOL0     H 8587   8.607   7.096   7.527 -0.9239 -0.0774 -0.3118
   64MOL0     H 8588   8.505   7.196   7.642  0.3733  0.1077 -0.1814
   64MOL0     H 8589   8.656   7.281   7.392  1.1022  4.4529 -1.2150
   64MOL0     H 8590   8.599   7.395   7.526 -1.1737 -0.5178 -0.2036
   64MOL0     H 8591   8.326   7.439   7.521  0.3554  0.5563 -0.5859
   64MOL0     H 8592   8.044   7.291   7.286 -0.3546 -2.6376  1.8992
   64MOL0     H 8593   8.035   7.357   7.448 -0.5526  2.5508  0.4977
   64MOL0     H 8594   8.161   7.499   7.202  2.2588 -1.8659  1.2558
   64MOL0     H 8595   8.157   7.565   7.355 -0.4640  1.1367 -1.5433
   64MOL0     H 8596   7.908   7.547   7.363  1.5630  1.2508  0.9275
   64MOL0     H 8597   7.899   7.475   7.209  0.7285 -0.5569  1.1697
   64MOL0     H 8598   8.013   7.703   7.129  0.7214 -1.2104  0.7087
   64MOL0     H 8599   7.963   7.768   7.283 -0.0187 -3.1265  3.0841
   64MOL0     H 8600   7.829   7.921   7.337  1.0200 -0.7195 -2.9685
   64MOL0     H 8601   7.756   8.097   7.446  1.0134 -1.8102  2.7645
   64MOL0     H 8602   7.580   8.151   7.424  1.1688  1.3379 -0.6827
   64MOL0     H 8603   7.655   8.056   7.568 -0.4223 -1.1879  0.1115
   64MOL0     H 8604   7.205   7.900   7.698 -0.9397 -2.1864  1.4682
   64MOL0     H 8605   6.976   7.905   7.796  0.3636  2.1769  0.6346
   64MOL0     H 8606   6.661   8.053   7.655 -1.2931  0.4311 -1.3515
   64MOL0     H 8607   6.675   7.965   7.492 -1.4338  3.6809  0.0217
   64MOL0     H 8608   6.447   7.977   7.602  1.1577  0.4883 -0.9807
   64MOL0     H 8609   6.495   7.824   7.541 -2.6964  1.1524 -1.5927
   64MOL0     H 8610   6.514   7.914   7.834 -0.4867 -0.1140  0.5868
   64MOL0     H 8611   6.542   7.753   7.803 -1.4597 -0.8742  2.9377
   64MOL0     H 8612   6.272   7.879   7.705  0.9653  1.6367  0.4325
   64MOL0     H 8613   6.321   7.709   7.724 -1.2663 -0.0084  0.8078
   64MOL0     H 8614   6.312   7.723   7.964  0.4357 -1.1449 -1.7178
   64MOL0     H 8615   6.162   7.756   7.894 -0.5019  0.0195  2.4065
   64MOL0     H 8616   6.349   7.980   7.981 -1.1549  0.5967  2.3808
   64MOL0     H 8617   6.192   7.998   7.921 -1.4840 -3.5423 -2.3749
   64MOL0     H 8618   6.186   8.028   8.156 -2.5016 -1.9057  2.0863
   64MOL0     H 8619   6.280   7.900   8.195 -0.4132  0.2613 -0.0672
   64MOL0     H 8620   6.069   7.750   8.111  1.7419 -0.9841  1.4444
   64MOL0     H 8621   5.994   7.908   8.071 -0.4809  1.8362  3.5798
   64MOL0     H 8622   6.814   7.768   7.425 -2.0778 -0.4688  1.8838
   64MOL0     H 8623   7.042   7.772   7.325 -2.3439 -0.6574  0.0625
   64MOL0     H 8624   7.384   7.718   7.277 -1.1510  1.6186  1.6877
   64MOL0     H 8625   7.567   7.604   7.193  0.0701  0.3140  0.5366
   64MOL0     H 8626   9.463   7.379   7.332 -0.4936 -2.4165  0.0306
   64MOL0     H 8627   9.698   7.443   7.329 -2.0626  0.6014  0.4062
   64MOL0     H 8628  10.103   7.659   7.495 -0.5899  0.0692  3.1033
   64MOL0     H 8629  10.351   7.660   7.501 -0.3665  0.1752 -3.2886
   64MOL0     H 8630  10.576   7.280   7.569 -1.9449  1.2424  1.0955
   64MOL0     H 8631  10.640   7.345   7.407  3.3050  1.6132  0.4547
   64MOL0     H 8632  10.728   7.450   7.667  5.2971  0.4535  0.7963
   64MOL0     H 8633  10.774   7.498   7.502  1.3053  0.1984 -0.0611
   64MOL0     H 8634  10.881   7.283   7.479 -0.5449  2.1663 -0.0889
   64MOL0     H 8635  10.823   7.224   7.641 -1.7426  0.6696  0.3811
   64MOL0     H 8636  10.935   7.400   7.765  0.1173  0.5286 -0.0850
   64MOL0     H 8637  11.019   7.450   7.621  0.8957 -1.4167 -2.0979
   64MOL0     H 8638  11.220   7.088   7.693 -1.2945 -0.8280 -0.4248
   64MOL0     H 8639  10.391   7.246   7.468  2.3273  2.6238 -1.2777
   64MOL0     H 8640  10.136   7.228   7.462  1.8308 -1.6209 -0.2846
   65MOL0     O 8641   8.440   4.612   3.910 -0.4312 -0.6659  0.6358
   65MOL0     C 8642   8.419   4.521   3.826  0.0773 -1.0455  0.6232
   65MOL0     O 8643   8.306   4.497   3.766 -0.6357 -0.5525 -0.5039
   65MOL0     C 8644   8.190   4.567   3.775 -0.3516  0.3858 -0.2877
   65MOL0     C 8645   8.101   4.515   3.674 -1.2870  0.5951 -0.2427
   65MOL0     C 8646   7.972   4.569   3.661  0.6274  0.0039 -0.0395
   65MOL0     C 8647   7.935   4.670   3.748  0.0106 -0.1299 -0.1157
   65MOL0     O 8648   7.803   4.690   3.735 -0.2016  0.2128  0.1843
   65MOL0     C 8649   7.765   4.825   3.764  0.0876 -0.3930  0.2929
   65MOL0     C 8650   7.608   4.819   3.755  0.7711 -0.3726  0.0453
   65MOL0     C 8651   7.553   4.788   3.616 -0.5944  0.2314  0.1004
   65MOL0     C 8652   7.566   4.899   3.510 -0.3984 -0.2609 -0.1655
   65MOL0     C 8653   7.514   4.855   3.370  0.1084  0.6307 -0.2190
   65MOL0     C 8654   7.385   4.774   3.379  0.7255  0.6044  0.2727
   65MOL0     C 8655   7.328   4.755   3.231 -1.0116  0.7755  0.5642
   65MOL0     C 8656   7.181   4.724   3.236 -0.5560 -0.3455 -0.6878
   65MOL0     N 8657   7.111   4.743   3.109 -0.1716 -0.1653  0.2470
   65MOL0     C 8658   7.043   4.855   3.060  0.0800  0.9243 -0.5763
   65MOL0     C 8659   7.017   4.826   2.932  0.3940 -0.2960  0.5350
   65MOL0     C 8660   6.929   4.896   2.831 -0.1558  0.4983  0.0876
   65MOL0     C 8661   6.794   4.934   2.892  0.5433  0.0827  0.0468
   65MOL0     C 8662   6.777   5.088   2.927  0.3750  0.3252 -0.7417
   65MOL0     C 8663   6.649   5.117   2.992  0.2826 -0.1711  0.2082
   65MOL0     O 8664   6.548   5.094   2.891  0.1974 -0.2792  0.8146
   65MOL0     C 8665   6.429   5.164   2.899  0.2847 -0.4346  0.2370
   65MOL0     C 8666   6.402   5.279   2.962 -0.1962  0.1186 -0.8833
   65MOL0     C 8667   6.275   5.342   2.957 -0.0762  0.4247 -0.5136
   65MOL0     C 8668   6.261   5.462   3.040 -0.4914 -0.1584  0.0765
   65MOL0     C 8669   6.169   5.272   2.896  0.3066 -0.4132  0.7010
   65MOL0     C 8670   6.033   5.340   2.876  0.0257  0.8487 -0.2672
   65MOL0     O 8671   5.936   5.254   2.845 -0.3176  0.6730 -0.5754
   65MOL0     C 8672   5.812   5.302   2.806  1.0024  0.0008 -0.3903
   65MOL0     C 8673   5.700   5.261   2.874  0.0821 -0.5238 -0.6382
   65MOL0     C 8674   5.579   5.327   2.839  0.2771  0.1098 -1.4726
   65MOL0     C 8675   5.580   5.427   2.743 -0.2067  0.0412  0.2216
   65MOL0     O 8676   5.468   5.486   2.701  0.1389 -0.0322  0.5084
   65MOL0     C 8677   5.345   5.415   2.693  0.7322  0.0249 -0.0650
   65MOL0     C 8678   5.246   5.514   2.637 -0.2311 -0.7710 -0.3475
   65MOL0     C 8679   5.273   5.549   2.491 -0.1661 -0.2770  0.1320
   65MOL0     C 8680   5.163   5.653   2.434  0.6668  0.7548  0.2705
   65MOL0     C 8681   5.055   5.583   2.357  0.4805 -0.3565 -0.0051
   65MOL0     C 8682   4.952   5.686   2.300  0.3373 -0.3265 -0.4488
   65MOL0     C 8683   4.832   5.615   2.252 -0.2440  0.3423  0.0360
   65MOL0     C 8684   4.724   5.696   2.177 -0.0507 -0.0911 -0.9997
   65MOL0    Cl 8685   4.784   5.765   2.023 -0.1260 -0.2772  0.1491
   65MOL0     C 8686   5.695   5.451   2.658  0.1394 -0.2265 -0.3655
   65MOL0     C 8687   5.810   5.390   2.694 -0.1599  0.6612 -0.6536
   65MOL0     O 8688   6.022   5.462   2.878 -0.5196 -0.3407 -0.2589
   65MOL0     C 8689   6.189   5.143   2.846  0.0921  0.6424 -0.1794
   65MOL0     C 8690   6.319   5.094   2.842 -0.2824  0.3155 -0.0425
   65MOL0     N 8691   7.070   4.701   2.895 -0.1918  0.3203  0.1199
   65MOL0     N 8692   7.111   4.657   3.011  0.2756 -0.1166  0.0357
   65MOL0     C 8693   8.029   4.733   3.833 -0.1662 -0.9699 -0.3531
   65MOL0     C 8694   8.156   4.681   3.849  1.1907 -0.5930  0.0486
   65MOL0     C 8695   8.551   4.457   3.774  0.0267 -0.0322 -0.3156
   65MOL0     C 8696   8.549   4.388   3.652 -0.8903 -0.3223 -0.7975
   65MOL0     C 8697   8.668   4.342   3.594  0.4069  0.1030 -1.1806
   65MOL0     C 8698   8.789   4.374   3.660  1.0180  0.4846  0.0377
   65MOL0     O 8699   8.900   4.332   3.593 -0.3631 -0.0175  0.0355
   65MOL0     C 8700   8.985   4.230   3.657 -0.2554 -0.2407 -0.7116
   65MOL0     C 8701   9.133   4.254   3.610 -0.5624  0.2340 -0.4139
   65MOL0     C 8702   9.225   4.230   3.728 -0.1738 -0.2207  0.4539
   65MOL0     C 8703   9.238   4.080   3.754 -0.1667  0.0777  0.7249
   65MOL0     C 8704   9.294   4.046   3.883 -0.5155  0.6853 -0.7745
   65MOL0     C 8705   9.343   4.024   3.992  0.2506  0.0837 -0.2575
   65MOL0     C 8706   8.794   4.435   3.783 -0.1245  0.0157 -0.4773
   65MOL0     C 8707   8.677   4.474   3.849 -0.3444 -0.8721  0.5756
   65MOL0     H 8708   8.138   4.437   3.609  2.7090  1.5272  0.6484
   65MOL0     H 8709   7.904   4.532   3.584 -0.2873  2.2475 -0.3963
   65MOL0     H 8710   7.792   4.849   3.868 -1.8606 -1.9185  1.2280
   65MOL0     H 8711   7.817   4.880   3.685  2.7217 -1.2779  1.3038
   65MOL0     H 8712   7.576   4.745   3.828 -2.6829  0.3677 -0.5259
   65MOL0     H 8713   7.569   4.915   3.793  0.2598  0.4857 -2.4667
   65MOL0     H 8714   7.611   4.703   3.579 -0.4590  0.7036 -0.8007
   65MOL0     H 8715   7.446   4.764   3.620  0.1557 -3.8449 -0.3761
   65MOL0     H 8716   7.506   4.985   3.542  2.0784  1.5360 -0.0563
   65MOL0     H 8717   7.669   4.934   3.502 -0.5595  0.2626 -0.0181
   65MOL0     H 8718   7.497   4.949   3.316 -0.1944  0.8082  0.1761
   65MOL0     H 8719   7.595   4.800   3.321  1.6096  1.4380  1.2400
   65MOL0     H 8720   7.402   4.681   3.434 -0.1156  2.4882  4.0187
   65MOL0     H 8721   7.308   4.831   3.431 -1.1706 -1.9241  0.4316
   65MOL0     H 8722   7.337   4.852   3.183 -0.6324 -0.2734 -1.6069
   65MOL0     H 8723   7.385   4.686   3.168 -0.8658  0.6453  0.8326
   65MOL0     H 8724   7.130   4.792   3.305  0.7660  1.6948 -1.6409
   65MOL0     H 8725   7.181   4.617   3.263 -1.2894 -0.1509  0.1366
   65MOL0     H 8726   7.015   4.946   3.111 -0.8615  0.7085 -0.6841
   65MOL0     H 8727   6.980   4.984   2.790 -2.7322  0.7887 -2.8390
   65MOL0     H 8728   6.921   4.824   2.749  0.1161  0.0465  0.4479
   65MOL0     H 8729   6.759   4.869   2.972 -1.7483  1.2676  0.1073
   65MOL0     H 8730   6.717   4.918   2.815  0.0919 -2.4392  0.9360
   65MOL0     H 8731   6.780   5.143   2.832 -0.7801 -1.6504 -1.9848
   65MOL0     H 8732   6.863   5.120   2.986  1.0990  1.0849 -2.1531
   65MOL0     H 8733   6.650   5.216   3.038 -2.5051 -0.0681  0.2226
   65MOL0     H 8734   6.635   5.049   3.076  1.2874  0.5844  1.0183
   65MOL0     H 8735   6.486   5.329   3.010  0.0555 -0.9270 -0.2064
   65MOL0     H 8736   6.275   5.550   2.976  2.2198 -1.8136 -1.7903
   65MOL0     H 8737   6.164   5.475   3.089 -1.1874 -2.0687 -0.7022
   65MOL0     H 8738   6.340   5.468   3.116  1.6086  0.2607 -2.0122
   65MOL0     H 8739   5.696   5.194   2.960  1.4249  0.6115  0.3477
   65MOL0     H 8740   5.499   5.293   2.903  2.9022 -2.6049  0.6971
   65MOL0     H 8741   5.356   5.322   2.636 -0.0721 -0.2236  0.1678
   65MOL0     H 8742   5.321   5.395   2.798  0.5803  1.9262  0.2983
   65MOL0     H 8743   5.143   5.478   2.650 -1.3546  1.5596 -2.1522
   65MOL0     H 8744   5.255   5.604   2.699  3.8915 -0.7239 -0.7069
   65MOL0     H 8745   5.276   5.456   2.433  2.5097  0.6576 -1.3866
   65MOL0     H 8746   5.374   5.590   2.491  0.1821 -1.0118 -1.9305
   65MOL0     H 8747   5.122   5.704   2.522  0.8723  2.3632 -0.5293
   65MOL0     H 8748   5.206   5.731   2.370  1.5308  0.7689  0.8517
   65MOL0     H 8749   5.006   5.530   2.439  2.6482  0.7242  2.1404
   65MOL0     H 8750   5.099   5.515   2.283  0.5009 -0.2507 -0.0903
   65MOL0     H 8751   4.936   5.759   2.381  0.1097 -0.0426 -0.7488
   65MOL0     H 8752   5.006   5.737   2.220 -0.0940 -0.6439 -0.9471
   65MOL0     H 8753   4.784   5.576   2.342  1.7477  0.0859  1.0167
   65MOL0     H 8754   4.865   5.534   2.187 -0.8369 -0.4779  0.7421
   65MOL0     H 8755   4.699   5.791   2.226 -1.1092  0.4794 -2.5454
   65MOL0     H 8756   4.637   5.631   2.163  1.4045 -2.7320  1.3744
   65MOL0     H 8757   5.703   5.502   2.563  0.4751 -2.9349 -1.8899
   65MOL0     H 8758   5.902   5.409   2.639  0.8993 -3.1856 -0.4985
   65MOL0     H 8759   6.116   5.080   2.797  0.5698  0.2171 -0.3553
   65MOL0     H 8760   6.339   4.998   2.796 -1.2011 -0.1865  0.5918
   65MOL0     H 8761   7.990   4.815   3.893  0.9691  0.9594 -2.1159
   65MOL0     H 8762   8.228   4.728   3.916  2.6986 -0.8404 -1.3206
   65MOL0     H 8763   8.458   4.371   3.597  0.6634 -1.7460 -3.1129
   65MOL0     H 8764   8.667   4.299   3.494  1.2279  0.3827 -1.3201
   65MOL0     H 8765   8.984   4.224   3.766  1.8859 -0.7233 -0.6820
   65MOL0     H 8766   8.939   4.135   3.629  3.3136 -2.4606  0.3546
   65MOL0     H 8767   9.145   4.355   3.567 -0.3070  0.9510  1.2683
   65MOL0     H 8768   9.160   4.176   3.538  1.5773  0.6693 -0.1663
   65MOL0     H 8769   9.180   4.273   3.818  0.5338  0.6833  0.3845
   65MOL0     H 8770   9.320   4.279   3.709  0.8546 -2.8085 -1.7606
   65MOL0     H 8771   9.306   4.059   3.671  0.2402  3.2398  0.1290
   65MOL0     H 8772   9.141   4.031   3.742  0.7690 -1.0168 -4.4102
   65MOL0     H 8773   9.390   4.005   4.086 -1.7369 -2.4420  0.3197
   65MOL0     H 8774   8.895   4.458   3.813 -0.0840 -0.3829 -0.3129
   65MOL0     H 8775   8.672   4.529   3.942 -0.1860 -1.1985  0.7788
   66MOL0     O 8776   0.394   4.547   3.798  0.6213 -0.0389  0.3990
   66MOL0     C 8777   0.442   4.648   3.838 -0.2051  0.1961 -0.1584
   66MOL0     O 8778   0.375   4.740   3.915 -0.2132  0.3694 -0.1004
   66MOL0     C 8779   0.234   4.732   3.910  0.0622 -0.0898  0.5768
   66MOL0     C 8780   0.157   4.748   4.029  0.2507 -0.3256  1.1308
   66MOL0     C 8781   0.013   4.752   4.015 -0.8391 -0.1203  0.5216
   66MOL0     C 8782  -0.047   4.743   3.890  0.0895  0.0866 -0.3360
   66MOL0     O 8783  -0.184   4.753   3.892  0.5758 -0.0562  0.0417
   66MOL0     C 8784  -0.263   4.756   3.766  0.6528 -0.0334  0.2249
   66MOL0     C 8785  -0.413   4.788   3.795  0.4240  0.4508  0.1930
   66MOL0     C 8786  -0.506   4.734   3.686 -0.4680 -0.4696 -0.4486
   66MOL0     C 8787  -0.648   4.796   3.697 -0.4782  0.0255  0.6499
   66MOL0     C 8788  -0.737   4.735   3.586 -0.7310  0.2383 -0.1660
   66MOL0     C 8789  -0.878   4.771   3.564  0.0866 -0.3055 -0.4776
   66MOL0     C 8790  -0.966   4.665   3.508 -0.1879  0.2157  0.4642
   66MOL0     C 8791  -1.115   4.697   3.531 -0.1458 -0.5625  0.0659
   66MOL0     N 8792  -1.145   4.840   3.508  0.5306  0.1192 -0.7513
   66MOL0     C 8793  -1.171   4.902   3.390  0.2789  0.9373 -0.0119
   66MOL0     C 8794  -1.182   5.036   3.416 -0.1029  0.7950 -0.8512
   66MOL0     C 8795  -1.205   5.139   3.315 -0.3673 -0.5267  0.3203
   66MOL0     C 8796  -1.322   5.234   3.361  1.0078  0.3282 -0.5007
   66MOL0     C 8797  -1.439   5.148   3.407  0.1790 -0.0720  0.5702
   66MOL0     C 8798  -1.567   5.231   3.430 -0.2982 -0.9535 -0.5128
   66MOL0     O 8799  -1.532   5.372   3.437 -0.2092 -0.0626 -0.4041
   66MOL0     C 8800  -1.622   5.454   3.503 -0.6171 -0.2803  0.5634
   66MOL0     C 8801  -1.761   5.436   3.512  0.5427 -0.3786  0.6901
   66MOL0     C 8802  -1.853   5.534   3.564  0.1121 -0.2348  0.2853
   66MOL0     C 8803  -1.997   5.490   3.595  0.5201  0.7035 -0.1419
   66MOL0     C 8804  -1.805   5.666   3.585  0.3875  0.8596  0.4514
   66MOL0     C 8805  -1.879   5.787   3.631  0.1239  0.5242 -0.8554
   66MOL0     O 8806  -1.819   5.913   3.637 -1.0672 -0.3470 -0.1514
   66MOL0     C 8807  -1.891   6.011   3.700  0.6725  0.2993 -0.0317
   66MOL0     C 8808  -1.926   6.006   3.835 -0.4867 -0.2169 -1.0085
   66MOL0     C 8809  -1.978   6.117   3.903  0.4840 -0.1463  0.0985
   66MOL0     C 8810  -1.989   6.241   3.837  0.0112 -0.8949 -0.5056
   66MOL0     O 8811  -2.043   6.349   3.894 -0.4121 -0.6400 -0.1847
   66MOL0     C 8812  -2.169   6.337   3.958 -0.1321 -0.4282 -0.8668
   66MOL0     C 8813  -2.276   6.286   3.868  0.6457  0.3750  0.6483
   66MOL0     C 8814  -2.417   6.298   3.932  0.6637  0.4303 -0.3594
   66MOL0     C 8815  -2.529   6.225   3.855  0.1797  0.4021 -0.1445
   66MOL0     C 8816  -2.662   6.233   3.938 -0.4454 -0.2480 -0.6380
   66MOL0     C 8817  -2.776   6.160   3.881 -0.7784  0.5107  0.6465
   66MOL0     C 8818  -2.888   6.154   3.981 -0.0505  0.5939  0.4278
   66MOL0     C 8819  -2.925   6.009   4.015  0.0235  0.0703  0.8928
   66MOL0    Cl 8820  -3.076   5.948   3.920 -0.2401 -0.4981 -0.1824
   66MOL0     C 8821  -1.953   6.252   3.708 -0.6507  1.0764  0.5692
   66MOL0     C 8822  -1.907   6.134   3.637 -0.3978 -0.5269  0.0014
   66MOL0     O 8823  -1.994   5.763   3.669 -0.1463 -1.1740  0.4806
   66MOL0     C 8824  -1.669   5.679   3.571  0.3362  0.0488  0.1043
   66MOL0     C 8825  -1.574   5.574   3.545  0.6995  0.0639 -0.1751
   66MOL0     N 8826  -1.167   5.052   3.551 -0.2783  0.5828  0.1676
   66MOL0     N 8827  -1.139   4.933   3.611 -0.4526  0.1286  0.4569
   66MOL0     C 8828   0.029   4.733   3.777  0.5759  1.0281  0.0594
   66MOL0     C 8829   0.173   4.731   3.786 -0.4234 -0.1433 -0.9065
   66MOL0     C 8830   0.588   4.671   3.824  0.0697  0.2076  0.3957
   66MOL0     C 8831   0.677   4.582   3.758 -0.1127  0.8192 -0.4383
   66MOL0     C 8832   0.815   4.602   3.740  0.7963 -0.8473 -0.2689
   66MOL0     C 8833   0.869   4.726   3.771  0.0909 -0.1424  0.2806
   66MOL0     O 8834   1.000   4.761   3.746  0.1508  0.1287 -0.3715
   66MOL0     C 8835   1.085   4.666   3.688 -0.4796  0.4766 -0.7385
   66MOL0     C 8836   1.230   4.730   3.648  0.2452 -0.4196  0.3058
   66MOL0     C 8837   1.312   4.620   3.574 -0.5702  0.0812 -0.6392
   66MOL0     C 8838   1.433   4.684   3.516 -0.3953  0.1821 -0.1445
   66MOL0     C 8839   1.539   4.693   3.617 -0.1304  0.4083 -0.6333
   66MOL0     C 8840   1.618   4.712   3.706  0.2296  0.6377 -0.7490
   66MOL0     C 8841   0.786   4.824   3.819  0.3389 -1.3099 -0.4258
   66MOL0     C 8842   0.646   4.797   3.848  0.2857 -0.1664 -0.7673
   66MOL0     H 8843   0.193   4.759   4.131  1.0228 -2.8851  1.1890
   66MOL0     H 8844  -0.039   4.754   4.110  2.8547 -0.4757  2.7300
   66MOL0     H 8845  -0.227   4.841   3.708 -3.6810  1.1167 -1.1562
   66MOL0     H 8846  -0.261   4.655   3.723 -3.4501 -0.2965  0.2550
   66MOL0     H 8847  -0.441   4.744   3.891 -0.2278 -1.9574 -1.0101
   66MOL0     H 8848  -0.419   4.897   3.803  0.4358  0.4119  0.7153
   66MOL0     H 8849  -0.469   4.764   3.588  1.6670 -1.8661 -0.1338
   66MOL0     H 8850  -0.510   4.626   3.701  1.4704 -0.2264  3.0981
   66MOL0     H 8851  -0.690   4.784   3.797 -2.4329  1.5527  0.0719
   66MOL0     H 8852  -0.646   4.902   3.671  1.4322  0.0145  0.5775
   66MOL0     H 8853  -0.677   4.764   3.499 -0.1327  1.5499  0.6567
   66MOL0     H 8854  -0.728   4.627   3.597  2.2060  0.0620 -2.7653
   66MOL0     H 8855  -0.927   4.792   3.659 -3.1245 -1.3881 -1.7469
   66MOL0     H 8856  -0.871   4.866   3.510  0.3225 -0.1004 -0.0878
   66MOL0     H 8857  -0.937   4.651   3.403 -0.1734  1.1135  0.3467
   66MOL0     H 8858  -0.950   4.574   3.567 -1.9338  1.4946  3.1067
   66MOL0     H 8859  -1.137   4.675   3.636  0.1092  0.3695  0.3204
   66MOL0     H 8860  -1.175   4.635   3.464 -1.7139  2.5154 -1.5802
   66MOL0     H 8861  -1.184   4.860   3.290  0.2139 -2.7021  1.3712
   66MOL0     H 8862  -1.119   5.199   3.285  0.0446 -2.6121 -3.3281
   66MOL0     H 8863  -1.230   5.093   3.219  1.2362  0.1268 -0.4500
   66MOL0     H 8864  -1.348   5.306   3.282  0.4867  1.9352  1.0822
   66MOL0     H 8865  -1.288   5.302   3.439 -2.0907  1.3328  0.1027
   66MOL0     H 8866  -1.412   5.104   3.504  0.7345  2.6345  1.7258
   66MOL0     H 8867  -1.457   5.068   3.335  1.2329  0.9051 -0.8281
   66MOL0     H 8868  -1.604   5.216   3.532  0.2158  3.5663  0.5243
   66MOL0     H 8869  -1.645   5.207   3.357 -0.6704 -1.1866 -0.0397
   66MOL0     H 8870  -1.815   5.349   3.475 -1.2441  0.6180  0.8578
   66MOL0     H 8871  -2.018   5.383   3.594 -1.1898  1.0056 -1.8237
   66MOL0     H 8872  -2.036   5.541   3.683 -0.4969  1.0069 -0.7431
   66MOL0     H 8873  -2.068   5.530   3.521  0.3389  1.4400  0.4209
   66MOL0     H 8874  -1.911   5.916   3.894 -0.5652  1.7977  2.3152
   66MOL0     H 8875  -2.003   6.103   4.008  0.6475 -4.8692 -0.3102
   66MOL0     H 8876  -2.163   6.284   4.053  1.6177 -1.0434 -1.2762
   66MOL0     H 8877  -2.196   6.438   3.988 -4.0425 -1.8871  1.3045
   66MOL0     H 8878  -2.286   6.347   3.778  1.0389  1.2943  1.2196
   66MOL0     H 8879  -2.261   6.182   3.838 -1.4796  0.7193 -1.9489
   66MOL0     H 8880  -2.440   6.405   3.937 -0.8172  0.1112  0.1730
   66MOL0     H 8881  -2.419   6.253   4.032  2.7964  2.9336  0.9244
   66MOL0     H 8882  -2.546   6.268   3.756 -0.6815 -1.1264 -0.6892
   66MOL0     H 8883  -2.502   6.120   3.842 -3.6685 -0.3680 -3.5898
   66MOL0     H 8884  -2.677   6.341   3.940  0.0049 -0.1509  2.6801
   66MOL0     H 8885  -2.655   6.213   4.045  2.3093 -3.0295 -1.2059
   66MOL0     H 8886  -2.813   6.201   3.786 -2.6838 -0.5826  0.8576
   66MOL0     H 8887  -2.760   6.054   3.860 -2.7262 -0.2119  2.4701
   66MOL0     H 8888  -2.967   6.208   3.929  1.7976  2.8100 -0.2174
   66MOL0     H 8889  -2.863   6.202   4.076  0.2333 -1.5187  1.5070
   66MOL0     H 8890  -2.962   6.010   4.118  1.2799  2.3639  1.3919
   66MOL0     H 8891  -2.846   5.935   4.002 -0.3069 -0.3286  1.1108
   66MOL0     H 8892  -1.966   6.350   3.663 -1.1638 -0.2703 -2.4978
   66MOL0     H 8893  -1.884   6.146   3.531  2.7222 -1.1214  0.5234
   66MOL0     H 8894  -1.623   5.774   3.596 -1.0706  0.4546  1.3217
   66MOL0     H 8895  -1.470   5.598   3.525  0.1108  2.4266 -0.6672
   66MOL0     H 8896  -0.012   4.744   3.678  0.2115  3.7068  0.4345
   66MOL0     H 8897   0.234   4.732   3.696  0.5475 -2.8569 -0.3697
   66MOL0     H 8898   0.642   4.489   3.714 -0.6370  0.8804 -0.1490
   66MOL0     H 8899   0.870   4.523   3.689  0.6939  0.0123 -1.7699
   66MOL0     H 8900   1.103   4.586   3.760 -1.1042  0.5426 -0.5065
   66MOL0     H 8901   1.039   4.614   3.604 -0.2561 -1.9622  0.5673
   66MOL0     H 8902   1.280   4.763   3.739 -0.1811 -1.9693  1.1504
   66MOL0     H 8903   1.212   4.813   3.579  0.9232 -1.2477 -0.8901
   66MOL0     H 8904   1.250   4.567   3.501 -1.5078 -1.7334  1.3577
   66MOL0     H 8905   1.336   4.542   3.647 -0.2822  1.8980  1.3012
   66MOL0     H 8906   1.405   4.781   3.473 -0.8056  0.7452  1.3275
   66MOL0     H 8907   1.462   4.626   3.427  2.5301  0.4643  0.5282
   66MOL0     H 8908   1.688   4.725   3.786 -3.3362  2.5681  2.3279
   66MOL0     H 8909   0.823   4.925   3.828 -2.0326 -0.1218 -2.6780
   66MOL0     H 8910   0.576   4.874   3.878  0.1595 -0.5223 -0.1247
   67MOL0     O 8911   8.330   3.314   4.569  0.4968  0.5260 -0.6555
   67MOL0     C 8912   8.364   3.320   4.456  0.8599  0.5096 -0.0157
   67MOL0     O 8913   8.307   3.403   4.358 -0.6403  0.2358 -0.5833
   67MOL0     C 8914   8.223   3.502   4.398  0.3638  0.3234  0.4303
   67MOL0     C 8915   8.267   3.620   4.464 -0.0430  0.8661 -0.9910
   67MOL0     C 8916   8.170   3.717   4.492  0.4538 -0.1180 -0.4563
   67MOL0     C 8917   8.030   3.691   4.473 -0.5478 -0.4686  0.3092
   67MOL0     O 8918   7.935   3.790   4.510  0.1124  1.0539  0.3890
   67MOL0     C 8919   7.932   3.838   4.641 -0.6371 -0.0266  0.2991
   67MOL0     C 8920   7.845   3.750   4.731 -0.1476 -0.2075  0.0658
   67MOL0     C 8921   7.694   3.755   4.683  0.0795 -0.2185  0.3103
   67MOL0     C 8922   7.623   3.622   4.714 -0.3474  0.4172  0.1684
   67MOL0     C 8923   7.479   3.634   4.662  0.1902 -0.0505  0.0642
   67MOL0     C 8924   7.385   3.731   4.741  0.1526  0.4754 -0.0304
   67MOL0     C 8925   7.246   3.727   4.671  0.3805 -0.2831  0.4750
   67MOL0     C 8926   7.122   3.788   4.743  0.1911 -0.5682  0.0352
   67MOL0     N 8927   6.997   3.762   4.669  0.5591  0.3837  0.6343
   67MOL0     C 8928   6.889   3.846   4.685 -0.7987 -0.3352 -0.1186
   67MOL0     C 8929   6.788   3.763   4.656 -0.2588  1.3274 -0.4848
   67MOL0     C 8930   6.642   3.796   4.662 -0.3751 -0.2153  0.2473
   67MOL0     C 8931   6.563   3.750   4.532  0.3332  0.4605  0.2884
   67MOL0     C 8932   6.420   3.821   4.542 -0.3912 -0.7104  0.0424
   67MOL0     C 8933   6.325   3.786   4.432  0.8345  0.3348  0.6070
   67MOL0     O 8934   6.372   3.822   4.306  0.2051  0.4798  0.2289
   67MOL0     C 8935   6.285   3.796   4.202 -0.3719 -0.1074  0.6957
   67MOL0     C 8936   6.319   3.850   4.075  1.0812  0.1803  0.6496
   67MOL0     C 8937   6.234   3.841   3.963  0.2659 -0.6239  0.1788
   67MOL0     C 8938   6.269   3.918   3.839 -0.3758 -0.8507  0.1918
   67MOL0     C 8939   6.107   3.782   3.988 -0.3777  0.1516 -0.1792
   67MOL0     C 8940   6.001   3.768   3.882 -0.0736 -0.0281  0.4677
   67MOL0     O 8941   5.876   3.727   3.927  0.4249  0.4154  0.0947
   67MOL0     C 8942   5.767   3.710   3.831  0.1738 -0.2064  0.9426
   67MOL0     C 8943   5.671   3.608   3.837  0.3740  0.5439 -0.0388
   67MOL0     C 8944   5.553   3.602   3.756 -0.5640 -0.0144  0.3242
   67MOL0     C 8945   5.514   3.701   3.668 -0.0792  0.1329 -0.1621
   67MOL0     O 8946   5.397   3.697   3.602  0.0390 -0.5528 -0.2559
   67MOL0     C 8947   5.279   3.672   3.675 -0.5014  0.8459 -0.4571
   67MOL0     C 8948   5.169   3.751   3.611  1.3418 -0.1895  0.7350
   67MOL0     C 8949   5.036   3.759   3.695  0.2866 -0.1458  0.0109
   67MOL0     C 8950   4.941   3.856   3.635 -0.5630  0.0353 -0.4648
   67MOL0     C 8951   4.797   3.805   3.674  0.3862 -0.2988 -0.2595
   67MOL0     C 8952   4.690   3.869   3.598  0.1451  0.0681 -0.0037
   67MOL0     C 8953   4.560   3.845   3.664 -0.0191 -0.6210 -0.7077
   67MOL0     C 8954   4.456   3.947   3.602 -0.3944  0.8553 -0.3036
   67MOL0    Cl 8955   4.398   3.878   3.459  0.2555 -0.4168  0.1816
   67MOL0     C 8956   5.608   3.812   3.668 -0.0135  0.2411 -0.2205
   67MOL0     C 8957   5.722   3.816   3.751 -0.2875 -1.0026  0.9929
   67MOL0     O 8958   6.026   3.783   3.764  0.8831 -0.7045 -0.1678
   67MOL0     C 8959   6.071   3.742   4.117 -0.9853  0.2144  0.4059
   67MOL0     C 8960   6.156   3.750   4.220  0.3953  0.5757 -0.1999
   67MOL0     N 8961   6.828   3.637   4.606 -0.1770 -0.1876 -0.7553
   67MOL0     N 8962   6.959   3.639   4.611 -0.6419 -0.7957 -0.7066
   67MOL0     C 8963   7.990   3.571   4.418 -0.1453 -0.0174 -0.1939
   67MOL0     C 8964   8.086   3.479   4.384  0.5233 -0.4330 -0.0613
   67MOL0     C 8965   8.491   3.254   4.402  0.0662 -0.1331  0.8486
   67MOL0     C 8966   8.577   3.168   4.470 -0.3433 -0.0407 -0.3929
   67MOL0     C 8967   8.683   3.100   4.413  0.3950 -0.4262  0.1677
   67MOL0     C 8968   8.708   3.112   4.279 -0.4514  0.2387 -0.1511
   67MOL0     O 8969   8.818   3.060   4.210 -0.0111  0.7813  0.0302
   67MOL0     C 8970   8.919   2.988   4.290  0.1499  0.3976  0.4582
   67MOL0     C 8971   8.882   2.842   4.314  0.4267 -0.1458 -0.3752
   67MOL0     C 8972   9.006   2.765   4.355  0.1048  0.5674  0.3171
   67MOL0     C 8973   8.972   2.627   4.409 -0.8503  0.8472  0.0480
   67MOL0     C 8974   8.907   2.647   4.538 -0.4163  0.0863  0.2660
   67MOL0     C 8975   8.849   2.657   4.650 -0.8845  0.2541 -0.2013
   67MOL0     C 8976   8.632   3.200   4.204 -0.7235 -0.4700 -0.5378
   67MOL0     C 8977   8.520   3.268   4.259 -0.3858  1.1160  0.3932
   67MOL0     H 8978   8.370   3.627   4.499 -0.6779  0.3678  1.0866
   67MOL0     H 8979   8.200   3.811   4.538 -1.5622  0.1685  0.3811
   67MOL0     H 8980   8.034   3.841   4.678  0.5038 -0.0178 -2.6114
   67MOL0     H 8981   7.898   3.942   4.640  2.8451  1.3106 -2.9263
   67MOL0     H 8982   7.880   3.646   4.730 -0.5996 -0.3806  1.2596
   67MOL0     H 8983   7.847   3.796   4.830 -0.8318 -0.7261  0.3304
   67MOL0     H 8984   7.660   3.847   4.731  2.2597  2.1759 -2.3895
   67MOL0     H 8985   7.690   3.770   4.575 -2.4824  0.9523  0.4957
   67MOL0     H 8986   7.672   3.548   4.649 -0.5891  0.1349  0.3046
   67MOL0     H 8987   7.626   3.587   4.818 -1.3957  1.6270  0.6230
   67MOL0     H 8988   7.495   3.660   4.557  0.3161 -2.8859 -0.7127
   67MOL0     H 8989   7.430   3.538   4.681 -1.9376  1.5863  3.6949
   67MOL0     H 8990   7.371   3.705   4.847 -0.1277  0.2426 -0.1234
   67MOL0     H 8991   7.436   3.826   4.725  1.7397 -0.4917 -1.0153
   67MOL0     H 8992   7.258   3.769   4.571  1.4027  2.5724  1.6816
   67MOL0     H 8993   7.223   3.621   4.660 -1.2096  0.1531 -0.9296
   67MOL0     H 8994   7.142   3.896   4.741 -0.4475 -0.4507 -1.4847
   67MOL0     H 8995   7.108   3.738   4.839 -0.8398 -1.3726 -0.5195
   67MOL0     H 8996   6.898   3.939   4.739 -1.2824 -0.7638  0.7328
   67MOL0     H 8997   6.602   3.755   4.756  0.9870 -4.0722 -0.6343
   67MOL0     H 8998   6.643   3.904   4.672  0.8679 -0.2935  1.2932
   67MOL0     H 8999   6.554   3.641   4.540  0.7334  0.5068  1.5562
   67MOL0     H 9000   6.609   3.780   4.437 -0.2695  0.0328 -0.1483
   67MOL0     H 9001   6.425   3.930   4.545 -3.7265 -0.4776  2.3400
   67MOL0     H 9002   6.365   3.791   4.632 -1.9034  0.9297 -0.2853
   67MOL0     H 9003   6.226   3.829   4.448  0.2178  0.9795 -3.6710
   67MOL0     H 9004   6.308   3.678   4.438  1.4389  0.2165  0.3148
   67MOL0     H 9005   6.410   3.910   4.069 -0.2065  2.3588  1.5347
   67MOL0     H 9006   6.254   3.859   3.748 -2.3329 -0.0169 -0.0889
   67MOL0     H 9007   6.195   3.996   3.820 -0.2161 -1.6101 -4.8299
   67MOL0     H 9008   6.364   3.969   3.857 -1.9385  1.9011  1.2261
   67MOL0     H 9009   5.683   3.519   3.899 -0.7006  1.4116  1.4972
   67MOL0     H 9010   5.498   3.509   3.757 -1.4906  0.4832 -1.3181
   67MOL0     H 9011   5.258   3.565   3.681  0.9937  0.6135  2.0578
   67MOL0     H 9012   5.289   3.714   3.776 -0.8513  0.1810 -0.1396
   67MOL0     H 9013   5.214   3.850   3.597  0.4393  0.1145 -0.1554
   67MOL0     H 9014   5.155   3.712   3.510 -0.2976  2.2578 -0.0901
   67MOL0     H 9015   5.053   3.804   3.793 -1.9895 -1.4912  1.1110
   67MOL0     H 9016   4.999   3.657   3.707  0.0446 -0.0334  0.2039
   67MOL0     H 9017   4.946   3.959   3.670 -3.9088  1.4868 -3.5488
   67MOL0     H 9018   4.952   3.874   3.528 -1.0767  1.4186 -0.3036
   67MOL0     H 9019   4.785   3.835   3.778  0.5227 -0.6034 -0.1555
   67MOL0     H 9020   4.787   3.696   3.670 -0.4193 -0.2466  0.1545
   67MOL0     H 9021   4.725   3.973   3.587  1.0859 -0.1229  1.0344
   67MOL0     H 9022   4.692   3.815   3.503  2.1051 -1.3989  0.8182
   67MOL0     H 9023   4.558   3.866   3.771  1.6585  0.3350 -0.8219
   67MOL0     H 9024   4.533   3.741   3.644 -1.4178 -0.3347 -0.4244
   67MOL0     H 9025   4.504   4.046   3.594 -1.5448  1.8645  3.4001
   67MOL0     H 9026   4.363   3.954   3.659  0.1050  0.7062  0.5475
   67MOL0     H 9027   5.581   3.903   3.616  1.1323  0.3212 -0.7072
   67MOL0     H 9028   5.795   3.893   3.726  0.9403 -2.9635 -2.1094
   67MOL0     H 9029   5.975   3.701   4.145  0.4314 -1.3379  3.5508
   67MOL0     H 9030   6.115   3.720   4.315  3.1191  0.9611  1.2207
   67MOL0     H 9031   7.883   3.556   4.408 -0.9712  0.9171  4.6514
   67MOL0     H 9032   8.052   3.384   4.343 -1.2613  0.3673 -0.5534
   67MOL0     H 9033   8.568   3.164   4.578 -1.4678 -1.7083 -0.5029
   67MOL0     H 9034   8.739   3.027   4.472 -1.1310 -1.7246  0.0797
   67MOL0     H 9035   9.010   2.981   4.230  0.2651 -1.6416  0.8167
   67MOL0     H 9036   8.946   3.035   4.386  2.0151  0.4455 -0.0608
   67MOL0     H 9037   8.845   2.822   4.213 -0.0776  2.0806 -0.6653
   67MOL0     H 9038   8.802   2.829   4.387  0.0409  0.3533 -0.6999
   67MOL0     H 9039   9.077   2.811   4.424  3.1637 -0.0052 -2.2136
   67MOL0     H 9040   9.069   2.746   4.267 -0.9886 -0.6229 -0.2413
   67MOL0     H 9041   9.058   2.563   4.434  0.0921  1.1564 -2.0982
   67MOL0     H 9042   8.913   2.571   4.335  0.6778  0.4501 -0.9286
   67MOL0     H 9043   8.803   2.655   4.747 -0.9391  0.1993 -0.2283
   67MOL0     H 9044   8.647   3.217   4.098  0.3148 -1.6561 -0.5956
   67MOL0     H 9045   8.461   3.341   4.205 -0.1341  0.5049 -0.7308
   68MOL0     O 9046   7.931   7.405   1.121 -0.0905  0.3543  0.3623
   68MOL0     C 9047   7.943   7.362   1.011  0.7767  0.3360  0.2553
   68MOL0     O 9048   7.833   7.336   0.923 -0.1609 -0.4194  0.2546
   68MOL0     C 9049   7.713   7.384   0.940  0.4207  0.4206 -0.4147
   68MOL0     C 9050   7.639   7.337   1.049  0.4110 -0.6433 -0.0852
   68MOL0     C 9051   7.508   7.382   1.069 -0.5690  0.7529 -0.0846
   68MOL0     C 9052   7.451   7.471   0.982 -0.4484  0.0250  0.9024
   68MOL0     O 9053   7.315   7.511   1.005 -0.7975 -0.8424  0.2781
   68MOL0     C 9054   7.219   7.480   0.901 -1.1086  0.3776 -0.3038
   68MOL0     C 9055   7.082   7.531   0.947 -0.1079  0.0359 -0.2604
   68MOL0     C 9056   6.996   7.555   0.823  1.1595  0.0499  0.0054
   68MOL0     C 9057   6.853   7.593   0.866 -0.8334  0.7079 -0.0298
   68MOL0     C 9058   6.761   7.591   0.743 -0.3574 -0.3757 -0.1198
   68MOL0     C 9059   6.617   7.622   0.780  0.0313  0.0443 -0.0363
   68MOL0     C 9060   6.520   7.623   0.658 -0.2512  0.6268  0.1593
   68MOL0     C 9061   6.466   7.492   0.597  0.0021  0.4144 -0.5291
   68MOL0     N 9062   6.358   7.420   0.666 -0.7266 -0.2169 -0.1535
   68MOL0     C 9063   6.361   7.311   0.744 -0.4245 -0.5966 -0.2634
   68MOL0     C 9064   6.239   7.296   0.783 -0.4289 -0.3216 -0.2083
   68MOL0     C 9065   6.183   7.172   0.856 -0.1700 -0.8780  0.0328
   68MOL0     C 9066   6.162   7.049   0.763  0.1492  0.7695  0.7599
   68MOL0     C 9067   6.033   7.071   0.669 -0.3043 -0.1933 -0.1496
   68MOL0     C 9068   5.903   7.090   0.750 -0.3693  0.7935  0.7447
   68MOL0     O 9069   5.795   7.080   0.661  0.3347  0.2934  0.0089
   68MOL0     C 9070   5.709   7.190   0.660 -1.1676  0.6885  0.2904
   68MOL0     C 9071   5.746   7.323   0.670  0.1720 -0.0337 -0.3509
   68MOL0     C 9072   5.657   7.426   0.662  0.4241 -0.9104 -0.4111
   68MOL0     C 9073   5.719   7.562   0.670  0.4788 -0.2431 -0.1712
   68MOL0     C 9074   5.520   7.400   0.616 -0.8748  0.3340 -0.1012
   68MOL0     C 9075   5.418   7.506   0.608  0.4969 -0.3330 -0.3083
   68MOL0     O 9076   5.285   7.474   0.587 -0.0424 -0.8855 -0.4147
   68MOL0     C 9077   5.187   7.573   0.582 -0.3967  0.0348 -0.3057
   68MOL0     C 9078   5.073   7.562   0.656 -0.1407 -0.7896  0.0635
   68MOL0     C 9079   4.973   7.654   0.643  0.4692 -0.2996  0.5967
   68MOL0     C 9080   4.991   7.759   0.555 -0.0241 -0.7266 -0.0879
   68MOL0     O 9081   4.888   7.844   0.543  0.0138 -0.5447  0.0934
   68MOL0     C 9082   4.785   7.817   0.442 -0.5028 -0.0241 -0.5568
   68MOL0     C 9083   4.677   7.927   0.442 -0.3892  0.7089  0.1321
   68MOL0     C 9084   4.622   7.953   0.581  0.7923  0.0618  0.8718
   68MOL0     C 9085   4.493   8.024   0.579  0.1507 -0.0557  0.3270
   68MOL0     C 9086   4.443   8.039   0.725 -0.2657 -0.2480  0.5256
   68MOL0     C 9087   4.311   8.118   0.727  0.4519 -0.0891  0.0578
   68MOL0     C 9088   4.264   8.158   0.869 -0.7529  0.0358 -0.6835
   68MOL0     C 9089   4.115   8.201   0.871 -0.0931 -0.4427 -0.3077
   68MOL0    Cl 9090   4.085   8.285   1.029  0.5559  0.4010  0.5221
   68MOL0     C 9091   5.106   7.777   0.484 -0.6131 -0.5901  0.9316
   68MOL0     C 9092   5.205   7.683   0.503  0.0345 -0.0528 -0.1193
   68MOL0     O 9093   5.460   7.624   0.619 -0.1808  0.0750  0.2018
   68MOL0     C 9094   5.489   7.263   0.598 -0.2075  0.2432  0.9398
   68MOL0     C 9095   5.583   7.163   0.613 -0.0899  0.6483 -0.2356
   68MOL0     N 9096   6.161   7.407   0.737  1.1778 -0.0243 -0.0798
   68MOL0     N 9097   6.237   7.484   0.677  0.6931  0.4732  1.1047
   68MOL0     C 9098   7.525   7.509   0.874 -0.4232 -0.3032 -0.2361
   68MOL0     C 9099   7.665   7.476   0.856  0.4212  0.1852  0.2891
   68MOL0     C 9100   8.073   7.316   0.970  0.4359 -0.6931  0.4093
   68MOL0     C 9101   8.185   7.314   1.064 -0.1811 -0.3934  0.3470
   68MOL0     C 9102   8.312   7.271   1.024 -1.1491  0.0235 -0.8735
   68MOL0     C 9103   8.343   7.253   0.889  0.1281  0.9379 -0.7280
   68MOL0     O 9104   8.480   7.261   0.865  0.2705  1.1719  0.4009
   68MOL0     C 9105   8.534   7.239   0.734  0.2314 -0.0479 -0.2121
   68MOL0     C 9106   8.546   7.089   0.721 -0.2853 -0.8811  0.0713
   68MOL0     C 9107   8.677   7.018   0.748 -1.0131 -0.3181  0.0685
   68MOL0     C 9108   8.674   6.864   0.713  0.0080  0.0610 -0.6300
   68MOL0     C 9109   8.588   6.796   0.812  0.3363  0.0402 -0.5824
   68MOL0     C 9110   8.527   6.738   0.898  0.3986 -0.5372  0.0733
   68MOL0     C 9111   8.241   7.256   0.793  0.4197 -0.0908 -0.4955
   68MOL0     C 9112   8.104   7.280   0.841 -0.3753 -0.0348  0.1489
   68MOL0     H 9113   7.688   7.263   1.112  2.3850  0.5988 -0.0523
   68MOL0     H 9114   7.430   7.339   1.130 -0.6778 -2.3187 -2.1567
   68MOL0     H 9115   7.247   7.546   0.819  2.8033 -0.1575  0.3734
   68MOL0     H 9116   7.206   7.375   0.874 -1.9606  0.5326 -0.5199
   68MOL0     H 9117   7.044   7.467   1.028  1.6323  1.5134  1.8501
   68MOL0     H 9118   7.097   7.624   1.002  0.8096 -0.9660  1.2807
   68MOL0     H 9119   7.048   7.638   0.772  0.6047 -0.7277 -1.9008
   68MOL0     H 9120   6.997   7.469   0.756  2.1459 -0.6241  0.8539
   68MOL0     H 9121   6.826   7.514   0.938  2.0070 -0.7799 -0.4429
   68MOL0     H 9122   6.848   7.687   0.921  1.2151  0.7006  0.2528
   68MOL0     H 9123   6.808   7.669   0.682  0.8701  0.6142  1.9471
   68MOL0     H 9124   6.771   7.500   0.684  0.6076 -0.1176 -0.3813
   68MOL0     H 9125   6.575   7.556   0.857 -1.8659 -0.2598 -1.2624
   68MOL0     H 9126   6.615   7.721   0.826 -0.4156  0.2339 -0.4512
   68MOL0     H 9127   6.426   7.669   0.689 -0.2861 -1.1169  3.0073
   68MOL0     H 9128   6.568   7.684   0.581 -2.0623 -1.6819 -3.0713
   68MOL0     H 9129   6.551   7.423   0.599 -0.4637 -0.1716 -0.8574
   68MOL0     H 9130   6.435   7.499   0.492  1.3393 -0.2472 -0.9904
   68MOL0     H 9131   6.449   7.253   0.770  0.5794 -0.3324 -2.7947
   68MOL0     H 9132   6.248   7.142   0.938 -0.3724 -0.1167  0.4839
   68MOL0     H 9133   6.090   7.197   0.908  0.7786 -0.4672  1.5822
   68MOL0     H 9134   6.146   6.957   0.820 -0.4617  0.4510  0.0862
   68MOL0     H 9135   6.250   7.028   0.701 -0.6481 -0.1595 -0.0942
   68MOL0     H 9136   6.018   6.988   0.599 -0.7689  0.5848 -1.0053
   68MOL0     H 9137   6.028   7.156   0.599 -0.4552 -2.0191 -2.4907
   68MOL0     H 9138   5.903   7.182   0.810 -0.2102  0.4547  1.2635
   68MOL0     H 9139   5.903   7.008   0.822 -2.2637  1.3888  1.4826
   68MOL0     H 9140   5.851   7.351   0.678  0.9276 -2.9769  1.1628
   68MOL0     H 9141   5.826   7.552   0.688  0.2367 -2.1940  0.3994
   68MOL0     H 9142   5.725   7.607   0.571  0.8849 -1.0705 -0.5237
   68MOL0     H 9143   5.669   7.621   0.748  0.4867 -1.4573  0.7684
   68MOL0     H 9144   5.058   7.479   0.724 -0.6891  0.9083  2.0914
   68MOL0     H 9145   4.881   7.651   0.700 -1.7669 -2.2775 -2.7169
   68MOL0     H 9146   4.831   7.811   0.343  1.4568 -2.8725  0.3905
   68MOL0     H 9147   4.728   7.723   0.448 -1.8594  0.7557 -0.7859
   68MOL0     H 9148   4.719   8.022   0.410 -0.6754  0.7911 -0.0087
   68MOL0     H 9149   4.590   7.906   0.379 -1.7217  3.1278  1.0427
   68MOL0     H 9150   4.688   8.016   0.642  0.9262 -1.0403  1.8894
   68MOL0     H 9151   4.612   7.864   0.643 -0.0807 -1.4332 -1.2984
   68MOL0     H 9152   4.498   8.118   0.523  1.8719 -0.3319 -0.0445
   68MOL0     H 9153   4.411   7.968   0.532  0.9203 -1.4302  0.5763
   68MOL0     H 9154   4.511   8.082   0.799 -0.2845 -1.7233  1.4447
   68MOL0     H 9155   4.416   7.941   0.766 -2.2399 -0.2528 -0.6465
   68MOL0     H 9156   4.335   8.212   0.677  2.9811 -0.9297 -0.4376
   68MOL0     H 9157   4.229   8.075   0.669 -0.5023 -2.0435  2.6411
   68MOL0     H 9158   4.329   8.237   0.907 -0.8710 -0.6257  0.9796
   68MOL0     H 9159   4.272   8.073   0.938 -1.3262  0.7232  0.2455
   68MOL0     H 9160   4.038   8.123   0.866 -1.1843  0.4511  1.3240
   68MOL0     H 9161   4.093   8.276   0.794  0.9745  1.4197  1.1032
   68MOL0     H 9162   5.106   7.858   0.411  1.5065 -2.3794 -1.2394
   68MOL0     H 9163   5.301   7.700   0.456  1.6781  0.7256  3.2414
   68MOL0     H 9164   5.385   7.233   0.590  0.8557 -3.7404 -0.1593
   68MOL0     H 9165   5.532   7.068   0.605 -0.1958  0.7646 -0.9565
   68MOL0     H 9166   7.466   7.575   0.811 -2.7606 -1.5819  0.5340
   68MOL0     H 9167   7.728   7.515   0.776  1.7669  3.9432  2.9003
   68MOL0     H 9168   8.168   7.353   1.163  0.9761  3.5731 -0.8368
   68MOL0     H 9169   8.393   7.262   1.096  0.5300  0.0971 -2.6680
   68MOL0     H 9170   8.478   7.300   0.663  0.8809  0.5487 -0.2223
   68MOL0     H 9171   8.637   7.277   0.730  0.6697 -1.1406  0.1602
   68MOL0     H 9172   8.525   7.055   0.619  1.9810  1.2802 -1.2185
   68MOL0     H 9173   8.473   7.045   0.790 -1.8019  0.7398 -0.4216
   68MOL0     H 9174   8.709   7.048   0.848 -2.0062  0.4442  0.1778
   68MOL0     H 9175   8.749   7.070   0.684 -1.8857 -2.1462 -2.5876
   68MOL0     H 9176   8.772   6.815   0.708 -1.1111 -2.4953  0.6856
   68MOL0     H 9177   8.631   6.853   0.613 -1.2114 -1.7129  0.0268
   68MOL0     H 9178   8.469   6.690   0.974 -2.6886  1.3865 -0.8820
   68MOL0     H 9179   8.258   7.232   0.689  0.7394 -1.0843 -0.2301
   68MOL0     H 9180   8.024   7.276   0.768 -1.3851  3.5328  0.8867
   69MOL0     O 9181   5.243   3.959   4.704  0.0141  1.2590  0.1370
   69MOL0     C 9182   5.344   3.914   4.659 -0.4502  1.2949  1.8416
   69MOL0     O 9183   5.387   3.940   4.532  0.3720 -0.1483  0.1267
   69MOL0     C 9184   5.309   3.994   4.432 -0.3371 -0.9432  0.1477
   69MOL0     C 9185   5.360   4.100   4.355 -0.3184  0.4108 -0.3789
   69MOL0     C 9186   5.287   4.140   4.242  0.9145  0.1057 -0.5342
   69MOL0     C 9187   5.159   4.089   4.214  0.7461  0.0095  0.0221
   69MOL0     O 9188   5.118   4.133   4.095 -0.0973 -0.7787 -0.2330
   69MOL0     C 9189   5.001   4.073   4.053 -0.2488 -0.1850  0.5694
   69MOL0     C 9190   4.966   4.129   3.909 -0.0390 -0.6813 -0.2490
   69MOL0     C 9191   4.860   4.239   3.916 -0.3641 -0.3459  0.2985
   69MOL0     C 9192   4.799   4.270   3.782  0.6023 -0.2989  1.5548
   69MOL0     C 9193   4.696   4.384   3.779 -0.1577 -0.1930  0.7383
   69MOL0     C 9194   4.583   4.364   3.871  0.5017  0.1117  0.0546
   69MOL0     C 9195   4.492   4.248   3.824 -0.7544  0.3129  0.8535
   69MOL0     C 9196   4.377   4.234   3.922  0.8407 -0.2154  0.2052
   69MOL0     N 9197   4.273   4.138   3.875 -0.5167 -0.4589 -0.2188
   69MOL0     C 9198   4.209   4.155   3.760  0.0452 -0.6133  0.5438
   69MOL0     C 9199   4.142   4.036   3.741  0.0326 -1.0887  0.0496
   69MOL0     C 9200   4.074   3.977   3.619 -0.3287 -0.4062 -0.8953
   69MOL0     C 9201   3.928   3.991   3.623 -0.2192  0.4192 -0.5309
   69MOL0     C 9202   3.872   3.921   3.751 -0.2670  0.4755 -0.3491
   69MOL0     C 9203   3.723   3.894   3.735 -0.2958 -1.0511  0.7753
   69MOL0     O 9204   3.701   3.822   3.611 -0.1240 -0.4575  0.2013
   69MOL0     C 9205   3.569   3.773   3.588 -0.1401 -0.1004 -0.7591
   69MOL0     C 9206   3.558   3.687   3.478 -0.2119 -0.9303  0.4519
   69MOL0     C 9207   3.443   3.628   3.442  0.8529  0.1633  0.8790
   69MOL0     C 9208   3.431   3.542   3.319  0.4785  1.0787 -0.5033
   69MOL0     C 9209   3.338   3.644   3.531  0.4554  0.2453 -0.6551
   69MOL0     C 9210   3.212   3.567   3.530 -0.0905 -0.0127  0.5874
   69MOL0     O 9211   3.167   3.526   3.650 -0.4417  0.2493  0.6590
   69MOL0     C 9212   3.055   3.438   3.642  0.2717  0.0726 -0.4920
   69MOL0     C 9213   2.917   3.466   3.618 -0.3491  1.0178  0.7726
   69MOL0     C 9214   2.825   3.360   3.600 -1.0851 -0.2750  0.0350
   69MOL0     C 9215   2.865   3.225   3.628 -0.3929  0.1436  0.1480
   69MOL0     O 9216   2.770   3.127   3.608  0.3600  0.6434  0.0462
   69MOL0     C 9217   2.806   3.076   3.476 -0.1216  0.2328  0.2752
   69MOL0     C 9218   2.705   2.979   3.424 -0.6007 -0.0515  0.2693
   69MOL0     C 9219   2.743   2.925   3.289  0.5695 -0.5057  0.0668
   69MOL0     C 9220   2.832   2.801   3.303  0.5711  0.2517 -0.1680
   69MOL0     C 9221   2.890   2.756   3.172  0.4396  0.9256  1.0041
   69MOL0     C 9222   2.786   2.676   3.100 -0.3856  0.4496 -1.1316
   69MOL0     C 9223   2.830   2.627   2.961  0.5969 -0.1262 -0.5596
   69MOL0     C 9224   2.721   2.543   2.894  0.4876  0.9220  0.5493
   69MOL0    Cl 9225   2.597   2.649   2.813 -0.1338 -0.1534 -0.4618
   69MOL0     C 9226   2.996   3.195   3.669 -0.0577  0.1406 -0.1571
   69MOL0     C 9227   3.086   3.303   3.678  0.3183 -0.6142 -0.0725
   69MOL0     O 9228   3.151   3.557   3.421  0.2536  0.4016  0.0112
   69MOL0     C 9229   3.344   3.743   3.638  0.3142  0.4443 -0.4833
   69MOL0     C 9230   3.462   3.808   3.666  0.1278 -0.2793  0.6060
   69MOL0     N 9231   4.169   3.959   3.848 -0.0908 -0.1378 -0.0333
   69MOL0     N 9232   4.250   4.014   3.922 -0.1314  0.0303  0.3151
   69MOL0     C 9233   5.105   3.993   4.300 -0.2545  1.0269 -0.9822
   69MOL0     C 9234   5.182   3.941   4.408  1.2364 -1.0141 -0.1138
   69MOL0     C 9235   5.430   3.846   4.746 -0.0916  0.1422  0.1655
   69MOL0     C 9236   5.570   3.857   4.741  0.5758 -0.4234  0.6485
   69MOL0     C 9237   5.655   3.785   4.833  0.1622 -0.0364 -0.0769
   69MOL0     C 9238   5.597   3.727   4.950 -0.8212 -0.2380  0.4726
   69MOL0     O 9239   5.667   3.673   5.048  0.1679  0.1436 -0.8706
   69MOL0     C 9240   5.792   3.620   5.019 -0.6607  0.1384  0.5773
   69MOL0     C 9241   5.826   3.516   5.124  0.4084 -0.3915 -0.0660
   69MOL0     C 9242   5.741   3.390   5.112  1.5447 -0.4641  0.4654
   69MOL0     C 9243   5.789   3.303   4.991  0.1193 -1.0598  0.0228
   69MOL0     C 9244   5.774   3.161   5.013 -0.1647  0.1180 -0.3307
   69MOL0     C 9245   5.786   3.040   5.022 -1.0027  0.5234  0.0409
   69MOL0     C 9246   5.467   3.721   4.954  0.2365 -0.0497 -0.3712
   69MOL0     C 9247   5.380   3.779   4.858 -0.4795  0.1146 -0.1749
   69MOL0     H 9248   5.457   4.143   4.378  0.0002 -1.4184  2.0586
   69MOL0     H 9249   5.323   4.218   4.175  2.1745 -0.6691 -0.7947
   69MOL0     H 9250   5.021   3.966   4.042 -2.3686 -0.3816 -3.0709
   69MOL0     H 9251   4.914   4.093   4.117 -3.2256 -1.6318 -2.6488
   69MOL0     H 9252   5.059   4.165   3.863  0.1168 -0.8882 -0.0965
   69MOL0     H 9253   4.917   4.050   3.851 -1.2168 -0.2611  0.1390
   69MOL0     H 9254   4.778   4.209   3.982 -0.1466  0.3365  0.8899
   69MOL0     H 9255   4.899   4.333   3.955 -1.6046  0.4740 -0.3651
   69MOL0     H 9256   4.870   4.292   3.702  0.6345  2.1188  2.1996
   69MOL0     H 9257   4.742   4.183   3.747  1.5513 -0.6080  0.7254
   69MOL0     H 9258   4.753   4.476   3.798  1.7174 -1.3153  0.7179
   69MOL0     H 9259   4.653   4.399   3.679 -0.7733  1.2726  1.1798
   69MOL0     H 9260   4.621   4.345   3.972 -1.3774 -0.1721  0.7563
   69MOL0     H 9261   4.520   4.454   3.879 -0.9493 -0.8125 -0.5567
   69MOL0     H 9262   4.457   4.254   3.721  2.9003 -0.5780 -0.6031
   69MOL0     H 9263   4.554   4.158   3.826 -1.6426 -0.3015  1.1876
   69MOL0     H 9264   4.331   4.332   3.935 -1.8368 -0.8855 -2.7053
   69MOL0     H 9265   4.421   4.189   4.011  1.6261 -0.6326 -0.3829
   69MOL0     H 9266   4.218   4.240   3.692 -1.8837 -0.5690  0.2740
   69MOL0     H 9267   4.102   4.039   3.532  1.2956 -0.8445 -0.7119
   69MOL0     H 9268   4.106   3.873   3.613  1.8138  0.1902 -0.6004
   69MOL0     H 9269   3.887   3.944   3.533 -0.5816  2.7826 -1.6739
   69MOL0     H 9270   3.892   4.094   3.615 -3.2039 -0.4631  0.0986
   69MOL0     H 9271   3.891   3.981   3.841 -0.9065 -2.2543  1.7668
   69MOL0     H 9272   3.923   3.825   3.765 -1.7071 -0.5009 -1.4977
   69MOL0     H 9273   3.672   3.991   3.725  0.7125 -0.6026 -0.1549
   69MOL0     H 9274   3.686   3.837   3.821  0.8908  0.9380  2.7078
   69MOL0     H 9275   3.649   3.679   3.419 -0.8205  0.9747 -0.8395
   69MOL0     H 9276   3.437   3.435   3.342 -0.1994  1.1682  0.1282
   69MOL0     H 9277   3.339   3.562   3.262 -0.1921  0.0778  0.1963
   69MOL0     H 9278   3.505   3.570   3.244 -0.1252  1.0634 -1.1182
   69MOL0     H 9279   2.892   3.565   3.584 -0.2135  0.3668 -1.4052
   69MOL0     H 9280   2.727   3.368   3.555 -0.8794  2.1977 -0.1005
   69MOL0     H 9281   2.791   3.154   3.402 -3.5836  0.1480  0.7552
   69MOL0     H 9282   2.910   3.040   3.471  0.3634  1.5321  0.6939
   69MOL0     H 9283   2.698   2.900   3.500  4.4415  0.4481  1.6222
   69MOL0     H 9284   2.619   3.043   3.402 -0.0102  0.0434 -2.0796
   69MOL0     H 9285   2.786   3.006   3.229 -1.6312 -0.1648 -1.1588
   69MOL0     H 9286   2.652   2.908   3.230 -0.2995  0.3951  1.0956
   69MOL0     H 9287   2.918   2.816   3.369  0.3523 -0.8730  0.3957
   69MOL0     H 9288   2.777   2.718   3.350  2.5109 -2.1783 -1.9177
   69MOL0     H 9289   2.977   2.690   3.184 -0.0431 -0.1925 -1.1062
   69MOL0     H 9290   2.927   2.842   3.116  2.0857 -1.3398 -1.6638
   69MOL0     H 9291   2.766   2.593   3.168  1.3982 -0.8458 -2.1134
   69MOL0     H 9292   2.694   2.735   3.094  0.8997  2.7184  0.1036
   69MOL0     H 9293   2.917   2.564   2.979  0.0638 -0.8025 -0.2991
   69MOL0     H 9294   2.858   2.710   2.895 -0.5753  0.9589  0.2410
   69MOL0     H 9295   2.687   2.458   2.953  0.8083  0.4226  0.0259
   69MOL0     H 9296   2.769   2.492   2.811 -0.9548  2.0028 -1.0189
   69MOL0     H 9297   3.015   3.093   3.700  0.2138  0.3342  0.3123
   69MOL0     H 9298   3.182   3.273   3.717  0.4630 -1.4471 -1.0012
   69MOL0     H 9299   3.254   3.773   3.691  1.4393  0.9833  1.1617
   69MOL0     H 9300   3.485   3.880   3.744 -0.1054  1.1152 -0.5798
   69MOL0     H 9301   5.009   3.947   4.277 -1.2941  3.1859 -1.2601
   69MOL0     H 9302   5.138   3.869   4.476  1.0013 -0.5597  0.2252
   69MOL0     H 9303   5.607   3.923   4.662 -1.7226  0.5683  0.3366
   69MOL0     H 9304   5.763   3.797   4.822 -0.2654  2.0414 -3.4490
   69MOL0     H 9305   5.793   3.577   4.918 -0.0324 -2.8431  1.7538
   69MOL0     H 9306   5.869   3.697   5.018 -1.5127  1.0278  1.1420
   69MOL0     H 9307   5.821   3.554   5.227  1.2838  2.3086 -0.9259
   69MOL0     H 9308   5.934   3.499   5.120  0.4807 -0.6381  1.7615
   69MOL0     H 9309   5.640   3.425   5.090  2.7063  0.5855 -4.5472
   69MOL0     H 9310   5.743   3.339   5.209 -1.4609  0.6914  1.2281
   69MOL0     H 9311   5.896   3.320   4.975  0.0871  0.4945  1.1969
   69MOL0     H 9312   5.739   3.344   4.903  1.3427  0.2444 -0.1113
   69MOL0     H 9313   5.782   2.933   5.028 -0.4370  0.3988 -1.4491
   69MOL0     H 9314   5.418   3.686   5.045 -1.6391  0.7514 -1.0141
   69MOL0     H 9315   5.274   3.764   4.877 -0.5852 -0.2339 -1.0298
   70MOL0     O 9316   7.650   3.991   0.376  0.1452 -0.0775 -0.2283
   70MOL0     C 9317   7.684   3.914   0.286  0.2757  0.4779 -0.4482
   70MOL0     O 9318   7.608   3.868   0.185  0.4552  0.0854 -1.1895
   70MOL0     C 9319   7.488   3.923   0.162 -0.4552  0.9003 -0.1764
   70MOL0     C 9320   7.383   3.937   0.261 -0.2803 -0.5290  0.6403
   70MOL0     C 9321   7.254   3.970   0.219 -0.1075  0.2263 -0.4883
   70MOL0     C 9322   7.229   3.996   0.087  0.8891  0.7548 -0.5948
   70MOL0     O 9323   7.098   4.029   0.058  0.0603 -0.1838 -0.1225
   70MOL0     C 9324   7.062   4.110  -0.060 -0.3336  0.4001 -0.0511
   70MOL0     C 9325   6.907   4.098  -0.073 -0.1406  0.4433  0.0461
   70MOL0     C 9326   6.820   4.179   0.025  0.8162 -0.6010  0.1789
   70MOL0     C 9327   6.672   4.192  -0.035  0.1870  0.7725  0.6168
   70MOL0     C 9328   6.601   4.312   0.010 -0.1296 -0.2241 -0.5716
   70MOL0     C 9329   6.589   4.320   0.165  0.2096  1.0280  0.1277
   70MOL0     C 9330   6.516   4.450   0.208 -0.1601  0.7737 -0.4321
   70MOL0     C 9331   6.368   4.419   0.246 -0.4338 -0.9781  0.4009
   70MOL0     N 9332   6.355   4.332   0.363 -0.1696  0.5646 -0.5931
   70MOL0     C 9333   6.305   4.204   0.365  0.3867  0.0738  0.2248
   70MOL0     C 9334   6.309   4.150   0.488 -0.4917  0.4730  0.1274
   70MOL0     C 9335   6.244   4.031   0.545  0.5049  0.1202  0.0830
   70MOL0     C 9336   6.338   3.937   0.625  0.3126  0.4568  0.5342
   70MOL0     C 9337   6.249   3.824   0.700 -0.4328 -0.1222  0.4710
   70MOL0     C 9338   6.332   3.713   0.759  0.3672 -0.2922  0.1239
   70MOL0     O 9339   6.375   3.624   0.651 -0.7820  0.0026 -0.1835
   70MOL0     C 9340   6.506   3.584   0.639  0.0087  0.8945  0.0710
   70MOL0     C 9341   6.617   3.660   0.668  0.2702 -0.3606 -0.3275
   70MOL0     C 9342   6.750   3.622   0.643  0.4010  1.0081 -0.1622
   70MOL0     C 9343   6.857   3.721   0.682  0.3060 -0.2755 -0.0157
   70MOL0     C 9344   6.771   3.499   0.584  0.3907  0.2034 -0.1657
   70MOL0     C 9345   6.902   3.448   0.536  0.5778 -0.1867 -0.0343
   70MOL0     O 9346   7.006   3.535   0.550 -0.2488 -0.0619 -0.0258
   70MOL0     C 9347   7.134   3.516   0.505  0.1138  0.1009 -1.1138
   70MOL0     C 9348   7.209   3.628   0.485 -0.8490 -0.3657 -0.2370
   70MOL0     C 9349   7.348   3.612   0.471 -0.0154 -0.3983  0.3710
   70MOL0     C 9350   7.402   3.483   0.447 -0.4586  0.4972  0.1153
   70MOL0     O 9351   7.540   3.459   0.417  0.3795 -0.1938 -0.5305
   70MOL0     C 9352   7.633   3.542   0.486  0.1909 -0.0622  0.1014
   70MOL0     C 9353   7.764   3.467   0.484  0.0468  0.4007  0.0809
   70MOL0     C 9354   7.876   3.525   0.575  0.1511  0.2686  0.2192
   70MOL0     C 9355   8.005   3.435   0.547  0.1267 -0.3179  0.5123
   70MOL0     C 9356   8.119   3.484   0.628  0.2091 -0.5708 -0.5231
   70MOL0     C 9357   8.250   3.442   0.554 -0.0593 -0.4114  0.0296
   70MOL0     C 9358   8.276   3.294   0.572 -0.8297  0.9128  0.8111
   70MOL0     C 9359   8.360   3.244   0.452  0.7964 -0.7534  0.3619
   70MOL0    Cl 9360   8.527   3.320   0.459 -0.1252  0.0637 -0.1960
   70MOL0     C 9361   7.316   3.373   0.454 -0.7263 -0.5527 -1.0518
   70MOL0     C 9362   7.186   3.392   0.493 -0.4034  0.4255  0.0076
   70MOL0     O 9363   6.907   3.341   0.481 -0.0642  0.4440  0.3443
   70MOL0     C 9364   6.661   3.416   0.553 -0.6630 -1.2167 -0.2102
   70MOL0     C 9365   6.534   3.461   0.578 -0.0233  0.9239 -0.1036
   70MOL0     N 9366   6.373   4.257   0.561 -0.5385  0.2021 -0.1141
   70MOL0     N 9367   6.392   4.358   0.490  0.5978  0.0396 -0.1264
   70MOL0     C 9368   7.323   3.973  -0.010 -0.2253 -0.0850 -0.4696
   70MOL0     C 9369   7.446   3.922   0.032 -0.4043 -1.0046  1.1660
   70MOL0     C 9370   7.821   3.851   0.294 -0.4232 -0.7619  0.2233
   70MOL0     C 9371   7.875   3.761   0.205 -0.1970  0.0640 -0.7072
   70MOL0     C 9372   8.011   3.714   0.225 -0.3326  0.0740 -0.5788
   70MOL0     C 9373   8.085   3.758   0.335 -0.0808  0.5100 -1.0291
   70MOL0     O 9374   8.211   3.704   0.356  0.0835 -0.2679 -0.0468
   70MOL0     C 9375   8.303   3.782   0.449 -1.6985  0.4576  0.0801
   70MOL0     C 9376   8.443   3.728   0.426  0.1553 -0.4616 -0.6158
   70MOL0     C 9377   8.545   3.821   0.489  1.4822  0.5794  0.2311
   70MOL0     C 9378   8.683   3.811   0.439 -0.4513  0.6432  0.8247
   70MOL0     C 9379   8.743   3.698   0.515 -0.8123  0.1622 -0.1308
   70MOL0     C 9380   8.830   3.613   0.554  0.9387  0.4333  0.5787
   70MOL0     C 9381   8.025   3.853   0.421  0.1297 -0.1223 -0.4638
   70MOL0     C 9382   7.901   3.901   0.402  0.3063 -0.4856  0.1249
   70MOL0     H 9383   7.402   3.942   0.367  0.7728  2.3933  0.4119
   70MOL0     H 9384   7.177   3.984   0.295  0.8476  0.8768  0.3993
   70MOL0     H 9385   7.079   4.218  -0.046  1.3623 -0.0606  1.9056
   70MOL0     H 9386   7.122   4.069  -0.141  3.1854 -0.4990  2.7719
   70MOL0     H 9387   6.893   4.141  -0.172 -1.9858 -1.8833 -0.7971
   70MOL0     H 9388   6.877   3.993  -0.077  1.2477  0.0397 -0.5376
   70MOL0     H 9389   6.830   4.136   0.125  1.4869  0.8963  0.7935
   70MOL0     H 9390   6.864   4.279   0.025  0.5255 -0.4655 -0.3996
   70MOL0     H 9391   6.687   4.194  -0.144  2.1285  1.6052  0.8512
   70MOL0     H 9392   6.614   4.106  -0.001 -1.8709  0.7704 -2.4309
   70MOL0     H 9393   6.661   4.397  -0.023  0.1980 -1.3451 -3.1209
   70MOL0     H 9394   6.501   4.306  -0.034 -1.2702 -0.8918  1.9108
   70MOL0     H 9395   6.540   4.229   0.202 -0.1922  2.0621  2.2729
   70MOL0     H 9396   6.692   4.319   0.201  0.1444 -1.4756  0.4153
   70MOL0     H 9397   6.571   4.476   0.298 -0.7407 -0.8143  0.4298
   70MOL0     H 9398   6.533   4.528   0.133  1.7116  1.2441  0.4339
   70MOL0     H 9399   6.317   4.377   0.159 -1.1958 -0.7571  0.7398
   70MOL0     H 9400   6.326   4.516   0.273  1.9645 -0.4156  2.5833
   70MOL0     H 9401   6.263   4.157   0.277  0.8919 -2.4324  1.2256
   70MOL0     H 9402   6.173   4.071   0.618 -1.0164 -0.6279 -0.9604
   70MOL0     H 9403   6.196   3.971   0.468  1.3105  0.5023 -0.7291
   70MOL0     H 9404   6.403   3.992   0.694  1.2166  1.2561 -0.9184
   70MOL0     H 9405   6.391   3.878   0.551  0.0672 -0.2335  0.9004
   70MOL0     H 9406   6.172   3.790   0.630 -0.3169 -1.1313  0.8123
   70MOL0     H 9407   6.211   3.884   0.783  0.5998 -0.8364  1.5044
   70MOL0     H 9408   6.277   3.649   0.828 -1.5552 -0.2028 -1.2466
   70MOL0     H 9409   6.418   3.754   0.813  1.5142 -0.3841 -1.5291
   70MOL0     H 9410   6.602   3.760   0.706  0.9542  0.1248 -1.3055
   70MOL0     H 9411   6.908   3.762   0.595  1.3957  1.1588  1.2616
   70MOL0     H 9412   6.809   3.801   0.739  0.3489  0.1800 -0.6152
   70MOL0     H 9413   6.924   3.665   0.748 -3.7581 -4.3873  1.2058
   70MOL0     H 9414   7.155   3.721   0.492  1.0409  0.8109 -0.6719
   70MOL0     H 9415   7.412   3.699   0.462  1.5697 -1.3510  1.7147
   70MOL0     H 9416   7.633   3.640   0.437 -2.8360  0.3109  0.6265
   70MOL0     H 9417   7.607   3.564   0.591  3.0923  1.3307  0.6270
   70MOL0     H 9418   7.758   3.361   0.510  0.4603 -0.1808 -1.9943
   70MOL0     H 9419   7.801   3.468   0.381 -1.0264  1.4721 -0.3209
   70MOL0     H 9420   7.855   3.521   0.682 -0.6620 -1.3067  0.0351
   70MOL0     H 9421   7.889   3.632   0.556 -0.9808  0.5817  1.0903
   70MOL0     H 9422   7.993   3.328   0.568 -0.2303 -0.0499  1.7524
   70MOL0     H 9423   8.041   3.441   0.444  1.0883  0.0009  0.8483
   70MOL0     H 9424   8.123   3.454   0.733  1.4927  1.0779 -0.0684
   70MOL0     H 9425   8.121   3.591   0.647  0.4356 -0.6759  0.0523
   70MOL0     H 9426   8.249   3.478   0.451  1.1108 -0.7154 -0.1087
   70MOL0     H 9427   8.334   3.493   0.602 -0.0706 -0.6506  0.3143
   70MOL0     H 9428   8.191   3.225   0.569  1.3009 -1.8864 -2.2439
   70MOL0     H 9429   8.323   3.278   0.670 -3.2027  0.1544  1.9065
   70MOL0     H 9430   8.295   3.275   0.370  0.0930  2.8559  2.1021
   70MOL0     H 9431   8.367   3.135   0.452 -1.4683 -1.0029 -2.2892
   70MOL0     H 9432   7.360   3.274   0.449 -1.2218 -0.7825 -0.8250
   70MOL0     H 9433   7.118   3.307   0.501  0.8996 -0.7701 -1.1466
   70MOL0     H 9434   6.677   3.320   0.505 -3.1198 -2.6731  1.6744
   70MOL0     H 9435   6.446   3.402   0.555  0.8844  0.0651 -1.4550
   70MOL0     H 9436   7.296   3.982  -0.115 -0.3116 -1.6457 -0.5936
   70MOL0     H 9437   7.521   3.897  -0.043 -1.6382  0.1216 -0.5283
   70MOL0     H 9438   7.818   3.725   0.120 -1.8298  0.5777  0.1402
   70MOL0     H 9439   8.062   3.654   0.150  1.9013  2.5197 -1.1747
   70MOL0     H 9440   8.304   3.889   0.430  0.4867  0.1457 -2.0153
   70MOL0     H 9441   8.273   3.758   0.552 -1.5258 -0.0629  0.0102
   70MOL0     H 9442   8.456   3.711   0.319 -1.3421 -0.0539 -0.8926
   70MOL0     H 9443   8.451   3.636   0.484 -0.6128 -0.3794 -0.3680
   70MOL0     H 9444   8.539   3.810   0.598  0.7008  2.6418  0.4399
   70MOL0     H 9445   8.516   3.924   0.465  3.2208  0.8111 -1.0574
   70MOL0     H 9446   8.740   3.904   0.449  0.9215  0.0428 -0.9156
   70MOL0     H 9447   8.692   3.793   0.331 -1.7407  1.9706  0.4720
   70MOL0     H 9448   8.896   3.540   0.596  0.3403  0.9289  2.4722
   70MOL0     H 9449   8.085   3.877   0.508  2.8028  2.4023 -2.7470
   70MOL0     H 9450   7.883   3.975   0.479 -1.1892 -1.2456  0.5599
   71MOL0     O 9451   1.710   0.337   7.723 -0.5428  0.3670  0.0986
   71MOL0     C 9452   1.668   0.237   7.782 -0.1990 -1.0836 -0.4996
   71MOL0     O 9453   1.547   0.227   7.855  0.0801 -0.2613 -0.5388
   71MOL0     C 9454   1.454   0.325   7.873 -0.4186 -0.3261  0.3533
   71MOL0     C 9455   1.412   0.363   8.004  0.2926 -0.4851  0.0849
   71MOL0     C 9456   1.313   0.466   8.022 -0.4731  0.2026 -0.2145
   71MOL0     C 9457   1.246   0.523   7.915 -0.6869  0.9461 -0.1312
   71MOL0     O 9458   1.146   0.608   7.935 -0.6898  0.1634  0.3101
   71MOL0     C 9459   1.139   0.685   8.058  0.1838 -0.0491 -1.1092
   71MOL0     C 9460   1.051   0.812   8.038 -0.1352  0.5070 -0.1108
   71MOL0     C 9461   1.038   0.881   8.173 -0.5036  0.3716 -0.3856
   71MOL0     C 9462   0.930   0.978   8.151 -0.8983  0.7529  0.0310
   71MOL0     C 9463   0.891   1.052   8.271  0.7389  0.2673 -0.6648
   71MOL0     C 9464   0.753   1.115   8.254 -0.1506 -0.6711 -0.0578
   71MOL0     C 9465   0.744   1.212   8.137  0.7864 -0.1873  0.5786
   71MOL0     C 9466   0.798   1.346   8.173  0.3015  0.2790  0.6044
   71MOL0     N 9467   0.708   1.450   8.116 -0.5166  0.5028  0.0740
   71MOL0     C 9468   0.609   1.504   8.189  0.3338 -0.0133  0.2629
   71MOL0     C 9469   0.534   1.586   8.106  0.2661 -0.0877 -0.5610
   71MOL0     C 9470   0.402   1.649   8.138  0.4712  0.1219  0.2853
   71MOL0     C 9471   0.315   1.682   8.022 -0.8340  0.2917  0.6714
   71MOL0     C 9472   0.275   1.552   7.956 -0.7371  0.3267 -0.2601
   71MOL0     C 9473   0.214   1.576   7.822 -0.6383 -0.1503  0.8724
   71MOL0     O 9474   0.116   1.676   7.821  0.2825  0.0575  0.3822
   71MOL0     C 9475  -0.013   1.646   7.855 -0.5508 -0.2681  0.4198
   71MOL0     C 9476  -0.106   1.753   7.865  0.7853 -0.7059 -0.3288
   71MOL0     C 9477  -0.241   1.738   7.910 -0.1049 -0.0347 -0.2851
   71MOL0     C 9478  -0.324   1.866   7.902  0.6299 -0.9126 -0.3883
   71MOL0     C 9479  -0.281   1.616   7.971  0.0607  0.5415  0.3703
   71MOL0     C 9480  -0.417   1.593   8.022 -1.1964 -0.6370 -0.6461
   71MOL0     O 9481  -0.478   1.476   7.983  0.4805 -0.0780 -0.0329
   71MOL0     C 9482  -0.605   1.450   8.039 -0.5791  0.3032  0.5832
   71MOL0     C 9483  -0.617   1.425   8.168 -0.1103  0.5096  0.2713
   71MOL0     C 9484  -0.736   1.369   8.222 -0.2454 -0.8249 -0.3907
   71MOL0     C 9485  -0.849   1.352   8.141 -0.3457 -0.5785 -0.1988
   71MOL0     O 9486  -0.969   1.308   8.180 -0.2827 -0.1442  0.3642
   71MOL0     C 9487  -0.986   1.209   8.274  0.0405  0.9699  0.0192
   71MOL0     C 9488  -1.132   1.159   8.269  0.0141  0.3040 -0.2640
   71MOL0     C 9489  -1.225   1.265   8.347  0.1647  0.0494  0.1286
   71MOL0     C 9490  -1.364   1.197   8.375  0.1083 -0.0438  0.1165
   71MOL0     C 9491  -1.464   1.285   8.448  0.3042 -0.1329  0.7374
   71MOL0     C 9492  -1.603   1.232   8.420  0.3357 -0.0444 -0.5347
   71MOL0     C 9493  -1.711   1.316   8.478 -0.5039  0.0695  0.1543
   71MOL0     C 9494  -1.848   1.242   8.471 -0.0566  0.5718 -0.1861
   71MOL0    Cl 9495  -1.972   1.355   8.530  0.1087 -0.3609  0.6088
   71MOL0     C 9496  -0.839   1.387   8.009  0.5491 -0.2960  0.2657
   71MOL0     C 9497  -0.719   1.431   7.955 -0.0141 -0.5674 -0.4377
   71MOL0     O 9498  -0.462   1.671   8.108 -0.3608 -0.7667  0.3581
   71MOL0     C 9499  -0.183   1.512   7.970  0.2423 -0.3417  0.0700
   71MOL0     C 9500  -0.054   1.521   7.907  0.5951 -0.6675  0.1345
   71MOL0     N 9501   0.588   1.565   7.982 -0.0863 -0.7597  0.0148
   71MOL0     N 9502   0.698   1.486   7.988 -0.0791 -0.4543 -0.1064
   71MOL0     C 9503   1.282   0.467   7.792  0.4260 -0.9656  0.5728
   71MOL0     C 9504   1.392   0.387   7.766 -0.2359  0.5248  0.0365
   71MOL0     C 9505   1.768   0.126   7.752 -0.0496  0.4487 -0.7013
   71MOL0     C 9506   1.744   0.002   7.815  0.7021  0.2612 -0.3361
   71MOL0     C 9507   1.847  -0.100   7.801 -0.3877  0.4903  0.3189
   71MOL0     C 9508   1.961  -0.085   7.737 -0.7866 -1.0503  0.4635
   71MOL0     O 9509   2.050  -0.182   7.736  0.4973 -0.1004  0.2912
   71MOL0     C 9510   2.181  -0.154   7.685  0.8929 -0.1459  0.0088
   71MOL0     C 9511   2.278  -0.272   7.708 -0.4452  0.3917  0.6462
   71MOL0     C 9512   2.421  -0.233   7.706 -0.5004 -0.4099 -0.0845
   71MOL0     C 9513   2.464  -0.184   7.567  0.5630 -0.8911  1.0585
   71MOL0     C 9514   2.617  -0.196   7.565  0.4984  0.2495  0.0981
   71MOL0     C 9515   2.737  -0.206   7.563 -0.0860 -0.8849  0.0695
   71MOL0     C 9516   1.978   0.037   7.666 -0.2705 -0.5867 -0.1302
   71MOL0     C 9517   1.889   0.144   7.680  0.4973  0.1702 -0.2049
   71MOL0     H 9518   1.439   0.294   8.084  0.7634 -0.2293  0.1490
   71MOL0     H 9519   1.285   0.481   8.125 -0.9619 -2.3367  0.0777
   71MOL0     H 9520   1.107   0.622   8.142 -0.1054  1.3559 -0.1287
   71MOL0     H 9521   1.241   0.712   8.087  1.2068 -3.8675 -0.5305
   71MOL0     H 9522   1.090   0.881   7.963  2.1832  1.6429  2.0114
   71MOL0     H 9523   0.955   0.765   8.013  1.4342 -1.7321 -2.5536
   71MOL0     H 9524   1.021   0.803   8.248  5.0399 -0.9028  0.0251
   71MOL0     H 9525   1.135   0.926   8.197 -0.7142 -0.3226  2.0334
   71MOL0     H 9526   0.959   1.040   8.066 -1.1471 -1.0757 -1.4672
   71MOL0     H 9527   0.840   0.925   8.118 -1.7002  0.1372  2.8813
   71MOL0     H 9528   0.880   0.981   8.354 -0.8228  0.7802 -0.3986
   71MOL0     H 9529   0.968   1.123   8.303 -0.6200  1.1320  0.8482
   71MOL0     H 9530   0.683   1.031   8.245  0.0984 -1.2492  2.5832
   71MOL0     H 9531   0.733   1.171   8.345  2.6912  1.6279 -0.7167
   71MOL0     H 9532   0.791   1.176   8.045  0.8760 -0.9085  0.8992
   71MOL0     H 9533   0.638   1.212   8.111  1.4568  3.6529 -3.1095
   71MOL0     H 9534   0.890   1.372   8.119  1.6308 -1.6175  1.8364
   71MOL0     H 9535   0.799   1.353   8.282 -0.5802 -1.6927  0.7974
   71MOL0     H 9536   0.585   1.487   8.294  3.3396  1.7946  1.3577
   71MOL0     H 9537   0.341   1.579   8.196 -0.2032 -1.3327 -2.0499
   71MOL0     H 9538   0.410   1.743   8.194 -3.7384  1.1080 -0.3637
   71MOL0     H 9539   0.374   1.744   7.954  0.1866  0.3739  1.6010
   71MOL0     H 9540   0.226   1.738   8.050 -0.8390  0.7663 -0.2530
   71MOL0     H 9541   0.206   1.503   8.025  1.4400 -2.0523  0.3546
   71MOL0     H 9542   0.360   1.485   7.947 -0.3424  0.6860  0.6723
   71MOL0     H 9543   0.180   1.484   7.775 -0.4628  0.6994 -1.0239
   71MOL0     H 9544   0.291   1.610   7.752 -1.9828  2.3774  0.5068
   71MOL0     H 9545  -0.070   1.848   7.825 -2.5260  0.4897 -0.8113
   71MOL0     H 9546  -0.328   1.923   7.995 -0.7382 -1.8750  0.1862
   71MOL0     H 9547  -0.291   1.929   7.819  2.7774 -2.0641 -0.4834
   71MOL0     H 9548  -0.430   1.850   7.882 -0.1041  0.3687  2.1104
   71MOL0     H 9549  -0.530   1.436   8.233 -0.1876  3.2589  0.0266
   71MOL0     H 9550  -0.738   1.335   8.326  0.8109 -2.8765 -0.9814
   71MOL0     H 9551  -0.921   1.124   8.249 -2.5305 -1.2486  0.3321
   71MOL0     H 9552  -0.980   1.253   8.373 -0.8954 -1.9367  1.4907
   71MOL0     H 9553  -1.163   1.142   8.166  2.2339 -0.6472 -0.8253
   71MOL0     H 9554  -1.135   1.064   8.324 -1.0909  0.9986  0.9335
   71MOL0     H 9555  -1.246   1.357   8.291 -0.7002  1.2027  2.2152
   71MOL0     H 9556  -1.180   1.291   8.443  1.6808 -1.7001 -0.0521
   71MOL0     H 9557  -1.403   1.184   8.274 -0.9087  1.5341  0.2884
   71MOL0     H 9558  -1.368   1.098   8.422 -2.3713  0.1677  0.4520
   71MOL0     H 9559  -1.457   1.389   8.413  1.0865 -0.5508 -0.3934
   71MOL0     H 9560  -1.435   1.283   8.553  1.1990 -0.1393  0.4970
   71MOL0     H 9561  -1.613   1.229   8.311 -1.1206 -1.4307 -0.4009
   71MOL0     H 9562  -1.603   1.136   8.473  0.5187  1.3517  2.1970
   71MOL0     H 9563  -1.722   1.402   8.412 -1.5097  0.4117  0.7488
   71MOL0     H 9564  -1.695   1.341   8.583 -1.5080  1.6366 -0.0418
   71MOL0     H 9565  -1.845   1.163   8.546 -0.7778  1.5863  0.9432
   71MOL0     H 9566  -1.883   1.208   8.373 -1.1591  2.5939 -0.5554
   71MOL0     H 9567  -0.925   1.374   7.944  0.4949 -1.1887  0.4880
   71MOL0     H 9568  -0.711   1.429   7.846 -3.2398 -0.0035 -0.7808
   71MOL0     H 9569  -0.211   1.417   8.016  1.8571 -1.7768 -1.7565
   71MOL0     H 9570   0.026   1.448   7.919 -0.0323 -1.2804  0.6218
   71MOL0     H 9571   1.230   0.503   7.704  1.3378  1.1585  0.8381
   71MOL0     H 9572   1.409   0.361   7.662 -0.5296  0.3334  0.0373
   71MOL0     H 9573   1.659  -0.006   7.881  0.3408 -0.7778 -0.9076
   71MOL0     H 9574   1.829  -0.198   7.844 -1.8401  0.1241 -1.0163
   71MOL0     H 9575   2.181  -0.124   7.580 -1.9434  1.6210  0.4067
   71MOL0     H 9576   2.221  -0.073   7.748 -0.8873 -0.4900  1.6757
   71MOL0     H 9577   2.269  -0.347   7.628 -1.2371  0.7944  0.3442
   71MOL0     H 9578   2.256  -0.327   7.800  3.4955  2.1814  2.8718
   71MOL0     H 9579   2.475  -0.324   7.730 -1.2426 -1.3656 -1.8745
   71MOL0     H 9580   2.443  -0.151   7.776 -1.0807 -0.4905  0.2029
   71MOL0     H 9581   2.444  -0.079   7.547  0.7310 -0.7657  1.5402
   71MOL0     H 9582   2.425  -0.240   7.481  0.5505  2.3614 -1.2387
   71MOL0     H 9583   2.844  -0.207   7.554 -0.2369 -3.1883 -4.1058
   71MOL0     H 9584   2.065   0.064   7.608 -1.9540  0.0418 -2.5219
   71MOL0     H 9585   1.908   0.236   7.626 -1.8748  1.9305  1.7285
   72MOL0     O 9586   5.080  11.054   2.223  0.3970 -0.0095 -0.2176
   72MOL0     C 9587   5.138  10.984   2.311 -1.0052  0.4577  0.4245
   72MOL0     O 9588   5.114  10.985   2.443 -0.3802 -0.0132 -0.2976
   72MOL0     C 9589   4.995  11.031   2.496  0.3964 -0.0784 -0.3819
   72MOL0     C 9590   4.993  11.086   2.623  0.9492  0.7173 -0.1538
   72MOL0     C 9591   4.869  11.123   2.688  1.2532 -0.4607 -0.7405
   72MOL0     C 9592   4.747  11.116   2.619 -0.4901  0.0768 -0.1554
   72MOL0     O 9593   4.644  11.170   2.689  0.3506  0.0727 -0.1726
   72MOL0     C 9594   4.528  11.083   2.679 -0.2503  0.0060 -0.9783
   72MOL0     C 9595   4.432  11.125   2.798  0.3168 -0.0134 -0.6266
   72MOL0     C 9596   4.303  11.040   2.803 -0.5216  0.2439 -0.8113
   72MOL0     C 9597   4.227  11.030   2.676  0.5002  0.6282 -0.5337
   72MOL0     C 9598   4.148  11.158   2.627 -0.7583  0.7898 -0.6673
   72MOL0     C 9599   4.060  11.222   2.736  0.3027  1.2205 -0.0073
   72MOL0     C 9600   3.976  11.334   2.678  0.7145 -0.5605  0.6174
   72MOL0     C 9601   3.868  11.374   2.784  0.4106 -0.0331 -0.1316
   72MOL0     N 9602   3.741  11.300   2.779  0.3610 -0.4624 -0.3655
   72MOL0     C 9603   3.694  11.217   2.881 -0.6070  0.3993  0.0694
   72MOL0     C 9604   3.574  11.170   2.827 -0.7914  0.1591 -0.6235
   72MOL0     C 9605   3.477  11.077   2.903 -0.6095  0.3175 -0.4137
   72MOL0     C 9606   3.430  10.964   2.812 -0.0967 -0.7396  0.8041
   72MOL0     C 9607   3.306  11.011   2.720  0.0668  0.0572  0.1074
   72MOL0     C 9608   3.294  10.926   2.581  0.3885 -0.5507 -0.5909
   72MOL0     O 9609   3.212  10.814   2.584 -0.3497  0.6712 -0.0892
   72MOL0     C 9610   3.074  10.825   2.598 -0.1405  1.1213  0.0329
   72MOL0     C 9611   2.999  10.934   2.556 -0.3591  0.1730 -0.2615
   72MOL0     C 9612   2.865  10.934   2.564  0.3738 -0.3268 -0.2165
   72MOL0     C 9613   2.799  11.060   2.512  0.6773  0.4540 -0.5839
   72MOL0     C 9614   2.793  10.832   2.637 -0.4015 -0.3961 -0.9473
   72MOL0     C 9615   2.642  10.823   2.666  0.5045  0.7541 -0.1024
   72MOL0     O 9616   2.595  10.737   2.763  0.8470 -0.4543  0.0790
   72MOL0     C 9617   2.464  10.728   2.784 -0.0192  0.0409 -0.1280
   72MOL0     C 9618   2.412  10.716   2.916  0.1328 -0.5251 -0.2373
   72MOL0     C 9619   2.275  10.694   2.947  0.2653  0.3209  0.7369
   72MOL0     C 9620   2.184  10.675   2.839 -0.6359 -0.2078  0.0366
   72MOL0     O 9621   2.054  10.649   2.854  0.0613 -0.0524  0.8355
   72MOL0     C 9622   1.993  10.695   2.973 -0.2855 -0.2535 -0.0072
   72MOL0     C 9623   1.843  10.652   2.953  0.4593  0.7517  0.0153
   72MOL0     C 9624   1.773  10.703   2.819 -0.2754  1.1801 -0.9967
   72MOL0     C 9625   1.645  10.641   2.784  0.9909  0.0007 -0.6225
   72MOL0     C 9626   1.526  10.681   2.870  0.5063 -0.9287 -0.4238
   72MOL0     C 9627   1.403  10.626   2.797 -0.4330 -0.2567 -0.1529
   72MOL0     C 9628   1.301  10.576   2.905 -0.1928  0.0622  0.8169
   72MOL0     C 9629   1.181  10.531   2.831 -0.5471 -0.0500 -0.2113
   72MOL0    Cl 9630   1.069  10.485   2.962  0.2830 -0.0160  0.3582
   72MOL0     C 9631   2.230  10.676   2.706  0.9912  0.5250  0.0981
   72MOL0     C 9632   2.368  10.709   2.678 -0.5717  0.3714 -0.8568
   72MOL0     O 9633   2.572  10.902   2.603  0.2220  0.9599 -0.4668
   72MOL0     C 9634   2.876  10.722   2.680  0.5945 -1.0764  0.2975
   72MOL0     C 9635   3.014  10.714   2.651  0.8250  0.3171 -0.1734
   72MOL0     N 9636   3.559  11.221   2.701  0.5633  0.3486  0.5163
   72MOL0     N 9637   3.656  11.299   2.675  0.8185 -0.4189  1.1839
   72MOL0     C 9638   4.745  11.063   2.492  0.0061 -0.0359  0.0167
   72MOL0     C 9639   4.866  11.019   2.434  0.0414 -0.2447  0.4253
   72MOL0     C 9640   5.259  10.904   2.270 -0.5761 -0.0484  0.0617
   72MOL0     C 9641   5.349  10.859   2.358 -0.6702 -0.4103  0.8138
   72MOL0     C 9642   5.459  10.782   2.313 -0.0442  0.1717  1.0402
   72MOL0     C 9643   5.477  10.754   2.173  0.2821  0.1041  0.4880
   72MOL0     O 9644   5.577  10.671   2.137 -0.6871  0.0676  0.2064
   72MOL0     C 9645   5.570  10.604   2.006  0.3354 -0.6958  0.1478
   72MOL0     C 9646   5.662  10.490   2.008 -0.1750 -0.5299  1.2015
   72MOL0     C 9647   5.814  10.538   2.016  0.6601 -0.5004  0.1201
   72MOL0     C 9648   5.882  10.474   2.134  0.5554 -0.1694  0.7219
   72MOL0     C 9649   6.027  10.506   2.143  0.0187 -0.0451 -0.3343
   72MOL0     C 9650   6.147  10.534   2.141 -0.3393  0.0413 -0.3802
   72MOL0     C 9651   5.390  10.812   2.085  0.1462 -0.6178  0.8287
   72MOL0     C 9652   5.279  10.878   2.133  0.1107 -0.1020  0.4850
   72MOL0     H 9653   5.090  11.090   2.672  0.7836  0.1924  0.2223
   72MOL0     H 9654   4.856  11.154   2.791 -2.1262 -1.7317 -0.6813
   72MOL0     H 9655   4.475  11.094   2.584  2.5981  1.2001 -2.5519
   72MOL0     H 9656   4.551  10.978   2.699 -1.9629 -1.2778 -4.7766
   72MOL0     H 9657   4.484  11.108   2.892  0.4793 -2.4238 -1.0754
   72MOL0     H 9658   4.398  11.229   2.795  0.9087  0.2211  0.3683
   72MOL0     H 9659   4.324  10.937   2.835 -2.3791 -0.5726 -2.0838
   72MOL0     H 9660   4.240  11.088   2.879  0.3347  2.6726 -1.5650
   72MOL0     H 9661   4.294  10.997   2.596 -0.3996 -1.5378 -0.4823
   72MOL0     H 9662   4.142  10.962   2.688 -0.5062  1.7127 -1.3751
   72MOL0     H 9663   4.221  11.235   2.601  1.0502  1.2959  4.6158
   72MOL0     H 9664   4.101  11.130   2.533  1.5235 -0.1282 -1.6148
   72MOL0     H 9665   3.990  11.145   2.769 -0.2121  1.4521 -0.5458
   72MOL0     H 9666   4.122  11.261   2.817  2.2550  1.9807 -1.7752
   72MOL0     H 9667   4.040  11.418   2.650 -1.0774  0.4397 -0.6989
   72MOL0     H 9668   3.913  11.307   2.593  0.3484  2.7164 -0.2940
   72MOL0     H 9669   3.841  11.478   2.764  2.1788  0.3515 -0.7275
   72MOL0     H 9670   3.915  11.390   2.882  2.1835  1.6914 -1.1856
   72MOL0     H 9671   3.755  11.190   2.967 -1.7180 -1.9350  0.1815
   72MOL0     H 9672   3.540  11.026   2.976 -1.3732 -1.6404 -1.0716
   72MOL0     H 9673   3.392  11.125   2.953  0.3246  0.2086  1.3658
   72MOL0     H 9674   3.406  10.875   2.872  5.0240 -0.4567  3.8794
   72MOL0     H 9675   3.513  10.938   2.747 -0.9966  0.4038 -0.8674
   72MOL0     H 9676   3.305  11.118   2.701 -0.1219  0.0482  0.0692
   72MOL0     H 9677   3.217  10.993   2.782 -1.0040 -1.9004 -1.8631
   72MOL0     H 9678   3.395  10.889   2.561  0.2186 -1.5188  0.2445
   72MOL0     H 9679   3.265  10.982   2.492 -2.2151 -1.1468 -0.1986
   72MOL0     H 9680   3.057  11.011   2.508  1.7786 -0.6449  0.8968
   72MOL0     H 9681   2.729  11.041   2.430 -0.6039  1.7648  0.1347
   72MOL0     H 9682   2.750  11.106   2.600 -0.7123  0.9540 -1.5803
   72MOL0     H 9683   2.873  11.134   2.481  2.0653  0.4774  2.4086
   72MOL0     H 9684   2.470  10.725   3.008 -1.5123  0.5919  0.7621
   72MOL0     H 9685   2.253  10.699   3.053 -0.5213  1.7706  0.5316
   72MOL0     H 9686   2.036  10.644   3.060 -0.1306  0.8569  0.5897
   72MOL0     H 9687   2.005  10.799   3.005  0.5112 -0.6639  1.0740
   72MOL0     H 9688   1.843  10.543   2.944  0.0578  0.8633 -1.6898
   72MOL0     H 9689   1.774  10.682   3.033  0.7476  3.4718 -0.6336
   72MOL0     H 9690   1.835  10.682   2.732  1.1022  1.5776 -0.1397
   72MOL0     H 9691   1.762  10.810   2.840 -0.5409  0.6644  2.0218
   72MOL0     H 9692   1.624  10.677   2.683 -0.9590  0.0862 -0.2280
   72MOL0     H 9693   1.669  10.534   2.783 -0.1322 -0.2655 -1.6355
   72MOL0     H 9694   1.521  10.789   2.884  0.6373 -0.8965 -0.6099
   72MOL0     H 9695   1.533  10.647   2.973 -0.5178  0.6050  0.1904
   72MOL0     H 9696   1.370  10.710   2.735 -1.6862  0.5470  1.5269
   72MOL0     H 9697   1.423  10.544   2.727  1.0404 -0.9570  1.0479
   72MOL0     H 9698   1.286  10.656   2.978  0.5058  0.3144  0.6905
   72MOL0     H 9699   1.340  10.492   2.964  0.3476  1.6248  2.7781
   72MOL0     H 9700   1.198  10.440   2.773  2.1729 -0.5244  1.1795
   72MOL0     H 9701   1.136  10.607   2.767 -2.4540  0.1982  1.3158
   72MOL0     H 9702   2.152  10.657   2.633 -0.0014  1.7354  0.7972
   72MOL0     H 9703   2.407  10.726   2.578 -0.0492  1.5624 -0.4600
   72MOL0     H 9704   2.834  10.645   2.745  0.4717 -1.2715 -0.0122
   72MOL0     H 9705   3.083  10.636   2.682  1.5586  1.7068  1.9690
   72MOL0     H 9706   4.651  11.046   2.440  0.7016 -0.0943 -1.2500
   72MOL0     H 9707   4.863  10.981   2.332 -0.2722  1.9590 -0.4295
   72MOL0     H 9708   5.349  10.889   2.463 -0.6393  1.4749  0.3090
   72MOL0     H 9709   5.535  10.760   2.388 -0.5755  0.2320  1.6095
   72MOL0     H 9710   5.470  10.561   2.002 -0.5335  0.9396  2.3358
   72MOL0     H 9711   5.596  10.667   1.921 -1.4575  0.4912  0.4282
   72MOL0     H 9712   5.661  10.437   1.912  3.5624  0.8706  0.2145
   72MOL0     H 9713   5.637  10.417   2.085 -1.9422  0.0402  1.2215
   72MOL0     H 9714   5.819  10.647   2.029 -0.0305 -0.3714 -0.6448
   72MOL0     H 9715   5.857  10.516   1.918 -1.9817  0.2169 -1.2788
   72MOL0     H 9716   5.862  10.368   2.118 -3.9437  0.5971 -0.1620
   72MOL0     H 9717   5.839  10.525   2.220  1.7219  0.9775  0.6664
   72MOL0     H 9718   6.252  10.541   2.124 -0.2001  1.5967  0.8518
   72MOL0     H 9719   5.391  10.804   1.976 -2.9249  1.1045  0.5372
   72MOL0     H 9720   5.204  10.922   2.068 -1.5752  1.0086  3.0424
   73MOL0     O 9721   1.218   7.688   1.835  0.1571  0.4112 -0.0983
   73MOL0     C 9722   1.333   7.717   1.869  0.6959 -0.5782 -0.5993
   73MOL0     O 9723   1.399   7.836   1.843 -0.0298 -0.1460  0.1207
   73MOL0     C 9724   1.323   7.926   1.770  0.5539 -0.9256  0.3167
   73MOL0     C 9725   1.192   7.966   1.806  0.2364  0.1149 -0.5830
   73MOL0     C 9726   1.120   8.058   1.726  0.4384 -0.7149  0.2336
   73MOL0     C 9727   1.176   8.113   1.613  0.2026  0.2836 -0.6777
   73MOL0     O 9728   1.107   8.199   1.536  0.3703  0.9604  0.4446
   73MOL0     C 9729   0.967   8.179   1.529 -0.2127 -0.0798 -0.0750
   73MOL0     C 9730   0.918   8.289   1.432  0.5383  0.2564  0.0234
   73MOL0     C 9731   0.775   8.339   1.478  0.9333  0.4216 -0.1839
   73MOL0     C 9732   0.669   8.234   1.454  0.5181 -0.0068  0.0699
   73MOL0     C 9733   0.527   8.282   1.455  1.6691 -0.6729  0.3538
   73MOL0     C 9734   0.470   8.323   1.594  0.0952 -0.3773  0.0524
   73MOL0     C 9735   0.317   8.339   1.585 -0.1376  0.5778 -0.3553
   73MOL0     C 9736   0.258   8.366   1.445  0.0505 -0.1662 -0.3513
   73MOL0     N 9737   0.106   8.370   1.467 -0.0125  0.8544  0.1930
   73MOL0     C 9738   0.034   8.259   1.464 -0.7559  0.0559  0.1762
   73MOL0     C 9739  -0.097   8.307   1.486 -0.6250 -0.4685 -0.2311
   73MOL0     C 9740  -0.220   8.215   1.487  0.0917 -0.0396 -0.3320
   73MOL0     C 9741  -0.262   8.197   1.637 -0.8754 -1.1054  0.6573
   73MOL0     C 9742  -0.393   8.122   1.655 -0.5210 -0.5826  0.0261
   73MOL0     C 9743  -0.515   8.204   1.598 -0.8841  1.0070 -0.2247
   73MOL0     O 9744  -0.639   8.137   1.595  0.3828 -0.8035  0.3293
   73MOL0     C 9745  -0.686   8.062   1.484 -0.1534  0.0069 -0.7839
   73MOL0     C 9746  -0.624   8.043   1.361 -0.2332  0.9352  0.3274
   73MOL0     C 9747  -0.681   7.950   1.268  0.9571  0.2477  0.0215
   73MOL0     C 9748  -0.587   7.926   1.151 -0.0903 -0.4240  0.9446
   73MOL0     C 9749  -0.806   7.883   1.298  0.2626  0.0829 -0.2841
   73MOL0     C 9750  -0.858   7.781   1.202 -0.3679 -0.2302 -0.4548
   73MOL0     O 9751  -0.972   7.724   1.246  0.2290 -0.0248  0.0159
   73MOL0     C 9752  -1.036   7.626   1.168  0.3082  0.1144 -0.1316
   73MOL0     C 9753  -1.166   7.657   1.109 -0.3013  0.2895  0.0398
   73MOL0     C 9754  -1.234   7.559   1.036 -0.6454  0.3250 -0.9820
   73MOL0     C 9755  -1.176   7.428   1.022  0.4083 -0.5315  0.2351
   73MOL0     O 9756  -1.233   7.317   0.968  0.1772 -0.5150 -0.2529
   73MOL0     C 9757  -1.347   7.331   0.882  0.5223  0.4633  0.0075
   73MOL0     C 9758  -1.316   7.358   0.730  0.8241  0.9058 -0.9004
   73MOL0     C 9759  -1.226   7.252   0.670 -0.1363 -0.2618 -1.2323
   73MOL0     C 9760  -1.211   7.273   0.519 -0.1094 -0.0102 -0.2328
   73MOL0     C 9761  -1.103   7.189   0.468  0.5587  0.4585 -0.3517
   73MOL0     C 9762  -1.098   7.173   0.317 -0.2509  0.3569  0.0506
   73MOL0     C 9763  -1.012   7.051   0.271  0.5653 -0.7626  0.2958
   73MOL0     C 9764  -1.034   7.046   0.121  0.4396  0.5851  0.4246
   73MOL0    Cl 9765  -0.938   6.912   0.068 -0.3557  0.1160 -0.1160
   73MOL0     C 9766  -1.055   7.398   1.076  0.1799  0.6123  0.0672
   73MOL0     C 9767  -0.981   7.501   1.136 -0.7027  0.4411  0.2481
   73MOL0     O 9768  -0.808   7.753   1.096  0.5584 -0.1366 -0.1205
   73MOL0     C 9769  -0.870   7.913   1.419  0.0420 -0.1994  0.1036
   73MOL0     C 9770  -0.805   7.999   1.510 -0.8985 -1.0280 -0.5233
   73MOL0     N 9771  -0.085   8.443   1.520  0.5981  0.1426 -0.5446
   73MOL0     N 9772   0.039   8.476   1.508 -1.2441 -0.3090  0.4504
   73MOL0     C 9773   1.308   8.078   1.577 -0.1158 -0.4280 -0.7582
   73MOL0     C 9774   1.384   7.987   1.658 -0.1210 -0.4704 -0.1741
   73MOL0     C 9775   1.417   7.612   1.930 -0.0132 -0.8968 -0.2799
   73MOL0     C 9776   1.557   7.632   1.937 -0.1637 -0.0495 -0.1770
   73MOL0     C 9777   1.637   7.523   1.982 -0.1533  0.5027  0.0926
   73MOL0     C 9778   1.584   7.401   2.022  0.5937  0.3717 -0.1494
   73MOL0     O 9779   1.660   7.297   2.055 -1.1157  0.5091 -0.6840
   73MOL0     C 9780   1.616   7.199   2.148 -0.1645  0.4991  0.1985
   73MOL0     C 9781   1.735   7.124   2.206 -0.2599 -0.1771  0.8021
   73MOL0     C 9782   1.833   7.212   2.280 -0.8222  0.5853  0.4228
   73MOL0     C 9783   1.779   7.274   2.409  1.2355 -0.6436 -0.1007
   73MOL0     C 9784   1.747   7.188   2.518  0.1857  0.5327 -0.5278
   73MOL0     C 9785   1.727   7.099   2.610 -0.2682 -0.0842 -0.0380
   73MOL0     C 9786   1.449   7.384   2.003 -1.0431 -0.6198 -0.7968
   73MOL0     C 9787   1.362   7.487   1.958  0.3235  0.4683 -0.0706
   73MOL0     H 9788   1.142   7.933   1.896  0.5650  0.0076 -0.4378
   73MOL0     H 9789   1.024   8.095   1.763  0.3111  1.3556 -1.9483
   73MOL0     H 9790   0.939   8.074   1.514  3.2880 -1.2232  0.4494
   73MOL0     H 9791   0.928   8.198   1.629 -0.5674  1.5905 -0.5035
   73MOL0     H 9792   0.978   8.378   1.410 -3.0585  2.4560 -2.0792
   73MOL0     H 9793   0.903   8.252   1.330 -0.4795  4.1071 -1.4120
   73MOL0     H 9794   0.770   8.371   1.583 -3.1358 -2.1185  0.6150
   73MOL0     H 9795   0.740   8.420   1.414 -1.5198 -0.7744 -0.4703
   73MOL0     H 9796   0.691   8.165   1.372  0.4721  0.2492 -0.1594
   73MOL0     H 9797   0.677   8.163   1.537 -3.4417 -2.8645 -1.6921
   73MOL0     H 9798   0.519   8.365   1.385 -0.5351  0.2491  1.6089
   73MOL0     H 9799   0.466   8.201   1.415 -0.0434  0.0212  1.4658
   73MOL0     H 9800   0.484   8.252   1.676 -2.1647  0.7402  1.5073
   73MOL0     H 9801   0.503   8.420   1.631 -4.1616  0.7054  1.5272
   73MOL0     H 9802   0.269   8.260   1.643  1.3454  0.4983  0.8187
   73MOL0     H 9803   0.302   8.434   1.638 -0.4726 -1.2319  3.0863
   73MOL0     H 9804   0.279   8.288   1.372 -2.1562  0.2811 -1.5495
   73MOL0     H 9805   0.284   8.465   1.407 -0.0166 -0.9000 -2.4082
   73MOL0     H 9806   0.059   8.157   1.439 -1.9433 -0.4530  0.9941
   73MOL0     H 9807  -0.298   8.271   1.434  1.2807  1.7402 -0.2904
   73MOL0     H 9808  -0.216   8.121   1.430  0.6408  0.5584 -1.3200
   73MOL0     H 9809  -0.257   8.300   1.675 -0.6433 -0.0048 -2.1159
   73MOL0     H 9810  -0.193   8.136   1.697  0.4694 -0.9388 -0.6749
   73MOL0     H 9811  -0.403   8.114   1.764 -0.9517 -1.0597 -0.0484
   73MOL0     H 9812  -0.393   8.019   1.618  3.0452  0.6482 -4.3528
   73MOL0     H 9813  -0.484   8.232   1.496 -0.6940 -2.3017 -1.2130
   73MOL0     H 9814  -0.528   8.291   1.662  2.8922  2.1971 -0.7987
   73MOL0     H 9815  -0.526   8.085   1.340  0.3184 -0.5505 -0.2287
   73MOL0     H 9816  -0.484   7.963   1.160  1.0388 -1.5760 -3.8646
   73MOL0     H 9817  -0.570   7.819   1.134  3.2533  0.0676  0.4045
   73MOL0     H 9818  -0.629   7.970   1.060  3.0265  2.5158  0.7267
   73MOL0     H 9819  -1.214   7.754   1.115  0.0737  0.4221  1.2618
   73MOL0     H 9820  -1.338   7.573   1.009 -0.8600 -0.9412 -0.8675
   73MOL0     H 9821  -1.407   7.239   0.876  2.3071 -0.6902 -0.8817
   73MOL0     H 9822  -1.421   7.406   0.909 -1.4880 -1.0610 -0.9624
   73MOL0     H 9823  -1.417   7.345   0.690  0.7487  0.0694 -0.4625
   73MOL0     H 9824  -1.284   7.461   0.712  0.4714  2.0336  3.6341
   73MOL0     H 9825  -1.273   7.158   0.704 -2.5002  1.8861  2.0961
   73MOL0     H 9826  -1.127   7.257   0.716 -0.1576 -0.6402 -1.1410
   73MOL0     H 9827  -1.305   7.248   0.468  0.6466 -1.8820 -0.7839
   73MOL0     H 9828  -1.189   7.377   0.494 -0.7119 -0.1845 -1.5791
   73MOL0     H 9829  -1.113   7.089   0.512 -1.8197  0.4905 -0.7220
   73MOL0     H 9830  -1.002   7.227   0.488  0.1661  1.3823 -0.0947
   73MOL0     H 9831  -1.199   7.143   0.287 -0.3982 -1.8596  2.4162
   73MOL0     H 9832  -1.064   7.268   0.275 -0.6734  2.2082  3.5212
   73MOL0     H 9833  -1.034   6.949   0.302  1.6983 -0.8725  0.7983
   73MOL0     H 9834  -0.908   7.064   0.304 -0.1329  2.0176  1.7522
   73MOL0     H 9835  -0.997   7.140   0.079 -0.4133  1.2750  1.1777
   73MOL0     H 9836  -1.141   7.033   0.101  0.0107  1.6021  1.8583
   73MOL0     H 9837  -1.011   7.298   1.073 -0.3265  0.2894  2.1905
   73MOL0     H 9838  -0.881   7.485   1.176 -1.5995  0.3331  2.5422
   73MOL0     H 9839  -0.961   7.866   1.456 -1.2834  2.4373  0.4274
   73MOL0     H 9840  -0.859   8.003   1.604 -2.8940 -2.9375 -1.4950
   73MOL0     H 9841   1.365   8.117   1.494  1.2336 -1.4041 -0.3211
   73MOL0     H 9842   1.491   7.986   1.639 -0.0469  0.5691  0.0965
   73MOL0     H 9843   1.597   7.728   1.907 -0.7630 -0.2679 -1.7728
   73MOL0     H 9844   1.744   7.535   1.968 -0.2487  0.4702 -0.7085
   73MOL0     H 9845   1.564   7.254   2.228 -0.6783  0.5829 -0.1869
   73MOL0     H 9846   1.553   7.131   2.089  3.8631  0.3724 -4.5826
   73MOL0     H 9847   1.779   7.059   2.130  0.0753 -1.2595  1.8840
   73MOL0     H 9848   1.700   7.050   2.278  1.6845 -1.0159  0.9487
   73MOL0     H 9849   1.864   7.292   2.212  0.1159  0.0980  0.2574
   73MOL0     H 9850   1.925   7.159   2.306 -0.0005  0.9951 -1.4884
   73MOL0     H 9851   1.680   7.315   2.386  0.8219 -2.6174 -2.2652
   73MOL0     H 9852   1.835   7.364   2.436  1.1679 -0.7933  0.5526
   73MOL0     H 9853   1.725   7.021   2.683 -0.5574 -0.2785 -0.2478
   73MOL0     H 9854   1.404   7.293   2.042 -3.4678  1.4077  1.4843
   73MOL0     H 9855   1.257   7.469   1.940  1.3747 -2.3778 -5.5846
   74MOL0     O 9856   9.410  11.352  10.174  0.3245 -0.8248  0.4034
   74MOL0     C 9857   9.420  11.342  10.052  0.1964 -0.4981 -0.8521
   74MOL0     O 9858   9.330  11.285   9.967 -0.4453 -1.2317  0.2235
   74MOL0     C 9859   9.221  11.217  10.012  0.0315  0.0156 -0.3818
   74MOL0     C 9860   9.181  11.187  10.144 -0.3631  0.0449  0.8090
   74MOL0     C 9861   9.070  11.108  10.169 -0.0851 -0.1562  0.9727
   74MOL0     C 9862   8.992  11.055  10.069  0.5848 -0.3024  0.0953
   74MOL0     O 9863   8.889  10.974  10.102  0.4682  0.1493  0.8801
   74MOL0     C 9864   8.795  10.943   9.990  0.0941  0.9043 -0.0554
   74MOL0     C 9865   8.677  10.866  10.055  0.5553 -0.4271  0.3634
   74MOL0     C 9866   8.576  10.816   9.944 -0.2428 -0.3572  0.2590
   74MOL0     C 9867   8.440  10.890   9.964  0.4301 -0.1797 -0.1653
   74MOL0     C 9868   8.339  10.865   9.847  0.4135  0.2917  0.4560
   74MOL0     C 9869   8.193  10.902   9.858  0.2156 -0.6473 -0.0956
   74MOL0     C 9870   8.097  10.879   9.733  0.9656 -0.0238  0.4865
   74MOL0     C 9871   7.967  10.958   9.752  0.5343  0.6953  0.1609
   74MOL0     N 9872   7.891  10.933   9.631 -0.1754  1.1400 -0.0489
   74MOL0     C 9873   7.908  11.003   9.516 -0.1225  0.8198 -0.1703
   74MOL0     C 9874   7.803  10.946   9.437 -0.0560 -0.1881 -0.0880
   74MOL0     C 9875   7.749  10.991   9.309 -0.8596  1.0195 -0.2594
   74MOL0     C 9876   7.618  11.072   9.319  1.2164 -0.8718 -0.4881
   74MOL0     C 9877   7.562  11.102   9.183 -0.3352  0.1489  0.1432
   74MOL0     C 9878   7.446  11.196   9.184 -1.5961 -0.7942  0.3108
   74MOL0     O 9879   7.488  11.328   9.219 -0.1535 -0.3442 -0.5014
   74MOL0     C 9880   7.397  11.408   9.278 -0.4546 -0.5586  0.1070
   74MOL0     C 9881   7.448  11.502   9.365 -0.0491 -0.0260  0.2134
   74MOL0     C 9882   7.357  11.577   9.449 -0.3129  0.3845  0.5107
   74MOL0     C 9883   7.415  11.665   9.554  0.3204  0.5431 -0.4803
   74MOL0     C 9884   7.219  11.575   9.412  0.3085  0.0687 -0.0568
   74MOL0     C 9885   7.115  11.663   9.483  0.6737  0.7721  0.4441
   74MOL0     O 9886   7.005  11.692   9.403 -0.6749 -0.0312  0.3044
   74MOL0     C 9887   6.887  11.735   9.450 -1.3175 -0.0581 -0.0497
   74MOL0     C 9888   6.777  11.671   9.393  0.4332 -0.2241  0.6617
   74MOL0     C 9889   6.651  11.708   9.434  0.3286  0.4631 -0.7455
   74MOL0     C 9890   6.628  11.794   9.541  1.1668 -0.4535 -0.2928
   74MOL0     O 9891   6.502  11.823   9.592  0.0179 -0.3312 -0.3081
   74MOL0     C 9892   6.409  11.715   9.621  0.0767  0.6676  0.3686
   74MOL0     C 9893   6.280  11.775   9.676  0.6757  0.3350  0.2801
   74MOL0     C 9894   6.209  11.828   9.547 -0.6275  0.6293 -0.1731
   74MOL0     C 9895   6.074  11.900   9.577  0.3130 -0.3494  0.1020
   74MOL0     C 9896   6.015  11.983   9.461 -0.7089 -0.3175 -0.1857
   74MOL0     C 9897   5.939  11.891   9.361 -0.4507 -0.0301  0.1912
   74MOL0     C 9898   5.839  11.805   9.427  0.5546 -0.4412 -0.0466
   74MOL0     C 9899   5.717  11.767   9.341 -0.4226 -0.5058 -0.0313
   74MOL0    Cl 9900   5.625  11.916   9.318 -0.0702  0.3100 -0.0141
   74MOL0     C 9901   6.737  11.853   9.599  0.7798  0.6490 -0.4914
   74MOL0     C 9902   6.872  11.827   9.556  0.4831 -0.0721  0.2784
   74MOL0     O 9903   7.138  11.705   9.596 -0.0833 -0.0060  0.6961
   74MOL0     C 9904   7.173  11.495   9.306 -0.7205  0.1346  0.5627
   74MOL0     C 9905   7.262  11.410   9.237 -0.0620 -0.2487 -0.3896
   74MOL0     N 9906   7.740  10.854   9.516 -0.3444 -0.4996  0.5845
   74MOL0     N 9907   7.788  10.849   9.629  0.2950  0.1020  0.3149
   74MOL0     C 9908   9.033  11.086   9.937  0.3052  0.0091 -0.4645
   74MOL0     C 9909   9.147  11.161   9.910  0.6047 -0.5307 -0.5047
   74MOL0     C 9910   9.516  11.434   9.990  0.6118 -0.0252  0.7069
   74MOL0     C 9911   9.535  11.439   9.851 -0.2613  0.0690  0.4322
   74MOL0     C 9912   9.614  11.522   9.774 -0.0170  0.4785 -0.2605
   74MOL0     C 9913   9.712  11.597   9.845 -0.5437 -0.8337 -0.1383
   74MOL0     O 9914   9.807  11.682   9.787 -0.0424 -0.2995 -0.2869
   74MOL0     C 9915   9.865  11.640   9.665 -0.1854 -0.3330  0.2393
   74MOL0     C 9916  10.021  11.616   9.691 -0.4829  0.8393 -0.5295
   74MOL0     C 9917  10.032  11.508   9.805 -0.1543 -0.0869 -0.6994
   74MOL0     C 9918  10.184  11.468   9.824  0.3680  0.3911  0.2920
   74MOL0     C 9919  10.246  11.584   9.878 -0.0601 -0.3113 -0.6086
   74MOL0     C 9920  10.279  11.689   9.935  0.5468  0.5878  0.0219
   74MOL0     C 9921   9.715  11.585   9.989  0.6579  0.0327 -0.5917
   74MOL0     C 9922   9.610  11.511  10.053  0.0994 -0.2697  0.1194
   74MOL0     H 9923   9.242  11.225  10.225  1.9778  2.2715 -1.7920
   74MOL0     H 9924   9.041  11.086  10.271  1.1970 -2.3732  0.9308
   74MOL0     H 9925   8.768  11.034   9.937  2.3226  1.2241 -0.7320
   74MOL0     H 9926   8.853  10.875   9.927 -1.1047  1.2734 -1.6117
   74MOL0     H 9927   8.712  10.780  10.113 -0.8223 -1.2265  0.0705
   74MOL0     H 9928   8.624  10.925  10.131  1.1421  0.9387 -0.2602
   74MOL0     H 9929   8.616  10.833   9.843  2.9505  3.2357  1.8197
   74MOL0     H 9930   8.566  10.708   9.957  0.5135 -0.2121  2.5527
   74MOL0     H 9931   8.401  10.864  10.063  0.9630 -0.5937 -0.0603
   74MOL0     H 9932   8.451  10.999   9.971 -1.7547 -0.0072  1.7468
   74MOL0     H 9933   8.376  10.912   9.756  2.0162 -2.1667 -0.2682
   74MOL0     H 9934   8.331  10.758   9.828 -1.1649  0.0358  2.2118
   74MOL0     H 9935   8.158  10.854   9.949  2.8726  2.1369  2.6360
   74MOL0     H 9936   8.193  11.009   9.882  0.3237 -0.8955  1.0694
   74MOL0     H 9937   8.147  10.909   9.641 -1.8944  1.2801 -0.7899
   74MOL0     H 9938   8.066  10.775   9.718 -3.7591  0.9927  1.5554
   74MOL0     H 9939   7.978  11.063   9.782  0.9892  0.1031  2.2600
   74MOL0     H 9940   7.920  10.913   9.840  1.3392 -2.3685 -0.8719
   74MOL0     H 9941   7.973  11.076   9.468  1.0272 -0.0882 -0.0378
   74MOL0     H 9942   7.829  11.050   9.263  0.5392 -0.0212  0.7306
   74MOL0     H 9943   7.732  10.898   9.255  0.6548 -1.0107  2.4748
   74MOL0     H 9944   7.625  11.156   9.389  2.3680  0.0183 -1.6390
   74MOL0     H 9945   7.538  11.008   9.356 -0.7388  2.8151  2.3604
   74MOL0     H 9946   7.533  10.999   9.158  0.8688 -0.3728  0.7902
   74MOL0     H 9947   7.641  11.139   9.118  0.1714  1.4981  1.4770
   74MOL0     H 9948   7.363  11.156   9.244 -2.1573 -0.3320 -0.1495
   74MOL0     H 9949   7.402  11.196   9.084 -0.4736 -0.5860 -0.1922
   74MOL0     H 9950   7.555  11.523   9.367 -0.3331  1.6191 -0.1446
   74MOL0     H 9951   7.517  11.698   9.529  0.5544 -1.0538 -1.8562
   74MOL0     H 9952   7.355  11.753   9.576  2.5670  1.7805  1.1526
   74MOL0     H 9953   7.420  11.610   9.648  0.0071 -2.6006 -2.1830
   74MOL0     H 9954   6.773  11.600   9.311 -2.9057  0.4233  0.1029
   74MOL0     H 9955   6.575  11.654   9.377  1.2833 -3.0096  1.0074
   74MOL0     H 9956   6.387  11.643   9.541  0.1844 -0.9087  1.7078
   74MOL0     H 9957   6.448  11.659   9.706 -0.2685  0.4034  0.3558
   74MOL0     H 9958   6.221  11.691   9.715  4.2278 -2.4221  0.2168
   74MOL0     H 9959   6.312  11.851   9.748  2.1163  1.0622 -1.0708
   74MOL0     H 9960   6.188  11.750   9.473  0.0613  1.3572 -1.1684
   74MOL0     H 9961   6.281  11.893   9.496  2.6515 -1.4785  1.4758
   74MOL0     H 9962   6.005  11.818   9.602 -1.2773  1.2467  1.2205
   74MOL0     H 9963   6.082  11.962   9.667  0.1744  0.0333 -0.1491
   74MOL0     H 9964   6.089  12.031   9.397  1.1728  0.4784  2.4191
   74MOL0     H 9965   5.947  12.059   9.500 -0.0192  0.4603 -0.4870
   74MOL0     H 9966   5.901  11.956   9.281  0.8572  1.0836  0.4417
   74MOL0     H 9967   6.016  11.835   9.308  2.1719  4.1376 -0.8726
   74MOL0     H 9968   5.788  11.862   9.506  3.5425  1.2986  0.7514
   74MOL0     H 9969   5.886  11.710   9.454  0.2942 -0.9250 -1.2335
   74MOL0     H 9970   5.652  11.694   9.390 -2.9115  0.6959 -1.3594
   74MOL0     H 9971   5.745  11.736   9.240 -1.9451  0.7492 -0.8784
   74MOL0     H 9972   6.710  11.924   9.677 -1.8134 -1.4756  0.6744
   74MOL0     H 9973   6.960  11.878   9.594  0.6365  0.6263 -0.9728
   74MOL0     H 9974   7.069  11.491   9.276 -1.1438 -0.6059  2.0338
   74MOL0     H 9975   7.228  11.352   9.151 -4.2404 -0.0607  0.9075
   74MOL0     H 9976   8.962  11.070   9.857 -1.2527 -0.8271  1.0090
   74MOL0     H 9977   9.182  11.197   9.814  3.1643  0.1748  0.6082
   74MOL0     H 9978   9.479  11.369   9.791 -0.3180  0.6462 -0.1961
   74MOL0     H 9979   9.603  11.513   9.666 -2.0196 -3.8342  0.0760
   74MOL0     H 9980   9.819  11.550   9.623 -1.2622 -0.8168  2.3182
   74MOL0     H 9981   9.840  11.714   9.588 -0.5615 -0.5479  0.1517
   74MOL0     H 9982  10.072  11.712   9.706  1.8133 -0.2491 -1.0228
   74MOL0     H 9983  10.070  11.571   9.604 -3.0153 -5.6710  0.8845
   74MOL0     H 9984   9.955  11.434   9.780 -1.4724  0.2969  1.8847
   74MOL0     H 9985  10.001  11.547   9.902  4.5504 -2.2617  2.0357
   74MOL0     H 9986  10.224  11.427   9.731 -1.9997 -1.0542 -0.1925
   74MOL0     H 9987  10.205  11.389   9.897  1.0305 -2.2958 -2.6103
   74MOL0     H 9988  10.308  11.781   9.981  0.8022  1.9757 -2.7501
   74MOL0     H 9989   9.785  11.643  10.048 -2.1602  1.5569  1.4717
   74MOL0     H 9990   9.610  11.512  10.161  0.6448  1.6266  0.1381
   75MOL0     O 9991   9.979   2.936   1.504  0.8883 -0.0644 -0.6115
   75MOL0     C 9992  10.049   3.036   1.518 -1.4621  0.1913 -0.3010
   75MOL0     O 9993  10.056   3.110   1.632 -0.7493 -0.3105 -0.3746
   75MOL0     C 9994   9.981   3.080   1.744  0.2369 -0.9304 -0.9020
   75MOL0     C 9995  10.035   3.106   1.869  0.3566  0.3964  0.6788
   75MOL0     C 9996   9.970   3.094   1.990  0.1554  0.1903 -0.1400
   75MOL0     C 9997   9.839   3.049   1.981  0.3087  0.6131  0.0080
   75MOL0     O 9998   9.766   3.010   2.090  0.5405  0.1368  0.3862
   75MOL0     C 9999   9.765   3.101   2.205 -0.1330 -0.4094  0.3738
   75MOL0     C10000   9.620   3.093   2.273 -0.2135  0.9473 -0.7674
   75MOL0     C10001   9.622   2.984   2.381 -0.2545  0.2185 -0.3013
   75MOL0     C10002   9.710   3.020   2.499  0.1287 -0.2760 -0.1121
   75MOL0     C10003   9.732   2.896   2.587 -0.2453 -0.3645 -0.5954
   75MOL0     C10004   9.792   2.929   2.724 -0.0838  0.6813 -0.2823
   75MOL0     C10005   9.701   2.894   2.844 -0.4711 -0.3360  0.1759
   75MOL0     C10006   9.674   2.737   2.854 -0.3267  0.1153  0.2217
   75MOL0     N10007   9.546   2.692   2.805  0.7231 -0.0410 -0.0209
   75MOL0     C10008   9.417   2.714   2.850 -0.0532 -0.7127  0.6023
   75MOL0     C10009   9.333   2.682   2.745 -0.0101 -0.2356  0.2873
   75MOL0     C10010   9.176   2.699   2.744 -0.9728 -0.1900 -0.1412
   75MOL0     C10011   9.126   2.618   2.628  0.5737  0.5168 -0.2226
   75MOL0     C10012   8.985   2.670   2.579 -0.0352  1.0136 -0.9714
   75MOL0     C10013   8.859   2.658   2.668 -0.1166  0.1834  0.2789
   75MOL0     O10014   8.859   2.760   2.766 -0.0506  0.4374  0.1819
   75MOL0     C10015   8.804   2.884   2.752 -0.9499 -0.8330  0.3072
   75MOL0     C10016   8.777   2.932   2.624  0.8161 -0.4810 -0.8329
   75MOL0     C10017   8.708   3.052   2.603  0.4767  0.3769  0.2115
   75MOL0     C10018   8.674   3.085   2.467 -0.0035  0.1832 -0.3534
   75MOL0     C10019   8.676   3.135   2.714 -0.0443  0.1175  0.6901
   75MOL0     C10020   8.582   3.254   2.689  0.4339  0.4917  0.0358
   75MOL0     O10021   8.452   3.229   2.650 -0.0261  0.1058 -0.1053
   75MOL0     C10022   8.363   3.334   2.618  0.0699 -0.2015  0.5729
   75MOL0     C10023   8.381   3.394   2.489  0.1172  0.1761 -0.3568
   75MOL0     C10024   8.274   3.479   2.448  0.3603 -0.3328 -0.1555
   75MOL0     C10025   8.159   3.504   2.514 -0.3967  0.2068 -0.4900
   75MOL0     O10026   8.069   3.599   2.475  0.4134  0.0272 -0.5948
   75MOL0     C10027   8.065   3.651   2.339 -0.0150  0.1447 -0.7514
   75MOL0     C10028   7.934   3.731   2.312 -0.4347 -0.8548 -0.0298
   75MOL0     C10029   7.932   3.786   2.171 -0.4275  0.2996 -0.0638
   75MOL0     C10030   7.799   3.835   2.119 -0.7858 -0.5246 -0.4569
   75MOL0     C10031   7.801   3.882   1.978 -0.0428  0.3320 -1.4957
   75MOL0     C10032   7.688   3.983   1.954 -0.5387  0.0244 -0.8168
   75MOL0     C10033   7.667   4.018   1.806  0.2796  0.3836 -0.2907
   75MOL0     C10034   7.531   4.096   1.772 -0.1077 -0.5486  0.8540
   75MOL0    Cl10035   7.413   3.990   1.841  0.1190 -0.1257  0.5664
   75MOL0     C10036   8.155   3.459   2.644 -0.4008 -0.2200  0.0808
   75MOL0     C10037   8.251   3.363   2.696  0.3776 -0.8348  0.3313
   75MOL0     O10038   8.620   3.369   2.712  0.0999  0.5577  0.1109
   75MOL0     C10039   8.711   3.095   2.844 -0.9678 -0.4937  0.0871
   75MOL0     C10040   8.778   2.971   2.864 -0.2044  0.2541  0.7161
   75MOL0     N10041   9.411   2.627   2.652 -0.6277 -0.1131  1.1019
   75MOL0     N10042   9.533   2.616   2.696  0.4668 -0.3345 -0.5524
   75MOL0     C10043   9.769   3.034   1.857  0.6786  0.2092  0.4889
   75MOL0     C10044   9.844   3.048   1.741 -0.0401  0.1530  0.2797
   75MOL0     C10045  10.139   3.076   1.407  1.0637 -0.6301 -0.0034
   75MOL0     C10046  10.113   3.036   1.274  0.7280 -0.1545 -0.3127
   75MOL0     C10047  10.201   3.060   1.164  0.5682 -0.0159 -0.6669
   75MOL0     C10048  10.322   3.126   1.184  0.3202  0.5319 -1.4781
   75MOL0     O10049  10.407   3.143   1.081  0.4022 -0.1141  0.0709
   75MOL0     C10050  10.500   3.255   1.091  0.0596 -0.1919  0.0918
   75MOL0     C10051  10.544   3.292   0.941  0.5864  0.0724 -0.5370
   75MOL0     C10052  10.694   3.287   0.919 -0.0539  0.0520  0.2565
   75MOL0     C10053  10.746   3.151   0.886  0.2339 -0.0453  0.3439
   75MOL0     C10054  10.897   3.171   0.868  1.3872  0.3040  0.1764
   75MOL0     C10055  11.014   3.206   0.841  0.1518 -0.7182 -0.2482
   75MOL0     C10056  10.342   3.165   1.314  0.3889  0.3216  1.0382
   75MOL0     C10057  10.257   3.140   1.426  0.7239 -1.1999 -0.2824
   75MOL0     H10058  10.138   3.138   1.872  2.2858 -4.5064 -1.4945
   75MOL0     H10059  10.021   3.113   2.084 -1.3493  1.4389  0.4734
   75MOL0     H10060   9.841   3.063   2.273  0.7241  1.0526  0.2796
   75MOL0     H10061   9.777   3.204   2.169 -0.5042 -0.5082 -0.0461
   75MOL0     H10062   9.599   3.196   2.304  0.4402  1.7344 -2.7732
   75MOL0     H10063   9.544   3.070   2.199  1.1295  1.6925 -2.4454
   75MOL0     H10064   9.518   2.969   2.409 -0.4565  2.5141  0.4632
   75MOL0     H10065   9.655   2.888   2.341 -3.0049 -1.2631  0.7587
   75MOL0     H10066   9.805   3.069   2.478 -0.9199  1.7107 -0.5038
   75MOL0     H10067   9.651   3.091   2.558 -1.9281 -2.0050  0.0429
   75MOL0     H10068   9.633   2.859   2.615  0.2318 -0.3236  1.2192
   75MOL0     H10069   9.795   2.820   2.540  0.0984 -0.0195 -0.7021
   75MOL0     H10070   9.882   2.868   2.738 -0.1790  0.8643  1.3000
   75MOL0     H10071   9.829   3.031   2.736 -0.0678  0.8210 -1.3575
   75MOL0     H10072   9.767   2.917   2.928  2.1273  0.4602 -1.9414
   75MOL0     H10073   9.609   2.952   2.842 -2.2922 -3.0420 -0.2115
   75MOL0     H10074   9.664   2.712   2.960  0.3076  1.4334  0.6135
   75MOL0     H10075   9.756   2.685   2.804 -0.9319  0.6843 -1.4403
   75MOL0     H10076   9.391   2.764   2.942  4.1019  3.7822 -0.2676
   75MOL0     H10077   9.134   2.654   2.835 -1.1698 -0.4878 -0.3769
   75MOL0     H10078   9.151   2.804   2.731  0.8134  0.1959 -0.7188
   75MOL0     H10079   9.111   2.516   2.663  2.6698 -1.0055 -3.2669
   75MOL0     H10080   9.201   2.604   2.550  1.9166 -1.7163  1.3405
   75MOL0     H10081   8.961   2.622   2.484  3.4163 -0.7218 -1.0954
   75MOL0     H10082   8.984   2.778   2.559 -0.7738  1.2983  0.4379
   75MOL0     H10083   8.846   2.556   2.706 -4.5734  0.4934  0.1383
   75MOL0     H10084   8.776   2.665   2.596  2.5085  2.1538 -2.8165
   75MOL0     H10085   8.799   2.873   2.535  0.2182 -3.9241  1.1103
   75MOL0     H10086   8.567   3.108   2.456 -0.1070 -0.7913 -1.5857
   75MOL0     H10087   8.730   3.177   2.451  0.2986  0.0395 -0.1301
   75MOL0     H10088   8.697   3.004   2.397 -1.0646  0.7267 -1.3542
   75MOL0     H10089   8.464   3.370   2.424  1.3367  0.0528  1.1668
   75MOL0     H10090   8.297   3.524   2.352  0.6888 -1.3533 -0.5735
   75MOL0     H10091   8.154   3.713   2.322  0.2180  0.4419  1.2305
   75MOL0     H10092   8.069   3.570   2.266  2.8170 -0.1792 -0.3775
   75MOL0     H10093   7.854   3.658   2.328 -1.8140  0.2151 -1.6984
   75MOL0     H10094   7.918   3.803   2.393  2.2001 -0.4943  0.2830
   75MOL0     H10095   7.967   3.703   2.108 -0.8201  1.4797 -1.9361
   75MOL0     H10096   8.007   3.865   2.167 -1.2806  1.1009 -1.1312
   75MOL0     H10097   7.720   3.759   2.128  0.3358 -1.6149  0.4686
   75MOL0     H10098   7.770   3.917   2.185 -2.2732  0.5364 -2.3155
   75MOL0     H10099   7.784   3.802   1.906 -2.6279  1.3484 -2.1309
   75MOL0     H10100   7.902   3.917   1.954 -0.8889  3.6975 -0.7936
   75MOL0     H10101   7.600   3.939   2.000 -0.2540 -0.5330 -0.8014
   75MOL0     H10102   7.711   4.070   2.018 -2.8995  1.0248 -1.2406
   75MOL0     H10103   7.663   3.929   1.742  5.1510  0.5222 -1.1306
   75MOL0     H10104   7.749   4.071   1.759 -0.2480  0.3877 -1.2252
   75MOL0     H10105   7.519   4.115   1.665 -2.4527  2.1346  1.4779
   75MOL0     H10106   7.525   4.191   1.825 -1.1428  2.2693 -3.7567
   75MOL0     H10107   8.065   3.494   2.692  0.2170  3.6667 -1.2195
   75MOL0     H10108   8.236   3.322   2.795  2.7663  2.2275  2.1593
   75MOL0     H10109   8.700   3.162   2.929 -0.0066  0.6774 -0.6702
   75MOL0     H10110   8.810   2.951   2.966 -0.7894  2.1470  1.3160
   75MOL0     H10111   9.664   3.008   1.849  1.0297 -0.7378 -1.5276
   75MOL0     H10112   9.785   3.030   1.652 -2.2253 -0.4289  1.7657
   75MOL0     H10113  10.028   2.970   1.257  0.5487 -0.0666  0.2479
   75MOL0     H10114  10.175   3.005   1.074  1.9280  0.8053 -1.5999
   75MOL0     H10115  10.453   3.347   1.128  0.8751  1.1549 -2.0413
   75MOL0     H10116  10.587   3.235   1.153  0.9823 -1.9909 -1.6714
   75MOL0     H10117  10.502   3.391   0.922 -0.2260 -0.0028  0.7548
   75MOL0     H10118  10.485   3.231   0.872 -0.5124  1.4943 -0.8855
   75MOL0     H10119  10.744   3.325   1.008 -0.2903 -0.6575  0.7021
   75MOL0     H10120  10.727   3.354   0.839  1.4090 -1.2188 -0.2663
   75MOL0     H10121  10.702   3.122   0.790  0.2463  1.9098 -0.3154
   75MOL0     H10122  10.729   3.082   0.968  0.2469  1.0202  1.2768
   75MOL0     H10123  11.118   3.233   0.835  0.1118  0.3391  2.3876
   75MOL0     H10124  10.434   3.218   1.334  0.6195  0.1899  0.3532
   75MOL0     H10125  10.281   3.167   1.528 -2.0384 -0.7304  0.3064
   76MOL0     O10126   9.971   9.978   3.443 -0.2976  0.5209 -1.3308
   76MOL0     C10127   9.931   9.897   3.530 -0.2919 -0.8913 -1.1295
   76MOL0     O10128   9.805   9.869   3.549  0.1633 -0.2227 -0.1933
   76MOL0     C10129   9.698   9.926   3.480  0.2653  0.1491  0.0639
   76MOL0     C10130   9.608  10.003   3.548  0.4960 -0.4525  0.7971
   76MOL0     C10131   9.492  10.046   3.480  0.6286 -0.6903 -0.6787
   76MOL0     C10132   9.461  10.008   3.348  0.9732  0.8204  0.3269
   76MOL0     O10133   9.328  10.028   3.302 -0.2476 -0.1893  0.4715
   76MOL0     C10134   9.271   9.972   3.185 -0.6291  0.9590 -0.1557
   76MOL0     C10135   9.117  10.000   3.178 -0.1421  0.4430  0.6373
   76MOL0     C10136   9.046   9.929   3.057 -0.3053 -0.1919  0.2043
   76MOL0     C10137   8.900   9.969   3.052 -0.5967  1.5863 -0.5242
   76MOL0     C10138   8.827   9.900   2.932 -1.0052  0.3313 -0.3502
   76MOL0     C10139   8.677   9.929   2.921 -0.7665  0.9054 -1.1275
   76MOL0     C10140   8.642  10.067   2.862 -0.5294  0.3613 -0.0976
   76MOL0     C10141   8.499  10.097   2.902  0.4266 -0.4120  0.2147
   76MOL0     N10142   8.470  10.233   2.839 -0.3479  0.3817 -0.8954
   76MOL0     C10143   8.463  10.256   2.704  0.4919 -0.7437  0.1485
   76MOL0     C10144   8.478  10.393   2.693  0.2027  0.6164 -0.2318
   76MOL0     C10145   8.496  10.481   2.572  1.2034  0.0381  0.2881
   76MOL0     C10146   8.425  10.410   2.451  0.6717  0.0894 -0.7741
   76MOL0     C10147   8.466  10.477   2.320  1.0600  0.6254 -0.1123
   76MOL0     C10148   8.411  10.403   2.194 -0.8130  0.3721 -0.1589
   76MOL0     O10149   8.271  10.422   2.198  0.1007  0.7980  0.2292
   76MOL0     C10150   8.215  10.502   2.099 -0.5554  0.6682  0.1309
   76MOL0     C10151   8.282  10.604   2.034  0.4905  0.6101 -0.2956
   76MOL0     C10152   8.207  10.681   1.943 -0.0974  0.3912 -0.3716
   76MOL0     C10153   8.274  10.809   1.892 -1.0246 -0.0754  0.7019
   76MOL0     C10154   8.081  10.649   1.902 -0.2569  0.3726  0.3278
   76MOL0     C10155   8.006  10.713   1.785  0.3275 -0.1570  0.2402
   76MOL0     O10156   7.907  10.640   1.729  0.2807 -0.5340 -1.0811
   76MOL0     C10157   7.825  10.693   1.626  0.2342 -0.1153 -0.0384
   76MOL0     C10158   7.803  10.613   1.514  0.3850 -0.2971  0.7086
   76MOL0     C10159   7.704  10.651   1.425 -0.2746  0.7061 -0.2338
   76MOL0     C10160   7.635  10.768   1.442  0.3456  0.9081  0.4605
   76MOL0     O10161   7.539  10.824   1.366  0.2540  0.9472 -0.2966
   76MOL0     C10162   7.510  10.771   1.233 -0.1639 -0.1807  0.2868
   76MOL0     C10163   7.438  10.882   1.157 -0.4677 -0.2432  0.6332
   76MOL0     C10164   7.525  11.011   1.147  0.3071 -0.1737 -0.1404
   76MOL0     C10165   7.489  11.100   1.028  0.2818 -0.1148 -0.2242
   76MOL0     C10166   7.351  11.160   1.042 -0.3400  0.0972  0.2122
   76MOL0     C10167   7.332  11.279   0.944  0.2302 -0.2622 -0.6403
   76MOL0     C10168   7.183  11.301   0.924  0.8018 -0.8373  0.1524
   76MOL0     C10169   7.183  11.409   0.819  0.7536  0.1545 -0.0027
   76MOL0    Cl10170   7.010  11.469   0.816  0.1798  0.2285 -0.2230
   76MOL0     C10171   7.665  10.856   1.546  0.3916 -0.0097 -0.0915
   76MOL0     C10172   7.762  10.819   1.638  0.2315 -0.2067 -0.0196
   76MOL0     O10173   8.040  10.820   1.742 -0.2666 -0.1399  0.7244
   76MOL0     C10174   8.018  10.535   1.963  0.0391 -0.5472 -0.2107
   76MOL0     C10175   8.085  10.466   2.058  0.2601  0.5070 -0.6566
   76MOL0     N10176   8.473  10.443   2.820 -0.0542 -0.0084 -0.4212
   76MOL0     N10177   8.474  10.347   2.913 -0.4000 -0.3674  0.5383
   76MOL0     C10178   9.557   9.941   3.271  0.1175  0.2647 -0.0875
   76MOL0     C10179   9.673   9.895   3.342  0.3386 -0.3978 -0.3936
   76MOL0     C10180  10.037   9.843   3.627  0.5879  0.2547  0.4360
   76MOL0     C10181  10.171   9.861   3.608 -0.7920 -0.7377 -0.3304
   76MOL0     C10182  10.269   9.787   3.681 -0.2748  0.5349 -0.1164
   76MOL0     C10183  10.227   9.699   3.778  0.1791  0.9113 -0.0681
   76MOL0     O10184  10.308   9.616   3.855  0.3177 -0.0063 -0.5548
   76MOL0     C10185  10.455   9.616   3.845 -0.6399  0.2938  0.4397
   76MOL0     C10186  10.522   9.716   3.934 -0.1643  0.4339 -0.7812
   76MOL0     C10187  10.671   9.687   3.939 -0.5504  0.2616 -0.8582
   76MOL0     C10188  10.757   9.802   4.004  0.8076 -0.0242 -0.0220
   76MOL0     C10189  10.895   9.784   4.034 -1.0117  0.0934  0.0566
   76MOL0     C10190  11.011   9.752   4.057 -0.7947 -0.2403  0.7219
   76MOL0     C10191  10.092   9.680   3.806  0.1095 -0.6144 -0.5704
   76MOL0     C10192   9.996   9.752   3.731 -0.1180 -0.4571  1.4152
   76MOL0     H10193   9.616  10.024   3.654 -0.4933 -1.3229  1.0544
   76MOL0     H10194   9.423  10.103   3.541  2.0553  0.7302 -0.3377
   76MOL0     H10195   9.317  10.028   3.103  2.2778  3.0354  2.6189
   76MOL0     H10196   9.288   9.864   3.185  0.9562  1.1846  0.1817
   76MOL0     H10197   9.077   9.961   3.272 -0.3067 -2.3898 -0.5182
   76MOL0     H10198   9.100  10.108   3.171  0.6969  0.6959  2.0586
   76MOL0     H10199   9.098   9.940   2.962  0.8565 -2.6083  0.4850
   76MOL0     H10200   9.032   9.820   3.054 -0.3790 -0.2067  0.8667
   76MOL0     H10201   8.845   9.928   3.138  0.8938 -3.2893 -1.5788
   76MOL0     H10202   8.886  10.077   3.055 -0.9487  1.5322  1.4386
   76MOL0     H10203   8.877   9.932   2.840 -0.6276  2.5366  0.5668
   76MOL0     H10204   8.834   9.791   2.939 -2.0300  0.2059 -0.9430
   76MOL0     H10205   8.633   9.847   2.864 -0.5092 -2.4999  3.1077
   76MOL0     H10206   8.638   9.925   3.023  1.5528  2.2972 -0.0905
   76MOL0     H10207   8.713  10.146   2.889 -1.6386  1.0303  0.9413
   76MOL0     H10208   8.639  10.056   2.753 -0.2879 -1.9248  0.0643
   76MOL0     H10209   8.480  10.120   3.007 -0.7326 -0.4991  0.0301
   76MOL0     H10210   8.423  10.023   2.876 -2.8347  2.3248  1.2134
   76MOL0     H10211   8.480  10.181   2.627  1.6843 -2.4150  1.9353
   76MOL0     H10212   8.452  10.578   2.594  1.6871  0.1890  0.5898
   76MOL0     H10213   8.604  10.488   2.559  1.2032  3.0251  1.2561
   76MOL0     H10214   8.318  10.420   2.469  0.8305 -0.0635  0.3426
   76MOL0     H10215   8.443  10.302   2.441 -1.5981 -0.3562 -0.5707
   76MOL0     H10216   8.575  10.472   2.322  1.0494 -0.8739  2.7931
   76MOL0     H10217   8.425  10.579   2.315 -1.4995 -0.3920 -2.0265
   76MOL0     H10218   8.420  10.294   2.193 -2.6501  0.1580  1.2208
   76MOL0     H10219   8.462  10.426   2.100 -0.0622  0.1067  0.1812
   76MOL0     H10220   8.386  10.629   2.054  0.3681  0.2938  0.8250
   76MOL0     H10221   8.223  10.903   1.912 -0.1609  0.2458  1.4671
   76MOL0     H10222   8.376  10.825   1.929 -1.1676  4.1060 -0.2196
   76MOL0     H10223   8.274  10.797   1.783 -0.0691 -2.6125  0.8977
   76MOL0     H10224   7.852  10.516   1.504 -0.5266 -0.9942  2.5060
   76MOL0     H10225   7.684  10.579   1.346  1.7562  0.6159 -0.7374
   76MOL0     H10226   7.601  10.750   1.175 -0.1743 -0.2975  0.3130
   76MOL0     H10227   7.444  10.684   1.238 -4.1701  2.6398  1.6764
   76MOL0     H10228   7.413  10.844   1.057 -1.2528 -0.0802  0.7593
   76MOL0     H10229   7.346  10.907   1.210  0.1153  2.4971  0.4989
   76MOL0     H10230   7.633  10.994   1.135  0.4718  0.4058  0.4632
   76MOL0     H10231   7.505  11.068   1.238  1.2422  0.5076 -0.3417
   76MOL0     H10232   7.554  11.187   1.022 -1.1372  0.9762 -0.3806
   76MOL0     H10233   7.493  11.054   0.929 -2.3507 -0.3570 -0.2823
   76MOL0     H10234   7.348  11.213   1.137  1.6940  2.7218 -1.0865
   76MOL0     H10235   7.273  11.086   1.020  1.2984 -1.7119  0.2092
   76MOL0     H10236   7.369  11.373   0.987 -0.1162 -0.8112  0.9192
   76MOL0     H10237   7.370  11.273   0.841  1.0729  3.4252 -0.6660
   76MOL0     H10238   7.135  11.345   1.012 -0.5718  1.1454 -1.4924
   76MOL0     H10239   7.134  11.211   0.886  0.6452 -0.9628  0.6454
   76MOL0     H10240   7.220  11.371   0.724 -1.2245  0.7645 -1.0680
   76MOL0     H10241   7.237  11.497   0.855 -0.3895 -0.2300  2.9372
   76MOL0     H10242   7.602  10.943   1.561 -0.7644  0.2926 -5.0563
   76MOL0     H10243   7.781  10.891   1.716 -2.7553  1.2153 -0.4716
   76MOL0     H10244   7.919  10.507   1.929 -1.3343  3.7441 -0.2956
   76MOL0     H10245   8.057  10.375   2.111  0.9174  1.2555  1.0706
   76MOL0     H10246   9.529   9.920   3.168 -1.1431 -2.5265  0.7424
   76MOL0     H10247   9.733   9.837   3.273 -0.8106 -1.4031 -0.5752
   76MOL0     H10248  10.209   9.909   3.518  2.3380 -2.7563 -0.2428
   76MOL0     H10249  10.373   9.789   3.652 -0.2265  1.1797  0.0922
   76MOL0     H10250  10.480   9.521   3.895  0.7165  0.8118  0.7773
   76MOL0     H10251  10.494   9.635   3.745 -2.2528  3.1955  0.2655
   76MOL0     H10252  10.474   9.715   4.033  1.9995  1.6393  0.3529
   76MOL0     H10253  10.502   9.814   3.889 -1.5853  1.1683  1.2757
   76MOL0     H10254  10.712   9.671   3.839 -0.0546  1.1668 -0.8022
   76MOL0     H10255  10.684   9.593   3.995 -1.2521 -0.1300 -1.3331
   76MOL0     H10256  10.710   9.823   4.101  0.3314 -0.7778 -0.0862
   76MOL0     H10257  10.747   9.888   3.937  0.3475 -1.9233 -2.5453
   76MOL0     H10258  11.111   9.745   4.094  0.0064  4.9280  0.2381
   76MOL0     H10259  10.064   9.603   3.877 -2.9603 -0.0629 -1.0516
   76MOL0     H10260   9.896   9.716   3.752  0.2625 -1.4920  1.5501
   77MOL0     O10261   7.909   9.834   5.021 -0.3387  0.1079 -0.1263
   77MOL0     C10262   7.951   9.788   5.122 -0.0604  0.2365 -0.4358
   77MOL0     O10263   7.908   9.813   5.248 -0.1854 -0.3345 -0.5599
   77MOL0     C10264   7.820   9.922   5.288 -0.0467  0.8794 -0.8173
   77MOL0     C10265   7.824   9.965   5.421  0.0962  0.1817  0.0072
   77MOL0     C10266   7.730  10.053   5.475  0.4761  0.9574  0.3321
   77MOL0     C10267   7.639  10.115   5.392 -0.3159  0.0148  0.0050
   77MOL0     O10268   7.556  10.216   5.427 -0.0053  0.0890  0.4352
   77MOL0     C10269   7.573  10.263   5.565 -0.9224 -0.5371 -0.6377
   77MOL0     C10270   7.466  10.363   5.600 -0.1444  0.3793 -0.0003
   77MOL0     C10271   7.332  10.294   5.620 -0.4700 -0.8845  0.0421
   77MOL0     C10272   7.213  10.384   5.597  0.6517 -1.1254 -0.2968
   77MOL0     C10273   7.092  10.310   5.637  0.3562 -0.0199 -0.4623
   77MOL0     C10274   6.993  10.413   5.704  0.4091  0.0682 -0.0022
   77MOL0     C10275   6.846  10.376   5.679  0.3944 -0.3316 -0.5073
   77MOL0     C10276   6.751  10.461   5.762 -1.2347  0.6915  0.1905
   77MOL0     N10277   6.621  10.408   5.720  0.0246  0.2132  0.6593
   77MOL0     C10278   6.579  10.276   5.737  0.0563  0.4649 -1.0827
   77MOL0     C10279   6.449  10.290   5.698  0.7196  0.1744  0.7803
   77MOL0     C10280   6.366  10.166   5.700  0.2261 -1.0927 -0.1441
   77MOL0     C10281   6.216  10.192   5.662  1.0766 -0.3535 -0.2230
   77MOL0     C10282   6.191  10.208   5.510 -0.6482 -0.6761 -0.3899
   77MOL0     C10283   6.052  10.202   5.459 -0.1476  0.9134  0.0406
   77MOL0     O10284   5.982  10.313   5.509 -0.3121  0.1150 -0.0151
   77MOL0     C10285   5.857  10.342   5.463 -0.1443  0.4644  0.2236
   77MOL0     C10286   5.810  10.471   5.495  0.8934  0.2202 -0.3610
   77MOL0     C10287   5.674  10.504   5.491  1.3304 -0.2913  0.1468
   77MOL0     C10288   5.629  10.647   5.520 -0.6357  0.0560 -0.2954
   77MOL0     C10289   5.578  10.398   5.451 -0.1379 -0.0562  0.0044
   77MOL0     C10290   5.431  10.407   5.439 -0.5708  0.7635  0.5577
   77MOL0     O10291   5.394  10.533   5.396  1.4647 -0.6679 -0.1554
   77MOL0     C10292   5.263  10.561   5.388  0.5487  0.8553 -0.1345
   77MOL0     C10293   5.200  10.666   5.455  0.7094  0.6673 -0.9101
   77MOL0     C10294   5.059  10.685   5.445  0.2621 -0.2223  0.4903
   77MOL0     C10295   4.982  10.605   5.364  0.6162 -0.0552 -0.1669
   77MOL0     O10296   4.846  10.637   5.358  0.1630  0.4486  0.0381
   77MOL0     C10297   4.757  10.532   5.301 -0.6097 -0.6068 -0.4795
   77MOL0     C10298   4.616  10.597   5.292 -0.0770  0.5677 -0.5498
   77MOL0     C10299   4.540  10.599   5.429 -1.1221 -0.7590  0.0604
   77MOL0     C10300   4.430  10.707   5.424 -0.1006 -0.3699 -0.1158
   77MOL0     C10301   4.351  10.702   5.557 -0.6331  0.5635 -0.3236
   77MOL0     C10302   4.210  10.752   5.551  0.5590  1.1428  0.5445
   77MOL0     C10303   4.203  10.902   5.516 -0.1555  0.3477 -0.3031
   77MOL0     C10304   4.070  10.958   5.562 -0.8748 -0.4026  0.1637
   77MOL0    Cl10305   4.066  11.129   5.522  0.4930  0.2294 -0.4210
   77MOL0     C10306   5.046  10.505   5.287  0.1100 -0.4740 -0.6598
   77MOL0     C10307   5.184  10.484   5.310  0.2508  0.2910 -0.0463
   77MOL0     O10308   5.358  10.325   5.493 -0.2474  0.4507  0.3080
   77MOL0     C10309   5.635  10.275   5.406 -1.2970  0.3749 -0.4178
   77MOL0     C10310   5.774  10.241   5.411 -0.4404 -0.1210  0.0656
   77MOL0     N10311   6.407  10.414   5.655 -0.4034 -0.3239  0.6804
   77MOL0     N10312   6.518  10.483   5.673  0.2755 -0.3193  0.2736
   77MOL0     C10313   7.633  10.083   5.255  0.5907  0.3452  0.2409
   77MOL0     C10314   7.727   9.989   5.205  0.4786 -0.9578 -0.4834
   77MOL0     C10315   8.063   9.686   5.101 -0.8699  0.7980 -0.6178
   77MOL0     C10316   8.105   9.608   5.212 -0.0609 -0.7729  0.6366
   77MOL0     C10317   8.220   9.516   5.193  0.0876  0.2086 -0.3653
   77MOL0     C10318   8.279   9.486   5.069 -0.3100  0.5601 -0.8737
   77MOL0     O10319   8.383   9.398   5.044 -0.9726 -0.1469  0.1635
   77MOL0     C10320   8.441   9.315   5.142 -0.2652 -0.1828  1.2462
   77MOL0     C10321   8.482   9.184   5.072 -0.0723 -0.1905 -0.1333
   77MOL0     C10322   8.503   9.196   4.920 -0.0724 -0.1448  0.6546
   77MOL0     C10323   8.557   9.058   4.855 -0.1666 -0.3488 -0.2869
   77MOL0     C10324   8.693   9.024   4.913 -0.0595 -1.0049  0.4367
   77MOL0     C10325   8.798   8.986   4.960  0.0907  0.3749 -0.4768
   77MOL0     C10326   8.226   9.556   4.956  0.0991  0.3787 -0.5286
   77MOL0     C10327   8.132   9.661   4.975 -0.0255  1.0018  0.4742
   77MOL0     H10328   7.904   9.921   5.479 -1.0011 -0.7286  0.8880
   77MOL0     H10329   7.745  10.078   5.580  0.3530  2.3037  0.0459
   77MOL0     H10330   7.571  10.178   5.634  0.9227 -2.2833 -2.5990
   77MOL0     H10331   7.669  10.316   5.563 -0.5161 -1.1990  0.1683
   77MOL0     H10332   7.495  10.421   5.689 -1.5760  0.9648  0.1094
   77MOL0     H10333   7.455  10.437   5.521 -1.8627  1.3638  1.0996
   77MOL0     H10334   7.325  10.199   5.565  3.1380 -1.3379  0.1392
   77MOL0     H10335   7.332  10.266   5.726  2.1250 -0.5643  0.1791
   77MOL0     H10336   7.233  10.479   5.648 -1.3250 -1.0227  0.3876
   77MOL0     H10337   7.209  10.413   5.491 -0.7111 -0.5038 -0.1093
   77MOL0     H10338   7.042  10.264   5.551 -0.9314 -0.7829  0.6441
   77MOL0     H10339   7.114  10.224   5.700  2.3707  0.2528 -0.7423
   77MOL0     H10340   7.009  10.401   5.811 -1.0092  0.6048  0.2881
   77MOL0     H10341   7.010  10.516   5.670 -1.4759 -0.3482 -2.5615
   77MOL0     H10342   6.819  10.384   5.573 -3.0086 -4.0872 -0.1650
   77MOL0     H10343   6.833  10.269   5.693  0.5721 -0.6473 -2.4037
   77MOL0     H10344   6.759  10.565   5.730 -4.4331  1.0401  0.2125
   77MOL0     H10345   6.766  10.449   5.870 -0.2976  0.9048  0.0909
   77MOL0     H10346   6.634  10.192   5.778 -0.6165 -0.0719 -1.2608
   77MOL0     H10347   6.407  10.082   5.643  3.1578  0.1317 -0.0477
   77MOL0     H10348   6.370  10.134   5.804  0.5822 -1.3921 -0.2468
   77MOL0     H10349   6.181  10.276   5.722  2.1581  1.0248 -1.4653
   77MOL0     H10350   6.155  10.105   5.689 -1.3631  1.6413  1.1133
   77MOL0     H10351   6.238  10.132   5.447  0.3249  0.9811 -1.7804
   77MOL0     H10352   6.232  10.303   5.475 -2.8028  0.7544  0.7309
   77MOL0     H10353   6.009  10.105   5.481  1.5539 -0.0550 -0.6686
   77MOL0     H10354   6.059  10.212   5.350 -2.8763  0.6919 -0.2130
   77MOL0     H10355   5.880  10.540   5.542 -1.9909  1.3270  2.7732
   77MOL0     H10356   5.533  10.637   5.571  0.2932  0.6517  1.6504
   77MOL0     H10357   5.695  10.701   5.588  1.7455 -0.9497 -1.6810
   77MOL0     H10358   5.624  10.700   5.424 -1.0667  0.0653 -0.2685
   77MOL0     H10359   5.247  10.733   5.527  0.8198 -0.3069 -0.0387
   77MOL0     H10360   5.014  10.770   5.497  3.1970  0.4709  2.1315
   77MOL0     H10361   4.790  10.501   5.202  1.2060  0.5018 -0.2659
   77MOL0     H10362   4.754  10.442   5.363  2.8584 -0.2370  0.4309
   77MOL0     H10363   4.622  10.701   5.258 -0.0658  1.1393  1.1192
   77MOL0     H10364   4.559  10.534   5.223  0.7055  1.8078 -2.4295
   77MOL0     H10365   4.598  10.622   5.519 -0.8795  0.6319 -0.4211
   77MOL0     H10366   4.494  10.501   5.447  0.3031 -1.8273 -1.7710
   77MOL0     H10367   4.466  10.810   5.423 -0.0039 -0.3952  0.2972
   77MOL0     H10368   4.360  10.689   5.342  0.8334 -0.7930 -0.8433
   77MOL0     H10369   4.412  10.749   5.635 -0.4184 -1.6898  0.9584
   77MOL0     H10370   4.351  10.596   5.586 -0.5339  1.5705  4.0764
   77MOL0     H10371   4.153  10.687   5.485  1.0758  0.9098  0.3248
   77MOL0     H10372   4.171  10.733   5.652  3.4854 -2.0806  1.2379
   77MOL0     H10373   4.217  10.920   5.409  0.2480 -0.4462 -0.3933
   77MOL0     H10374   4.284  10.957   5.566 -0.4949  1.9631 -1.4512
   77MOL0     H10375   4.066  10.951   5.672  1.9903 -1.0053  0.2947
   77MOL0     H10376   3.979  10.908   5.525  1.7632 -3.2899 -3.1061
   77MOL0     H10377   4.996  10.430   5.226 -0.3748 -1.0995  0.4653
   77MOL0     H10378   5.237  10.409   5.251  0.7009  1.0582 -0.6420
   77MOL0     H10379   5.571  10.199   5.361  0.5924 -1.8162  0.3730
   77MOL0     H10380   5.815  10.149   5.368  1.0069  1.8968 -3.3396
   77MOL0     H10381   7.559  10.130   5.192  0.7402 -0.6422 -0.6934
   77MOL0     H10382   7.732   9.991   5.097  2.9107  0.6429 -0.4362
   77MOL0     H10383   8.044   9.615   5.301 -2.0390 -0.1447 -0.6794
   77MOL0     H10384   8.255   9.468   5.284 -3.6885 -0.2776  1.0169
   77MOL0     H10385   8.518   9.358   5.206  0.2898 -3.1429  2.7526
   77MOL0     H10386   8.370   9.277   5.216 -0.1212 -0.0356  1.4587
   77MOL0     H10387   8.400   9.116   5.097 -1.4953  1.3158 -0.5777
   77MOL0     H10388   8.578   9.152   5.115 -1.0176  0.2775  2.5059
   77MOL0     H10389   8.568   9.282   4.902 -0.0497 -0.0961  0.9697
   77MOL0     H10390   8.405   9.221   4.878 -0.0643  1.0426  1.3062
   77MOL0     H10391   8.577   9.072   4.748 -0.9800 -2.2127 -0.7190
   77MOL0     H10392   8.477   8.987   4.876 -1.8509  1.4832 -0.2259
   77MOL0     H10393   8.898   8.968   4.993 -0.4595 -1.3456  0.3864
   77MOL0     H10394   8.258   9.543   4.853 -2.0544  0.7681 -1.2913
   77MOL0     H10395   8.105   9.724   4.890  0.4973  2.1522  1.1293
   78MOL0     O10396   9.809   7.266   1.925 -0.8329 -0.0238  0.2369
   78MOL0     C10397   9.812   7.151   1.969 -0.5568  0.9912 -0.6295
   78MOL0     O10398   9.714   7.051   1.952  0.3189 -0.1400  0.3263
   78MOL0     C10399   9.602   7.088   1.871  1.2215  0.2395  0.4991
   78MOL0     C10400   9.503   7.174   1.924 -0.2654 -0.1270  0.5457
   78MOL0     C10401   9.381   7.193   1.858 -0.8502 -0.0023  0.0810
   78MOL0     C10402   9.356   7.145   1.724 -0.8179 -0.2962 -0.6252
   78MOL0     O10403   9.246   7.171   1.646 -0.1396  0.6389 -0.4282
   78MOL0     C10404   9.121   7.185   1.723 -0.8530 -0.3062  0.1651
   78MOL0     C10405   9.074   7.058   1.793  1.3767 -0.4465  1.1134
   78MOL0     C10406   8.924   7.070   1.842 -0.2494  0.2374  0.0331
   78MOL0     C10407   8.906   7.147   1.979  0.7756 -0.5514 -0.3510
   78MOL0     C10408   8.800   7.268   1.971 -0.9342  0.6282  0.1007
   78MOL0     C10409   8.834   7.380   1.871 -0.0811 -0.6876  0.3525
   78MOL0     C10410   8.711   7.468   1.849 -0.6821  0.7459 -0.1917
   78MOL0     C10411   8.732   7.597   1.778  0.7163 -0.3278 -0.1840
   78MOL0     N10412   8.629   7.692   1.837 -0.0959  0.0221  0.5810
   78MOL0     C10413   8.518   7.749   1.775  0.4498 -0.2328 -0.0747
   78MOL0     C10414   8.481   7.858   1.842 -0.6373 -0.6300  0.1310
   78MOL0     C10415   8.390   7.964   1.802 -0.4273 -0.7946  0.1317
   78MOL0     C10416   8.258   7.908   1.754 -0.0599  0.4458 -0.0118
   78MOL0     C10417   8.170   7.850   1.875  0.1991 -0.0907 -0.1367
   78MOL0     C10418   8.038   7.783   1.836 -0.2328 -0.4038  0.6615
   78MOL0     O10419   7.976   7.776   1.961  0.1023 -0.8313  0.7518
   78MOL0     C10420   7.838   7.779   1.958 -0.3358  0.2167 -0.9368
   78MOL0     C10421   7.766   7.838   2.064  0.1975 -1.2640  0.1708
   78MOL0     C10422   7.634   7.857   2.081  0.8463 -0.6600  0.1959
   78MOL0     C10423   7.582   7.932   2.200  0.2144 -0.5683  0.2068
   78MOL0     C10424   7.543   7.809   1.972  0.8070 -0.3015  0.0418
   78MOL0     C10425   7.399   7.828   1.955 -0.3192 -0.2773  0.5730
   78MOL0     O10426   7.333   7.767   1.849 -0.3440 -0.2194  0.4510
   78MOL0     C10427   7.201   7.784   1.840  0.1610 -0.2229 -0.0624
   78MOL0     C10428   7.131   7.882   1.781 -0.0066 -0.4872  0.4809
   78MOL0     C10429   6.984   7.884   1.755  0.2591  0.4959 -0.0028
   78MOL0     C10430   6.906   7.784   1.816 -0.4505 -0.0276 -0.7330
   78MOL0     O10431   6.769   7.767   1.795 -0.3876  0.3260  0.2400
   78MOL0     C10432   6.690   7.885   1.819 -0.2098  0.7495  0.3199
   78MOL0     C10433   6.547   7.880   1.760 -0.7892 -0.4248 -0.0058
   78MOL0     C10434   6.548   7.835   1.615  0.1567 -0.1228 -0.0181
   78MOL0     C10435   6.419   7.871   1.544 -0.6232  0.5648 -0.2766
   78MOL0     C10436   6.308   7.798   1.612  0.2727  0.1158  0.3472
   78MOL0     C10437   6.164   7.813   1.551 -0.0655 -0.2936  0.0385
   78MOL0     C10438   6.127   7.959   1.518  0.4829 -0.4791  0.1496
   78MOL0     C10439   5.983   7.977   1.465 -0.3751  0.6424  0.1570
   78MOL0    Cl10440   5.958   7.887   1.307 -0.2515  0.1794 -0.0957
   78MOL0     C10441   6.978   7.686   1.893 -0.1047  0.1303  0.1678
   78MOL0     C10442   7.119   7.691   1.899  0.1293  0.3956 -0.1454
   78MOL0     O10443   7.349   7.900   2.041  0.4646 -0.2924 -1.3155
   78MOL0     C10444   7.611   7.732   1.874 -0.6016 -0.5425  0.6938
   78MOL0     C10445   7.749   7.711   1.870 -0.1005 -0.8741  0.2216
   78MOL0     N10446   8.551   7.845   1.965 -0.2460 -0.0939 -0.1045
   78MOL0     N10447   8.637   7.751   1.953  0.3060  0.0332  0.3201
   78MOL0     C10448   9.453   7.056   1.673  0.5974 -0.1946  0.0852
   78MOL0     C10449   9.570   7.024   1.741 -0.4431 -0.3577  0.2652
   78MOL0     C10450   9.920   7.113   2.072 -0.5175 -0.0439 -0.0612
   78MOL0     C10451  10.023   7.211   2.098  1.3401  0.2400  0.3710
   78MOL0     C10452  10.130   7.181   2.191 -0.5641  0.0572  0.1037
   78MOL0     C10453  10.125   7.059   2.268  0.6613 -1.3541  0.8188
   78MOL0     O10454  10.221   7.023   2.365 -0.1438  0.3727 -0.1969
   78MOL0     C10455  10.225   6.901   2.444 -1.0648 -0.2066 -0.5559
   78MOL0     C10456  10.348   6.889   2.531  0.2848 -0.7309 -0.6170
   78MOL0     C10457  10.349   6.766   2.621 -0.1199  1.3104  0.2885
   78MOL0     C10458  10.249   6.757   2.739  0.1273  0.3784 -0.4993
   78MOL0     C10459  10.258   6.868   2.834 -0.1592  0.8638 -1.1235
   78MOL0     C10460  10.256   6.964   2.913  0.6378  0.6894 -0.7861
   78MOL0     C10461  10.021   6.970   2.249 -0.0843 -0.4002 -0.1847
   78MOL0     C10462   9.920   6.996   2.154 -0.2552  0.0404 -0.3969
   78MOL0     H10463   9.511   7.221   2.022 -1.2683  1.4601 -0.0981
   78MOL0     H10464   9.307   7.253   1.909 -0.0358  0.9133  0.2145
   78MOL0     H10465   9.119   7.271   1.790  1.5661 -0.3845  0.4182
   78MOL0     H10466   9.046   7.192   1.644 -0.7527 -0.5864  0.0446
   78MOL0     H10467   9.094   6.976   1.723 -0.7967 -2.3402  2.5872
   78MOL0     H10468   9.140   7.034   1.877  2.3687  0.5882  0.6696
   78MOL0     H10469   8.872   7.115   1.758 -1.5913 -4.4203 -1.9538
   78MOL0     H10470   8.872   6.974   1.849 -1.8403  1.1113  0.5526
   78MOL0     H10471   8.865   7.078   2.053 -1.5646  0.6098 -0.4930
   78MOL0     H10472   9.005   7.181   2.011  0.6510 -1.0109  0.5223
   78MOL0     H10473   8.698   7.236   1.945 -1.1972  1.7793 -0.3352
   78MOL0     H10474   8.787   7.308   2.071 -1.1809 -1.2591  0.8716
   78MOL0     H10475   8.911   7.443   1.917 -2.0361 -0.7352  4.1208
   78MOL0     H10476   8.866   7.343   1.774 -2.0948 -0.8099 -0.3044
   78MOL0     H10477   8.639   7.402   1.798  0.9035  0.3554 -2.0166
   78MOL0     H10478   8.676   7.488   1.951 -1.5923  0.9381 -0.5328
   78MOL0     H10479   8.718   7.586   1.670 -0.8257 -4.5530  0.2607
   78MOL0     H10480   8.833   7.635   1.796  1.0046 -2.1113  2.5625
   78MOL0     H10481   8.478   7.720   1.678  0.1112 -0.1165  0.0270
   78MOL0     H10482   8.384   8.046   1.875  0.8382 -1.6679  1.2758
   78MOL0     H10483   8.429   8.014   1.713 -0.5801 -0.2602  0.3566
   78MOL0     H10484   8.270   7.842   1.668  3.1331  0.1752  0.5198
   78MOL0     H10485   8.203   7.993   1.712 -0.7967 -0.0357 -0.0379
   78MOL0     H10486   8.138   7.937   1.933  0.9480 -0.8735  1.5155
   78MOL0     H10487   8.220   7.775   1.937 -2.9139 -0.8019  1.7442
   78MOL0     H10488   8.058   7.687   1.788  1.2013  1.9469 -3.9888
   78MOL0     H10489   7.992   7.853   1.765  0.6657  1.7278  2.0841
   78MOL0     H10490   7.837   7.875   2.138  2.6062  1.2265 -3.0481
   78MOL0     H10491   7.497   7.880   2.246  1.3669 -0.0316  3.1608
   78MOL0     H10492   7.653   7.935   2.282  0.0658 -1.9170  0.4158
   78MOL0     H10493   7.565   8.037   2.176 -1.3300 -1.1670 -1.6117
   78MOL0     H10494   7.191   7.961   1.736 -0.0804  0.2983  1.7113
   78MOL0     H10495   6.936   7.955   1.688 -2.6996 -0.6591  0.7592
   78MOL0     H10496   6.685   7.906   1.927  0.2945  0.1609  0.4618
   78MOL0     H10497   6.736   7.975   1.777 -2.8874  2.4146  0.6550
   78MOL0     H10498   6.501   7.800   1.818  0.1786  0.5746  2.2418
   78MOL0     H10499   6.486   7.972   1.767 -1.0470 -0.6884  1.6719
   78MOL0     H10500   6.571   7.728   1.615  1.8449  0.1989 -0.7867
   78MOL0     H10501   6.627   7.878   1.552  1.1083 -1.8863 -0.0988
   78MOL0     H10502   6.406   7.979   1.558  2.0501  1.3957 -3.0082
   78MOL0     H10503   6.423   7.849   1.437 -1.3645  1.4745 -0.5045
   78MOL0     H10504   6.302   7.841   1.713  1.1761  1.0886 -0.0057
   78MOL0     H10505   6.336   7.693   1.623  0.8938  0.4650  2.6293
   78MOL0     H10506   6.155   7.760   1.456 -0.0776 -0.0752 -0.0830
   78MOL0     H10507   6.094   7.773   1.625  0.6733  0.5183  1.2273
   78MOL0     H10508   6.191   7.990   1.435  0.5378 -0.4318  0.2099
   78MOL0     H10509   6.151   8.020   1.605  1.2084 -2.4239  1.3572
   78MOL0     H10510   5.966   8.083   1.445  1.8430  1.4349  2.0057
   78MOL0     H10511   5.906   7.940   1.534 -0.5399 -0.7570 -0.7391
   78MOL0     H10512   6.922   7.602   1.931  0.6513  0.0561  1.1742
   78MOL0     H10513   7.166   7.611   1.955  0.6509 -0.2142 -1.3953
   78MOL0     H10514   7.550   7.681   1.800  0.0558  0.2814 -0.4605
   78MOL0     H10515   7.789   7.657   1.784 -0.6403  2.3792 -2.2860
   78MOL0     H10516   9.440   7.031   1.569 -3.7422  3.0348 -0.4078
   78MOL0     H10517   9.647   6.961   1.698 -1.8387 -1.8912 -0.0465
   78MOL0     H10518  10.010   7.307   2.049  3.0800  0.5500  0.4790
   78MOL0     H10519  10.215   7.245   2.210 -0.6277 -0.0450  0.7592
   78MOL0     H10520  10.134   6.897   2.505 -2.0043  0.1395 -1.8952
   78MOL0     H10521  10.221   6.812   2.379  0.7148  0.5164 -1.7334
   78MOL0     H10522  10.371   6.979   2.589  1.2304  0.2499 -2.4271
   78MOL0     H10523  10.439   6.885   2.471  1.0660 -0.3260  0.4961
   78MOL0     H10524  10.445   6.768   2.673 -0.0732 -0.9979  0.4108
   78MOL0     H10525  10.356   6.675   2.559  0.8917  2.6817 -1.7127
   78MOL0     H10526  10.250   6.659   2.787 -1.1280  0.2471 -0.7147
   78MOL0     H10527  10.146   6.759   2.702  0.0882 -1.0179 -0.5155
   78MOL0     H10528  10.261   7.057   2.968 -1.0175  0.0109  0.6282
   78MOL0     H10529  10.016   6.879   2.307 -2.8464 -1.3915 -1.8089
   78MOL0     H10530   9.843   6.921   2.139  2.0386 -2.3201 -0.9747
   79MOL0     O10531   7.699   1.749  11.262 -0.3619 -0.0416 -0.1681
   79MOL0     C10532   7.713   1.714  11.144 -0.3648 -0.2131 -0.4419
   79MOL0     O10533   7.647   1.753  11.035 -0.2060 -0.5552  0.1872
   79MOL0     C10534   7.532   1.823  11.056 -0.1455 -0.2498  0.2312
   79MOL0     C10535   7.412   1.749  11.060 -0.6087 -0.3970 -0.7060
   79MOL0     C10536   7.292   1.815  11.099 -0.7112  0.1877 -0.1186
   79MOL0     C10537   7.297   1.953  11.142 -0.3100  0.4763  0.2718
   79MOL0     O10538   7.179   2.020  11.183 -0.2730  0.7925  1.1068
   79MOL0     C10539   7.059   1.942  11.205  0.4392 -0.2923 -0.3798
   79MOL0     C10540   6.976   2.043  11.291 -0.4972  0.6379 -0.4202
   79MOL0     C10541   6.859   1.974  11.340  0.3802  0.1579  0.1657
   79MOL0     C10542   6.787   2.057  11.446  0.2002  0.0120 -0.2046
   79MOL0     C10543   6.649   2.012  11.463  0.0956  0.0668  0.1452
   79MOL0     C10544   6.579   2.101  11.577 -0.3560  0.2694  1.5869
   79MOL0     C10545   6.429   2.095  11.581  1.0511  0.1361 -0.3859
   79MOL0     C10546   6.348   2.207  11.666 -0.9657 -0.0092  0.1052
   79MOL0     N10547   6.316   2.319  11.575 -0.1324  0.5208  0.2739
   79MOL0     C10548   6.409   2.422  11.552 -0.8294 -0.0184 -0.1013
   79MOL0     C10549   6.342   2.505  11.469  0.0281  0.1199 -0.2154
   79MOL0     C10550   6.400   2.640  11.426 -0.4889 -0.2641 -0.2940
   79MOL0     C10551   6.315   2.755  11.491 -0.4295  0.5081  0.4461
   79MOL0     C10552   6.192   2.796  11.407 -0.7950  0.0519 -0.1086
   79MOL0     C10553   6.074   2.853  11.490 -0.1296  0.3934 -0.0642
   79MOL0     O10554   5.987   2.938  11.413  0.4125  0.3262  0.0140
   79MOL0     C10555   5.893   3.001  11.487 -0.2263  0.2668 -0.5770
   79MOL0     C10556   5.830   2.955  11.609  0.0364  0.2663  0.2095
   79MOL0     C10557   5.746   3.045  11.673 -0.3436  0.1223 -0.4786
   79MOL0     C10558   5.679   2.988  11.810  0.1559  0.4586  0.3189
   79MOL0     C10559   5.727   3.182  11.633 -0.6751  0.7361  0.0171
   79MOL0     C10560   5.644   3.289  11.696  0.4162  0.2311  0.2811
   79MOL0     O10561   5.678   3.421  11.664  0.8918  0.4620  0.1946
   79MOL0     C10562   5.582   3.510  11.683 -0.7568  0.1694  0.1894
   79MOL0     C10563   5.565   3.586  11.797 -0.3597  0.8219 -0.7306
   79MOL0     C10564   5.464   3.684  11.804  0.4304 -0.8608  0.8689
   79MOL0     C10565   5.380   3.711  11.695 -0.0704 -0.7158  0.2329
   79MOL0     O10566   5.275   3.791  11.702 -0.7178 -1.1098  0.1043
   79MOL0     C10567   5.227   3.851  11.820  1.1689  0.3472  0.1786
   79MOL0     C10568   5.077   3.871  11.798 -0.7415  0.2196  0.1025
   79MOL0     C10569   5.022   3.978  11.891  0.4636  0.3654  0.1306
   79MOL0     C10570   4.869   3.989  11.851  0.1421 -0.1031 -0.3150
   79MOL0     C10571   4.801   4.080  11.958 -0.7817 -0.2401  0.1330
   79MOL0     C10572   4.649   4.105  11.918 -0.6411  0.5163  0.7160
   79MOL0     C10573   4.587   4.186  12.030 -0.5090 -0.9184 -0.0082
   79MOL0     C10574   4.450   4.224  11.988  0.1363  0.0110 -0.4412
   79MOL0    Cl10575   4.375   4.299  12.134  0.1552  0.1557  0.1984
   79MOL0     C10576   5.402   3.634  11.575  0.5500  0.0365 -0.7463
   79MOL0     C10577   5.501   3.541  11.576 -0.2532  1.1022  0.5553
   79MOL0     O10578   5.549   3.255  11.762 -0.1258 -0.0429 -0.0237
   79MOL0     C10579   5.786   3.220  11.515 -0.4782  0.8362  0.3356
   79MOL0     C10580   5.862   3.131  11.445  0.1681  0.2106  0.0222
   79MOL0     N10581   6.212   2.460  11.450  0.1895 -0.0648 -0.7256
   79MOL0     N10582   6.198   2.346  11.518  0.3283 -0.3899 -0.7056
   79MOL0     C10583   7.416   2.017  11.146  0.0658  0.1602  0.2976
   79MOL0     C10584   7.535   1.956  11.105  0.5936 -0.2978  0.7782
   79MOL0     C10585   7.823   1.608  11.115 -0.1622 -0.0895 -0.4077
   79MOL0     C10586   7.866   1.521  11.221 -0.4028  0.2020 -0.0226
   79MOL0     C10587   7.966   1.428  11.201  0.1424 -0.3355  0.0462
   79MOL0     C10588   8.008   1.399  11.067  0.0238  0.6130  0.3882
   79MOL0     O10589   8.082   1.280  11.041  0.7175 -0.2165  0.2731
   79MOL0     C10590   8.180   1.244  11.136  0.2485 -0.0488 -0.5065
   79MOL0     C10591   8.271   1.136  11.075 -0.4551 -0.1107  0.1198
   79MOL0     C10592   8.423   1.168  11.128  0.0834 -0.6768 -0.6118
   79MOL0     C10593   8.510   1.053  11.076  0.1175 -0.0171 -0.6771
   79MOL0     C10594   8.651   1.061  11.123 -0.0350  0.1659  0.2112
   79MOL0     C10595   8.769   1.067  11.161  0.1335 -0.0425 -0.5464
   79MOL0     C10596   7.966   1.481  10.968 -0.0696  0.0044  0.4821
   79MOL0     C10597   7.873   1.590  10.988  0.0880 -0.1729 -0.3556
   79MOL0     H10598   7.405   1.641  11.051  2.9645 -0.8153 -0.0381
   79MOL0     H10599   7.204   1.752  11.101  0.9798 -2.2977  2.1946
   79MOL0     H10600   7.011   1.915  11.110  0.5034 -0.6322 -0.3181
   79MOL0     H10601   7.072   1.849  11.261 -3.1875  0.2332  1.6464
   79MOL0     H10602   7.033   2.078  11.378 -1.9305  0.0413  0.8003
   79MOL0     H10603   6.952   2.136  11.239 -2.3363  1.2542  1.3700
   79MOL0     H10604   6.788   1.969  11.257 -0.7089  0.4557  1.0579
   79MOL0     H10605   6.883   1.873  11.376  3.0763  0.1869 -1.2700
   79MOL0     H10606   6.851   2.049  11.534  0.0049 -3.3494 -0.2348
   79MOL0     H10607   6.783   2.164  11.424 -0.5426  0.2652  1.0700
   79MOL0     H10608   6.592   2.023  11.370 -1.1977  1.0064  1.0070
   79MOL0     H10609   6.638   1.906  11.489 -3.1357  0.6495  1.6561
   79MOL0     H10610   6.612   2.061  11.674  2.0185 -0.7896  0.4303
   79MOL0     H10611   6.610   2.200  11.544 -0.5679 -0.4344 -0.8804
   79MOL0     H10612   6.390   2.111  11.480  0.0328  1.0227  0.1171
   79MOL0     H10613   6.388   2.000  11.619 -2.6860  2.2155  1.4178
   79MOL0     H10614   6.404   2.246  11.751 -0.1013  3.8392 -1.9687
   79MOL0     H10615   6.257   2.154  11.696 -0.0262 -1.4176  0.5748
   79MOL0     H10616   6.513   2.437  11.579 -0.4256 -1.3204 -0.8453
   79MOL0     H10617   6.505   2.643  11.454 -0.4290  2.3842 -0.5728
   79MOL0     H10618   6.390   2.651  11.318 -1.8099 -0.8583 -0.2540
   79MOL0     H10619   6.374   2.845  11.505 -2.3067  1.8761 -0.0211
   79MOL0     H10620   6.282   2.722  11.591  1.8979  0.3363  1.2024
   79MOL0     H10621   6.158   2.705  11.356  1.9033 -1.0792 -0.0854
   79MOL0     H10622   6.229   2.860  11.326  2.8873  2.7299  3.2949
   79MOL0     H10623   6.114   2.905  11.577 -0.1819 -3.0894  2.2657
   79MOL0     H10624   6.015   2.768  11.525  0.7136 -0.5323 -0.8194
   79MOL0     H10625   5.867   2.862  11.652 -0.6972 -0.5371 -0.8480
   79MOL0     H10626   5.571   2.986  11.793  0.4995  0.7526 -2.3211
   79MOL0     H10627   5.710   2.885  11.830 -4.0329 -0.6588  2.1632
   79MOL0     H10628   5.705   3.054  11.893 -0.4785  2.7036 -1.1695
   79MOL0     H10629   5.634   3.554  11.874  0.0711 -1.3636 -1.9555
   79MOL0     H10630   5.462   3.749  11.891 -0.5352 -0.3381  0.4809
   79MOL0     H10631   5.241   3.789  11.909 -0.0803  1.8884  1.5020
   79MOL0     H10632   5.283   3.944  11.834 -0.9375  1.8876 -1.0639
   79MOL0     H10633   5.049   3.890  11.694  0.6977 -1.3582 -0.6317
   79MOL0     H10634   5.027   3.775  11.812 -0.6539 -0.0695 -1.3805
   79MOL0     H10635   5.071   4.076  11.888 -0.1356  0.6600 -0.3448
   79MOL0     H10636   5.023   3.929  11.988 -4.1664  1.2779  0.8907
   79MOL0     H10637   4.872   4.033  11.751  2.2317 -0.8944 -0.6497
   79MOL0     H10638   4.813   3.895  11.852 -3.2417  1.7458  0.9728
   79MOL0     H10639   4.848   4.179  11.967  1.3108 -1.3213  1.9738
   79MOL0     H10640   4.810   4.025  12.052 -0.1659 -0.9729 -0.3451
   79MOL0     H10641   4.643   4.171  11.831  0.0969  0.3708  0.5516
   79MOL0     H10642   4.601   4.012  11.888  0.1029  0.2999  0.1768
   79MOL0     H10643   4.642   4.281  12.032 -1.9194 -0.0959  0.6043
   79MOL0     H10644   4.600   4.145  12.131  0.8544  3.1343  1.6624
   79MOL0     H10645   4.401   4.127  11.973  1.8806 -0.9909  0.0834
   79MOL0     H10646   4.437   4.286  11.899  0.2984  0.5134 -0.1185
   79MOL0     H10647   5.338   3.653  11.489 -3.7820  2.5034  2.6078
   79MOL0     H10648   5.503   3.483  11.485 -0.3405  0.2189  1.1078
   79MOL0     H10649   5.790   3.319  11.472 -1.6394 -0.5481 -3.3907
   79MOL0     H10650   5.915   3.160  11.354 -0.2363 -0.0262 -0.2961
   79MOL0     H10651   7.417   2.122  11.174 -1.2135  0.4854 -0.7683
   79MOL0     H10652   7.625   2.016  11.108  1.3289 -1.3706  0.7788
   79MOL0     H10653   7.830   1.553  11.318 -2.5528  0.2134 -0.7755
   79MOL0     H10654   7.995   1.375  11.291  1.6907  1.7416  0.8219
   79MOL0     H10655   8.237   1.337  11.142 -1.7474  1.2459 -1.0432
   79MOL0     H10656   8.143   1.212  11.234  0.9736 -0.8956 -0.4869
   79MOL0     H10657   8.261   1.120  10.967  0.9516 -1.2242  0.1278
   79MOL0     H10658   8.251   1.039  11.122  1.2666  0.5206  2.3241
   79MOL0     H10659   8.420   1.165  11.238 -0.7423  2.1876 -0.4920
   79MOL0     H10660   8.464   1.260  11.087 -1.3311 -0.1201 -0.8276
   79MOL0     H10661   8.512   1.044  10.967 -1.2828 -3.1630 -0.5798
   79MOL0     H10662   8.467   0.962  11.120  2.1805 -0.0810  1.3878
   79MOL0     H10663   8.863   1.049  11.209  0.2217 -3.0715 -1.6693
   79MOL0     H10664   8.015   1.462  10.873  1.9460 -1.3704  1.7041
   79MOL0     H10665   7.835   1.655  10.910 -2.5976  0.8616  1.6635
   80MOL0     O10666   4.193   1.595   6.464  0.3056 -0.3145 -0.4413
   80MOL0     C10667   4.309   1.638   6.481  0.4932  0.3131  0.2003
   80MOL0     O10668   4.339   1.757   6.527 -0.2009  0.4667  0.0401
   80MOL0     C10669   4.228   1.826   6.565 -0.0212 -0.3125 -0.2230
   80MOL0     C10670   4.180   1.826   6.693 -0.6953 -0.2458  0.3668
   80MOL0     C10671   4.093   1.927   6.747 -0.2340  0.6223  0.2946
   80MOL0     C10672   4.032   2.013   6.661  1.3313 -0.3031 -0.4858
   80MOL0     O10673   3.941   2.096   6.726 -0.4247 -0.6152 -0.3520
   80MOL0     C10674   3.828   2.149   6.650  0.3232  1.0860 -0.1986
   80MOL0     C10675   3.743   2.227   6.737  0.2478  0.1339 -0.0773
   80MOL0     C10676   3.637   2.304   6.650 -0.0187  0.0747  0.4642
   80MOL0     C10677   3.592   2.427   6.730  0.0333 -0.5272 -0.1250
   80MOL0     C10678   3.459   2.464   6.664  0.4839  1.0766  1.0775
   80MOL0     C10679   3.334   2.395   6.721  0.3449  0.4521  0.1922
   80MOL0     C10680   3.202   2.459   6.667 -1.0934  0.5060 -0.3190
   80MOL0     C10681   3.078   2.384   6.716  0.1451 -0.0196 -0.2296
   80MOL0     N10682   2.948   2.412   6.653  0.1215  0.0949 -0.1435
   80MOL0     C10683   2.853   2.321   6.613  0.3601 -0.2916 -0.0021
   80MOL0     C10684   2.775   2.408   6.545 -0.0477 -0.2208  0.4588
   80MOL0     C10685   2.649   2.362   6.471  0.1251 -0.5397  0.3943
   80MOL0     C10686   2.662   2.367   6.318  0.8038 -0.8236 -0.9441
   80MOL0     C10687   2.543   2.308   6.246  0.4734  0.2253 -0.3793
   80MOL0     C10688   2.554   2.344   6.097 -0.2397 -0.6466 -0.4907
   80MOL0     O10689   2.493   2.471   6.067  0.0422 -0.5889  0.1125
   80MOL0     C10690   2.360   2.480   6.032 -0.6730 -0.4960  0.7774
   80MOL0     C10691   2.332   2.606   5.973  1.1544 -0.1966 -0.0651
   80MOL0     C10692   2.198   2.651   5.943  0.0588 -0.4287  0.3082
   80MOL0     C10693   2.183   2.793   5.897  0.1880 -0.0644  0.1572
   80MOL0     C10694   2.089   2.567   5.966  0.7888  0.8764  0.0606
   80MOL0     C10695   1.950   2.600   5.919  0.7171 -0.3798 -0.7010
   80MOL0     O10696   1.854   2.526   5.981  0.1167  0.5153 -0.4452
   80MOL0     C10697   1.731   2.511   5.915 -0.4438 -0.1094  0.1471
   80MOL0     C10698   1.707   2.409   5.821 -1.2270  0.2911  0.0266
   80MOL0     C10699   1.592   2.395   5.748  0.5260 -0.3272 -0.6001
   80MOL0     C10700   1.481   2.479   5.784  0.9328 -0.6240 -0.0619
   80MOL0     O10701   1.351   2.471   5.738  0.0411 -0.2470 -0.0555
   80MOL0     C10702   1.318   2.409   5.613 -0.3185  0.0135 -0.5729
   80MOL0     C10703   1.179   2.434   5.571  0.2209  0.7898  0.0291
   80MOL0     C10704   1.064   2.418   5.677 -0.2804 -0.7084  0.1192
   80MOL0     C10705   0.923   2.401   5.619  0.5328  0.2951 -0.4859
   80MOL0     C10706   0.867   2.536   5.575 -0.1776 -0.1537  0.5568
   80MOL0     C10707   0.725   2.524   5.514 -0.3806  0.0285  0.4374
   80MOL0     C10708   0.659   2.667   5.503 -0.2225  0.3549  0.6025
   80MOL0     C10709   0.590   2.713   5.629 -0.1272  0.0211 -0.5040
   80MOL0    Cl10710   0.551   2.896   5.639 -0.3525  0.0651 -0.0737
   80MOL0     C10711   1.506   2.591   5.870  0.0830 -0.1330  0.8452
   80MOL0     C10712   1.627   2.601   5.937 -0.2474  0.8798 -0.8006
   80MOL0     O10713   1.934   2.676   5.825 -0.2809  0.4276 -0.1620
   80MOL0     C10714   2.120   2.433   6.026 -0.3379 -0.0887  0.0641
   80MOL0     C10715   2.248   2.397   6.059  0.3576 -0.5477 -0.2831
   80MOL0     N10716   2.825   2.534   6.532  0.6702 -0.1666  0.1831
   80MOL0     N10717   2.927   2.538   6.601 -0.0472  0.5072  0.4192
   80MOL0     C10718   4.062   2.006   6.522 -0.8107 -0.0347 -0.6125
   80MOL0     C10719   4.168   1.914   6.472  0.6452 -0.3492 -0.0873
   80MOL0     C10720   4.414   1.558   6.415 -0.5540 -0.8341  0.2692
   80MOL0     C10721   4.403   1.428   6.371 -0.2017 -0.2849  0.4966
   80MOL0     C10722   4.507   1.358   6.300  0.3140 -0.4763  0.0348
   80MOL0     C10723   4.627   1.410   6.293 -0.4106 -0.0968  0.0708
   80MOL0     O10724   4.708   1.320   6.237  0.1145  0.1394 -0.0892
   80MOL0     C10725   4.835   1.360   6.194 -0.3819  0.1676  0.2103
   80MOL0     C10726   4.911   1.240   6.136  0.2914 -0.0352 -0.1526
   80MOL0     C10727   5.052   1.270   6.086 -0.1752  0.0693  0.3896
   80MOL0     C10728   5.108   1.141   6.004  0.3151  0.0597 -0.2050
   80MOL0     C10729   5.245   1.155   5.968  0.5977  0.1874 -0.3738
   80MOL0     C10730   5.367   1.163   5.958 -0.1368 -0.4760  0.1371
   80MOL0     C10731   4.646   1.540   6.347  0.1648 -0.0943 -0.1296
   80MOL0     C10732   4.547   1.615   6.407  0.8442 -0.1158  0.7917
   80MOL0     H10733   4.226   1.754   6.759 -0.9805  2.1513  3.4265
   80MOL0     H10734   4.070   1.944   6.851 -2.8947  3.9900 -0.6746
   80MOL0     H10735   3.882   2.219   6.586  1.9740 -1.2240 -1.4506
   80MOL0     H10736   3.774   2.067   6.603 -0.3179 -0.6083  3.1735
   80MOL0     H10737   3.702   2.158   6.811 -0.1840  2.1456  1.6747
   80MOL0     H10738   3.795   2.299   6.801 -2.2195  0.2140  2.0404
   80MOL0     H10739   3.687   2.339   6.559 -0.4963 -0.9861 -0.2245
   80MOL0     H10740   3.552   2.240   6.624 -0.4805  1.0219 -0.4417
   80MOL0     H10741   3.594   2.403   6.837  1.3054 -3.5197 -0.7265
   80MOL0     H10742   3.662   2.511   6.728  2.4193 -2.3000  1.9208
   80MOL0     H10743   3.440   2.571   6.675  2.9261  1.3588  3.3901
   80MOL0     H10744   3.465   2.443   6.557 -2.3082 -1.0876  1.2386
   80MOL0     H10745   3.336   2.288   6.698 -1.8998  1.2213 -4.6086
   80MOL0     H10746   3.327   2.398   6.831  1.0143 -2.3775  0.3919
   80MOL0     H10747   3.202   2.565   6.692  1.3942  0.5342 -0.1439
   80MOL0     H10748   3.199   2.449   6.558 -2.2243  1.7296 -0.4248
   80MOL0     H10749   3.061   2.388   6.824  1.8891 -0.4568  0.0956
   80MOL0     H10750   3.100   2.279   6.694  0.5763 -0.2565  1.2196
   80MOL0     H10751   2.835   2.218   6.643 -2.4785  0.7901  2.5031
   80MOL0     H10752   2.631   2.259   6.502  1.4892 -1.1550 -0.7757
   80MOL0     H10753   2.564   2.423   6.503 -0.8557 -1.1645 -0.9324
   80MOL0     H10754   2.757   2.319   6.290  2.1712  0.8247  0.6538
   80MOL0     H10755   2.680   2.472   6.294 -2.4088  0.2459  0.8364
   80MOL0     H10756   2.452   2.346   6.293  0.2573  1.0865 -1.4312
   80MOL0     H10757   2.543   2.199   6.250  3.5261  0.1241 -0.4337
   80MOL0     H10758   2.506   2.272   6.030 -1.3286  0.1761 -0.6222
   80MOL0     H10759   2.656   2.360   6.062 -0.0721  0.2317  0.3696
   80MOL0     H10760   2.405   2.683   5.952  1.2394  0.0296  1.0271
   80MOL0     H10761   2.098   2.845   5.943 -0.7101 -0.6141 -0.8339
   80MOL0     H10762   2.266   2.864   5.906  0.9848 -0.4443 -3.1420
   80MOL0     H10763   2.168   2.793   5.789  3.4272  3.3723 -0.4994
   80MOL0     H10764   1.787   2.336   5.808 -0.1134  1.6663 -1.3904
   80MOL0     H10765   1.578   2.319   5.672  2.3567  0.1458 -1.4575
   80MOL0     H10766   1.385   2.470   5.551  4.8317  0.1331  4.3033
   80MOL0     H10767   1.339   2.302   5.607 -0.2363 -0.0640  0.7252
   80MOL0     H10768   1.177   2.533   5.524 -2.2151 -0.4610 -2.8573
   80MOL0     H10769   1.147   2.362   5.496 -3.2456  2.6221 -0.4391
   80MOL0     H10770   1.056   2.506   5.742 -1.7195 -1.5770  1.1715
   80MOL0     H10771   1.086   2.330   5.738  1.8151 -1.3778 -1.4732
   80MOL0     H10772   0.932   2.340   5.529 -1.2098 -0.0418 -0.4572
   80MOL0     H10773   0.862   2.344   5.689  0.5385 -0.0948 -0.7953
   80MOL0     H10774   0.944   2.570   5.504  0.6854 -2.3025  0.3842
   80MOL0     H10775   0.857   2.605   5.659 -2.0170  0.0116  0.2359
   80MOL0     H10776   0.724   2.469   5.419 -1.4364  0.2274  0.3145
   80MOL0     H10777   0.651   2.465   5.570 -2.5768  2.1477 -0.0643
   80MOL0     H10778   0.592   2.672   5.417  2.1980  0.4840 -1.3869
   80MOL0     H10779   0.738   2.741   5.485  0.6869 -1.0469 -1.5076
   80MOL0     H10780   0.656   2.691   5.713  0.8095  0.3022 -1.1521
   80MOL0     H10781   0.495   2.659   5.637 -0.2373  0.2527 -0.2441
   80MOL0     H10782   1.423   2.653   5.904  0.0503 -0.6370  1.7149
   80MOL0     H10783   1.643   2.663   6.025  0.0315 -1.8036  1.1797
   80MOL0     H10784   2.036   2.366   6.038  0.0009 -0.2798  1.6136
   80MOL0     H10785   2.257   2.301   6.108  2.9458 -0.4277 -0.4099
   80MOL0     H10786   3.999   2.071   6.462 -1.7954  0.9145  1.3635
   80MOL0     H10787   4.197   1.917   6.368 -0.9029 -0.3833 -0.5410
   80MOL0     H10788   4.304   1.385   6.378 -1.5288  2.3563 -0.5760
   80MOL0     H10789   4.474   1.265   6.254  0.9836 -0.6317 -0.1490
   80MOL0     H10790   4.834   1.436   6.116 -0.9541 -1.9603 -1.9780
   80MOL0     H10791   4.898   1.398   6.275 -1.2066  0.0614  0.9105
   80MOL0     H10792   4.858   1.197   6.050  3.2527  1.9378 -3.2254
   80MOL0     H10793   4.926   1.178   6.225  1.4682  1.3167  0.6303
   80MOL0     H10794   5.106   1.284   6.181 -0.7606 -1.8409  1.0558
   80MOL0     H10795   5.049   1.362   6.028  0.4899  0.8547  1.5696
   80MOL0     H10796   5.039   1.113   5.924 -0.2408 -0.0391  0.3051
   80MOL0     H10797   5.099   1.055   6.071 -3.1230 -0.7529 -1.4797
   80MOL0     H10798   5.475   1.163   5.961 -0.1287 -1.5735  0.1884
   80MOL0     H10799   4.750   1.571   6.357  0.1938 -0.0190 -0.6514
   80MOL0     H10800   4.558   1.714   6.450 -1.3053  1.3712 -1.7495
   81MOL0     O10801   6.692   6.870   4.678  0.5147  0.9869 -0.5241
   81MOL0     C10802   6.720   6.885   4.555  0.2028  0.3765 -0.1675
   81MOL0     O10803   6.628   6.901   4.457  0.6468  0.0268 -0.3266
   81MOL0     C10804   6.493   6.895   4.479 -0.7190  0.4781  0.0775
   81MOL0     C10805   6.413   6.977   4.401 -0.5867 -0.1368 -0.5247
   81MOL0     C10806   6.268   6.975   4.402 -0.0457  0.2532 -0.3247
   81MOL0     C10807   6.205   6.891   4.491  0.1890 -0.4874  0.2284
   81MOL0     O10808   6.070   6.879   4.503 -0.0109  0.2954  0.3541
   81MOL0     C10809   5.982   6.962   4.421  0.2925 -0.0657 -0.7167
   81MOL0     C10810   5.845   6.912   4.444  0.1107 -1.0050 -0.1485
   81MOL0     C10811   5.736   6.962   4.355 -0.5307 -0.7608 -0.4878
   81MOL0     C10812   5.714   7.111   4.366  0.3403  0.0309 -1.0535
   81MOL0     C10813   5.596   7.155   4.278  0.3458  0.7840  0.5541
   81MOL0     C10814   5.598   7.304   4.293  0.1214 -0.2149  0.8656
   81MOL0     C10815   5.485   7.374   4.207  0.0295 -0.7235 -0.7680
   81MOL0     C10816   5.482   7.526   4.207 -0.3293  0.2797 -0.5202
   81MOL0     N10817   5.423   7.564   4.340 -0.4245  0.1246 -0.0666
   81MOL0     C10818   5.491   7.599   4.452 -0.3360 -0.8648 -0.8051
   81MOL0     C10819   5.404   7.624   4.562 -0.2248  0.3308  1.0573
   81MOL0     C10820   5.425   7.649   4.702  0.4934  0.0931  0.5666
   81MOL0     C10821   5.299   7.685   4.786 -0.7890  0.7630 -1.0201
   81MOL0     C10822   5.336   7.706   4.934  0.7877  0.3515 -0.3327
   81MOL0     C10823   5.233   7.773   5.012  0.1932 -0.7381 -0.5341
   81MOL0     O10824   5.114   7.697   5.015 -0.8203  0.5588 -0.9163
   81MOL0     C10825   4.995   7.740   5.062 -0.2273 -0.1407 -0.3839
   81MOL0     C10826   4.888   7.652   5.066 -0.2653  0.1511  0.5301
   81MOL0     C10827   4.756   7.695   5.103 -0.1862 -0.1610  0.7102
   81MOL0     C10828   4.650   7.585   5.118 -0.1337  0.0041 -0.8545
   81MOL0     C10829   4.731   7.829   5.139  0.2244 -0.8097  0.0332
   81MOL0     C10830   4.592   7.880   5.182 -0.3298 -0.3936  0.6504
   81MOL0     O10831   4.587   7.976   5.279  0.5467  0.3201 -0.2578
   81MOL0     C10832   4.454   8.019   5.310  0.2440  0.6794  0.1448
   81MOL0     C10833   4.430   8.155   5.291 -0.2311  1.3345 -0.0477
   81MOL0     C10834   4.305   8.206   5.337  0.7251 -0.5621 -0.0259
   81MOL0     C10835   4.211   8.129   5.415 -0.1668  0.4301 -0.0508
   81MOL0     O10836   4.091   8.171   5.470 -0.2727  0.3607  0.2713
   81MOL0     C10837   4.037   8.298   5.437 -0.4788  0.0482 -0.1071
   81MOL0     C10838   3.926   8.335   5.536 -0.3988 -0.3006 -0.1268
   81MOL0     C10839   3.982   8.385   5.672 -0.0172 -0.3504  0.2208
   81MOL0     C10840   3.880   8.370   5.784  0.1754  0.3494  0.3059
   81MOL0     C10841   3.934   8.368   5.930  0.4930 -0.1363  0.0718
   81MOL0     C10842   3.956   8.508   5.994 -0.1994 -0.2086 -0.3371
   81MOL0     C10843   3.844   8.608   5.967 -0.1660 -0.8744 -0.0559
   81MOL0     C10844   3.853   8.724   6.074 -0.1954  0.5191 -0.2627
   81MOL0    Cl10845   3.755   8.853   6.006 -0.6920 -0.3866 -0.2902
   81MOL0     C10846   4.239   7.989   5.428 -0.5221 -0.8587  0.3575
   81MOL0     C10847   4.364   7.934   5.375  0.2396 -0.4209  0.2984
   81MOL0     O10848   4.498   7.846   5.109 -0.4766 -0.9641  0.1917
   81MOL0     C10849   4.841   7.920   5.142  0.4490 -0.6691  0.1364
   81MOL0     C10850   4.966   7.878   5.095  0.6778  0.1016 -0.4568
   81MOL0     N10851   5.283   7.615   4.496  0.6797  0.1296 -1.1094
   81MOL0     N10852   5.290   7.574   4.376 -0.7089 -0.2921  0.6684
   81MOL0     C10853   6.285   6.811   4.574 -0.2319  0.7086  0.3093
   81MOL0     C10854   6.426   6.812   4.571  0.1631 -0.2046 -0.0614
   81MOL0     C10855   6.868   6.888   4.514 -0.3771  0.8755 -0.4467
   81MOL0     C10856   6.957   6.879   4.618 -0.3710 -0.7145  0.1028
   81MOL0     C10857   7.091   6.889   4.593  0.8529  0.2984  0.1222
   81MOL0     C10858   7.142   6.880   4.465  0.4171  0.1686 -0.2327
   81MOL0     O10859   7.281   6.876   4.457  0.6521 -0.2851  0.3072
   81MOL0     C10860   7.347   6.851   4.333  0.3237  0.2739  0.1319
   81MOL0     C10861   7.420   6.720   4.352  0.2497 -0.4624 -0.1826
   81MOL0     C10862   7.461   6.657   4.215 -0.1535 -0.2205  0.0640
   81MOL0     C10863   7.511   6.511   4.222 -0.4085  0.4840 -0.3438
   81MOL0     C10864   7.641   6.492   4.280 -0.1043 -0.6161  0.7488
   81MOL0     C10865   7.742   6.482   4.342 -0.7319  0.1412  0.2085
   81MOL0     C10866   7.053   6.898   4.358  0.1344  0.9598 -0.4097
   81MOL0     C10867   6.916   6.910   4.388  0.5280  0.0434  0.1147
   81MOL0     H10868   6.450   7.054   4.334  0.1969  1.1839  1.3363
   81MOL0     H10869   6.214   7.044   4.339 -0.6147  0.6814  0.6111
   81MOL0     H10870   5.996   7.069   4.442  0.8970 -0.3903  0.6823
   81MOL0     H10871   6.009   6.945   4.317  0.7518 -0.0932 -0.5980
   81MOL0     H10872   5.843   6.805   4.421  0.2000 -0.9175 -0.5671
   81MOL0     H10873   5.822   6.947   4.545 -1.5124  0.2047 -0.8847
   81MOL0     H10874   5.774   6.958   4.253  0.5905  0.2774 -0.1340
   81MOL0     H10875   5.644   6.903   4.364 -1.3754  0.7814  2.0025
   81MOL0     H10876   5.677   7.137   4.466 -3.5240  1.3018 -2.5916
   81MOL0     H10877   5.807   7.162   4.342  0.4042 -0.5719 -2.1739
   81MOL0     H10878   5.624   7.127   4.176  0.5231  0.2396  0.7492
   81MOL0     H10879   5.505   7.105   4.313 -1.2668  1.1044 -2.8165
   81MOL0     H10880   5.572   7.340   4.393 -4.6228  0.9087 -0.5066
   81MOL0     H10881   5.693   7.344   4.260 -0.5493  0.2492 -0.5726
   81MOL0     H10882   5.502   7.338   4.106 -0.5567 -1.5930 -0.5682
   81MOL0     H10883   5.389   7.334   4.241  0.6575 -0.0334  2.0750
   81MOL0     H10884   5.425   7.555   4.119  2.7404  0.0178 -2.7900
   81MOL0     H10885   5.581   7.571   4.195  1.3363 -2.5039  1.3706
   81MOL0     H10886   5.597   7.586   4.472 -0.5812 -1.0632  0.4622
   81MOL0     H10887   5.474   7.559   4.742  3.8858  0.4595 -2.2983
   81MOL0     H10888   5.496   7.732   4.709 -0.8109  1.3477 -0.5302
   81MOL0     H10889   5.233   7.599   4.780  1.4999 -1.0453 -1.7299
   81MOL0     H10890   5.248   7.775   4.751  1.3184  2.6620  0.5113
   81MOL0     H10891   5.431   7.759   4.943 -1.2829  4.1970  1.1335
   81MOL0     H10892   5.358   7.606   4.971 -0.4656 -0.0446 -0.6016
   81MOL0     H10893   5.213   7.861   4.950  0.6722 -1.6238 -1.9937
   81MOL0     H10894   5.262   7.809   5.111 -1.4524 -1.6336  0.3000
   81MOL0     H10895   4.899   7.548   5.038 -0.9772 -0.2383  1.6257
   81MOL0     H10896   4.605   7.612   5.214  0.6799  1.9041 -0.9633
   81MOL0     H10897   4.571   7.588   5.042 -2.0255  4.7221  0.9382
   81MOL0     H10898   4.702   7.489   5.126  2.6484  1.4434 -0.5414
   81MOL0     H10899   4.502   8.212   5.233  0.5017  0.0960 -0.3811
   81MOL0     H10900   4.297   8.313   5.324  0.0633 -0.6274 -0.1812
   81MOL0     H10901   4.112   8.377   5.448 -1.3781  1.1597 -1.5318
   81MOL0     H10902   4.005   8.304   5.333 -0.5809  0.8998 -0.0360
   81MOL0     H10903   3.856   8.406   5.490 -1.0533  0.3442  1.7697
   81MOL0     H10904   3.868   8.245   5.557  0.3362 -1.0342 -1.1559
   81MOL0     H10905   4.004   8.492   5.669 -0.1252 -0.3140 -3.5119
   81MOL0     H10906   4.070   8.331   5.707  1.4376  1.1282 -0.9890
   81MOL0     H10907   3.796   8.438   5.767  0.3956  0.5090 -0.1615
   81MOL0     H10908   3.839   8.270   5.767 -1.5575  1.2626 -1.3075
   81MOL0     H10909   4.028   8.313   5.937  0.4001 -0.2577  0.3654
   81MOL0     H10910   3.855   8.313   5.981  0.2658 -2.2317 -2.3487
   81MOL0     H10911   3.987   8.495   6.098 -1.7098  1.3281  0.3579
   81MOL0     H10912   4.042   8.557   5.948 -0.6097 -0.0567 -0.9568
   81MOL0     H10913   3.742   8.568   5.958  1.1446 -4.3616 -1.0776
   81MOL0     H10914   3.866   8.656   5.871  0.8270  1.5872  1.3283
   81MOL0     H10915   3.957   8.754   6.086  0.2549 -1.3592  0.9063
   81MOL0     H10916   3.811   8.696   6.171 -1.2319 -0.4888 -0.9721
   81MOL0     H10917   4.181   7.916   5.484 -1.4952 -1.3847 -1.2790
   81MOL0     H10918   4.378   7.827   5.378 -2.1191 -0.7794  0.2806
   81MOL0     H10919   4.819   8.023   5.171 -0.8661 -1.2399  1.2345
   81MOL0     H10920   5.049   7.944   5.077  1.7166 -1.5721 -2.0828
   81MOL0     H10921   6.240   6.745   4.647  1.3945  1.3055  1.9436
   81MOL0     H10922   6.485   6.755   4.642  0.7551 -1.0195 -1.1630
   81MOL0     H10923   6.932   6.877   4.724 -1.0847 -0.4893 -0.0553
   81MOL0     H10924   7.164   6.875   4.672  0.5485 -2.4913  0.0160
   81MOL0     H10925   7.279   6.832   4.249  2.8855 -0.0788 -1.9862
   81MOL0     H10926   7.420   6.926   4.302 -2.5847  3.0712 -0.4391
   81MOL0     H10927   7.348   6.660   4.408 -0.1077  1.8889  2.0581
   81MOL0     H10928   7.512   6.727   4.411  0.9789  0.2422 -1.3630
   81MOL0     H10929   7.534   6.725   4.171 -0.5489 -0.7040 -1.3983
   81MOL0     H10930   7.370   6.663   4.154 -0.5122  0.4058  0.6480
   81MOL0     H10931   7.508   6.469   4.121  1.9034  0.1428 -0.3263
   81MOL0     H10932   7.440   6.452   4.280  1.1459 -0.7856  0.3289
   81MOL0     H10933   7.823   6.454   4.406 -0.6694  0.5463  0.3092
   81MOL0     H10934   7.096   6.899   4.258  1.3357 -2.3542 -0.0585
   81MOL0     H10935   6.848   6.925   4.305 -0.7081  3.6243  1.5863
   82MOL0     O10936   7.752   1.938   7.148 -0.7615 -0.1569 -0.0855
   82MOL0     C10937   7.816   2.045   7.149 -0.0450  0.2148  0.2186
   82MOL0     O10938   7.768   2.163   7.184  0.5978 -0.0878 -0.7431
   82MOL0     C10939   7.641   2.177   7.229  0.0519  0.2708  0.5956
   82MOL0     C10940   7.526   2.105   7.184 -0.9293  0.2938 -0.0072
   82MOL0     C10941   7.402   2.141   7.229  0.3215 -0.3641 -0.6228
   82MOL0     C10942   7.375   2.246   7.311 -0.0770  0.4230  0.2348
   82MOL0     O10943   7.253   2.282   7.360 -0.2206  0.2592  0.3251
   82MOL0     C10944   7.133   2.212   7.315 -0.1401  0.2513  0.0341
   82MOL0     C10945   7.011   2.311   7.333 -0.4291 -0.1819 -0.5445
   82MOL0     C10946   6.881   2.253   7.273  0.3108 -0.5007 -0.2363
   82MOL0     C10947   6.760   2.324   7.328 -0.2845 -0.0201 -0.0956
   82MOL0     C10948   6.626   2.259   7.281  0.2565  0.1224  0.4372
   82MOL0     C10949   6.512   2.344   7.342 -0.0409  0.4829 -0.0486
   82MOL0     C10950   6.378   2.295   7.308 -0.0906 -0.2995  0.5225
   82MOL0     C10951   6.346   2.160   7.366 -0.5487 -0.4723  0.8466
   82MOL0     N10952   6.210   2.120   7.329 -0.5231 -0.5715  0.2478
   82MOL0     C10953   6.178   2.053   7.203  0.5696 -0.3310 -0.0205
   82MOL0     C10954   6.047   2.033   7.221  1.3332 -0.2126 -0.8233
   82MOL0     C10955   5.956   1.947   7.141  0.2265  0.2682  0.0370
   82MOL0     C10956   5.895   2.027   7.025  0.2127 -0.3199  0.1173
   82MOL0     C10957   5.787   1.940   6.957  0.6588 -0.1802  0.1609
   82MOL0     C10958   5.718   2.009   6.826 -0.2190 -0.1846 -0.1822
   82MOL0     O10959   5.659   2.137   6.841 -0.2372 -0.2200 -0.6339
   82MOL0     C10960   5.525   2.142   6.875 -0.4426 -0.4070  0.2867
   82MOL0     C10961   5.428   2.040   6.900 -0.3894 -0.0058  0.9680
   82MOL0     C10962   5.305   2.082   6.939  0.3065  0.1570 -1.0592
   82MOL0     C10963   5.208   1.972   6.972  0.2233 -0.4985 -0.0541
   82MOL0     C10964   5.267   2.221   6.975 -0.4089 -0.2876  0.0057
   82MOL0     C10965   5.126   2.265   7.008 -0.5369  0.4918 -0.6416
   82MOL0     O10966   5.110   2.357   7.108 -0.1703 -0.0026 -0.6122
   82MOL0     C10967   4.981   2.389   7.141  0.4193  0.2380 -0.6173
   82MOL0     C10968   4.946   2.341   7.264  0.4062 -0.1919 -0.4005
   82MOL0     C10969   4.811   2.363   7.309 -0.3309  0.2297  0.0699
   82MOL0     C10970   4.713   2.431   7.230 -0.3730  0.1749 -0.3508
   82MOL0     O10971   4.586   2.463   7.271 -0.7977 -0.1337  0.3262
   82MOL0     C10972   4.486   2.491   7.170  0.0895 -0.1758  0.0791
   82MOL0     C10973   4.359   2.508   7.247 -0.3967  0.0026 -0.3512
   82MOL0     C10974   4.248   2.542   7.160 -0.1863  0.0993  0.7983
   82MOL0     C10975   4.118   2.575   7.243  0.4044  1.0071 -0.4537
   82MOL0     C10976   4.003   2.639   7.161  0.1387 -0.3520  0.7420
   82MOL0     C10977   3.883   2.652   7.250  0.3601  0.1754 -0.6576
   82MOL0     C10978   3.768   2.731   7.174 -0.2404  0.4174  0.4678
   82MOL0     C10979   3.640   2.725   7.251  0.3980 -0.1476 -0.5576
   82MOL0    Cl10980   3.511   2.830   7.158 -0.2063  0.0234 -0.2126
   82MOL0     C10981   4.761   2.475   7.102  0.5669  0.6065  0.5084
   82MOL0     C10982   4.894   2.454   7.058 -0.4442  0.0010  0.9698
   82MOL0     O10983   5.038   2.215   6.948  0.4665 -0.2238 -0.1011
   82MOL0     C10984   5.368   2.313   6.958 -0.5652 -0.5503 -0.8994
   82MOL0     C10985   5.492   2.278   6.901 -0.1154 -0.3069 -0.6865
   82MOL0     N10986   6.001   2.100   7.337 -0.1989 -0.1568 -0.7576
   82MOL0     N10987   6.103   2.154   7.395  0.0237 -0.6403 -0.4216
   82MOL0     C10988   7.489   2.323   7.351  0.4360 -0.0960 -0.1027
   82MOL0     C10989   7.617   2.289   7.309 -0.9655 -0.4986 -0.0767
   82MOL0     C10990   7.961   2.040   7.149 -0.4287  1.0379  0.7320
   82MOL0     C10991   8.033   1.931   7.104  0.0060  0.4316 -0.0800
   82MOL0     C10992   8.174   1.920   7.115 -0.2239  0.1881 -0.1892
   82MOL0     C10993   8.244   2.024   7.164 -0.2452 -0.2270 -0.3673
   82MOL0     O10994   8.379   2.027   7.185  0.6660  0.3749 -0.1424
   82MOL0     C10995   8.452   1.917   7.132 -0.2279  0.9759 -0.0522
   82MOL0     C10996   8.599   1.922   7.131  0.1243  0.5151  0.3629
   82MOL0     C10997   8.658   1.898   7.270 -0.1946  0.0789 -0.4056
   82MOL0     C10998   8.815   1.914   7.278  0.0570 -0.9345 -1.1907
   82MOL0     C10999   8.874   1.818   7.179  0.3307 -0.6554  0.2369
   82MOL0     C11000   8.936   1.731   7.125 -0.4295 -0.1281 -0.2441
   82MOL0     C11001   8.171   2.135   7.220 -0.9307  0.1537  1.0028
   82MOL0     C11002   8.032   2.143   7.216 -0.5553  0.3315 -1.0277
   82MOL0     H11003   7.549   2.035   7.105 -0.4347  0.9308 -0.4302
   82MOL0     H11004   7.325   2.071   7.199 -0.6729  0.1022  0.7683
   82MOL0     H11005   7.146   2.182   7.210 -1.9511 -0.7098  0.0587
   82MOL0     H11006   7.112   2.120   7.369  0.5336 -0.6338 -1.1616
   82MOL0     H11007   7.002   2.303   7.442  0.6023  1.4575 -0.3049
   82MOL0     H11008   7.021   2.416   7.305  1.0235 -0.1349  0.0714
   82MOL0     H11009   6.883   2.264   7.164  0.5855  0.1503 -0.1723
   82MOL0     H11010   6.876   2.148   7.304 -1.9745 -0.3076  0.2124
   82MOL0     H11011   6.774   2.333   7.436  0.8627 -1.0336 -0.1390
   82MOL0     H11012   6.765   2.421   7.278  0.6326  0.8406  1.5740
   82MOL0     H11013   6.595   2.257   7.176 -4.5371  0.3109  1.6265
   82MOL0     H11014   6.616   2.157   7.319  0.4926 -0.1077 -0.1132
   82MOL0     H11015   6.517   2.329   7.450  5.3935  0.0558 -0.0587
   82MOL0     H11016   6.526   2.451   7.321  0.2280  0.4178 -0.2100
   82MOL0     H11017   6.306   2.369   7.344 -0.5488  0.3244 -1.5626
   82MOL0     H11018   6.357   2.285   7.201 -2.1712  1.8974  0.6371
   82MOL0     H11019   6.367   2.158   7.474  0.9854 -1.1261  0.5691
   82MOL0     H11020   6.407   2.083   7.318 -2.4779 -3.2337  2.5490
   82MOL0     H11021   6.241   2.035   7.116 -0.5942 -2.8762 -0.4086
   82MOL0     H11022   5.999   1.849   7.116 -0.3350 -0.0140  0.1626
   82MOL0     H11023   5.884   1.922   7.220  0.1383  2.0520  0.5529
   82MOL0     H11024   5.974   2.065   6.960  0.5668  0.9833  1.2708
   82MOL0     H11025   5.838   2.112   7.064  0.5719 -0.1562  0.2869
   82MOL0     H11026   5.706   1.912   7.025  0.5755 -3.0091 -0.9882
   82MOL0     H11027   5.835   1.843   6.941 -0.5431 -0.6034 -0.9702
   82MOL0     H11028   5.657   1.940   6.767  0.6143  0.8095 -2.2966
   82MOL0     H11029   5.799   2.014   6.753  0.5466  0.0868  0.6728
   82MOL0     H11030   5.439   1.933   6.881  0.1779  0.4770 -1.8492
   82MOL0     H11031   5.146   1.971   6.882  0.6244  0.1964 -0.3482
   82MOL0     H11032   5.256   1.873   6.982  0.5300 -0.4605 -1.0042
   82MOL0     H11033   5.142   1.983   7.058 -3.2923 -2.6501 -2.2067
   82MOL0     H11034   5.025   2.318   7.335  0.8741  3.6668  0.5484
   82MOL0     H11035   4.771   2.329   7.404 -2.1974 -0.2324 -0.8312
   82MOL0     H11036   4.513   2.584   7.119 -1.3355  0.4336  0.3914
   82MOL0     H11037   4.460   2.411   7.100 -2.7415 -1.6430  2.5771
   82MOL0     H11038   4.326   2.423   7.307 -1.5505 -0.7861 -2.0160
   82MOL0     H11039   4.384   2.588   7.317  3.0254  0.6733 -2.1455
   82MOL0     H11040   4.224   2.451   7.105 -1.0638 -0.1693  1.6071
   82MOL0     H11041   4.294   2.630   7.114  0.6908 -0.5356  0.4361
   82MOL0     H11042   4.077   2.482   7.283  1.2931 -0.2284 -2.2525
   82MOL0     H11043   4.153   2.642   7.323  2.7506 -1.2763  0.6025
   82MOL0     H11044   3.978   2.577   7.074 -2.3370  2.1742 -0.4868
   82MOL0     H11045   4.028   2.735   7.117 -1.0765 -0.0119  0.7524
   82MOL0     H11046   3.846   2.563   7.301 -0.6723  0.1136 -1.4644
   82MOL0     H11047   3.903   2.724   7.330 -4.0829  1.2928 -0.2575
   82MOL0     H11048   3.759   2.703   7.069 -2.8458  3.3196 -0.2335
   82MOL0     H11049   3.800   2.836   7.170 -1.7327  0.8605 -0.5459
   82MOL0     H11050   3.658   2.760   7.354  1.6468 -1.4775 -0.3060
   82MOL0     H11051   3.606   2.621   7.251 -4.9565  1.2903  0.3354
   82MOL0     H11052   4.691   2.527   7.037  0.2137  0.4789  0.7798
   82MOL0     H11053   4.925   2.492   6.962 -0.5289  0.1762  1.0122
   82MOL0     H11054   5.346   2.410   7.001 -1.1719 -0.2044 -1.9502
   82MOL0     H11055   5.566   2.356   6.892 -1.1932  0.6564 -1.6479
   82MOL0     H11056   7.470   2.410   7.413  3.8185 -1.1680  2.8261
   82MOL0     H11057   7.699   2.357   7.334 -0.1132 -1.9795  1.3723
   82MOL0     H11058   7.984   1.846   7.057 -0.2335  0.3908  0.2345
   82MOL0     H11059   8.227   1.832   7.081 -0.6752  0.3768 -1.4335
   82MOL0     H11060   8.421   1.829   7.189  0.9633  0.0605 -0.7710
   82MOL0     H11061   8.436   1.915   7.024  2.1988 -0.1653 -0.4640
   82MOL0     H11062   8.631   2.017   7.086  0.0549  0.8965  1.1031
   82MOL0     H11063   8.623   1.833   7.072  1.2805  0.7265  0.5028
   82MOL0     H11064   8.645   1.793   7.298 -0.7360  0.1510 -0.3688
   82MOL0     H11065   8.614   1.961   7.348 -0.0639  0.1027 -0.3515
   82MOL0     H11066   8.849   1.884   7.377 -1.0637  0.6624 -0.2844
   82MOL0     H11067   8.846   2.017   7.260  0.9849 -1.2065 -1.2061
   82MOL0     H11068   9.000   1.665   7.071 -0.8225 -1.5606  0.9718
   82MOL0     H11069   8.232   2.219   7.253  0.7298 -0.5273 -0.1330
   82MOL0     H11070   7.982   2.224   7.268  0.6255 -0.5920  1.6740
   83MOL0     O11071   6.870   2.525   9.739 -0.4597  0.8505 -0.9986
   83MOL0     C11072   6.952   2.432   9.755 -0.2853 -0.4147  0.2990
   83MOL0     O11073   6.921   2.311   9.743 -0.0363 -0.1529 -0.2389
   83MOL0     C11074   6.796   2.262   9.757  0.4235  0.3881  0.0550
   83MOL0     C11075   6.756   2.158   9.848  0.6319 -0.8016  0.2914
   83MOL0     C11076   6.632   2.095   9.844 -0.5078 -0.5837 -0.4594
   83MOL0     C11077   6.533   2.148   9.762  0.7476 -0.0774 -0.8884
   83MOL0     O11078   6.416   2.081   9.769 -0.5033 -0.1880  0.1437
   83MOL0     C11079   6.306   2.110   9.681  0.0119 -0.3814 -0.1251
   83MOL0     C11080   6.209   1.985   9.690  0.3956  0.6538 -0.0006
   83MOL0     C11081   6.081   2.008   9.598  0.2232  0.8846  0.6919
   83MOL0     C11082   6.127   2.073   9.462  0.2580  0.0006 -0.1291
   83MOL0     C11083   6.015   2.069   9.357 -0.2228 -0.6336 -0.7574
   83MOL0     C11084   6.034   2.181   9.247  1.0544 -0.1362 -0.2303
   83MOL0     C11085   6.151   2.129   9.162 -0.8073 -0.2456  0.2972
   83MOL0     C11086   6.192   2.212   9.042  0.3191  0.7586  1.0254
   83MOL0     N11087   6.255   2.345   9.067  0.6908 -0.5500 -0.2081
   83MOL0     C11088   6.339   2.408   8.976 -0.5023  0.2799  0.8214
   83MOL0     C11089   6.348   2.537   9.021 -0.2072 -0.0593  0.1093
   83MOL0     C11090   6.414   2.630   8.922  0.3281  0.3999  0.2683
   83MOL0     C11091   6.316   2.713   8.839  0.3785 -0.5332  0.7452
   83MOL0     C11092   6.255   2.631   8.721 -0.8444 -0.7724  0.2151
   83MOL0     C11093   6.180   2.724   8.622  0.2767 -0.5949  0.2852
   83MOL0     O11094   6.065   2.790   8.689 -0.6531  1.1754  0.0169
   83MOL0     C11095   5.947   2.714   8.694 -0.1513 -0.2103 -0.6469
   83MOL0     C11096   5.846   2.755   8.779 -0.0467  0.3472 -0.0415
   83MOL0     C11097   5.717   2.700   8.776  0.3416  0.5308  0.0109
   83MOL0     C11098   5.612   2.763   8.865  0.2359  0.5838 -0.1013
   83MOL0     C11099   5.692   2.589   8.689  0.7833 -0.3830 -1.2465
   83MOL0     C11100   5.563   2.508   8.679  0.6626  0.0263 -0.3135
   83MOL0     O11101   5.551   2.416   8.584 -0.0347 -0.3246 -0.5937
   83MOL0     C11102   5.423   2.368   8.553  0.9551  0.5836  0.6695
   83MOL0     C11103   5.317   2.451   8.509  0.6659 -0.0147 -0.2549
   83MOL0     C11104   5.183   2.403   8.511 -0.0288 -0.2077 -0.0008
   83MOL0     C11105   5.154   2.268   8.541  0.1142  0.1795 -1.0840
   83MOL0     O11106   5.025   2.215   8.541 -0.3999 -0.4044 -0.1986
   83MOL0     C11107   4.918   2.301   8.498 -0.1461  0.3020 -1.1680
   83MOL0     C11108   4.894   2.295   8.343 -0.6120  0.3639  0.0057
   83MOL0     C11109   4.891   2.146   8.298  0.1037 -0.3864  0.8490
   83MOL0     C11110   4.817   2.144   8.160 -0.2905  0.9463  0.5975
   83MOL0     C11111   4.746   2.011   8.108 -0.3140  0.6182  0.4571
   83MOL0     C11112   4.644   2.042   7.988 -1.1261 -0.2354  0.3607
   83MOL0     C11113   4.563   1.913   7.961  0.8245 -0.0063 -1.1235
   83MOL0     C11114   4.655   1.795   7.926  0.5423 -0.0468 -0.1243
   83MOL0    Cl11115   4.583   1.670   7.818  0.2475 -0.2262 -0.0192
   83MOL0     C11116   5.251   2.185   8.595 -0.1748  0.0671 -0.2515
   83MOL0     C11117   5.386   2.233   8.591  0.4511 -0.0596  0.1071
   83MOL0     O11118   5.471   2.535   8.756  0.8351 -0.2788  0.9197
   83MOL0     C11119   5.798   2.532   8.627  0.0275 -2.1531  0.3793
   83MOL0     C11120   5.921   2.596   8.628 -0.6025  0.3074  0.1363
   83MOL0     N11121   6.284   2.554   9.141  0.3318  0.0033  0.2661
   83MOL0     N11122   6.225   2.436   9.166  0.2376  0.2951 -1.1471
   83MOL0     C11123   6.557   2.253   9.680  1.0971 -0.3355  0.4489
   83MOL0     C11124   6.689   2.310   9.673  0.5125  0.4006  0.2089
   83MOL0     C11125   7.101   2.472   9.755  0.0224  0.8424 -0.2489
   83MOL0     C11126   7.199   2.366   9.753  0.2355 -0.7409  0.2553
   83MOL0     C11127   7.337   2.402   9.751 -1.0768  0.4424 -0.0529
   83MOL0     C11128   7.387   2.530   9.759 -0.3840 -0.2700  0.6623
   83MOL0     O11129   7.518   2.557   9.777  0.1255  0.4522 -0.4012
   83MOL0     C11130   7.560   2.690   9.808 -0.2684 -0.0937 -0.0458
   83MOL0     C11131   7.707   2.685   9.817 -0.9123  0.1761  0.7508
   83MOL0     C11132   7.748   2.821   9.875  0.0310  0.1256  0.6144
   83MOL0     C11133   7.906   2.857   9.884  0.6981  0.1651 -0.7244
   83MOL0     C11134   7.968   2.755   9.975  0.0657  0.3504 -0.1962
   83MOL0     C11135   8.038   2.681  10.042  1.0925 -0.2055  0.1913
   83MOL0     C11136   7.292   2.625   9.748  0.4719  0.5132  0.5524
   83MOL0     C11137   7.152   2.602   9.750 -0.0329  0.1962 -0.2146
   83MOL0     H11138   6.832   2.120   9.916 -1.3762  0.4489  3.4712
   83MOL0     H11139   6.603   2.014   9.910 -1.3992 -0.7903 -1.0937
   83MOL0     H11140   6.249   2.195   9.720 -1.6274 -0.8765 -1.3207
   83MOL0     H11141   6.344   2.138   9.582 -1.5000 -0.8046 -0.8514
   83MOL0     H11142   6.269   1.898   9.664 -0.3834  0.2300 -0.4350
   83MOL0     H11143   6.174   1.966   9.792 -2.2769 -2.0038 -1.2403
   83MOL0     H11144   6.035   1.911   9.579 -1.3175  1.7656 -0.3751
   83MOL0     H11145   6.002   2.072   9.640 -2.5225 -0.6414 -1.7346
   83MOL0     H11146   6.152   2.178   9.480  0.5279  0.1176 -1.1251
   83MOL0     H11147   6.211   2.009   9.433  2.0942  0.0591  4.1406
   83MOL0     H11148   6.005   1.968   9.315 -0.3820 -1.4293  1.1045
   83MOL0     H11149   5.926   2.094   9.415  1.0789  1.5990  0.4225
   83MOL0     H11150   5.942   2.176   9.188  2.6935 -2.6661 -2.8176
   83MOL0     H11151   6.057   2.280   9.287 -1.2604  0.7322 -0.8755
   83MOL0     H11152   6.231   2.114   9.234 -0.5062  0.0207  0.0189
   83MOL0     H11153   6.135   2.028   9.124 -0.3120 -0.8811  1.7176
   83MOL0     H11154   6.108   2.224   8.972  1.2392  0.8889 -0.0770
   83MOL0     H11155   6.265   2.149   8.991 -1.3071  0.5931 -1.2789
   83MOL0     H11156   6.375   2.362   8.885  0.2160 -0.9172  1.6818
   83MOL0     H11157   6.477   2.689   8.989  0.6722  0.5826 -0.2041
   83MOL0     H11158   6.481   2.567   8.861  0.1695  0.7989 -0.3243
   83MOL0     H11159   6.375   2.800   8.809  0.2296  1.0279  4.3854
   83MOL0     H11160   6.233   2.750   8.901 -0.3505 -0.1202 -0.4471
   83MOL0     H11161   6.195   2.552   8.767  0.8413 -0.3053  3.5213
   83MOL0     H11162   6.335   2.588   8.661  1.1472  1.5001  1.0981
   83MOL0     H11163   6.150   2.692   8.522 -0.0209  1.2194 -0.2521
   83MOL0     H11164   6.246   2.809   8.601  1.9130 -1.5733  1.3044
   83MOL0     H11165   5.881   2.834   8.846  0.9806 -2.0625  2.4827
   83MOL0     H11166   5.656   2.840   8.929 -0.2447  0.9009 -0.1439
   83MOL0     H11167   5.528   2.802   8.806 -1.4459  0.7059  2.2289
   83MOL0     H11168   5.571   2.680   8.923 -0.8476 -1.1799 -3.2052
   83MOL0     H11169   5.333   2.558   8.503  2.8482 -0.3131 -0.7003
   83MOL0     H11170   5.108   2.468   8.465  0.6461 -1.2957 -2.8686
   83MOL0     H11171   4.833   2.260   8.555  0.6187  0.3682  0.0497
   83MOL0     H11172   4.923   2.406   8.528 -2.3421 -0.6903  3.6732
   83MOL0     H11173   4.793   2.332   8.323 -1.0287 -1.7432 -2.3977
   83MOL0     H11174   4.962   2.352   8.280 -1.9502  1.5295 -0.4356
   83MOL0     H11175   4.852   2.086   8.380  0.3720  0.5716  1.7101
   83MOL0     H11176   4.989   2.104   8.275 -0.3572  0.6196 -3.7543
   83MOL0     H11177   4.739   2.220   8.161  0.9992  2.3137  0.9826
   83MOL0     H11178   4.892   2.181   8.089  1.4800  0.1811  1.9797
   83MOL0     H11179   4.685   1.970   8.188  0.0702  0.6891  0.7850
   83MOL0     H11180   4.821   1.937   8.078 -2.1245 -0.7935 -0.8162
   83MOL0     H11181   4.576   2.126   7.999 -0.0881  0.5944  0.6151
   83MOL0     H11182   4.706   2.067   7.902  2.1226 -1.1385  2.2292
   83MOL0     H11183   4.497   1.932   7.876 -2.0126  1.3650  1.2420
   83MOL0     H11184   4.497   1.897   8.046  1.4048  0.3299 -0.5993
   83MOL0     H11185   4.693   1.746   8.016  0.4136 -2.4337 -1.2750
   83MOL0     H11186   4.737   1.822   7.860 -1.1606  1.4560 -1.7552
   83MOL0     H11187   5.218   2.085   8.621 -0.9638 -0.0165 -1.4840
   83MOL0     H11188   5.470   2.166   8.607  0.2143  0.0307  1.9943
   83MOL0     H11189   5.797   2.432   8.586  0.5352 -1.7746 -0.5639
   83MOL0     H11190   6.004   2.548   8.577  1.0135 -1.3039  3.9276
   83MOL0     H11191   6.486   2.295   9.609  1.8602  0.8121  0.3390
   83MOL0     H11192   6.709   2.396   9.609 -0.2046 -0.3941 -1.1049
   83MOL0     H11193   7.165   2.262   9.752 -1.1164 -0.3224 -1.4025
   83MOL0     H11194   7.416   2.328   9.749 -0.3190  1.2436 -1.6886
   83MOL0     H11195   7.535   2.752   9.721  0.7747 -1.4320 -1.3680
   83MOL0     H11196   7.499   2.719   9.893 -1.1342 -1.0315 -0.3258
   83MOL0     H11197   7.750   2.668   9.717 -0.7716  0.4955  0.7562
   83MOL0     H11198   7.737   2.603   9.883  0.1669  1.7373  2.2597
   83MOL0     H11199   7.719   2.839   9.978  1.3021  3.4606  0.5217
   83MOL0     H11200   7.694   2.902   9.826 -3.1830 -2.2022 -0.0339
   83MOL0     H11201   7.924   2.957   9.924  4.0149 -1.1199  1.3818
   83MOL0     H11202   7.945   2.838   9.783 -0.6700 -0.3584 -1.1840
   83MOL0     H11203   8.090   2.605  10.097  0.0730 -1.1626 -0.1105
   83MOL0     H11204   7.317   2.730   9.755 -4.4115  1.8287  3.4270
   83MOL0     H11205   7.078   2.682   9.756  1.0014  1.0826  1.2969
   84MOL0     O11206   4.542   2.019   9.477  0.0357  0.3664  0.1690
   84MOL0     C11207   4.602   1.917   9.434  0.9462  0.8378  0.2858
   84MOL0     O11208   4.541   1.794   9.401 -0.6273  0.3982 -0.5275
   84MOL0     C11209   4.406   1.770   9.388 -0.1412  0.4692  0.7167
   84MOL0     C11210   4.306   1.837   9.447 -0.0650 -0.3025  0.5154
   84MOL0     C11211   4.175   1.805   9.425 -0.6419 -0.7171  0.6146
   84MOL0     C11212   4.141   1.693   9.342  0.1748 -0.2101  0.1751
   84MOL0     O11213   4.013   1.657   9.310  0.2559  0.1902  0.4410
   84MOL0     C11214   3.934   1.630   9.422 -0.2563  0.4696 -0.4467
   84MOL0     C11215   3.869   1.497   9.391  0.5118 -0.1651 -0.0114
   84MOL0     C11216   3.769   1.456   9.495 -0.5364  0.5459 -0.3666
   84MOL0     C11217   3.637   1.521   9.471 -0.5402  1.1955 -0.1284
   84MOL0     C11218   3.520   1.472   9.572 -0.1636  0.5447 -0.2406
   84MOL0     C11219   3.392   1.548   9.544 -0.9080 -0.2377 -0.1031
   84MOL0     C11220   3.287   1.520   9.647  0.2824  0.6846 -0.8590
   84MOL0     C11221   3.158   1.610   9.651 -0.3010  0.3990  0.7288
   84MOL0     N11222   3.072   1.564   9.758 -0.2580 -0.2230  0.3553
   84MOL0     C11223   2.994   1.453   9.753 -0.3327 -0.2971  0.0909
   84MOL0     C11224   2.923   1.462   9.859  0.0133  0.1710 -0.3824
   84MOL0     C11225   2.820   1.356   9.911  0.1406 -0.7932 -0.3972
   84MOL0     C11226   2.675   1.386   9.862 -1.1413  0.0070  0.6879
   84MOL0     C11227   2.635   1.534   9.913 -0.7032 -0.0141  0.4842
   84MOL0     C11228   2.501   1.569   9.870 -0.1888  0.0503  0.2948
   84MOL0     O11229   2.404   1.469   9.928  0.2194 -0.1835 -0.0304
   84MOL0     C11230   2.350   1.500  10.052 -0.1436  0.0905  0.0516
   84MOL0     C11231   2.263   1.408  10.097 -0.7945 -0.3538  0.2456
   84MOL0     C11232   2.197   1.421  10.218 -0.6807  0.2138 -0.0007
   84MOL0     C11233   2.103   1.314  10.270 -0.0287 -0.6730  0.8654
   84MOL0     C11234   2.232   1.531  10.310 -0.5216 -0.0556 -0.0825
   84MOL0     C11235   2.173   1.553  10.448 -0.4007 -0.9853  0.2225
   84MOL0     O11236   2.210   1.673  10.492 -0.5776 -0.2380 -0.3276
   84MOL0     C11237   2.163   1.713  10.614  0.6372 -0.0017  0.0466
   84MOL0     C11238   2.023   1.729  10.636  0.6778  1.0370  1.2466
   84MOL0     C11239   1.984   1.772  10.764 -0.2356  0.4756 -0.0299
   84MOL0     C11240   2.073   1.816  10.856 -0.4445  0.8927 -0.0536
   84MOL0     O11241   2.018   1.854  10.972 -0.5936 -0.7003 -0.4157
   84MOL0     C11242   2.095   1.912  11.079 -0.4203 -0.2656 -0.5041
   84MOL0     C11243   2.012   1.962  11.199  0.4104  0.5296  0.4580
   84MOL0     C11244   1.939   1.863  11.295 -0.9061  0.4054  0.1159
   84MOL0     C11245   1.821   1.926  11.379  0.0060  0.6759  0.0862
   84MOL0     C11246   1.686   1.922  11.292 -0.1380  0.4834 -0.0074
   84MOL0     C11247   1.581   1.963  11.373 -0.5313 -0.0241  0.0233
   84MOL0     C11248   1.449   1.935  11.299 -0.4500  0.8518 -0.2880
   84MOL0     C11249   1.321   1.941  11.391  0.1785 -0.5063  0.0059
   84MOL0    Cl11250   1.333   1.817  11.524  0.0544 -0.5275  0.6388
   84MOL0     C11251   2.207   1.789  10.827 -0.6443  0.7099 -0.5824
   84MOL0     C11252   2.255   1.745  10.711 -0.4903  0.0917  0.3569
   84MOL0     O11253   2.115   1.467  10.510 -0.2652  0.3865 -0.3492
   84MOL0     C11254   2.325   1.629  10.262 -0.8124  0.3754  0.2423
   84MOL0     C11255   2.374   1.615  10.132  0.3256 -0.5119  1.4717
   84MOL0     N11256   2.962   1.583   9.933 -0.3864 -0.0586  0.4486
   84MOL0     N11257   3.059   1.637   9.870 -0.7525 -0.5045 -0.3924
   84MOL0     C11258   4.241   1.621   9.276  1.1104 -0.7464 -0.2717
   84MOL0     C11259   4.372   1.665   9.287 -0.0924  0.8064 -1.0788
   84MOL0     C11260   4.751   1.930   9.430  0.1563  0.4331  0.4734
   84MOL0     C11261   4.824   1.815   9.408  0.6487  0.9399  0.3879
   84MOL0     C11262   4.961   1.813   9.385 -0.4237 -0.5680 -0.7466
   84MOL0     C11263   5.027   1.928   9.414 -0.6155 -0.6124  0.5865
   84MOL0     O11264   5.166   1.920   9.403 -0.1397 -1.1107  0.4276
   84MOL0     C11265   5.237   2.042   9.404  0.1820 -1.3152  0.2258
   84MOL0     C11266   5.375   2.006   9.363  0.0710 -1.0989 -0.1519
   84MOL0     C11267   5.460   2.133   9.391  1.0762  0.0852 -0.2145
   84MOL0     C11268   5.609   2.105   9.410 -0.6807  0.3829 -0.5634
   84MOL0     C11269   5.624   2.033   9.537  0.1583 -0.5389 -0.0612
   84MOL0     C11270   5.644   1.972   9.640  0.2530 -0.4457 -0.6408
   84MOL0     C11271   4.960   2.039   9.452  0.7812 -0.6027  0.5279
   84MOL0     C11272   4.819   2.043   9.466 -0.2404 -0.0639  0.0743
   84MOL0     H11273   4.331   1.922   9.510  1.4874  0.8441 -1.5069
   84MOL0     H11274   4.103   1.864   9.481 -1.5492 -2.3480  1.2287
   84MOL0     H11275   3.986   1.629   9.518  1.1641  3.5425 -1.0500
   84MOL0     H11276   3.864   1.713   9.432 -0.5649  0.0477  1.2708
   84MOL0     H11277   3.802   1.502   9.306  0.9759  0.1326 -0.3636
   84MOL0     H11278   3.943   1.418   9.371 -2.5441 -2.8594 -1.5980
   84MOL0     H11279   3.761   1.347   9.494 -2.4968  0.6364 -2.4046
   84MOL0     H11280   3.806   1.482   9.595  2.5822 -3.4329 -0.2361
   84MOL0     H11281   3.661   1.628   9.471  3.5477  0.4089  0.2494
   84MOL0     H11282   3.600   1.497   9.371 -1.8276  1.7732  0.1771
   84MOL0     H11283   3.502   1.364   9.566 -1.3924  0.5564  2.2021
   84MOL0     H11284   3.553   1.490   9.674  0.9388  0.1434 -0.5139
   84MOL0     H11285   3.418   1.654   9.540  0.6415 -0.6004 -0.3924
   84MOL0     H11286   3.362   1.507   9.447 -1.1620 -4.1547  1.4618
   84MOL0     H11287   3.258   1.415   9.650  1.6660  0.2918 -0.5221
   84MOL0     H11288   3.339   1.530   9.743 -0.3617 -1.9164 -0.1585
   84MOL0     H11289   3.106   1.606   9.555  0.2456  0.9931  0.3922
   84MOL0     H11290   3.188   1.715   9.662  0.3535  0.2265  0.6257
   84MOL0     H11291   2.986   1.373   9.680 -2.8088  0.6684 -0.7975
   84MOL0     H11292   2.859   1.260   9.874  3.1799  0.0370  0.3348
   84MOL0     H11293   2.813   1.354  10.020  2.5730  1.2121 -0.1077
   84MOL0     H11294   2.617   1.310   9.915 -0.9676 -0.4820  0.1853
   84MOL0     H11295   2.670   1.384   9.753  0.0356  0.3156  0.6147
   84MOL0     H11296   2.712   1.603   9.879  0.4081 -1.4994 -0.0865
   84MOL0     H11297   2.643   1.534  10.023 -0.0773 -1.0913  0.4557
   84MOL0     H11298   2.503   1.568   9.761 -0.1013 -1.2596  0.2888
   84MOL0     H11299   2.482   1.670   9.906 -0.5431 -0.3309  1.2191
   84MOL0     H11300   2.241   1.313  10.050 -3.9437  0.4855 -0.1944
   84MOL0     H11301   2.148   1.263  10.356  0.1743  0.9103  1.7346
   84MOL0     H11302   2.013   1.369  10.298  1.1778 -0.1539  4.1654
   84MOL0     H11303   2.081   1.243  10.190  1.2654 -1.2334  0.9749
   84MOL0     H11304   1.955   1.708  10.554 -0.8647  0.4827  2.6140
   84MOL0     H11305   1.882   1.792  10.792  0.9266  2.1489  3.6833
   84MOL0     H11306   2.166   1.836  11.112  1.4711  0.9405 -1.6748
   84MOL0     H11307   2.159   1.995  11.049 -1.0454  0.9998  1.4278
   84MOL0     H11308   2.091   2.011  11.257  2.7624 -1.7866 -0.5578
   84MOL0     H11309   1.932   2.027  11.161  0.4208 -0.5168 -1.4843
   84MOL0     H11310   2.017   1.826  11.362 -1.4564  1.0426  1.1224
   84MOL0     H11311   1.910   1.774  11.239  0.2863 -0.9763  1.6125
   84MOL0     H11312   1.793   1.866  11.466  4.1332  1.2614  2.0471
   84MOL0     H11313   1.841   2.026  11.418 -1.0742  0.1676  2.0824
   84MOL0     H11314   1.671   1.822  11.251  2.0936  0.7534 -1.6921
   84MOL0     H11315   1.688   1.999  11.214  1.3052  1.3441  0.8207
   84MOL0     H11316   1.581   1.901  11.463 -0.8810 -1.2907 -0.8138
   84MOL0     H11317   1.587   2.069  11.399  1.1530  0.0686 -0.5929
   84MOL0     H11318   1.448   1.838  11.247 -0.2000  0.8894 -0.3651
   84MOL0     H11319   1.447   2.008  11.217  2.3542  1.2991 -0.0633
   84MOL0     H11320   1.237   1.905  11.330  0.6611 -2.8715  0.6357
   84MOL0     H11321   1.302   2.034  11.446 -0.0168 -1.3890  1.5077
   84MOL0     H11322   2.284   1.823  10.896 -2.2198 -1.8602  2.7588
   84MOL0     H11323   2.358   1.734  10.677 -0.5557  1.1477 -0.2303
   84MOL0     H11324   2.341   1.721  10.316 -0.1596  0.9550 -0.8956
   84MOL0     H11325   2.422   1.700  10.085 -0.2418 -1.4891 -1.0011
   84MOL0     H11326   4.221   1.540   9.207  2.9966  0.8011 -2.8036
   84MOL0     H11327   4.453   1.613   9.239  0.7535  0.0751  1.0189
   84MOL0     H11328   4.776   1.718   9.405  0.5363  0.9011  2.1981
   84MOL0     H11329   5.008   1.722   9.348  1.3905  0.8379 -2.0993
   84MOL0     H11330   5.188   2.105   9.329 -0.3766 -0.8555  0.9694
   84MOL0     H11331   5.227   2.097   9.498  1.2862 -1.7193  0.5884
   84MOL0     H11332   5.376   1.991   9.254 -0.1846 -0.8518 -0.1921
   84MOL0     H11333   5.413   1.924   9.424 -1.2125 -1.2615  0.4621
   84MOL0     H11334   5.418   2.185   9.477  1.3113 -1.1336  0.6535
   84MOL0     H11335   5.459   2.190   9.297  2.6460  1.4761  0.5597
   84MOL0     H11336   5.665   2.198   9.424 -2.5312  1.1313  3.3826
   84MOL0     H11337   5.651   2.042   9.331  0.7143  0.7043 -0.0968
   84MOL0     H11338   5.672   1.914   9.725  0.6407  0.0209 -0.4456
   84MOL0     H11339   5.005   2.134   9.477  1.6527 -0.8259 -0.1484
   84MOL0     H11340   4.763   2.133   9.490  1.2873  1.2363 -1.0246
   85MOL0     O11341   2.179   2.831   0.838  0.5135  0.0695 -0.5119
   85MOL0     C11342   2.184   2.759   0.943  0.6193  1.2273  0.2127
   85MOL0     O11343   2.085   2.758   1.039  0.4055  0.1582  0.6616
   85MOL0     C11344   1.977   2.838   1.022 -0.7606  1.3031  0.3458
   85MOL0     C11345   1.849   2.788   1.018  0.7637  0.8931 -0.2959
   85MOL0     C11346   1.743   2.881   1.014 -0.4505  0.1754 -0.9288
   85MOL0     C11347   1.762   3.022   1.020  0.1369  0.6239  0.0770
   85MOL0     O11348   1.648   3.107   1.025 -0.3905  0.4698 -0.0152
   85MOL0     C11349   1.655   3.227   1.085 -0.3889  0.7516  0.1413
   85MOL0     C11350   1.676   3.323   0.975 -0.9148  0.2109 -0.6998
   85MOL0     C11351   1.705   3.472   1.001 -0.3152  0.9522 -0.2757
   85MOL0     C11352   1.698   3.553   0.872  0.2905  0.3788 -0.2486
   85MOL0     C11353   1.740   3.706   0.882 -0.1628 -0.2149  0.3085
   85MOL0     C11354   1.648   3.782   0.975 -0.6370 -0.4293 -0.7731
   85MOL0     C11355   1.504   3.790   0.929  0.3113  0.4312  0.0265
   85MOL0     C11356   1.440   3.919   0.986  0.2305 -0.1239  1.3645
   85MOL0     N11357   1.295   3.906   0.972 -0.0119 -0.3200  0.1097
   85MOL0     C11358   1.234   3.936   0.853  0.3853  0.3346 -0.3746
   85MOL0     C11359   1.112   3.877   0.847 -0.3365  0.1989  0.1605
   85MOL0     C11360   1.017   3.867   0.735  0.4175 -0.1784  0.6153
   85MOL0     C11361   0.969   3.727   0.711  0.6505  0.0871 -0.9763
   85MOL0     C11362   0.887   3.710   0.582 -0.0254 -0.6041 -0.5222
   85MOL0     C11363   0.737   3.753   0.597  0.3830  0.5633  0.0697
   85MOL0     O11364   0.670   3.737   0.477 -0.3669 -0.3460  0.4142
   85MOL0     C11365   0.535   3.714   0.477  0.0788 -0.7464 -0.8034
   85MOL0     C11366   0.468   3.668   0.358  0.2215 -1.1586 -0.4153
   85MOL0     C11367   0.325   3.649   0.349 -0.2405  0.9728  0.0244
   85MOL0     C11368   0.275   3.588   0.221 -1.0537 -0.1616  0.1852
   85MOL0     C11369   0.245   3.694   0.462 -0.3789  0.5247  0.1035
   85MOL0     C11370   0.097   3.699   0.462 -0.1027 -0.0228 -0.3633
   85MOL0     O11371   0.045   3.719   0.582 -0.4297  0.2261  0.0488
   85MOL0     C11372  -0.083   3.755   0.589 -0.2486 -0.3084  0.1376
   85MOL0     C11373  -0.111   3.890   0.585  0.3617 -0.2876  0.0297
   85MOL0     C11374  -0.248   3.935   0.598 -0.5934  0.0664 -0.3552
   85MOL0     C11375  -0.347   3.838   0.624  1.0982 -1.2173  0.1535
   85MOL0     O11376  -0.483   3.869   0.641  0.6460  0.0883  0.2708
   85MOL0     C11377  -0.554   3.849   0.514  0.5507  0.2499  0.7994
   85MOL0     C11378  -0.671   3.944   0.511 -1.4820 -0.7400 -0.5935
   85MOL0     C11379  -0.787   3.904   0.608  0.2392 -0.7204 -0.6960
   85MOL0     C11380  -0.870   4.024   0.640 -0.6824  0.0345 -0.2774
   85MOL0     C11381  -1.004   3.997   0.718  0.6410  0.0011 -0.8954
   85MOL0     C11382  -0.997   3.944   0.872  0.4846 -0.1395  0.9373
   85MOL0     C11383  -0.928   4.046   0.959 -0.0132 -0.3159 -0.4361
   85MOL0     C11384  -1.001   4.073   1.094 -0.6096  0.1089 -0.0074
   85MOL0    Cl11385  -1.156   4.146   1.068  0.4899 -0.0847  0.0833
   85MOL0     C11386  -0.312   3.705   0.625  0.8088  0.2742 -0.3669
   85MOL0     C11387  -0.181   3.660   0.602  0.6426 -0.6431  0.1966
   85MOL0     O11388   0.029   3.672   0.365 -0.5972  0.5171  0.2584
   85MOL0     C11389   0.310   3.741   0.577 -0.1724 -0.9486 -0.9153
   85MOL0     C11390   0.450   3.741   0.586 -0.2788  0.5993  0.2495
   85MOL0     N11391   1.104   3.818   0.978 -0.1581 -0.3227  0.0246
   85MOL0     N11392   1.208   3.839   1.051 -0.0024 -0.0430  0.2628
   85MOL0     C11393   1.894   3.063   1.034 -0.2425 -0.9392 -0.3099
   85MOL0     C11394   2.008   2.975   1.027  0.5749 -0.5182  0.2822
   85MOL0     C11395   2.312   2.688   0.966  0.9460  0.1598 -0.3828
   85MOL0     C11396   2.325   2.605   1.079 -0.0121 -0.2139 -0.0614
   85MOL0     C11397   2.443   2.535   1.100 -0.2484 -0.2354  0.3212
   85MOL0     C11398   2.550   2.541   1.009  0.3218 -0.1261 -0.3480
   85MOL0     O11399   2.659   2.458   1.030  0.7009 -0.1971 -0.2990
   85MOL0     C11400   2.772   2.463   0.929  0.5199  0.1065  0.2985
   85MOL0     C11401   2.872   2.364   0.986  0.4106  0.6281  0.2660
   85MOL0     C11402   2.982   2.308   0.885  0.3405 -0.5026  0.1979
   85MOL0     C11403   3.094   2.418   0.859  0.8789 -0.0564  0.0826
   85MOL0     C11404   3.043   2.519   0.761 -0.4147  0.1615  0.3684
   85MOL0     C11405   3.012   2.589   0.666  0.5900 -0.0624 -0.7633
   85MOL0     C11406   2.548   2.632   0.899  0.1231 -0.5748 -0.6937
   85MOL0     C11407   2.426   2.705   0.890 -0.5652 -1.0323  1.1446
   85MOL0     H11408   1.839   2.680   1.025  1.9047  0.8317  0.6538
   85MOL0     H11409   1.641   2.853   0.991 -0.5596 -2.3601  1.9784
   85MOL0     H11410   1.563   3.238   1.144  0.2809 -0.3428  1.4547
   85MOL0     H11411   1.734   3.235   1.161  1.1672 -0.6700 -1.2472
   85MOL0     H11412   1.757   3.287   0.911 -1.3566 -0.9303 -0.6370
   85MOL0     H11413   1.587   3.321   0.912 -0.9557 -0.4342 -0.6331
   85MOL0     H11414   1.632   3.509   1.073 -2.6875 -2.7247 -0.5306
   85MOL0     H11415   1.801   3.476   1.054 -1.1688  0.4349  1.4052
   85MOL0     H11416   1.764   3.506   0.799  1.5598  1.6267  0.0426
   85MOL0     H11417   1.595   3.532   0.841  0.7736 -2.7878 -0.0182
   85MOL0     H11418   1.843   3.720   0.915  0.5463  3.2934 -2.7131
   85MOL0     H11419   1.730   3.743   0.779  1.1063  1.8247  0.8608
   85MOL0     H11420   1.643   3.741   1.076  0.7804 -1.1436 -0.9745
   85MOL0     H11421   1.681   3.887   0.975 -1.4104 -0.1449 -2.4614
   85MOL0     H11422   1.495   3.800   0.820 -1.1490  1.7164  0.2139
   85MOL0     H11423   1.448   3.701   0.957  1.0165 -0.4251 -1.2116
   85MOL0     H11424   1.479   3.999   0.922 -0.1049 -0.9281  0.1184
   85MOL0     H11425   1.474   3.931   1.089  3.9586  2.4053  0.0742
   85MOL0     H11426   1.272   3.998   0.771 -0.9322  0.7906 -0.6625
   85MOL0     H11427   0.929   3.931   0.743  0.7705  1.2175 -3.9317
   85MOL0     H11428   1.065   3.917   0.650 -0.3047  3.2902  2.0609
   85MOL0     H11429   0.906   3.702   0.797  4.0501  0.1715  1.7631
   85MOL0     H11430   1.048   3.651   0.705  0.3260 -1.0122  4.0292
   85MOL0     H11431   0.896   3.604   0.556  1.4230 -1.0316  1.4512
   85MOL0     H11432   0.931   3.769   0.501 -1.8182  2.0278  0.2751
   85MOL0     H11433   0.750   3.861   0.609  5.1104  0.0164  2.5437
   85MOL0     H11434   0.695   3.699   0.682 -1.9178 -0.1718 -1.4397
   85MOL0     H11435   0.544   3.647   0.283  1.3808 -0.5339  0.5504
   85MOL0     H11436   0.363   3.532   0.187  0.7279 -0.2901  4.3900
   85MOL0     H11437   0.192   3.520   0.242 -0.4436 -0.1224  3.1311
   85MOL0     H11438   0.243   3.669   0.155 -3.4732  0.1274  1.5869
   85MOL0     H11439  -0.028   3.956   0.560  1.2988 -2.2205 -2.3569
   85MOL0     H11440  -0.280   4.039   0.593 -0.3049  0.1068 -1.7752
   85MOL0     H11441  -0.495   3.855   0.421 -1.3361 -0.7875 -0.5226
   85MOL0     H11442  -0.586   3.745   0.507  0.5626  0.2659  0.4945
   85MOL0     H11443  -0.635   4.044   0.538 -1.6534 -0.8872  0.2022
   85MOL0     H11444  -0.709   3.931   0.409  1.6814 -1.3603 -1.8313
   85MOL0     H11445  -0.760   3.860   0.705 -1.1998  0.3726  0.2533
   85MOL0     H11446  -0.854   3.830   0.563 -0.5962 -1.0933  1.0696
   85MOL0     H11447  -0.808   4.094   0.698 -0.1968 -0.7569  0.1673
   85MOL0     H11448  -0.905   4.075   0.550 -1.3564 -0.2484 -0.1767
   85MOL0     H11449  -1.065   3.924   0.663 -0.8020 -0.1123  0.7667
   85MOL0     H11450  -1.060   4.091   0.722  2.5188  1.1170  1.4445
   85MOL0     H11451  -1.101   3.932   0.905  0.0849  1.0260  0.1583
   85MOL0     H11452  -0.940   3.851   0.877  3.4083  1.4243 -0.7484
   85MOL0     H11453  -0.948   4.142   0.910  0.4721  1.1428  2.0906
   85MOL0     H11454  -0.821   4.033   0.975 -0.4975 -1.4293  2.3619
   85MOL0     H11455  -0.941   4.148   1.147  0.6324 -0.6698 -0.2581
   85MOL0     H11456  -0.997   3.978   1.149  0.4704 -0.7678 -1.5130
   85MOL0     H11457  -0.388   3.633   0.655  1.3375 -0.1463 -0.0038
   85MOL0     H11458  -0.162   3.553   0.603  1.3920 -0.5489 -1.3728
   85MOL0     H11459   0.258   3.782   0.663  2.0795 -1.3199  0.7354
   85MOL0     H11460   0.493   3.787   0.674  0.2253  2.3363 -0.8414
   85MOL0     H11461   1.915   3.168   1.049  0.5203 -1.4485  2.9618
   85MOL0     H11462   2.110   3.005   1.045  0.6416 -1.8307  2.3318
   85MOL0     H11463   2.244   2.593   1.150 -1.5699  1.3484 -1.5200
   85MOL0     H11464   2.449   2.453   1.172 -3.0332 -2.2033 -1.5019
   85MOL0     H11465   2.728   2.430   0.834  1.6658 -3.0709  0.7366
   85MOL0     H11466   2.811   2.564   0.913  1.5464 -0.6105 -2.1819
   85MOL0     H11467   2.829   2.271   1.023  2.2766 -1.0852 -1.5995
   85MOL0     H11468   2.910   2.412   1.076 -1.3083 -0.1722  1.4560
   85MOL0     H11469   2.928   2.279   0.794 -1.2567  2.3340  0.1168
   85MOL0     H11470   3.025   2.219   0.932 -2.2575 -0.5442  2.7619
   85MOL0     H11471   3.173   2.362   0.807 -0.8351 -1.2919 -1.3052
   85MOL0     H11472   3.135   2.457   0.953  4.4729 -1.7251 -0.5909
   85MOL0     H11473   2.986   2.648   0.581  1.5469  2.1830  0.4117
   85MOL0     H11474   2.627   2.631   0.825 -0.3444 -3.7379 -1.2955
   85MOL0     H11475   2.416   2.775   0.808 -2.3662 -4.1832 -1.5873
   86MOL0     O11476   9.523   9.719   8.622 -0.5685  0.1766 -0.6728
   86MOL0     C11477   9.631   9.659   8.631  0.8528 -0.4260 -0.0714
   86MOL0     O11478   9.657   9.537   8.573 -0.0324 -0.3529  0.3044
   86MOL0     C11479   9.557   9.461   8.524 -1.1494  0.1588  0.2358
   86MOL0     C11480   9.569   9.400   8.397 -0.2096  0.7603 -0.1505
   86MOL0     C11481   9.477   9.302   8.353  0.0395  0.1712  0.0221
   86MOL0     C11482   9.370   9.266   8.433  0.7626  0.3670 -0.5613
   86MOL0     O11483   9.288   9.168   8.387  0.3922 -0.2348  0.0127
   86MOL0     C11484   9.156   9.141   8.447 -0.5615  0.3018  0.2221
   86MOL0     C11485   9.063   9.066   8.346 -1.2960  0.6172  0.3501
   86MOL0     C11486   8.934   9.038   8.416  0.2016 -0.1537 -0.2189
   86MOL0     C11487   8.819   9.014   8.325  0.4761  0.5291 -0.1999
   86MOL0     C11488   8.695   8.959   8.415 -0.5898  0.5654 -0.0530
   86MOL0     C11489   8.569   9.025   8.368 -0.7330  0.2690 -0.7480
   86MOL0     C11490   8.489   8.937   8.275 -0.4315 -0.0172 -0.1923
   86MOL0     C11491   8.561   8.940   8.131 -0.1277  1.1907  0.1133
   86MOL0     N11492   8.474   8.916   8.020  0.4203  0.0734 -0.1312
   86MOL0     C11493   8.358   8.985   7.996 -0.2178  0.2078  0.2959
   86MOL0     C11494   8.286   8.900   7.915 -0.3224 -0.1579  1.3693
   86MOL0     C11495   8.153   8.940   7.862  0.0724 -0.2018 -0.2409
   86MOL0     C11496   8.146   9.087   7.820  0.5162 -0.0886 -0.2054
   86MOL0     C11497   8.016   9.131   7.751  0.3199 -1.1026 -0.3582
   86MOL0     C11498   7.902   9.175   7.836  1.5260 -0.5978  0.5746
   86MOL0     O11499   7.877   9.070   7.923 -0.1325  0.3628 -0.0408
   86MOL0     C11500   7.759   9.059   7.982 -0.1685  0.8565 -0.7707
   86MOL0     C11501   7.727   8.927   8.031  0.4466  0.6149 -0.2398
   86MOL0     C11502   7.603   8.897   8.087 -0.7023 -0.3161 -0.4773
   86MOL0     C11503   7.571   8.754   8.129  0.7241 -0.6127 -0.2378
   86MOL0     C11504   7.504   8.994   8.091  0.0879 -0.7106  0.5283
   86MOL0     C11505   7.366   8.974   8.147 -0.3035 -0.1112  0.1428
   86MOL0     O11506   7.275   9.056   8.075  0.2328  0.4856 -0.2293
   86MOL0     C11507   7.140   9.053   8.107 -0.2164 -0.1559 -0.3753
   86MOL0     C11508   7.040   9.043   8.011  0.2239 -0.8236 -0.9262
   86MOL0     C11509   6.902   9.056   8.049  0.0964 -0.2579  0.3185
   86MOL0     C11510   6.862   9.071   8.179 -1.3546  0.4664  0.1991
   86MOL0     O11511   6.736   9.067   8.226  0.3958  0.7782  0.3049
   86MOL0     C11512   6.628   9.024   8.141  0.3920  0.3238  0.6800
   86MOL0     C11513   6.510   8.983   8.236 -0.3151  0.0454 -0.2644
   86MOL0     C11514   6.548   8.859   8.329 -0.5742  0.2354  0.0968
   86MOL0     C11515   6.477   8.844   8.456 -0.1076  0.1993 -0.8644
   86MOL0     C11516   6.325   8.848   8.460 -0.1493  0.2796  0.2332
   86MOL0     C11517   6.254   8.718   8.419  0.2665  0.7654  0.0072
   86MOL0     C11518   6.094   8.743   8.430 -0.7892  0.0190 -0.3009
   86MOL0     C11519   6.012   8.610   8.444 -0.1790  0.1215 -0.4264
   86MOL0    Cl11520   6.029   8.510   8.297 -0.0096 -0.0340  0.1852
   86MOL0     C11521   6.962   9.079   8.277 -0.3134 -0.2759  1.1808
   86MOL0     C11522   7.096   9.075   8.241 -0.6072 -0.0514  0.3046
   86MOL0     O11523   7.332   8.887   8.228 -0.9869 -0.4234  0.0739
   86MOL0     C11524   7.536   9.125   8.046 -0.1991 -0.0732 -0.4687
   86MOL0     C11525   7.655   9.152   7.984 -0.4534  0.2228  0.2782
   86MOL0     N11526   8.358   8.787   7.897 -0.1451 -0.2567  0.0217
   86MOL0     N11527   8.462   8.787   7.970 -0.3688  0.8565 -0.2677
   86MOL0     C11528   9.353   9.346   8.551  0.4599  0.2772 -0.7424
   86MOL0     C11529   9.440   9.433   8.599 -0.1704  0.0317 -0.3213
   86MOL0     C11530   9.753   9.727   8.683  0.4598  0.7666  0.3136
   86MOL0     C11531   9.875   9.707   8.613 -0.4797 -0.0569  0.2482
   86MOL0     C11532   9.998   9.743   8.666 -0.1334 -0.5166  0.5313
   86MOL0     C11533  10.001   9.818   8.786 -0.6826  0.0854 -0.2617
   86MOL0     O11534  10.119   9.870   8.846  0.5609 -0.0408 -0.7790
   86MOL0     C11535  10.242   9.862   8.772  0.1766  0.2352  0.0741
   86MOL0     C11536  10.347   9.919   8.868  0.2062 -0.6482  0.1420
   86MOL0     C11537  10.387   9.828   8.973 -0.0309  0.4368 -0.6082
   86MOL0     C11538  10.477   9.894   9.076  0.1202 -0.1542  0.3289
   86MOL0     C11539  10.624   9.886   9.032 -0.1026 -0.2965 -0.0944
   86MOL0     C11540  10.741   9.878   8.995 -0.1731  1.4435  0.4449
   86MOL0     C11541   9.880   9.844   8.850  0.0537 -0.0482  0.7556
   86MOL0     C11542   9.760   9.800   8.799 -0.9979  0.2266 -0.3417
   86MOL0     H11543   9.653   9.424   8.334 -0.0789 -0.2578 -0.3870
   86MOL0     H11544   9.488   9.263   8.252 -1.3760 -1.0427  0.2996
   86MOL0     H11545   9.179   9.085   8.538 -0.1611  0.7583  0.4108
   86MOL0     H11546   9.109   9.237   8.470  0.5274  0.5052  1.7958
   86MOL0     H11547   9.052   9.133   8.260 -1.1377  0.2085  0.0115
   86MOL0     H11548   9.117   8.978   8.312  1.0888  2.2431 -0.3415
   86MOL0     H11549   8.940   8.956   8.489 -1.3267  0.8767  1.1033
   86MOL0     H11550   8.908   9.123   8.479 -0.7793  0.2473 -1.1398
   86MOL0     H11551   8.795   9.109   8.278  2.7162 -0.0999 -2.8583
   86MOL0     H11552   8.844   8.945   8.244  1.0040 -0.6335  0.8970
   86MOL0     H11553   8.679   8.853   8.393 -2.6539  0.8588 -0.1226
   86MOL0     H11554   8.708   8.962   8.523 -1.2358  2.4736  0.0117
   86MOL0     H11555   8.513   9.041   8.461  1.7947 -0.1418  0.9224
   86MOL0     H11556   8.594   9.127   8.337  1.9176  0.1560  0.7832
   86MOL0     H11557   8.462   8.839   8.316 -1.0862 -0.3070 -1.2660
   86MOL0     H11558   8.392   8.983   8.257 -1.9252 -2.7003  0.4295
   86MOL0     H11559   8.639   8.863   8.136  0.8280  2.1697  0.6590
   86MOL0     H11560   8.604   9.039   8.110  0.2691  2.3059  5.1211
   86MOL0     H11561   8.337   9.078   8.048 -2.2298  0.2528 -0.4953
   86MOL0     H11562   8.137   8.901   7.762 -5.5933  3.5419 -1.2412
   86MOL0     H11563   8.078   8.914   7.937  2.3698 -0.1598  2.2250
   86MOL0     H11564   8.225   9.097   7.744 -1.0607 -1.5237 -2.1367
   86MOL0     H11565   8.159   9.145   7.911 -0.8168  0.9866 -0.6737
   86MOL0     H11566   7.983   9.042   7.696  1.8431 -1.7455 -0.2665
   86MOL0     H11567   8.030   9.211   7.677  0.5261 -0.5498  0.2761
   86MOL0     H11568   7.816   9.197   7.771  2.9605  0.8774 -0.9171
   86MOL0     H11569   7.932   9.263   7.893  3.6692 -1.7271  1.3102
   86MOL0     H11570   7.799   8.847   8.014 -0.2426  0.3339 -2.1361
   86MOL0     H11571   7.633   8.683   8.073 -0.6207 -1.1001 -1.1583
   86MOL0     H11572   7.589   8.731   8.234 -1.9344 -1.5275  0.0947
   86MOL0     H11573   7.468   8.723   8.110  0.9967 -1.3254 -0.5888
   86MOL0     H11574   7.073   9.024   7.909 -1.5727 -0.8644 -1.5489
   86MOL0     H11575   6.833   9.048   7.966 -1.1760  1.7776  1.0854
   86MOL0     H11576   6.595   9.112   8.085  0.8642  0.5656  0.7718
   86MOL0     H11577   6.652   8.951   8.063 -1.5049  0.0321  0.3221
   86MOL0     H11578   6.494   9.067   8.303 -0.3253 -0.5732  0.5246
   86MOL0     H11579   6.412   8.976   8.188 -2.4001  2.7215  3.1512
   86MOL0     H11580   6.655   8.856   8.350  0.1501  1.7482 -2.7505
   86MOL0     H11581   6.529   8.770   8.268  2.1330 -1.7899  1.9675
   86MOL0     H11582   6.529   8.757   8.498 -2.6433 -1.1897 -0.3859
   86MOL0     H11583   6.518   8.927   8.514  1.4678  0.1829 -1.9004
   86MOL0     H11584   6.298   8.923   8.385 -3.2526  0.5577  1.4801
   86MOL0     H11585   6.296   8.876   8.561  2.0089 -0.5337  1.1516
   86MOL0     H11586   6.272   8.691   8.315 -1.6762  0.0136 -0.1690
   86MOL0     H11587   6.284   8.635   8.484  0.3623 -0.1903 -1.2304
   86MOL0     H11588   6.068   8.787   8.334 -0.6284 -1.2903 -0.9596
   86MOL0     H11589   6.069   8.801   8.520 -2.6375 -2.0844  0.6619
   86MOL0     H11590   5.908   8.646   8.445 -0.7684 -1.5269 -0.4375
   86MOL0     H11591   6.020   8.556   8.538 -0.1510 -1.7438 -1.4618
   86MOL0     H11592   6.933   9.087   8.382 -1.3103  1.6637  0.8022
   86MOL0     H11593   7.166   9.078   8.324 -0.2246  2.1523 -0.0245
   86MOL0     H11594   7.472   9.210   8.025 -0.4346 -0.5095 -1.6232
   86MOL0     H11595   7.656   9.250   7.937  1.2141 -0.4090 -1.1332
   86MOL0     H11596   9.268   9.333   8.618  0.2511  0.6564 -0.9308
   86MOL0     H11597   9.426   9.485   8.693  0.7191 -2.1168  1.0871
   86MOL0     H11598   9.884   9.653   8.519 -2.5052 -0.5440  0.2855
   86MOL0     H11599  10.094   9.730   8.618 -0.1684 -0.0796  0.3403
   86MOL0     H11600  10.267   9.758   8.749 -0.9171  0.4864 -2.6613
   86MOL0     H11601  10.224   9.928   8.687 -1.4646 -0.1340  0.1101
   86MOL0     H11602  10.311  10.013   8.911 -1.8903 -0.7912 -1.1527
   86MOL0     H11603  10.432   9.937   8.803  0.3295  1.5088  0.8177
   86MOL0     H11604  10.440   9.738   8.940  1.8181  1.2152  0.1036
   86MOL0     H11605  10.300   9.801   9.034  0.4485 -0.1194 -0.1594
   86MOL0     H11606  10.467   9.841   9.170  1.0457 -1.9023 -0.5250
   86MOL0     H11607  10.449   9.999   9.093  1.5138  0.7003 -2.0869
   86MOL0     H11608  10.839   9.872   8.952  0.3351  1.6991  1.5274
   86MOL0     H11609   9.892   9.905   8.939 -0.3405  1.2361 -0.0368
   86MOL0     H11610   9.663   9.822   8.844 -0.3657 -0.2421  1.3299
   87MOL0     O11611   7.676   9.090   4.695  0.5071 -1.1627 -0.5366
   87MOL0     C11612   7.710   9.142   4.588  0.8507 -0.3053  0.3386
   87MOL0     O11613   7.620   9.214   4.517  0.0076 -0.2114 -0.2399
   87MOL0     C11614   7.497   9.246   4.569 -0.3718 -1.2429  0.2163
   87MOL0     C11615   7.466   9.381   4.592  0.4246  0.6698 -0.1838
   87MOL0     C11616   7.335   9.418   4.635 -1.1132  0.5243 -0.0893
   87MOL0     C11617   7.238   9.324   4.671  0.8506 -0.2641  0.3893
   87MOL0     O11618   7.119   9.371   4.727  0.0390  0.4265  0.5365
   87MOL0     C11619   7.022   9.268   4.762 -0.5520  0.2455 -0.0306
   87MOL0     C11620   6.872   9.312   4.762 -0.5781  1.3324  0.4960
   87MOL0     C11621   6.843   9.367   4.625 -0.4083 -0.2581 -0.2306
   87MOL0     C11622   6.704   9.414   4.620 -0.6865  0.2129 -0.2982
   87MOL0     C11623   6.657   9.442   4.480 -0.7864 -0.2961 -0.2137
   87MOL0     C11624   6.530   9.512   4.481  0.0346  0.4061 -0.3615
   87MOL0     C11625   6.460   9.525   4.342 -0.1558  0.4331 -1.3478
   87MOL0     C11626   6.332   9.593   4.381 -0.5016 -0.3279  0.0767
   87MOL0     N11627   6.338   9.735   4.383  1.1883 -0.8783  0.2076
   87MOL0     C11628   6.377   9.825   4.286  0.0335 -0.2200 -0.3287
   87MOL0     C11629   6.404   9.940   4.348  0.4393  0.0078 -0.1677
   87MOL0     C11630   6.457  10.062   4.285  0.5226 -0.5126 -0.3777
   87MOL0     C11631   6.365  10.116   4.179  0.6931  0.0132  0.2086
   87MOL0     C11632   6.278  10.215   4.244  0.5118 -0.2601 -0.7305
   87MOL0     C11633   6.176  10.277   4.149 -0.0814  0.3484 -0.8131
   87MOL0     O11634   6.088  10.174   4.093 -0.6193 -0.0004 -0.1468
   87MOL0     C11635   5.996  10.214   4.002  0.0190  0.0867  0.0914
   87MOL0     C11636   5.984  10.140   3.889 -0.1880  0.3328 -0.0947
   87MOL0     C11637   5.889  10.170   3.791  0.3594 -0.8024  0.4694
   87MOL0     C11638   5.880  10.081   3.669  0.0562  0.1003  0.2270
   87MOL0     C11639   5.797  10.281   3.812  0.1763  0.2838 -0.3650
   87MOL0     C11640   5.681  10.308   3.718 -0.3946 -1.4405 -0.0173
   87MOL0     O11641   5.653  10.442   3.692  0.1450 -0.4256  0.5450
   87MOL0     C11642   5.591  10.493   3.576 -0.2390  0.0420  0.2005
   87MOL0     C11643   5.639  10.611   3.518 -0.1139  0.1027 -0.0067
   87MOL0     C11644   5.579  10.661   3.400  0.7596  0.6362  0.3921
   87MOL0     C11645   5.473  10.593   3.346 -0.0257 -0.5327  0.2996
   87MOL0     O11646   5.429  10.636   3.219 -0.3012  0.5947 -0.0971
   87MOL0     C11647   5.293  10.669   3.205  0.0890  0.1778 -0.6229
   87MOL0     C11648   5.251  10.805   3.268 -0.5195  0.6401  0.2907
   87MOL0     C11649   5.315  10.918   3.191 -0.0726  0.4740 -0.8687
   87MOL0     C11650   5.222  11.036   3.153  0.2210  0.3262 -0.0073
   87MOL0     C11651   5.283  11.139   3.063 -0.0238 -0.0847 -0.8641
   87MOL0     C11652   5.192  11.261   3.021 -0.1377 -0.1670 -0.1283
   87MOL0     C11653   5.051  11.238   2.968 -0.8057  0.5031  0.5553
   87MOL0     C11654   4.987  11.373   2.927 -0.8992  0.6577  0.6925
   87MOL0    Cl11655   5.043  11.426   2.764  0.3529  0.1298 -0.2326
   87MOL0     C11656   5.417  10.485   3.411 -0.2903  0.1155  0.6374
   87MOL0     C11657   5.483  10.425   3.522  0.7033  0.3051 -0.0768
   87MOL0     O11658   5.628  10.212   3.662  1.0618  0.3814  0.1807
   87MOL0     C11659   5.810  10.356   3.937 -0.4780 -0.3210  0.5108
   87MOL0     C11660   5.905  10.317   4.024 -0.2334 -0.2055 -0.8121
   87MOL0     N11661   6.389   9.922   4.486  0.5915 -0.7904  0.0858
   87MOL0     N11662   6.350   9.795   4.504 -0.1008 -0.7784 -0.3634
   87MOL0     C11663   7.273   9.189   4.668 -0.1240  0.5015  0.1743
   87MOL0     C11664   7.397   9.156   4.602 -0.2167  0.3718  0.0184
   87MOL0     C11665   7.834   9.097   4.526 -0.0128 -0.6487 -0.2132
   87MOL0     C11666   7.872   9.151   4.399  0.3763  0.6681 -0.3816
   87MOL0     C11667   7.994   9.115   4.344  0.8387 -0.1126  0.0040
   87MOL0     C11668   8.079   9.024   4.409  0.0367  0.9041  1.0208
   87MOL0     O11669   8.206   9.007   4.347 -0.0857 -0.2159  0.0111
   87MOL0     C11670   8.301   8.920   4.407 -0.9079 -0.5850  0.2975
   87MOL0     C11671   8.442   8.950   4.366 -0.2568  0.2743  0.0908
   87MOL0     C11672   8.533   8.979   4.484  0.4283 -0.4035  0.1113
   87MOL0     C11673   8.680   9.037   4.460 -0.2289  0.1443 -0.3182
   87MOL0     C11674   8.775   8.937   4.416 -0.3905 -0.0050  0.1038
   87MOL0     C11675   8.847   8.851   4.374 -0.6864  0.8668 -0.1597
   87MOL0     C11676   8.035   8.960   4.529 -1.0862 -0.3045  0.2302
   87MOL0     C11677   7.917   9.002   4.586  0.2557 -0.3916  0.0346
   87MOL0     H11678   7.529   9.461   4.556 -1.2277  2.7048  1.1639
   87MOL0     H11679   7.319   9.523   4.617 -2.2909  0.2535 -0.7309
   87MOL0     H11680   7.026   9.180   4.696  0.2402  0.0296  0.2901
   87MOL0     H11681   7.051   9.223   4.857  2.8720  1.1977 -0.4796
   87MOL0     H11682   6.805   9.226   4.774 -2.9510  2.8156 -1.2292
   87MOL0     H11683   6.858   9.389   4.838 -1.5140  1.3693  0.2983
   87MOL0     H11684   6.900   9.457   4.599  1.7835 -1.9011 -1.4755
   87MOL0     H11685   6.876   9.299   4.546  3.6597 -0.9916  1.8190
   87MOL0     H11686   6.637   9.338   4.659  1.6273 -2.5969 -1.4061
   87MOL0     H11687   6.715   9.501   4.685  0.8485 -0.2008  0.0508
   87MOL0     H11688   6.732   9.512   4.442  1.1385 -2.7272 -1.1345
   87MOL0     H11689   6.668   9.359   4.409 -1.8165  0.4119 -1.2475
   87MOL0     H11690   6.468   9.452   4.549  0.1567 -1.7559 -2.0339
   87MOL0     H11691   6.531   9.613   4.523  0.6651 -0.9057  3.0702
   87MOL0     H11692   6.517   9.590   4.276 -0.3698  5.1914  2.5497
   87MOL0     H11693   6.434   9.427   4.302  2.2606 -1.3082  1.0178
   87MOL0     H11694   6.293   9.547   4.473 -1.4604 -3.1592 -1.6168
   87MOL0     H11695   6.251   9.562   4.314 -0.0801  2.5385 -1.9197
   87MOL0     H11696   6.389   9.811   4.179 -2.7008  0.2693 -0.7717
   87MOL0     H11697   6.464  10.139   4.363  1.0498  0.3982 -1.2885
   87MOL0     H11698   6.557  10.047   4.242  0.6249  1.9261 -1.1825
   87MOL0     H11699   6.301  10.043   4.128  1.0779 -0.2972  0.1662
   87MOL0     H11700   6.418  10.167   4.098  1.1816  1.9695  1.6945
   87MOL0     H11701   6.332  10.300   4.287  1.7896 -1.7190  0.6504
   87MOL0     H11702   6.217  10.165   4.320  0.4614 -3.3808 -2.6362
   87MOL0     H11703   6.241  10.313   4.068  0.4054  0.2868 -0.4565
   87MOL0     H11704   6.108  10.353   4.189  2.4720  2.7564 -0.6446
   87MOL0     H11705   6.052  10.056   3.884  1.4741  1.5821  0.5111
   87MOL0     H11706   5.954  10.000   3.665 -1.8134 -1.6465 -0.3909
   87MOL0     H11707   5.786  10.028   3.681  0.7171 -1.6672 -1.7418
   87MOL0     H11708   5.872  10.143   3.579  0.3198  0.7752  0.6657
   87MOL0     H11709   5.721  10.665   3.564 -2.8685  4.8808 -0.0703
   87MOL0     H11710   5.629  10.733   3.336  1.5845  0.3717  0.7166
   87MOL0     H11711   5.278  10.664   3.097  0.8178 -0.6479 -0.7006
   87MOL0     H11712   5.225  10.593   3.245  0.1310  1.5108  2.2369
   87MOL0     H11713   5.142  10.812   3.270 -0.5180  1.3911 -1.1403
   87MOL0     H11714   5.283  10.809   3.372  0.0892 -1.4824  0.2281
   87MOL0     H11715   5.363  10.887   3.097 -0.3650 -0.5408 -0.6985
   87MOL0     H11716   5.392  10.958   3.257  1.2410 -1.0816 -1.3883
   87MOL0     H11717   5.139  10.986   3.101  1.8861 -2.2384 -0.3673
   87MOL0     H11718   5.186  11.078   3.247  0.5073 -3.3275  1.9331
   87MOL0     H11719   5.325  11.092   2.974 -0.0576  0.8538 -1.3825
   87MOL0     H11720   5.367  11.177   3.122  0.5874 -0.3140 -1.5776
   87MOL0     H11721   5.178  11.328   3.107 -0.9691  1.0058 -1.1417
   87MOL0     H11722   5.246  11.314   2.941 -1.2547  4.2922  1.7446
   87MOL0     H11723   4.994  11.179   3.040 -1.4116 -1.5989 -1.5597
   87MOL0     H11724   5.051  11.180   2.876  0.8095  3.5291 -1.5371
   87MOL0     H11725   5.005  11.441   3.011 -2.1371  1.9030 -0.0141
   87MOL0     H11726   4.880  11.353   2.925 -0.6422 -0.7676  0.3651
   87MOL0     H11727   5.331  10.435   3.368  0.1965 -0.9732  0.8943
   87MOL0     H11728   5.447  10.342   3.582  1.1360 -0.1728 -0.4846
   87MOL0     H11729   5.745  10.440   3.956  0.6010  0.7970 -0.5003
   87MOL0     H11730   5.908  10.372   4.118 -0.8332  1.0822 -1.5117
   87MOL0     H11731   7.213   9.101   4.687 -2.6330  2.1838  0.5069
   87MOL0     H11732   7.439   9.058   4.581  1.1513  0.6525  1.2846
   87MOL0     H11733   7.797   9.209   4.347 -2.0317  0.9433  3.0925
   87MOL0     H11734   8.018   9.142   4.242 -1.7744 -0.0818 -0.6742
   87MOL0     H11735   8.304   8.937   4.515  3.6680  2.0073  0.0380
   87MOL0     H11736   8.278   8.816   4.385 -2.8659 -0.2436  0.4865
   87MOL0     H11737   8.444   9.032   4.294  0.1128 -1.2859 -1.7540
   87MOL0     H11738   8.471   8.859   4.314 -0.8593 -0.7395  1.4689
   87MOL0     H11739   8.557   8.887   4.538  2.6513 -0.7208 -1.3254
   87MOL0     H11740   8.471   9.045   4.546 -0.9925 -4.7168  3.8293
   87MOL0     H11741   8.720   9.069   4.557 -0.3747 -2.4268  0.6632
   87MOL0     H11742   8.685   9.122   4.392  2.6350 -1.1605 -1.8837
   87MOL0     H11743   8.925   8.779   4.366 -1.8672 -0.9609  3.0856
   87MOL0     H11744   8.096   8.891   4.587 -0.5549  0.7532  0.9668
   87MOL0     H11745   7.873   8.959   4.675  2.2228 -2.0954  0.2542
   88MOL0     O11746   1.070  10.741   8.972 -0.3553  0.7827 -0.8025
   88MOL0     C11747   1.141  10.702   9.069 -0.2198 -0.6018  0.1482
   88MOL0     O11748   1.093  10.667   9.192 -0.1397  0.5122 -0.2127
   88MOL0     C11749   0.959  10.659   9.205  0.3658  0.2307 -0.2614
   88MOL0     C11750   0.888  10.536   9.207 -0.3956  0.2655 -0.2618
   88MOL0     C11751   0.755  10.527   9.212 -0.4607  0.6676  0.4593
   88MOL0     C11752   0.679  10.640   9.236 -0.9838 -0.7917  0.6902
   88MOL0     O11753   0.547  10.616   9.235 -0.0108 -0.8827  0.7357
   88MOL0     C11754   0.449  10.712   9.270  0.2292  0.6685  1.1947
   88MOL0     C11755   0.339  10.647   9.346 -0.1154 -0.0790  0.4464
   88MOL0     C11756   0.393  10.647   9.492  0.2870 -0.7245 -0.0432
   88MOL0     C11757   0.274  10.649   9.589 -0.2673 -0.5019  0.3144
   88MOL0     C11758   0.320  10.688   9.727  0.0590 -0.6800  0.2827
   88MOL0     C11759   0.204  10.730   9.816  0.1030  0.2366 -0.1938
   88MOL0     C11760   0.136  10.618   9.893  0.3830 -0.3832  0.6261
   88MOL0     C11761   0.042  10.663  10.004 -0.8524 -0.3479  0.2942
   88MOL0     N11762  -0.062  10.568  10.046  0.5036 -0.1146 -0.5663
   88MOL0     C11763  -0.053  10.439  10.083  0.2881  1.0839 -0.4557
   88MOL0     C11764  -0.181  10.389  10.074 -1.1004 -0.2493  0.5092
   88MOL0     C11765  -0.241  10.260  10.123 -0.6248 -0.4090  0.0782
   88MOL0     C11766  -0.349  10.201  10.035 -0.5873  0.2734  0.0253
   88MOL0     C11767  -0.297  10.130   9.915  0.1367  0.7064 -0.2230
   88MOL0     C11768  -0.392  10.049   9.833 -0.1334  0.5073  0.9171
   88MOL0     O11769  -0.509  10.120   9.822  0.3040  0.5588 -0.0445
   88MOL0     C11770  -0.625  10.046   9.786  0.0276  0.3559 -0.2106
   88MOL0     C11771  -0.751  10.105   9.820  0.2514  0.1712 -0.4646
   88MOL0     C11772  -0.878  10.055   9.776  0.8401 -0.8481 -0.8670
   88MOL0     C11773  -0.998  10.152   9.802  0.0248  0.9109  0.7745
   88MOL0     C11774  -0.887   9.924   9.721  0.7573 -1.0059 -0.3029
   88MOL0     C11775  -1.013   9.854   9.687  0.5115  0.1393  0.4264
   88MOL0     O11776  -1.132   9.905   9.722 -0.2093  0.1559  0.0442
   88MOL0     C11777  -1.248   9.829   9.711 -0.3775  0.2546 -0.1753
   88MOL0     C11778  -1.301   9.784   9.587 -0.6188 -0.1027 -0.0996
   88MOL0     C11779  -1.416   9.698   9.584 -0.1671 -0.4421  0.0897
   88MOL0     C11780  -1.486   9.668   9.707  0.1347  0.4914  0.2844
   88MOL0     O11781  -1.593   9.580   9.707  0.1109  0.3363 -1.0833
   88MOL0     C11782  -1.626   9.503   9.595 -0.3930 -0.4755 -0.2440
   88MOL0     C11783  -1.723   9.563   9.491  0.2705 -0.0284 -0.5448
   88MOL0     C11784  -1.858   9.599   9.546 -0.4737  0.2043 -0.3162
   88MOL0     C11785  -1.936   9.681   9.442  0.0080  0.1071 -0.1110
   88MOL0     C11786  -2.089   9.674   9.480 -0.3702  0.0566 -0.1056
   88MOL0     C11787  -2.172   9.768   9.384 -0.9429  0.2103 -0.6104
   88MOL0     C11788  -2.315   9.733   9.398  0.1934  0.0106  0.4145
   88MOL0     C11789  -2.377   9.753   9.535 -0.0927  0.5687 -0.7628
   88MOL0    Cl11790  -2.552   9.696   9.512 -0.2334  0.3777 -0.3905
   88MOL0     C11791  -1.432   9.722   9.826  0.2803 -0.7220 -0.6170
   88MOL0     C11792  -1.320   9.807   9.826 -0.7946 -0.5596 -0.8413
   88MOL0     O11793  -0.999   9.750   9.621  0.1309  0.7211  0.4892
   88MOL0     C11794  -0.759   9.858   9.700  1.0608 -0.4244 -0.6898
   88MOL0     C11795  -0.636   9.921   9.737 -0.2183  0.1947 -0.5390
   88MOL0     N11796  -0.265  10.485  10.027  0.3165  0.6064  0.2394
   88MOL0     N11797  -0.192  10.586  10.006 -0.7476  0.0237 -0.0039
   88MOL0     C11798   0.747  10.763   9.230  0.3127  0.0795 -0.1440
   88MOL0     C11799   0.887  10.776   9.218  0.0120  1.4840  0.3098
   88MOL0     C11800   1.287  10.708   9.044  0.2591 -0.3483  0.2698
   88MOL0     C11801   1.339  10.764   8.923  0.1835  0.6344 -0.1113
   88MOL0     C11802   1.469  10.739   8.888 -0.5885 -0.0520  0.0856
   88MOL0     C11803   1.560  10.676   8.980  0.0210  0.9740  0.3470
   88MOL0     O11804   1.697  10.667   8.946  0.5782 -0.0095  0.3822
   88MOL0     C11805   1.793  10.616   9.035 -1.0295  0.3355  0.0579
   88MOL0     C11806   1.930  10.664   8.996 -0.6447  0.1295  0.2184
   88MOL0     C11807   1.996  10.571   8.888 -0.2136  0.4291 -0.1664
   88MOL0     C11808   2.134  10.631   8.855 -0.3507  0.4567  0.5088
   88MOL0     C11809   2.209  10.559   8.755  0.8901  0.2168 -0.0915
   88MOL0     C11810   2.287  10.509   8.675 -0.7202  0.4937 -0.4763
   88MOL0     C11811   1.513  10.632   9.116  0.1621  0.4700  0.8612
   88MOL0     C11812   1.372  10.654   9.138  0.1071 -0.5100 -0.2043
   88MOL0     H11813   0.937  10.440   9.190 -0.0483 -0.1644  2.6409
   88MOL0     H11814   0.702  10.433   9.206  2.5273 -1.0461 -1.7736
   88MOL0     H11815   0.501  10.787   9.330 -0.9162  2.5859 -0.0885
   88MOL0     H11816   0.415  10.757   9.176 -1.3705 -2.4765  0.1224
   88MOL0     H11817   0.244  10.697   9.327  1.3572  1.8838 -2.6405
   88MOL0     H11818   0.326  10.546   9.305 -1.5762  0.2860 -0.0580
   88MOL0     H11819   0.460  10.563   9.517 -3.3218 -2.9999  3.2045
   88MOL0     H11820   0.443  10.743   9.509  0.5909 -0.3387 -2.7388
   88MOL0     H11821   0.210  10.728   9.548 -1.5764 -1.4754  0.4133
   88MOL0     H11822   0.219  10.555   9.589 -4.1290  1.5020 -2.3009
   88MOL0     H11823   0.388  10.628   9.790 -0.7499  1.1963  3.1423
   88MOL0     H11824   0.383  10.774   9.703  2.4171 -2.1755  0.7219
   88MOL0     H11825   0.236  10.804   9.890  1.3766 -0.7613  0.3015
   88MOL0     H11826   0.133  10.764   9.740 -0.0444  1.2534  0.3752
   88MOL0     H11827   0.079  10.564   9.816  1.5880  1.0920 -1.3841
   88MOL0     H11828   0.210  10.548   9.934 -0.7454 -2.3262 -0.4689
   88MOL0     H11829  -0.005  10.760   9.984  1.3690  0.6103 -0.6540
   88MOL0     H11830   0.100  10.679  10.095 -1.0931  2.0683  0.1133
   88MOL0     H11831   0.040  10.392  10.114  0.9785  2.2583 -0.6374
   88MOL0     H11832  -0.167  10.179  10.131  0.0636  0.1158 -0.8106
   88MOL0     H11833  -0.280  10.283  10.222 -0.4897  0.3200 -0.0360
   88MOL0     H11834  -0.430  10.274  10.020 -0.9877  0.5043  2.8535
   88MOL0     H11835  -0.413  10.133  10.092 -0.8485  1.0320  0.6627
   88MOL0     H11836  -0.216  10.069   9.956 -0.1162  0.6402  0.1885
   88MOL0     H11837  -0.251  10.202   9.847  0.5492 -0.1428 -0.8524
   88MOL0     H11838  -0.411   9.954   9.883  0.5803  0.5689  1.3164
   88MOL0     H11839  -0.347  10.034   9.735 -4.2338 -0.8709 -0.9757
   88MOL0     H11840  -0.747  10.201   9.870 -0.2963  0.5912 -1.2089
   88MOL0     H11841  -0.953  10.247   9.831  2.9505 -0.2882  0.4424
   88MOL0     H11842  -1.060  10.172   9.714  1.8810  0.8074 -0.6061
   88MOL0     H11843  -1.056  10.113   9.886  0.4767 -3.0277 -0.5404
   88MOL0     H11844  -1.258   9.824   9.496  0.8980 -1.6879 -0.1223
   88MOL0     H11845  -1.464   9.689   9.487 -1.4145  1.8272  0.4174
   88MOL0     H11846  -1.537   9.464   9.546  0.5440  2.8111 -1.4134
   88MOL0     H11847  -1.664   9.405   9.626 -0.5233  0.9039  4.7676
   88MOL0     H11848  -1.673   9.648   9.443  2.7256 -1.2084 -0.2165
   88MOL0     H11849  -1.739   9.485   9.416  1.4030  1.1775 -2.1066
   88MOL0     H11850  -1.854   9.646   9.644  0.5105 -1.6887  0.5956
   88MOL0     H11851  -1.909   9.504   9.568  0.6085 -0.1544  0.7825
   88MOL0     H11852  -1.896   9.782   9.431 -0.1109 -0.0001 -1.8110
   88MOL0     H11853  -1.924   9.650   9.338 -0.7259  3.3857 -1.2972
   88MOL0     H11854  -2.104   9.708   9.582  0.7627 -1.3392  0.5687
   88MOL0     H11855  -2.128   9.572   9.473 -0.6252  0.1529 -0.0767
   88MOL0     H11856  -2.147   9.873   9.399  0.3546 -0.4184  2.5931
   88MOL0     H11857  -2.133   9.741   9.286 -1.3643  0.4810 -0.8559
   88MOL0     H11858  -2.333   9.635   9.353  0.8368  0.0773 -0.0020
   88MOL0     H11859  -2.366   9.802   9.330 -1.7318 -0.8302  0.9445
   88MOL0     H11860  -2.372   9.858   9.562  1.3655  1.2212 -3.2240
   88MOL0     H11861  -2.315   9.696   9.605 -0.9082 -0.2737 -0.7022
   88MOL0     H11862  -1.476   9.705   9.923 -0.3796 -0.3513 -0.8441
   88MOL0     H11863  -1.274   9.848   9.915  1.3324 -1.7555 -1.3186
   88MOL0     H11864  -0.759   9.757   9.660 -1.2651 -0.0288 -1.8701
   88MOL0     H11865  -0.542   9.873   9.712 -1.2698 -0.9802 -2.6037
   88MOL0     H11866   0.695  10.858   9.239 -2.7745 -1.5479  0.7864
   88MOL0     H11867   0.928  10.877   9.216 -0.7445  1.8608  2.2192
   88MOL0     H11868   1.278  10.826   8.858  2.7821  1.8666 -1.5276
   88MOL0     H11869   1.511  10.767   8.792  2.8329  0.2782  1.5358
   88MOL0     H11870   1.768  10.654   9.134 -0.0619 -0.1899  0.5188
   88MOL0     H11871   1.796  10.506   9.033 -2.3511  0.2860  0.0964
   88MOL0     H11872   1.986  10.660   9.089 -0.2224  1.8829  0.0594
   88MOL0     H11873   1.933  10.769   8.966 -0.3063  1.2891  3.8800
   88MOL0     H11874   1.939  10.564   8.795 -0.4762 -6.4915  0.0014
   88MOL0     H11875   2.009  10.467   8.920  0.5926  0.6154  0.1242
   88MOL0     H11876   2.197  10.632   8.944 -0.0436 -1.6524  0.3561
   88MOL0     H11877   2.109  10.731   8.817 -1.0980  0.0267 -0.1686
   88MOL0     H11878   2.356  10.450   8.618  0.6124  0.6215  0.9034
   88MOL0     H11879   1.578  10.577   9.183 -0.8748  0.7891  2.1561
   88MOL0     H11880   1.329  10.612   9.228 -0.2633  1.0497  0.3614
   89MOL0     O11881   3.453   3.368   6.117  0.2171 -0.0547  0.6204
   89MOL0     C11882   3.574   3.358   6.085 -0.2596  0.0202  0.2448
   89MOL0     O11883   3.633   3.438   5.990  0.2552  0.5031 -1.4283
   89MOL0     C11884   3.584   3.550   5.933 -0.3603 -0.2453 -0.2055
   89MOL0     C11885   3.623   3.584   5.804  0.1034  0.0113  0.0416
   89MOL0     C11886   3.576   3.700   5.748 -0.7983 -0.4308  0.0810
   89MOL0     C11887   3.493   3.786   5.827  0.7421 -0.4795  0.3452
   89MOL0     O11888   3.444   3.901   5.769 -0.6543 -0.2600 -0.5614
   89MOL0     C11889   3.308   3.918   5.800  0.3862 -0.1039 -0.3273
   89MOL0     C11890   3.226   3.992   5.702 -0.0297  0.8073 -0.0260
   89MOL0     C11891   3.084   4.041   5.745 -0.7258  0.4689  0.6325
   89MOL0     C11892   3.005   4.104   5.627  0.4091  0.1893  0.1326
   89MOL0     C11893   2.892   4.190   5.677 -0.3231  0.4538 -0.7949
   89MOL0     C11894   2.938   4.323   5.738 -0.6370  0.3081  0.5712
   89MOL0     C11895   2.824   4.407   5.790  0.9318 -0.1827  0.4362
   89MOL0     C11896   2.753   4.479   5.673  0.1904 -0.8768 -0.3151
   89MOL0     N11897   2.636   4.561   5.717 -0.5700 -0.4265 -0.8205
   89MOL0     C11898   2.588   4.656   5.638 -0.3647  0.3625  0.0111
   89MOL0     C11899   2.507   4.730   5.712  0.6000  0.1676 -0.1798
   89MOL0     C11900   2.423   4.838   5.656  0.7301 -1.0607  0.0296
   89MOL0     C11901   2.305   4.812   5.574  0.5925  0.6296 -0.3705
   89MOL0     C11902   2.191   4.731   5.649  0.4770 -0.8379 -0.1516
   89MOL0     C11903   2.089   4.806   5.736 -1.0216 -0.1208  0.6573
   89MOL0     O11904   1.990   4.704   5.762 -0.1299 -0.2574  0.5440
   89MOL0     C11905   1.902   4.704   5.865 -0.2317 -0.9372 -0.9997
   89MOL0     C11906   1.890   4.813   5.960 -0.5625  0.9883  0.7815
   89MOL0     C11907   1.792   4.818   6.058 -0.4125  0.0927  0.0821
   89MOL0     C11908   1.789   4.950   6.143 -0.0924 -0.3625 -0.3135
   89MOL0     C11909   1.702   4.714   6.068 -0.2437 -1.0183 -0.1618
   89MOL0     C11910   1.594   4.704   6.172 -0.1682  0.4412  0.7535
   89MOL0     O11911   1.510   4.595   6.156 -0.1863  0.0802  0.8938
   89MOL0     C11912   1.435   4.552   6.261 -0.4028 -0.8202 -0.0103
   89MOL0     C11913   1.307   4.602   6.281 -1.4315  0.4210 -0.9519
   89MOL0     C11914   1.235   4.564   6.398  0.3452  0.0342 -0.0048
   89MOL0     C11915   1.285   4.472   6.489  0.6521 -0.1862 -0.1821
   89MOL0     O11916   1.221   4.437   6.605  1.1056 -0.4778 -0.1232
   89MOL0     C11917   1.284   4.357   6.712 -0.0874 -0.1157 -0.3064
   89MOL0     C11918   1.219   4.379   6.852 -0.3099 -0.0297  0.4806
   89MOL0     C11919   1.073   4.342   6.849  0.2402 -0.5191 -0.7230
   89MOL0     C11920   1.000   4.395   6.975  0.1635 -0.1400  0.0177
   89MOL0     C11921   0.854   4.355   7.000  0.6161  0.3617 -0.3714
   89MOL0     C11922   0.760   4.409   6.889 -0.7555  0.4179  0.1493
   89MOL0     C11923   0.615   4.378   6.907  0.6676 -0.2563 -0.2672
   89MOL0     C11924   0.539   4.442   6.790 -0.3528 -0.5443 -0.0102
   89MOL0    Cl11925   0.377   4.365   6.773  0.1318 -0.1857  0.0933
   89MOL0     C11926   1.400   4.408   6.453  0.4369 -0.6737 -1.4297
   89MOL0     C11927   1.478   4.443   6.342 -0.6163  0.4873  1.2519
   89MOL0     O11928   1.589   4.782   6.267  0.3675 -0.4819  0.2911
   89MOL0     C11929   1.718   4.607   5.979  0.0984  0.7205  0.9663
   89MOL0     C11930   1.820   4.596   5.889 -0.0422  0.1550  1.1305
   89MOL0     N11931   2.499   4.679   5.843  0.0713  1.0896 -0.3691
   89MOL0     N11932   2.586   4.578   5.849 -0.2487 -0.0459  1.5255
   89MOL0     C11933   3.476   3.766   5.966  0.2979 -0.3218  0.1793
   89MOL0     C11934   3.518   3.644   6.011 -0.1929 -0.2812 -0.9212
   89MOL0     C11935   3.654   3.251   6.151 -0.1878 -0.6065  0.2573
   89MOL0     C11936   3.782   3.225   6.114  0.5567  0.9311  0.8094
   89MOL0     C11937   3.856   3.123   6.178 -0.2529  0.4619  0.3405
   89MOL0     C11938   3.809   3.055   6.290  0.6429 -0.6865 -0.3213
   89MOL0     O11939   3.891   2.972   6.370 -0.3791  0.3416 -0.0033
   89MOL0     C11940   3.983   2.890   6.299 -0.1975 -0.7627  0.1010
   89MOL0     C11941   4.127   2.940   6.325  0.1964  0.2248  0.4867
   89MOL0     C11942   4.222   2.830   6.288  0.1902  0.0503  0.3262
   89MOL0     C11943   4.225   2.793   6.141 -0.3455 -0.1262 -1.1638
   89MOL0     C11944   4.205   2.899   6.035 -0.8976  0.6368 -0.4234
   89MOL0     C11945   4.205   2.982   5.944  0.0951  0.3746 -0.0402
   89MOL0     C11946   3.682   3.084   6.331  0.6901 -0.0034 -0.1953
   89MOL0     C11947   3.608   3.180   6.259 -0.4838 -0.4580  0.1588
   89MOL0     H11948   3.678   3.512   5.742  1.5870 -0.1255  1.4495
   89MOL0     H11949   3.612   3.736   5.652  0.0651  1.7292  1.1544
   89MOL0     H11950   3.261   3.820   5.819 -1.0891  0.9803  2.2058
   89MOL0     H11951   3.295   3.966   5.897 -0.1446 -0.6092 -0.1380
   89MOL0     H11952   3.276   4.082   5.666 -0.0525  1.2386  0.9892
   89MOL0     H11953   3.215   3.923   5.617 -0.4139  0.8445 -0.0090
   89MOL0     H11954   3.026   3.959   5.788  2.3994 -0.6459  3.1478
   89MOL0     H11955   3.105   4.113   5.825 -0.5530  0.1313  0.8958
   89MOL0     H11956   3.060   4.173   5.563  1.8139 -1.9441 -1.0551
   89MOL0     H11957   2.969   4.026   5.560  4.1964 -1.0588 -0.6742
   89MOL0     H11958   2.834   4.206   5.586  0.1145  1.0690 -0.9678
   89MOL0     H11959   2.826   4.139   5.748 -1.1308  2.6507  0.1068
   89MOL0     H11960   3.009   4.307   5.819  1.3073  1.0785 -0.9093
   89MOL0     H11961   2.991   4.373   5.657 -3.8596  0.2924 -1.7165
   89MOL0     H11962   2.756   4.341   5.845  3.5374 -1.0663  2.8291
   89MOL0     H11963   2.862   4.487   5.854 -0.8048  0.5522  0.6297
   89MOL0     H11964   2.707   4.402   5.611  1.1242 -0.3674 -1.6862
   89MOL0     H11965   2.825   4.532   5.610 -3.3372 -2.2908 -6.2654
   89MOL0     H11966   2.617   4.668   5.534 -2.7065 -1.6576 -0.9484
   89MOL0     H11967   2.391   4.907   5.736  2.1588 -0.7585  0.3625
   89MOL0     H11968   2.493   4.889   5.589  2.5352 -2.4465  0.7819
   89MOL0     H11969   2.336   4.758   5.484 -1.1158 -2.0486  0.5541
   89MOL0     H11970   2.268   4.909   5.541  1.0914  0.3363 -1.8816
   89MOL0     H11971   2.223   4.643   5.705  0.3249 -0.4828  0.5010
   89MOL0     H11972   2.139   4.676   5.570 -1.9758 -0.5674  1.1648
   89MOL0     H11973   2.049   4.889   5.676  1.0916 -0.6668 -1.6441
   89MOL0     H11974   2.131   4.842   5.830  0.7151  0.7465 -0.3917
   89MOL0     H11975   1.961   4.895   5.949 -0.2007  0.7731  1.4969
   89MOL0     H11976   1.695   5.000   6.123 -0.7318 -1.6024 -0.5457
   89MOL0     H11977   1.808   4.937   6.250 -1.5679  1.1519  0.1625
   89MOL0     H11978   1.860   5.026   6.110  0.4704  0.7829  3.1049
   89MOL0     H11979   1.278   4.688   6.221  0.5972  2.2870  0.5978
   89MOL0     H11980   1.144   4.620   6.415  1.3906  1.9406 -0.4004
   89MOL0     H11981   1.302   4.250   6.696 -0.5426 -0.3924  0.9861
   89MOL0     H11982   1.387   4.393   6.717 -0.0467 -0.3954  1.4351
   89MOL0     H11983   1.262   4.317   6.930 -0.7252  0.2463  0.9314
   89MOL0     H11984   1.243   4.482   6.879  0.6850  0.3566 -1.6703
   89MOL0     H11985   1.063   4.233   6.852  0.6093 -0.5600 -0.9197
   89MOL0     H11986   1.021   4.384   6.762  1.4432  0.3113 -1.0608
   89MOL0     H11987   1.064   4.371   7.061 -0.6863 -1.4911  0.2903
   89MOL0     H11988   0.992   4.504   6.969 -1.6671 -0.1269  1.6635
   89MOL0     H11989   0.822   4.395   7.096  1.5175 -4.1041  2.0589
   89MOL0     H11990   0.837   4.248   7.013 -1.3659  0.2010 -3.2599
   89MOL0     H11991   0.790   4.512   6.870  2.6628 -0.5817 -0.5662
   89MOL0     H11992   0.793   4.355   6.800  2.7856 -0.5336  1.8586
   89MOL0     H11993   0.573   4.424   6.996 -3.4753 -2.5665 -0.7878
   89MOL0     H11994   0.598   4.270   6.911 -0.7916 -0.0284 -0.1350
   89MOL0     H11995   0.579   4.418   6.691 -2.4134  0.6825 -1.2215
   89MOL0     H11996   0.530   4.550   6.799  2.5641 -0.1478 -0.9354
   89MOL0     H11997   1.439   4.326   6.511  0.0372  1.4210  2.1461
   89MOL0     H11998   1.566   4.394   6.303 -1.4293  1.6153 -2.3241
   89MOL0     H11999   1.675   4.507   5.990 -0.1548  0.7555  0.3774
   89MOL0     H12000   1.839   4.509   5.826 -0.0717 -0.6731  2.2419
   89MOL0     H12001   3.420   3.826   6.037 -0.1811 -0.8471  0.2523
   89MOL0     H12002   3.514   3.622   6.117  1.5591 -0.8252 -0.9365
   89MOL0     H12003   3.823   3.275   6.027 -2.4958  4.7758  1.2581
   89MOL0     H12004   3.959   3.105   6.149  0.7360  2.1722  2.5300
   89MOL0     H12005   3.973   2.790   6.342 -0.4948 -0.6844  0.2138
   89MOL0     H12006   3.969   2.895   6.191  0.0637  1.3562  0.1265
   89MOL0     H12007   4.145   2.958   6.432  0.3076 -0.6376  0.6262
   89MOL0     H12008   4.150   3.035   6.277 -0.4027  2.1639  3.6837
   89MOL0     H12009   4.186   2.742   6.343 -0.0017 -0.2476 -0.2613
   89MOL0     H12010   4.319   2.872   6.316  0.0915  1.4516 -1.3063
   89MOL0     H12011   4.162   2.707   6.119 -0.2344  0.1958 -2.8556
   89MOL0     H12012   4.328   2.762   6.121 -0.5599 -1.4329 -0.3623
   89MOL0     H12013   4.220   3.067   5.879  4.2496  1.0351  1.4383
   89MOL0     H12014   3.645   3.033   6.419 -2.0886  3.7396  1.0658
   89MOL0     H12015   3.509   3.214   6.291  0.6896  3.8323 -0.1320
   90MOL0     O12016   3.624  10.865  10.177 -0.7014 -0.5505 -0.7833
   90MOL0     C12017   3.573  10.793  10.100  0.2856  1.2159  0.3209
   90MOL0     O12018   3.448  10.746  10.098 -0.0816 -0.2612 -1.0416
   90MOL0     C12019   3.366  10.731  10.214 -0.6621  0.2197 -0.1050
   90MOL0     C12020   3.405  10.753  10.346  0.0364  0.5870  0.5029
   90MOL0     C12021   3.305  10.743  10.452  0.4373  0.4026  0.9318
   90MOL0     C12022   3.177  10.714  10.422  0.6523 -0.1196 -0.8494
   90MOL0     O12023   3.100  10.691  10.535  0.2313 -0.9777  0.5346
   90MOL0     C12024   2.973  10.645  10.516  0.9057  0.6535  0.0542
   90MOL0     C12025   2.906  10.639  10.652  0.9877 -0.4932 -0.0066
   90MOL0     C12026   2.769  10.574  10.654  0.4082 -0.6308 -0.7091
   90MOL0     C12027   2.731  10.563  10.802  0.4005 -0.0924  0.5028
   90MOL0     C12028   2.578  10.536  10.803  0.4467  0.1476  0.6661
   90MOL0     C12029   2.531  10.529  10.952  0.1312 -0.3368  0.2569
   90MOL0     C12030   2.402  10.445  10.961  0.6465  0.1032 -0.0124
   90MOL0     C12031   2.292  10.530  10.894  0.5655 -0.0887  0.0243
   90MOL0     N12032   2.160  10.488  10.930 -0.7204  0.1961  0.0974
   90MOL0     C12033   2.084  10.530  11.030  1.3740 -0.2000 -0.5515
   90MOL0     C12034   1.981  10.436  11.031 -0.6348  0.9090  0.1881
   90MOL0     C12035   1.866  10.426  11.126  0.2167  0.1416 -0.2706
   90MOL0     C12036   1.731  10.470  11.052 -0.3400 -0.9611 -0.6236
   90MOL0     C12037   1.619  10.492  11.151  0.7992 -0.1762  0.7578
   90MOL0     C12038   1.486  10.524  11.067  0.0589 -0.1760 -0.1030
   90MOL0     O12039   1.434  10.411  10.997  0.5550 -0.3765  0.6840
   90MOL0     C12040   1.307  10.428  10.951  0.3749  0.2334  0.1607
   90MOL0     C12041   1.269  10.475  10.824 -0.0621 -0.4249  0.6407
   90MOL0     C12042   1.146  10.474  10.766 -0.1866  0.1020  0.7251
   90MOL0     C12043   1.120  10.550  10.638 -0.0163 -0.4139 -0.0566
   90MOL0     C12044   1.035  10.419  10.844  0.0489 -1.0485  0.2815
   90MOL0     C12045   0.891  10.429  10.807  1.1883 -0.2602  0.8319
   90MOL0     O12046   0.841  10.539  10.730  0.3511 -0.2741 -0.1491
   90MOL0     C12047   0.703  10.577  10.727 -0.1454 -0.2284  0.5647
   90MOL0     C12048   0.677  10.680  10.635  0.3608 -0.1087  0.2492
   90MOL0     C12049   0.550  10.737  10.631  0.6582 -0.4755 -0.1295
   90MOL0     C12050   0.440  10.687  10.715 -0.3455 -0.0604  0.7370
   90MOL0     O12051   0.312  10.735  10.694 -0.8418  0.5971  0.1090
   90MOL0     C12052   0.212  10.740  10.790 -0.8057 -0.0500  0.3122
   90MOL0     C12053   0.082  10.771  10.711 -0.9640  0.5716  0.2966
   90MOL0     C12054   0.093  10.898  10.621 -0.9804  0.4960 -0.6469
   90MOL0     C12055  -0.034  10.911  10.535 -0.8350  0.3501 -0.2397
   90MOL0     C12056  -0.160  10.958  10.612 -0.9916  0.0140  0.2652
   90MOL0     C12057  -0.258  11.003  10.511  1.1528  0.3326  0.0379
   90MOL0     C12058  -0.402  11.014  10.557 -1.0054  0.6985  0.1781
   90MOL0     C12059  -0.457  10.871  10.567 -0.4131 -0.5960  0.2469
   90MOL0    Cl12060  -0.630  10.881  10.617  0.2056 -0.0792  0.1247
   90MOL0     C12061   0.480  10.589  10.810 -0.0777  0.2090 -0.5722
   90MOL0     C12062   0.602  10.542  10.821 -0.4000  0.0843  1.1629
   90MOL0     O12063   0.823  10.335  10.852  0.6285  0.1199  0.2135
   90MOL0     C12064   1.070  10.364  10.970  0.1962  0.0907  0.1044
   90MOL0     C12065   1.201  10.362  11.013  0.5688 -0.7020 -0.1969
   90MOL0     N12066   1.999  10.345  10.928 -0.3756  0.5620  0.2615
   90MOL0     N12067   2.103  10.379  10.861 -0.4818  0.3987 -0.6957
   90MOL0     C12068   3.140  10.674  10.289 -0.0068  0.7496 -0.5400
   90MOL0     C12069   3.238  10.687  10.189  0.1991  0.1384 -0.3912
   90MOL0     C12070   3.654  10.737   9.990 -0.7149  0.3338  0.1513
   90MOL0     C12071   3.607  10.651   9.893 -0.6063  0.0776  0.0291
   90MOL0     C12072   3.682  10.603   9.785 -0.9112 -0.0030 -0.9531
   90MOL0     C12073   3.822  10.639   9.775  0.6888  0.0623 -0.2321
   90MOL0     O12074   3.905  10.584   9.687  0.0509  0.7063 -0.6118
   90MOL0     C12075   3.873  10.448   9.644 -0.4461  0.5209  0.5174
   90MOL0     C12076   4.007  10.367   9.627  0.8009  0.5130 -0.3354
   90MOL0     C12077   4.113  10.409   9.521  0.8290  0.2129  0.6491
   90MOL0     C12078   4.213  10.503   9.571 -0.4443 -0.6376 -0.0272
   90MOL0     C12079   4.295  10.562   9.463  0.2163 -0.2061 -0.5213
   90MOL0     C12080   4.348  10.589   9.355 -0.5081  0.8305  0.4580
   90MOL0     C12081   3.873  10.725   9.869  0.6607 -0.1201 -0.2702
   90MOL0     C12082   3.795  10.780   9.973  0.6403 -0.3743 -0.5787
   90MOL0     H12083   3.508  10.778  10.368  0.0706  2.6285 -1.6159
   90MOL0     H12084   3.333  10.745  10.556 -0.3667  2.1010  1.1396
   90MOL0     H12085   2.923  10.701  10.437  2.2374 -1.5285 -2.5216
   90MOL0     H12086   2.975  10.542  10.480  2.4379 -0.2444  2.4686
   90MOL0     H12087   2.968  10.584  10.723  1.1914  0.1561  0.3251
   90MOL0     H12088   2.901  10.742  10.688  0.6446 -0.7517  0.7199
   90MOL0     H12089   2.702  10.633  10.591 -0.5139  2.0941  2.5130
   90MOL0     H12090   2.764  10.474  10.610 -1.6610 -0.1244 -1.7867
   90MOL0     H12091   2.776  10.487  10.867 -1.6695 -0.3719  1.6828
   90MOL0     H12092   2.763  10.656  10.849 -0.8462  0.7068 -0.1711
   90MOL0     H12093   2.523  10.606  10.740  0.6072 -1.6325 -1.5897
   90MOL0     H12094   2.568  10.441  10.748 -1.7155  0.2583  0.7901
   90MOL0     H12095   2.603  10.478  11.016  0.9587  0.8738  0.3266
   90MOL0     H12096   2.516  10.629  10.993  0.2574 -0.5512  0.8274
   90MOL0     H12097   2.424  10.351  10.911  3.9852  1.7197 -1.9752
   90MOL0     H12098   2.359  10.436  11.061 -4.4205  1.0108 -1.7694
   90MOL0     H12099   2.297  10.512  10.786  1.8099 -2.3139  0.3896
   90MOL0     H12100   2.302  10.635  10.926 -0.6901  0.5752 -1.6028
   90MOL0     H12101   2.105  10.614  11.096  1.4200 -0.4865 -0.1995
   90MOL0     H12102   1.845  10.323  11.155  2.5815 -1.3140 -3.2945
   90MOL0     H12103   1.882  10.481  11.220 -1.0780 -2.2385  1.4572
   90MOL0     H12104   1.707  10.398  10.973 -2.4474 -3.2987  1.9413
   90MOL0     H12105   1.757  10.566  11.007  0.9769 -0.5548  0.8980
   90MOL0     H12106   1.663  10.574  11.209  3.2169 -0.1638 -0.9744
   90MOL0     H12107   1.593  10.410  11.219  0.7159 -1.3006 -0.5995
   90MOL0     H12108   1.501  10.603  10.993  2.3480 -0.0938  0.3570
   90MOL0     H12109   1.410  10.564  11.135  1.8730  3.2291  0.1526
   90MOL0     H12110   1.340  10.533  10.766 -0.9196  1.3628  1.2903
   90MOL0     H12111   1.207  10.593  10.587  0.0301  1.6681  1.6154
   90MOL0     H12112   1.070  10.487  10.564 -1.3438  0.0115  0.4479
   90MOL0     H12113   1.065  10.642  10.662 -1.2891 -1.1283 -0.1495
   90MOL0     H12114   0.750  10.729  10.572  0.0317  0.3307  0.2063
   90MOL0     H12115   0.527  10.818  10.563  1.4946  0.1090  0.2539
   90MOL0     H12116   0.199  10.655  10.858 -2.4780 -1.4703 -1.6471
   90MOL0     H12117   0.248  10.824  10.850  3.1569 -0.1618 -1.5939
   90MOL0     H12118   0.060  10.683  10.651  1.7703 -1.1523  1.6127
   90MOL0     H12119  -0.004  10.785  10.777 -3.2065  0.4793 -2.4332
   90MOL0     H12120   0.180  10.888  10.555 -1.5125  1.3940 -1.5306
   90MOL0     H12121   0.114  10.982  10.688  2.7530 -2.6385  2.5823
   90MOL0     H12122  -0.021  10.967  10.442  0.0607  1.9209  0.7828
   90MOL0     H12123  -0.054  10.809  10.501 -2.9290 -0.2571  2.4646
   90MOL0     H12124  -0.136  11.044  10.675  2.9785 -2.8699  3.1323
   90MOL0     H12125  -0.195  10.876  10.675  0.3605 -1.1842 -0.4750
   90MOL0     H12126  -0.230  11.101  10.473  0.6414  0.2824 -0.4805
   90MOL0     H12127  -0.257  10.937  10.423  0.3080  0.9031 -0.4112
   90MOL0     H12128  -0.459  11.065  10.479  1.2346  3.0070 -0.0837
   90MOL0     H12129  -0.413  11.079  10.644 -1.8844 -0.2662  0.8155
   90MOL0     H12130  -0.416  10.808  10.647 -0.5239 -2.1289 -0.8621
   90MOL0     H12131  -0.456  10.827  10.467  0.9805  0.7671 -0.3738
   90MOL0     H12132   0.409  10.547  10.880  0.7463 -0.1164  0.0659
   90MOL0     H12133   0.616  10.472  10.904  0.8141 -2.8372 -1.3122
   90MOL0     H12134   0.994  10.308  11.023  2.3598 -0.5993  2.7225
   90MOL0     H12135   1.217  10.311  11.108 -2.7077  1.0323  1.4616
   90MOL0     H12136   3.035  10.646  10.279 -0.7611  2.7092  1.3002
   90MOL0     H12137   3.206  10.660  10.089  1.1876 -2.1383 -0.1499
   90MOL0     H12138   3.499  10.639   9.897 -0.7002 -0.3362 -2.3976
   90MOL0     H12139   3.630  10.537   9.716  0.5929 -0.7738 -1.3972
   90MOL0     H12140   3.813  10.385   9.711  1.3209 -4.0585 -1.7494
   90MOL0     H12141   3.817  10.454   9.550 -1.1570 -0.6565  0.8402
   90MOL0     H12142   3.977  10.263   9.611  0.4160  0.7394 -1.1289
   90MOL0     H12143   4.056  10.368   9.725  0.7856  1.4815 -0.3287
   90MOL0     H12144   4.069  10.444   9.427  2.6630 -0.0022 -0.3344
   90MOL0     H12145   4.161  10.323   9.474 -0.9874  0.4339 -1.8323
   90MOL0     H12146   4.278  10.443   9.637 -0.0232 -1.2837 -1.0054
   90MOL0     H12147   4.171  10.582   9.634  0.1802 -0.3727  0.0635
   90MOL0     H12148   4.381  10.596   9.253  2.0950  0.7395  1.2205
   90MOL0     H12149   3.969  10.774   9.859  0.1722  0.4013 -2.9987
   90MOL0     H12150   3.845  10.844  10.044  1.3004 -2.3873  0.8615
   91MOL0     O12151   8.426   5.406   3.592  0.0410 -0.0518 -0.1472
   91MOL0     C12152   8.535   5.347   3.578 -0.6501  0.3116 -0.0495
   91MOL0     O12153   8.570   5.277   3.473  0.0006 -0.0809 -0.6445
   91MOL0     C12154   8.514   5.278   3.348 -0.0364  0.0846 -1.0282
   91MOL0     C12155   8.447   5.390   3.292  0.1446  0.1268  0.1764
   91MOL0     C12156   8.390   5.387   3.169  0.7246  0.0291  0.9351
   91MOL0     C12157   8.396   5.261   3.099 -0.1957  0.0065  0.4291
   91MOL0     O12158   8.320   5.255   2.985 -0.4861 -0.2507 -0.0206
   91MOL0     C12159   8.261   5.126   2.968  0.2547 -0.4325  0.3904
   91MOL0     C12160   8.128   5.141   2.889  0.7262  0.0628  0.4348
   91MOL0     C12161   8.040   5.249   2.951 -0.5782  0.2550 -0.0953
   91MOL0     C12162   7.902   5.252   2.879  0.5721  0.3688  0.7977
   91MOL0     C12163   7.922   5.306   2.731  0.0594  0.7545  0.0907
   91MOL0     C12164   7.789   5.289   2.647  0.2556 -0.8106 -0.2836
   91MOL0     C12165   7.823   5.294   2.493  0.2804 -0.2477  0.0111
   91MOL0     C12166   7.908   5.412   2.447  0.0165  0.4730 -1.1452
   91MOL0     N12167   7.898   5.449   2.307 -0.2995 -0.4145  0.3853
   91MOL0     C12168   7.779   5.489   2.256 -0.1232  0.2390 -0.4024
   91MOL0     C12169   7.811   5.523   2.132  1.6666  0.3359  0.4677
   91MOL0     C12170   7.715   5.578   2.028 -0.8810 -0.3035  0.7205
   91MOL0     C12171   7.761   5.720   1.976 -0.1114 -0.3334  0.1620
   91MOL0     C12172   7.641   5.792   1.912 -0.0909  0.0171  0.0064
   91MOL0     C12173   7.654   5.944   1.907  0.8743  0.5336  1.0852
   91MOL0     O12174   7.553   6.002   1.821 -0.0425  0.0410 -0.3799
   91MOL0     C12175   7.424   5.986   1.855  0.2011 -0.2450 -0.1161
   91MOL0     C12176   7.377   6.000   1.988 -0.4646 -0.0106 -0.4892
   91MOL0     C12177   7.238   6.002   2.020 -0.2191  0.6491 -0.0280
   91MOL0     C12178   7.188   6.001   2.163  0.2691 -0.0556 -0.6357
   91MOL0     C12179   7.147   5.994   1.909  0.6191 -0.0070 -0.0226
   91MOL0     C12180   6.998   5.993   1.940 -0.2068  0.1314 -0.3714
   91MOL0     O12181   6.939   6.109   1.896  0.2163 -0.0526  0.0921
   91MOL0     C12182   6.817   6.080   1.848  0.3155  0.8760  0.0678
   91MOL0     C12183   6.727   6.184   1.870  0.1780 -0.3118 -0.3355
   91MOL0     C12184   6.594   6.182   1.832  0.0682 -0.1390  0.3916
   91MOL0     C12185   6.540   6.078   1.763 -0.4464  0.2437 -0.9624
   91MOL0     O12186   6.410   6.072   1.738  0.2774 -0.3198  0.2281
   91MOL0     C12187   6.346   5.939   1.759  0.0010 -1.2511  0.0229
   91MOL0     C12188   6.201   5.953   1.723 -0.7158 -0.3087  0.2680
   91MOL0     C12189   6.186   5.977   1.570  0.7739  0.2863  0.2327
   91MOL0     C12190   6.160   6.121   1.534 -0.3653 -0.5118  0.3563
   91MOL0     C12191   6.141   6.140   1.380  0.1323  0.0136  0.7864
   91MOL0     C12192   6.009   6.082   1.331  0.1794  0.1964 -0.1658
   91MOL0     C12193   5.991   6.087   1.186 -0.3782  0.0782  0.4383
   91MOL0     C12194   5.853   6.031   1.141 -0.3308 -0.3432 -1.0305
   91MOL0    Cl12195   5.842   5.853   1.146  0.0510 -0.1327  0.3860
   91MOL0     C12196   6.626   5.977   1.729  0.8924 -0.0817  0.7875
   91MOL0     C12197   6.761   5.978   1.767 -0.3501  0.2570 -1.3547
   91MOL0     O12198   6.941   5.894   1.988  0.4475  0.2967  0.3940
   91MOL0     C12199   7.181   5.988   1.777  0.3193 -0.4795  0.0270
   91MOL0     C12200   7.322   5.993   1.754 -0.0307 -0.8780 -0.5681
   91MOL0     N12201   7.942   5.503   2.118  0.3124 -0.4795  0.1982
   91MOL0     N12202   7.999   5.448   2.214  0.3509 -0.4575  0.2013
   91MOL0     C12203   8.473   5.158   3.146 -0.5800 -0.8727  0.6222
   91MOL0     C12204   8.533   5.165   3.272 -0.0002  0.7573  0.5723
   91MOL0     C12205   8.632   5.351   3.681 -0.6909 -0.2209 -0.0022
   91MOL0     C12206   8.571   5.351   3.809  0.3173 -0.2566  0.1402
   91MOL0     C12207   8.653   5.339   3.922 -0.0715  0.1247 -0.2577
   91MOL0     C12208   8.796   5.319   3.916  0.0674  0.5588  0.9857
   91MOL0     O12209   8.869   5.304   4.030  0.1217  0.3764  0.4980
   91MOL0     C12210   8.823   5.321   4.165  0.4446 -0.7587 -0.1457
   91MOL0     C12211   8.895   5.442   4.227 -0.2562  0.2058 -0.2770
   91MOL0     C12212   8.995   5.404   4.333  0.2231  0.1594  0.5615
   91MOL0     C12213   9.100   5.311   4.276 -0.3984  0.4428 -0.9155
   91MOL0     C12214   9.209   5.309   4.375  0.6380  0.0506  0.4097
   91MOL0     C12215   9.310   5.294   4.451 -0.5417 -0.3052 -0.2017
   91MOL0     C12216   8.852   5.323   3.791 -0.7174 -0.0051 -0.5698
   91MOL0     C12217   8.771   5.344   3.669 -0.3307  0.6466 -0.0596
   91MOL0     H12218   8.448   5.479   3.355 -0.9050  0.6833 -0.5704
   91MOL0     H12219   8.340   5.474   3.128  2.1653  1.4409  2.0357
   91MOL0     H12220   8.333   5.060   2.919 -0.7725 -0.5182 -1.0638
   91MOL0     H12221   8.240   5.083   3.066  0.4772 -1.2664  0.0832
   91MOL0     H12222   8.154   5.158   2.784  1.7720 -1.3303  0.4451
   91MOL0     H12223   8.079   5.043   2.888  1.9012 -0.5641 -1.6972
   91MOL0     H12224   8.037   5.226   3.058  1.4832  1.4313  0.2742
   91MOL0     H12225   8.075   5.351   2.930 -1.6158  0.4393 -0.9891
   91MOL0     H12226   7.864   5.149   2.879 -0.4647  0.7224 -0.3443
   91MOL0     H12227   7.829   5.318   2.926 -0.8306 -0.2645 -0.4058
   91MOL0     H12228   7.966   5.406   2.728  2.2538 -0.1575  0.1624
   91MOL0     H12229   7.989   5.237   2.680 -0.0664 -0.8355  1.9691
   91MOL0     H12230   7.755   5.187   2.663 -0.1138 -1.2249 -3.1690
   91MOL0     H12231   7.707   5.360   2.664  1.0192  0.2269 -0.8694
   91MOL0     H12232   7.874   5.202   2.465  1.0141  0.2363 -0.2964
   91MOL0     H12233   7.729   5.306   2.439 -1.5610 -3.2673  2.2848
   91MOL0     H12234   8.011   5.385   2.470 -0.1952  0.9382  0.4841
   91MOL0     H12235   7.888   5.502   2.506  0.4717  1.1053 -1.9232
   91MOL0     H12236   7.679   5.475   2.297  1.0098 -2.5276  1.7923
   91MOL0     H12237   7.711   5.515   1.938  1.2104 -0.8128  0.9348
   91MOL0     H12238   7.613   5.591   2.066 -1.1763  0.2778 -0.2130
   91MOL0     H12239   7.840   5.702   1.903 -0.8312 -0.3933 -0.6090
   91MOL0     H12240   7.793   5.785   2.059 -0.0509  2.6610 -2.0483
   91MOL0     H12241   7.550   5.783   1.972 -1.1074 -0.5433 -1.5621
   91MOL0     H12242   7.616   5.755   1.812  2.6560 -0.4252 -0.5978
   91MOL0     H12243   7.749   5.963   1.856 -0.4843  2.1984 -1.0111
   91MOL0     H12244   7.658   5.977   2.011  1.9346 -0.2401  1.3105
   91MOL0     H12245   7.448   6.010   2.070  0.0729  1.6054 -1.1129
   91MOL0     H12246   7.144   6.099   2.182 -1.7155 -1.0437  0.0862
   91MOL0     H12247   7.122   5.918   2.185  0.9371 -1.1360 -2.4447
   91MOL0     H12248   7.268   5.984   2.235 -0.5861  0.9350  0.5837
   91MOL0     H12249   6.755   6.263   1.939  0.2431  0.7260 -1.5064
   91MOL0     H12250   6.535   6.271   1.849 -1.1781 -1.4367  3.8826
   91MOL0     H12251   6.394   5.858   1.703  2.2989 -0.7260  1.1060
   91MOL0     H12252   6.344   5.900   1.861 -2.1100 -0.0206  0.5111
   91MOL0     H12253   6.146   5.861   1.744 -0.6779  0.0816  2.1983
   91MOL0     H12254   6.146   6.035   1.770  1.9449  0.7940  1.6615
   91MOL0     H12255   6.097   5.923   1.535  2.2057 -1.6965 -0.4607
   91MOL0     H12256   6.276   5.949   1.515  0.9670 -0.5532  0.9600
   91MOL0     H12257   6.064   6.145   1.582  0.4910  0.8707  1.4680
   91MOL0     H12258   6.244   6.184   1.565  0.6089 -0.7826 -1.5913
   91MOL0     H12259   6.227   6.091   1.333 -1.3473 -1.1136 -0.9111
   91MOL0     H12260   6.143   6.246   1.354 -2.5209 -0.0764 -0.1337
   91MOL0     H12261   5.997   5.979   1.367 -0.0280  1.2109  3.0285
   91MOL0     H12262   5.930   6.153   1.358 -1.3621 -1.0821 -1.1389
   91MOL0     H12263   6.069   6.026   1.141  0.1904 -0.8385  2.5517
   91MOL0     H12264   6.005   6.193   1.162 -1.8402  0.6362  1.8527
   91MOL0     H12265   5.823   6.069   1.043 -2.1804  0.4798 -0.1826
   91MOL0     H12266   5.773   6.076   1.200 -0.1397 -1.4232  0.1046
   91MOL0     H12267   6.583   5.891   1.679  0.1705 -0.1854  1.5831
   91MOL0     H12268   6.823   5.894   1.737  0.6587  0.6350 -0.4271
   91MOL0     H12269   7.104   5.974   1.701  0.1123  1.7861 -0.2518
   91MOL0     H12270   7.380   5.982   1.663 -0.5647 -3.0761 -0.6941
   91MOL0     H12271   8.473   5.065   3.090  1.2697  0.7241 -2.2421
   91MOL0     H12272   8.581   5.074   3.307  3.2620  2.2059  0.1939
   91MOL0     H12273   8.464   5.353   3.826  0.3359  0.7319  0.1591
   91MOL0     H12274   8.601   5.347   4.016 -0.2759  0.0431 -0.3636
   91MOL0     H12275   8.715   5.331   4.174  0.5842  0.0886  0.7020
   91MOL0     H12276   8.833   5.235   4.233 -0.1194 -1.3194 -0.7562
   91MOL0     H12277   8.822   5.506   4.276 -1.2173 -0.6601 -0.5405
   91MOL0     H12278   8.951   5.493   4.148 -2.1369 -1.2706 -2.7092
   91MOL0     H12279   8.953   5.373   4.429 -0.0850 -1.3084 -0.0167
   91MOL0     H12280   9.050   5.494   4.363  2.7103 -1.3977  0.9331
   91MOL0     H12281   9.144   5.353   4.184  0.1576 -1.4759 -1.5681
   91MOL0     H12282   9.062   5.209   4.265 -1.6940  0.7075  0.7002
   91MOL0     H12283   9.391   5.288   4.522 -0.0007  2.5870 -0.4488
   91MOL0     H12284   8.959   5.311   3.778 -0.3587 -0.2275  1.9976
   91MOL0     H12285   8.799   5.326   3.566  1.0854  2.3107 -0.0005
   92MOL0     O12286   7.386   4.226   6.494  0.4953 -0.3628 -0.5619
   92MOL0     C12287   7.354   4.315   6.567  0.0317  0.6266 -0.0274
   92MOL0     O12288   7.238   4.311   6.638  0.2074 -0.1495  0.0187
   92MOL0     C12289   7.116   4.257   6.593 -0.2975  0.3738 -0.3925
   92MOL0     C12290   7.081   4.197   6.472 -0.3959  0.8119 -0.5734
   92MOL0     C12291   6.945   4.159   6.452 -0.1515  0.2944  0.2737
   92MOL0     C12292   6.847   4.177   6.545 -0.1334 -0.0266  0.2282
   92MOL0     O12293   6.720   4.135   6.509  0.5888  0.0536  0.6596
   92MOL0     C12294   6.621   4.192   6.581 -0.3444  0.5708  0.1222
   92MOL0     C12295   6.483   4.177   6.512  0.2718 -0.2736  0.7936
   92MOL0     C12296   6.439   4.035   6.471 -0.1106  0.3503 -0.3986
   92MOL0     C12297   6.297   4.033   6.425  0.6074 -0.0810  0.3597
   92MOL0     C12298   6.243   3.900   6.398  0.3733  0.2625 -0.0134
   92MOL0     C12299   6.215   3.822   6.529 -0.7853 -1.0023  0.1582
   92MOL0     C12300   6.159   3.685   6.488  0.2487  0.6526 -0.4326
   92MOL0     C12301   6.111   3.604   6.606 -0.6068  0.4241 -0.3753
   92MOL0     N12302   6.212   3.568   6.700 -0.3578  0.1490  0.3240
   92MOL0     C12303   6.280   3.458   6.679 -0.0903  0.8820  0.7358
   92MOL0     C12304   6.360   3.435   6.785  0.3480  1.0248  0.3675
   92MOL0     C12305   6.467   3.326   6.787 -0.3549  0.5581  0.3571
   92MOL0     C12306   6.415   3.186   6.794  0.1799  0.3822  0.0671
   92MOL0     C12307   6.524   3.081   6.772 -0.1289 -0.0224 -0.0680
   92MOL0     C12308   6.466   2.950   6.730  0.1568 -0.5700  0.3582
   92MOL0     O12309   6.405   2.890   6.842  0.1830 -0.2450 -0.2925
   92MOL0     C12310   6.373   2.756   6.830 -0.1625 -0.2292  0.9303
   92MOL0     C12311   6.430   2.661   6.911 -0.0229  1.1234 -0.6231
   92MOL0     C12312   6.402   2.525   6.887  0.2865  0.3500  0.3127
   92MOL0     C12313   6.471   2.433   6.974 -0.0199  1.0507  0.0600
   92MOL0     C12314   6.320   2.486   6.779  0.4214  0.4018 -1.0576
   92MOL0     C12315   6.290   2.353   6.733  0.6097 -0.5914 -0.4444
   92MOL0     O12316   6.273   2.339   6.602 -0.1238  0.1208  0.2536
   92MOL0     C12317   6.223   2.221   6.551  0.2147  0.4327  0.3329
   92MOL0     C12318   6.287   2.173   6.432  0.0772 -0.1543 -0.8870
   92MOL0     C12319   6.247   2.050   6.381 -0.1968  0.2104  0.3173
   92MOL0     C12320   6.134   1.986   6.430 -0.1156  0.2550  0.5947
   92MOL0     O12321   6.090   1.863   6.378 -0.6458 -0.3765 -0.9151
   92MOL0     C12322   6.121   1.829   6.238  0.0585 -0.3152  0.3065
   92MOL0     C12323   6.022   1.719   6.197 -0.3984 -1.0093  0.2456
   92MOL0     C12324   6.008   1.703   6.041  0.5578  0.2186  0.6405
   92MOL0     C12325   5.953   1.833   5.971 -0.4459  0.3356  0.2577
   92MOL0     C12326   5.890   1.798   5.832 -0.4522 -0.2886  0.0299
   92MOL0     C12327   5.999   1.744   5.733  0.3581  0.3359  0.1503
   92MOL0     C12328   5.941   1.755   5.581  0.6434 -0.3782 -0.9166
   92MOL0     C12329   5.813   1.662   5.560 -0.8756 -0.1213  0.5382
   92MOL0    Cl12330   5.875   1.489   5.516 -0.1299 -0.4556 -0.5608
   92MOL0     C12331   6.059   2.043   6.535 -0.0419 -0.8949  0.8111
   92MOL0     C12332   6.097   2.164   6.590 -0.4633 -0.8257 -0.1339
   92MOL0     O12333   6.260   2.274   6.821 -0.1029 -0.1160 -0.0125
   92MOL0     C12334   6.269   2.587   6.699  0.9348  0.1250 -0.6781
   92MOL0     C12335   6.290   2.720   6.729 -0.2838 -0.1019 -0.4402
   92MOL0     N12336   6.347   3.550   6.871 -0.3777  0.0179  0.5279
   92MOL0     N12337   6.255   3.613   6.818  0.6813 -0.5322 -0.5437
   92MOL0     C12338   6.883   4.245   6.664 -0.2819 -0.6771  0.7750
   92MOL0     C12339   7.016   4.289   6.689  0.2039 -0.5334 -0.0603
   92MOL0     C12340   7.457   4.402   6.617 -0.5571 -0.5834  0.3266
   92MOL0     C12341   7.595   4.399   6.576 -0.1888 -0.2698  0.0649
   92MOL0     C12342   7.683   4.496   6.600 -0.3070 -0.9292 -0.4590
   92MOL0     C12343   7.658   4.588   6.698  0.6895 -0.0092 -0.5011
   92MOL0     O12344   7.753   4.675   6.730  0.2979 -0.5569  0.5219
   92MOL0     C12345   7.721   4.819   6.728 -0.5722 -0.9671  0.6410
   92MOL0     C12346   7.850   4.901   6.711  0.0953  0.1904  0.6515
   92MOL0     C12347   7.842   5.057   6.707  0.4511 -0.1207  0.2335
   92MOL0     C12348   7.978   5.091   6.654  0.5309  0.8061  0.7555
   92MOL0     C12349   7.975   5.231   6.619  0.0832 -0.6531 -0.1018
   92MOL0     C12350   7.985   5.349   6.589  0.7133  0.2026  0.1923
   92MOL0     C12351   7.531   4.594   6.753  0.7322 -0.0816 -0.0455
   92MOL0     C12352   7.422   4.502   6.716 -0.0025  0.0171 -0.3926
   92MOL0     H12353   7.156   4.169   6.399 -0.0559  2.0700 -0.7260
   92MOL0     H12354   6.922   4.102   6.363  1.4200 -0.8637  0.5661
   92MOL0     H12355   6.621   4.130   6.671  0.4656 -0.8570 -0.8189
   92MOL0     H12356   6.632   4.299   6.600  1.0394  0.9350 -2.3912
   92MOL0     H12357   6.418   4.205   6.595 -0.6868 -1.7171  0.5677
   92MOL0     H12358   6.455   4.236   6.424  0.6433  0.3753  1.1025
   92MOL0     H12359   6.507   3.994   6.396 -0.3450  1.1097 -1.0384
   92MOL0     H12360   6.452   3.981   6.565 -0.8521  2.1883  0.8198
   92MOL0     H12361   6.232   4.099   6.482  2.1292  2.3718 -0.5809
   92MOL0     H12362   6.295   4.091   6.333 -1.5375 -3.1384 -1.7222
   92MOL0     H12363   6.144   3.913   6.354 -1.7763 -3.6705  2.9402
   92MOL0     H12364   6.306   3.843   6.330 -0.4606  0.3133 -0.8497
   92MOL0     H12365   6.304   3.808   6.590 -1.5172 -2.2299  0.9879
   92MOL0     H12366   6.139   3.873   6.589 -0.7989  0.3023 -0.9102
   92MOL0     H12367   6.073   3.706   6.424 -0.2270  0.9894  0.3098
   92MOL0     H12368   6.238   3.629   6.438  0.0556 -0.7738  0.8056
   92MOL0     H12369   6.057   3.514   6.575  1.2474 -0.0810 -2.3831
   92MOL0     H12370   6.038   3.661   6.665  1.3464  2.9976 -0.2922
   92MOL0     H12371   6.280   3.394   6.592  2.4191  3.0222 -1.0176
   92MOL0     H12372   6.533   3.344   6.702  0.8386 -1.6352  0.7586
   92MOL0     H12373   6.528   3.337   6.877 -2.9219  2.1919  2.0157
   92MOL0     H12374   6.340   3.173   6.716 -0.7286 -3.1037  1.3301
   92MOL0     H12375   6.363   3.170   6.889 -1.2576  1.5487 -0.4794
   92MOL0     H12376   6.584   3.071   6.863 -1.2324  1.2431  0.8296
   92MOL0     H12377   6.587   3.109   6.687 -0.4498 -0.4545 -0.4525
   92MOL0     H12378   6.537   2.878   6.688 -1.1895 -1.8787  0.2622
   92MOL0     H12379   6.396   2.970   6.648  2.1359  4.8626 -0.4526
   92MOL0     H12380   6.505   2.697   6.982  1.4265 -0.0171 -1.5297
   92MOL0     H12381   6.566   2.418   6.921 -0.0747  2.1212 -0.3563
   92MOL0     H12382   6.483   2.468   7.077 -3.9503  0.5230  0.8406
   92MOL0     H12383   6.416   2.342   6.997  1.5614 -0.1054 -0.5420
   92MOL0     H12384   6.365   2.221   6.372 -1.3027  1.2051 -1.6647
   92MOL0     H12385   6.292   2.006   6.293 -0.2281  0.0671  0.3727
   92MOL0     H12386   6.100   1.918   6.179  0.4419 -1.0320 -0.9436
   92MOL0     H12387   6.222   1.789   6.233 -0.6094 -2.1342  0.4434
   92MOL0     H12388   6.054   1.627   6.246  3.9943  0.9301  1.5493
   92MOL0     H12389   5.921   1.747   6.229  0.2216  2.7783 -0.5864
   92MOL0     H12390   5.939   1.623   6.012  0.4577  0.6863 -0.4747
   92MOL0     H12391   6.102   1.672   5.993  0.5824  2.4029 -0.8661
   92MOL0     H12392   5.879   1.892   6.026 -0.4264  1.4424 -0.8553
   92MOL0     H12393   6.031   1.907   5.950 -0.9107  0.7818  0.0850
   92MOL0     H12394   5.855   1.893   5.790 -1.6653 -0.4739  0.5812
   92MOL0     H12395   5.801   1.736   5.844 -1.4478  0.8785 -0.9694
   92MOL0     H12396   6.084   1.812   5.735  1.6359 -1.1980  0.1128
   92MOL0     H12397   6.036   1.645   5.764 -0.8550  0.2084  1.2767
   92MOL0     H12398   6.021   1.723   5.514 -0.0161 -0.1746 -1.8265
   92MOL0     H12399   5.919   1.858   5.555  0.0511 -0.2108  0.1852
   92MOL0     H12400   5.746   1.705   5.485 -2.0035  3.5622  3.2983
   92MOL0     H12401   5.742   1.655   5.643 -1.4257  0.4119  0.1201
   92MOL0     H12402   5.972   1.984   6.563 -1.6371  0.3010 -1.3474
   92MOL0     H12403   6.038   2.197   6.675  0.8766  1.2341  0.0553
   92MOL0     H12404   6.214   2.571   6.606  4.1327 -2.1246 -2.3736
   92MOL0     H12405   6.246   2.801   6.672  0.0477 -0.4035 -1.1521
   92MOL0     H12406   6.804   4.272   6.734  0.2775 -0.5832  1.3838
   92MOL0     H12407   7.046   4.344   6.777  2.2656 -1.3041 -0.2239
   92MOL0     H12408   7.612   4.325   6.499  0.9729 -0.8326  0.8419
   92MOL0     H12409   7.778   4.495   6.547  0.6931 -2.7715  1.2392
   92MOL0     H12410   7.661   4.827   6.638  0.1543 -2.1927  0.0088
   92MOL0     H12411   7.668   4.855   6.816  0.2354  0.9759  0.3752
   92MOL0     H12412   7.897   4.863   6.620 -0.8562 -4.7479  1.9457
   92MOL0     H12413   7.917   4.870   6.791  1.1234 -1.5057 -0.7819
   92MOL0     H12414   7.827   5.113   6.800 -0.1330 -1.4702  0.9739
   92MOL0     H12415   7.767   5.093   6.635 -0.2318  0.4269  1.1993
   92MOL0     H12416   7.999   5.034   6.563 -1.2249 -0.6496  1.2002
   92MOL0     H12417   8.045   5.070   6.738  0.3689 -2.7426  0.1321
   92MOL0     H12418   7.996   5.451   6.557 -2.1404  0.1203 -1.4479
   92MOL0     H12419   7.509   4.677   6.819 -0.9539  0.4177 -1.1963
   92MOL0     H12420   7.325   4.506   6.764  0.8154  2.5395  1.3308
   93MOL0     O12421  11.307   0.730  10.632 -0.0143 -0.0389 -0.0115
   93MOL0     C12422  11.228   0.637  10.639 -0.1979 -0.3818  0.6408
   93MOL0     O12423  11.250   0.511  10.682 -0.1373  0.0343  0.1492
   93MOL0     C12424  11.377   0.488  10.740 -0.3173 -0.1366 -0.1720
   93MOL0     C12425  11.445   0.372  10.707 -0.1196 -0.1622 -0.2923
   93MOL0     C12426  11.567   0.339  10.759  0.0816 -0.4681 -0.7974
   93MOL0     C12427  11.636   0.430  10.839  0.7755 -0.2129 -0.9850
   93MOL0     O12428  11.753   0.389  10.890  0.5494  0.5498  0.5120
   93MOL0     C12429  11.792   0.431  11.021 -0.0996 -0.0980 -0.1238
   93MOL0     C12430  11.879   0.326  11.088 -0.0433 -0.1743 -0.1768
   93MOL0     C12431  11.785   0.216  11.141  0.1344  0.5109  0.0545
   93MOL0     C12432  11.845   0.083  11.187 -0.1865  0.1772  0.8739
   93MOL0     C12433  11.749   0.001  11.268 -0.0387  0.0514  0.4320
   93MOL0     C12434  11.726   0.058  11.417 -0.2957 -0.0917 -0.0160
   93MOL0     C12435  11.579   0.075  11.456 -0.0291  0.3870 -0.1580
   93MOL0     C12436  11.515  -0.066  11.456 -0.5308 -0.0434 -1.1055
   93MOL0     N12437  11.370  -0.060  11.458 -0.6073  0.3212 -0.4131
   93MOL0     C12438  11.300   0.016  11.555  0.2151 -0.3619  0.2770
   93MOL0     C12439  11.171  -0.005  11.513  0.3231 -0.6554  0.6556
   93MOL0     C12440  11.052   0.080  11.550 -0.9398 -1.1873  0.0259
   93MOL0     C12441  10.916   0.014  11.542 -0.6314 -0.3392  0.2154
   93MOL0     C12442  10.826   0.075  11.657 -0.3718  1.1264  0.5863
   93MOL0     C12443  10.768   0.202  11.603 -0.9055 -0.5227 -0.8115
   93MOL0     O12444  10.684   0.266  11.699 -0.2611 -0.4098  0.0791
   93MOL0     C12445  10.552   0.243  11.705  0.2760  0.1953 -0.9074
   93MOL0     C12446  10.477   0.155  11.627  0.8945 -0.1093  0.1885
   93MOL0     C12447  10.335   0.128  11.648 -0.0759 -1.2707  0.5949
   93MOL0     C12448  10.278   0.016  11.563  0.0091  0.0210 -0.3564
   93MOL0     C12449  10.268   0.209  11.746  0.5715 -0.5900  0.1448
   93MOL0     C12450  10.124   0.203  11.772  0.7531 -0.2110 -0.9116
   93MOL0     O12451  10.069   0.257  11.879  0.8950  0.0283 -1.0353
   93MOL0     C12452   9.933   0.290  11.877  0.8548 -0.1271 -0.2116
   93MOL0     C12453   9.862   0.199  11.957  0.1213 -0.3354 -0.2567
   93MOL0     C12454   9.725   0.218  11.956 -0.4287 -0.7815 -0.2488
   93MOL0     C12455   9.659   0.319  11.888  0.1221  0.0438  0.8622
   93MOL0     O12456   9.523   0.331  11.884  0.3293 -0.3831  0.2167
   93MOL0     C12457   9.453   0.282  11.997 -0.8096 -0.7966  0.7419
   93MOL0     C12458   9.315   0.340  12.007 -0.4276 -0.9998 -0.8404
   93MOL0     C12459   9.222   0.302  11.887  0.3811  0.2383 -0.7856
   93MOL0     C12460   9.081   0.338  11.927 -0.5388 -0.0482 -1.5338
   93MOL0     C12461   8.986   0.311  11.821 -0.0823  0.5147 -0.0871
   93MOL0     C12462   8.840   0.356  11.862  0.3090 -0.9122 -0.5874
   93MOL0     C12463   8.730   0.304  11.774 -0.8229 -0.1601  0.5218
   93MOL0     C12464   8.716   0.152  11.779 -0.8315 -0.0521 -0.2850
   93MOL0    Cl12465   8.557   0.109  11.723 -0.4076 -0.2106  0.5550
   93MOL0     C12466   9.733   0.403  11.815  0.1103 -0.5154 -0.1849
   93MOL0     C12467   9.870   0.392  11.798  0.3220 -0.7301  0.5906
   93MOL0     O12468  10.057   0.152  11.689  0.0652  0.2942  0.1780
   93MOL0     C12469  10.351   0.288  11.828  0.4513  0.4007 -0.2064
   93MOL0     C12470  10.483   0.309  11.807 -0.4495  0.1165 -0.5502
   93MOL0     N12471  11.166  -0.083  11.393 -0.1480 -0.6823  0.1616
   93MOL0     N12472  11.285  -0.126  11.374  0.5684  0.1855  0.1428
   93MOL0     C12473  11.573   0.548  10.877  0.3258  0.8035  0.1874
   93MOL0     C12474  11.447   0.576  10.824 -0.3668  0.3262 -0.3182
   93MOL0     C12475  11.095   0.662  10.584  0.4224 -0.2700 -0.5093
   93MOL0     C12476  11.044   0.795  10.555 -0.4648 -0.2911 -0.0269
   93MOL0     C12477  10.917   0.817  10.499 -0.0248 -0.0197 -0.2422
   93MOL0     C12478  10.824   0.705  10.479 -0.2507  0.0277 -0.6745
   93MOL0     O12479  10.703   0.750  10.429  0.4050  1.4248  0.0248
   93MOL0     C12480  10.605   0.648  10.390 -1.5243 -0.0888 -0.3603
   93MOL0     C12481  10.483   0.711  10.321 -0.9520 -0.3551  0.0326
   93MOL0     C12482  10.385   0.601  10.288  0.4637  0.0705  0.5492
   93MOL0     C12483  10.241   0.647  10.251 -0.1036 -0.3838 -0.0666
   93MOL0     C12484  10.157   0.538  10.197  0.0970  0.3079 -0.8785
   93MOL0     C12485  10.090   0.442  10.156 -0.8433 -0.1256 -0.6537
   93MOL0     C12486  10.862   0.577  10.518 -0.6560  0.2553  0.0345
   93MOL0     C12487  10.997   0.558  10.568  0.4176  0.1506 -1.1865
   93MOL0     H12488  11.394   0.300  10.644  1.8538 -0.8208 -1.2091
   93MOL0     H12489  11.604   0.239  10.739 -0.0508 -0.0738 -3.3751
   93MOL0     H12490  11.850   0.523  11.007  0.0202 -0.4527 -2.2649
   93MOL0     H12491  11.707   0.442  11.089  1.2871  0.4296  1.6088
   93MOL0     H12492  11.954   0.290  11.017  1.0237 -0.6557  1.1681
   93MOL0     H12493  11.930   0.389  11.162  1.5660 -0.8780 -0.6455
   93MOL0     H12494  11.726   0.250  11.227  2.5715  1.3158  1.5053
   93MOL0     H12495  11.721   0.191  11.056 -0.8157 -1.1703  1.1908
   93MOL0     H12496  11.869   0.019  11.101  1.3504 -0.3786  1.6735
   93MOL0     H12497  11.943   0.096  11.234 -0.1707  0.8132  0.6838
   93MOL0     H12498  11.659   0.001  11.206 -0.3997  0.4793  0.9397
   93MOL0     H12499  11.789  -0.099  11.283  3.5589  1.1584 -0.5392
   93MOL0     H12500  11.773  -0.014  11.485 -1.1725 -0.9870 -0.3345
   93MOL0     H12501  11.786   0.149  11.430  1.3773 -0.5903 -3.2853
   93MOL0     H12502  11.577   0.114  11.558  2.1288 -0.2280  0.1815
   93MOL0     H12503  11.524   0.149  11.397 -3.9202 -2.5251 -0.5063
   93MOL0     H12504  11.548  -0.102  11.554  1.6168  2.2921 -0.8710
   93MOL0     H12505  11.547  -0.130  11.373  2.0933 -0.4272  0.0957
   93MOL0     H12506  11.347   0.067  11.638  0.1801  1.0556 -0.5438
   93MOL0     H12507  11.064   0.124  11.649 -0.1089  1.8487 -1.3099
   93MOL0     H12508  11.066   0.167  11.485  0.4855 -0.7210  0.9028
   93MOL0     H12509  10.942  -0.091  11.554 -2.4498 -0.8631 -0.1980
   93MOL0     H12510  10.877   0.030  11.441 -2.4751 -0.8918  0.8124
   93MOL0     H12511  10.885   0.099  11.746  1.2129  0.3863 -0.2056
   93MOL0     H12512  10.748   0.007  11.692  0.6781 -0.2458  0.3751
   93MOL0     H12513  10.715   0.187  11.509 -0.3241  1.0874 -1.4324
   93MOL0     H12514  10.852   0.270  11.584 -1.4498  0.0987 -1.0208
   93MOL0     H12515  10.519   0.098  11.546  1.5655  0.9333 -0.2191
   93MOL0     H12516  10.193  -0.040  11.602 -2.9684  3.0934 -1.9333
   93MOL0     H12517  10.242   0.061  11.470 -2.4921 -0.5985  0.2275
   93MOL0     H12518  10.364  -0.050  11.545  0.3713 -0.0418  1.4034
   93MOL0     H12519   9.903   0.119  12.018  0.4035 -0.7002 -0.9229
   93MOL0     H12520   9.668   0.148  12.018 -0.3796  0.0993  0.8260
   93MOL0     H12521   9.465   0.173  11.995  2.5223 -0.5758  1.7573
   93MOL0     H12522   9.501   0.314  12.090  3.4155 -0.6098 -1.2684
   93MOL0     H12523   9.265   0.315  12.101 -0.2034  1.6601  0.0724
   93MOL0     H12524   9.329   0.448  12.012  1.3504 -1.2126 -0.3042
   93MOL0     H12525   9.234   0.198  11.853 -3.2083 -1.0122  1.2432
   93MOL0     H12526   9.240   0.362  11.797  2.6241 -0.4361 -0.8513
   93MOL0     H12527   9.060   0.289  12.022  0.7662 -1.6125 -2.0079
   93MOL0     H12528   9.073   0.447  11.937  2.5774  0.1378  0.2290
   93MOL0     H12529   8.972   0.203  11.813  0.6862  0.3269  0.8223
   93MOL0     H12530   9.012   0.349  11.722 -0.7311  0.5438 -0.2490
   93MOL0     H12531   8.821   0.315  11.962  2.1344 -1.9554 -0.6309
   93MOL0     H12532   8.847   0.465  11.862 -1.6112 -0.6934 -3.4399
   93MOL0     H12533   8.750   0.344  11.674  2.3665  2.5056  2.0325
   93MOL0     H12534   8.635   0.346  11.808 -0.6363  0.4718  0.2836
   93MOL0     H12535   8.712   0.113  11.882 -2.4829  1.1856  0.1622
   93MOL0     H12536   8.793   0.096  11.725  0.0414 -0.5354  1.3660
   93MOL0     H12537   9.686   0.485  11.761 -0.6420  0.5795  1.9789
   93MOL0     H12538   9.922   0.465  11.736  0.4910 -1.4333 -0.1212
   93MOL0     H12539  10.311   0.339  11.915  2.7591  0.1839  1.0761
   93MOL0     H12540  10.538   0.371  11.877  1.9768 -2.2683 -0.1369
   93MOL0     H12541  11.610   0.617  10.952 -0.9903  1.4620  0.2587
   93MOL0     H12542  11.410   0.672  10.860 -2.2327 -1.0199  1.5458
   93MOL0     H12543  11.113   0.878  10.549 -0.3921 -0.3815 -0.5317
   93MOL0     H12544  10.891   0.918  10.469  2.3415  0.0275 -2.5396
   93MOL0     H12545  10.656   0.565  10.341 -2.6367  0.3563 -2.3659
   93MOL0     H12546  10.566   0.614  10.487  0.5425  0.5939  0.7842
   93MOL0     H12547  10.536   0.753  10.235 -1.3955 -2.4555 -1.3224
   93MOL0     H12548  10.444   0.795  10.380  0.4257 -1.4868  2.7601
   93MOL0     H12549  10.380   0.537  10.377 -3.7405 -1.5263 -0.6249
   93MOL0     H12550  10.418   0.551  10.197 -1.6533  0.8127 -0.6727
   93MOL0     H12551  10.252   0.724  10.175  0.9081 -0.6412 -0.1976
   93MOL0     H12552  10.201   0.693  10.342 -1.0320 -3.6329  1.3383
   93MOL0     H12553  10.031   0.366  10.109  1.7077 -2.0778 -0.9413
   93MOL0     H12554  10.797   0.491  10.508  0.0106 -0.3268  0.5672
   93MOL0     H12555  11.020   0.458  10.604  0.2786  0.7903  0.7826
   94MOL0     O12556   9.923   7.240   6.710 -0.2306  0.7218  0.0288
   94MOL0     C12557   9.980   7.293   6.618  0.5325  0.1639 -0.5144
   94MOL0     O12558   9.916   7.337   6.503  0.2069 -0.3246 -0.5705
   94MOL0     C12559   9.779   7.324   6.506  0.1529  0.1908  0.0694
   94MOL0     C12560   9.691   7.403   6.584 -0.6869 -0.5427  0.1111
   94MOL0     C12561   9.554   7.380   6.571  0.0408 -0.1820 -0.6126
   94MOL0     C12562   9.500   7.291   6.474 -0.0170  0.4876 -0.5005
   94MOL0     O12563   9.366   7.262   6.471 -1.0639  0.2685  0.3899
   94MOL0     C12564   9.318   7.236   6.337 -0.6644 -0.0608 -0.1215
   94MOL0     C12565   9.177   7.291   6.328 -0.3020  0.4949 -0.5712
   94MOL0     C12566   9.122   7.261   6.186  0.3310 -0.2946  0.7569
   94MOL0     C12567   8.990   7.331   6.169  0.3765  0.6932  0.3154
   94MOL0     C12568   8.942   7.331   6.015  0.9585 -0.4408 -0.0199
   94MOL0     C12569   8.794   7.391   5.991 -0.4703 -0.0636 -0.2005
   94MOL0     C12570   8.683   7.318   6.068 -0.0346 -0.6179  0.4282
   94MOL0     C12571   8.553   7.376   6.018  0.1606  0.8206  0.4957
   94MOL0     N12572   8.448   7.309   6.086  0.4943  0.3578  0.3772
   94MOL0     C12573   8.375   7.350   6.200 -0.4201 -0.1072 -0.7094
   94MOL0     C12574   8.298   7.248   6.233  0.6241  0.1157  0.2277
   94MOL0     C12575   8.216   7.236   6.359  0.6785 -0.1179  0.6389
   94MOL0     C12576   8.062   7.250   6.337  0.0242  0.6816  0.0213
   94MOL0     C12577   7.983   7.117   6.348  0.3888 -0.1467 -0.4252
   94MOL0     C12578   7.827   7.129   6.339 -0.3501 -0.6813 -0.4261
   94MOL0     O12579   7.753   7.019   6.407  0.4286 -0.1892 -0.2047
   94MOL0     C12580   7.625   6.991   6.360  0.4203 -0.1550 -0.1687
   94MOL0     C12581   7.539   7.081   6.286 -0.3423 -0.2284  0.3653
   94MOL0     C12582   7.411   7.048   6.244 -0.5507 -0.9689  0.4259
   94MOL0     C12583   7.334   7.162   6.161 -0.1457 -0.1475  0.6482
   94MOL0     C12584   7.354   6.919   6.265  0.4853  0.4747 -0.0401
   94MOL0     C12585   7.215   6.864   6.221  0.5582 -0.8391 -0.7427
   94MOL0     O12586   7.150   6.947   6.144  0.3833 -1.0094 -0.2976
   94MOL0     C12587   7.009   6.921   6.123 -0.3546  0.2144  0.7054
   94MOL0     C12588   6.920   6.936   6.225 -0.1699 -0.8170  0.9910
   94MOL0     C12589   6.786   6.896   6.212 -0.2247  0.3991  0.6418
   94MOL0     C12590   6.736   6.851   6.086  0.9935  0.5794  0.0835
   94MOL0     O12591   6.607   6.805   6.095  0.0217 -0.8322  0.8420
   94MOL0     C12592   6.551   6.755   5.973  0.4494  0.4697 -0.0536
   94MOL0     C12593   6.399   6.714   5.999  0.8043  0.5385  0.1843
   94MOL0     C12594   6.380   6.684   6.149 -0.1840 -0.6687 -0.6828
   94MOL0     C12595   6.232   6.642   6.164 -0.6108  0.3460  0.2698
   94MOL0     C12596   6.218   6.499   6.128  0.3492  0.5218  0.4614
   94MOL0     C12597   6.080   6.440   6.169 -0.5260 -0.0342 -1.1202
   94MOL0     C12598   5.960   6.499   6.093 -0.6609 -0.2900 -0.5394
   94MOL0     C12599   5.817   6.439   6.133  0.2586  0.1449  0.0673
   94MOL0    Cl12600   5.773   6.501   6.298 -0.3451 -0.5527  0.3348
   94MOL0     C12601   6.827   6.849   5.983  0.5813  0.1063 -0.3475
   94MOL0     C12602   6.957   6.886   6.006 -0.2074 -0.9212 -0.5962
   94MOL0     O12603   7.179   6.751   6.259  0.1676  0.3339 -0.9397
   94MOL0     C12604   7.431   6.840   6.350  0.4774 -0.2594  0.0034
   94MOL0     C12605   7.560   6.871   6.385 -0.7273  0.1456  0.1255
   94MOL0     N12606   8.314   7.142   6.149 -1.2480  0.0101  0.2178
   94MOL0     N12607   8.400   7.179   6.053 -0.4103  0.3147 -1.3908
   94MOL0     C12608   9.597   7.218   6.393  0.2876  0.0630  0.3603
   94MOL0     C12609   9.735   7.243   6.408  0.9989 -0.5659  0.6434
   94MOL0     C12610  10.127   7.308   6.637 -0.4212  0.0623 -1.0043
   94MOL0     C12611  10.196   7.293   6.761 -0.0857  0.6719  0.1556
   94MOL0     C12612  10.336   7.312   6.764  0.1440  1.0803  0.2770
   94MOL0     C12613  10.414   7.348   6.659 -0.7411 -0.1295  0.4265
   94MOL0     O12614  10.543   7.383   6.680  0.2988 -0.1492 -0.4519
   94MOL0     C12615  10.642   7.364   6.580  0.1253  0.1631 -0.8161
   94MOL0     C12616  10.731   7.253   6.629  0.7515 -0.2145  0.1033
   94MOL0     C12617  10.856   7.234   6.547 -0.0415  1.0463  1.0031
   94MOL0     C12618  10.951   7.356   6.548 -0.7386 -0.7350 -0.4078
   94MOL0     C12619  11.080   7.320   6.490 -0.7113 -0.9917 -0.3755
   94MOL0     C12620  11.178   7.290   6.433 -0.3762  0.8141 -0.0645
   94MOL0     C12621  10.339   7.363   6.535 -1.3178  0.3706 -0.0477
   94MOL0     C12622  10.205   7.333   6.520  0.4822 -0.3511 -0.3525
   94MOL0     H12623   9.731   7.459   6.668  0.7729 -3.1933  1.3100
   94MOL0     H12624   9.495   7.430   6.647  0.0707  0.1375 -0.7976
   94MOL0     H12625   9.378   7.288   6.262  1.3024  0.1530  1.5277
   94MOL0     H12626   9.314   7.127   6.323  0.6334  0.0541 -1.7304
   94MOL0     H12627   9.097   7.247   6.390 -0.3890 -0.5686 -1.4175
   94MOL0     H12628   9.177   7.392   6.370 -2.2658 -0.0503  0.8853
   94MOL0     H12629   9.184   7.314   6.113 -1.3106 -0.5083 -0.8491
   94MOL0     H12630   9.115   7.155   6.160  0.2306  0.6808 -4.1616
   94MOL0     H12631   8.910   7.282   6.224 -1.6462  2.1066 -1.2167
   94MOL0     H12632   8.995   7.433   6.207  0.1688  1.5598 -1.8433
   94MOL0     H12633   9.023   7.374   5.955  2.0272 -0.6427  1.2267
   94MOL0     H12634   8.946   7.225   5.988  2.1216 -0.3118 -0.4160
   94MOL0     H12635   8.799   7.492   6.032  0.7910  0.3099 -1.2096
   94MOL0     H12636   8.777   7.407   5.884  2.1092  2.4336 -0.3873
   94MOL0     H12637   8.686   7.209   6.057 -1.6675 -0.7822  1.3014
   94MOL0     H12638   8.696   7.337   6.175  2.6738  0.2205  0.0425
   94MOL0     H12639   8.529   7.364   5.912  0.0899 -0.8658  0.6754
   94MOL0     H12640   8.561   7.480   6.051  2.3215  0.3517  1.6070
   94MOL0     H12641   8.383   7.446   6.251 -1.1933  0.4723 -1.6405
   94MOL0     H12642   8.246   7.150   6.420 -0.1834  1.6725  3.8129
   94MOL0     H12643   8.255   7.312   6.427  3.2537 -0.6583 -0.1237
   94MOL0     H12644   8.044   7.301   6.241  1.8595  4.2333  1.3971
   94MOL0     H12645   8.037   7.327   6.411  1.7471  3.4585 -2.0494
   94MOL0     H12646   8.009   7.079   6.447  0.9373  2.6450  0.5716
   94MOL0     H12647   8.022   7.056   6.266 -2.1691 -0.1940 -1.7185
   94MOL0     H12648   7.802   7.131   6.232  1.5349  1.8255 -0.9099
   94MOL0     H12649   7.791   7.224   6.380 -0.0686 -1.2292  1.1573
   94MOL0     H12650   7.581   7.178   6.261  0.5130 -1.1598 -2.1246
   94MOL0     H12651   7.405   7.240   6.137 -0.3177  0.7810  2.8703
   94MOL0     H12652   7.296   7.122   6.066 -1.1172 -0.8657  1.3087
   94MOL0     H12653   7.252   7.207   6.218 -0.7162 -0.6537  0.2485
   94MOL0     H12654   6.939   6.964   6.328  0.7104  2.5085  0.0597
   94MOL0     H12655   6.718   6.898   6.297  0.7720  3.5771  1.4859
   94MOL0     H12656   6.563   6.825   5.890  1.5119  0.9476  0.4777
   94MOL0     H12657   6.610   6.666   5.949 -0.2284  0.1480 -0.5611
   94MOL0     H12658   6.336   6.793   5.956 -0.2781 -1.1223 -1.4272
   94MOL0     H12659   6.376   6.622   5.945 -0.9051 -0.4305  2.4119
   94MOL0     H12660   6.402   6.775   6.205 -2.1883 -1.6437  1.8755
   94MOL0     H12661   6.440   6.603   6.189  2.6677  1.2865 -0.6870
   94MOL0     H12662   6.204   6.654   6.269  1.7237  0.9753  0.8807
   94MOL0     H12663   6.156   6.700   6.111 -3.9530 -3.9144 -0.1707
   94MOL0     H12664   6.295   6.440   6.177 -2.1002 -2.2657  1.2061
   94MOL0     H12665   6.219   6.482   6.020  1.9049  2.4048  0.1169
   94MOL0     H12666   6.082   6.333   6.147  0.4966 -0.5814  1.3230
   94MOL0     H12667   6.069   6.450   6.277 -0.0573 -0.9984 -0.9808
   94MOL0     H12668   5.988   6.476   5.990  1.4565 -4.3579  0.7152
   94MOL0     H12669   5.971   6.607   6.102  1.5359 -0.4265 -0.8807
   94MOL0     H12670   5.820   6.329   6.130 -2.9705 -0.0580  0.6016
   94MOL0     H12671   5.750   6.486   6.060 -0.4837 -0.5630  0.2720
   94MOL0     H12672   6.809   6.796   5.891  1.6437  1.6139 -1.4773
   94MOL0     H12673   7.023   6.865   5.922 -0.8480 -2.0379 -0.8475
   94MOL0     H12674   7.389   6.750   6.392 -0.0688  0.3724  0.8399
   94MOL0     H12675   7.613   6.799   6.446  2.0601  2.1371  0.2153
   94MOL0     H12676   9.570   7.147   6.316 -2.2646  1.1507  0.1495
   94MOL0     H12677   9.811   7.195   6.347  0.9808 -1.2066  1.1103
   94MOL0     H12678  10.136   7.278   6.850  0.7065 -2.3814  0.3027
   94MOL0     H12679  10.389   7.304   6.859  0.5508  1.8666  0.1252
   94MOL0     H12680  10.608   7.347   6.477 -1.8864 -1.7836  0.1023
   94MOL0     H12681  10.695   7.460   6.576  0.1452  0.1529 -0.7960
   94MOL0     H12682  10.677   7.158   6.627  3.7290 -2.0205 -1.2873
   94MOL0     H12683  10.759   7.270   6.733 -0.8869 -3.8510  1.2854
   94MOL0     H12684  10.831   7.198   6.447 -0.6620  1.2215  1.0938
   94MOL0     H12685  10.911   7.150   6.590  1.9989  1.9712  0.3505
   94MOL0     H12686  10.955   7.392   6.652 -3.7442 -1.6296  0.1045
   94MOL0     H12687  10.906   7.441   6.495 -0.7441  0.6693  1.6970
   94MOL0     H12688  11.270   7.258   6.388  1.0486  2.4407  1.5842
   94MOL0     H12689  10.399   7.384   6.448  0.2068 -0.7695  0.6816
   94MOL0     H12690  10.159   7.338   6.422  0.8033  0.1536 -0.4816
   95MOL0     O12691   4.357   1.799   4.491 -0.2223  0.1735 -0.0623
   95MOL0     C12692   4.428   1.863   4.420 -0.8528 -0.5363 -0.0293
   95MOL0     O12693   4.392   1.945   4.317 -0.2133  0.1606 -0.0220
   95MOL0     C12694   4.269   1.975   4.288 -0.5280 -0.4444  0.0732
   95MOL0     C12695   4.239   2.097   4.230 -0.6691  0.4855 -0.3774
   95MOL0     C12696   4.100   2.126   4.223  0.2702 -0.1468 -0.0561
   95MOL0     C12697   3.997   2.038   4.246 -0.9744  0.4307 -0.5775
   95MOL0     O12698   3.870   2.085   4.241 -0.2823 -0.0638  0.5478
   95MOL0     C12699   3.774   2.031   4.315  0.4492  0.0502 -0.1456
   95MOL0     C12700   3.640   2.112   4.292  0.0425 -0.0013  0.2661
   95MOL0     C12701   3.580   2.103   4.151 -0.6397  0.0538 -0.4287
   95MOL0     C12702   3.514   1.958   4.119  0.2018 -0.6530 -0.4136
   95MOL0     C12703   3.496   1.923   3.975  0.8577 -0.0572  0.7339
   95MOL0     C12704   3.377   2.017   3.916  0.2052  0.1265  0.4370
   95MOL0     C12705   3.334   2.005   3.769 -0.3254  0.0326 -0.8132
   95MOL0     C12706   3.371   1.865   3.707  0.4523  0.5408 -0.2725
   95MOL0     N12707   3.262   1.842   3.618 -0.4076  0.6647 -0.6750
   95MOL0     C12708   3.132   1.803   3.654 -0.8427  0.0157 -0.1446
   95MOL0     C12709   3.057   1.847   3.552  0.2911  0.4441 -0.1461
   95MOL0     C12710   2.911   1.841   3.547  0.2477  0.0301 -0.1270
   95MOL0     C12711   2.884   1.702   3.475  0.5467  0.7455 -0.5362
   95MOL0     C12712   2.743   1.699   3.417  0.1464  0.4897  0.3916
   95MOL0     C12713   2.633   1.695   3.525 -0.4478  0.4339 -1.0518
   95MOL0     O12714   2.504   1.671   3.478  0.0453 -0.4510  0.4711
   95MOL0     C12715   2.448   1.777   3.408  1.0824  0.4510 -0.0468
   95MOL0     C12716   2.333   1.758   3.337  0.3334  0.7866  0.8805
   95MOL0     C12717   2.276   1.852   3.257 -1.0454  0.6852  0.4757
   95MOL0     C12718   2.159   1.800   3.177  0.5236 -0.0919  0.9806
   95MOL0     C12719   2.329   1.983   3.250 -0.1437 -0.5396  0.4145
   95MOL0     C12720   2.281   2.087   3.165  0.0052 -0.2752 -0.1754
   95MOL0     O12721   2.368   2.190   3.145  0.0362 -0.4596 -0.3000
   95MOL0     C12722   2.320   2.286   3.056 -0.7228  0.9482  0.0584
   95MOL0     C12723   2.218   2.381   3.092 -0.6265  0.1849  0.3353
   95MOL0     C12724   2.181   2.476   2.989 -0.0292  0.3051  0.3133
   95MOL0     C12725   2.249   2.486   2.869  0.0105 -0.4795  0.1959
   95MOL0     O12726   2.201   2.586   2.789  0.0782  0.1765 -0.3033
   95MOL0     C12727   2.236   2.579   2.647  0.7735  0.2730 -0.3709
   95MOL0     C12728   2.194   2.703   2.569 -0.3622  0.4550 -0.0655
   95MOL0     C12729   2.041   2.701   2.539 -0.4373  0.3457  0.0238
   95MOL0     C12730   2.008   2.846   2.503 -0.3008  0.3839  0.6558
   95MOL0     C12731   1.897   2.862   2.400  0.5184 -0.3029  0.5002
   95MOL0     C12732   1.754   2.839   2.445  0.7300  0.9121  0.9638
   95MOL0     C12733   1.649   2.818   2.329 -0.1985  0.8138 -0.3940
   95MOL0     C12734   1.551   2.699   2.376  0.2450 -0.6656  1.0838
   95MOL0    Cl12735   1.421   2.677   2.254  0.4712  0.1251  0.1108
   95MOL0     C12736   2.354   2.399   2.843 -0.0673 -0.4305 -0.4973
   95MOL0     C12737   2.381   2.294   2.939 -0.0183 -0.8771  1.0606
   95MOL0     O12738   2.170   2.071   3.118 -0.2108 -0.3558  0.3127
   95MOL0     C12739   2.450   2.009   3.328  0.0899 -0.5735 -0.8424
   95MOL0     C12740   2.498   1.910   3.405  0.6472 -0.2788  0.0834
   95MOL0     N12741   3.138   1.887   3.446  0.3359  0.4878 -0.1272
   95MOL0     N12742   3.263   1.885   3.485 -0.3778  0.0690 -0.0821
   95MOL0     C12743   4.041   1.910   4.285 -0.1860 -0.5911  0.0531
   95MOL0     C12744   4.170   1.873   4.304  0.2200 -0.8508 -0.3538
   95MOL0     C12745   4.573   1.845   4.442 -0.0875  0.0207  0.1132
   95MOL0     C12746   4.670   1.884   4.336  0.1661  0.8517  0.7276
   95MOL0     C12747   4.813   1.871   4.359  0.2925 -0.1051  0.4254
   95MOL0     C12748   4.864   1.818   4.480 -0.1139 -0.2761 -0.3085
   95MOL0     O12749   4.998   1.787   4.510 -0.3463 -0.7599  0.1024
   95MOL0     C12750   5.102   1.837   4.422 -0.5905 -0.3112  0.4039
   95MOL0     C12751   5.227   1.751   4.454  0.6700 -0.1223  0.6231
   95MOL0     C12752   5.350   1.797   4.381  0.3471  1.0430  0.7447
   95MOL0     C12753   5.477   1.725   4.418  0.1008 -0.1367  0.0919
   95MOL0     C12754   5.481   1.588   4.356  0.3358  0.4537  0.1095
   95MOL0     C12755   5.502   1.473   4.322 -0.5990 -0.0781  0.2962
   95MOL0     C12756   4.766   1.801   4.579 -0.4835  0.0535  0.0743
   95MOL0     C12757   4.629   1.809   4.569 -0.3013 -0.3259  0.3126
   95MOL0     H12758   4.314   2.171   4.203 -2.0894  1.4052 -1.9682
   95MOL0     H12759   4.068   2.229   4.212 -0.4244 -0.3587 -0.0386
   95MOL0     H12760   3.756   1.931   4.275  0.8682  0.7565 -2.2912
   95MOL0     H12761   3.806   2.012   4.417  0.2622  0.4972  0.0000
   95MOL0     H12762   3.565   2.087   4.368 -0.4545  2.3710  0.6299
   95MOL0     H12763   3.661   2.219   4.300 -0.7791  0.4097 -2.2347
   95MOL0     H12764   3.496   2.171   4.133 -0.7819 -0.7389 -3.2978
   95MOL0     H12765   3.662   2.123   4.081  0.8232 -0.0733  1.2015
   95MOL0     H12766   3.567   1.878   4.172  0.1338 -0.2571  0.2560
   95MOL0     H12767   3.419   1.956   4.172  1.6275 -1.7051  2.3114
   95MOL0     H12768   3.588   1.935   3.917  1.8380 -4.9249  0.8575
   95MOL0     H12769   3.467   1.818   3.971 -0.6976  0.3660 -2.6263
   95MOL0     H12770   3.287   2.007   3.978 -0.0439 -2.9572 -0.2501
   95MOL0     H12771   3.420   2.118   3.922  2.8480 -0.5593 -3.4250
   95MOL0     H12772   3.228   2.026   3.753 -0.4105 -1.2349 -2.1797
   95MOL0     H12773   3.385   2.087   3.717 -0.9867 -0.7224 -2.7541
   95MOL0     H12774   3.371   1.789   3.786  0.3957  1.6172  0.7859
   95MOL0     H12775   3.466   1.869   3.654  0.7860  0.4826  0.3138
   95MOL0     H12776   3.093   1.777   3.751 -3.6416  0.1311 -1.1460
   95MOL0     H12777   2.869   1.833   3.647 -2.3089 -2.9971 -1.2696
   95MOL0     H12778   2.866   1.917   3.482 -1.1323 -1.3228 -0.7954
   95MOL0     H12779   2.887   1.623   3.551  1.0621  0.3441 -0.9618
   95MOL0     H12780   2.967   1.685   3.405  0.1882  3.2631 -1.6616
   95MOL0     H12781   2.722   1.615   3.350  0.5643 -1.1101  2.1983
   95MOL0     H12782   2.735   1.791   3.357 -1.2382  0.2759  0.2197
   95MOL0     H12783   2.633   1.785   3.587 -0.7124  2.8141 -4.2359
   95MOL0     H12784   2.654   1.613   3.595 -3.2119  0.5464  0.0310
   95MOL0     H12785   2.303   1.653   3.340  1.1689  0.5298  0.4288
   95MOL0     H12786   2.128   1.699   3.206  1.2016 -0.3232  0.9018
   95MOL0     H12787   2.064   1.851   3.195 -0.7375 -0.7239 -2.8665
   95MOL0     H12788   2.177   1.801   3.069 -1.8542  1.6289  0.5163
   95MOL0     H12789   2.165   2.367   3.186  0.7368  0.8169  1.2243
   95MOL0     H12790   2.097   2.543   3.002  1.6231  2.3672  0.9974
   95MOL0     H12791   2.343   2.572   2.628  1.1248 -1.0435  1.7587
   95MOL0     H12792   2.189   2.487   2.613  1.2124 -0.5353  1.1152
   95MOL0     H12793   2.223   2.789   2.629 -1.9667  1.3548 -0.5293
   95MOL0     H12794   2.246   2.707   2.472  1.0303  1.1664  0.6713
   95MOL0     H12795   1.983   2.665   2.625 -2.2140  1.0106 -0.8530
   95MOL0     H12796   2.024   2.627   2.461 -3.7050  2.2757 -1.2914
   95MOL0     H12797   1.979   2.894   2.597 -0.9947  0.6745  0.2978
   95MOL0     H12798   2.095   2.897   2.462 -0.1061 -1.7153 -1.8122
   95MOL0     H12799   1.915   2.791   2.319  3.8035  0.7542  0.1244
   95MOL0     H12800   1.915   2.962   2.359  1.9482 -0.3203  0.9980
   95MOL0     H12801   1.760   2.751   2.510 -0.7642 -0.2918 -0.4506
   95MOL0     H12802   1.714   2.924   2.501 -0.0792  0.7102  0.7019
   95MOL0     H12803   1.700   2.795   2.235 -0.4976 -2.2263  0.1033
   95MOL0     H12804   1.589   2.905   2.301 -0.6802 -0.4056 -3.4515
   95MOL0     H12805   1.501   2.729   2.469 -3.0290 -2.6460  0.1028
   95MOL0     H12806   1.607   2.607   2.397  1.3566 -0.3162 -0.2004
   95MOL0     H12807   2.403   2.406   2.747  2.0820  0.7808  0.5971
   95MOL0     H12808   2.460   2.222   2.919  1.1996  1.0717 -1.8373
   95MOL0     H12809   2.499   2.106   3.338  1.2641 -1.4016  3.7457
   95MOL0     H12810   2.583   1.940   3.466  0.9636  1.6124 -1.2037
   95MOL0     H12811   3.971   1.835   4.320 -1.0263 -0.8101 -1.9763
   95MOL0     H12812   4.183   1.771   4.337 -1.9872 -0.9592  0.3475
   95MOL0     H12813   4.636   1.920   4.240  0.9964  0.9024  0.4485
   95MOL0     H12814   4.878   1.915   4.284 -1.5523 -0.0598 -1.2171
   95MOL0     H12815   5.075   1.829   4.316 -1.9614 -0.6358  0.7656
   95MOL0     H12816   5.117   1.942   4.446  0.1556 -0.1661 -0.5780
   95MOL0     H12817   5.209   1.647   4.424 -0.0232  0.2343 -0.2160
   95MOL0     H12818   5.247   1.745   4.562  1.3452 -1.3282  0.4482
   95MOL0     H12819   5.376   1.893   4.426  2.9983  1.6937 -1.8767
   95MOL0     H12820   5.329   1.804   4.274 -0.0474 -0.5818  0.6926
   95MOL0     H12821   5.487   1.722   4.527 -4.3652 -0.2619  0.6740
   95MOL0     H12822   5.567   1.776   4.381  0.3939 -0.2865  0.5752
   95MOL0     H12823   5.543   1.380   4.290 -0.8272 -0.1659  0.2596
   95MOL0     H12824   4.814   1.778   4.673  2.8476 -0.0316 -1.5159
   95MOL0     H12825   4.572   1.782   4.657 -0.8199 -2.4948 -0.6169
   96MOL0     O12826   5.147   0.285   9.986 -0.0650 -0.4424  0.1703
   96MOL0     C12827   5.144   0.167   9.961 -0.4171 -0.0062  0.2471
   96MOL0     O12828   5.029   0.098   9.914 -0.1011  0.6437 -0.4144
   96MOL0     C12829   4.937   0.182   9.865 -0.1335  0.3903  0.1847
   96MOL0     C12830   4.926   0.197   9.722  0.1035 -0.5360 -0.6772
   96MOL0     C12831   4.840   0.286   9.669 -0.3317 -0.6742  0.3917
   96MOL0     C12832   4.754   0.361   9.747 -0.2089  0.2566 -0.3145
   96MOL0     O12833   4.673   0.448   9.683  1.2736 -0.5004  0.1174
   96MOL0     C12834   4.559   0.519   9.746  0.3883 -0.8490  0.5405
   96MOL0     C12835   4.439   0.426   9.777  0.3988  0.0143 -0.1893
   96MOL0     C12836   4.305   0.493   9.795 -0.5973 -0.8231  0.4785
   96MOL0     C12837   4.184   0.405   9.803  0.7111 -0.2840  0.0609
   96MOL0     C12838   4.053   0.486   9.831 -0.7225  0.0879 -0.9036
   96MOL0     C12839   3.942   0.385   9.821 -0.6695 -0.3098  0.2061
   96MOL0     C12840   3.820   0.452   9.878 -0.3034  0.0413 -0.1903
   96MOL0     C12841   3.703   0.359   9.893  0.2075  0.8280  0.0128
   96MOL0     N12842   3.569   0.421   9.903  0.0436  0.1728 -0.2134
   96MOL0     C12843   3.537   0.546   9.962 -0.3654  0.4033  0.3340
   96MOL0     C12844   3.403   0.556   9.953  0.9056 -0.3424  0.0962
   96MOL0     C12845   3.314   0.673   9.999 -0.5569  0.0936  0.3876
   96MOL0     C12846   3.180   0.641  10.077  0.4826 -0.1390  0.3509
   96MOL0     C12847   3.083   0.558   9.993  0.8358  0.2149  0.3534
   96MOL0     C12848   2.947   0.540  10.060  0.5513  1.4520  0.4389
   96MOL0     O12849   2.856   0.458   9.985 -0.6337 -0.4760 -0.3949
   96MOL0     C12850   2.723   0.449  10.026  0.0927 -0.3200  0.5236
   96MOL0     C12851   2.652   0.344   9.968  0.6418 -0.4077 -0.4948
   96MOL0     C12852   2.522   0.320  10.015  0.1956  0.1172  0.0098
   96MOL0     C12853   2.442   0.203   9.953  0.3318  0.0057  0.1790
   96MOL0     C12854   2.461   0.397  10.121 -1.0635 -0.3065 -0.1744
   96MOL0     C12855   2.313   0.368  10.161 -0.1178 -0.7481 -0.1954
   96MOL0     O12856   2.274   0.429  10.276 -0.4417 -0.9268 -0.1116
   96MOL0     C12857   2.148   0.440  10.326  0.1933  0.6087 -0.0746
   96MOL0     C12858   2.130   0.527  10.433 -0.4215 -0.5691  0.0611
   96MOL0     C12859   2.007   0.542  10.499  0.7433  0.2248 -0.1572
   96MOL0     C12860   1.891   0.463  10.455 -0.5674  0.4766  0.0778
   96MOL0     O12861   1.778   0.470  10.535  0.9797  0.9206 -0.2297
   96MOL0     C12862   1.733   0.338  10.582  0.0853 -0.1193  0.1675
   96MOL0     C12863   1.598   0.356  10.648  0.4171 -0.6796 -0.9644
   96MOL0     C12864   1.610   0.427  10.778  0.0991  0.8945 -0.1419
   96MOL0     C12865   1.499   0.530  10.806 -0.4965 -0.2361  0.5241
   96MOL0     C12866   1.357   0.485  10.783  0.0601 -0.6032 -0.4150
   96MOL0     C12867   1.318   0.391  10.897  0.2022 -0.1411 -0.5019
   96MOL0     C12868   1.185   0.324  10.875 -0.1033 -0.2781  0.2104
   96MOL0     C12869   1.052   0.407  10.890  0.1362  0.5792 -0.4029
   96MOL0    Cl12870   1.027   0.465  11.061  0.3846  0.3850  0.4742
   96MOL0     C12871   1.909   0.388  10.340  0.6355 -0.1787  0.3778
   96MOL0     C12872   2.030   0.373  10.281  0.8458  0.1826  0.1363
   96MOL0     O12873   2.239   0.301  10.094  0.1782  0.4575  0.0147
   96MOL0     C12874   2.544   0.500  10.178  0.6692  0.6779  0.2490
   96MOL0     C12875   2.669   0.521  10.130  0.2923 -0.5878  0.0547
   96MOL0     N12876   3.363   0.437   9.894 -1.5027  1.1494 -0.6423
   96MOL0     N12877   3.457   0.353   9.870 -0.0412  0.0167 -0.6176
   96MOL0     C12878   4.763   0.343   9.889  0.5080  0.3733 -0.4735
   96MOL0     C12879   4.851   0.248   9.945  0.7965 -0.1460  0.1622
   96MOL0     C12880   5.269   0.089   9.995 -0.3518 -0.1079 -0.8077
   96MOL0     C12881   5.376   0.145  10.062 -0.1499  0.3273  0.0334
   96MOL0     C12882   5.488   0.070  10.092  0.0496  0.7252  0.3877
   96MOL0     C12883   5.500  -0.063  10.052 -0.4809 -0.9779  0.7797
   96MOL0     O12884   5.600  -0.147  10.089  0.6764 -0.4952  0.2026
   96MOL0     C12885   5.730  -0.082  10.086  0.4868 -0.1538 -0.5763
   96MOL0     C12886   5.832  -0.180  10.138  0.0008  0.2038  0.3217
   96MOL0     C12887   5.821  -0.198  10.287  0.5999 -0.9435 -0.6629
   96MOL0     C12888   5.908  -0.300  10.343  0.5944 -0.0737 -0.0118
   96MOL0     C12889   6.055  -0.309  10.330 -0.1136 -1.5490  0.7875
   96MOL0     C12890   6.181  -0.297  10.308 -0.1720  0.5716  1.0063
   96MOL0     C12891   5.398  -0.112   9.978  0.1953  0.4885  0.9451
   96MOL0     C12892   5.279  -0.047   9.956  0.7429 -0.7483 -0.7842
   96MOL0     H12893   4.989   0.134   9.660  0.3792 -1.1321  0.1814
   96MOL0     H12894   4.839   0.294   9.561 -2.5864  1.1537  0.4680
   96MOL0     H12895   4.602   0.566   9.836 -0.1891 -2.5504  1.7588
   96MOL0     H12896   4.532   0.599   9.677  1.4967  0.9399  2.0707
   96MOL0     H12897   4.435   0.357   9.692  1.7363 -2.0800  1.3380
   96MOL0     H12898   4.468   0.360   9.859  2.3810  0.5173 -0.4461
   96MOL0     H12899   4.306   0.560   9.881  0.1118 -0.1765 -0.0274
   96MOL0     H12900   4.301   0.556   9.706  0.3181  0.1606  1.1131
   96MOL0     H12901   4.177   0.350   9.709 -0.1344  0.6012 -0.4073
   96MOL0     H12902   4.197   0.337   9.888 -0.4455 -2.1167 -1.1591
   96MOL0     H12903   4.056   0.534   9.930 -0.8620 -1.3899 -0.1584
   96MOL0     H12904   4.036   0.565   9.757  1.0831 -0.7462 -2.2593
   96MOL0     H12905   3.929   0.360   9.715  1.5456  1.6944 -0.6107
   96MOL0     H12906   3.966   0.294   9.877 -1.7281 -0.1042  1.0232
   96MOL0     H12907   3.842   0.492   9.978  1.7751  0.9110 -0.9437
   96MOL0     H12908   3.799   0.542   9.820  0.8780  2.7680  3.2557
   96MOL0     H12909   3.720   0.293   9.979 -0.2385  2.2940  1.2667
   96MOL0     H12910   3.700   0.288   9.810  1.2000 -1.2505  1.6632
   96MOL0     H12911   3.605   0.613  10.014  1.1173 -1.1943  0.5375
   96MOL0     H12912   3.366   0.741  10.067  1.0935  1.1122 -1.7693
   96MOL0     H12913   3.281   0.720   9.906  0.0480  0.6346  0.4422
   96MOL0     H12914   3.134   0.737  10.102  1.4101  0.2113  0.7904
   96MOL0     H12915   3.195   0.589  10.172 -1.0355 -0.7194  0.2901
   96MOL0     H12916   3.124   0.461   9.964 -2.0685 -0.3488 -2.4822
   96MOL0     H12917   3.058   0.609   9.899  2.2023  0.0022 -0.1556
   96MOL0     H12918   2.913   0.643  10.074 -0.2298  1.5919 -2.0666
   96MOL0     H12919   2.974   0.487  10.152 -0.0702 -0.3408 -0.3573
   96MOL0     H12920   2.716   0.273   9.916  1.6746 -0.5672  0.9200
   96MOL0     H12921   2.502   0.151   9.877  1.5376  1.0434  0.3955
   96MOL0     H12922   2.414   0.132  10.031  1.8703 -1.7001 -0.7317
   96MOL0     H12923   2.366   0.254   9.893 -1.0702  1.2541  2.8567
   96MOL0     H12924   2.215   0.587  10.466 -0.4015 -0.7559  0.3584
   96MOL0     H12925   2.001   0.616  10.579  1.6366 -0.3978  0.5151
   96MOL0     H12926   1.729   0.274  10.493 -0.2883 -0.0106  0.1044
   96MOL0     H12927   1.800   0.304  10.662 -1.3418  0.1716  1.5423
   96MOL0     H12928   1.547   0.422  10.578  0.4549  0.9102  0.4548
   96MOL0     H12929   1.546   0.264  10.677 -1.2772  0.6852  0.5751
   96MOL0     H12930   1.707   0.476  10.792 -0.3815  1.4008  1.6670
   96MOL0     H12931   1.594   0.348  10.852 -4.2297  2.7628  1.2677
   96MOL0     H12932   1.515   0.575  10.904 -2.1765  1.5546  0.0468
   96MOL0     H12933   1.517   0.613  10.737  1.5212 -1.7712 -0.9246
   96MOL0     H12934   1.351   0.437  10.685  3.3649 -2.6511  0.2147
   96MOL0     H12935   1.282   0.564  10.780  1.2965  0.6816  0.8052
   96MOL0     H12936   1.387   0.309  10.917 -1.8381 -1.2130  2.9579
   96MOL0     H12937   1.315   0.443  10.993 -0.3431  1.1049 -1.1704
   96MOL0     H12938   1.180   0.242  10.948 -0.6753 -0.7527 -0.3576
   96MOL0     H12939   1.193   0.283  10.774 -0.4742 -4.8255  1.7977
   96MOL0     H12940   0.971   0.339  10.861  1.0330  0.1415 -1.9801
   96MOL0     H12941   1.041   0.492  10.822  0.3461 -0.8389 -2.2839
   96MOL0     H12942   1.821   0.331  10.315  1.4746 -2.8575  3.0001
   96MOL0     H12943   2.024   0.319  10.187  1.3033 -1.2945  0.9253
   96MOL0     H12944   2.499   0.558  10.258 -1.7657  0.7380 -1.0401
   96MOL0     H12945   2.729   0.595  10.182 -0.6179  1.6867 -1.9304
   96MOL0     H12946   4.699   0.396   9.959  2.9003 -0.4634  2.5523
   96MOL0     H12947   4.853   0.230  10.052  2.0167  1.7632  0.5077
   96MOL0     H12948   5.373   0.244  10.107 -3.1131  2.3408 -3.9951
   96MOL0     H12949   5.557   0.126  10.154 -0.0152 -0.0936  1.2165
   96MOL0     H12950   5.762  -0.046   9.988  1.4101 -0.9039 -0.5671
   96MOL0     H12951   5.741  -0.002  10.160  0.1926  1.1051 -1.8621
   96MOL0     H12952   5.932  -0.143  10.115  0.4657 -2.0830 -1.7233
   96MOL0     H12953   5.815  -0.274  10.084 -4.6609  1.3637 -0.6997
   96MOL0     H12954   5.720  -0.222  10.322  0.3544  0.2401 -0.5328
   96MOL0     H12955   5.856  -0.103  10.328 -2.5916  1.0572 -2.1885
   96MOL0     H12956   5.861  -0.396  10.318 -1.0368  0.2233  1.7012
   96MOL0     H12957   5.895  -0.304  10.451 -2.5828 -3.8938 -0.2943
   96MOL0     H12958   6.288  -0.300  10.305 -0.0946  2.6450 -0.9473
   96MOL0     H12959   5.397  -0.218   9.952 -1.6748  0.2564  1.7748
   96MOL0     H12960   5.187  -0.095   9.925 -0.6753  0.1997  1.6169
   97MOL0     O12961  10.190   1.678   2.263  0.1953  0.9648  0.2603
   97MOL0     C12962  10.203   1.720   2.378  0.1402  0.6410  0.1857
   97MOL0     O12963  10.096   1.754   2.465 -0.3430  0.2962 -0.2857
   97MOL0     C12964   9.970   1.756   2.420 -0.5696 -0.9262  0.0953
   97MOL0     C12965   9.934   1.795   2.288 -0.2758  1.0987  0.2532
   97MOL0     C12966   9.796   1.788   2.245  0.6189 -0.4088 -0.1086
   97MOL0     C12967   9.701   1.743   2.337  0.1077  0.2494  0.9387
   97MOL0     O12968   9.573   1.746   2.297  0.3488 -0.1888 -0.3916
   97MOL0     C12969   9.523   1.849   2.200 -0.6322  1.0194 -0.5307
   97MOL0     C12970   9.364   1.849   2.184 -0.7319  1.4370  0.2287
   97MOL0     C12971   9.293   1.905   2.308  0.0087 -0.1478  0.0988
   97MOL0     C12972   9.272   1.791   2.413 -1.1211 -0.3963  0.2707
   97MOL0     C12973   9.243   1.848   2.553 -0.0888 -0.1056 -0.5111
   97MOL0     C12974   9.114   1.923   2.564 -0.1628  0.2478  0.2308
   97MOL0     C12975   8.993   1.837   2.516 -0.1274  0.2640 -1.0095
   97MOL0     C12976   8.857   1.913   2.523  0.0969 -0.0259  0.1977
   97MOL0     N12977   8.786   1.885   2.649  0.3788 -0.0257 -0.7761
   97MOL0     C12978   8.792   1.952   2.770 -0.3457 -0.4065 -0.3254
   97MOL0     C12979   8.697   1.882   2.843  0.5163  0.6339 -0.1667
   97MOL0     C12980   8.675   1.909   2.991  0.5254 -0.2254 -0.3283
   97MOL0     C12981   8.552   2.012   3.000 -0.6019  0.9847 -0.8559
   97MOL0     C12982   8.505   2.011   3.151 -0.4123 -0.0890  0.6483
   97MOL0     C12983   8.390   2.090   3.180 -0.4877  0.1045  1.2170
   97MOL0     O12984   8.348   2.075   3.312  0.4159 -0.2047 -0.6203
   97MOL0     C12985   8.233   2.153   3.343 -0.3328  0.4683  0.6698
   97MOL0     C12986   8.230   2.289   3.313  0.4553  0.2485 -1.2711
   97MOL0     C12987   8.111   2.369   3.344 -0.6749 -0.1260 -0.3529
   97MOL0     C12988   8.110   2.527   3.309 -0.6877  0.1623 -0.7644
   97MOL0     C12989   8.000   2.306   3.411 -0.0695  0.1658 -0.0498
   97MOL0     C12990   7.881   2.377   3.467  0.1370  0.3573 -0.2804
   97MOL0     O12991   7.826   2.326   3.578 -0.4096 -0.1421  0.2841
   97MOL0     C12992   7.726   2.369   3.656  0.1607  0.2937  0.4367
   97MOL0     C12993   7.638   2.276   3.721 -0.4349  0.0568  0.3556
   97MOL0     C12994   7.559   2.306   3.827 -0.0306 -0.1033 -0.0108
   97MOL0     C12995   7.545   2.437   3.866  0.5916  0.1862 -0.3097
   97MOL0     O12996   7.458   2.479   3.969  0.4823 -0.0641 -0.4993
   97MOL0     C12997   7.371   2.368   4.016 -0.0820  0.5693 -0.0393
   97MOL0     C12998   7.302   2.415   4.140  0.0642 -0.5385  0.5761
   97MOL0     C12999   7.218   2.303   4.194 -0.1977 -0.7869  0.4011
   97MOL0     C13000   7.091   2.353   4.249 -0.0835 -0.3820  0.3564
   97MOL0     C13001   7.009   2.241   4.305 -0.0732  0.0609  0.4979
   97MOL0     C13002   6.858   2.272   4.352 -0.9411 -0.0011 -0.4524
   97MOL0     C13003   6.789   2.143   4.403 -0.5766  0.0322  0.1699
   97MOL0     C13004   6.644   2.159   4.461 -0.5472 -0.0487 -0.0947
   97MOL0    Cl13005   6.525   2.226   4.338 -0.1596 -0.0835 -0.2210
   97MOL0     C13006   7.627   2.531   3.804 -0.3211 -0.2934 -0.4763
   97MOL0     C13007   7.714   2.499   3.701  0.4815  0.7254  0.2705
   97MOL0     O13008   7.844   2.478   3.412 -0.3057  1.0120 -0.0202
   97MOL0     C13009   8.022   2.173   3.453  0.7697  0.2847 -0.9312
   97MOL0     C13010   8.134   2.098   3.427  0.8830  0.0015  0.0504
   97MOL0     N13011   8.630   1.798   2.763  0.0385 -0.1111 -0.0078
   97MOL0     N13012   8.691   1.787   2.655  0.4271 -0.4511 -0.2041
   97MOL0     C13013   9.737   1.707   2.470  0.1482  0.4377  0.4878
   97MOL0     C13014   9.871   1.711   2.504  0.4067 -0.7295  0.1502
   97MOL0     C13015  10.343   1.743   2.433 -0.4638 -0.7021 -0.1260
   97MOL0     C13016  10.455   1.685   2.365  0.4941  0.3355 -0.3771
   97MOL0     C13017  10.582   1.715   2.419  0.0846  0.3815  0.2172
   97MOL0     C13018  10.597   1.789   2.537  0.0332  0.7077 -1.0404
   97MOL0     O13019  10.718   1.820   2.590  0.3936 -0.2622  0.3078
   97MOL0     C13020  10.803   1.720   2.633 -0.1422  0.4631  0.0493
   97MOL0     C13021  10.733   1.638   2.736  1.0687  0.0424 -0.3660
   97MOL0     C13022  10.816   1.529   2.807  0.2225 -0.9387  0.3915
   97MOL0     C13023  10.732   1.427   2.883 -0.0307 -0.3869 -0.3372
   97MOL0     C13024  10.682   1.321   2.808  0.6794 -0.6019  0.2581
   97MOL0     C13025  10.639   1.222   2.753 -0.0264  0.1989  0.2171
   97MOL0     C13026  10.480   1.837   2.604  0.5347 -0.6643  0.1900
   97MOL0     C13027  10.358   1.811   2.549  0.5451 -0.4417  0.0242
   97MOL0     H13028  10.002   1.813   2.206 -2.6089  0.3096 -1.9844
   97MOL0     H13029   9.766   1.823   2.147  0.4149  0.4344  0.2424
   97MOL0     H13030   9.557   1.952   2.212  0.4862  0.7334 -1.0871
   97MOL0     H13031   9.572   1.815   2.108  2.6724 -0.7155  1.6553
   97MOL0     H13032   9.344   1.909   2.096  0.7451  2.2399  0.4135
   97MOL0     H13033   9.335   1.746   2.159  2.2932  0.8270 -1.2294
   97MOL0     H13034   9.350   1.990   2.345  0.1252 -0.9406  1.8268
   97MOL0     H13035   9.191   1.938   2.285 -0.0121 -0.2686  0.0166
   97MOL0     H13036   9.198   1.716   2.383 -0.8207  0.0178 -1.6647
   97MOL0     H13037   9.371   1.744   2.423 -1.9316 -2.7130 -1.6241
   97MOL0     H13038   9.246   1.778   2.636  0.3826 -0.2115 -0.6162
   97MOL0     H13039   9.320   1.916   2.590  1.0483 -2.2468  1.2513
   97MOL0     H13040   9.093   1.948   2.668  0.1823 -1.2346  0.6848
   97MOL0     H13041   9.116   2.022   2.517 -3.4385  1.8752  3.0884
   97MOL0     H13042   9.003   1.808   2.411  1.4487 -1.2481 -0.4933
   97MOL0     H13043   8.982   1.742   2.568  0.0846  2.1276  2.8637
   97MOL0     H13044   8.786   1.877   2.447 -0.1241  0.2355  0.2776
   97MOL0     H13045   8.863   2.020   2.499 -0.1692  0.2136  1.1670
   97MOL0     H13046   8.845   2.039   2.806  0.7236 -0.0050 -2.6524
   97MOL0     H13047   8.655   1.815   3.043  2.5286  0.2706  1.4686
   97MOL0     H13048   8.763   1.961   3.030  0.9305  0.1385 -1.6673
   97MOL0     H13049   8.471   1.977   2.936  0.2812 -1.7223 -0.5855
   97MOL0     H13050   8.588   2.110   2.969  0.1492  1.3891  1.1348
   97MOL0     H13051   8.594   2.052   3.201  1.0697  2.3139 -3.4735
   97MOL0     H13052   8.493   1.911   3.193 -1.4809  0.4227  1.6133
   97MOL0     H13053   8.305   2.075   3.114 -0.9136  1.3957  1.4501
   97MOL0     H13054   8.426   2.193   3.168 -0.6345  0.3878  2.9407
   97MOL0     H13055   8.311   2.341   3.263 -1.2141  2.3164 -1.9551
   97MOL0     H13056   8.056   2.542   3.216 -3.5072 -3.9808 -0.0518
   97MOL0     H13057   8.065   2.591   3.385  0.8014 -0.1470  0.4366
   97MOL0     H13058   8.213   2.561   3.290 -0.5725 -0.4234 -1.2203
   97MOL0     H13059   7.660   2.171   3.703  1.7064  0.5588 -0.1632
   97MOL0     H13060   7.510   2.220   3.870 -0.5538 -0.9234 -2.0891
   97MOL0     H13061   7.298   2.345   3.938 -1.1012  1.3541  0.6573
   97MOL0     H13062   7.415   2.270   4.040 -1.2735 -0.1339 -0.6353
   97MOL0     H13063   7.374   2.461   4.209  0.0702  0.5565 -0.1223
   97MOL0     H13064   7.241   2.496   4.098  1.9708  0.9953  0.6261
   97MOL0     H13065   7.272   2.242   4.266 -0.5889  1.5804  2.8455
   97MOL0     H13066   7.193   2.238   4.110  0.7657  1.0238 -1.3741
   97MOL0     H13067   7.112   2.431   4.323 -1.9158  0.0434  0.4827
   97MOL0     H13068   7.024   2.398   4.176 -0.3148 -0.1639  0.6994
   97MOL0     H13069   7.057   2.194   4.391 -2.1660 -4.0710 -0.3079
   97MOL0     H13070   7.011   2.175   4.217  4.7334  2.1499 -1.3195
   97MOL0     H13071   6.863   2.349   4.430  1.3544  0.9933 -1.4936
   97MOL0     H13072   6.805   2.323   4.271  1.0203 -0.6884 -2.2521
   97MOL0     H13073   6.852   2.090   4.476  0.3046 -1.4678 -1.6021
   97MOL0     H13074   6.778   2.077   4.317  0.4034 -4.3017  3.0555
   97MOL0     H13075   6.643   2.227   4.547  1.6214 -1.7000  1.3394
   97MOL0     H13076   6.617   2.055   4.481 -1.3222 -0.0614 -1.0860
   97MOL0     H13077   7.631   2.631   3.845  1.3601 -0.4854 -0.0952
   97MOL0     H13078   7.776   2.575   3.655  2.3169 -0.3993  0.7718
   97MOL0     H13079   7.948   2.112   3.504  4.1401 -3.7283 -0.2611
   97MOL0     H13080   8.144   1.996   3.460  1.4758  0.6502  2.0332
   97MOL0     H13081   9.665   1.670   2.542 -0.5231  2.1998  0.7865
   97MOL0     H13082   9.895   1.706   2.610  1.0263 -0.7066  0.0137
   97MOL0     H13083  10.443   1.633   2.270 -2.7255  0.6143 -0.2394
   97MOL0     H13084  10.676   1.685   2.373  1.3723  1.9798  1.6598
   97MOL0     H13085  10.847   1.657   2.556 -0.7559 -2.2605  1.7795
   97MOL0     H13086  10.878   1.775   2.690 -1.5486  1.5974  0.8889
   97MOL0     H13087  10.651   1.578   2.696 -0.4229 -1.0671  3.8855
   97MOL0     H13088  10.684   1.700   2.812  2.7033 -0.0335  0.8012
   97MOL0     H13089  10.873   1.576   2.888 -1.6366  1.2226  0.5236
   97MOL0     H13090  10.875   1.481   2.728  0.0964 -0.3460 -0.0697
   97MOL0     H13091  10.656   1.493   2.925  1.6454  1.3406  0.1720
   97MOL0     H13092  10.787   1.377   2.963  0.5686 -0.4819 -0.7998
   97MOL0     H13093  10.602   1.132   2.707 -0.8515  2.2793 -3.5641
   97MOL0     H13094  10.477   1.890   2.698 -0.4982 -0.8097  0.2462
   97MOL0     H13095  10.269   1.852   2.596 -2.2360 -1.6218 -3.7499
   98MOL0     O13096  10.910   4.090   6.764 -0.4298 -0.7834 -0.0857
   98MOL0     C13097  10.934   3.986   6.706 -0.5701  0.0383  0.5853
   98MOL0     O13098  10.848   3.884   6.677  0.0019  0.0609 -0.0509
   98MOL0     C13099  10.711   3.891   6.702 -0.0035  0.3460  0.0324
   98MOL0     C13100  10.644   3.779   6.746 -0.2189 -0.7001 -0.1541
   98MOL0     C13101  10.507   3.782   6.768  0.0933 -0.0683 -0.4503
   98MOL0     C13102  10.437   3.903   6.742  0.8721 -1.0586  0.8138
   98MOL0     O13103  10.299   3.901   6.777  0.1746  0.0417 -0.1738
   98MOL0     C13104  10.218   3.995   6.705  0.0324 -0.1164  0.0812
   98MOL0     C13105  10.080   3.954   6.740  0.3276  0.3235  0.1591
   98MOL0     C13106  10.037   4.001   6.881  0.0236 -0.2627  0.1816
   98MOL0     C13107   9.968   4.141   6.888 -0.7033 -0.3042  0.0354
   98MOL0     C13108   9.866   4.146   7.012 -0.1047 -0.8859  0.2487
   98MOL0     C13109   9.729   4.084   6.985 -0.5968  0.0904 -0.5737
   98MOL0     C13110   9.654   4.163   6.881  0.4952  0.6112 -0.3473
   98MOL0     C13111   9.517   4.096   6.849  0.6371 -0.3236  0.7204
   98MOL0     N13112   9.407   4.133   6.948 -0.1335  0.2398  0.2589
   98MOL0     C13113   9.307   4.049   6.980  0.7292  0.2114 -0.4729
   98MOL0     C13114   9.233   4.121   7.066 -0.0159  0.1093 -0.0673
   98MOL0     C13115   9.121   4.076   7.159 -0.3083 -0.2001  0.4464
   98MOL0     C13116   8.984   4.045   7.102 -0.7512  0.3561  0.7974
   98MOL0     C13117   8.902   4.173   7.067 -0.2740  0.4907  0.0724
   98MOL0     C13118   8.770   4.133   7.002 -0.4022 -0.2672 -0.2488
   98MOL0     O13119   8.703   4.023   7.064  0.4754  0.5913  0.5133
   98MOL0     C13120   8.620   3.943   6.986 -0.4507  0.5856 -0.0782
   98MOL0     C13121   8.555   4.003   6.873 -0.4725 -0.3949 -0.8597
   98MOL0     C13122   8.468   3.942   6.789 -0.0081 -0.3911  0.5926
   98MOL0     C13123   8.408   4.018   6.670  0.3390  0.2112 -0.4694
   98MOL0     C13124   8.451   3.805   6.812  0.2020  0.4081 -0.0025
   98MOL0     C13125   8.371   3.714   6.731  0.2240  0.3820 -0.4186
   98MOL0     O13126   8.395   3.582   6.730  0.6586  0.0298  0.6908
   98MOL0     C13127   8.315   3.484   6.662  1.1561 -0.6581 -0.0560
   98MOL0     C13128   8.318   3.363   6.727 -0.1621  0.6785  0.3779
   98MOL0     C13129   8.241   3.259   6.673 -0.4389 -0.5408 -0.1330
   98MOL0     C13130   8.153   3.280   6.568 -0.1470  0.5735  0.2539
   98MOL0     O13131   8.072   3.178   6.535  0.5894  0.2570  0.5291
   98MOL0     C13132   8.069   3.044   6.603  1.0841 -1.0255  0.3669
   98MOL0     C13133   8.001   2.940   6.512  0.1307 -0.4554 -0.4178
   98MOL0     C13134   8.015   2.799   6.564 -0.5700 -0.3360 -0.2913
   98MOL0     C13135   7.952   2.767   6.703  0.3012  1.1221  0.1314
   98MOL0     C13136   7.799   2.782   6.713 -0.0336  0.5005 -0.3302
   98MOL0     C13137   7.723   2.681   6.626  0.3478 -0.1049 -0.0162
   98MOL0     C13138   7.572   2.709   6.610  0.6671 -0.1094  0.0738
   98MOL0     C13139   7.477   2.653   6.718 -0.0476  0.1335  0.7282
   98MOL0    Cl13140   7.303   2.638   6.659 -0.0713 -0.0885  0.1308
   98MOL0     C13141   8.146   3.406   6.503  0.0951  0.3935  0.1419
   98MOL0     C13142   8.234   3.505   6.556 -0.0592  0.4617  0.6313
   98MOL0     O13143   8.275   3.771   6.684  0.3533 -0.2207 -0.1997
   98MOL0     C13144   8.517   3.742   6.921  0.6069 -0.1035  0.2139
   98MOL0     C13145   8.596   3.804   7.010 -0.4116 -0.5923  0.2215
   98MOL0     N13146   9.296   4.245   7.084 -0.0660 -0.3895 -0.3520
   98MOL0     N13147   9.395   4.257   7.006 -0.2549 -0.3326  0.4169
   98MOL0     C13148  10.504   4.015   6.696 -0.1443 -0.2432 -0.3269
   98MOL0     C13149  10.641   4.004   6.679 -0.2353  0.7627  0.1681
   98MOL0     C13150  11.081   3.955   6.665 -0.2914  0.0114  0.0318
   98MOL0     C13151  11.125   3.822   6.658 -0.3915 -0.3733  0.9789
   98MOL0     C13152  11.258   3.795   6.605  0.2155  0.3669  0.1352
   98MOL0     C13153  11.353   3.896   6.581  0.8126  0.3562  0.8031
   98MOL0     O13154  11.487   3.858   6.567  0.2399 -0.6591  0.5713
   98MOL0     C13155  11.588   3.960   6.525 -0.3350  0.8473  0.7162
   98MOL0     C13156  11.633   4.037   6.653 -0.6924  0.0796  0.3088
   98MOL0     C13157  11.720   3.951   6.757  0.6123 -0.1089  1.2762
   98MOL0     C13158  11.865   3.982   6.760 -0.9431 -0.1372  1.4045
   98MOL0     C13159  11.909   3.965   6.625 -0.9835 -0.4711  0.0520
   98MOL0     C13160  11.946   3.959   6.504 -0.5468 -0.2353  0.2606
   98MOL0     C13161  11.302   4.034   6.597 -0.8688  0.1017  0.1250
   98MOL0     C13162  11.172   4.059   6.636 -0.8352 -0.6198  0.6888
   98MOL0     H13163  10.698   3.690   6.776  2.0353 -0.8481 -4.0163
   98MOL0     H13164  10.461   3.692   6.808  0.1995 -0.2073 -0.6387
   98MOL0     H13165  10.252   4.092   6.744 -0.7597  0.5325 -0.8218
   98MOL0     H13166  10.229   3.976   6.598 -1.0305 -2.9668  0.3898
   98MOL0     H13167  10.007   3.995   6.669  0.2007 -1.1897 -0.6332
   98MOL0     H13168  10.065   3.845   6.738 -1.2514  0.5132 -1.8775
   98MOL0     H13169   9.957   3.934   6.914 -2.0977  1.3633 -1.3834
   98MOL0     H13170  10.117   4.002   6.955  2.1577 -1.7117 -1.9888
   98MOL0     H13171  10.042   4.221   6.898 -0.9585 -0.1491  0.7898
   98MOL0     H13172   9.917   4.156   6.792  0.5708 -1.6862 -0.8964
   98MOL0     H13173   9.905   4.093   7.100 -0.5062  2.7694  2.8858
   98MOL0     H13174   9.857   4.252   7.037  0.9499 -1.0137  1.2681
   98MOL0     H13175   9.736   3.981   6.951  2.3990 -0.8942  2.4349
   98MOL0     H13176   9.676   4.088   7.081 -2.9369  1.8342 -1.8400
   98MOL0     H13177   9.642   4.268   6.909  0.6752  0.3494  0.7443
   98MOL0     H13178   9.706   4.158   6.785  0.1710  2.9783 -0.7271
   98MOL0     H13179   9.532   3.989   6.864 -0.7306 -0.4544  1.2692
   98MOL0     H13180   9.476   4.120   6.750  0.3760 -0.5380  0.7788
   98MOL0     H13181   9.298   3.944   6.954  1.2206  0.7769 -3.2457
   98MOL0     H13182   9.163   3.979   7.189  2.6611  0.0996 -2.2595
   98MOL0     H13183   9.117   4.150   7.240 -1.8634 -1.2492  1.3748
   98MOL0     H13184   8.927   3.989   7.177 -0.9328 -1.6401 -0.7397
   98MOL0     H13185   9.002   3.985   7.013  0.9300  2.4111 -0.3508
   98MOL0     H13186   8.965   4.237   7.004  0.2425 -0.1126 -0.0496
   98MOL0     H13187   8.888   4.236   7.155 -1.8443 -0.9685  0.9237
   98MOL0     H13188   8.805   4.113   6.900 -0.2039  0.6561 -0.3678
   98MOL0     H13189   8.694   4.211   6.995 -1.2804 -1.1398 -0.7718
   98MOL0     H13190   8.565   4.110   6.863  1.4023 -0.5549 -1.0959
   98MOL0     H13191   8.451   4.118   6.658  1.0900 -0.2152 -1.4729
   98MOL0     H13192   8.423   3.973   6.572  1.1075 -0.1484 -0.1952
   98MOL0     H13193   8.301   4.027   6.690  0.3552 -2.4326  1.3565
   98MOL0     H13194   8.378   3.331   6.811 -2.0726 -3.1029  0.5065
   98MOL0     H13195   8.239   3.166   6.730  1.9155  0.2834  1.4294
   98MOL0     H13196   8.171   3.012   6.624  2.2748  0.6728 -2.2530
   98MOL0     H13197   8.015   3.058   6.697  1.8508 -2.7468  1.1064
   98MOL0     H13198   7.898   2.974   6.496  0.2491 -0.2643 -0.8126
   98MOL0     H13199   8.050   2.944   6.414 -0.1927 -1.3636 -0.6308
   98MOL0     H13200   8.118   2.763   6.558 -0.4509 -0.5663  2.3115
   98MOL0     H13201   7.953   2.739   6.496 -0.5580  0.8146 -1.3723
   98MOL0     H13202   7.978   2.661   6.714 -0.0356  1.1333  1.1119
   98MOL0     H13203   7.988   2.825   6.788 -1.4567  3.2033 -0.4568
   98MOL0     H13204   7.763   2.883   6.691 -0.1750  0.3820 -0.6528
   98MOL0     H13205   7.768   2.764   6.816  2.6751 -1.8037  0.2155
   98MOL0     H13206   7.759   2.682   6.523  3.2829 -1.7968  0.8868
   98MOL0     H13207   7.740   2.578   6.658  1.4273  0.4347  1.2498
   98MOL0     H13208   7.546   2.680   6.508 -1.4648  4.0187 -0.7593
   98MOL0     H13209   7.552   2.815   6.595 -1.8284 -0.7682 -2.0427
   98MOL0     H13210   7.481   2.708   6.812 -1.5824 -0.5186  1.2123
   98MOL0     H13211   7.512   2.554   6.748  0.8418  0.2585  0.1291
   98MOL0     H13212   8.081   3.426   6.419  2.2575 -0.0509 -1.7349
   98MOL0     H13213   8.227   3.600   6.504  3.6884  0.3235 -0.3702
   98MOL0     H13214   8.498   3.637   6.939 -0.8964  0.1173  0.0786
   98MOL0     H13215   8.638   3.763   7.101  4.1034  1.2492 -0.7530
   98MOL0     H13216  10.447   4.103   6.666 -2.9421 -1.3575  1.2757
   98MOL0     H13217  10.696   4.095   6.656  0.8541  0.6250  2.0189
   98MOL0     H13218  11.052   3.743   6.674  1.6660 -2.4503  0.7517
   98MOL0     H13219  11.288   3.692   6.587 -0.7099  0.1035  0.0902
   98MOL0     H13220  11.672   3.921   6.467 -1.4529 -2.5210  1.1547
   98MOL0     H13221  11.533   4.014   6.447  0.3195 -1.7454 -1.6618
   98MOL0     H13222  11.551   4.077   6.714 -0.9244 -1.2586  0.9139
   98MOL0     H13223  11.685   4.127   6.619 -0.6959 -0.8480 -2.3814
   98MOL0     H13224  11.709   3.843   6.739  1.0001 -0.0976  0.9441
   98MOL0     H13225  11.678   3.971   6.856 -2.8310  0.7053 -0.1864
   98MOL0     H13226  11.918   3.911   6.824  1.8230 -2.4585 -3.0137
   98MOL0     H13227  11.891   4.084   6.790  2.3673 -0.2975 -0.5356
   98MOL0     H13228  11.976   3.938   6.404  0.6529  0.6688  0.4045
   98MOL0     H13229  11.373   4.116   6.587 -0.3615 -0.3155  0.2779
   98MOL0     H13230  11.135   4.161   6.641  0.4982 -0.1936  3.0536
   99MOL0     O13231   7.232   7.922   0.140  0.0562  0.1197  0.4576
   99MOL0     C13232   7.227   7.889   0.022 -0.2438  0.3514 -0.2003
   99MOL0     O13233   7.143   7.941  -0.077  0.7089  0.0028 -0.2459
   99MOL0     C13234   7.027   8.006  -0.047  0.2698 -0.4022 -0.0439
   99MOL0     C13235   6.928   7.943   0.032  0.2106 -0.1294 -0.1940
   99MOL0     C13236   6.807   8.010   0.072  0.0035 -0.0913  1.3445
   99MOL0     C13237   6.774   8.133   0.009  0.4203 -0.0086  0.3990
   99MOL0     O13238   6.662   8.204   0.039 -0.2149  0.0165 -0.4909
   99MOL0     C13239   6.551   8.138   0.103  0.9380  0.0271 -0.2093
   99MOL0     C13240   6.427   8.226   0.114  0.0306  0.6625 -0.0762
   99MOL0     C13241   6.384   8.279  -0.029  0.2016 -0.0181 -0.8969
   99MOL0     C13242   6.250   8.352  -0.019 -0.3804 -0.2245 -1.0713
   99MOL0     C13243   6.203   8.378  -0.168 -0.3274  0.2519  0.6527
   99MOL0     C13244   6.072   8.455  -0.180  0.0616  0.7447 -0.8242
   99MOL0     C13245   5.951   8.394  -0.104  0.2874 -0.6729 -0.9375
   99MOL0     C13246   5.818   8.437  -0.163  1.2147  0.4571 -0.5987
   99MOL0     N13247   5.814   8.455  -0.306 -0.5037  0.0948  0.1684
   99MOL0     C13248   5.863   8.366  -0.393  0.0584 -0.3309  0.3983
   99MOL0     C13249   5.849   8.418  -0.516 -0.3103 -0.2907 -0.3263
   99MOL0     C13250   5.911   8.374  -0.636  0.2359 -0.1265  0.4357
   99MOL0     C13251   6.058   8.414  -0.631  0.5894 -0.2941  0.1671
   99MOL0     C13252   6.079   8.560  -0.679 -0.5670  1.3692  0.2484
   99MOL0     C13253   6.227   8.563  -0.728  0.4152  0.4030  0.2895
   99MOL0     O13254   6.243   8.487  -0.844  0.3314  1.0432  0.3593
   99MOL0     C13255   6.369   8.454  -0.871 -0.2898  0.0875  0.1649
   99MOL0     C13256   6.380   8.331  -0.942  0.3121 -0.5461  0.2037
   99MOL0     C13257   6.506   8.290  -0.998  0.1023  0.1740 -0.4406
   99MOL0     C13258   6.513   8.161  -1.077 -0.6778 -0.2764  0.0564
   99MOL0     C13259   6.631   8.360  -0.959  0.0830  0.9564  0.0088
   99MOL0     C13260   6.770   8.328  -0.994 -0.0979  1.0434 -0.1009
   99MOL0     O13261   6.868   8.417  -0.984  0.7903 -0.5778  0.2546
   99MOL0     C13262   6.991   8.401  -1.026  0.1656  0.0055  0.3932
   99MOL0     C13263   7.043   8.491  -1.117  0.1167 -0.1991 -1.0876
   99MOL0     C13264   7.168   8.482  -1.172  0.5091  1.0276 -0.0880
   99MOL0     C13265   7.260   8.381  -1.135  0.6301 -0.2437  0.6112
   99MOL0     O13266   7.382   8.384  -1.193 -0.4943  0.5090 -0.3943
   99MOL0     C13267   7.499   8.383  -1.108 -0.9647  0.1770 -0.2143
   99MOL0     C13268   7.495   8.466  -0.980  0.4748  0.0223  0.1106
   99MOL0     C13269   7.492   8.618  -1.007  0.2738 -0.1115  0.1352
   99MOL0     C13270   7.483   8.682  -0.858  0.2407 -0.7982  0.9068
   99MOL0     C13271   7.471   8.842  -0.856 -0.7335  0.1237  1.0625
   99MOL0     C13272   7.593   8.918  -0.919  0.5183 -0.7727  0.6363
   99MOL0     C13273   7.608   9.076  -0.884  0.6844  0.2714  0.2388
   99MOL0     C13274   7.551   9.162  -0.995 -0.3703 -0.1915 -0.2083
   99MOL0    Cl13275   7.387   9.114  -1.033  0.0861 -0.3310  0.0637
   99MOL0     C13276   7.209   8.275  -1.046 -0.8292 -0.0066  0.1043
   99MOL0     C13277   7.072   8.286  -0.997  0.3433 -0.7473 -0.0015
   99MOL0     O13278   6.790   8.219  -1.041  0.2651 -0.2428 -0.3748
   99MOL0     C13279   6.611   8.474  -0.874  0.3802  0.2253  0.6595
   99MOL0     C13280   6.485   8.524  -0.837 -0.8896 -0.1283 -0.5131
   99MOL0     N13281   5.798   8.539  -0.505  0.2966 -0.2106  0.6207
   99MOL0     N13282   5.779   8.564  -0.375  0.5486 -0.1404 -0.9741
   99MOL0     C13283   6.874   8.183  -0.082  0.5395  0.8037 -0.3426
   99MOL0     C13284   6.996   8.124  -0.108 -0.0217  0.3867 -0.0747
   99MOL0     C13285   7.314   7.781  -0.017  0.0117  0.6039 -0.1935
   99MOL0     C13286   7.293   7.727  -0.141  0.5049  0.5878 -0.3637
   99MOL0     C13287   7.358   7.607  -0.181  0.1937  0.5157 -0.5826
   99MOL0     C13288   7.460   7.550  -0.098  0.3592 -0.4934 -0.2290
   99MOL0     O13289   7.530   7.441  -0.129 -0.6745  0.5492 -0.1926
   99MOL0     C13290   7.655   7.460  -0.176  0.7320 -0.7773  0.6032
   99MOL0     C13291   7.680   7.415  -0.326  0.8375 -0.7322 -0.5958
   99MOL0     C13292   7.817   7.349  -0.336 -0.0135 -0.0472  0.0170
   99MOL0     C13293   7.936   7.437  -0.298 -0.0685 -0.6537 -0.9400
   99MOL0     C13294   8.055   7.350  -0.311 -0.2763  0.2324 -0.2122
   99MOL0     C13295   8.140   7.271  -0.321  0.2081 -0.3762 -0.1867
   99MOL0     C13296   7.481   7.602   0.027  0.9377 -0.5661 -0.6350
   99MOL0     C13297   7.403   7.713   0.071  0.6653  0.5670 -0.1053
   99MOL0     H13298   6.948   7.848   0.080 -0.8405  0.1941  0.9370
   99MOL0     H13299   6.730   7.950   0.121 -2.0034  1.1823 -0.1063
   99MOL0     H13300   6.523   8.047   0.049 -1.2388 -1.1225  2.5615
   99MOL0     H13301   6.580   8.118   0.207  1.6768  0.3761 -0.3412
   99MOL0     H13302   6.350   8.161   0.156 -0.7972  2.2804  1.0318
   99MOL0     H13303   6.433   8.312   0.182 -0.7011 -1.6898  3.1944
   99MOL0     H13304   6.454   8.351  -0.071 -0.6192  1.5386  0.3156
   99MOL0     H13305   6.365   8.201  -0.103 -1.4804  1.6041 -2.2652
   99MOL0     H13306   6.170   8.295   0.029  1.4187 -1.7705  0.2748
   99MOL0     H13307   6.268   8.446   0.034 -0.6044  0.1504 -1.6496
   99MOL0     H13308   6.281   8.431  -0.224 -0.9946 -1.1875 -1.7808
   99MOL0     H13309   6.196   8.277  -0.210 -2.0987  0.0306  1.3832
   99MOL0     H13310   6.081   8.563  -0.165 -0.7465  1.0773 -2.4642
   99MOL0     H13311   6.059   8.458  -0.289 -4.0638 -1.3451 -0.5576
   99MOL0     H13312   5.952   8.287  -0.124  0.6459 -0.8103 -0.1984
   99MOL0     H13313   5.950   8.407   0.005 -1.3771  0.0894 -1.0152
   99MOL0     H13314   5.798   8.531  -0.110 -4.8691 -1.7098  1.8229
   99MOL0     H13315   5.740   8.373  -0.122  1.0390  1.6155  0.9798
   99MOL0     H13316   5.923   8.281  -0.362  1.3041  0.3871  0.0063
   99MOL0     H13317   5.893   8.267  -0.648  2.1127 -0.2201 -2.9903
   99MOL0     H13318   5.867   8.424  -0.724 -0.2966  2.8273  2.2422
   99MOL0     H13319   6.111   8.346  -0.698  0.8165  1.1005 -1.1317
   99MOL0     H13320   6.097   8.395  -0.531 -0.3110 -1.3454  0.3290
   99MOL0     H13321   6.067   8.642  -0.608  2.4263  3.2537 -1.2265
   99MOL0     H13322   6.025   8.579  -0.772  0.1705 -1.8916 -0.9973
   99MOL0     H13323   6.289   8.522  -0.648  0.1896  2.0657  1.3562
   99MOL0     H13324   6.251   8.669  -0.737  0.7279  0.3709  0.7048
   99MOL0     H13325   6.289   8.287  -0.981  0.9119  1.0176 -3.3148
   99MOL0     H13326   6.587   8.100  -1.024  1.8317  3.2281  0.9532
   99MOL0     H13327   6.419   8.106  -1.083 -0.1758 -1.2015  0.3849
   99MOL0     H13328   6.558   8.172  -1.176  0.5007  0.1716  0.6160
   99MOL0     H13329   6.977   8.572  -1.147  1.3542  1.3533  0.1514
   99MOL0     H13330   7.190   8.554  -1.250 -1.1334  0.3517 -1.2401
   99MOL0     H13331   7.516   8.280  -1.074 -1.5631  0.3357  0.5995
   99MOL0     H13332   7.583   8.421  -1.168 -1.1735  0.5077 -0.3006
   99MOL0     H13333   7.407   8.429  -0.927 -0.2418  0.3279 -0.8286
   99MOL0     H13334   7.585   8.445  -0.923  1.2167  1.5064 -0.4781
   99MOL0     H13335   7.396   8.646  -1.051 -0.9666 -1.6370  1.7123
   99MOL0     H13336   7.580   8.660  -1.057  0.6786  0.6086  1.4094
   99MOL0     H13337   7.403   8.636  -0.798 -1.3620  1.9315  1.0521
   99MOL0     H13338   7.582   8.663  -0.815  1.8463  0.9021 -1.7801
   99MOL0     H13339   7.445   8.879  -0.756 -1.4857  0.5450  0.7167
   99MOL0     H13340   7.384   8.866  -0.916  0.6988 -0.9027 -1.5734
   99MOL0     H13341   7.684   8.871  -0.882  1.7483  2.4607  2.1417
   99MOL0     H13342   7.590   8.897  -1.027 -3.0164  0.3048  0.3823
   99MOL0     H13343   7.716   9.092  -0.878  1.3215 -1.9525 -2.8146
   99MOL0     H13344   7.571   9.107  -0.785  2.0716 -0.5394  1.0354
   99MOL0     H13345   7.602   9.139  -1.089 -1.2820  1.7443 -1.2333
   99MOL0     H13346   7.554   9.270  -0.974 -1.9228  0.1299 -1.4608
   99MOL0     H13347   7.281   8.204  -1.008  0.0995  1.2862  0.8350
   99MOL0     H13348   7.031   8.210  -0.932 -1.4450 -0.8983 -1.2274
   99MOL0     H13349   6.692   8.542  -0.850 -0.1957  1.3305 -0.4326
   99MOL0     H13350   6.469   8.616  -0.783 -0.6837 -0.2698 -0.2064
   99MOL0     H13351   6.858   8.274  -0.138 -0.6681  1.7272  1.4120
   99MOL0     H13352   7.072   8.175  -0.166 -0.1076  1.7884  0.9803
   99MOL0     H13353   7.218   7.753  -0.215 -1.2761 -1.5501  0.5557
   99MOL0     H13354   7.333   7.555  -0.273 -0.8885  0.9198 -0.5241
   99MOL0     H13355   7.680   7.565  -0.159 -1.4848 -0.2848  1.1006
   99MOL0     H13356   7.724   7.414  -0.106  1.1774 -0.1953  0.5582
   99MOL0     H13357   7.660   7.490  -0.402 -1.6144 -1.4787 -0.7837
   99MOL0     H13358   7.598   7.345  -0.350  1.5900 -1.6704 -0.4788
   99MOL0     H13359   7.827   7.322  -0.441 -0.5391  1.9634 -0.5900
   99MOL0     H13360   7.813   7.261  -0.270 -0.0157  0.5373  0.8090
   99MOL0     H13361   7.923   7.471  -0.195  1.5320  0.7182 -1.1437
   99MOL0     H13362   7.929   7.526  -0.362  0.0612  0.8705  1.0467
   99MOL0     H13363   8.216   7.198  -0.340 -1.3806 -1.7926 -1.5355
   99MOL0     H13364   7.543   7.543   0.094 -3.5364 -5.2658 -0.0727
   99MOL0     H13365   7.402   7.746   0.174  0.3714 -1.8437  0.7018
  100MOL0     O13366   4.681   5.873  10.741 -0.2076  0.5311 -0.3092
  100MOL0     C13367   4.573   5.917  10.709  1.3009 -0.0278  0.0330
  100MOL0     O13368   4.446   5.861  10.728 -0.0647 -0.6102 -0.1610
  100MOL0     C13369   4.428   5.756  10.805 -0.4359  0.1540  0.9003
  100MOL0     C13370   4.333   5.768  10.906  0.0628  0.4779 -0.8523
  100MOL0     C13371   4.307   5.666  10.993  0.4051 -0.2329 -0.7112
  100MOL0     C13372   4.371   5.540  10.976  0.3168  1.0060 -0.1706
  100MOL0     O13373   4.332   5.443  11.070  0.3503 -0.1225 -0.4595
  100MOL0     C13374   4.402   5.320  11.062  0.1896  0.6731 -0.6315
  100MOL0     C13375   4.338   5.210  11.147  0.5055 -0.6620  0.5220
  100MOL0     C13376   4.400   5.076  11.115  0.5412 -0.7035  0.4433
  100MOL0     C13377   4.547   5.056  11.142  0.0590  0.3092 -0.1972
  100MOL0     C13378   4.584   4.910  11.148 -1.2238 -0.3598  0.6349
  100MOL0     C13379   4.640   4.863  11.281 -0.1959 -0.2143 -0.2468
  100MOL0     C13380   4.716   4.729  11.270  0.0569 -0.5682  0.5566
  100MOL0     C13381   4.717   4.657  11.410 -0.2803 -0.4763 -0.0216
  100MOL0     N13382   4.806   4.722  11.504  0.3949 -0.5869  0.7685
  100MOL0     C13383   4.940   4.720  11.494 -0.3458 -0.4009 -1.0060
  100MOL0     C13384   4.990   4.800  11.601  0.5202  0.7235 -0.5603
  100MOL0     C13385   5.130   4.815  11.636 -0.3854  0.3704 -0.8321
  100MOL0     C13386   5.207   4.681  11.619 -0.5448 -0.0130  0.1460
  100MOL0     C13387   5.336   4.667  11.699 -0.3730 -0.6534 -0.5712
  100MOL0     C13388   5.434   4.778  11.661  1.1207 -0.4079 -0.5568
  100MOL0     O13389   5.573   4.748  11.703 -0.4006  0.0392  0.0752
  100MOL0     C13390   5.607   4.736  11.829  0.5150  1.1757 -0.0022
  100MOL0     C13391   5.524   4.752  11.936 -0.1873  0.2503 -0.3638
  100MOL0     C13392   5.577   4.748  12.067  0.6268  0.0548  0.5259
  100MOL0     C13393   5.477   4.742  12.178 -0.9375  1.0676  0.5008
  100MOL0     C13394   5.710   4.713  12.087  0.6805  0.6311 -0.0127
  100MOL0     C13395   5.769   4.685  12.219  0.2314  0.0584  0.3970
  100MOL0     O13396   5.864   4.585  12.224  0.3720 -0.2506 -0.3531
  100MOL0     C13397   5.966   4.590  12.317  0.3552 -0.6648 -0.5309
  100MOL0     C13398   5.961   4.530  12.440 -0.0380  0.2133 -0.5908
  100MOL0     C13399   6.071   4.542  12.530 -0.1069 -0.0442 -0.5285
  100MOL0     C13400   6.194   4.602  12.494  0.4568  0.7941 -0.2158
  100MOL0     O13401   6.302   4.605  12.581  0.4207 -0.1434  0.2529
  100MOL0     C13402   6.288   4.551  12.716  0.9744 -0.1053 -0.0537
  100MOL0     C13403   6.404   4.591  12.805  0.3411  0.4460 -0.5444
  100MOL0     C13404   6.543   4.550  12.750  0.7927  0.5386  0.1977
  100MOL0     C13405   6.600   4.412  12.798  0.5622 -0.5020  0.0026
  100MOL0     C13406   6.733   4.383  12.729  0.9838  0.5285  0.1758
  100MOL0     C13407   6.812   4.266  12.777 -0.4481 -0.2397  0.4342
  100MOL0     C13408   6.953   4.276  12.715 -0.7507  0.3032  0.0734
  100MOL0     C13409   7.040   4.157  12.733  0.5188  0.2105 -0.2284
  100MOL0    Cl13410   7.056   4.105  12.908 -0.0166  0.4871  0.2086
  100MOL0     C13411   6.202   4.650  12.367 -0.5598 -0.5827  0.1711
  100MOL0     C13412   6.092   4.657  12.286  0.5651 -0.6701 -0.6512
  100MOL0     O13413   5.736   4.751  12.314  0.0163  0.0541  0.4913
  100MOL0     C13414   5.789   4.687  11.973 -0.1860  0.0751 -0.6759
  100MOL0     C13415   5.739   4.698  11.847 -0.6404 -0.4275 -0.5435
  100MOL0     N13416   4.875   4.857  11.657  0.0935 -0.2109 -1.0923
  100MOL0     N13417   4.770   4.817  11.595  0.1356  0.0318 -0.4400
  100MOL0     C13418   4.478   5.525  10.885 -0.1629 -0.7043  0.0190
  100MOL0     C13419   4.515   5.634  10.802  0.3517  0.2269  0.1565
  100MOL0     C13420   4.576   6.052  10.632  1.0310  1.5570  0.4111
  100MOL0     C13421   4.689   6.134  10.655  0.1114  0.6563 -0.9112
  100MOL0     C13422   4.710   6.250  10.584 -0.2485 -0.2617  0.2416
  100MOL0     C13423   4.607   6.291  10.506  0.1009  0.4051  0.5397
  100MOL0     O13424   4.621   6.414  10.459 -0.2039 -0.0952 -0.2298
  100MOL0     C13425   4.520   6.473  10.365  0.1875  0.2992  0.1178
  100MOL0     C13426   4.576   6.577  10.281 -0.2558 -0.6878  0.2191
  100MOL0     C13427   4.573   6.713  10.349  0.4863 -0.0765 -0.4722
  100MOL0     C13428   4.670   6.723  10.481 -0.8787  1.0696  0.5616
  100MOL0     C13429   4.808   6.699  10.448  0.1164 -0.4380  0.4748
  100MOL0     C13430   4.918   6.674  10.412  0.1930  0.1319  0.7953
  100MOL0     C13431   4.486   6.216  10.483 -0.4186  0.2250  0.7145
  100MOL0     C13432   4.474   6.086  10.535 -0.3605  0.1517 -0.0769
  100MOL0     H13433   4.276   5.860  10.907 -0.9583 -0.0796  2.0869
  100MOL0     H13434   4.233   5.681  11.071  1.9938  1.9330  0.4866
  100MOL0     H13435   4.403   5.288  10.957  1.8485  0.6444 -0.6322
  100MOL0     H13436   4.504   5.321  11.100 -0.8574  0.6202  2.4028
  100MOL0     H13437   4.326   5.228  11.254 -3.3485 -0.7932  0.2316
  100MOL0     H13438   4.231   5.215  11.124  0.9471  1.0039 -1.4798
  100MOL0     H13439   4.351   5.005  11.183  0.3294  0.8006  1.9306
  100MOL0     H13440   4.384   5.048  11.011  1.3072 -0.9659  0.3900
  100MOL0     H13441   4.606   5.120  11.076  1.0160  1.3133  1.5612
  100MOL0     H13442   4.579   5.105  11.234  2.9074 -0.5140 -0.6625
  100MOL0     H13443   4.499   4.846  11.122 -0.5198 -0.2287 -2.3952
  100MOL0     H13444   4.661   4.892  11.072 -0.9702 -2.0180  1.2350
  100MOL0     H13445   4.714   4.935  11.316 -0.4208  0.9215 -1.9784
  100MOL0     H13446   4.558   4.853  11.353  1.6512  0.5013  2.0603
  100MOL0     H13447   4.663   4.654  11.210  1.2128 -0.9060 -0.0650
  100MOL0     H13448   4.815   4.752  11.229 -1.4567  1.8135 -2.1318
  100MOL0     H13449   4.763   4.559  11.395 -0.7859 -0.6586 -0.3957
  100MOL0     H13450   4.613   4.657  11.443 -0.1922  2.2860  0.5230
  100MOL0     H13451   5.009   4.669  11.427  0.2603  0.1463 -0.8146
  100MOL0     H13452   5.169   4.901  11.581 -1.6946  1.6505  0.1657
  100MOL0     H13453   5.132   4.854  11.739 -0.2669 -1.5852 -0.0442
  100MOL0     H13454   5.236   4.661  11.515 -1.7909  1.0630 -0.4387
  100MOL0     H13455   5.142   4.600  11.653 -0.7684  1.0810  2.5044
  100MOL0     H13456   5.383   4.570  11.681  0.9235 -0.1534 -0.0130
  100MOL0     H13457   5.311   4.667  11.806  1.9784  0.9549  0.0659
  100MOL0     H13458   5.406   4.876  11.701 -0.4624 -0.2102 -2.0368
  100MOL0     H13459   5.436   4.799  11.553 -0.4925 -0.6338 -0.6558
  100MOL0     H13460   5.420   4.783  11.939 -0.3157 -0.2479  1.4838
  100MOL0     H13461   5.377   4.769  12.142 -0.8971  0.7250  0.1368
  100MOL0     H13462   5.481   4.644  12.227 -1.4050  1.7323  1.9366
  100MOL0     H13463   5.495   4.819  12.254 -0.3506  1.2561  0.1724
  100MOL0     H13464   5.871   4.481  12.474 -0.3666  0.8843 -0.4784
  100MOL0     H13465   6.053   4.494  12.625 -0.2598  3.6618  1.4985
  100MOL0     H13466   6.196   4.595  12.755  0.0787 -0.2098 -1.9743
  100MOL0     H13467   6.284   4.442  12.714  0.8176 -0.0946 -0.3910
  100MOL0     H13468   6.400   4.700  12.813  1.1901  0.9430 -4.8280
  100MOL0     H13469   6.395   4.541  12.902  0.7804 -1.7330 -1.5611
  100MOL0     H13470   6.603   4.633  12.787  0.4725  2.0631 -2.4608
  100MOL0     H13471   6.531   4.530  12.643 -0.2579 -1.4659  0.6269
  100MOL0     H13472   6.603   4.396  12.906 -0.7853  0.2531  0.1676
  100MOL0     H13473   6.528   4.339  12.761 -0.3111  0.9715 -1.3157
  100MOL0     H13474   6.797   4.469  12.750 -2.0270  2.6556  1.4343
  100MOL0     H13475   6.723   4.362  12.622  3.0869  0.1581  0.0061
  100MOL0     H13476   6.822   4.266  12.886  1.5494 -3.1757  0.3710
  100MOL0     H13477   6.762   4.170  12.765  1.0035 -1.0620  0.7557
  100MOL0     H13478   7.005   4.365  12.751 -3.0533  0.6013  3.1060
  100MOL0     H13479   6.945   4.276  12.606  2.2552  0.6988 -0.2404
  100MOL0     H13480   7.141   4.161  12.692  0.0790 -1.8060 -1.6351
  100MOL0     H13481   6.988   4.077  12.679 -0.3689 -1.3922  2.7211
  100MOL0     H13482   6.292   4.702  12.339 -1.1548  0.3221 -0.1152
  100MOL0     H13483   6.107   4.713  12.194 -0.6244 -0.8161 -0.9455
  100MOL0     H13484   5.891   4.656  11.992 -0.1281 -0.2289 -1.4434
  100MOL0     H13485   5.814   4.681  11.770  0.1628  3.1651 -0.7272
  100MOL0     H13486   4.533   5.432  10.874  0.4384 -0.3105 -0.3753
  100MOL0     H13487   4.601   5.626  10.736  1.6003  1.5319  1.5499
  100MOL0     H13488   4.757   6.106  10.734 -1.3309  0.0483  0.1576
  100MOL0     H13489   4.798   6.312  10.598  1.7233 -1.9085 -3.4392
  100MOL0     H13490   4.500   6.391  10.296  1.9541 -0.3771  0.3543
  100MOL0     H13491   4.431   6.495  10.425 -0.3937 -1.2447 -0.1326
  100MOL0     H13492   4.516   6.576  10.190 -0.8679  1.8161  0.5186
  100MOL0     H13493   4.681   6.562  10.254 -0.7617 -1.7646 -1.3087
  100MOL0     H13494   4.480   6.754  10.387  0.7073 -3.7377  5.2822
  100MOL0     H13495   4.609   6.780  10.271 -0.8539  0.2529 -0.8149
  100MOL0     H13496   4.638   6.658  10.563  0.5358 -0.4646 -0.0489
  100MOL0     H13497   4.662   6.825  10.520  0.2329  2.0643 -1.6767
  100MOL0     H13498   5.022   6.655  10.393  0.0352  0.5331 -0.6534
  100MOL0     H13499   4.403   6.266  10.434  1.2824  2.8282  0.2983
  100MOL0     H13500   4.389   6.022  10.514 -2.4992  2.4256  1.1304
  101MOL0     O13501   5.893   1.875  10.429  0.8522 -0.0084 -0.1652
  101MOL0     C13502   5.954   1.792  10.358 -0.4398 -1.1313  0.2193
  101MOL0     O13503   5.929   1.769  10.224 -0.8339  0.4042 -0.2131
  101MOL0     C13504   5.818   1.833  10.178 -0.1903 -1.2525  0.4003
  101MOL0     C13505   5.837   1.947  10.098  0.1271 -1.0385 -0.0271
  101MOL0     C13506   5.734   2.008  10.030  0.3410  0.3720 -0.4462
  101MOL0     C13507   5.601   1.968  10.054 -0.2862  0.4141  0.5624
  101MOL0     O13508   5.509   2.045   9.987  0.7821 -0.5299 -0.6279
  101MOL0     C13509   5.370   2.024  10.017 -0.1374 -0.7978 -0.5010
  101MOL0     C13510   5.311   2.112   9.905  0.0311  0.4939 -0.2668
  101MOL0     C13511   5.174   2.061   9.867 -1.0791  0.1638 -0.8431
  101MOL0     C13512   5.069   2.041   9.984 -0.4043  0.2686 -0.2759
  101MOL0     C13513   5.035   2.173  10.059 -0.1288 -0.3859  0.4105
  101MOL0     C13514   5.123   2.212  10.172 -0.0869 -0.5221 -0.2434
  101MOL0     C13515   5.059   2.292  10.287  0.8356  0.0538 -0.1486
  101MOL0     C13516   4.958   2.407  10.249  0.6660  0.5832  0.8302
  101MOL0     N13517   4.814   2.382  10.220 -0.2314 -1.0231 -0.0384
  101MOL0     C13518   4.744   2.265  10.235  0.3769  0.5763  0.3709
  101MOL0     C13519   4.621   2.297  10.187  0.3652  0.1624 -0.5424
  101MOL0     C13520   4.505   2.201  10.184  0.0996  1.0525 -0.4179
  101MOL0     C13521   4.370   2.270  10.221 -0.1639 -0.2288 -0.0267
  101MOL0     C13522   4.375   2.353  10.354 -0.5367  0.0022 -0.5512
  101MOL0     C13523   4.232   2.364  10.404  0.0634  0.5207  0.2145
  101MOL0     O13524   4.159   2.436  10.296 -0.4871 -0.4593  0.0997
  101MOL0     C13525   4.019   2.438  10.292 -0.0872 -0.5600  1.2018
  101MOL0     C13526   3.936   2.385  10.387  1.4593 -0.4691 -0.6170
  101MOL0     C13527   3.799   2.433  10.414  0.0984  0.7500  1.1182
  101MOL0     C13528   3.744   2.385  10.544  0.0395  0.4289 -0.1800
  101MOL0     C13529   3.729   2.509  10.313 -1.1595 -0.1650 -0.1674
  101MOL0     C13530   3.586   2.559  10.316  0.6294 -0.1569 -0.0132
  101MOL0     O13531   3.502   2.533  10.421 -0.3204 -0.5152  0.1717
  101MOL0     C13532   3.368   2.574  10.419 -0.3114 -0.1303  0.4615
  101MOL0     C13533   3.272   2.489  10.357  0.5572 -0.4789 -0.1623
  101MOL0     C13534   3.140   2.526  10.343  0.9309  1.1417 -1.1231
  101MOL0     C13535   3.094   2.648  10.405  0.4100 -0.5550  0.0984
  101MOL0     O13536   2.970   2.719  10.408 -0.6980 -0.4575  0.1045
  101MOL0     C13537   2.852   2.651  10.363  0.2300 -0.3913 -0.1744
  101MOL0     C13538   2.734   2.725  10.425 -0.2005  0.0959  0.4125
  101MOL0     C13539   2.604   2.647  10.419  0.2454  0.0474  0.1626
  101MOL0     C13540   2.492   2.709  10.491 -0.0244  0.5365  0.6242
  101MOL0     C13541   2.364   2.638  10.459  0.3003  0.0212  0.3370
  101MOL0     C13542   2.248   2.716  10.528  0.3512 -0.3098 -0.1454
  101MOL0     C13543   2.112   2.685  10.480  0.1850 -0.5052 -0.8879
  101MOL0     C13544   2.049   2.595  10.583  0.2793  0.0353 -0.4545
  101MOL0    Cl13545   2.000   2.691  10.734 -0.1990 -0.0155  0.1184
  101MOL0     C13546   3.192   2.724  10.467  0.1228 -0.5494  0.0755
  101MOL0     C13547   3.330   2.698  10.469 -0.0754  0.0252 -0.1330
  101MOL0     O13548   3.541   2.613  10.220 -0.3407  0.6798  0.7690
  101MOL0     C13549   3.812   2.550  10.205 -0.1473  0.1792  0.8871
  101MOL0     C13550   3.954   2.511  10.188  0.2154  0.1723 -0.5691
  101MOL0     N13551   4.628   2.433  10.147  0.7656  0.5255 -0.7697
  101MOL0     N13552   4.748   2.475  10.159  0.7042  0.6747  0.8177
  101MOL0     C13553   5.576   1.861  10.132 -0.1476  0.7811 -0.6444
  101MOL0     C13554   5.684   1.785  10.191 -0.7939 -0.0121 -0.0705
  101MOL0     C13555   6.070   1.716  10.423 -0.7657 -0.6165 -0.2175
  101MOL0     C13556   6.089   1.709  10.561 -0.6813  0.0573  0.5248
  101MOL0     C13557   6.188   1.630  10.613 -0.3437 -0.8652 -0.4501
  101MOL0     C13558   6.263   1.547  10.528 -0.2522  0.5540  0.1240
  101MOL0     O13559   6.373   1.484  10.579  0.3093  0.0476 -0.1304
  101MOL0     C13560   6.482   1.576  10.614  0.8742  0.1953  0.0169
  101MOL0     C13561   6.611   1.510  10.667  0.2571  0.4271  0.3061
  101MOL0     C13562   6.743   1.588  10.649 -0.6417  0.1333 -0.0492
  101MOL0     C13563   6.785   1.599  10.506 -0.1161 -0.0441 -0.7657
  101MOL0     C13564   6.864   1.481  10.474  0.0318 -0.5483 -0.5720
  101MOL0     C13565   6.934   1.383  10.451  0.6776 -0.2216 -0.2345
  101MOL0     C13566   6.232   1.542  10.396 -0.3530  0.9113  0.2533
  101MOL0     C13567   6.139   1.631  10.340  0.0229 -0.6929  0.0115
  101MOL0     H13568   5.938   1.975  10.070  0.2181  0.7375  1.8313
  101MOL0     H13569   5.750   2.101   9.976  1.1134  1.0920  0.9663
  101MOL0     H13570   5.360   1.916  10.004 -1.2970 -0.4679 -2.8072
  101MOL0     H13571   5.347   2.063  10.116  0.0013  0.3635 -0.9073
  101MOL0     H13572   5.317   2.218   9.931 -1.2165  0.4479  0.2545
  101MOL0     H13573   5.371   2.097   9.815 -0.4609 -2.6878 -0.1871
  101MOL0     H13574   5.118   2.129   9.803 -2.3563  0.3700  0.4365
  101MOL0     H13575   5.190   1.965   9.817  0.9290 -0.8912  1.5924
  101MOL0     H13576   4.982   1.983   9.950 -1.3989  0.7499  1.3611
  101MOL0     H13577   5.099   1.969  10.061 -1.5794 -0.2847 -0.3137
  101MOL0     H13578   5.035   2.251   9.981  0.0031  0.9907  1.7486
  101MOL0     H13579   4.934   2.164  10.100 -0.5427 -2.1715 -0.8836
  101MOL0     H13580   5.161   2.121  10.219  2.4454  1.0620  0.9796
  101MOL0     H13581   5.204   2.278  10.141 -1.7109  0.6264 -2.2949
  101MOL0     H13582   5.016   2.229  10.365  1.9166  0.1339  0.5378
  101MOL0     H13583   5.149   2.343  10.324  1.4810  0.6127 -2.3257
  101MOL0     H13584   5.000   2.454  10.160 -0.5984 -1.7350 -1.0940
  101MOL0     H13585   4.959   2.479  10.331 -1.0360 -1.2114  2.5168
  101MOL0     H13586   4.780   2.172  10.279  2.0016  0.6874 -0.6533
  101MOL0     H13587   4.490   2.148  10.090 -0.9973 -3.7213  2.1398
  101MOL0     H13588   4.516   2.125  10.263  0.6406  1.4495 -0.1047
  101MOL0     H13589   4.287   2.199  10.218  0.2669 -0.7395 -0.0519
  101MOL0     H13590   4.346   2.337  10.138 -1.2459  3.3587  2.8917
  101MOL0     H13591   4.413   2.453  10.332 -2.2271  0.2738 -2.5530
  101MOL0     H13592   4.431   2.297  10.430 -0.0630  2.1769  0.8171
  101MOL0     H13593   4.213   2.428  10.491  0.8117  0.2073  0.6154
  101MOL0     H13594   4.199   2.264  10.432  1.1022 -0.2715 -1.2768
  101MOL0     H13595   3.989   2.325  10.460  0.8423 -1.3153 -0.8453
  101MOL0     H13596   3.640   2.408  10.570  0.6057  3.1731 -0.0602
  101MOL0     H13597   3.760   2.277  10.555 -1.1806  0.3757  1.5053
  101MOL0     H13598   3.794   2.439  10.625 -0.1855  0.4512 -0.0569
  101MOL0     H13599   3.303   2.390  10.326 -0.4812 -0.9051  0.1352
  101MOL0     H13600   3.063   2.462  10.302 -0.6261  1.2375  1.4579
  101MOL0     H13601   2.839   2.654  10.255  1.4693 -0.6756 -0.3434
  101MOL0     H13602   2.846   2.549  10.403 -0.3529 -0.2474  0.1250
  101MOL0     H13603   2.763   2.747  10.529 -3.0572  0.0493  1.2959
  101MOL0     H13604   2.725   2.821  10.375 -0.4433  0.7197  1.6044
  101MOL0     H13605   2.619   2.542  10.446 -3.7128 -0.6292  0.2541
  101MOL0     H13606   2.571   2.661  10.316 -3.0762  1.0324  1.2371
  101MOL0     H13607   2.508   2.707  10.599  2.4656  1.1372  0.3217
  101MOL0     H13608   2.494   2.816  10.465  3.6477  0.9760  2.1690
  101MOL0     H13609   2.365   2.532  10.487  1.6157 -0.0360  0.1362
  101MOL0     H13610   2.343   2.638  10.352 -2.2251  0.1847  0.7618
  101MOL0     H13611   2.265   2.713  10.636  0.1132 -0.4588 -0.1109
  101MOL0     H13612   2.266   2.822  10.509  0.3023  0.0078  1.3892
  101MOL0     H13613   2.123   2.629  10.386  1.1536 -2.4844  0.3428
  101MOL0     H13614   2.058   2.780  10.471  0.5045 -0.1576  0.6779
  101MOL0     H13615   2.126   2.522  10.611  0.3093 -0.1472 -0.9919
  101MOL0     H13616   1.962   2.541  10.543  0.2402 -1.5118  1.5691
  101MOL0     H13617   3.172   2.817  10.519 -1.0887 -0.9292  0.3080
  101MOL0     H13618   3.397   2.771  10.513  0.9780 -1.1418  0.2891
  101MOL0     H13619   3.768   2.609  10.125 -0.2513  0.9715  1.5146
  101MOL0     H13620   4.013   2.538  10.101  1.6168 -0.6997  0.0619
  101MOL0     H13621   5.478   1.821  10.154  0.2344  0.9602  1.6035
  101MOL0     H13622   5.673   1.693  10.248 -0.6257  0.0514  0.0639
  101MOL0     H13623   6.027   1.763  10.632 -3.1431 -0.4428 -1.1409
  101MOL0     H13624   6.213   1.626  10.718  0.8021 -0.9842 -0.7150
  101MOL0     H13625   6.500   1.639  10.526  1.1447 -1.6591 -1.3216
  101MOL0     H13626   6.445   1.645  10.690 -3.9846 -1.1152 -0.7923
  101MOL0     H13627   6.620   1.414  10.616 -1.1376  0.0776  0.6736
  101MOL0     H13628   6.603   1.497  10.776  2.3022  0.1707  0.4777
  101MOL0     H13629   6.818   1.540  10.713 -1.7629 -0.3338  0.9383
  101MOL0     H13630   6.724   1.682  10.703 -2.0921 -1.7169  2.8878
  101MOL0     H13631   6.855   1.681  10.485  0.4148 -0.5239 -0.8890
  101MOL0     H13632   6.699   1.626  10.444  0.6786  2.0749 -1.0475
  101MOL0     H13633   6.994   1.294  10.443 -1.1050 -1.8465  2.7864
  101MOL0     H13634   6.296   1.482  10.331 -0.3968 -0.5772  1.5163
  101MOL0     H13635   6.131   1.636  10.232 -0.2217  3.0788  0.0605
  102MOL0     O13636   5.708  10.402   4.833  0.5527  0.0211 -0.4852
  102MOL0     C13637   5.738  10.420   4.945 -0.3559 -0.6871  0.2789
  102MOL0     O13638   5.656  10.463   5.038 -0.0606  0.3340  0.0643
  102MOL0     C13639   5.526  10.435   5.012 -0.6533 -0.6395  0.7426
  102MOL0     C13640   5.441  10.546   5.001 -0.6209  0.2288 -0.3214
  102MOL0     C13641   5.306  10.526   4.955 -0.1887  0.3957  0.5444
  102MOL0     C13642   5.254  10.399   4.927 -0.4328 -0.6336 -0.0992
  102MOL0     O13643   5.127  10.373   4.876 -0.2897  0.3057 -0.0593
  102MOL0     C13644   5.033  10.478   4.885  0.3769  0.2756 -0.5588
  102MOL0     C13645   4.908  10.401   4.848  0.7589  0.8206  0.1841
  102MOL0     C13646   4.787  10.497   4.821 -0.3598 -0.0859  0.0610
  102MOL0     C13647   4.668  10.429   4.760 -0.3646  0.5705  0.4521
  102MOL0     C13648   4.558  10.536   4.732 -0.0294  0.0738 -0.9516
  102MOL0     C13649   4.423  10.479   4.696  0.3540  0.0970  0.6799
  102MOL0     C13650   4.324  10.575   4.627 -1.1262 -0.0149  0.0515
  102MOL0     C13651   4.202  10.500   4.577 -0.2807 -0.0395 -1.3206
  102MOL0     N13652   4.241  10.391   4.493  0.0900  0.1003  0.5048
  102MOL0     C13653   4.251  10.259   4.533 -0.1639 -0.1987 -1.0275
  102MOL0     C13654   4.258  10.196   4.411 -0.2073 -0.0249  0.3543
  102MOL0     C13655   4.274  10.048   4.383  0.4055 -0.1913  0.0439
  102MOL0     C13656   4.420  10.012   4.351  0.0249  0.3238 -0.3648
  102MOL0     C13657   4.520  10.032   4.468 -0.7141 -0.0062 -0.1779
  102MOL0     C13658   4.668  10.018   4.425  0.5426  0.9888 -0.7424
  102MOL0     O13659   4.746  10.046   4.532 -0.0898 -0.5014  0.6764
  102MOL0     C13660   4.883  10.047   4.520  0.1124 -0.2311  1.3366
  102MOL0     C13661   4.949  10.040   4.393  0.3240  0.1444 -0.2521
  102MOL0     C13662   5.084  10.002   4.385 -1.3914  0.1878 -0.2408
  102MOL0     C13663   5.142   9.946   4.259 -0.4903 -0.3142 -0.2969
  102MOL0     C13664   5.162  10.013   4.509  0.6872  0.3214  0.0414
  102MOL0     C13665   5.308  10.013   4.518 -0.0294 -0.1573  0.0130
  102MOL0     O13666   5.373   9.991   4.642  0.8046 -0.5808  0.4827
  102MOL0     C13667   5.509   9.998   4.640  0.6392 -0.2364  0.8665
  102MOL0     C13668   5.561  10.090   4.724  0.5686  0.6026 -0.0378
  102MOL0     C13669   5.698  10.083   4.745  1.2488 -0.5590 -0.9036
  102MOL0     C13670   5.786   9.992   4.688  0.4459  1.0156  0.4787
  102MOL0     O13671   5.919   9.997   4.721 -0.5249 -0.2393  0.7552
  102MOL0     C13672   5.986   9.873   4.742 -0.0810  0.1595  0.6129
  102MOL0     C13673   6.133   9.904   4.718 -0.2457  1.4844 -0.1101
  102MOL0     C13674   6.192   9.986   4.834  0.0860 -0.2769  0.3102
  102MOL0     C13675   6.342   9.982   4.828  0.0216  1.3110 -0.0923
  102MOL0     C13676   6.410  10.050   4.958 -0.5916 -0.0369  0.2225
  102MOL0     C13677   6.563  10.020   4.977  0.1317 -0.7871  0.1859
  102MOL0     C13678   6.642  10.095   4.871 -0.0979 -1.1280  0.0172
  102MOL0     C13679   6.799  10.080   4.888  0.3652  0.8836  0.4322
  102MOL0    Cl13680   6.842  10.165   5.038  0.1630 -0.0286 -0.6062
  102MOL0     C13681   5.727   9.909   4.599  0.1012 -0.1484  0.5039
  102MOL0     C13682   5.594   9.908   4.571  0.7666 -0.4283  0.5556
  102MOL0     O13683   5.372  10.018   4.414 -0.2438 -0.1330 -0.1279
  102MOL0     C13684   5.094  10.039   4.633  0.4467  0.0736  0.0553
  102MOL0     C13685   4.956  10.045   4.635  0.0300 -0.6034  0.7342
  102MOL0     N13686   4.252  10.281   4.300  0.1064  0.1179  0.1767
  102MOL0     N13687   4.246  10.402   4.350 -0.6739  0.3819  0.1473
  102MOL0     C13688   5.339  10.295   4.967  0.2411  0.0581 -0.1172
  102MOL0     C13689   5.470  10.309   5.011 -0.6858  0.2179 -0.4880
  102MOL0     C13690   5.881  10.419   4.987 -0.0025  0.0640  0.3039
  102MOL0     C13691   5.984  10.395   4.893 -0.0584  0.3844  0.3905
  102MOL0     C13692   6.120  10.398   4.922 -0.4125  0.0739  0.6592
  102MOL0     C13693   6.167  10.425   5.051 -0.4600  0.6210  0.0127
  102MOL0     O13694   6.300  10.435   5.077 -0.4121 -0.2346  0.9323
  102MOL0     C13695   6.336  10.551   5.150  0.4280 -0.3133 -0.2937
  102MOL0     C13696   6.487  10.559   5.138  0.0350 -0.0313  0.1785
  102MOL0     C13697   6.556  10.430   5.182 -0.1549  1.0816  0.1006
  102MOL0     C13698   6.544  10.386   5.331  0.2823  0.2758 -1.2893
  102MOL0     C13699   6.625  10.265   5.356 -0.6289 -0.7964  1.2031
  102MOL0     C13700   6.713  10.182   5.360 -0.7259 -0.0066  0.1688
  102MOL0     C13701   6.066  10.455   5.141  0.1272 -0.3174 -0.0822
  102MOL0     C13702   5.922  10.470   5.110 -0.4050 -0.0713  0.3288
  102MOL0     H13703   5.481  10.645   5.019  0.8210 -0.3214 -0.4210
  102MOL0     H13704   5.245  10.615   4.943 -0.5000  0.0928 -0.2504
  102MOL0     H13705   5.026  10.514   4.988  0.1174  1.2946 -0.9163
  102MOL0     H13706   5.042  10.556   4.809 -0.9625 -0.4276 -1.4976
  102MOL0     H13707   4.928  10.339   4.761  1.1525 -0.5304  1.2051
  102MOL0     H13708   4.889  10.333   4.932  0.1441 -0.3170 -0.8399
  102MOL0     H13709   4.757  10.540   4.916 -0.5383 -0.1928  0.0535
  102MOL0     H13710   4.826  10.579   4.759 -1.3801  1.3663  1.2842
  102MOL0     H13711   4.698  10.384   4.665 -3.8258 -2.5749  0.5993
  102MOL0     H13712   4.629  10.353   4.828 -0.3603 -0.5203 -0.7427
  102MOL0     H13713   4.542  10.605   4.816 -0.2185 -0.6062 -0.4273
  102MOL0     H13714   4.587  10.596   4.645 -3.4101  1.6672 -1.1197
  102MOL0     H13715   4.450  10.404   4.621 -3.0139  0.2938 -0.9137
  102MOL0     H13716   4.381  10.432   4.785  1.2569 -0.6156  0.7337
  102MOL0     H13717   4.298  10.654   4.698 -0.5779 -0.3911  0.6833
  102MOL0     H13718   4.385  10.621   4.549  1.0750 -0.4059  1.4718
  102MOL0     H13719   4.134  10.557   4.512 -0.3273 -0.8980 -2.0397
  102MOL0     H13720   4.143  10.468   4.664 -0.0721  0.0244 -1.1562
  102MOL0     H13721   4.246  10.227   4.637 -2.0940  1.4822 -0.5255
  102MOL0     H13722   4.242   9.998   4.475 -0.9853  1.7601  0.6877
  102MOL0     H13723   4.213  10.010   4.301  0.2431  0.1961 -0.0179
  102MOL0     H13724   4.449  10.076   4.267 -0.2236 -1.7733 -2.1469
  102MOL0     H13725   4.419   9.908   4.315 -0.9335  0.9519 -2.3139
  102MOL0     H13726   4.495   9.965   4.550  0.1333 -0.0748  0.0372
  102MOL0     H13727   4.516  10.137   4.499  0.8676  0.2305 -0.6735
  102MOL0     H13728   4.682  10.091   4.344  0.1134  0.4843 -1.2774
  102MOL0     H13729   4.677   9.913   4.395 -2.3626  0.9222 -1.7314
  102MOL0     H13730   4.897  10.034   4.298 -0.8726  0.1077  0.3842
  102MOL0     H13731   5.070   9.946   4.177  0.3327 -0.4225 -1.0378
  102MOL0     H13732   5.226  10.008   4.227  0.4820 -0.7448  1.2623
  102MOL0     H13733   5.183   9.846   4.278 -0.4849 -0.1750  0.4491
  102MOL0     H13734   5.501  10.168   4.771 -0.3503 -1.3731  2.3091
  102MOL0     H13735   5.735  10.157   4.814  0.0232  0.2186 -1.0531
  102MOL0     H13736   5.957   9.831   4.838 -0.5018 -2.4931 -0.5886
  102MOL0     H13737   5.948   9.800   4.670 -0.7619 -0.2717  1.3918
  102MOL0     H13738   6.191   9.813   4.705 -0.2590  1.6538 -1.5400
  102MOL0     H13739   6.155   9.962   4.628  2.3818  1.5080  0.4683
  102MOL0     H13740   6.156   9.954   4.932 -0.1033  0.1945  0.3970
  102MOL0     H13741   6.163  10.091   4.821  0.7675 -0.0257  0.7929
  102MOL0     H13742   6.379   9.880   4.820 -3.1823  0.0708 -0.5702
  102MOL0     H13743   6.383  10.022   4.735 -0.0323  0.6223 -0.4135
  102MOL0     H13744   6.362  10.006   5.046  1.7931 -3.2745  0.1104
  102MOL0     H13745   6.396  10.158   4.948  2.4069  0.3986 -0.0944
  102MOL0     H13746   6.599  10.047   5.077  3.9558 -2.5234 -0.5613
  102MOL0     H13747   6.569   9.913   4.952 -2.3687 -1.2031  1.0189
  102MOL0     H13748   6.619  10.200   4.850  0.8395 -1.3015 -2.2233
  102MOL0     H13749   6.620  10.051   4.773 -0.2911  2.6538 -1.8112
  102MOL0     H13750   6.857  10.118   4.803  1.8349  2.1302  1.9114
  102MOL0     H13751   6.829   9.976   4.896 -1.9470  0.1799  0.7483
  102MOL0     H13752   5.785   9.838   4.541 -0.8682 -1.5257  1.1632
  102MOL0     H13753   5.550   9.828   4.514 -0.5933  1.1154 -0.6284
  102MOL0     H13754   5.148  10.035   4.727 -2.0425  0.2122  1.6032
  102MOL0     H13755   4.905  10.051   4.731  1.5754  1.2212  1.5058
  102MOL0     H13756   5.295  10.196   4.955 -0.1551  0.4646 -2.5283
  102MOL0     H13757   5.538  10.225   5.005 -0.1043  0.5611  0.9205
  102MOL0     H13758   5.952  10.363   4.794 -1.4611  3.8172 -0.3953
  102MOL0     H13759   6.194  10.393   4.843  0.1352  0.7962  1.1154
  102MOL0     H13760   6.285  10.641   5.116 -1.0695 -0.6657  0.9081
  102MOL0     H13761   6.309  10.525   5.253  1.3990  2.2751  0.6904
  102MOL0     H13762   6.525  10.643   5.197 -1.6825  0.3250  0.8495
  102MOL0     H13763   6.513  10.576   5.033 -0.4226 -0.7954 -0.0630
  102MOL0     H13764   6.661  10.437   5.151  0.1908  0.0036  0.9565
  102MOL0     H13765   6.514  10.349   5.121  2.4383  1.3422 -2.2788
  102MOL0     H13766   6.440  10.363   5.353  0.1576  1.2195 -0.8452
  102MOL0     H13767   6.566  10.472   5.396 -0.4080 -1.2497  1.1126
  102MOL0     H13768   6.793  10.111   5.364 -1.0029 -0.3328 -0.1143
  102MOL0     H13769   6.090  10.490   5.241 -3.0875  1.0946  0.3387
  102MOL0     H13770   5.844  10.496   5.181 -0.8673 -3.6131  1.3261
  103MOL0     O13771   1.811   7.846   9.096  0.3700 -0.8537 -0.6929
  103MOL0     C13772   1.835   7.820   8.983  0.8318  1.1501 -0.1409
  103MOL0     O13773   1.745   7.799   8.882  0.0472  0.7424  0.3269
  103MOL0     C13774   1.615   7.792   8.900 -0.2310 -0.7267 -0.1810
  103MOL0     C13775   1.558   7.742   9.013  0.1022 -0.4001  0.3819
  103MOL0     C13776   1.416   7.718   9.017 -0.1136  0.0420  0.5764
  103MOL0     C13777   1.333   7.773   8.923 -0.5583  0.2955 -0.7910
  103MOL0     O13778   1.201   7.778   8.962 -0.3302 -0.1267  0.7542
  103MOL0     C13779   1.104   7.874   8.911 -0.3494  0.0877 -0.1790
  103MOL0     C13780   1.138   8.017   8.943 -0.2186  0.1433 -0.5514
  103MOL0     C13781   1.025   8.107   8.912  0.2537 -1.0028 -0.0779
  103MOL0     C13782   0.985   8.110   8.763  0.4935  0.4359 -0.1725
  103MOL0     C13783   0.920   8.238   8.727  0.0544 -0.2719  0.1218
  103MOL0     C13784   0.841   8.252   8.596  0.2639  0.5994  1.0147
  103MOL0     C13785   0.929   8.284   8.479 -0.2555 -0.7997  0.5771
  103MOL0     C13786   0.865   8.249   8.336 -0.2679 -0.0743 -0.3081
  103MOL0     N13787   0.781   8.362   8.287  0.3526  0.3718  0.0553
  103MOL0     C13788   0.659   8.403   8.331 -0.3045  1.3433  1.0406
  103MOL0     C13789   0.634   8.515   8.256  0.4610  0.5244  0.0879
  103MOL0     C13790   0.510   8.607   8.271  0.3778 -0.5881 -0.7913
  103MOL0     C13791   0.523   8.701   8.387  0.3163 -0.1943 -1.0904
  103MOL0     C13792   0.388   8.752   8.435  0.0428  0.6578  0.2755
  103MOL0     C13793   0.323   8.833   8.337  0.7170 -0.0720 -0.3844
  103MOL0     O13794   0.254   8.925   8.421  0.4723  0.2029  0.0745
  103MOL0     C13795   0.118   8.914   8.434 -0.4619  0.7033 -0.4642
  103MOL0     C13796   0.033   8.804   8.408  0.3189 -1.1497  0.6522
  103MOL0     C13797  -0.106   8.819   8.390  0.2013 -0.4334 -0.5291
  103MOL0     C13798  -0.191   8.692   8.366 -0.2507  0.3258 -0.0431
  103MOL0     C13799  -0.176   8.942   8.402 -0.0771 -0.1614  0.5095
  103MOL0     C13800  -0.314   8.974   8.377 -0.3156 -0.4586 -1.4967
  103MOL0     O13801  -0.351   9.100   8.338 -0.5496  0.5153 -0.6207
  103MOL0     C13802  -0.475   9.144   8.350  0.6096  0.4136  0.5431
  103MOL0     C13803  -0.495   9.269   8.415  1.1189  0.8675 -0.5601
  103MOL0     C13804  -0.624   9.326   8.436  0.1743 -0.3141  0.0273
  103MOL0     C13805  -0.738   9.257   8.377  0.0389  0.3648  0.1626
  103MOL0     O13806  -0.861   9.307   8.404  0.3255  0.1229 -0.5992
  103MOL0     C13807  -0.899   9.417   8.326  0.2147 -0.3662  1.0547
  103MOL0     C13808  -0.956   9.386   8.189 -0.9283  0.6449  0.6297
  103MOL0     C13809  -1.083   9.305   8.188 -0.9722  0.3616  0.1121
  103MOL0     C13810  -1.172   9.301   8.063 -0.5880 -0.3659 -0.2834
  103MOL0     C13811  -1.301   9.226   8.094 -0.2673 -0.1542  0.4170
  103MOL0     C13812  -1.399   9.271   7.985  0.2599 -0.0977 -0.3149
  103MOL0     C13813  -1.540   9.213   8.010  0.4693  0.5876 -0.2954
  103MOL0     C13814  -1.652   9.246   7.904  0.0653 -0.1019  0.1790
  103MOL0    Cl13815  -1.807   9.177   7.949 -0.3868  0.2684 -0.0847
  103MOL0     C13816  -0.716   9.144   8.301  0.4818 -0.2172 -0.8906
  103MOL0     C13817  -0.586   9.087   8.283  0.1831  0.3121  0.2882
  103MOL0     O13818  -0.399   8.895   8.421  0.5187  0.1150 -0.0844
  103MOL0     C13819  -0.090   9.049   8.433  0.1442 -0.6399  0.0716
  103MOL0     C13820   0.050   9.035   8.442  0.4750 -0.3758  0.1748
  103MOL0     N13821   0.742   8.539   8.174 -0.1482 -0.1607  0.2608
  103MOL0     N13822   0.825   8.441   8.186 -0.6735  0.1197 -0.3039
  103MOL0     C13823   1.387   7.843   8.816 -0.4531 -0.3088  0.1859
  103MOL0     C13824   1.524   7.851   8.807 -0.0234  0.6243 -0.2081
  103MOL0     C13825   1.974   7.784   8.958  0.9379  0.1389  0.8886
  103MOL0     C13826   2.069   7.796   9.061  0.3596 -0.3808  0.1775
  103MOL0     C13827   2.204   7.771   9.025 -0.0787 -0.1120  0.0131
  103MOL0     C13828   2.240   7.744   8.892 -0.1199 -0.0329 -0.0834
  103MOL0     O13829   2.370   7.730   8.849  0.2830  0.6702 -0.1635
  103MOL0     C13830   2.472   7.729   8.949 -0.2694 -1.0484 -0.2367
  103MOL0     C13831   2.559   7.857   8.949 -0.2794 -0.1612 -0.2180
  103MOL0     C13832   2.665   7.841   9.047  0.0375 -0.3078 -0.1621
  103MOL0     C13833   2.729   7.977   9.090  0.2997  0.3490  0.1522
  103MOL0     C13834   2.833   7.953   9.183 -0.6726  0.5579 -0.8677
  103MOL0     C13835   2.933   7.929   9.246  0.6806  0.4038  0.2651
  103MOL0     C13836   2.142   7.713   8.799  0.5931 -1.0838  0.4623
  103MOL0     C13837   2.008   7.725   8.832  0.3093  0.7565  0.2285
  103MOL0     H13838   1.623   7.693   9.084  0.2400 -0.0637  0.4893
  103MOL0     H13839   1.374   7.670   9.105 -0.2418  0.8094  0.9338
  103MOL0     H13840   1.086   7.863   8.804 -0.7937 -0.2648 -0.0684
  103MOL0     H13841   1.011   7.846   8.961  0.0100  1.5067  1.4084
  103MOL0     H13842   1.167   8.015   9.049 -0.9449  0.8388 -0.3298
  103MOL0     H13843   1.228   8.057   8.895 -0.1952  0.7770  0.0124
  103MOL0     H13844   0.940   8.077   8.974  0.4661 -0.9553  0.2359
  103MOL0     H13845   1.053   8.208   8.945 -1.3317 -0.2865 -0.7935
  103MOL0     H13846   1.074   8.102   8.700  1.3308  3.4565  0.4401
  103MOL0     H13847   0.916   8.028   8.739  2.6784 -1.4054 -0.4974
  103MOL0     H13848   0.845   8.250   8.805 -0.2483 -0.5133 -0.1278
  103MOL0     H13849   0.997   8.316   8.733  1.4054 -1.1319 -3.3580
  103MOL0     H13850   0.788   8.158   8.583 -0.7960  1.0106  2.1675
  103MOL0     H13851   0.770   8.335   8.608 -1.2678 -0.2934 -1.1492
  103MOL0     H13852   0.961   8.388   8.482 -0.6594 -0.6914  1.6849
  103MOL0     H13853   1.021   8.228   8.498 -0.1497 -0.0625  2.4503
  103MOL0     H13854   0.803   8.160   8.347 -3.0606  1.8848  0.9879
  103MOL0     H13855   0.953   8.240   8.271  0.9554  0.5400  1.2131
  103MOL0     H13856   0.591   8.357   8.401 -2.2044  1.9372 -0.3283
  103MOL0     H13857   0.510   8.678   8.188 -1.9256  1.8342  1.1107
  103MOL0     H13858   0.420   8.545   8.278 -0.1550  0.1723 -0.6883
  103MOL0     H13859   0.577   8.791   8.358 -1.3140  0.9349 -0.7605
  103MOL0     H13860   0.572   8.649   8.469 -1.0838 -1.2638 -0.8857
  103MOL0     H13861   0.410   8.812   8.524  1.4524 -1.4531  1.4561
  103MOL0     H13862   0.325   8.666   8.461 -0.4848  0.9320 -0.0997
  103MOL0     H13863   0.265   8.768   8.271 -0.6661 -1.8981  2.4343
  103MOL0     H13864   0.400   8.890   8.284  2.7030 -0.3950  1.9434
  103MOL0     H13865   0.075   8.705   8.396 -2.5920 -2.1764 -3.7081
  103MOL0     H13866  -0.117   8.616   8.339  0.8573  0.8719  1.3141
  103MOL0     H13867  -0.237   8.666   8.461 -0.7995 -0.3768 -0.4887
  103MOL0     H13868  -0.269   8.692   8.289 -0.6694  1.1393  0.3663
  103MOL0     H13869  -0.413   9.332   8.449  0.8309  0.2866  1.3447
  103MOL0     H13870  -0.637   9.414   8.497 -0.7242 -0.8050  0.5617
  103MOL0     H13871  -0.984   9.464   8.375 -2.0167 -2.1642 -0.8068
  103MOL0     H13872  -0.818   9.488   8.306  1.1961 -2.1830 -2.1454
  103MOL0     H13873  -0.993   9.476   8.139 -0.7277 -0.1116 -0.9420
  103MOL0     H13874  -0.887   9.335   8.121 -1.3957 -0.6890  1.1284
  103MOL0     H13875  -1.150   9.342   8.265 -1.1977 -0.2300  0.2074
  103MOL0     H13876  -1.058   9.201   8.209 -2.9922  0.6437  5.0999
  103MOL0     H13877  -1.190   9.406   8.038 -2.0592 -0.5173  0.0776
  103MOL0     H13878  -1.117   9.261   7.978 -0.7954  1.1436 -1.1641
  103MOL0     H13879  -1.345   9.240   8.193  0.1368  0.2817  0.5379
  103MOL0     H13880  -1.276   9.120   8.091  0.4261  0.0081  0.1422
  103MOL0     H13881  -1.404   9.380   7.977  5.0442  0.4031  0.4342
  103MOL0     H13882  -1.369   9.229   7.889 -0.7033  3.3710 -2.2690
  103MOL0     H13883  -1.566   9.225   8.116  0.0184 -2.2327  0.0095
  103MOL0     H13884  -1.542   9.103   8.015 -1.1911  0.6415  3.0267
  103MOL0     H13885  -1.627   9.199   7.808 -0.6771  0.1264 -0.1421
  103MOL0     H13886  -1.659   9.355   7.893 -1.8642 -0.3534 -1.9891
  103MOL0     H13887  -0.807   9.098   8.264  0.3321 -1.0732  0.4627
  103MOL0     H13888  -0.571   8.995   8.228  2.4095  1.2537 -0.8303
  103MOL0     H13889  -0.126   9.151   8.438 -3.4365 -1.7198 -0.7696
  103MOL0     H13890   0.102   9.125   8.473 -1.0149 -0.0555  1.9046
  103MOL0     H13891   1.326   7.900   8.746 -3.6606 -1.5313  1.8098
  103MOL0     H13892   1.568   7.912   8.729  2.4564  0.5483  1.0224
  103MOL0     H13893   2.057   7.836   9.161  1.9986  2.5336 -0.6598
  103MOL0     H13894   2.271   7.787   9.109  1.3597 -0.2401 -1.0755
  103MOL0     H13895   2.445   7.691   9.048  2.5501 -1.3004  0.5259
  103MOL0     H13896   2.543   7.652   8.918  0.7535 -0.8335  1.3903
  103MOL0     H13897   2.495   7.945   8.961 -0.9262 -0.4317 -1.5697
  103MOL0     H13898   2.596   7.864   8.847 -1.5740  0.0489 -0.6960
  103MOL0     H13899   2.744   7.776   9.009 -0.6919 -2.0590  1.1462
  103MOL0     H13900   2.616   7.806   9.139 -0.6218  1.6460  0.2873
  103MOL0     H13901   2.642   8.030   9.129  0.1087 -0.0591  0.2868
  103MOL0     H13902   2.781   8.032   9.011 -0.8421  2.7484  0.9568
  103MOL0     H13903   3.021   7.889   9.293  2.1947 -1.1828 -3.4994
  103MOL0     H13904   2.168   7.705   8.694  0.6213 -0.3761  0.4119
  103MOL0     H13905   1.929   7.712   8.758 -0.7513 -3.1924  1.7961
  104MOL0     O13906   3.408  11.160   7.594  0.4332 -0.3744 -0.0246
  104MOL0     C13907   3.473  11.135   7.492 -0.6474  0.1497  0.3160
  104MOL0     O13908   3.434  11.140   7.364 -0.3283 -0.1966 -0.1888
  104MOL0     C13909   3.299  11.145   7.336  0.5476 -0.1311 -1.0137
  104MOL0     C13910   3.208  11.061   7.395 -0.9334 -1.1657 -1.6493
  104MOL0     C13911   3.070  11.051   7.350  0.2651  0.1808 -0.6318
  104MOL0     C13912   3.027  11.133   7.247 -0.3512  0.2654 -0.6803
  104MOL0     O13913   2.894  11.132   7.200  0.0996 -0.6155  0.2018
  104MOL0     C13914   2.866  11.021   7.107 -0.1776  0.4889  0.0746
  104MOL0     C13915   2.751  11.051   7.016 -1.2620  0.6196  0.2982
  104MOL0     C13916   2.608  11.064   7.077  0.1226 -0.2186 -0.9191
  104MOL0     C13917   2.497  11.093   6.971 -0.3268  0.4224  0.0266
  104MOL0     C13918   2.360  11.125   7.033 -0.3227 -0.1902 -0.7462
  104MOL0     C13919   2.297  11.001   7.106  0.5548  0.7578 -1.7523
  104MOL0     C13920   2.152  11.013   7.162  0.2288  0.8920 -0.1533
  104MOL0     C13921   2.146  10.947   7.301 -0.1585 -0.1540 -0.1562
  104MOL0     N13922   2.013  10.942   7.357  0.2236  0.3905 -0.3994
  104MOL0     C13923   1.982  10.928   7.490  0.0003  0.0273 -0.0906
  104MOL0     C13924   1.852  10.948   7.502 -0.4507  0.1380  0.4966
  104MOL0     C13925   1.789  10.931   7.636 -0.2270 -0.5348  0.7611
  104MOL0     C13926   1.659  11.011   7.645 -0.5819 -0.3112 -0.1597
  104MOL0     C13927   1.573  10.990   7.768  0.3264  0.5113 -0.1769
  104MOL0     C13928   1.440  11.073   7.758  0.2554 -0.4388 -0.6364
  104MOL0     O13929   1.354  11.040   7.867  0.0495  0.4894  0.6716
  104MOL0     C13930   1.250  11.123   7.901  0.4173  0.2690  0.4107
  104MOL0     C13931   1.239  11.255   7.894  0.4620 -0.5553  0.8607
  104MOL0     C13932   1.116  11.318   7.932 -0.9100  1.1997 -0.2995
  104MOL0     C13933   1.107  11.470   7.908  0.6092 -0.0679  0.3398
  104MOL0     C13934   1.012  11.239   7.991 -0.4205 -0.4054 -0.1518
  104MOL0     C13935   0.882  11.299   8.034  0.6479  0.1886  0.0936
  104MOL0     O13936   0.872  11.427   8.090 -0.0579 -0.3588  0.0330
  104MOL0     C13937   0.750  11.488   8.085  0.3694 -0.0195  0.5041
  104MOL0     C13938   0.701  11.534   8.207  0.0066  0.0374 -0.1164
  104MOL0     C13939   0.582  11.600   8.199 -0.2079 -0.0836 -1.0696
  104MOL0     C13940   0.503  11.603   8.082 -0.0768 -1.0610 -0.8425
  104MOL0     O13941   0.377  11.644   8.110  0.2662 -0.8872 -0.4230
  104MOL0     C13942   0.276  11.589   8.016  0.7746 -0.2145 -0.4069
  104MOL0     C13943   0.149  11.568   8.091  0.5678 -0.5201  0.5847
  104MOL0     C13944   0.062  11.695   8.097  0.6094  0.2500 -0.0501
  104MOL0     C13945   0.118  11.817   8.170  0.4058 -0.5998 -0.3454
  104MOL0     C13946   0.025  11.929   8.180 -0.1034 -0.2905 -0.6478
  104MOL0     C13947   0.088  12.062   8.220  0.0472 -0.0686 -0.0770
  104MOL0     C13948  -0.000  12.167   8.273  0.1498  0.7968 -0.0394
  104MOL0     C13949  -0.056  12.242   8.148 -0.2230 -0.1158 -0.5920
  104MOL0    Cl13950   0.037  12.386   8.096  0.2138 -0.2826 -0.0809
  104MOL0     C13951   0.567  11.569   7.964  0.8345  0.7202  0.2468
  104MOL0     C13952   0.690  11.511   7.961  0.8864  0.3038  0.6337
  104MOL0     O13953   0.791  11.224   8.009  0.8355 -1.2319  0.5002
  104MOL0     C13954   1.034  11.101   8.001  0.2746 -0.6913 -0.0877
  104MOL0     C13955   1.161  11.047   7.966 -0.4988  0.0453 -0.0305
  104MOL0     N13956   1.793  10.980   7.380 -0.7530  0.8404 -0.3401
  104MOL0     N13957   1.896  10.981   7.300  0.6408 -0.6195  0.5263
  104MOL0     C13958   3.115  11.220   7.197 -0.7853  0.5168  0.2172
  104MOL0     C13959   3.251  11.229   7.239  0.0733 -0.0888  0.8874
  104MOL0     C13960   3.620  11.119   7.515  0.6545  0.1033  0.5753
  104MOL0     C13961   3.677  11.091   7.639  0.7099  0.0323 -0.1620
  104MOL0     C13962   3.815  11.084   7.656 -0.0763  0.6674  0.6532
  104MOL0     C13963   3.906  11.077   7.548  0.2365  0.0544 -0.0093
  104MOL0     O13964   4.036  11.061   7.581  0.3025 -0.0015 -0.2626
  104MOL0     C13965   4.116  11.064   7.471 -1.1029  0.6162  1.1420
  104MOL0     C13966   4.261  11.079   7.506 -0.1887 -0.4538  0.0857
  104MOL0     C13967   4.281  11.188   7.615  0.4524  0.1936 -0.1817
  104MOL0     C13968   4.415  11.261   7.615 -0.4125  0.2976  0.0576
  104MOL0     C13969   4.525  11.171   7.614 -0.5463  0.4973  0.3284
  104MOL0     C13970   4.629  11.112   7.611 -0.1273  0.4768 -0.0591
  104MOL0     C13971   3.835  11.085   7.427 -0.1854 -0.6235 -0.7245
  104MOL0     C13972   3.704  11.107   7.409  1.0482  0.3639 -0.0045
  104MOL0     H13973   3.252  10.999   7.472 -0.3919 -0.9293 -1.7633
  104MOL0     H13974   3.007  10.970   7.387 -1.6442  2.0709  0.5161
  104MOL0     H13975   2.956  11.018   7.045  0.0394 -1.1758  0.4310
  104MOL0     H13976   2.843  10.933   7.167  0.5096 -0.7844 -1.4569
  104MOL0     H13977   2.774  11.139   6.954  2.9622  0.0579  0.7413
  104MOL0     H13978   2.744  10.968   6.946  0.7157 -0.2393  1.0451
  104MOL0     H13979   2.579  10.970   7.124 -1.9630 -0.4666 -2.5453
  104MOL0     H13980   2.604  11.137   7.159 -0.2259  1.5778 -2.4634
  104MOL0     H13981   2.528  11.177   6.908 -1.8355  1.0421  0.0650
  104MOL0     H13982   2.489  10.994   6.925  0.9051  0.1907  0.2754
  104MOL0     H13983   2.361  11.210   7.101 -1.2138  0.3717 -1.4154
  104MOL0     H13984   2.285  11.141   6.955 -3.5250 -1.5073  1.8178
  104MOL0     H13985   2.302  10.916   7.037 -0.0995 -1.4259  0.7251
  104MOL0     H13986   2.360  10.974   7.192 -0.6738  2.0720 -0.3737
  104MOL0     H13987   2.120  11.117   7.175 -0.0090  0.8516 -0.4129
  104MOL0     H13988   2.076  10.971   7.096  0.2355  0.8423 -0.1290
  104MOL0     H13989   2.214  11.005   7.364  0.1392  0.0128 -0.6215
  104MOL0     H13990   2.191  10.848   7.297 -0.0553 -0.1650  1.0821
  104MOL0     H13991   2.051  10.902   7.569 -0.2990 -0.8789 -0.1148
  104MOL0     H13992   1.761  10.828   7.662  1.5457 -0.7475  1.9568
  104MOL0     H13993   1.853  10.962   7.719 -1.0519  0.5790  1.0031
  104MOL0     H13994   1.600  10.986   7.556 -1.6443  0.7167  0.2343
  104MOL0     H13995   1.680  11.118   7.638 -2.8143  0.7497  4.7913
  104MOL0     H13996   1.621  11.036   7.854 -0.9456  1.3968  0.0956
  104MOL0     H13997   1.552  10.886   7.795 -2.4130  1.1733  0.5466
  104MOL0     H13998   1.385  11.048   7.666  0.5222  1.9739 -1.5383
  104MOL0     H13999   1.468  11.179   7.758 -3.3433  0.6615 -0.8715
  104MOL0     H14000   1.314  11.310   7.839 -2.5865  1.4220 -1.6696
  104MOL0     H14001   1.011  11.515   7.932  0.1562 -0.0022 -1.4044
  104MOL0     H14002   1.188  11.503   7.974  0.8413 -2.4560  1.3706
  104MOL0     H14003   1.126  11.490   7.802  2.0163  0.3554  0.6498
  104MOL0     H14004   0.743  11.532   8.307 -0.0838  0.0225 -0.0793
  104MOL0     H14005   0.545  11.633   8.296  1.2068 -0.8467 -0.2181
  104MOL0     H14006   0.279  11.662   7.934  0.0033  1.1168  0.6849
  104MOL0     H14007   0.303  11.488   7.984  0.8805 -0.7390  1.2414
  104MOL0     H14008   0.088  11.497   8.036 -3.0576  2.1940  0.6732
  104MOL0     H14009   0.160  11.538   8.196  0.3600 -1.1144  0.4352
  104MOL0     H14010  -0.031  11.668   8.148 -1.0164 -1.1440 -3.4958
  104MOL0     H14011   0.040  11.733   7.997 -0.4568  1.8579  0.7366
  104MOL0     H14012   0.128  11.788   8.275  0.7156  0.5417 -0.0338
  104MOL0     H14013   0.205  11.845   8.110 -2.0362  1.6147 -3.1422
  104MOL0     H14014  -0.055  11.905   8.250  2.1255 -3.5265  1.0115
  104MOL0     H14015  -0.020  11.935   8.080 -2.5768 -0.1149  0.3915
  104MOL0     H14016   0.151  12.046   8.308 -0.1316  1.5810  0.3808
  104MOL0     H14017   0.159  12.095   8.143  1.1910  3.8398  2.3799
  104MOL0     H14018   0.051  12.230   8.347 -0.3238 -0.6750  1.6196
  104MOL0     H14019  -0.084  12.112   8.317 -0.2242  0.7588 -0.7836
  104MOL0     H14020  -0.155  12.284   8.169 -1.3769 -1.6249 -2.5840
  104MOL0     H14021  -0.075  12.173   8.065  0.0610 -0.6386 -0.2278
  104MOL0     H14022   0.515  11.574   7.869 -1.0573 -2.8959  0.8993
  104MOL0     H14023   0.745  11.485   7.871 -0.1503  1.0248 -0.2355
  104MOL0     H14024   0.972  11.025   8.047  1.0975 -0.3752  1.6595
  104MOL0     H14025   1.178  10.942   7.986  0.1318  0.2136  0.3571
  104MOL0     H14026   3.082  11.283   7.115 -1.1928 -1.0282 -0.8480
  104MOL0     H14027   3.317  11.283   7.172 -2.8261  2.4129 -0.2326
  104MOL0     H14028   3.627  11.098   7.735 -0.3544  1.2224 -0.7669
  104MOL0     H14029   3.843  11.061   7.759 -1.4932  0.2611  0.9615
  104MOL0     H14030   4.127  10.982   7.399 -1.0111  2.4802 -1.0878
  104MOL0     H14031   4.090  11.151   7.410 -0.0070  0.0513 -0.1984
  104MOL0     H14032   4.305  11.107   7.410  0.0539 -2.5718 -0.4893
  104MOL0     H14033   4.292  10.982   7.547  0.8329  1.4628  4.3578
  104MOL0     H14034   4.268  11.129   7.706  1.7531  0.4983  0.2304
  104MOL0     H14035   4.206  11.266   7.603 -0.5282 -0.6754  0.0974
  104MOL0     H14036   4.421  11.314   7.710  1.3913 -2.0319  1.3584
  104MOL0     H14037   4.437  11.325   7.529  0.7571 -0.4080 -0.1942
  104MOL0     H14038   4.728  11.070   7.605  0.3493  1.2321  1.7441
  104MOL0     H14039   3.896  11.067   7.339  1.3648 -1.9646  0.5575
  104MOL0     H14040   3.679  11.124   7.305  2.8572  2.4149 -0.1821
  105MOL0     O14041   6.786   1.013   9.203 -0.1645  0.4860  0.5147
  105MOL0     C14042   6.821   0.900   9.243 -0.7960  0.0398 -0.3987
  105MOL0     O14043   6.737   0.800   9.272  0.4281 -0.0792  0.4172
  105MOL0     C14044   6.601   0.833   9.278 -0.7029 -0.2240 -0.8514
  105MOL0     C14045   6.539   0.796   9.392  1.0221  0.4769 -0.5706
  105MOL0     C14046   6.397   0.821   9.417  0.7948  0.6388  0.3715
  105MOL0     C14047   6.330   0.888   9.315  0.0861 -0.4282  0.5636
  105MOL0     O14048   6.206   0.925   9.350  0.6058  0.3128  0.5845
  105MOL0     C14049   6.113   1.011   9.278 -0.3011 -0.3061 -0.1460
  105MOL0     C14050   6.050   0.940   9.162 -0.0511 -0.1888 -1.1472
  105MOL0     C14051   5.931   0.849   9.197  0.3969  0.3867 -0.1281
  105MOL0     C14052   5.807   0.921   9.166  0.2596  0.0517 -0.1952
  105MOL0     C14053   5.676   0.862   9.204 -0.5640  0.0512  0.5379
  105MOL0     C14054   5.566   0.960   9.213  0.7663 -0.9115 -0.6269
  105MOL0     C14055   5.529   1.037   9.081  0.1185 -0.0378 -0.5640
  105MOL0     C14056   5.477   0.953   8.960  0.2524 -0.4530 -0.3400
  105MOL0     N14057   5.343   0.883   8.987 -0.9437  0.3740  0.4649
  105MOL0     C14058   5.226   0.961   8.973 -0.6903 -0.1374 -0.3797
  105MOL0     C14059   5.134   0.903   9.056 -0.0764 -1.0203 -1.3128
  105MOL0     C14060   4.996   0.954   9.075  0.5518 -0.4812 -1.0018
  105MOL0     C14061   4.907   0.918   8.959 -0.4754  0.2883  0.5748
  105MOL0     C14062   4.778   0.998   8.936  0.1926 -0.2820 -0.3417
  105MOL0     C14063   4.692   1.001   9.068  0.8546 -0.8152  0.1129
  105MOL0     O14064   4.578   1.076   9.032  0.3633 -0.5751 -0.3008
  105MOL0     C14065   4.453   1.032   9.066 -0.8201 -0.9011  0.9034
  105MOL0     C14066   4.372   1.130   9.119 -0.5289  0.0188  0.1432
  105MOL0     C14067   4.241   1.110   9.142 -0.1181 -1.4471 -0.2342
  105MOL0     C14068   4.166   1.238   9.183 -0.7448  0.1979 -0.3922
  105MOL0     C14069   4.187   0.982   9.120  0.0282  0.0711 -0.4650
  105MOL0     C14070   4.037   0.955   9.131 -0.5806  0.4136 -0.6062
  105MOL0     O14071   3.961   1.044   9.201  0.2855  0.1278 -0.0109
  105MOL0     C14072   3.835   1.012   9.237  0.2853 -0.3205 -0.4242
  105MOL0     C14073   3.760   1.127   9.277 -0.3436  0.2692  0.6367
  105MOL0     C14074   3.638   1.109   9.346 -0.3944 -0.1832 -0.1460
  105MOL0     C14075   3.571   0.982   9.355  0.5703 -0.6682  1.0354
  105MOL0     O14076   3.441   0.958   9.397  0.4752  0.4103  0.0121
  105MOL0     C14077   3.353   1.067   9.387  0.2292  0.2978 -0.5603
  105MOL0     C14078   3.197   1.036   9.400 -0.8378 -0.4895 -0.0891
  105MOL0     C14079   3.107   1.158   9.458  0.4842  0.8522  0.0448
  105MOL0     C14080   2.958   1.150   9.434 -0.5864 -0.2334  0.2401
  105MOL0     C14081   2.897   1.032   9.510  0.0621 -0.0416 -0.3731
  105MOL0     C14082   2.759   0.977   9.452 -0.5733  0.6956 -0.4217
  105MOL0     C14083   2.639   1.066   9.484 -0.5056  0.1245  0.1201
  105MOL0     C14084   2.549   1.083   9.362  0.5057  1.0201 -0.3058
  105MOL0    Cl14085   2.621   1.207   9.267  0.0499 -0.1499  0.3171
  105MOL0     C14086   3.642   0.876   9.296  0.7884 -0.1432 -0.6308
  105MOL0     C14087   3.772   0.886   9.250 -0.0854  0.8212 -0.1907
  105MOL0     O14088   3.995   0.864   9.062 -0.0694  0.2908 -0.2164
  105MOL0     C14089   4.268   0.883   9.073 -0.3771  1.3386  0.1323
  105MOL0     C14090   4.400   0.911   9.039 -0.0158 -0.0831 -0.5524
  105MOL0     N14091   5.202   0.800   9.123  1.0095  0.4626 -0.5153
  105MOL0     N14092   5.319   0.790   9.081  0.6588  0.9781  0.1480
  105MOL0     C14093   6.390   0.924   9.194 -0.4887  0.3008 -0.7224
  105MOL0     C14094   6.528   0.896   9.184  0.7797  0.3780  0.3896
  105MOL0     C14095   6.967   0.870   9.258  0.7392 -0.1627 -1.0071
  105MOL0     C14096   6.994   0.754   9.328 -0.4952  0.7969 -0.0126
  105MOL0     C14097   7.125   0.713   9.350  0.5277 -0.5506 -0.2954
  105MOL0     C14098   7.239   0.789   9.304  0.2806 -0.0536 -0.4365
  105MOL0     O14099   7.363   0.736   9.329  0.3990  0.0060  0.1257
  105MOL0     C14100   7.483   0.805   9.284 -0.4842 -0.4741 -0.4993
  105MOL0     C14101   7.598   0.715   9.298 -0.0004  0.0701 -0.8548
  105MOL0     C14102   7.599   0.604   9.194  0.1723  0.1900 -0.5669
  105MOL0     C14103   7.529   0.472   9.232  0.0577 -0.8306 -0.1445
  105MOL0     C14104   7.542   0.376   9.122 -0.8409 -0.6773 -0.2220
  105MOL0     C14105   7.555   0.290   9.038 -0.2023  0.0580 -0.1818
  105MOL0     C14106   7.207   0.912   9.233 -0.1939  0.5199 -0.0083
  105MOL0     C14107   7.073   0.948   9.205  0.0968 -0.5099 -0.9275
  105MOL0     H14108   6.602   0.752   9.469  0.5083 -0.3982 -0.6336
  105MOL0     H14109   6.346   0.792   9.508 -0.4877 -1.5821 -0.9613
  105MOL0     H14110   6.028   1.038   9.342  0.4034 -0.8134  1.0254
  105MOL0     H14111   6.166   1.095   9.231 -1.7414 -0.8234 -2.8871
  105MOL0     H14112   6.028   1.022   9.093  2.4131  0.5907 -1.1012
  105MOL0     H14113   6.119   0.863   9.126 -0.1153 -0.4562 -0.7064
  105MOL0     H14114   5.935   0.755   9.142  1.5980 -0.8906  2.0016
  105MOL0     H14115   5.925   0.823   9.303 -1.6586  2.6650  0.4237
  105MOL0     H14116   5.796   1.010   9.229 -3.5056  1.4188 -2.4437
  105MOL0     H14117   5.812   0.955   9.062  1.5792 -1.2128 -0.5625
  105MOL0     H14118   5.646   0.787   9.130  1.2312 -2.2136  1.9725
  105MOL0     H14119   5.684   0.803   9.296  1.1654 -1.8444 -0.7412
  105MOL0     H14120   5.478   0.920   9.264 -0.5536  0.7546 -1.4833
  105MOL0     H14121   5.600   1.043   9.276  2.7105  0.0208 -2.7751
  105MOL0     H14122   5.463   1.121   9.107  0.6679  1.5480 -3.7854
  105MOL0     H14123   5.619   1.085   9.041  1.2971 -2.5280 -1.0530
  105MOL0     H14124   5.559   0.884   8.934  0.8590  0.2673 -0.3670
  105MOL0     H14125   5.450   1.024   8.882 -2.4920 -0.8374  0.1688
  105MOL0     H14126   5.213   1.049   8.911  2.4006 -0.6906 -1.9517
  105MOL0     H14127   4.957   0.913   9.168 -0.9288 -0.3806 -1.5384
  105MOL0     H14128   5.003   1.063   9.089 -3.2040 -0.2684  0.5366
  105MOL0     H14129   4.884   0.812   8.965 -0.6929  0.3842  1.8974
  105MOL0     H14130   4.964   0.941   8.869 -1.0924 -3.7664 -1.0384
  105MOL0     H14131   4.714   0.961   8.856 -0.3872  0.7205 -0.3705
  105MOL0     H14132   4.802   1.100   8.904 -4.3696  0.8054 -0.9979
  105MOL0     H14133   4.739   1.049   9.153 -1.0831  0.9847  0.2361
  105MOL0     H14134   4.665   0.899   9.097 -1.1634  0.0534  1.5267
  105MOL0     H14135   4.425   1.225   9.125 -2.5217  1.1980 -0.0668
  105MOL0     H14136   4.080   1.244   9.116 -2.6292 -0.3186  1.8233
  105MOL0     H14137   4.130   1.232   9.286  1.5058  2.6924  0.6632
  105MOL0     H14138   4.230   1.324   9.160  0.4661 -1.3048 -3.1325
  105MOL0     H14139   3.802   1.227   9.266  2.5950 -0.9486 -0.3299
  105MOL0     H14140   3.586   1.198   9.382 -3.5352 -1.6958 -0.5887
  105MOL0     H14141   3.379   1.142   9.462  3.5678 -1.1313 -0.1027
  105MOL0     H14142   3.373   1.111   9.289 -0.6947  0.7023 -0.5727
  105MOL0     H14143   3.153   1.016   9.302  0.0084 -0.5702 -0.4577
  105MOL0     H14144   3.184   0.946   9.460  0.3603 -1.8422 -1.7841
  105MOL0     H14145   3.139   1.253   9.415 -0.7412  0.7564 -1.1297
  105MOL0     H14146   3.131   1.169   9.564 -2.1857 -2.3634  1.1510
  105MOL0     H14147   2.921   1.248   9.463 -0.2719 -0.4561  1.4283
  105MOL0     H14148   2.938   1.133   9.328  0.1326  1.8152 -0.2626
  105MOL0     H14149   2.886   1.062   9.615 -1.3276  2.4013 -1.1555
  105MOL0     H14150   2.962   0.944   9.517  0.2004 -0.1403 -2.3063
  105MOL0     H14151   2.775   0.970   9.344  1.4825 -0.5783 -0.0821
  105MOL0     H14152   2.754   0.874   9.489  2.2560  0.0588 -1.5839
  105MOL0     H14153   2.687   1.160   9.514  0.1377  0.4211 -1.7227
  105MOL0     H14154   2.584   1.026   9.570  0.2218 -1.7463 -0.2309
  105MOL0     H14155   2.455   1.125   9.399  1.2567  1.5827  1.0402
  105MOL0     H14156   2.528   0.994   9.302 -1.1358 -0.2240  1.9552
  105MOL0     H14157   3.592   0.779   9.291  1.3384 -0.7353  2.8077
  105MOL0     H14158   3.823   0.797   9.213  1.4841  2.7253 -3.1002
  105MOL0     H14159   4.228   0.784   9.058 -1.5477  1.8756 -0.4088
  105MOL0     H14160   4.451   0.831   8.986 -1.7358 -2.1924  0.7832
  105MOL0     H14161   6.339   0.995   9.130  3.4670  3.4915 -0.7414
  105MOL0     H14162   6.561   0.919   9.083 -0.5635 -1.2070 -0.4591
  105MOL0     H14163   6.910   0.701   9.372 -0.3289  1.0143  0.5743
  105MOL0     H14164   7.147   0.620   9.402 -0.0243 -0.7702 -0.4550
  105MOL0     H14165   7.467   0.839   9.182 -0.9800  0.8695  0.0022
  105MOL0     H14166   7.509   0.888   9.351  2.9232 -0.3640 -1.7516
  105MOL0     H14167   7.591   0.671   9.398 -3.4297  3.1482  0.5099
  105MOL0     H14168   7.695   0.765   9.300  2.0895 -3.5961 -1.8681
  105MOL0     H14169   7.702   0.570   9.184 -0.3008 -1.8795  0.9759
  105MOL0     H14170   7.547   0.635   9.103  0.9366 -0.9343 -1.4170
  105MOL0     H14171   7.425   0.492   9.258  0.0815  1.7530 -1.7049
  105MOL0     H14172   7.574   0.419   9.317 -0.8093 -0.3843  0.6091
  105MOL0     H14173   7.562   0.211   8.966 -0.2558 -1.5590  1.5039
  105MOL0     H14174   7.293   0.979   9.225  0.5064 -0.3604  0.0449
  105MOL0     H14175   7.054   1.037   9.145  1.5906  0.9098  0.5987
  106MOL0     O14176   1.135   8.897   1.124 -0.4402  0.4781  0.6320
  106MOL0     C14177   1.143   9.021   1.121  0.0062  0.0532 -0.5286
  106MOL0     O14178   1.048   9.104   1.071  0.6111 -0.4060 -0.5155
  106MOL0     C14179   0.938   9.042   1.026  0.4264 -0.2475  0.4401
  106MOL0     C14180   0.932   8.979   0.903  1.3285  0.2531 -0.0202
  106MOL0     C14181   0.803   8.930   0.857 -0.3799 -0.7052  0.6732
  106MOL0     C14182   0.693   8.936   0.948 -0.2149 -0.6730  0.1031
  106MOL0     O14183   0.574   8.886   0.915  0.3690  0.6932  0.5481
  106MOL0     C14184   0.477   8.988   0.887  0.4841 -1.0916  0.5810
  106MOL0     C14185   0.339   8.932   0.928 -0.6869 -0.7402  0.7581
  106MOL0     C14186   0.306   8.930   1.082  0.0249  0.7033  0.3544
  106MOL0     C14187   0.191   8.828   1.103  0.0138 -0.1252 -0.2187
  106MOL0     C14188   0.244   8.684   1.123 -0.4054 -0.3344  0.0126
  106MOL0     C14189   0.136   8.591   1.184 -0.1641 -0.0820 -0.2572
  106MOL0     C14190   0.003   8.562   1.106 -0.8805 -0.9790  0.1627
  106MOL0     C14191  -0.077   8.469   1.188 -0.6624 -0.4279  0.6538
  106MOL0     N14192  -0.205   8.442   1.127 -0.4566  0.0588 -0.2725
  106MOL0     C14193  -0.328   8.500   1.154  0.2571  0.3460 -0.8047
  106MOL0     C14194  -0.410   8.432   1.070 -0.1522 -0.6573  0.3177
  106MOL0     C14195  -0.558   8.460   1.057 -0.0077  0.0639 -0.9017
  106MOL0     C14196  -0.653   8.341   1.087 -0.0713 -0.3765  1.3047
  106MOL0     C14197  -0.791   8.373   1.130 -0.0385 -0.0190 -1.0846
  106MOL0     C14198  -0.896   8.266   1.118  0.1487 -0.7551  0.2255
  106MOL0     O14199  -0.896   8.224   0.979 -0.0300 -0.2356  0.2005
  106MOL0     C14200  -1.000   8.140   0.945 -0.4006  1.1876 -0.4287
  106MOL0     C14201  -1.139   8.181   0.938 -0.0375  0.5109  0.1607
  106MOL0     C14202  -1.228   8.079   0.898 -0.7097  0.7702 -0.4058
  106MOL0     C14203  -1.372   8.114   0.891 -0.1950 -0.0170  0.0047
  106MOL0     C14204  -1.182   7.943   0.869  0.9255 -0.1657 -0.2818
  106MOL0     C14205  -1.275   7.842   0.814  0.4122 -0.0441  0.5919
  106MOL0     O14206  -1.388   7.890   0.746  0.2618 -1.0933  0.3593
  106MOL0     C14207  -1.474   7.795   0.693 -0.8237  0.8658  0.4423
  106MOL0     C14208  -1.427   7.713   0.588 -0.5832  0.0960 -0.5006
  106MOL0     C14209  -1.511   7.629   0.522  0.3080 -0.3054  0.8355
  106MOL0     C14210  -1.643   7.619   0.551 -0.0862 -0.2596  0.0601
  106MOL0     O14211  -1.725   7.539   0.476  0.1419  0.0498  0.2112
  106MOL0     C14212  -1.778   7.425   0.544 -0.7609  0.2967 -0.6967
  106MOL0     C14213  -1.894   7.367   0.469 -0.7040 -0.1062 -0.1566
  106MOL0     C14214  -1.982   7.268   0.549 -0.1991 -0.0925  1.0940
  106MOL0     C14215  -2.041   7.335   0.672  0.2878  0.9874  0.6862
  106MOL0     C14216  -2.176   7.272   0.712 -0.3940  0.1908 -0.3790
  106MOL0     C14217  -2.166   7.121   0.764  0.3247 -0.7445  0.1086
  106MOL0     C14218  -2.311   7.067   0.809 -0.2192 -0.3302  0.8307
  106MOL0     C14219  -2.320   6.906   0.796 -1.1743  0.0154 -0.5903
  106MOL0    Cl14220  -2.349   6.870   0.621 -0.2136 -0.2711 -0.5815
  106MOL0     C14221  -1.691   7.694   0.654 -0.2488  0.3480  0.0843
  106MOL0     C14222  -1.609   7.787   0.725  0.3007  0.0295 -0.6946
  106MOL0     O14223  -1.249   7.722   0.820 -0.1599 -0.6483  0.1177
  106MOL0     C14224  -1.047   7.908   0.880 -0.0577  0.2528 -0.5143
  106MOL0     C14225  -0.952   8.009   0.911  0.1239 -0.1852  0.1083
  106MOL0     N14226  -0.340   8.358   0.989  0.2193  0.7077  0.0896
  106MOL0     N14227  -0.218   8.362   1.021  0.0396 -0.6913 -0.2994
  106MOL0     C14228   0.701   8.997   1.078 -0.2146 -0.6443  0.5033
  106MOL0     C14229   0.823   9.052   1.112 -0.5394 -0.6533 -0.0281
  106MOL0     C14230   1.262   9.083   1.189 -0.1646 -0.2157 -0.6386
  106MOL0     C14231   1.358   9.012   1.259 -0.1724 -0.4824 -0.4826
  106MOL0     C14232   1.473   9.077   1.321  0.8370 -0.2275  0.5931
  106MOL0     C14233   1.493   9.210   1.295  0.2606  0.7342  0.4839
  106MOL0     O14234   1.593   9.276   1.358 -1.1044 -0.3628  0.6043
  106MOL0     C14235   1.727   9.234   1.325  0.4410 -0.2148  0.0574
  106MOL0     C14236   1.755   9.310   1.198 -0.6473 -0.4589  0.7228
  106MOL0     C14237   1.903   9.295   1.164 -0.0462 -0.9899  0.4541
  106MOL0     C14238   1.932   9.399   1.056 -0.7152  0.3505 -0.1731
  106MOL0     C14239   1.916   9.333   0.928 -0.3252 -0.7306  0.1066
  106MOL0     C14240   1.915   9.276   0.823  0.2553 -0.3376  1.0577
  106MOL0     C14241   1.398   9.280   1.221  0.2323 -0.6969  0.1686
  106MOL0     C14242   1.283   9.219   1.170  1.0439  0.0837  0.3801
  106MOL0     H14243   1.018   8.980   0.836 -0.0033  1.5006 -1.7970
  106MOL0     H14244   0.785   8.876   0.765 -1.3940  0.6921  0.0083
  106MOL0     H14245   0.488   9.081   0.943 -0.3561  0.4357 -1.6673
  106MOL0     H14246   0.476   9.020   0.783  0.2024 -1.0972  0.5815
  106MOL0     H14247   0.271   9.005   0.883 -0.1216  0.9947  2.5624
  106MOL0     H14248   0.325   8.834   0.883  2.0651 -1.1822  0.7025
  106MOL0     H14249   0.387   8.897   1.148 -1.0437  2.0372  2.4467
  106MOL0     H14250   0.273   9.029   1.116  4.3925  2.0976  1.0983
  106MOL0     H14251   0.140   8.853   1.196 -1.8519 -0.2784 -1.1449
  106MOL0     H14252   0.121   8.836   1.020  0.3422  2.0003 -0.3383
  106MOL0     H14253   0.279   8.640   1.029 -2.8293  0.5895 -1.4007
  106MOL0     H14254   0.336   8.690   1.182  0.2517 -1.8923 -0.7722
  106MOL0     H14255   0.189   8.502   1.218 -0.8642  0.4130  2.3327
  106MOL0     H14256   0.103   8.640   1.276 -1.4811  1.2421 -1.3645
  106MOL0     H14257  -0.051   8.656   1.095 -1.1319 -1.3468 -2.3964
  106MOL0     H14258   0.027   8.518   1.009  0.4546 -3.3616  1.4836
  106MOL0     H14259  -0.087   8.531   1.277 -1.6982  2.5677 -1.3723
  106MOL0     H14260  -0.023   8.375   1.206  2.0815  1.0441  0.7348
  106MOL0     H14261  -0.360   8.577   1.222  0.0146 -0.0425 -0.4769
  106MOL0     H14262  -0.595   8.552   1.102  0.6681  0.0913 -0.3878
  106MOL0     H14263  -0.572   8.484   0.952  0.4413 -0.2576 -1.0406
  106MOL0     H14264  -0.610   8.272   1.160 -0.1401 -0.4792  1.2479
  106MOL0     H14265  -0.664   8.296   0.988  0.4491  1.2051  0.4954
  106MOL0     H14266  -0.814   8.456   1.062 -0.8260  0.6974  0.0246
  106MOL0     H14267  -0.794   8.404   1.235  2.6519 -1.1279 -0.5885
  106MOL0     H14268  -0.998   8.297   1.145  0.6182  0.2725  0.9035
  106MOL0     H14269  -0.884   8.173   1.174 -2.7081 -1.8755 -0.8258
  106MOL0     H14270  -1.167   8.285   0.947  0.7648  0.6560  1.2087
  106MOL0     H14271  -1.434   8.031   0.925 -2.5320  1.4347 -0.4425
  106MOL0     H14272  -1.389   8.196   0.962 -1.9979  0.3212 -0.7624
  106MOL0     H14273  -1.397   8.118   0.785  2.2250 -4.3843 -0.9491
  106MOL0     H14274  -1.319   7.716   0.572  0.0132 -0.4262  2.7172
  106MOL0     H14275  -1.477   7.562   0.444  2.8122  2.2972 -0.5373
  106MOL0     H14276  -1.706   7.346   0.563 -0.8893  0.6058  1.3610
  106MOL0     H14277  -1.811   7.452   0.645 -2.0336  0.9301 -1.2484
  106MOL0     H14278  -1.964   7.443   0.434 -0.7850 -0.1803 -0.1540
  106MOL0     H14279  -1.847   7.312   0.387  0.9494 -1.8792  1.8566
  106MOL0     H14280  -1.932   7.181   0.592 -3.8107 -1.4912  2.8589
  106MOL0     H14281  -2.051   7.228   0.474 -0.9694  2.1518  0.5324
  106MOL0     H14282  -1.973   7.329   0.758  1.9515  1.1971 -0.5771
  106MOL0     H14283  -2.044   7.440   0.643 -3.6461  1.2553  1.5526
  106MOL0     H14284  -2.238   7.268   0.622 -1.1679  0.7998  0.1117
  106MOL0     H14285  -2.202   7.342   0.792  2.3887  0.7532  0.1348
  106MOL0     H14286  -2.139   7.063   0.675  1.4918 -1.0043  0.6036
  106MOL0     H14287  -2.089   7.100   0.839 -0.8840  0.1750  1.6508
  106MOL0     H14288  -2.391   7.114   0.751  0.3133 -1.3076 -0.7857
  106MOL0     H14289  -2.331   7.106   0.909 -1.8802 -1.1347  0.8482
  106MOL0     H14290  -2.391   6.862   0.867  0.0072 -0.9746  0.0028
  106MOL0     H14291  -2.221   6.864   0.813 -1.1575 -0.0796 -0.9060
  106MOL0     H14292  -1.794   7.678   0.685  0.1463 -1.8672  0.4254
  106MOL0     H14293  -1.664   7.854   0.790  2.3914 -0.0495  1.2688
  106MOL0     H14294  -1.008   7.809   0.861 -1.0266 -0.0252 -1.1070
  106MOL0     H14295  -0.844   7.999   0.914  0.2351  1.1090  2.1071
  106MOL0     H14296   0.621   9.003   1.150 -1.3057 -2.7003 -0.4432
  106MOL0     H14297   0.846   9.095   1.209  4.2646 -0.2411 -1.1116
  106MOL0     H14298   1.338   8.908   1.283  0.4590 -0.5168 -0.0961
  106MOL0     H14299   1.545   9.026   1.384  1.7960  0.0668 -0.2281
  106MOL0     H14300   1.799   9.254   1.405 -1.7167 -2.7089  2.8812
  106MOL0     H14301   1.731   9.128   1.301 -2.8545  0.0116 -2.1479
  106MOL0     H14302   1.721   9.413   1.207 -0.3499  0.0574 -2.6385
  106MOL0     H14303   1.708   9.257   1.114  1.5203 -0.4217 -0.6006
  106MOL0     H14304   1.922   9.192   1.133 -0.1965 -0.8533 -0.1079
  106MOL0     H14305   1.956   9.321   1.255 -0.8825  0.1165  0.6519
  106MOL0     H14306   2.034   9.434   1.073 -0.2754 -0.1248 -1.6769
  106MOL0     H14307   1.867   9.487   1.068  0.0165  0.8505  0.1916
  106MOL0     H14308   1.912   9.236   0.724 -0.1495  0.6912  0.6353
  106MOL0     H14309   1.427   9.384   1.210  0.6842 -0.7350  0.9362
  106MOL0     H14310   1.229   9.278   1.098  0.0327 -1.8079 -0.5019
  107MOL0     O14311   9.713   6.988   8.972  0.0029  0.9722  0.1432
  107MOL0     C14312   9.661   7.059   9.060 -0.2700  0.1775 -0.7113
  107MOL0     O14313   9.528   7.086   9.073 -0.5794 -0.1426 -0.0829
  107MOL0     C14314   9.439   7.085   8.968  0.5896  0.4119 -0.1213
  107MOL0     C14315   9.300   7.064   8.993  0.4602 -0.1483  0.2564
  107MOL0     C14316   9.215   7.055   8.887 -0.7418  0.1475  0.0053
  107MOL0     C14317   9.253   7.078   8.755 -0.1576  0.0733 -0.1780
  107MOL0     O14318   9.154   7.099   8.659 -0.3378  0.1837 -0.1734
  107MOL0     C14319   9.020   7.053   8.667  0.3955  0.7198 -0.2464
  107MOL0     C14320   8.987   7.052   8.520 -0.9442 -0.1126 -0.4138
  107MOL0     C14321   8.841   7.006   8.485  0.2458 -1.1005  0.0699
  107MOL0     C14322   8.839   6.852   8.485 -0.5226 -0.0910  0.6100
  107MOL0     C14323   8.698   6.795   8.481  1.1408 -0.2138  0.3114
  107MOL0     C14324   8.707   6.658   8.417  0.6581  0.2598  0.2638
  107MOL0     C14325   8.582   6.579   8.442  0.1413  0.1897  0.1478
  107MOL0     C14326   8.545   6.538   8.590  0.3891  0.2270  0.9918
  107MOL0     N14327   8.402   6.498   8.592 -0.1348 -0.1036  0.0696
  107MOL0     C14328   8.364   6.368   8.574  0.5637 -0.2784  0.2382
  107MOL0     C14329   8.226   6.378   8.563 -0.2945  0.7548  0.4238
  107MOL0     C14330   8.133   6.261   8.538  0.3663  0.9610 -0.7786
  107MOL0     C14331   8.058   6.217   8.676  0.2205 -1.3879 -0.0394
  107MOL0     C14332   7.966   6.339   8.729 -0.6342  0.5787 -0.2914
  107MOL0     C14333   7.881   6.283   8.844  0.7164  1.2457 -0.6720
  107MOL0     O14334   7.891   6.372   8.950  0.1693 -0.0981  0.9824
  107MOL0     C14335   7.964   6.327   9.052  0.4065  0.2370  0.3289
  107MOL0     C14336   7.906   6.277   9.166  0.4817  0.2038  0.4950
  107MOL0     C14337   7.984   6.227   9.271  0.5703 -0.7595  0.3216
  107MOL0     C14338   7.902   6.197   9.391  0.2174  0.0165  0.2962
  107MOL0     C14339   8.125   6.219   9.255  0.3625 -0.7553 -0.6638
  107MOL0     C14340   8.205   6.148   9.358 -0.2041  0.0839 -0.2422
  107MOL0     O14341   8.337   6.121   9.316  0.0498 -0.8801 -0.5577
  107MOL0     C14342   8.422   6.070   9.413  0.1897 -1.0539 -0.0132
  107MOL0     C14343   8.526   6.159   9.461  0.6192  0.1578  0.5160
  107MOL0     C14344   8.613   6.110   9.554  0.3975  0.4303 -0.5814
  107MOL0     C14345   8.611   5.976   9.597 -0.3323  0.3702  0.4073
  107MOL0     O14346   8.714   5.936   9.691  0.0889 -0.0702  0.1402
  107MOL0     C14347   8.722   5.792   9.735  0.4274 -1.0755 -0.4508
  107MOL0     C14348   8.787   5.709   9.626  0.3755  0.8174  0.3724
  107MOL0     C14349   8.908   5.775   9.558 -0.6529 -0.0624  0.1420
  107MOL0     C14350   9.021   5.811   9.667  0.2968 -0.5595  0.8922
  107MOL0     C14351   9.137   5.854   9.586 -0.9971 -0.0498  1.0252
  107MOL0     C14352   9.263   5.848   9.674  0.2336 -0.3531 -0.7023
  107MOL0     C14353   9.388   5.872   9.600 -0.5137  0.4550 -0.0234
  107MOL0     C14354   9.398   6.013   9.539  1.1045 -0.3089 -0.4927
  107MOL0    Cl14355   9.348   6.031   9.374  0.1802  0.2950  0.2107
  107MOL0     C14356   8.500   5.900   9.562  0.3456  0.3776 -0.0964
  107MOL0     C14357   8.407   5.954   9.462  0.2037  0.2861  0.2886
  107MOL0     O14358   8.156   6.125   9.470 -0.2904  0.2913 -0.1164
  107MOL0     C14359   8.186   6.282   9.144  0.2445  0.2967  0.4500
  107MOL0     C14360   8.108   6.335   9.039  0.4093 -0.5998 -0.4937
  107MOL0     N14361   8.193   6.511   8.574 -0.6710 -0.3857 -0.4281
  107MOL0     N14362   8.297   6.582   8.587 -0.6529 -0.5785 -0.5112
  107MOL0     C14363   9.385   7.109   8.732 -0.7436  1.2099 -0.9275
  107MOL0     C14364   9.484   7.110   8.839  0.7367  0.4160  0.4629
  107MOL0     C14365   9.734   7.102   9.177  0.1997 -0.3560 -0.5517
  107MOL0     C14366   9.870   7.062   9.190 -1.0150  0.1479 -0.2950
  107MOL0     C14367   9.949   7.120   9.294  0.2301  0.6321  0.0113
  107MOL0     C14368   9.885   7.210   9.395 -0.4788  0.5505  0.6613
  107MOL0     O14369   9.948   7.262   9.501  0.4127 -0.3388  0.4023
  107MOL0     C14370  10.088   7.283   9.496  0.1538  0.2653  0.2888
  107MOL0     C14371  10.135   7.388   9.596 -0.4172  0.1798 -0.2933
  107MOL0     C14372  10.132   7.342   9.742  0.4858  0.1065 -0.3396
  107MOL0     C14373  10.014   7.405   9.813  1.1551  0.6885 -1.2349
  107MOL0     C14374   9.947   7.322   9.907 -0.3110  0.3443 -0.9503
  107MOL0     C14375   9.889   7.239   9.968 -0.4238  0.1658  0.1647
  107MOL0     C14376   9.756   7.237   9.379  0.7216 -0.0263  0.8167
  107MOL0     C14377   9.682   7.182   9.278  0.4296  0.6268  0.5466
  107MOL0     H14378   9.267   7.051   9.095 -0.4026 -1.0246 -0.1165
  107MOL0     H14379   9.113   7.024   8.910 -0.7931 -0.3776 -0.8613
  107MOL0     H14380   9.014   6.952   8.707  1.7114  0.7552  0.0720
  107MOL0     H14381   8.961   7.130   8.717  0.5108  0.4199  0.3555
  107MOL0     H14382   8.999   7.155   8.486 -1.4650 -0.6536 -2.3592
  107MOL0     H14383   9.061   6.993   8.465 -1.6755 -0.0018 -1.5434
  107MOL0     H14384   8.770   7.040   8.561  1.3615 -1.9571  1.5567
  107MOL0     H14385   8.809   7.050   8.390 -1.2678  1.8193  1.7806
  107MOL0     H14386   8.894   6.821   8.396  0.0277 -0.3535  1.0434
  107MOL0     H14387   8.891   6.811   8.571 -1.0252 -2.1066  0.0131
  107MOL0     H14388   8.649   6.793   8.579  0.0197  1.3651 -0.1918
  107MOL0     H14389   8.624   6.851   8.424  0.6898 -0.8012  0.3104
  107MOL0     H14390   8.720   6.658   8.308 -1.8878 -4.9789 -0.3887
  107MOL0     H14391   8.802   6.614   8.447  0.2787 -0.0099  1.1182
  107MOL0     H14392   8.491   6.634   8.415 -1.6202 -3.8430 -3.2842
  107MOL0     H14393   8.590   6.483   8.391 -1.0451 -0.5297  1.2446
  107MOL0     H14394   8.569   6.624   8.653 -0.5868 -0.4672  2.3589
  107MOL0     H14395   8.607   6.458   8.630  0.2275 -0.0962  0.5982
  107MOL0     H14396   8.428   6.282   8.591 -0.9761 -1.3773  0.6849
  107MOL0     H14397   8.049   6.286   8.474 -1.0921 -3.1437 -0.7513
  107MOL0     H14398   8.178   6.171   8.493 -2.7007 -0.4377 -1.2854
  107MOL0     H14399   8.124   6.192   8.759  2.0983  3.6603  0.3104
  107MOL0     H14400   8.002   6.128   8.646  0.2026 -1.4205  0.0894
  107MOL0     H14401   7.905   6.384   8.650  1.3680  0.4903 -1.9794
  107MOL0     H14402   8.026   6.422   8.766  1.0751 -0.2656 -1.0499
  107MOL0     H14403   7.905   6.180   8.874 -0.0004  0.7852 -1.6147
  107MOL0     H14404   7.775   6.289   8.815 -0.0108  2.4284  1.9260
  107MOL0     H14405   7.798   6.277   9.174  0.3922 -2.5705  0.1379
  107MOL0     H14406   7.948   6.233   9.484 -1.2961 -2.4716  2.1170
  107MOL0     H14407   7.804   6.247   9.385 -0.5866 -1.6505 -3.5131
  107MOL0     H14408   7.885   6.090   9.398  3.1646 -0.5739 -0.2198
  107MOL0     H14409   8.526   6.263   9.431 -1.0460  0.9808  3.0836
  107MOL0     H14410   8.692   6.181   9.579  1.4376 -0.4560 -1.2459
  107MOL0     H14411   8.781   5.775   9.825  0.5233 -1.6224 -0.6131
  107MOL0     H14412   8.628   5.747   9.769 -1.0733  0.4356 -2.3461
  107MOL0     H14413   8.823   5.617   9.672  0.8630 -0.1062 -1.7394
  107MOL0     H14414   8.715   5.672   9.553  0.0094  0.7364  0.7684
  107MOL0     H14415   8.882   5.870   9.510  0.6167  0.0928 -0.2605
  107MOL0     H14416   8.947   5.695   9.494 -1.2110  1.3612 -2.1005
  107MOL0     H14417   8.996   5.892   9.736  0.3992 -0.4947  0.8546
  107MOL0     H14418   9.058   5.734   9.735  2.1509 -1.2915 -0.8426
  107MOL0     H14419   9.122   5.957   9.554  0.7153 -0.1262 -0.1959
  107MOL0     H14420   9.146   5.797   9.493 -1.6219  3.1137 -1.1392
  107MOL0     H14421   9.252   5.929   9.747  2.1689 -2.8197  2.6490
  107MOL0     H14422   9.263   5.751   9.725 -0.7353  0.0823  0.1580
  107MOL0     H14423   9.388   5.805   9.514 -6.2987  1.2489 -1.0599
  107MOL0     H14424   9.477   5.865   9.663 -1.1464 -1.2992  0.7227
  107MOL0     H14425   9.499   6.054   9.547  0.0954  2.7837 -1.7702
  107MOL0     H14426   9.344   6.083   9.604  1.6223 -0.0301 -0.3609
  107MOL0     H14427   8.476   5.799   9.593 -0.5364  0.4857 -0.4063
  107MOL0     H14428   8.332   5.889   9.418 -0.0671  1.3687 -0.9139
  107MOL0     H14429   8.292   6.304   9.135  0.3699 -1.1457 -3.6735
  107MOL0     H14430   8.164   6.378   8.957 -0.9358 -1.7175 -2.0447
  107MOL0     H14431   9.418   7.144   8.635 -1.6625  1.5822 -1.1105
  107MOL0     H14432   9.590   7.124   8.820  1.7920 -0.7923  4.4018
  107MOL0     H14433   9.923   7.000   9.118 -1.8488 -1.3389  0.3190
  107MOL0     H14434  10.047   7.077   9.311 -0.4746 -0.4295  1.6558
  107MOL0     H14435  10.132   7.184   9.508 -0.1051  0.2096  0.7888
  107MOL0     H14436  10.120   7.314   9.396 -2.2894  1.7800 -0.1085
  107MOL0     H14437  10.083   7.481   9.574 -0.1980  0.7751  1.5721
  107MOL0     H14438  10.243   7.401   9.584 -0.5121  1.1526 -0.1476
  107MOL0     H14439  10.228   7.355   9.792 -0.2549 -0.3713  1.3009
  107MOL0     H14440  10.115   7.234   9.744 -0.2655  0.1703 -1.7759
  107MOL0     H14441   9.939   7.453   9.750 -1.0005 -0.3720  0.4030
  107MOL0     H14442  10.056   7.491   9.867 -0.6838  1.3527 -0.7845
  107MOL0     H14443   9.838   7.168  10.030  1.2519 -1.7518 -0.5620
  107MOL0     H14444   9.706   7.297   9.454 -0.3073 -1.0598  0.9930
  107MOL0     H14445   9.578   7.211   9.275  0.2087 -0.1921 -0.2016
  108MOL0     O14446   1.490   7.271  10.644 -0.1792 -0.5706  0.6877
  108MOL0     C14447   1.483   7.382  10.700  0.4359  0.7847 -0.1057
  108MOL0     O14448   1.390   7.430  10.783  0.3156 -0.5026  0.6867
  108MOL0     C14449   1.271   7.367  10.803 -0.1595 -0.5765 -0.2449
  108MOL0     C14450   1.203   7.310  10.697 -0.4053  0.2687 -1.1726
  108MOL0     C14451   1.078   7.256  10.729 -0.1847 -0.1720  0.3574
  108MOL0     C14452   1.024   7.254  10.857  0.1973  0.0900  0.1907
  108MOL0     O14453   0.909   7.172  10.860 -0.3933  0.0987  0.0807
  108MOL0     C14454   0.838   7.159  10.979  0.1057  0.0242 -0.3505
  108MOL0     C14455   0.693   7.119  10.961 -0.2931  0.0422 -0.4004
  108MOL0     C14456   0.692   6.966  10.930  0.0571 -0.5768 -0.0218
  108MOL0     C14457   0.547   6.923  10.914 -0.0483 -0.6085 -0.4144
  108MOL0     C14458   0.531   6.771  10.939 -0.2606 -0.7021  0.1182
  108MOL0     C14459   0.390   6.723  10.975  0.1462 -0.0284 -0.4049
  108MOL0     C14460   0.367   6.561  10.985 -0.3237 -0.5111 -1.2722
  108MOL0     C14461   0.227   6.530  11.027  0.1983 -0.3116 -0.3667
  108MOL0     N14462   0.195   6.396  10.988  0.1858  0.5099 -0.2137
  108MOL0     C14463   0.165   6.341  10.859 -0.5270  0.2050 -0.7412
  108MOL0     C14464   0.130   6.215  10.887  0.7120  0.6076  0.6658
  108MOL0     C14465   0.077   6.115  10.784  0.2237 -0.2100 -0.4559
  108MOL0     C14466   0.174   6.009  10.739  0.3717  0.4535  0.0700
  108MOL0     C14467   0.103   5.918  10.638  0.3217  0.4847 -0.2297
  108MOL0     C14468   0.185   5.803  10.615  0.4320  0.6618  0.4882
  108MOL0     O14469   0.292   5.830  10.519 -0.3160  0.0065 -0.3303
  108MOL0     C14470   0.407   5.777  10.572  0.2686 -0.0325  0.1970
  108MOL0     C14471   0.435   5.640  10.583  0.0282 -0.0074 -0.5042
  108MOL0     C14472   0.549   5.600  10.659  0.1510  0.2677 -0.8030
  108MOL0     C14473   0.567   5.462  10.686 -0.3631  0.2097 -0.6732
  108MOL0     C14474   0.649   5.695  10.698  0.2114  0.3565 -0.4840
  108MOL0     C14475   0.769   5.661  10.784  0.9954 -0.7449 -0.4055
  108MOL0     O14476   0.759   5.574  10.884 -0.1914  0.1879  0.1557
  108MOL0     C14477   0.877   5.546  10.947  1.0791  0.1712  0.5479
  108MOL0     C14478   1.006   5.538  10.899 -0.7374 -0.7944  0.1151
  108MOL0     C14479   1.114   5.531  10.984 -0.6634 -0.3237 -0.2829
  108MOL0     C14480   1.096   5.550  11.121 -0.1701  0.0632  0.1164
  108MOL0     O14481   1.199   5.572  11.214 -0.0293  0.0738  0.5161
  108MOL0     C14482   1.282   5.686  11.200 -0.3628  0.6247 -0.4399
  108MOL0     C14483   1.383   5.705  11.315 -1.1365  1.0239  0.4082
  108MOL0     C14484   1.446   5.840  11.331  0.2151 -0.1318  0.1699
  108MOL0     C14485   1.358   5.953  11.380  0.7538 -0.7597 -0.0791
  108MOL0     C14486   1.422   6.086  11.385  0.3618 -1.4172  0.3626
  108MOL0     C14487   1.341   6.188  11.453  0.0288 -0.0881  0.1170
  108MOL0     C14488   1.199   6.191  11.394 -0.1631 -0.4291 -0.9722
  108MOL0     C14489   1.140   6.323  11.445  0.1507  0.1794  0.0282
  108MOL0    Cl14490   1.020   6.386  11.328 -0.1126  0.2959 -0.0138
  108MOL0     C14491   0.963   5.550  11.166 -0.2818  1.0647  0.2991
  108MOL0     C14492   0.852   5.545  11.085  0.0973 -0.4349  0.2689
  108MOL0     O14493   0.867   5.733  10.756  1.0524 -0.2692 -0.9559
  108MOL0     C14494   0.620   5.830  10.676 -0.6360 -0.1282  0.5830
  108MOL0     C14495   0.503   5.870  10.618  0.5047 -0.0639  1.0982
  108MOL0     N14496   0.127   6.199  11.020 -0.2061  0.9580  0.0044
  108MOL0     N14497   0.185   6.301  11.079 -0.4120  0.0819  0.1857
  108MOL0     C14498   1.097   7.302  10.967 -0.3441  0.0531  0.6618
  108MOL0     C14499   1.221   7.367  10.934  0.0899 -0.2051  0.0076
  108MOL0     C14500   1.600   7.473  10.675  0.2162  0.6048  0.0002
  108MOL0     C14501   1.714   7.429  10.602  0.2550  0.1885  0.0999
  108MOL0     C14502   1.820   7.519  10.577  0.8606  0.0571  0.0889
  108MOL0     C14503   1.812   7.653  10.612  0.1741  0.8339  0.2339
  108MOL0     O14504   1.917   7.727  10.578 -0.3952  0.0311  0.6242
  108MOL0     C14505   1.902   7.857  10.517  0.1701  1.2761 -0.3056
  108MOL0     C14506   1.811   7.845  10.388  0.6060 -1.2746  0.0863
  108MOL0     C14507   1.857   7.737  10.295  0.3673  0.1142  0.3617
  108MOL0     C14508   1.793   7.734  10.166 -0.6436  1.0782 -0.6378
  108MOL0     C14509   1.651   7.695  10.197  0.6798 -0.2628  1.1096
  108MOL0     C14510   1.542   7.665  10.244  0.9208 -1.0853 -0.0952
  108MOL0     C14511   1.707   7.691  10.691  0.2953  0.5631 -0.5142
  108MOL0     C14512   1.602   7.605  10.720 -0.1521 -0.0281 -0.6347
  108MOL0     H14513   1.245   7.327  10.599 -1.6307  1.2389 -1.5524
  108MOL0     H14514   1.008   7.233  10.649  1.2381 -2.9143 -0.2055
  108MOL0     H14515   0.879   7.103  11.063 -1.6315 -1.5361 -0.4610
  108MOL0     H14516   0.835   7.263  11.013  0.8129  0.3370 -1.2022
  108MOL0     H14517   0.640   7.139  11.055 -0.2201  1.5294 -0.6489
  108MOL0     H14518   0.643   7.176  10.883 -1.0467 -1.6156 -1.1762
  108MOL0     H14519   0.743   6.951  10.835 -1.1802  0.0144 -0.8160
  108MOL0     H14520   0.746   6.920  11.013 -1.7663 -2.5963  0.1278
  108MOL0     H14521   0.484   6.969  10.991 -0.2529  2.3568 -2.2051
  108MOL0     H14522   0.504   6.951  10.817 -0.8395 -3.1140 -0.8638
  108MOL0     H14523   0.575   6.709  10.860 -1.3354 -1.4773  0.1076
  108MOL0     H14524   0.595   6.753  11.026 -0.5201 -2.6611 -0.0433
  108MOL0     H14525   0.365   6.759  11.075  1.6090 -1.2821  0.4456
  108MOL0     H14526   0.313   6.762  10.907  1.3523  0.5613 -1.4657
  108MOL0     H14527   0.402   6.509  10.895 -0.6421 -0.1531 -1.6071
  108MOL0     H14528   0.429   6.529  11.069  0.1115  1.0386 -0.9742
  108MOL0     H14529   0.160   6.590  10.964 -1.5112  1.6717  3.0558
  108MOL0     H14530   0.221   6.560  11.132 -1.6620  1.7434 -0.9857
  108MOL0     H14531   0.182   6.387  10.762  0.6063  2.0686  0.2822
  108MOL0     H14532  -0.013   6.066  10.821 -0.6410  0.7046 -1.3023
  108MOL0     H14533   0.045   6.171  10.695  4.4983  2.6865 -0.4735
  108MOL0     H14534   0.205   5.949  10.825  1.3003 -2.7662 -2.3106
  108MOL0     H14535   0.262   6.043  10.683 -1.6366  0.3072 -3.4491
  108MOL0     H14536   0.090   5.959  10.537 -1.0793  0.3847 -0.1124
  108MOL0     H14537   0.008   5.888  10.682  0.8042 -1.8652 -0.6023
  108MOL0     H14538   0.117   5.730  10.571 -1.8809  0.5404  3.8874
  108MOL0     H14539   0.228   5.767  10.709  2.0447 -0.6142 -0.6837
  108MOL0     H14540   0.375   5.557  10.545 -1.1285 -0.7599  2.6279
  108MOL0     H14541   0.585   5.435  10.790  1.2229 -2.1938 -1.4831
  108MOL0     H14542   0.474   5.413  10.656 -1.2763 -0.6913  3.1152
  108MOL0     H14543   0.650   5.423  10.626 -0.5811  0.6380 -1.2626
  108MOL0     H14544   1.018   5.522  10.792 -0.9096 -1.8843  0.2429
  108MOL0     H14545   1.218   5.524  10.953 -0.3370  0.1966  0.6571
  108MOL0     H14546   1.345   5.663  11.114 -0.6116  0.0071 -0.4606
  108MOL0     H14547   1.228   5.773  11.162 -0.1070  1.6928  1.4823
  108MOL0     H14548   1.334   5.697  11.413  1.5496 -0.0579  1.7631
  108MOL0     H14549   1.455   5.623  11.315  2.5201  3.9289 -1.5722
  108MOL0     H14550   1.473   5.882  11.233 -0.7736  2.6260  0.9839
  108MOL0     H14551   1.543   5.833  11.381  1.4027  1.2089 -1.7459
  108MOL0     H14552   1.275   5.946  11.308 -0.0396  1.3194  0.5440
  108MOL0     H14553   1.322   5.929  11.481 -1.6753  2.2935 -0.0423
  108MOL0     H14554   1.443   6.120  11.283 -0.0915  1.8439  1.2501
  108MOL0     H14555   1.526   6.075  11.417  1.3485  2.1517 -1.1694
  108MOL0     H14556   1.323   6.164  11.558 -2.8600  1.3878  0.0403
  108MOL0     H14557   1.387   6.286  11.435  0.2904 -0.5258 -1.7921
  108MOL0     H14558   1.135   6.111  11.432 -3.4364  1.8087 -1.4174
  108MOL0     H14559   1.202   6.185  11.285 -3.1340 -0.9461 -1.1017
  108MOL0     H14560   1.214   6.396  11.477 -0.8637 -0.3754  4.2482
  108MOL0     H14561   1.083   6.303  11.537  0.6859  1.8651  0.7677
  108MOL0     H14562   0.953   5.542  11.273  1.7808 -2.0602  0.3792
  108MOL0     H14563   0.750   5.530  11.121 -0.2989 -1.0341 -1.0236
  108MOL0     H14564   0.690   5.904  10.712  0.1283 -1.5108  2.0766
  108MOL0     H14565   0.472   5.974  10.616 -1.8193 -0.7098 -0.4649
  108MOL0     H14566   1.062   7.282  11.068  2.0818  2.6047  2.1833
  108MOL0     H14567   1.287   7.400  11.013 -2.0756 -1.6544  2.5837
  108MOL0     H14568   1.729   7.332  10.555  1.1443  0.3631 -0.0092
  108MOL0     H14569   1.906   7.487  10.519  1.2176  0.6883  0.2621
  108MOL0     H14570   1.869   7.930  10.592 -0.3681 -1.3667  2.1807
  108MOL0     H14571   2.003   7.879  10.479  1.6810 -2.8301  0.8317
  108MOL0     H14572   1.808   7.936  10.327  0.0190 -2.4314 -1.6898
  108MOL0     H14573   1.710   7.831  10.426  0.9569 -0.3842  1.4436
  108MOL0     H14574   1.832   7.642  10.343 -0.3671  1.1153  2.0280
  108MOL0     H14575   1.966   7.737  10.285  0.5296 -1.8254  1.4894
  108MOL0     H14576   1.846   7.669  10.095  1.7371  2.0128  0.1820
  108MOL0     H14577   1.803   7.833  10.119  1.9370  0.4010 -1.6567
  108MOL0     H14578   1.444   7.630  10.271  1.8149 -3.4342  0.3951
  108MOL0     H14579   1.723   7.793  10.727  1.9644  0.6803 -1.4405
  108MOL0     H14580   1.526   7.651  10.783  2.5821  0.6823  2.4208
  109MOL0     O14581   7.760   9.336   1.439  0.0039  0.4308  0.7105
  109MOL0     C14582   7.842   9.251   1.415  0.0468 -0.1569  0.4976
  109MOL0     O14583   7.813   9.126   1.369  1.2612  0.1829 -0.6874
  109MOL0     C14584   7.679   9.101   1.339  0.6268 -0.1318  0.3135
  109MOL0     C14585   7.630   8.968   1.361 -0.3493 -0.3353 -0.0991
  109MOL0     C14586   7.493   8.934   1.335 -0.0947 -0.2444 -0.1875
  109MOL0     C14587   7.398   9.030   1.279  0.5332 -0.2445  0.2905
  109MOL0     O14588   7.266   9.004   1.249  0.2660  0.3000  0.1441
  109MOL0     C14589   7.191   8.905   1.332 -0.0078  0.1688 -0.6683
  109MOL0     C14590   7.039   8.917   1.312 -0.0933 -0.4435  0.1967
  109MOL0     C14591   6.963   8.843   1.422  0.3000  0.5067  0.4977
  109MOL0     C14592   6.815   8.839   1.422  0.0480 -0.2115  0.4153
  109MOL0     C14593   6.732   8.793   1.540 -0.2586 -0.3525  0.3875
  109MOL0     C14594   6.582   8.809   1.508 -0.5278 -0.1154 -0.4493
  109MOL0     C14595   6.485   8.741   1.600 -0.1791  1.1005  0.5376
  109MOL0     C14596   6.340   8.763   1.572 -0.4704 -1.3061 -0.2952
  109MOL0     N14597   6.253   8.730   1.685 -0.4981 -0.1621 -0.9308
  109MOL0     C14598   6.238   8.795   1.806 -0.0174  0.3042  0.0915
  109MOL0     C14599   6.139   8.725   1.870  1.4303  0.0365  0.1705
  109MOL0     C14600   6.104   8.728   2.021 -0.1662  0.2930  0.5630
  109MOL0     C14601   5.969   8.811   2.035  0.1325  0.8069 -0.1136
  109MOL0     C14602   5.953   8.840   2.187 -0.1168  1.0661  0.7606
  109MOL0     C14603   5.932   8.709   2.268 -0.4078 -0.1257  0.1008
  109MOL0     O14604   5.872   8.733   2.394 -0.6162 -0.7716 -0.5212
  109MOL0     C14605   5.808   8.634   2.458  0.1373 -0.2906  0.7159
  109MOL0     C14606   5.820   8.496   2.417  0.0286  0.2107 -1.3239
  109MOL0     C14607   5.745   8.396   2.484 -0.5007 -0.3136  0.3733
  109MOL0     C14608   5.758   8.248   2.442 -0.1334 -0.3136  1.3008
  109MOL0     C14609   5.668   8.429   2.599  0.6254  0.4618  0.1393
  109MOL0     C14610   5.603   8.339   2.701 -0.2824 -0.2386 -0.3000
  109MOL0     O14611   5.508   8.398   2.788 -0.0070 -0.1566  0.1214
  109MOL0     C14612   5.444   8.315   2.879 -0.1526  0.3567  1.2355
  109MOL0     C14613   5.488   8.281   3.007  0.6944 -0.0405 -1.2207
  109MOL0     C14614   5.403   8.210   3.099 -0.7138 -0.0521 -0.7595
  109MOL0     C14615   5.270   8.174   3.062  0.3741 -0.6830  0.5869
  109MOL0     O14616   5.181   8.108   3.140 -0.7900 -0.1427  0.1313
  109MOL0     C14617   5.232   8.046   3.260 -0.3034  0.0830  0.1324
  109MOL0     C14618   5.115   7.971   3.334 -0.4154  0.0279  0.1231
  109MOL0     C14619   4.986   8.045   3.359 -0.9364 -0.8427 -0.5580
  109MOL0     C14620   5.005   8.173   3.440 -0.5063  0.3419 -0.4365
  109MOL0     C14621   5.071   8.156   3.583  0.5111  0.1889 -0.5512
  109MOL0     C14622   5.075   8.289   3.650  0.2942 -0.8399  0.5584
  109MOL0     C14623   5.156   8.291   3.786  0.5216 -0.6800  0.2645
  109MOL0     C14624   5.069   8.226   3.895  0.6263 -0.5644  0.3482
  109MOL0    Cl14625   5.146   8.252   4.058 -0.1201  0.5592 -0.2259
  109MOL0     C14626   5.229   8.206   2.930  0.2486 -0.9224  0.0332
  109MOL0     C14627   5.310   8.291   2.846  0.4032  0.2517 -1.0074
  109MOL0     O14628   5.623   8.222   2.704 -0.5703  0.6103  0.9416
  109MOL0     C14629   5.662   8.567   2.636 -0.5858 -0.0433  0.2172
  109MOL0     C14630   5.731   8.665   2.562  0.8110 -0.4227  0.4517
  109MOL0     N14631   6.076   8.646   1.774 -0.5754 -0.5969 -0.0338
  109MOL0     N14632   6.145   8.649   1.667  0.3383 -0.8262  0.1644
  109MOL0     C14633   7.452   9.157   1.250  0.1739 -0.6805 -0.1406
  109MOL0     C14634   7.591   9.195   1.281  0.0356  0.3730  0.5454
  109MOL0     C14635   7.982   9.281   1.441 -1.3462  0.2779  0.0824
  109MOL0     C14636   8.018   9.407   1.487 -1.0019  0.6612 -0.6615
  109MOL0     C14637   8.154   9.431   1.509 -0.1994 -0.3077 -0.3053
  109MOL0     C14638   8.254   9.342   1.482  0.0005 -0.6377  0.0981
  109MOL0     O14639   8.384   9.381   1.508 -0.5179 -0.3290 -0.2305
  109MOL0     C14640   8.493   9.301   1.456  0.1203  0.6077 -1.0713
  109MOL0     C14641   8.618   9.353   1.528  0.0232 -0.2001 -0.0167
  109MOL0     C14642   8.752   9.325   1.449 -0.2126 -0.5278  0.0787
  109MOL0     C14643   8.868   9.411   1.512 -0.5280 -0.0843  0.7261
  109MOL0     C14644   8.882   9.378   1.659  1.2998 -1.8418  0.2357
  109MOL0     C14645   8.889   9.347   1.777  0.2568  0.5755 -0.3560
  109MOL0     C14646   8.224   9.216   1.422  0.1598 -0.5669  0.1299
  109MOL0     C14647   8.087   9.189   1.414  0.0802 -0.0667 -0.1860
  109MOL0     H14648   7.696   8.897   1.410  1.8181  1.8414  0.3400
  109MOL0     H14649   7.464   8.836   1.371  0.4590 -1.0327 -1.7812
  109MOL0     H14650   7.211   8.801   1.304  0.7538  0.4507 -1.2116
  109MOL0     H14651   7.211   8.924   1.437 -3.6779 -1.9210  0.5980
  109MOL0     H14652   7.017   9.025   1.315 -0.8549 -0.5753 -0.3465
  109MOL0     H14653   7.006   8.886   1.213 -1.3129 -0.8209  0.6958
  109MOL0     H14654   6.997   8.739   1.433 -3.2235 -0.9667 -1.0046
  109MOL0     H14655   6.982   8.899   1.514 -3.7167 -0.3129  2.0460
  109MOL0     H14656   6.780   8.936   1.384 -1.3139 -0.7493  0.2480
  109MOL0     H14657   6.799   8.769   1.339 -0.0517  0.9455 -0.5774
  109MOL0     H14658   6.752   8.687   1.560 -0.9229 -0.1368  2.5405
  109MOL0     H14659   6.766   8.854   1.624 -1.3799  2.8314 -1.2999
  109MOL0     H14660   6.565   8.917   1.504 -3.4106 -0.4137  1.1618
  109MOL0     H14661   6.557   8.768   1.410 -0.6924 -4.0705  1.0483
  109MOL0     H14662   6.516   8.636   1.588  1.8251  1.9077 -2.5186
  109MOL0     H14663   6.507   8.781   1.699  2.3078 -0.3701  0.6584
  109MOL0     H14664   6.314   8.704   1.483  1.4825 -2.0686 -0.4126
  109MOL0     H14665   6.329   8.870   1.555  0.8717 -1.3611 -1.7390
  109MOL0     H14666   6.304   8.876   1.836 -0.5657  1.5161 -1.7735
  109MOL0     H14667   6.077   8.627   2.053 -0.1266  0.3384  0.7374
  109MOL0     H14668   6.180   8.768   2.088 -0.9952  2.7256  0.1389
  109MOL0     H14669   5.887   8.753   1.992  1.2948  0.1560 -1.5373
  109MOL0     H14670   5.976   8.911   1.992  1.6060  0.8817  0.2373
  109MOL0     H14671   5.873   8.915   2.195 -0.7227  0.6188 -0.8387
  109MOL0     H14672   6.049   8.882   2.219  0.1421 -0.1955  1.7007
  109MOL0     H14673   6.027   8.655   2.278 -0.2061 -0.1236 -1.6236
  109MOL0     H14674   5.865   8.642   2.213 -0.9682  1.0660 -0.6827
  109MOL0     H14675   5.892   8.460   2.344  2.1747  1.1731  0.2146
  109MOL0     H14676   5.780   8.245   2.335 -1.3678  0.4336  1.0076
  109MOL0     H14677   5.830   8.187   2.497 -1.0042 -3.1725 -0.5049
  109MOL0     H14678   5.662   8.196   2.450  0.3055 -0.8646  4.2286
  109MOL0     H14679   5.586   8.312   3.042 -0.4682  1.9953  0.4153
  109MOL0     H14680   5.450   8.177   3.192 -2.9664 -1.3974 -0.0347
  109MOL0     H14681   5.305   7.971   3.227 -0.2998 -1.2937  2.9354
  109MOL0     H14682   5.278   8.119   3.327 -3.3210 -0.0219  2.5241
  109MOL0     H14683   5.083   7.887   3.271  1.1321 -0.3018 -0.2567
  109MOL0     H14684   5.164   7.929   3.423 -0.5054 -0.4802 -0.0617
  109MOL0     H14685   4.913   7.988   3.418  1.0995 -0.2050  2.8300
  109MOL0     H14686   4.937   8.072   3.265 -2.2026 -1.6461 -0.1611
  109MOL0     H14687   5.058   8.244   3.375 -0.5964  1.3077  0.5205
  109MOL0     H14688   4.904   8.210   3.456 -0.0473  1.1475  0.7978
  109MOL0     H14689   5.173   8.123   3.567  0.9858  0.4307  1.5955
  109MOL0     H14690   5.025   8.082   3.650  1.8141 -0.7716 -0.6905
  109MOL0     H14691   5.113   8.368   3.584 -0.3705  0.0740  1.2408
  109MOL0     H14692   4.974   8.321   3.674  0.6001 -1.1536  2.4227
  109MOL0     H14693   5.174   8.396   3.810 -1.7190  0.0528 -0.9863
  109MOL0     H14694   5.249   8.235   3.771 -0.9788 -3.6602  1.3135
  109MOL0     H14695   5.056   8.118   3.882  1.2046 -0.5800 -0.1289
  109MOL0     H14696   4.971   8.274   3.885  0.5680 -0.3515  1.6770
  109MOL0     H14697   5.133   8.175   2.889  0.1548 -1.8504  0.8984
  109MOL0     H14698   5.275   8.323   2.749  0.1770 -1.0393 -1.3732
  109MOL0     H14699   5.606   8.597   2.724  1.8686 -1.3429  2.3343
  109MOL0     H14700   5.706   8.763   2.602  2.8556  0.2642  0.1969
  109MOL0     H14701   7.395   9.239   1.208  4.4052  2.6676 -0.0198
  109MOL0     H14702   7.627   9.292   1.247 -0.6057  0.9991  1.5898
  109MOL0     H14703   7.949   9.489   1.501 -3.0979 -1.1221  0.1160
  109MOL0     H14704   8.177   9.526   1.558 -2.4648 -0.5118  1.2760
  109MOL0     H14705   8.478   9.196   1.481  1.3053  0.7320  0.2968
  109MOL0     H14706   8.511   9.316   1.349  1.1723  2.7058 -0.6508
  109MOL0     H14707   8.613   9.300   1.624 -1.8698 -2.3205 -1.1772
  109MOL0     H14708   8.606   9.459   1.551 -1.0855 -0.5316  1.0916
  109MOL0     H14709   8.743   9.373   1.351  4.1467  2.5263  0.8457
  109MOL0     H14710   8.771   9.218   1.436 -0.3675 -0.4200 -1.1902
  109MOL0     H14711   8.858   9.516   1.483  0.3871 -0.2080 -0.0768
  109MOL0     H14712   8.963   9.372   1.476 -1.3345  0.0171 -1.6479
  109MOL0     H14713   8.897   9.325   1.882 -0.8057 -1.7173 -0.7123
  109MOL0     H14714   8.299   9.145   1.389 -0.6418 -2.2282  1.7020
  109MOL0     H14715   8.051   9.096   1.371 -0.5643  0.1148 -0.0470
  110MOL0     O14716   5.077   9.293   6.784  0.1604 -0.4010  0.3495
  110MOL0     C14717   5.135   9.400   6.782 -0.9898  0.3825  0.2282
  110MOL0     O14718   5.078   9.522   6.739 -0.4035  0.5911  0.4581
  110MOL0     C14719   4.951   9.542   6.701  1.0788  0.2730  0.1742
  110MOL0     C14720   4.846   9.452   6.690  0.9743  0.1696  0.2021
  110MOL0     C14721   4.713   9.481   6.669 -1.0437  0.4189  0.5607
  110MOL0     C14722   4.674   9.606   6.631  0.4396 -0.1320 -0.3238
  110MOL0     O14723   4.548   9.646   6.594 -0.0045 -0.2616 -0.1388
  110MOL0     C14724   4.442   9.559   6.610 -0.4923  0.3349 -0.6204
  110MOL0     C14725   4.397   9.564   6.761 -0.1765  1.2846  0.2459
  110MOL0     C14726   4.249   9.544   6.797 -0.0051 -1.0415 -0.2861
  110MOL0     C14727   4.139   9.616   6.724 -0.4107 -0.5881 -0.6504
  110MOL0     C14728   4.012   9.611   6.804  0.0220  0.0243 -0.6415
  110MOL0     C14729   3.899   9.653   6.712 -0.2275 -0.0846 -0.1714
  110MOL0     C14730   3.762   9.650   6.785 -0.3471 -1.0504 -0.2224
  110MOL0     C14731   3.659   9.731   6.704  0.1128  0.2806 -0.2080
  110MOL0     N14732   3.540   9.764   6.785 -0.3956  0.1079  0.2053
  110MOL0     C14733   3.555   9.815   6.913 -0.2573 -0.5970  0.8749
  110MOL0     C14734   3.442   9.791   6.969 -0.3455 -0.8453 -0.6640
  110MOL0     C14735   3.409   9.798   7.114 -1.2576 -0.7732  1.2480
  110MOL0     C14736   3.391   9.658   7.172  0.7380  0.0246  0.3614
  110MOL0     C14737   3.428   9.648   7.317 -0.0713  0.9120 -0.2165
  110MOL0     C14738   3.340   9.727   7.405  0.2299  0.2633  1.2458
  110MOL0     O14739   3.206   9.683   7.435 -0.3133  0.0459 -0.7114
  110MOL0     C14740   3.142   9.737   7.546 -0.4803  0.9338 -0.1745
  110MOL0     C14741   3.008   9.701   7.555 -1.0774 -0.7679 -0.2251
  110MOL0     C14742   2.927   9.745   7.662  0.0690  1.3024  0.7183
  110MOL0     C14743   2.778   9.707   7.633  0.4559 -0.4669 -0.8199
  110MOL0     C14744   2.985   9.819   7.769  0.6942  0.3365 -0.2456
  110MOL0     C14745   2.897   9.875   7.881  0.7535  0.0302  0.0655
  110MOL0     O14746   2.964   9.934   7.983 -0.5889 -0.1551  0.0188
  110MOL0     C14747   2.904   9.990   8.098 -0.2935 -0.7977 -0.5067
  110MOL0     C14748   2.855  10.125   8.111 -0.1720  0.8252 -0.2403
  110MOL0     C14749   2.805  10.166   8.236 -0.0142 -0.0884 -0.4164
  110MOL0     C14750   2.804  10.080   8.351  0.1163 -0.8206  0.5721
  110MOL0     O14751   2.749  10.117   8.480  0.7682 -0.2557 -0.4564
  110MOL0     C14752   2.730  10.260   8.509  0.0728  0.2617  0.0505
  110MOL0     C14753   2.649  10.279   8.639  0.4163  0.6537 -0.2228
  110MOL0     C14754   2.636  10.424   8.678 -0.9815  0.6777 -0.6328
  110MOL0     C14755   2.759  10.476   8.750 -0.0541 -0.0601 -0.1172
  110MOL0     C14756   2.737  10.532   8.888  0.1116 -0.3508 -0.1707
  110MOL0     C14757   2.631  10.645   8.890 -0.7849 -0.0964  0.1753
  110MOL0     C14758   2.619  10.723   9.020  0.0701  0.8642 -0.1910
  110MOL0     C14759   2.737  10.820   9.047  0.1417 -0.9991  0.2637
  110MOL0    Cl14760   2.748  10.930   8.898 -0.2026  0.2050  0.2112
  110MOL0     C14761   2.829   9.944   8.329  0.5637 -0.3599  0.6986
  110MOL0     C14762   2.874   9.906   8.205  0.5769  0.3570  0.2385
  110MOL0     O14763   2.777   9.869   7.868  0.0838  0.3202 -0.8831
  110MOL0     C14764   3.126   9.836   7.769 -0.2186  0.5129 -0.6616
  110MOL0     C14765   3.197   9.786   7.663 -0.6736  0.4382  0.0226
  110MOL0     N14766   3.345   9.750   6.882  0.1114  1.0834 -0.0732
  110MOL0     N14767   3.405   9.724   6.769  0.2542  0.8647  0.9758
  110MOL0     C14768   4.780   9.701   6.632 -0.3544  0.2686  0.0606
  110MOL0     C14769   4.914   9.674   6.668  0.3426  0.2948  0.3281
  110MOL0     C14770   5.281   9.400   6.810  0.8278  0.2450 -0.7449
  110MOL0     C14771   5.343   9.525   6.821 -0.4689  0.2583  0.5945
  110MOL0     C14772   5.482   9.532   6.850 -0.1275 -0.4477 -0.4561
  110MOL0     C14773   5.560   9.417   6.875 -0.5025  0.3535  0.3887
  110MOL0     O14774   5.692   9.412   6.889 -0.9603 -0.3884 -1.4529
  110MOL0     C14775   5.771   9.534   6.910  0.4415 -0.5610  0.4882
  110MOL0     C14776   5.909   9.499   6.957  1.0842 -0.3440 -0.2076
  110MOL0     C14777   5.998   9.619   6.979  0.4754 -0.0627 -0.1891
  110MOL0     C14778   6.086   9.678   6.857  0.3926  0.6475  0.2301
  110MOL0     C14779   6.199   9.760   6.906  0.2733 -0.3321  0.2446
  110MOL0     C14780   6.280   9.834   6.941  0.0532 -0.0159 -0.6417
  110MOL0     C14781   5.497   9.295   6.866 -0.1907  0.6649  1.6234
  110MOL0     C14782   5.365   9.284   6.827  0.7304  0.1671 -0.0844
  110MOL0     H14783   4.880   9.351   6.710  0.4602 -0.2063 -0.7388
  110MOL0     H14784   4.645   9.399   6.688 -3.1727  1.4353 -2.0998
  110MOL0     H14785   4.364   9.602   6.545 -1.9667 -0.5344  0.5039
  110MOL0     H14786   4.459   9.454   6.586  0.8945  0.1901  0.8318
  110MOL0     H14787   4.447   9.489   6.822 -2.7304 -0.7359  0.0386
  110MOL0     H14788   4.432   9.660   6.800  0.9295  1.7714 -1.8032
  110MOL0     H14789   4.220   9.439   6.807  0.8418 -1.1149  2.5114
  110MOL0     H14790   4.246   9.585   6.899  1.4619  1.1338 -1.0422
  110MOL0     H14791   4.171   9.720   6.710 -3.5337  0.3415 -1.8414
  110MOL0     H14792   4.127   9.570   6.626 -0.1866 -0.2889 -0.8213
  110MOL0     H14793   3.996   9.514   6.853  0.3462 -0.3450 -1.2376
  110MOL0     H14794   4.023   9.690   6.878  2.8390 -0.9238  0.0783
  110MOL0     H14795   3.913   9.755   6.674 -0.0752  1.1035  2.7643
  110MOL0     H14796   3.886   9.583   6.629 -2.6034  0.5040 -0.3685
  110MOL0     H14797   3.739   9.543   6.793  1.6129 -1.4579  0.7459
  110MOL0     H14798   3.775   9.687   6.887  1.3671  1.9981 -1.4221
  110MOL0     H14799   3.628   9.662   6.624 -0.1536  2.4625 -2.1011
  110MOL0     H14800   3.700   9.820   6.654  0.0013  0.5714  0.2205
  110MOL0     H14801   3.646   9.856   6.955 -0.9824  0.2895  1.6100
  110MOL0     H14802   3.490   9.855   7.160  2.5305 -4.9357  0.4509
  110MOL0     H14803   3.312   9.848   7.115 -0.4292  0.9778 -0.3066
  110MOL0     H14804   3.457   9.592   7.114 -0.0933  1.0437 -1.8652
  110MOL0     H14805   3.288   9.623   7.155  1.1531 -1.5103  0.8981
  110MOL0     H14806   3.531   9.682   7.324 -0.0887  0.8657  0.2862
  110MOL0     H14807   3.417   9.542   7.343  2.9298  0.8605  1.2271
  110MOL0     H14808   3.349   9.832   7.376  2.5688 -0.3533 -0.5700
  110MOL0     H14809   3.394   9.730   7.500  1.2569  0.5432  0.6704
  110MOL0     H14810   2.967   9.632   7.482  0.0891 -1.6425 -0.0747
  110MOL0     H14811   2.764   9.620   7.567 -1.8318 -1.5190  0.8983
  110MOL0     H14812   2.727   9.683   7.726  0.6654 -2.3171 -1.1296
  110MOL0     H14813   2.721   9.791   7.594 -0.1743 -1.6666 -2.6395
  110MOL0     H14814   2.873  10.185   8.022  1.3817 -1.6055 -1.6994
  110MOL0     H14815   2.787  10.273   8.246  0.7609 -0.1474  2.6765
  110MOL0     H14816   2.821  10.320   8.524  1.3525 -1.1458 -1.7394
  110MOL0     H14817   2.681  10.312   8.426  0.6856  0.7491 -0.0181
  110MOL0     H14818   2.545  10.244   8.636  0.9544 -1.2809  1.2709
  110MOL0     H14819   2.692  10.228   8.726 -0.7047  0.6429  0.3458
  110MOL0     H14820   2.543  10.433   8.736 -0.0957  0.7239  0.8224
  110MOL0     H14821   2.623  10.489   8.591  0.5387  1.3626 -0.3693
  110MOL0     H14822   2.844  10.408   8.752  1.7576  2.0341 -0.8031
  110MOL0     H14823   2.800  10.566   8.703  0.9119  1.1073  2.7140
  110MOL0     H14824   2.826  10.570   8.937 -0.2957 -0.6235  0.8095
  110MOL0     H14825   2.703  10.448   8.951 -0.2230 -1.7699 -2.1352
  110MOL0     H14826   2.665  10.715   8.813  1.0684 -0.2299  0.8005
  110MOL0     H14827   2.531  10.617   8.858 -0.3340  0.9278 -2.3168
  110MOL0     H14828   2.619  10.661   9.110  0.7095 -0.9022 -1.3378
  110MOL0     H14829   2.525  10.779   9.026 -1.5155 -1.7947  2.1690
  110MOL0     H14830   2.833  10.770   9.059  0.1550 -1.2286 -0.7578
  110MOL0     H14831   2.714  10.885   9.133 -0.6262  0.1357 -0.7620
  110MOL0     H14832   2.795   9.869   8.400 -2.6937 -1.7729 -2.0930
  110MOL0     H14833   2.904   9.802   8.208 -1.9531 -0.4388  0.5085
  110MOL0     H14834   3.171   9.870   7.862  0.3094  0.4699 -0.8961
  110MOL0     H14835   3.302   9.808   7.678  1.0605 -3.6127 -3.8621
  110MOL0     H14836   4.754   9.800   6.596  1.1850  0.6552 -0.0602
  110MOL0     H14837   4.987   9.754   6.656  1.0015 -0.1673  1.0939
  110MOL0     H14838   5.290   9.617   6.801 -0.2624  0.0816 -0.9686
  110MOL0     H14839   5.533   9.628   6.850  3.1797 -2.0849 -1.8618
  110MOL0     H14840   5.770   9.597   6.820  1.2187 -0.4921  0.5219
  110MOL0     H14841   5.710   9.598   6.974 -0.5234  2.0720 -2.7575
  110MOL0     H14842   5.955   9.433   6.883  2.2261  0.6378 -0.3996
  110MOL0     H14843   5.888   9.453   7.054 -2.7426  0.7145 -0.3884
  110MOL0     H14844   6.078   9.594   7.050  0.4499  2.5746  0.8768
  110MOL0     H14845   5.943   9.705   7.019  1.3743  0.9684 -1.1023
  110MOL0     H14846   6.019   9.737   6.793 -0.8720 -0.8718  0.0913
  110MOL0     H14847   6.124   9.596   6.796 -0.5578  2.5575 -3.2142
  110MOL0     H14848   6.354   9.901   6.979 -0.5595 -0.4312  1.3823
  110MOL0     H14849   5.558   9.206   6.880  2.0148  0.8821 -4.0162
  110MOL0     H14850   5.322   9.188   6.799  2.2551 -0.2315 -1.1620
  111MOL0     O14851   8.619   2.792   1.161  0.8641 -0.5786  0.5870
  111MOL0     C14852   8.658   2.908   1.131 -0.7891 -0.3833 -0.2278
  111MOL0     O14853   8.604   3.031   1.180  0.9009  0.9049 -0.1252
  111MOL0     C14854   8.479   3.039   1.255  0.4854  0.4380  0.0274
  111MOL0     C14855   8.450   2.969   1.371 -0.8298  0.1599  1.2738
  111MOL0     C14856   8.320   2.969   1.419  0.4212 -1.0513 -0.3182
  111MOL0     C14857   8.222   3.049   1.367 -0.4549 -0.6037  0.3017
  111MOL0     O14858   8.097   3.053   1.425 -0.3565  0.0943  0.9328
  111MOL0     C14859   8.013   3.166   1.394  0.7193  0.3142 -0.5754
  111MOL0     C14860   7.897   3.135   1.304 -1.2965  0.3534  0.3344
  111MOL0     C14861   7.752   3.179   1.349  0.3167  0.3001 -0.1360
  111MOL0     C14862   7.723   3.332   1.346  0.6677  0.0888  0.7669
  111MOL0     C14863   7.573   3.368   1.350  0.1633  0.0727  0.0584
  111MOL0     C14864   7.510   3.309   1.481  0.2966 -0.7061 -0.8033
  111MOL0     C14865   7.358   3.326   1.459  0.3472  0.6841 -0.1050
  111MOL0     C14866   7.265   3.286   1.580  0.5581 -0.7302  0.1745
  111MOL0     N14867   7.130   3.248   1.526  0.2852 -1.2650 -0.9152
  111MOL0     C14868   7.045   3.349   1.480  0.4765 -0.0754  0.0968
  111MOL0     C14869   6.931   3.279   1.455  0.3548 -0.0657 -0.0791
  111MOL0     C14870   6.798   3.336   1.407 -1.3481  0.1866  0.1267
  111MOL0     C14871   6.702   3.342   1.523 -0.2292  0.1767 -0.0307
  111MOL0     C14872   6.633   3.207   1.555  1.0418 -0.2114  0.2166
  111MOL0     C14873   6.507   3.198   1.483  0.3624 -0.1512  0.1124
  111MOL0     O14874   6.395   3.284   1.536  0.1793 -0.5019 -0.3346
  111MOL0     C14875   6.271   3.270   1.487  0.6166 -0.1339  0.2021
  111MOL0     C14876   6.220   3.165   1.407  0.0067  1.0420 -0.4868
  111MOL0     C14877   6.085   3.159   1.370  0.1261 -0.2161 -0.3328
  111MOL0     C14878   6.054   3.040   1.279 -1.6647  0.4010  0.0432
  111MOL0     C14879   5.995   3.255   1.415 -0.0728 -0.3319 -0.4531
  111MOL0     C14880   5.845   3.264   1.401  1.1205 -0.6462 -0.8945
  111MOL0     O14881   5.779   3.361   1.477  0.3601 -0.7651  0.2473
  111MOL0     C14882   5.640   3.345   1.476 -0.1582 -0.2602  0.8777
  111MOL0     C14883   5.565   3.327   1.591  0.7862 -0.0479 -0.8116
  111MOL0     C14884   5.427   3.293   1.591  0.1272  0.1059 -0.3550
  111MOL0     C14885   5.354   3.306   1.475  0.2272  0.1063  0.0104
  111MOL0     O14886   5.212   3.291   1.484 -0.2356 -0.1007 -0.0208
  111MOL0     C14887   5.157   3.234   1.364 -1.0061  0.8106  0.5043
  111MOL0     C14888   5.019   3.182   1.380  0.1221 -0.5403 -0.4521
  111MOL0     C14889   4.933   3.307   1.396 -0.4760 -0.0333  0.8582
  111MOL0     C14890   4.788   3.268   1.433 -0.9084 -0.1436  0.1922
  111MOL0     C14891   4.717   3.404   1.450 -0.1110  0.4242  0.4542
  111MOL0     C14892   4.692   3.479   1.318 -0.7614  0.3013  0.1730
  111MOL0     C14893   4.598   3.597   1.347  0.1570  0.6585  0.7209
  111MOL0     C14894   4.663   3.704   1.432 -1.0460 -1.3788 -0.1067
  111MOL0    Cl14895   4.834   3.729   1.400 -0.3598  0.3517  0.3579
  111MOL0     C14896   5.422   3.338   1.356 -0.1909 -0.1749 -0.1938
  111MOL0     C14897   5.562   3.346   1.356  0.3517 -0.6077 -0.5546
  111MOL0     O14898   5.788   3.180   1.336  0.1883 -0.0587  0.0820
  111MOL0     C14899   6.052   3.369   1.485  0.5580  0.0335  0.3407
  111MOL0     C14900   6.187   3.376   1.522  0.0300  0.5923  0.5081
  111MOL0     N14901   6.956   3.145   1.478  0.0596  0.6974  0.3844
  111MOL0     N14902   7.080   3.122   1.515 -0.8374  0.1864  0.1105
  111MOL0     C14903   8.244   3.110   1.244 -0.0515 -0.1001  0.1416
  111MOL0     C14904   8.374   3.106   1.188 -0.1262  0.4809 -0.4027
  111MOL0     C14905   8.781   2.909   1.046  0.0996 -0.4411 -0.4048
  111MOL0     C14906   8.870   3.019   1.018 -0.4150  0.6888 -0.1522
  111MOL0     C14907   8.977   3.006   0.931 -0.2070 -0.1862 -0.3799
  111MOL0     C14908   9.006   2.883   0.866 -0.0580  0.3272  0.5871
  111MOL0     O14909   9.110   2.870   0.782 -0.6865  1.1371  0.6226
  111MOL0     C14910   9.222   2.802   0.838  0.1677 -0.2813 -0.4484
  111MOL0     C14911   9.308   2.906   0.898  0.9323 -0.8128 -0.5131
  111MOL0     C14912   9.389   2.984   0.779 -0.2389 -0.6785 -1.2223
  111MOL0     C14913   9.501   2.893   0.732  0.4854  0.7590 -0.2877
  111MOL0     C14914   9.602   2.956   0.655  0.1255 -0.7822 -0.0078
  111MOL0     C14915   9.686   3.011   0.585 -0.6030 -0.0487  0.2583
  111MOL0     C14916   8.922   2.773   0.890 -0.6814 -0.6847  0.9119
  111MOL0     C14917   8.813   2.785   0.984  0.3400 -0.1980  0.3008
  111MOL0     H14918   8.515   2.895   1.416 -2.1970 -2.4354 -0.7215
  111MOL0     H14919   8.306   2.903   1.504 -2.2344 -1.8279 -1.2808
  111MOL0     H14920   7.970   3.188   1.493  2.2711 -3.3444  1.0942
  111MOL0     H14921   8.073   3.254   1.371  1.1376  0.7408  1.8838
  111MOL0     H14922   7.922   3.160   1.200  0.9917 -1.8736  0.2290
  111MOL0     H14923   7.900   3.026   1.292 -2.6515  0.1095  1.8729
  111MOL0     H14924   7.684   3.137   1.275 -1.0174  1.9220  0.0897
  111MOL0     H14925   7.725   3.131   1.443  2.4094  1.5385  1.1843
  111MOL0     H14926   7.768   3.394   1.423 -2.4452  1.2613  1.8211
  111MOL0     H14927   7.766   3.364   1.250  1.1421  2.1158  1.6159
  111MOL0     H14928   7.561   3.477   1.348  1.8605  0.3356  1.4763
  111MOL0     H14929   7.519   3.330   1.263 -1.3676 -0.5750  1.2467
  111MOL0     H14930   7.547   3.207   1.493 -0.9564 -1.1302 -0.3436
  111MOL0     H14931   7.527   3.365   1.573 -0.1378 -1.4343 -0.2723
  111MOL0     H14932   7.335   3.426   1.420 -0.5661  0.3998 -0.3191
  111MOL0     H14933   7.319   3.259   1.382 -2.4409  0.7460  1.1210
  111MOL0     H14934   7.248   3.369   1.649  0.3622 -1.0059  0.4637
  111MOL0     H14935   7.312   3.204   1.636  0.0044 -0.1203  1.5872
  111MOL0     H14936   7.058   3.457   1.475  0.0747 -0.0636 -2.5878
  111MOL0     H14937   6.814   3.435   1.364 -1.7296  0.2803  0.1967
  111MOL0     H14938   6.751   3.270   1.333 -1.3994 -0.5095  0.7632
  111MOL0     H14939   6.643   3.434   1.521 -0.2619  0.1461 -0.8018
  111MOL0     H14940   6.769   3.357   1.608 -1.1856 -0.8793  0.9410
  111MOL0     H14941   6.608   3.193   1.660 -0.1362 -1.2777 -0.1809
  111MOL0     H14942   6.697   3.120   1.537 -2.2585 -2.9684  0.6515
  111MOL0     H14943   6.481   3.092   1.473  1.3067 -0.4028  0.2859
  111MOL0     H14944   6.519   3.236   1.381  0.4342  1.7752  0.7990
  111MOL0     H14945   6.278   3.078   1.378 -2.4533 -0.8901  0.0762
  111MOL0     H14946   5.988   3.071   1.197  0.2529 -0.7822 -2.0654
  111MOL0     H14947   6.143   3.002   1.229 -3.1334 -1.9203 -0.9669
  111MOL0     H14948   6.015   2.956   1.338  2.0451 -2.0581 -0.6651
  111MOL0     H14949   5.627   3.331   1.680  0.6070  0.6291 -0.7103
  111MOL0     H14950   5.372   3.277   1.683 -1.6311  1.7237 -1.0541
  111MOL0     H14951   5.159   3.302   1.278 -3.1518 -1.4653 -1.4946
  111MOL0     H14952   5.221   3.150   1.336  1.3316  2.2519  1.2432
  111MOL0     H14953   5.000   3.126   1.288  0.6455  0.9834 -1.5361
  111MOL0     H14954   5.015   3.124   1.472  0.0168  0.0720 -0.0666
  111MOL0     H14955   4.948   3.365   1.305 -0.9360  0.1559  0.8980
  111MOL0     H14956   4.975   3.366   1.478  1.2337 -1.5948  1.1621
  111MOL0     H14957   4.741   3.218   1.348 -1.1739  0.3355  0.0582
  111MOL0     H14958   4.791   3.188   1.509  0.2556  0.2839  0.6210
  111MOL0     H14959   4.778   3.466   1.516 -2.6382  1.9835  1.4713
  111MOL0     H14960   4.622   3.397   1.504 -0.2865  0.6352  0.1754
  111MOL0     H14961   4.787   3.522   1.286 -0.6011  1.6491  2.2855
  111MOL0     H14962   4.657   3.408   1.243  2.8758 -0.4843 -0.9595
  111MOL0     H14963   4.500   3.575   1.390  0.0042  0.5963  0.3511
  111MOL0     H14964   4.579   3.635   1.245  1.4660 -1.3398 -0.3141
  111MOL0     H14965   4.655   3.663   1.533 -2.0511 -0.4964  0.1857
  111MOL0     H14966   4.625   3.804   1.411 -0.1309 -0.8822  0.5102
  111MOL0     H14967   5.368   3.342   1.262  0.0871  2.2024 -0.3377
  111MOL0     H14968   5.608   3.370   1.260 -2.0111 -1.3934 -1.9765
  111MOL0     H14969   5.992   3.454   1.516 -0.5486 -0.9363  0.8899
  111MOL0     H14970   6.224   3.454   1.589  1.4921 -1.9193  2.8396
  111MOL0     H14971   8.155   3.150   1.195  0.0015  1.1321  1.0217
  111MOL0     H14972   8.399   3.162   1.099 -0.4037 -0.4654 -1.0866
  111MOL0     H14973   8.856   3.112   1.071 -1.8058  1.3746 -1.6375
  111MOL0     H14974   9.038   3.093   0.909 -3.5138  2.8547  1.3687
  111MOL0     H14975   9.187   2.738   0.919 -1.4987  1.2743  0.1279
  111MOL0     H14976   9.278   2.736   0.771 -0.6983 -2.0514  0.5074
  111MOL0     H14977   9.376   2.867   0.974  1.1284 -0.0108 -0.2651
  111MOL0     H14978   9.245   2.966   0.964 -1.7852 -2.0853 -1.7761
  111MOL0     H14979   9.420   3.082   0.817  1.4896  0.0414 -4.1861
  111MOL0     H14980   9.325   2.990   0.690 -2.5176 -1.0654  0.2925
  111MOL0     H14981   9.454   2.807   0.682 -2.4200  1.9950  0.0955
  111MOL0     H14982   9.550   2.845   0.817  3.4030  1.5992 -1.3737
  111MOL0     H14983   9.750   3.059   0.513 -1.6578  1.3546  0.2179
  111MOL0     H14984   8.944   2.673   0.856  0.0733  0.4781 -2.4750
  111MOL0     H14985   8.761   2.691   1.004 -2.1756  1.0720  0.0591
  112MOL0     O14986   4.951   3.794   6.274 -0.1955 -1.1033  0.1127
  112MOL0     C14987   4.947   3.787   6.395  1.4461  0.4605  0.3111
  112MOL0     O14988   5.046   3.823   6.478 -0.2971  0.1437  0.1160
  112MOL0     C14989   5.164   3.865   6.419  0.1894 -0.5158 -0.1473
  112MOL0     C14990   5.170   3.986   6.340  0.6304  0.3920 -0.1106
  112MOL0     C14991   5.296   4.025   6.287  0.4316  0.0228 -0.5368
  112MOL0     C14992   5.403   3.942   6.307  0.1614  0.8393 -0.6625
  112MOL0     O14993   5.531   3.980   6.274 -0.3596 -0.0482  0.0298
  112MOL0     C14994   5.556   4.081   6.178 -0.5187 -0.8009 -0.4887
  112MOL0     C14995   5.708   4.086   6.163  0.3050 -0.8211  0.6800
  112MOL0     C14996   5.759   4.214   6.096 -0.3404  0.0239 -0.3478
  112MOL0     C14997   5.850   4.179   5.981  0.6039  1.5644 -0.1581
  112MOL0     C14998   5.886   4.293   5.894 -0.4927 -0.7328 -0.5569
  112MOL0     C14999   5.969   4.260   5.762  0.5269 -0.3180 -0.7894
  112MOL0     C15000   5.923   4.127   5.682 -0.3031 -0.3125  0.0798
  112MOL0     C15001   5.951   4.149   5.535 -0.1977 -0.4737 -0.4471
  112MOL0     N15002   5.849   4.222   5.461  0.2671 -0.3486  0.0674
  112MOL0     C15003   5.735   4.172   5.411 -0.8132  0.4857 -0.2140
  112MOL0     C15004   5.662   4.281   5.372 -0.7500  0.9127  1.2210
  112MOL0     C15005   5.536   4.275   5.284 -0.1972  0.5480 -0.4501
  112MOL0     C15006   5.429   4.348   5.354  0.2068 -0.1512 -1.3612
  112MOL0     C15007   5.379   4.273   5.479  0.6343 -0.2057  0.4290
  112MOL0     C15008   5.275   4.166   5.433  1.4753  0.3405  0.0381
  112MOL0     O15009   5.333   4.057   5.359 -0.2974 -0.2931 -0.6074
  112MOL0     C15010   5.408   3.962   5.425  0.5094 -1.4912  0.6172
  112MOL0     C15011   5.438   3.957   5.562 -0.4878 -0.3131  0.1787
  112MOL0     C15012   5.519   3.857   5.612 -0.3296 -0.4711  0.5704
  112MOL0     C15013   5.528   3.848   5.756 -0.3455  0.0845 -0.1715
  112MOL0     C15014   5.568   3.757   5.521 -0.3352 -0.8779  0.1339
  112MOL0     C15015   5.677   3.658   5.553 -0.2833  0.7937 -0.4965
  112MOL0     O15016   5.678   3.546   5.468 -0.2692  0.1389 -0.8803
  112MOL0     C15017   5.771   3.449   5.476  0.3447  0.3672  0.4794
  112MOL0     C15018   5.910   3.451   5.490  0.3388 -0.4698 -0.8687
  112MOL0     C15019   5.990   3.337   5.501 -0.5412 -0.9531 -0.1890
  112MOL0     C15020   5.944   3.207   5.462 -0.8488 -0.3266 -0.4076
  112MOL0     O15021   6.032   3.101   5.464 -0.2958 -0.0436  0.1737
  112MOL0     C15022   6.087   3.059   5.337 -0.9197 -0.3571 -0.0835
  112MOL0     C15023   6.041   2.910   5.318 -0.4611  0.1367 -0.1467
  112MOL0     C15024   6.106   2.799   5.407 -0.9345  0.0177 -0.4674
  112MOL0     C15025   6.045   2.799   5.541 -0.0405 -0.8731 -0.6595
  112MOL0     C15026   6.095   2.694   5.641  0.2303  0.2770 -0.3280
  112MOL0     C15027   6.238   2.725   5.677  0.2000  0.3384  0.7435
  112MOL0     C15028   6.288   2.641   5.805 -0.5905 -0.2591  0.1822
  112MOL0     C15029   6.444   2.654   5.831 -0.6829 -0.5520 -0.0905
  112MOL0    Cl15030   6.532   2.514   5.748  0.3870 -0.2219 -0.4302
  112MOL0     C15031   5.811   3.202   5.423  0.9856  0.8529  0.1746
  112MOL0     C15032   5.723   3.314   5.440 -0.4775 -0.0364  0.3345
  112MOL0     O15033   5.755   3.682   5.645  0.3110  0.2463 -0.1559
  112MOL0     C15034   5.551   3.769   5.387  0.1711  1.0388 -0.3391
  112MOL0     C15035   5.462   3.866   5.338 -0.5460  0.3156 -0.2200
  112MOL0     N15036   5.744   4.395   5.383  0.5872  0.7668  0.3458
  112MOL0     N15037   5.851   4.360   5.436 -0.1372 -0.0655 -0.4993
  112MOL0     C15038   5.396   3.825   6.388 -0.2872  0.0665  0.4123
  112MOL0     C15039   5.274   3.787   6.443  0.2918  1.0309  0.8029
  112MOL0     C15040   4.823   3.728   6.453 -0.1075  0.3982 -0.0003
  112MOL0     C15041   4.820   3.682   6.581 -0.3544 -0.4754 -0.7351
  112MOL0     C15042   4.707   3.616   6.630  0.1570  0.2411  0.3367
  112MOL0     C15043   4.586   3.603   6.558 -0.8763  0.7152  0.2656
  112MOL0     O15044   4.477   3.561   6.628  0.7094 -0.3975  0.0443
  112MOL0     C15045   4.341   3.589   6.581 -0.3400  0.3056  0.1804
  112MOL0     C15046   4.246   3.511   6.658 -0.2504  0.7729  0.3766
  112MOL0     C15047   4.106   3.520   6.605 -0.8034  0.0173  0.1881
  112MOL0     C15048   4.081   3.416   6.490  0.5006  0.0673  0.3441
  112MOL0     C15049   3.975   3.466   6.403  0.5576  1.5463 -0.6418
  112MOL0     C15050   3.877   3.508   6.339  0.0687  0.8780 -0.4444
  112MOL0     C15051   4.589   3.651   6.422 -0.6499  0.6506  0.4713
  112MOL0     C15052   4.706   3.701   6.366  0.7727  0.0033 -0.9921
  112MOL0     H15053   5.087   4.055   6.328  0.2385  0.5113  2.6813
  112MOL0     H15054   5.310   4.122   6.239 -0.3858  0.2906 -0.2544
  112MOL0     H15055   5.517   4.044   6.082 -3.0104 -1.2817  0.6294
  112MOL0     H15056   5.520   4.182   6.199  0.8163 -0.5536  0.7366
  112MOL0     H15057   5.760   4.083   6.259  2.2733  0.1289 -0.2906
  112MOL0     H15058   5.745   3.996   6.112  1.4921  1.3824 -2.7051
  112MOL0     H15059   5.681   4.273   6.048  0.9584 -0.1448 -2.8003
  112MOL0     H15060   5.800   4.278   6.175 -1.7533 -0.4061  0.7910
  112MOL0     H15061   5.940   4.132   6.022 -0.0196 -0.4491 -0.9731
  112MOL0     H15062   5.801   4.102   5.922  1.3555  1.8910 -1.2448
  112MOL0     H15063   5.810   4.359   5.851  1.7278  0.2545 -3.3417
  112MOL0     H15064   5.946   4.358   5.959 -0.6053  1.6643 -2.6689
  112MOL0     H15065   5.962   4.341   5.690 -2.9072  0.2759  0.0409
  112MOL0     H15066   6.075   4.254   5.788  0.2384  2.7301  1.7353
  112MOL0     H15067   5.985   4.044   5.718 -0.0675 -0.1370  0.0830
  112MOL0     H15068   5.816   4.112   5.698  0.0684 -2.4073  0.9805
  112MOL0     H15069   5.975   4.049   5.496 -0.2275 -1.0541  0.9788
  112MOL0     H15070   6.050   4.193   5.514 -0.1309 -0.8033 -0.8429
  112MOL0     H15071   5.704   4.068   5.404  2.0638 -0.5016  0.4107
  112MOL0     H15072   5.548   4.330   5.190 -0.4413  1.4994  0.0640
  112MOL0     H15073   5.501   4.179   5.244 -3.0988  2.3161 -2.6667
  112MOL0     H15074   5.350   4.387   5.289  1.6294 -0.7254 -3.5439
  112MOL0     H15075   5.472   4.437   5.400  1.3507 -2.3483  2.2450
  112MOL0     H15076   5.320   4.343   5.539 -1.1215 -1.5224  0.3084
  112MOL0     H15077   5.458   4.228   5.540  1.3173  1.0078  0.4846
  112MOL0     H15078   5.193   4.210   5.375  1.8265 -1.7642 -2.1930
  112MOL0     H15079   5.224   4.126   5.522 -1.9533  2.3838 -0.8058
  112MOL0     H15080   5.402   4.036   5.627  2.0690 -0.1201  1.4649
  112MOL0     H15081   5.447   3.901   5.806 -0.5274 -0.7175  0.4104
  112MOL0     H15082   5.524   3.739   5.767  0.9880  0.1161  0.9989
  112MOL0     H15083   5.618   3.888   5.805 -1.6486  1.6246  1.0525
  112MOL0     H15084   5.961   3.545   5.505 -0.6599 -0.2521  1.4771
  112MOL0     H15085   6.095   3.349   5.527 -0.6932  1.3523 -0.4101
  112MOL0     H15086   6.067   3.131   5.257  0.5602  0.1797  0.0011
  112MOL0     H15087   6.196   3.056   5.344 -0.8070  1.4323 -0.4776
  112MOL0     H15088   5.932   2.917   5.313 -0.3673  1.0420 -1.2811
  112MOL0     H15089   6.075   2.892   5.216 -0.3170 -2.0965  0.2470
  112MOL0     H15090   6.212   2.822   5.420 -0.4531 -1.0895 -2.1063
  112MOL0     H15091   6.099   2.697   5.367  3.0626  0.6182 -3.3470
  112MOL0     H15092   6.064   2.891   5.597  2.5578 -0.2288 -2.4235
  112MOL0     H15093   5.942   2.776   5.513  0.2922  0.4890 -3.2965
  112MOL0     H15094   6.087   2.595   5.594  1.7253  0.7530 -1.7019
  112MOL0     H15095   6.043   2.688   5.737 -0.3329 -0.6111 -0.6762
  112MOL0     H15096   6.305   2.709   5.592 -0.0757  4.9652 -0.6379
  112MOL0     H15097   6.253   2.830   5.707  1.4514  0.1645  0.7668
  112MOL0     H15098   6.263   2.535   5.792  0.0565 -0.4288  0.2678
  112MOL0     H15099   6.228   2.672   5.891 -1.7573 -0.4076 -0.5628
  112MOL0     H15100   6.467   2.646   5.938 -2.5742 -0.4703  0.3642
  112MOL0     H15101   6.480   2.750   5.792  0.0486 -2.0300 -3.3801
  112MOL0     H15102   5.763   3.110   5.388  2.6308 -0.2890  0.8128
  112MOL0     H15103   5.616   3.312   5.420 -0.4547  0.3687  0.1663
  112MOL0     H15104   5.603   3.701   5.321  3.0771  0.2440  2.4888
  112MOL0     H15105   5.439   3.877   5.233 -3.0304 -0.2051  0.2031
  112MOL0     H15106   5.493   3.782   6.410 -0.9785 -1.0422  1.4147
  112MOL0     H15107   5.266   3.695   6.500  2.6689 -0.7018 -1.4127
  112MOL0     H15108   4.906   3.683   6.647  0.5272  4.0408 -1.6149
  112MOL0     H15109   4.690   3.573   6.729 -0.2974 -1.0332 -0.2668
  112MOL0     H15110   4.318   3.695   6.600  1.1173  0.2698  2.6136
  112MOL0     H15111   4.334   3.572   6.473 -0.2268  2.4743 -0.2204
  112MOL0     H15112   4.242   3.541   6.764 -1.1021  0.6585  0.3886
  112MOL0     H15113   4.274   3.409   6.688 -0.2413  0.2858 -1.2028
  112MOL0     H15114   4.081   3.621   6.574  0.5457 -0.4418 -2.7568
  112MOL0     H15115   4.040   3.486   6.685 -0.0719 -6.3016 -1.3678
  112MOL0     H15116   4.051   3.323   6.540  1.1633 -0.6862 -0.6375
  112MOL0     H15117   4.174   3.401   6.434  0.4650  1.3313 -0.0879
  112MOL0     H15118   3.800   3.562   6.287 -3.6638 -2.2958  1.2427
  112MOL0     H15119   4.505   3.642   6.354 -2.7914  6.8441  1.5970
  112MOL0     H15120   4.712   3.731   6.262 -0.0108  2.5058 -0.3785
  113MOL0     O15121   8.198   0.173   4.066 -0.5627 -0.1747 -0.2843
  113MOL0     C15122   8.199   0.132   4.186  0.7460 -0.0610  0.2798
  113MOL0     O15123   8.096   0.116   4.262  0.0297  1.0317 -0.4249
  113MOL0     C15124   7.974   0.162   4.220 -0.2358 -0.7092 -0.1291
  113MOL0     C15125   7.942   0.301   4.205  0.1943 -0.1730  0.5797
  113MOL0     C15126   7.806   0.348   4.177 -0.2925  0.2755  0.8757
  113MOL0     C15127   7.710   0.255   4.155  0.0489  0.6183  0.5756
  113MOL0     O15128   7.579   0.305   4.132  1.0730 -0.4900 -0.1178
  113MOL0     C15129   7.476   0.206   4.125  0.0472  0.3894  0.3714
  113MOL0     C15130   7.343   0.269   4.102  0.5903  0.8279  0.5094
  113MOL0     C15131   7.266   0.310   4.219 -1.1083 -0.4615 -0.3209
  113MOL0     C15132   7.141   0.396   4.183  0.2113 -0.3528  1.2499
  113MOL0     C15133   7.011   0.313   4.181  0.1628  0.1363 -0.0568
  113MOL0     C15134   6.878   0.381   4.148 -0.1090 -0.1683  1.0522
  113MOL0     C15135   6.868   0.433   4.001 -0.2796 -0.2515  0.2863
  113MOL0     C15136   6.758   0.541   3.991  0.7606 -0.3662 -0.6792
  113MOL0     N15137   6.630   0.499   4.065  0.0090  0.7230 -0.5985
  113MOL0     C15138   6.544   0.408   4.012  0.1213 -0.3586 -0.3208
  113MOL0     C15139   6.444   0.384   4.109 -0.9360  0.1179  0.1397
  113MOL0     C15140   6.341   0.277   4.111 -0.2645  0.5255 -1.2958
  113MOL0     C15141   6.205   0.337   4.065 -0.1860 -0.2432  0.3408
  113MOL0     C15142   6.135   0.420   4.175  0.8400  0.3916  0.0598
  113MOL0     C15143   6.000   0.457   4.128 -0.2342 -0.4273  0.1166
  113MOL0     O15144   5.945   0.554   4.221 -0.6222 -0.9630  0.4000
  113MOL0     C15145   5.805   0.564   4.224 -0.3951  0.3903  0.1324
  113MOL0     C15146   5.720   0.526   4.118 -0.5627 -0.4096 -0.4607
  113MOL0     C15147   5.579   0.562   4.129 -0.5965  0.4503 -0.1906
  113MOL0     C15148   5.493   0.531   4.016  0.2949  0.0945 -0.4751
  113MOL0     C15149   5.528   0.616   4.247  0.4942  0.2686  0.2166
  113MOL0     C15150   5.386   0.637   4.280  0.6083 -0.2361 -0.0839
  113MOL0     O15151   5.359   0.746   4.353  0.4476  0.2754 -0.3098
  113MOL0     C15152   5.226   0.765   4.393 -0.1333 -0.3683 -0.0979
  113MOL0     C15153   5.196   0.781   4.531  0.5621  0.4758  0.2334
  113MOL0     C15154   5.071   0.835   4.566 -0.0843 -0.2430 -1.3721
  113MOL0     C15155   4.962   0.848   4.473 -0.4487 -0.2318  0.0283
  113MOL0     O15156   4.837   0.902   4.502 -0.0706  0.5340 -0.5421
  113MOL0     C15157   4.812   0.935   4.645 -0.1434 -0.9007 -0.1518
  113MOL0     C15158   4.874   1.077   4.676  0.2619 -0.1490  0.7063
  113MOL0     C15159   4.833   1.184   4.577  0.6701 -0.9335  0.0282
  113MOL0     C15160   4.904   1.307   4.625 -0.2407 -0.3592  0.2038
  113MOL0     C15161   4.869   1.428   4.527  0.7228 -0.7033 -0.1161
  113MOL0     C15162   4.920   1.410   4.376 -0.6503  0.8976  0.4003
  113MOL0     C15163   5.076   1.377   4.352  1.3721  0.0077 -0.1080
  113MOL0     C15164   5.104   1.270   4.248  0.5388 -0.2011 -0.7027
  113MOL0    Cl15165   5.046   1.323   4.088  0.1655  0.4106 -0.5473
  113MOL0     C15166   4.993   0.815   4.343 -0.5249 -0.0130 -0.1417
  113MOL0     C15167   5.124   0.787   4.298 -0.1413  0.1739  0.3602
  113MOL0     O15168   5.296   0.573   4.223 -0.3488  0.0378 -0.0079
  113MOL0     C15169   5.616   0.634   4.356 -0.1079 -0.2653 -0.9866
  113MOL0     C15170   5.754   0.613   4.345 -0.4511 -0.2226 -0.3957
  113MOL0     N15171   6.477   0.463   4.216 -0.2959 -0.3954 -0.1946
  113MOL0     N15172   6.575   0.539   4.187 -0.6788  0.0796 -0.1982
  113MOL0     C15173   7.742   0.121   4.163 -0.3149 -1.0025  0.5082
  113MOL0     C15174   7.867   0.078   4.195 -0.2368 -0.4628  0.1329
  113MOL0     C15175   8.341   0.100   4.237  0.2817  0.2918 -0.3158
  113MOL0     C15176   8.360   0.077   4.368 -0.1148 -0.4282 -0.6111
  113MOL0     C15177   8.485   0.026   4.420  0.7795  0.1015 -0.2069
  113MOL0     C15178   8.589  -0.009   4.337 -0.3726  0.1999  0.4203
  113MOL0     O15179   8.716  -0.068   4.365  0.2009  0.0959  0.0628
  113MOL0     C15180   8.749  -0.081   4.506  0.1248 -0.5760  0.4238
  113MOL0     C15181   8.885  -0.167   4.526  0.1568  0.4660  0.0306
  113MOL0     C15182   8.916  -0.200   4.671  0.7108  0.1115  0.2242
  113MOL0     C15183   8.922  -0.083   4.771  0.2397 -0.0175  0.1923
  113MOL0     C15184   9.032   0.006   4.732  0.9101  0.2773 -0.3355
  113MOL0     C15185   9.137   0.059   4.710 -0.0359  1.2781 -0.3947
  113MOL0     C15186   8.568   0.010   4.200 -0.2784  0.6950 -0.5054
  113MOL0     C15187   8.440   0.051   4.153  0.6505  0.0154  0.8416
  113MOL0     H15188   8.015   0.378   4.229 -0.8361  1.7867 -2.0499
  113MOL0     H15189   7.786   0.454   4.171  2.7041  0.8962 -3.9621
  113MOL0     H15190   7.499   0.131   4.048 -2.4313  1.6610 -1.7670
  113MOL0     H15191   7.480   0.152   4.220  1.6881  1.3778  0.9016
  113MOL0     H15192   7.356   0.357   4.039  0.0626 -0.8932 -2.1535
  113MOL0     H15193   7.289   0.201   4.035  1.3368 -0.9780  1.6644
  113MOL0     H15194   7.224   0.231   4.283 -1.1561 -0.9435 -0.9451
  113MOL0     H15195   7.335   0.358   4.289 -2.3755  0.0555  0.6249
  113MOL0     H15196   7.127   0.468   4.264  0.7959 -0.6445  1.6124
  113MOL0     H15197   7.154   0.460   4.095 -2.7464 -0.6673  0.4779
  113MOL0     H15198   7.020   0.231   4.109  2.7668  0.8875 -0.6899
  113MOL0     H15199   6.993   0.284   4.285 -0.1216  2.6665  0.6661
  113MOL0     H15200   6.790   0.323   4.177 -1.1711  1.7030  1.7678
  113MOL0     H15201   6.881   0.469   4.213  0.6406 -0.5377  1.5370
  113MOL0     H15202   6.960   0.487   3.980  0.1134 -1.5556 -1.5968
  113MOL0     H15203   6.847   0.360   3.922 -3.5736  0.7594  0.0680
  113MOL0     H15204   6.733   0.551   3.885  1.2085 -0.7483 -0.8238
  113MOL0     H15205   6.796   0.638   4.024  1.0158  0.2311 -2.6393
  113MOL0     H15206   6.551   0.343   3.925 -1.9315 -3.5686  1.6808
  113MOL0     H15207   6.364   0.199   4.038 -2.3740 -0.1996 -1.2471
  113MOL0     H15208   6.341   0.237   4.212  2.6928 -0.9226 -1.7701
  113MOL0     H15209   6.149   0.247   4.036  1.5681 -2.0787  2.2857
  113MOL0     H15210   6.216   0.401   3.978  2.0965  1.1615  1.5688
  113MOL0     H15211   6.198   0.510   4.175 -1.5063  2.1652 -2.2717
  113MOL0     H15212   6.134   0.365   4.270  1.3343  1.0901  0.4850
  113MOL0     H15213   5.934   0.370   4.116  0.4268 -1.1367  1.4452
  113MOL0     H15214   6.011   0.497   4.027  3.2432  0.1702  0.6102
  113MOL0     H15215   5.747   0.477   4.025 -1.2605  1.4728 -1.6965
  113MOL0     H15216   5.565   0.509   3.936 -0.5921  1.7370 -1.7882
  113MOL0     H15217   5.430   0.445   4.038  0.6830 -0.0716 -0.0017
  113MOL0     H15218   5.433   0.616   3.981  1.4850  0.7894 -0.8832
  113MOL0     H15219   5.260   0.761   4.616 -0.8893 -0.4762  1.1516
  113MOL0     H15220   5.061   0.849   4.674  0.6929 -2.0696 -1.0272
  113MOL0     H15221   4.705   0.955   4.650  0.2992  3.6091 -2.7679
  113MOL0     H15222   4.848   0.858   4.714  1.4439 -2.5524 -2.6139
  113MOL0     H15223   4.853   1.093   4.783 -2.0322  1.8023  0.0470
  113MOL0     H15224   4.983   1.067   4.669  0.3083  1.0768 -0.4405
  113MOL0     H15225   4.724   1.188   4.585  0.5496 -1.7850 -0.9925
  113MOL0     H15226   4.872   1.174   4.475  1.6617  2.7572 -0.0896
  113MOL0     H15227   4.857   1.333   4.720 -1.8597  1.7951 -1.0800
  113MOL0     H15228   5.012   1.291   4.635 -0.3013  0.3876  3.0917
  113MOL0     H15229   4.914   1.517   4.572  1.8157 -1.2881 -0.0056
  113MOL0     H15230   4.762   1.447   4.534  0.3453 -2.8252  1.0355
  113MOL0     H15231   4.864   1.325   4.338  0.5365 -1.7871  4.0169
  113MOL0     H15232   4.900   1.502   4.322 -0.6785  0.0645 -1.0478
  113MOL0     H15233   5.110   1.339   4.449 -2.5242 -0.4969  1.2372
  113MOL0     H15234   5.132   1.468   4.327 -0.0248  0.6549 -1.0632
  113MOL0     H15235   5.053   1.179   4.282  1.8185 -0.8805 -0.5373
  113MOL0     H15236   5.209   1.239   4.244  0.6978 -0.4418  2.6151
  113MOL0     H15237   4.916   0.829   4.267 -2.1087 -3.2886  0.6950
  113MOL0     H15238   5.141   0.770   4.192 -0.0283  2.7427 -0.0978
  113MOL0     H15239   5.572   0.645   4.455 -1.4083 -2.7972 -1.2269
  113MOL0     H15240   5.831   0.621   4.420  0.1507 -3.5960 -0.5104
  113MOL0     H15241   7.672   0.040   4.145 -1.6448  0.6109 -2.3963
  113MOL0     H15242   7.899  -0.026   4.195  2.3246  0.2371 -0.7479
  113MOL0     H15243   8.277   0.097   4.434  0.1350 -2.4262  0.3751
  113MOL0     H15244   8.500   0.010   4.527 -1.1262 -0.2397  0.0430
  113MOL0     H15245   8.768   0.012   4.560  0.5226 -1.0680  1.1533
  113MOL0     H15246   8.671  -0.131   4.564  0.7805 -1.9903  0.1266
  113MOL0     H15247   8.974  -0.110   4.499 -0.2766  0.7110 -0.9487
  113MOL0     H15248   8.875  -0.260   4.470 -0.6375  1.0481 -0.8212
  113MOL0     H15249   9.011  -0.253   4.683  0.3098 -0.5105  0.7156
  113MOL0     H15250   8.834  -0.265   4.704 -0.2491  1.1622 -0.0431
  113MOL0     H15251   8.943  -0.117   4.872 -0.0552  2.1868  1.0463
  113MOL0     H15252   8.826  -0.033   4.788  0.3726  1.2475 -2.2607
  113MOL0     H15253   9.234   0.093   4.678  0.3958  0.4525 -0.0017
  113MOL0     H15254   8.646  -0.007   4.126  0.5133  0.2276  0.4193
  113MOL0     H15255   8.430   0.059   4.045  1.4543 -0.8192  0.6878
  114MOL0     O15256   6.096   7.672   3.768 -0.7700  0.8549  0.2980
  114MOL0     C15257   6.006   7.688   3.848  0.9326  0.3877  0.5987
  114MOL0     O15258   5.926   7.584   3.911 -0.2389 -1.0241  0.1365
  114MOL0     C15259   5.940   7.450   3.897 -1.3937 -0.2227  0.1404
  114MOL0     C15260   6.057   7.392   3.840  0.2674  0.8480 -0.2705
  114MOL0     C15261   6.059   7.254   3.821 -0.0924 -0.3303 -0.2573
  114MOL0     C15262   5.959   7.175   3.875  0.1008  0.4858 -0.4909
  114MOL0     O15263   5.964   7.031   3.864  0.0139  0.6120  0.6835
  114MOL0     C15264   6.088   6.978   3.916  0.2184  0.9063  0.3781
  114MOL0     C15265   6.055   6.870   4.013 -0.3528  1.3920 -0.5404
  114MOL0     C15266   6.179   6.796   4.076 -0.4191 -0.3958  0.4765
  114MOL0     C15267   6.145   6.668   4.142  1.1646 -0.1125 -0.4449
  114MOL0     C15268   6.267   6.612   4.221  1.0663  0.2211 -0.2422
  114MOL0     C15269   6.250   6.458   4.250  0.0653  0.1294 -0.4813
  114MOL0     C15270   6.361   6.412   4.348  1.5185 -0.3915  0.4360
  114MOL0     C15271   6.506   6.429   4.297 -0.1314  0.4631  0.2373
  114MOL0     N15272   6.593   6.397   4.401 -0.2900  0.1879 -0.3797
  114MOL0     C15273   6.640   6.496   4.491 -0.3457  0.4324 -0.7235
  114MOL0     C15274   6.751   6.444   4.546 -0.1942  0.0661 -0.1377
  114MOL0     C15275   6.846   6.504   4.645 -0.9408  0.3492 -0.2736
  114MOL0     C15276   6.979   6.437   4.659  0.7431  0.5762  0.8184
  114MOL0     C15277   7.091   6.484   4.555 -0.1151  0.6568 -0.5215
  114MOL0     C15278   7.190   6.375   4.534 -0.8388 -0.3256  0.0036
  114MOL0     O15279   7.259   6.346   4.659 -0.2534 -0.1014 -0.7987
  114MOL0     C15280   7.356   6.430   4.682  0.4349 -0.3653 -0.4490
  114MOL0     C15281   7.330   6.521   4.783  0.1933 -0.6643  0.2100
  114MOL0     C15282   7.436   6.615   4.818  0.1361  0.9527 -0.5836
  114MOL0     C15283   7.401   6.707   4.929 -0.3958 -0.3893 -0.5857
  114MOL0     C15284   7.555   6.622   4.743  0.7252 -0.4398 -0.6053
  114MOL0     C15285   7.671   6.720   4.760 -1.3290 -0.4617 -0.6136
  114MOL0     O15286   7.737   6.750   4.648 -0.1266  0.6998 -0.6455
  114MOL0     C15287   7.832   6.851   4.657 -0.5979  0.0718 -1.0995
  114MOL0     C15288   7.924   6.867   4.768  0.3465  0.3631  0.0210
  114MOL0     C15289   8.015   6.965   4.774  1.0041 -0.1038  0.7112
  114MOL0     C15290   8.014   7.054   4.668 -0.2616 -0.1384 -0.0032
  114MOL0     O15291   8.101   7.158   4.671  0.0780  0.1058 -0.8656
  114MOL0     C15292   8.229   7.122   4.627  0.2452 -1.2099  0.2251
  114MOL0     C15293   8.323   7.241   4.633  0.1684 -0.3145  0.5152
  114MOL0     C15294   8.416   7.246   4.762 -0.1591 -0.2953  0.5012
  114MOL0     C15295   8.551   7.189   4.719 -0.1252  1.1179 -0.3877
  114MOL0     C15296   8.644   7.193   4.843 -1.0844  0.3351 -0.1580
  114MOL0     C15297   8.692   7.338   4.872 -0.3585 -1.3047 -0.2900
  114MOL0     C15298   8.805   7.322   4.981  0.1589  0.3877  0.4838
  114MOL0     C15299   8.936   7.257   4.930 -0.0256  0.2493  0.4760
  114MOL0    Cl15300   8.989   7.340   4.776 -0.4415  0.4457  0.3646
  114MOL0     C15301   7.931   7.037   4.551  0.7658  0.4676 -0.5826
  114MOL0     C15302   7.844   6.930   4.541  0.3723  0.6472 -0.4408
  114MOL0     O15303   7.672   6.784   4.861  0.0325  0.1041  0.1915
  114MOL0     C15304   7.569   6.529   4.639 -0.5437  0.2597 -0.8280
  114MOL0     C15305   7.477   6.429   4.612 -0.6641  0.1199  0.1644
  114MOL0     N15306   6.755   6.310   4.503  0.9840  0.8146 -0.0953
  114MOL0     N15307   6.666   6.288   4.423 -0.3578 -0.2026  0.3723
  114MOL0     C15308   5.848   7.232   3.936 -0.3087  0.5594  0.2140
  114MOL0     C15309   5.844   7.371   3.953 -0.0707  0.0913 -0.2241
  114MOL0     C15310   5.977   7.833   3.883  0.4202  0.2859 -0.4002
  114MOL0     C15311   5.867   7.868   3.966  0.3128  0.9707 -0.1370
  114MOL0     C15312   5.819   8.002   3.975 -0.4456  0.4229  0.4202
  114MOL0     C15313   5.884   8.105   3.911  0.1259  0.7033  0.0153
  114MOL0     O15314   5.831   8.236   3.933 -0.0182 -0.1949  0.9510
  114MOL0     C15315   5.919   8.332   3.998  0.8942 -0.9566  1.0896
  114MOL0     C15316   5.877   8.350   4.145  0.1053 -0.0201 -1.0301
  114MOL0     C15317   5.727   8.391   4.156  0.1927  0.6461  0.7471
  114MOL0     C15318   5.704   8.537   4.142  0.7971 -0.3347  0.3810
  114MOL0     C15319   5.570   8.575   4.162  0.5012 -0.1469 -0.5919
  114MOL0     C15320   5.451   8.600   4.188  0.5928  0.2878 -0.3012
  114MOL0     C15321   5.995   8.073   3.832  0.4720 -0.6780  0.6283
  114MOL0     C15322   6.034   7.943   3.817 -1.0606  0.5956  0.0222
  114MOL0     H15323   6.140   7.438   3.786 -1.7087  1.9816 -2.5069
  114MOL0     H15324   6.136   7.203   3.764 -0.0114  0.4907 -0.8986
  114MOL0     H15325   6.138   6.930   3.831  0.9703  2.3064 -0.0082
  114MOL0     H15326   6.163   7.049   3.951  2.1457  0.2518 -2.1659
  114MOL0     H15327   5.989   6.906   4.092  0.2118  0.7815  0.2252
  114MOL0     H15328   5.998   6.791   3.961 -1.9481  0.8665  1.8537
  114MOL0     H15329   6.249   6.780   3.994 -1.0944 -1.0318  0.0110
  114MOL0     H15330   6.227   6.863   4.148  1.4371 -1.1226 -0.0108
  114MOL0     H15331   6.059   6.676   4.209  0.5974  0.9977 -1.2772
  114MOL0     H15332   6.111   6.608   4.057 -1.7559 -0.1652  0.6364
  114MOL0     H15333   6.348   6.625   4.149  0.0064 -1.1630 -1.7550
  114MOL0     H15334   6.271   6.675   4.311 -3.8151  0.5605  0.0339
  114MOL0     H15335   6.155   6.417   4.288 -0.0837 -1.0392 -2.0094
  114MOL0     H15336   6.249   6.403   4.156 -1.4216  0.4486 -0.6826
  114MOL0     H15337   6.352   6.478   4.435  0.4127 -0.8612  0.6952
  114MOL0     H15338   6.333   6.308   4.367  0.1780  0.2303  2.1947
  114MOL0     H15339   6.523   6.527   4.251  2.6269  0.3862  0.8931
  114MOL0     H15340   6.509   6.351   4.220  2.8656 -0.0963  0.7919
  114MOL0     H15341   6.601   6.596   4.507  0.0106  0.2786  1.4277
  114MOL0     H15342   6.871   6.606   4.614 -0.5570 -0.1029 -1.5226
  114MOL0     H15343   6.790   6.497   4.738 -3.4166  3.4596 -1.3734
  114MOL0     H15344   6.966   6.328   4.659 -1.4608  0.7873  1.7424
  114MOL0     H15345   7.022   6.459   4.757 -0.4104  2.0583  1.0163
  114MOL0     H15346   7.140   6.577   4.584  1.4368 -0.2200 -0.1979
  114MOL0     H15347   7.037   6.504   4.462  0.1611  0.4848 -0.7201
  114MOL0     H15348   7.262   6.398   4.455 -0.9088 -0.1093  0.0011
  114MOL0     H15349   7.129   6.288   4.505  0.2711 -1.2333  0.3247
  114MOL0     H15350   7.245   6.517   4.850  0.4335  3.4121  1.0462
  114MOL0     H15351   7.298   6.686   4.960  0.6182 -2.0852  1.9665
  114MOL0     H15352   7.465   6.712   5.017 -0.3842  2.5101 -0.6737
  114MOL0     H15353   7.405   6.814   4.906 -0.2803 -0.0440  0.9192
  114MOL0     H15354   7.929   6.804   4.856  2.3967 -3.4383 -2.5028
  114MOL0     H15355   8.071   6.975   4.866  2.9395  0.5742 -0.4782
  114MOL0     H15356   8.271   7.039   4.684  0.6425 -2.3774 -1.7053
  114MOL0     H15357   8.224   7.079   4.527  0.0745 -0.2037 -0.2188
  114MOL0     H15358   8.386   7.242   4.545  0.8340  1.1788  0.9705
  114MOL0     H15359   8.253   7.325   4.631  1.6298  0.9284 -0.2628
  114MOL0     H15360   8.366   7.198   4.846 -0.3000  0.4396  0.8535
  114MOL0     H15361   8.428   7.350   4.795 -0.3670 -0.4007  0.9193
  114MOL0     H15362   8.532   7.085   4.692  0.7455  1.3041 -1.8150
  114MOL0     H15363   8.594   7.237   4.631  1.1429  0.0130 -0.3966
  114MOL0     H15364   8.734   7.134   4.822  0.3670  1.7483  1.7575
  114MOL0     H15365   8.589   7.145   4.924 -2.3845  0.3411 -1.0025
  114MOL0     H15366   8.736   7.396   4.790  3.0865  0.5950  2.6431
  114MOL0     H15367   8.607   7.400   4.899  2.1098  1.0955  2.5471
  114MOL0     H15368   8.769   7.264   5.066  1.8418  1.1782  1.7806
  114MOL0     H15369   8.831   7.423   5.013 -0.1998 -0.1527  2.6181
  114MOL0     H15370   8.921   7.149   4.920  2.3626 -0.1317  0.4657
  114MOL0     H15371   9.006   7.277   5.012  2.7149 -0.1479 -1.6280
  114MOL0     H15372   7.946   7.107   4.469 -1.5618  2.4307  0.5479
  114MOL0     H15373   7.786   6.901   4.454  0.1747  1.2150 -0.5039
  114MOL0     H15374   7.663   6.518   4.587 -0.4495  0.7258 -0.7642
  114MOL0     H15375   7.496   6.367   4.526  1.2607  0.0585  0.5944
  114MOL0     H15376   5.776   7.155   3.960 -0.2949 -0.3244 -2.2846
  114MOL0     H15377   5.763   7.429   3.995  2.3629  2.9439  0.8907
  114MOL0     H15378   5.813   7.793   4.023  0.1742 -0.2255 -1.7687
  114MOL0     H15379   5.727   8.028   4.026 -0.7583  1.0588 -0.4665
  114MOL0     H15380   6.026   8.310   3.992  0.3968 -3.1506 -1.8127
  114MOL0     H15381   5.921   8.426   3.943  1.3868 -1.2422  0.6075
  114MOL0     H15382   5.933   8.423   4.204 -1.0790  1.5304 -1.7521
  114MOL0     H15383   5.896   8.257   4.199 -1.3032 -0.1394 -0.6814
  114MOL0     H15384   5.699   8.371   4.260  0.4176 -2.8270  0.2664
  114MOL0     H15385   5.663   8.333   4.090  0.5470  2.2425 -1.0645
  114MOL0     H15386   5.728   8.581   4.045 -1.1941 -0.8410 -0.3881
  114MOL0     H15387   5.757   8.583   4.226 -2.7711  0.6649  2.2444
  114MOL0     H15388   5.356   8.628   4.228  1.0858  0.8492  0.4972
  114MOL0     H15389   6.045   8.155   3.782  0.7093 -0.8778  0.5384
  114MOL0     H15390   6.117   7.927   3.749 -1.1106 -2.2884  0.4875
  115MOL0     O15391   9.945   5.927   4.647 -0.0550 -0.6959 -0.2094
  115MOL0     C15392  10.011   5.935   4.543  0.6272  0.3117 -0.6681
  115MOL0     O15393   9.964   5.923   4.415  0.1045  0.1470 -0.3108
  115MOL0     C15394   9.834   5.975   4.394 -0.5555  0.5195  0.2496
  115MOL0     C15395   9.769   5.933   4.280  0.0321 -0.6975 -0.1232
  115MOL0     C15396   9.645   5.986   4.249 -0.4515 -0.0213 -0.0303
  115MOL0     C15397   9.585   6.088   4.320 -0.3736 -0.0621  0.2938
  115MOL0     O15398   9.461   6.137   4.289 -0.5640  0.2806  0.6915
  115MOL0     C15399   9.354   6.103   4.378  0.1018 -0.1389  0.5256
  115MOL0     C15400   9.227   6.120   4.308  1.1849  0.3791 -0.4095
  115MOL0     C15401   9.105   6.087   4.399 -0.0671  0.4762  0.3641
  115MOL0     C15402   8.969   6.105   4.321 -0.0070 -0.8662 -0.0454
  115MOL0     C15403   8.848   6.032   4.380  0.8974 -0.3586 -0.0443
  115MOL0     C15404   8.720   6.051   4.301  0.5929 -0.6054  0.1489
  115MOL0     C15405   8.615   5.953   4.355 -0.2904  0.0306 -0.4968
  115MOL0     C15406   8.630   5.820   4.282 -0.7107  0.3522  0.4799
  115MOL0     N15407   8.513   5.735   4.289 -0.4101  0.8477 -0.6723
  115MOL0     C15408   8.404   5.733   4.197 -0.2456  0.1292 -0.1141
  115MOL0     C15409   8.314   5.640   4.263  0.4970  0.4043 -0.6055
  115MOL0     C15410   8.177   5.588   4.214  0.0291 -0.6640 -0.3379
  115MOL0     C15411   8.159   5.614   4.064  0.9571 -0.1381  0.2390
  115MOL0     C15412   8.043   5.539   4.002  0.2568  0.8825 -0.2421
  115MOL0     C15413   8.057   5.546   3.851  0.0352 -0.3452  0.1762
  115MOL0     O15414   8.062   5.684   3.818  0.0434  0.3295 -0.7366
  115MOL0     C15415   8.102   5.703   3.690 -0.6522  0.1895  0.7071
  115MOL0     C15416   8.017   5.752   3.589  0.1491 -0.4473  0.5970
  115MOL0     C15417   8.064   5.759   3.455  0.0232 -1.2379  0.4676
  115MOL0     C15418   7.964   5.801   3.346  0.7791 -0.5472  0.2552
  115MOL0     C15419   8.200   5.724   3.420 -0.4842  0.0064 -0.9690
  115MOL0     C15420   8.266   5.767   3.294 -0.3135 -0.0504  0.0710
  115MOL0     O15421   8.394   5.716   3.281  0.7388  0.2564  0.1562
  115MOL0     C15422   8.477   5.777   3.190 -0.1920  0.0645 -0.2357
  115MOL0     C15423   8.535   5.707   3.082  0.7907  0.0531  0.2992
  115MOL0     C15424   8.629   5.761   3.001 -0.2780 -0.8165  1.1347
  115MOL0     C15425   8.689   5.884   3.028  0.1526  1.1365 -0.6480
  115MOL0     O15426   8.795   5.924   2.953  0.7681 -0.6390  1.0291
  115MOL0     C15427   8.826   6.052   2.966 -0.3666 -0.6005 -0.1612
  115MOL0     C15428   8.941   6.092   2.870 -0.6604  0.6697 -0.1536
  115MOL0     C15429   8.987   6.236   2.908  0.2073 -0.7508 -0.1017
  115MOL0     C15430   9.072   6.303   2.805 -0.3587  0.8215  0.1265
  115MOL0     C15431   9.149   6.424   2.863 -0.1516  0.1608  0.8645
  115MOL0     C15432   9.212   6.513   2.752 -0.0226 -0.6614 -0.0443
  115MOL0     C15433   9.287   6.440   2.653  0.3764  0.2632 -0.1509
  115MOL0     C15434   9.365   6.534   2.565 -0.1536 -0.6407 -0.0066
  115MOL0    Cl15435   9.461   6.460   2.444 -0.4294  0.1026 -0.0324
  115MOL0     C15436   8.629   5.959   3.134 -0.5980  0.0671  0.5860
  115MOL0     C15437   8.524   5.908   3.202  0.0561 -0.0445 -0.0320
  115MOL0     O15438   8.213   5.853   3.223 -0.5506  0.0360  0.2243
  115MOL0     C15439   8.280   5.675   3.529  0.2628 -0.3957 -0.5343
  115MOL0     C15440   8.234   5.661   3.657 -0.1973 -0.1436 -0.1139
  115MOL0     N15441   8.370   5.599   4.380  0.0941  0.7237  0.1482
  115MOL0     N15442   8.486   5.650   4.398 -0.4307  0.7164 -0.1524
  115MOL0     C15443   9.655   6.136   4.438  0.3454 -1.0137  0.1822
  115MOL0     C15444   9.777   6.077   4.477 -0.8374  0.3722  0.3526
  115MOL0     C15445  10.161   5.953   4.551  0.0396 -1.0022  0.3699
  115MOL0     C15446  10.234   5.903   4.663  0.5187  0.3203 -0.9237
  115MOL0     C15447  10.370   5.914   4.671 -0.0078 -0.2963 -0.2616
  115MOL0     C15448  10.434   5.990   4.565 -0.6297  0.3867 -0.4128
  115MOL0     O15449  10.569   5.992   4.582 -0.4902 -0.3358  0.2697
  115MOL0     C15450  10.648   6.081   4.508 -0.3326 -0.6838  0.5185
  115MOL0     C15451  10.792   6.086   4.571 -0.1960 -0.9268 -0.2042
  115MOL0     C15452  10.797   6.185   4.689  0.6955  0.4682  0.6153
  115MOL0     C15453  10.712   6.132   4.802 -0.3093 -0.8835  0.1442
  115MOL0     C15454  10.710   6.218   4.916  0.1303 -0.3968  0.0192
  115MOL0     C15455  10.695   6.314   4.997  0.0523  0.4223  0.1021
  115MOL0     C15456  10.355   6.064   4.469  0.3718  0.7868  0.2966
  115MOL0     C15457  10.220   6.038   4.457 -0.1201  0.2556 -0.5151
  115MOL0     H15458   9.820   5.861   4.216  1.4559  1.8262 -2.0140
  115MOL0     H15459   9.587   5.938   4.171  1.0043  1.1253 -1.9244
  115MOL0     H15460   9.366   6.001   4.415 -0.6147  0.5000  2.6715
  115MOL0     H15461   9.355   6.172   4.464 -3.2069 -1.3678  1.6798
  115MOL0     H15462   9.215   6.223   4.273 -0.8468  0.4442  0.3504
  115MOL0     H15463   9.222   6.053   4.222  0.3112  0.4326 -0.4029
  115MOL0     H15464   9.115   5.983   4.432  0.5950  0.1809 -0.7273
  115MOL0     H15465   9.111   6.155   4.484 -2.1665 -2.6517  3.2900
  115MOL0     H15466   8.947   6.212   4.311 -1.5676 -1.0533  0.9462
  115MOL0     H15467   8.974   6.071   4.217  0.6392  0.4828 -0.4798
  115MOL0     H15468   8.872   5.925   4.387 -0.2480 -0.5549  1.3984
  115MOL0     H15469   8.825   6.071   4.479 -0.2579  0.4562 -0.6172
  115MOL0     H15470   8.689   6.155   4.317  0.2106 -0.5870 -0.6185
  115MOL0     H15471   8.736   6.042   4.193  1.1973  3.0523 -0.2039
  115MOL0     H15472   8.623   5.933   4.462 -0.3252 -0.6908 -0.6266
  115MOL0     H15473   8.514   5.992   4.337 -0.2175  0.0370 -0.9125
  115MOL0     H15474   8.715   5.762   4.320 -0.3512 -0.8895 -1.9923
  115MOL0     H15475   8.645   5.838   4.175 -0.5391 -3.3986 -0.2839
  115MOL0     H15476   8.388   5.784   4.102  0.9872  1.0481  0.1440
  115MOL0     H15477   8.163   5.486   4.251  0.7562 -0.4578  0.5677
  115MOL0     H15478   8.100   5.648   4.264 -1.2179 -0.6337 -2.2251
  115MOL0     H15479   8.256   5.580   4.024  3.1532  0.2886  4.6036
  115MOL0     H15480   8.138   5.720   4.048 -1.4895 -0.4408  1.1267
  115MOL0     H15481   7.956   5.597   4.035  0.1080  0.1892  0.6302
  115MOL0     H15482   8.039   5.436   4.039 -0.8676  1.8836  2.6931
  115MOL0     H15483   7.966   5.500   3.812 -0.1518  1.0372 -1.0786
  115MOL0     H15484   8.146   5.495   3.813 -1.6327 -3.2932 -0.0799
  115MOL0     H15485   7.917   5.786   3.615 -0.1777 -1.4542  0.7143
  115MOL0     H15486   7.973   5.905   3.314  1.8119 -0.7887 -0.2994
  115MOL0     H15487   7.978   5.732   3.262  4.1887 -3.0015  2.5503
  115MOL0     H15488   7.861   5.791   3.381  0.3777  0.1644 -0.6756
  115MOL0     H15489   8.507   5.604   3.061  0.4390 -0.3187  2.3796
  115MOL0     H15490   8.666   5.693   2.925  0.2395  0.0417  0.6010
  115MOL0     H15491   8.749   6.129   2.954  2.9692  2.9290 -1.0900
  115MOL0     H15492   8.872   6.052   3.065  1.6695  0.0078 -1.0507
  115MOL0     H15493   9.016   6.013   2.868 -1.1824  0.1724 -1.1425
  115MOL0     H15494   8.890   6.104   2.773 -1.0427  3.1286  0.2788
  115MOL0     H15495   9.035   6.239   3.006  1.3897 -2.7757 -0.5743
  115MOL0     H15496   8.894   6.291   2.929  1.0054 -0.9718  5.4461
  115MOL0     H15497   9.145   6.230   2.770 -1.6378 -0.8041  0.6861
  115MOL0     H15498   9.017   6.337   2.717 -0.9120  0.1838  0.2142
  115MOL0     H15499   9.230   6.386   2.926  1.2948  1.3331 -0.2157
  115MOL0     H15500   9.074   6.489   2.909  0.6509  2.9755 -1.4797
  115MOL0     H15501   9.119   6.551   2.708  0.1807  1.2877  1.1082
  115MOL0     H15502   9.271   6.594   2.795 -2.9486  0.4674  2.1559
  115MOL0     H15503   9.235   6.374   2.583  1.9780  0.3084 -1.4447
  115MOL0     H15504   9.364   6.376   2.697  0.1802 -1.8640 -2.6385
  115MOL0     H15505   9.432   6.591   2.631 -0.5830 -0.1424  0.0036
  115MOL0     H15506   9.293   6.606   2.526  0.2886  0.1145  0.5340
  115MOL0     H15507   8.653   6.061   3.163 -2.6323  1.0618 -0.9479
  115MOL0     H15508   8.472   5.976   3.269  0.9648  2.1957 -1.4661
  115MOL0     H15509   8.384   5.651   3.511  1.3204  3.2531 -0.0557
  115MOL0     H15510   8.303   5.625   3.732 -2.7236 -1.2025  1.8704
  115MOL0     H15511   9.602   6.208   4.499 -2.2471 -2.7285  0.1110
  115MOL0     H15512   9.825   6.114   4.567 -1.9920 -2.5527  2.3234
  115MOL0     H15513  10.180   5.858   4.746  3.2273 -1.8511 -0.1906
  115MOL0     H15514  10.427   5.888   4.760 -1.5319  1.5610  1.3345
  115MOL0     H15515  10.653   6.038   4.408 -0.1571 -2.1143  1.1279
  115MOL0     H15516  10.603   6.181   4.502 -0.6262 -0.6163  2.7973
  115MOL0     H15517  10.866   6.117   4.496  0.1841 -2.2786 -0.4018
  115MOL0     H15518  10.818   5.990   4.614 -1.5241 -0.4454  1.8395
  115MOL0     H15519  10.763   6.282   4.651  0.4999 -0.6834 -2.4005
  115MOL0     H15520  10.898   6.188   4.730  2.8217  0.7927 -4.0524
  115MOL0     H15521  10.745   6.034   4.839  1.8786 -0.4329 -0.4444
  115MOL0     H15522  10.607   6.126   4.774  0.3619 -0.5359 -2.7923
  115MOL0     H15523  10.675   6.397   5.061 -3.8940  0.3058 -0.6941
  115MOL0     H15524  10.396   6.132   4.395 -0.9447 -1.7358 -3.0109
  115MOL0     H15525  10.171   6.101   4.383  3.3418  1.7732 -1.7276
  116MOL0     O15526   8.921   9.030   2.555  0.6124  0.1243 -0.5700
  116MOL0     C15527   9.023   9.077   2.511 -0.2588 -0.4975  0.0640
  116MOL0     O15528   9.040   9.124   2.386 -0.4277  0.2399  0.0122
  116MOL0     C15529   8.950   9.122   2.288 -0.0313  0.7985 -0.3255
  116MOL0     C15530   8.818   9.119   2.307  0.3639  0.0667 -0.8036
  116MOL0     C15531   8.720   9.123   2.208 -0.2262  0.1665  0.3868
  116MOL0     C15532   8.761   9.121   2.078  0.8970 -0.4505  0.1531
  116MOL0     O15533   8.672   9.129   1.975 -0.0463  0.4274 -0.1493
  116MOL0     C15534   8.552   9.059   1.978  0.4385  0.8775 -0.3275
  116MOL0     C15535   8.507   9.040   1.837  0.7639 -0.0154  0.7084
  116MOL0     C15536   8.363   8.973   1.834 -0.1932  0.3889  0.2956
  116MOL0     C15537   8.286   9.013   1.710  0.1783  0.5898  0.8293
  116MOL0     C15538   8.177   8.914   1.656  1.4892 -0.5896 -1.0910
  116MOL0     C15539   8.035   8.945   1.701 -0.4653  0.1136  0.3722
  116MOL0     C15540   7.937   8.847   1.648  0.6014 -0.6259  0.4551
  116MOL0     C15541   7.797   8.855   1.718 -0.4744  0.4405 -0.4891
  116MOL0     N15542   7.691   8.772   1.670  0.6346  0.0266  0.0022
  116MOL0     C15543   7.559   8.800   1.669 -0.2665  0.9979 -0.0558
  116MOL0     C15544   7.503   8.697   1.615 -0.9362 -0.0109 -0.0039
  116MOL0     C15545   7.358   8.668   1.599 -0.3870 -0.1485 -0.2417
  116MOL0     C15546   7.292   8.664   1.735 -0.2141  0.8323  1.5634
  116MOL0     C15547   7.134   8.664   1.715  0.7402 -0.2123 -1.1913
  116MOL0     C15548   7.049   8.629   1.840 -0.4879 -0.4080  0.6335
  116MOL0     O15549   7.103   8.705   1.953 -0.0852  0.2072  0.6001
  116MOL0     C15550   7.044   8.708   2.076 -0.7643  1.0395 -0.4128
  116MOL0     C15551   6.902   8.696   2.097  0.1582  0.4556 -0.4764
  116MOL0     C15552   6.843   8.696   2.223 -0.1028 -0.2098  0.6137
  116MOL0     C15553   6.685   8.699   2.221 -0.7340 -0.0258 -0.2823
  116MOL0     C15554   6.931   8.705   2.339  0.0875 -0.5959  0.6242
  116MOL0     C15555   6.873   8.716   2.469 -0.3197 -0.1558 -0.8529
  116MOL0     O15556   6.948   8.780   2.553 -0.1801 -0.3962 -0.9341
  116MOL0     C15557   6.908   8.807   2.679  0.3941 -0.0621  0.3634
  116MOL0     C15558   6.814   8.904   2.696 -0.2164 -0.1777  0.6142
  116MOL0     C15559   6.772   8.939   2.825 -0.9842 -0.2925  0.1013
  116MOL0     C15560   6.837   8.879   2.944 -0.2055  0.4867 -0.0146
  116MOL0     O15561   6.798   8.909   3.075  0.0617  0.5955 -0.1412
  116MOL0     C15562   6.711   9.021   3.091 -0.5766  1.0472 -0.1170
  116MOL0     C15563   6.682   9.052   3.235 -0.0118  0.4467  0.0720
  116MOL0     C15564   6.804   9.092   3.315  0.7495 -0.3306 -0.7943
  116MOL0     C15565   6.778   9.065   3.464  0.1989 -0.1868  0.4188
  116MOL0     C15566   6.874   9.149   3.553  0.1223 -0.1738 -0.6724
  116MOL0     C15567   7.023   9.094   3.546 -0.4635 -0.2038  0.7223
  116MOL0     C15568   7.119   9.157   3.643 -0.0025  0.1475  0.6968
  116MOL0     C15569   7.263   9.109   3.642 -0.4844 -0.5030 -0.0970
  116MOL0    Cl15570   7.327   9.102   3.471  0.4551  0.1276 -0.1414
  116MOL0     C15571   6.934   8.782   2.922 -0.1769 -0.1229 -0.7000
  116MOL0     C15572   6.970   8.746   2.792 -0.0305  0.1031 -0.5088
  116MOL0     O15573   6.757   8.672   2.492 -0.1504  0.7188 -0.5362
  116MOL0     C15574   7.071   8.710   2.317 -0.3509 -0.2993  0.4750
  116MOL0     C15575   7.121   8.714   2.192  0.4626 -0.4526  1.1168
  116MOL0     N15576   7.603   8.603   1.588 -0.3738  0.0629 -0.3046
  116MOL0     N15577   7.716   8.654   1.619  0.4569 -0.2835 -0.0644
  116MOL0     C15578   8.890   9.127   2.056 -0.0772  0.5738 -0.0048
  116MOL0     C15579   8.995   9.135   2.154  0.4856  0.5511  0.7143
  116MOL0     C15580   9.139   9.087   2.601 -0.5604  0.8554 -0.0828
  116MOL0     C15581   9.133   9.050   2.735  0.4437  0.5642 -0.2072
  116MOL0     C15582   9.240   9.064   2.827 -0.7041 -1.0067 -0.4274
  116MOL0     C15583   9.361   9.117   2.792 -0.1205  0.1095 -0.3166
  116MOL0     O15584   9.468   9.128   2.882  0.3922 -0.2875 -0.2872
  116MOL0     C15585   9.597   9.164   2.839  0.2790  0.7840  0.8271
  116MOL0     C15586   9.681   9.203   2.961 -0.2815  0.5755 -0.3677
  116MOL0     C15587   9.722   9.075   3.045  0.9049 -1.2573 -0.7248
  116MOL0     C15588   9.786   8.961   2.991 -0.5899  0.2228 -0.2705
  116MOL0     C15589   9.906   8.977   2.907 -0.2260  0.3781 -0.3184
  116MOL0     C15590   9.999   8.980   2.829 -0.2449 -0.5148 -0.2044
  116MOL0     C15591   9.371   9.164   2.656 -0.2813 -0.1608  0.2892
  116MOL0     C15592   9.264   9.144   2.560 -0.5964 -0.1309  0.3875
  116MOL0     H15593   8.788   9.140   2.409  0.8755 -1.6332 -0.2759
  116MOL0     H15594   8.614   9.124   2.232 -0.4740  0.3605 -0.6566
  116MOL0     H15595   8.577   8.959   2.016 -1.8894  1.3946  3.0237
  116MOL0     H15596   8.472   9.102   2.040 -0.2051  1.0726 -1.2741
  116MOL0     H15597   8.501   9.136   1.785 -2.1133 -1.6276 -2.2356
  116MOL0     H15598   8.568   8.963   1.789  0.3647 -0.3886  0.7945
  116MOL0     H15599   8.384   8.865   1.833  1.5618  0.5937 -3.7698
  116MOL0     H15600   8.304   9.012   1.917  0.2405 -0.9025  1.2496
  116MOL0     H15601   8.242   9.111   1.730 -0.2456 -0.0727  3.6167
  116MOL0     H15602   8.354   9.015   1.624 -0.0863  0.3130  0.6106
  116MOL0     H15603   8.183   8.922   1.547 -2.5950 -0.2099 -1.4192
  116MOL0     H15604   8.198   8.812   1.688  0.8434 -0.3766  0.0447
  116MOL0     H15605   8.043   8.931   1.810  1.4092  1.5104  0.4531
  116MOL0     H15606   7.998   9.045   1.679  1.7379  0.7627 -0.5955
  116MOL0     H15607   7.929   8.866   1.541  5.5598 -0.2405 -0.0795
  116MOL0     H15608   7.976   8.744   1.656 -0.2227 -1.0048 -0.3035
  116MOL0     H15609   7.765   8.959   1.711  1.7407  1.3290  1.4840
  116MOL0     H15610   7.819   8.822   1.819 -0.5518  0.3274 -0.5090
  116MOL0     H15611   7.501   8.889   1.692 -1.6347 -0.3738  2.1127
  116MOL0     H15612   7.312   8.748   1.542 -1.9807 -1.3423 -0.7111
  116MOL0     H15613   7.343   8.567   1.558 -0.7927  0.3922 -1.4448
  116MOL0     H15614   7.325   8.749   1.796 -0.9941  0.3008  2.7702
  116MOL0     H15615   7.324   8.575   1.790  1.1082  0.8275  0.8325
  116MOL0     H15616   7.112   8.589   1.639  1.5929 -1.7139 -0.0104
  116MOL0     H15617   7.112   8.769   1.690 -0.6428  0.0382  0.8015
  116MOL0     H15618   7.054   8.522   1.863 -1.8055 -0.9669 -1.4266
  116MOL0     H15619   6.948   8.663   1.814 -0.9712 -1.4865  1.0041
  116MOL0     H15620   6.839   8.676   2.011 -0.8875  1.8228 -0.0770
  116MOL0     H15621   6.626   8.749   2.298  1.0116 -0.1899  1.2401
  116MOL0     H15622   6.674   8.744   2.122 -0.1888  1.0168  0.1138
  116MOL0     H15623   6.655   8.594   2.219  2.7296 -1.1433  0.0644
  116MOL0     H15624   6.796   8.966   2.609  0.9187  1.4815  1.5045
  116MOL0     H15625   6.703   9.023   2.828 -0.5694  0.0323  1.3305
  116MOL0     H15626   6.760   9.108   3.045  0.5953  1.4539  1.8205
  116MOL0     H15627   6.616   8.996   3.043  0.1413 -0.0919 -0.9843
  116MOL0     H15628   6.604   9.127   3.247  1.3997  2.2768 -1.5998
  116MOL0     H15629   6.643   8.964   3.288 -2.3083  1.6545  0.4861
  116MOL0     H15630   6.840   9.193   3.297  0.5982  0.2033  1.5799
  116MOL0     H15631   6.887   9.029   3.281  0.4827 -1.1688  0.0693
  116MOL0     H15632   6.679   9.103   3.489 -1.0668 -2.2430 -1.1372
  116MOL0     H15633   6.771   8.958   3.486 -0.9062 -0.7330 -2.2168
  116MOL0     H15634   6.833   9.146   3.654 -1.0263  0.8552 -1.0807
  116MOL0     H15635   6.886   9.250   3.514 -2.9255 -0.7177 -3.4894
  116MOL0     H15636   7.014   8.988   3.568  1.0763 -0.3862  0.6202
  116MOL0     H15637   7.046   9.099   3.439 -1.1819 -1.1049  0.5190
  116MOL0     H15638   7.090   9.150   3.748 -1.3946  0.6094  0.3657
  116MOL0     H15639   7.120   9.266   3.631  0.9732  0.3071  2.0927
  116MOL0     H15640   7.275   9.017   3.700 -0.6204 -0.1617  0.4809
  116MOL0     H15641   7.323   9.185   3.693  0.1833 -2.2821  1.8906
  116MOL0     H15642   6.975   8.730   3.008 -3.2960 -4.2488 -1.3763
  116MOL0     H15643   7.058   8.683   2.781 -1.0180 -1.2617 -0.9279
  116MOL0     H15644   7.144   8.724   2.397 -0.2991  2.0186  0.0894
  116MOL0     H15645   7.226   8.739   2.186  0.3422 -0.1881 -0.1987
  116MOL0     H15646   8.919   9.109   1.953 -1.3693  1.2305 -0.4938
  116MOL0     H15647   9.102   9.138   2.134  0.3269  0.6468 -0.1228
  116MOL0     H15648   9.037   9.017   2.772  0.3861 -0.5669 -1.2736
  116MOL0     H15649   9.227   9.034   2.931 -1.8474  2.6024  0.6333
  116MOL0     H15650   9.639   9.089   2.771 -0.2806  0.0569  1.2833
  116MOL0     H15651   9.590   9.253   2.775  3.1270  0.0995 -0.6537
  116MOL0     H15652   9.624   9.277   3.019  1.7874  1.6232  0.4280
  116MOL0     H15653   9.773   9.252   2.929  1.0871 -1.0006  0.9961
  116MOL0     H15654   9.628   9.035   3.083  1.0307 -0.9755 -0.0970
  116MOL0     H15655   9.783   9.109   3.130  2.5619 -1.8560 -1.6242
  116MOL0     H15656   9.716   8.897   2.937  1.7972 -1.4980 -1.5276
  116MOL0     H15657   9.825   8.906   3.077  1.8575  0.3095 -1.2578
  116MOL0     H15658  10.074   8.988   2.752  1.0033  1.0448  1.1038
  116MOL0     H15659   9.463   9.206   2.619  0.9207 -3.3000 -0.5686
  116MOL0     H15660   9.280   9.187   2.461  1.9589 -0.4369  0.5881
  117MOL0     O15661   8.928   7.812   4.345 -0.1288  0.0921 -0.1713
  117MOL0     C15662   9.019   7.763   4.276 -0.0515  0.3978 -0.5753
  117MOL0     O15663   9.007   7.698   4.151 -0.5999  0.9509 -0.7103
  117MOL0     C15664   8.882   7.666   4.089 -0.8909  0.4490 -0.3872
  117MOL0     C15665   8.750   7.680   4.140  0.6880 -0.8932 -0.3013
  117MOL0     C15666   8.633   7.660   4.063  1.1337 -0.3265  0.0146
  117MOL0     C15667   8.640   7.608   3.936 -0.3546 -0.6419 -0.0122
  117MOL0     O15668   8.524   7.581   3.863 -0.6203 -0.0142 -0.3129
  117MOL0     C15669   8.424   7.505   3.934  0.3199 -0.8432 -0.5499
  117MOL0     C15670   8.299   7.524   3.861 -0.6058 -0.1618  0.2787
  117MOL0     C15671   8.227   7.658   3.901 -0.6359 -0.3392 -0.0415
  117MOL0     C15672   8.088   7.684   3.824 -0.1845 -0.0243  0.4570
  117MOL0     C15673   7.969   7.596   3.867  0.1483  0.2876  0.0644
  117MOL0     C15674   7.912   7.629   4.013 -0.0954 -0.7039 -0.5430
  117MOL0     C15675   7.860   7.776   4.021 -0.6228  0.0640 -0.3345
  117MOL0     C15676   7.740   7.778   4.113  0.2194  0.0758 -0.6157
  117MOL0     N15677   7.679   7.914   4.110 -0.2644  0.1108  0.1576
  117MOL0     C15678   7.549   7.949   4.074  0.1995  0.3145 -0.2929
  117MOL0     C15679   7.553   8.089   4.074  0.3716 -0.2351  0.1174
  117MOL0     C15680   7.437   8.177   4.032  0.0191 -0.0474 -1.0580
  117MOL0     C15681   7.367   8.245   4.149  0.4466 -0.7545 -0.4559
  117MOL0     C15682   7.264   8.356   4.110  0.0920 -0.7542  0.0833
  117MOL0     C15683   7.192   8.394   4.236  0.4970  0.1768  0.1094
  117MOL0     O15684   7.093   8.291   4.260  0.0851 -0.0870  0.6207
  117MOL0     C15685   6.980   8.306   4.323 -0.5216  0.7125  0.1367
  117MOL0     C15686   6.897   8.198   4.303 -0.1451  0.3549  0.4462
  117MOL0     C15687   6.769   8.195   4.365  0.2018 -0.2578  0.9238
  117MOL0     C15688   6.671   8.082   4.343 -0.8894  0.1319  1.0545
  117MOL0     C15689   6.745   8.292   4.474  0.1225  1.0636 -0.1910
  117MOL0     C15690   6.631   8.299   4.569 -0.3473  1.1454 -0.6260
  117MOL0     O15691   6.616   8.406   4.656  0.1091  0.0307 -0.2759
  117MOL0     C15692   6.505   8.418   4.738  0.7117  0.1813  1.0703
  117MOL0     C15693   6.437   8.310   4.792 -0.0091  0.0479  0.5184
  117MOL0     C15694   6.324   8.323   4.868  0.2959  0.3357  0.0644
  117MOL0     C15695   6.268   8.451   4.896 -0.9297  0.5384 -0.2245
  117MOL0     O15696   6.153   8.480   4.963  0.1596  0.4250  1.0997
  117MOL0     C15697   6.050   8.376   4.977  0.3571  0.5926  0.7014
  117MOL0     C15698   5.919   8.459   5.010  0.2882 -0.5361 -0.2961
  117MOL0     C15699   5.796   8.371   5.038  0.3743  0.3293  0.2966
  117MOL0     C15700   5.672   8.454   5.061 -0.0541 -0.3754  0.1091
  117MOL0     C15701   5.550   8.372   5.104  0.6975 -0.0441 -0.3784
  117MOL0     C15702   5.433   8.460   5.136 -0.6855  0.0093  0.3423
  117MOL0     C15703   5.300   8.392   5.152  0.5078 -1.3338 -0.1756
  117MOL0     C15704   5.243   8.301   5.043 -0.1979 -0.7824  0.4912
  117MOL0    Cl15705   5.106   8.201   5.105  0.2107 -0.0990  0.2702
  117MOL0     C15706   6.334   8.561   4.842 -0.6837  0.0495  0.0877
  117MOL0     C15707   6.453   8.544   4.766  0.2065  0.5226 -0.4472
  117MOL0     O15708   6.555   8.199   4.569 -0.0606 -0.5508 -0.2335
  117MOL0     C15709   6.832   8.403   4.487 -0.1213  0.5025 -0.2582
  117MOL0     C15710   6.949   8.409   4.408  0.2823  0.3930 -0.4670
  117MOL0     N15711   7.680   8.137   4.111  1.0015 -0.1705  0.3668
  117MOL0     N15712   7.753   8.025   4.143  0.0812  0.4891 -0.0613
  117MOL0     C15713   8.771   7.585   3.879  0.4947  0.8005 -0.1521
  117MOL0     C15714   8.887   7.613   3.960 -0.0128  0.0350 -0.3620
  117MOL0     C15715   9.151   7.794   4.313 -0.4970  0.3932  0.3848
  117MOL0     C15716   9.189   7.813   4.450  0.8090 -0.4165  0.7223
  117MOL0     C15717   9.313   7.848   4.489  0.4981 -0.0138 -0.6038
  117MOL0     C15718   9.411   7.857   4.390  0.2814 -0.9220  0.1517
  117MOL0     O15719   9.534   7.902   4.425 -0.4831  0.1274  0.1170
  117MOL0     C15720   9.617   7.792   4.470  0.3611  0.6534  0.3465
  117MOL0     C15721   9.695   7.732   4.357  0.4631 -0.0371 -0.5920
  117MOL0     C15722   9.795   7.633   4.411  0.2029 -0.2077  0.0203
  117MOL0     C15723   9.892   7.581   4.303 -0.7169 -0.0709 -0.1196
  117MOL0     C15724   9.958   7.697   4.239 -0.2880 -0.4173  0.1322
  117MOL0     C15725  10.001   7.791   4.178  0.0406 -0.2043 -0.6069
  117MOL0     C15726   9.375   7.864   4.256 -0.4702 -0.3879  0.2504
  117MOL0     C15727   9.250   7.823   4.212 -0.5357 -0.2930 -0.1509
  117MOL0     H15728   8.729   7.736   4.231 -2.0777 -0.2893 -1.2274
  117MOL0     H15729   8.541   7.697   4.108  1.4515 -1.3772  1.6304
  117MOL0     H15730   8.442   7.398   3.928 -2.7566 -1.4228 -0.8425
  117MOL0     H15731   8.412   7.530   4.040 -1.4746  0.3726 -0.9814
  117MOL0     H15732   8.317   7.500   3.756  0.9893 -2.8873  1.0492
  117MOL0     H15733   8.231   7.440   3.879 -0.5704 -0.0334  1.0631
  117MOL0     H15734   8.194   7.666   4.005 -4.7092 -0.5963 -1.1522
  117MOL0     H15735   8.296   7.739   3.877 -1.5884  0.1503 -1.2173
  117MOL0     H15736   8.065   7.788   3.850 -3.1860 -0.3482 -0.5858
  117MOL0     H15737   8.100   7.671   3.716 -2.2608 -1.4241  0.3580
  117MOL0     H15738   7.892   7.614   3.792 -1.0005  5.0954  1.9667
  117MOL0     H15739   7.994   7.491   3.880 -1.7331  0.0993  3.4389
  117MOL0     H15740   7.831   7.560   4.039 -1.9927  1.6300  0.1086
  117MOL0     H15741   7.988   7.614   4.090 -2.1065  0.8489  1.9219
  117MOL0     H15742   7.946   7.839   4.047  1.0533  0.2332 -5.1871
  117MOL0     H15743   7.824   7.812   3.924 -0.8771  1.9772  0.4299
  117MOL0     H15744   7.770   7.749   4.214  1.4501 -2.1662 -1.5582
  117MOL0     H15745   7.664   7.709   4.075  0.3884 -0.3147 -0.2452
  117MOL0     H15746   7.463   7.887   4.049 -1.0482  2.1489 -0.7571
  117MOL0     H15747   7.463   8.247   3.952 -0.8721 -0.2055 -1.5017
  117MOL0     H15748   7.357   8.126   3.977  1.5660 -1.7336 -1.8049
  117MOL0     H15749   7.443   8.300   4.205  0.2616  0.4741 -1.3598
  117MOL0     H15750   7.328   8.163   4.209 -0.2916  1.8772  2.9516
  117MOL0     H15751   7.190   8.324   4.037 -2.0353  1.4976  1.1393
  117MOL0     H15752   7.319   8.444   4.076  1.5949 -1.7553 -0.2073
  117MOL0     H15753   7.141   8.491   4.236  2.8343  1.5255 -2.6124
  117MOL0     H15754   7.272   8.383   4.310  0.9698 -2.4591 -0.6990
  117MOL0     H15755   6.937   8.134   4.225  1.2403  1.7527 -0.0333
  117MOL0     H15756   6.715   8.023   4.263  0.0727  2.2790 -0.0907
  117MOL0     H15757   6.655   8.032   4.439  4.3238 -0.5247  1.8299
  117MOL0     H15758   6.573   8.123   4.314 -0.6991 -1.2300 -1.8441
  117MOL0     H15759   6.477   8.211   4.771  1.8250  0.7376  0.6170
  117MOL0     H15760   6.287   8.239   4.926 -3.2008 -0.1901 -2.5826
  117MOL0     H15761   6.034   8.325   4.883  0.1419  0.8249  0.6123
  117MOL0     H15762   6.095   8.309   5.051  3.6691  1.5005 -0.3036
  117MOL0     H15763   5.946   8.512   5.102 -1.9643  2.4204 -1.1746
  117MOL0     H15764   5.896   8.527   4.928  0.3372 -1.5383 -1.1711
  117MOL0     H15765   5.814   8.305   5.123 -0.3491 -0.4033 -0.0989
  117MOL0     H15766   5.774   8.314   4.947 -4.1825  0.4777  1.0937
  117MOL0     H15767   5.689   8.528   5.140 -1.4803 -0.9283  0.9643
  117MOL0     H15768   5.656   8.503   4.964  0.6902  0.6428  0.4740
  117MOL0     H15769   5.575   8.311   5.191 -0.0334 -0.2295 -0.2962
  117MOL0     H15770   5.531   8.291   5.032 -0.8199 -0.6195  0.6283
  117MOL0     H15771   5.455   8.517   5.227 -2.1797 -1.5279  1.7357
  117MOL0     H15772   5.411   8.537   5.061 -1.1229  2.1800  2.5490
  117MOL0     H15773   5.220   8.466   5.163  3.1424  1.5406  1.0568
  117MOL0     H15774   5.309   8.339   5.247  0.3373  0.3796  0.8480
  117MOL0     H15775   5.323   8.234   5.010  0.9859 -0.5685  2.6875
  117MOL0     H15776   5.214   8.372   4.965 -0.0926  2.1789  2.9395
  117MOL0     H15777   6.306   8.662   4.868  0.9649  0.7722 -0.7689
  117MOL0     H15778   6.510   8.632   4.739  0.0152  1.3958  1.7789
  117MOL0     H15779   6.818   8.490   4.550 -0.1699  0.1883  0.1672
  117MOL0     H15780   7.028   8.477   4.440 -0.4944  0.3043  1.7972
  117MOL0     H15781   8.784   7.531   3.786  0.9210 -0.6362  0.6970
  117MOL0     H15782   8.986   7.609   3.915  0.9384 -1.7830  1.7182
  117MOL0     H15783   9.119   7.809   4.533  1.2252  0.4790  1.1297
  117MOL0     H15784   9.329   7.862   4.596  1.4592 -1.4256 -0.5309
  117MOL0     H15785   9.683   7.840   4.542 -0.2191 -0.1715  1.4545
  117MOL0     H15786   9.554   7.716   4.517 -1.9104  1.4331 -1.2368
  117MOL0     H15787   9.744   7.812   4.301 -0.6112  0.0651 -1.4132
  117MOL0     H15788   9.630   7.680   4.287  0.7826 -0.4818 -0.5632
  117MOL0     H15789   9.746   7.540   4.442  1.2999  0.6081  4.9775
  117MOL0     H15790   9.845   7.663   4.504  1.8858  1.2194 -1.2780
  117MOL0     H15791   9.849   7.518   4.224 -2.0003  0.5711  0.0428
  117MOL0     H15792   9.965   7.518   4.355 -0.2037  1.5972  1.2939
  117MOL0     H15793  10.045   7.868   4.119 -0.9858  0.2945 -0.7418
  117MOL0     H15794   9.444   7.885   4.175 -2.1698  1.1448 -0.8537
  117MOL0     H15795   9.222   7.825   4.107 -0.1985 -1.4651 -0.2819
  118MOL0     O15796   5.664   9.891   6.891 -0.1834 -0.1775  1.0513
  118MOL0     C15797   5.735   9.925   6.988 -0.0832 -0.6041  0.3987
  118MOL0     O15798   5.712   9.889   7.117 -0.8381  0.3184  0.1064
  118MOL0     C15799   5.594   9.821   7.142 -0.5869 -0.9472 -1.0528
  118MOL0     C15800   5.604   9.710   7.232  0.1284 -0.6489 -0.2566
  118MOL0     C15801   5.490   9.639   7.253 -0.2146  0.6479 -0.4402
  118MOL0     C15802   5.363   9.668   7.202 -0.7246  0.1414  0.4058
  118MOL0     O15803   5.260   9.584   7.218 -0.8535 -0.1610 -0.5378
  118MOL0     C15804   5.171   9.548   7.113 -0.6918  0.1135 -0.6025
  118MOL0     C15805   5.027   9.544   7.162  0.4654 -0.4229  1.0291
  118MOL0     C15806   4.954   9.684   7.147 -0.6312 -1.0072  0.5642
  118MOL0     C15807   4.917   9.720   6.999  0.7933  0.0299  0.6362
  118MOL0     C15808   4.830   9.838   6.982 -0.0115 -0.1236  0.3299
  118MOL0     C15809   4.693   9.815   7.051 -0.1593 -0.7921  0.3189
  118MOL0     C15810   4.602   9.923   7.012  0.1129 -0.5610  0.3080
  118MOL0     C15811   4.466   9.887   7.082  0.3191  0.4371 -0.9422
  118MOL0     N15812   4.353   9.982   7.052 -0.1593  0.3833 -0.1143
  118MOL0     C15813   4.327  10.106   7.114 -0.2657  0.7927  0.3312
  118MOL0     C15814   4.203  10.131   7.069 -0.0605  1.2738 -0.9606
  118MOL0     C15815   4.124  10.249   7.105 -0.0493  0.0040  0.7975
  118MOL0     C15816   3.997  10.252   7.018  0.0449 -0.8383  0.1126
  118MOL0     C15817   3.919  10.373   7.054  0.6558  0.0387 -0.8013
  118MOL0     C15818   3.826  10.351   7.175  0.4198 -1.2145 -0.0768
  118MOL0     O15819   3.762  10.471   7.194 -0.0657 -0.2158  0.5419
  118MOL0     C15820   3.688  10.485   7.306  0.1320  0.0253 -0.4225
  118MOL0     C15821   3.640  10.607   7.346  0.0031  0.0339 -0.1849
  118MOL0     C15822   3.574  10.627   7.472  0.8860 -0.4928 -0.1135
  118MOL0     C15823   3.544  10.780   7.507  0.2998 -0.1007  0.2166
  118MOL0     C15824   3.540  10.521   7.552  0.7990  0.5106  0.5590
  118MOL0     C15825   3.475  10.521   7.684 -0.2820  0.4199 -0.2083
  118MOL0     O15826   3.479  10.409   7.763 -0.5664  0.0054  0.5877
  118MOL0     C15827   3.447  10.431   7.899  0.6970  0.2262  0.6055
  118MOL0     C15828   3.386  10.320   7.967  0.2856 -0.4126  0.1725
  118MOL0     C15829   3.368  10.305   8.107 -0.3406 -0.5288  0.2026
  118MOL0     C15830   3.417  10.412   8.183  0.5824 -0.1360 -0.7685
  118MOL0     O15831   3.422  10.419   8.320  0.4206  0.2876 -0.7355
  118MOL0     C15832   3.298  10.388   8.381 -0.3979 -0.0938  0.0226
  118MOL0     C15833   3.330  10.378   8.531  0.0201  0.1581  0.4382
  118MOL0     C15834   3.376  10.233   8.548  0.0840 -0.1440  1.6336
  118MOL0     C15835   3.430  10.206   8.687  0.1336 -0.2877 -0.7706
  118MOL0     C15836   3.515  10.080   8.692 -0.6666  0.4434 -0.4632
  118MOL0     C15837   3.665  10.107   8.671 -0.0111 -0.1126  0.2896
  118MOL0     C15838   3.736  10.205   8.757  0.5856 -0.4758  0.4366
  118MOL0     C15839   3.870  10.238   8.701 -0.3358  0.1284  0.6981
  118MOL0    Cl15840   3.999  10.110   8.688 -0.0954 -0.8123 -0.0980
  118MOL0     C15841   3.460  10.526   8.123 -0.6049 -0.3856  0.2866
  118MOL0     C15842   3.489  10.528   7.980  0.4436 -0.1311  0.1951
  118MOL0     O15843   3.411  10.622   7.709  0.7766 -0.4054  0.4693
  118MOL0     C15844   3.579  10.393   7.505  0.2211  1.0146 -0.3597
  118MOL0     C15845   3.649  10.378   7.383  0.1859  1.2394 -0.5414
  118MOL0     N15846   4.155  10.042   6.973 -0.2434 -0.2349 -0.7519
  118MOL0     N15847   4.244   9.945   6.974  0.5919  0.4233 -0.1758
  118MOL0     C15848   5.349   9.793   7.130 -0.3094 -0.0316 -0.0992
  118MOL0     C15849   5.471   9.861   7.095 -0.0342  0.5991  0.8590
  118MOL0     C15850   5.848  10.019   6.962 -0.3957  0.2153  0.4247
  118MOL0     C15851   5.933  10.047   7.068  0.2718 -0.9048 -0.7495
  118MOL0     C15852   6.046  10.136   7.052  0.5336  0.8654 -0.1384
  118MOL0     C15853   6.071  10.191   6.929 -0.1646  0.0939  0.2893
  118MOL0     O15854   6.178  10.283   6.897  0.2033  0.0708 -0.4371
  118MOL0     C15855   6.252  10.334   7.008 -0.1124  0.4009 -0.1078
  118MOL0     C15856   6.391  10.273   7.018  1.1045  0.2151  0.7918
  118MOL0     C15857   6.466  10.336   7.133  0.5595  0.6315 -0.4457
  118MOL0     C15858   6.577  10.432   7.085 -0.5297  0.1287 -0.6598
  118MOL0     C15859   6.522  10.554   7.028 -1.1172 -0.2739 -0.9294
  118MOL0     C15860   6.478  10.652   6.975  0.2939 -0.8665  0.2955
  118MOL0     C15861   5.974  10.173   6.827  0.4913 -0.0947  0.1140
  118MOL0     C15862   5.870  10.086   6.847 -0.5489 -0.6764  0.3368
  118MOL0     H15863   5.691   9.684   7.292  0.2105  0.5593  0.1866
  118MOL0     H15864   5.501   9.553   7.318 -1.5431 -0.7660 -1.9742
  118MOL0     H15865   5.180   9.617   7.028 -0.5099  2.1833  1.0147
  118MOL0     H15866   5.195   9.445   7.085 -2.5408 -0.2483 -0.9802
  118MOL0     H15867   4.971   9.463   7.113 -0.5731  0.0784  1.3740
  118MOL0     H15868   5.026   9.508   7.265 -2.0629 -2.4897  0.3926
  118MOL0     H15869   4.857   9.678   7.197 -0.7124 -1.1227  0.3961
  118MOL0     H15870   5.003   9.759   7.209  0.1237 -0.0359 -1.1373
  118MOL0     H15871   5.007   9.740   6.941  0.5123  3.5589  1.1783
  118MOL0     H15872   4.862   9.638   6.952  1.2936 -0.1922  0.4339
  118MOL0     H15873   4.878   9.926   7.026 -0.3623  0.9840 -1.4021
  118MOL0     H15874   4.821   9.856   6.874 -0.1046 -3.8122 -0.4065
  118MOL0     H15875   4.652   9.726   7.002 -0.3514 -0.0017 -0.9926
  118MOL0     H15876   4.717   9.804   7.157  1.1684 -2.4822 -0.1260
  118MOL0     H15877   4.642  10.022   7.031  2.0545 -1.1295 -0.5624
  118MOL0     H15878   4.587   9.924   6.903 -1.6452  0.3912  0.5321
  118MOL0     H15879   4.483   9.890   7.190 -1.2149  1.0934 -0.6919
  118MOL0     H15880   4.441   9.782   7.064 -1.1272  0.6137 -0.1183
  118MOL0     H15881   4.395  10.159   7.180  1.8921 -1.6512  0.2370
  118MOL0     H15882   4.102  10.246   7.212 -3.1581  2.7137  0.3772
  118MOL0     H15883   4.169  10.347   7.088 -1.0884  0.2101 -1.0030
  118MOL0     H15884   3.938  10.162   7.038  1.2894 -1.6840  0.0608
  118MOL0     H15885   4.024  10.257   6.912  2.8068 -0.4583  0.7608
  118MOL0     H15886   3.846  10.391   6.975 -0.3364 -1.3950 -0.2581
  118MOL0     H15887   3.980  10.463   7.061  1.4104 -0.4751 -0.6651
  118MOL0     H15888   3.883  10.329   7.266  2.4063 -0.6550 -1.1163
  118MOL0     H15889   3.753  10.273   7.154  0.2197 -1.0379 -0.0332
  118MOL0     H15890   3.661  10.687   7.276 -2.1870  3.4399  2.6757
  118MOL0     H15891   3.595  10.858   7.450 -0.1791 -0.1991 -0.3480
  118MOL0     H15892   3.440  10.814   7.507 -0.0209 -1.0467  1.1106
  118MOL0     H15893   3.590  10.798   7.605  2.5213 -0.3551 -0.7214
  118MOL0     H15894   3.357  10.229   7.914  0.0995 -0.9079  1.1029
  118MOL0     H15895   3.329  10.215   8.153  0.1165 -1.9044 -1.9870
  118MOL0     H15896   3.238  10.476   8.356 -1.8081 -1.3550 -1.2824
  118MOL0     H15897   3.247  10.300   8.341 -3.3878  1.4320  0.1074
  118MOL0     H15898   3.406  10.452   8.555 -0.7971  1.3210 -0.4780
  118MOL0     H15899   3.238  10.401   8.585 -0.6178  0.4889 -0.7475
  118MOL0     H15900   3.443  10.208   8.465  0.6587 -0.6639  2.2410
  118MOL0     H15901   3.294  10.164   8.525  0.8654  0.1943 -3.2116
  118MOL0     H15902   3.481  10.298   8.717 -1.5725  0.0418  1.3722
  118MOL0     H15903   3.349  10.200   8.759  0.0786  0.8739 -0.7127
  118MOL0     H15904   3.494  10.003   8.616 -0.6790  0.5449 -0.5642
  118MOL0     H15905   3.492  10.029   8.785 -1.3418 -0.9749 -1.3730
  118MOL0     H15906   3.718  10.011   8.670 -0.9567 -0.6525 -0.6122
  118MOL0     H15907   3.681  10.133   8.566  1.4222 -2.6539 -0.2158
  118MOL0     H15908   3.755  10.166   8.857 -1.7924 -1.8689  0.4232
  118MOL0     H15909   3.670  10.291   8.772 -2.7643 -2.9446  1.0705
  118MOL0     H15910   3.917  10.323   8.751  1.8983 -1.2706  1.1046
  118MOL0     H15911   3.848  10.279   8.602 -0.2052  3.0780  1.8010
  118MOL0     H15912   3.498  10.609   8.183  0.8877 -1.4038  0.8189
  118MOL0     H15913   3.537  10.621   7.950 -1.7905  2.6494  4.2208
  118MOL0     H15914   3.552  10.308   7.567 -3.7598  0.3972 -2.5288
  118MOL0     H15915   3.677  10.274   7.374 -2.6243  0.3891 -0.4818
  118MOL0     H15916   5.254   9.820   7.085 -0.4026 -0.1539  0.0231
  118MOL0     H15917   5.460   9.947   7.029 -2.4589 -0.7516 -0.6371
  118MOL0     H15918   5.919  10.007   7.168 -0.6926  4.6465  1.7193
  118MOL0     H15919   6.109  10.139   7.140  1.8195 -0.8046 -0.9313
  118MOL0     H15920   6.260  10.442   6.991  0.2575  0.2964 -0.6055
  118MOL0     H15921   6.203  10.317   7.105  0.9627  1.6215  0.6899
  118MOL0     H15922   6.433  10.278   6.917 -1.4175  1.5425 -0.2838
  118MOL0     H15923   6.378  10.165   7.030  2.7688 -0.2843 -1.3419
  118MOL0     H15924   6.526  10.255   7.176 -2.2547 -1.8561 -0.9012
  118MOL0     H15925   6.398  10.377   7.208  1.1720 -3.0738  2.4474
  118MOL0     H15926   6.648  10.396   7.011  2.7664  1.0346  1.7906
  118MOL0     H15927   6.645  10.452   7.169  1.1669  0.8405 -2.1380
  118MOL0     H15928   6.427  10.738   6.935  0.4774 -0.4519  0.9440
  118MOL0     H15929   5.981  10.234   6.737 -3.6183 -0.7340 -0.8178
  118MOL0     H15930   5.808  10.062   6.762  0.8695 -1.4356 -0.5238
  119MOL0     O15931   7.978   4.712   0.286  0.0017  0.4970 -0.1191
  119MOL0     C15932   8.019   4.714   0.404 -0.6462  0.0657 -0.4927
  119MOL0     O15933   7.931   4.705   0.515 -0.2771  0.8245 -0.5090
  119MOL0     C15934   7.797   4.722   0.501  0.0164  0.1400  0.2709
  119MOL0     C15935   7.737   4.802   0.399  0.1121  0.5162  0.2632
  119MOL0     C15936   7.597   4.797   0.387  0.0323  1.0359  0.4123
  119MOL0     C15937   7.516   4.714   0.466  0.1024  0.3574 -0.6275
  119MOL0     O15938   7.380   4.725   0.460 -0.4135  0.9288  0.6467
  119MOL0     C15939   7.294   4.666   0.546  0.7908  0.4192 -0.6221
  119MOL0     C15940   7.149   4.682   0.482 -0.8666 -0.4350 -0.1841
  119MOL0     C15941   7.053   4.654   0.587 -0.5193 -0.5943 -0.1896
  119MOL0     C15942   6.913   4.648   0.538 -0.3804 -0.2656  0.9155
  119MOL0     C15943   6.811   4.654   0.654 -0.7627  0.5220 -0.2061
  119MOL0     C15944   6.671   4.669   0.604  0.1876 -0.2678  0.2780
  119MOL0     C15945   6.572   4.688   0.721 -0.0648  0.8008  0.0834
  119MOL0     C15946   6.425   4.656   0.673  0.1670 -0.2436 -0.3593
  119MOL0     N15947   6.371   4.734   0.566 -0.4829 -0.4566  0.0315
  119MOL0     C15948   6.336   4.862   0.584  0.9527 -0.7616 -0.1446
  119MOL0     C15949   6.276   4.897   0.468  0.3216 -0.1498  0.2580
  119MOL0     C15950   6.219   5.035   0.457 -0.7002 -0.8869  0.3378
  119MOL0     C15951   6.083   5.036   0.380 -0.5839 -0.7617 -0.0083
  119MOL0     C15952   5.983   4.963   0.456 -0.0465  0.5358 -0.3175
  119MOL0     C15953   5.855   5.053   0.457  0.1228  0.4307 -0.0681
  119MOL0     O15954   5.877   5.192   0.504  0.1917 -0.0690 -0.2027
  119MOL0     C15955   5.768   5.276   0.533 -0.1261  0.4149  0.0085
  119MOL0     C15956   5.795   5.409   0.525 -0.3430  0.1827  0.5363
  119MOL0     C15957   5.697   5.510   0.519 -0.1892 -0.7116  0.6840
  119MOL0     C15958   5.741   5.654   0.507  0.2687  0.0866 -0.0518
  119MOL0     C15959   5.557   5.473   0.534  0.2805 -0.1429 -0.8472
  119MOL0     C15960   5.440   5.567   0.542  0.7637 -0.1938 -0.1402
  119MOL0     O15961   5.457   5.700   0.552  0.5257 -0.5928 -0.1866
  119MOL0     C15962   5.368   5.788   0.515  1.1422  0.1378  0.3878
  119MOL0     C15963   5.363   5.901   0.584  0.3003 -0.3683 -0.6640
  119MOL0     C15964   5.258   5.999   0.561 -0.5959  0.3120  1.0470
  119MOL0     C15965   5.161   5.966   0.463  0.0597 -0.0605  0.4305
  119MOL0     O15966   5.060   6.054   0.452 -0.1106 -0.2976 -0.1807
  119MOL0     C15967   4.966   6.074   0.342  0.2384  0.5249 -0.3034
  119MOL0     C15968   4.894   6.208   0.354  0.2720 -0.2575  0.3941
  119MOL0     C15969   4.800   6.230   0.240  0.0940  0.4377  0.3951
  119MOL0     C15970   4.732   6.368   0.252 -0.4218  0.4150  0.3815
  119MOL0     C15971   4.613   6.389   0.161 -0.4501 -0.3299 -0.1678
  119MOL0     C15972   4.562   6.537   0.176 -0.3259 -0.1614  0.7526
  119MOL0     C15973   4.461   6.570   0.068  0.0930 -0.1618 -1.0984
  119MOL0     C15974   4.438   6.719   0.081 -0.1887 -0.1340 -1.0647
  119MOL0    Cl15975   4.341   6.778  -0.044  0.0867  0.3308 -0.1741
  119MOL0     C15976   5.175   5.857   0.383  0.6857  0.6619  0.2435
  119MOL0     C15977   5.267   5.763   0.417  0.0747  0.2074 -0.3922
  119MOL0     O15978   5.333   5.501   0.553  0.0388 -0.1864 -1.0156
  119MOL0     C15979   5.535   5.335   0.542  0.5290  0.0653  0.4021
  119MOL0     C15980   5.636   5.236   0.530 -0.4490 -0.1320  1.3261
  119MOL0     N15981   6.280   4.788   0.381  0.3938  0.2407 -0.6152
  119MOL0     N15982   6.335   4.685   0.447 -0.6717  0.2180  0.2147
  119MOL0     C15983   7.580   4.650   0.575  0.2170  0.4581 -0.0513
  119MOL0     C15984   7.717   4.656   0.590 -0.6679 -0.3098 -0.6816
  119MOL0     C15985   8.165   4.712   0.426  0.3584 -0.4059  0.4954
  119MOL0     C15986   8.247   4.677   0.317 -0.2912 -0.1054 -0.3435
  119MOL0     C15987   8.386   4.678   0.333  0.2675 -0.2173 -0.3358
  119MOL0     C15988   8.446   4.720   0.455  0.3929  0.7268 -0.2101
  119MOL0     O15989   8.577   4.740   0.487  0.4423 -0.0236  0.0707
  119MOL0     C15990   8.677   4.739   0.381  0.1106  0.6471  0.2673
  119MOL0     C15991   8.796   4.840   0.402 -0.2006  0.1270  0.1355
  119MOL0     C15992   8.894   4.856   0.283 -0.3562 -0.1458  0.0550
  119MOL0     C15993   9.000   4.963   0.325 -0.2470  0.5989 -0.8248
  119MOL0     C15994   9.054   5.028   0.207 -0.2053 -0.0178  0.6799
  119MOL0     C15995   9.109   5.084   0.109 -0.0637  0.2819 -0.5297
  119MOL0     C15996   8.361   4.727   0.570 -0.7083 -0.1426  0.1659
  119MOL0     C15997   8.222   4.732   0.554 -0.2399 -0.4308 -0.1877
  119MOL0     H15998   7.790   4.867   0.330 -0.2183  0.4967 -0.0078
  119MOL0     H15999   7.549   4.861   0.313 -1.3883 -2.9592 -2.4931
  119MOL0     H16000   7.319   4.560   0.557 -1.4691  0.0455  1.9734
  119MOL0     H16001   7.315   4.724   0.636  0.6803 -1.8762  0.9719
  119MOL0     H16002   7.129   4.779   0.436 -3.0188 -1.9234 -2.6928
  119MOL0     H16003   7.152   4.606   0.403  0.3815 -1.4603  0.8091
  119MOL0     H16004   7.066   4.555   0.632 -1.6840 -0.6920 -0.0586
  119MOL0     H16005   7.070   4.731   0.663  3.1850 -0.4702 -0.9472
  119MOL0     H16006   6.887   4.737   0.479 -0.3339 -2.1110 -2.1100
  119MOL0     H16007   6.900   4.562   0.471 -1.5169  1.1606 -0.8122
  119MOL0     H16008   6.829   4.568   0.719 -3.0642  0.3747  0.3280
  119MOL0     H16009   6.834   4.746   0.709  4.0124  0.4745 -1.6849
  119MOL0     H16010   6.674   4.753   0.535  1.9646 -1.0960 -0.7353
  119MOL0     H16011   6.637   4.588   0.538 -1.4946  1.0660 -0.5715
  119MOL0     H16012   6.607   4.617   0.796  0.8429  0.5054 -0.6062
  119MOL0     H16013   6.570   4.792   0.756  0.3517 -0.1610  3.3014
  119MOL0     H16014   6.369   4.667   0.767 -0.5485 -0.6656 -0.7277
  119MOL0     H16015   6.426   4.550   0.647 -0.4460 -0.7316  1.4441
  119MOL0     H16016   6.352   4.931   0.666 -2.4731  2.0383 -1.5588
  119MOL0     H16017   6.203   5.067   0.560 -0.3193 -0.8136  0.3747
  119MOL0     H16018   6.290   5.102   0.408  0.1672 -1.2744  1.0542
  119MOL0     H16019   6.097   4.981   0.286  2.0302 -0.6701  0.2729
  119MOL0     H16020   6.074   5.142   0.352  3.0415 -0.8848 -2.3045
  119MOL0     H16021   6.018   4.941   0.557  2.2578  0.3036 -1.1038
  119MOL0     H16022   5.967   4.864   0.411  1.9069  1.0279 -2.2466
  119MOL0     H16023   5.772   5.001   0.506 -0.6499  1.0325 -0.7311
  119MOL0     H16024   5.827   5.053   0.352  3.6646 -3.4354 -1.3062
  119MOL0     H16025   5.898   5.441   0.534 -0.6283  1.0741  0.6798
  119MOL0     H16026   5.704   5.705   0.417  2.2486 -1.3054 -1.7623
  119MOL0     H16027   5.710   5.715   0.593  0.4184  2.5768 -1.6435
  119MOL0     H16028   5.850   5.649   0.502  0.1485 -3.5350 -2.8599
  119MOL0     H16029   5.445   5.928   0.651  0.3159 -1.1633 -0.3488
  119MOL0     H16030   5.235   6.084   0.624  1.1882  0.9230  0.9253
  119MOL0     H16031   5.029   6.075   0.252 -0.9190  0.8028 -1.1369
  119MOL0     H16032   4.900   5.987   0.334  1.0596  0.0519 -5.8896
  119MOL0     H16033   4.839   6.203   0.449 -1.7628  2.4440 -0.5266
  119MOL0     H16034   4.967   6.289   0.354 -2.3482  2.4160 -2.7916
  119MOL0     H16035   4.724   6.153   0.227  0.9856 -0.0956 -2.3043
  119MOL0     H16036   4.855   6.238   0.146 -0.1708  2.2704  0.3596
  119MOL0     H16037   4.710   6.380   0.359 -0.5797 -1.3635  0.5867
  119MOL0     H16038   4.793   6.451   0.216 -0.3929 -0.4366 -1.6340
  119MOL0     H16039   4.529   6.325   0.189 -2.0910  0.5383 -2.7559
  119MOL0     H16040   4.632   6.366   0.056  0.5877 -1.1372  0.1844
  119MOL0     H16041   4.510   6.542   0.273  0.2775  0.0048  1.0755
  119MOL0     H16042   4.650   6.602   0.180  1.6133 -2.5771 -0.2027
  119MOL0     H16043   4.367   6.516   0.086 -0.8334  1.9171  0.7808
  119MOL0     H16044   4.505   6.560  -0.031  2.4706  2.0935 -0.4008
  119MOL0     H16045   4.534   6.769   0.068 -0.9231  1.2616 -1.3454
  119MOL0     H16046   4.396   6.750   0.178 -1.6874 -1.5004 -1.2321
  119MOL0     H16047   5.097   5.834   0.311 -0.1411 -1.1505  1.6188
  119MOL0     H16048   5.266   5.668   0.365  0.3242  0.1792 -0.3497
  119MOL0     H16049   5.434   5.296   0.546 -0.6415  2.6393 -1.5144
  119MOL0     H16050   5.613   5.136   0.495 -0.3344  0.3888 -0.2950
  119MOL0     H16051   7.523   4.597   0.651  0.3471 -0.1907 -0.3973
  119MOL0     H16052   7.770   4.593   0.661  3.2002  1.1631 -1.9937
  119MOL0     H16053   8.205   4.640   0.223 -2.3164 -1.2495  0.9146
  119MOL0     H16054   8.453   4.643   0.255 -2.2115 -1.0046 -2.2448
  119MOL0     H16055   8.718   4.638   0.372 -1.6006 -0.2420  1.8665
  119MOL0     H16056   8.634   4.766   0.284  0.8945  0.4236 -0.1521
  119MOL0     H16057   8.861   4.815   0.486  1.5188  0.1961 -1.1170
  119MOL0     H16058   8.750   4.940   0.410 -2.0450 -0.7426  0.9749
  119MOL0     H16059   8.840   4.881   0.192 -0.3806  2.3682  0.7115
  119MOL0     H16060   8.941   4.757   0.272 -0.1281 -0.4243  2.9372
  119MOL0     H16061   9.078   4.921   0.389 -1.6058 -2.2197 -0.8625
  119MOL0     H16062   8.942   5.035   0.383  1.7002  3.0874 -1.7757
  119MOL0     H16063   9.169   5.136   0.037  1.4129  1.6672  1.5669
  119MOL0     H16064   8.401   4.749   0.668  1.0069  0.0598 -0.5427
  119MOL0     H16065   8.165   4.738   0.647 -0.7945 -2.6810 -0.3145
  120MOL0     O16066   0.366   1.391   9.773 -0.3802  0.4640 -0.3009
  120MOL0     C16067   0.377   1.307   9.865 -0.7367 -0.2538  0.2358
  120MOL0     O16068   0.284   1.259   9.943 -0.3425 -0.1729 -0.2331
  120MOL0     C16069   0.154   1.277   9.920 -0.6764 -0.2693  0.2320
  120MOL0     C16070   0.062   1.278  10.033 -0.3979  0.2463  0.5536
  120MOL0     C16071  -0.076   1.286  10.003 -0.4295 -0.0588  0.3311
  120MOL0     C16072  -0.130   1.305   9.878 -0.7375 -0.1314 -0.4144
  120MOL0     O16073  -0.264   1.318   9.880  0.5265 -0.8138  0.3702
  120MOL0     C16074  -0.329   1.295   9.754  0.1219 -0.2586 -0.3123
  120MOL0     C16075  -0.485   1.286   9.779 -0.7397 -0.4464  0.0754
  120MOL0     C16076  -0.546   1.426   9.809 -0.1251  0.2737 -0.1139
  120MOL0     C16077  -0.666   1.428   9.902  0.4766  0.1611  0.3451
  120MOL0     C16078  -0.798   1.410   9.824 -0.0601  0.7199  0.1238
  120MOL0     C16079  -0.908   1.412   9.934 -0.6777  0.2734 -0.2559
  120MOL0     C16080  -1.031   1.377   9.863  0.0338  0.7349  0.6081
  120MOL0     C16081  -1.150   1.386   9.958  0.3190  0.3650  0.4585
  120MOL0     N16082  -1.273   1.359   9.887  0.1006 -1.2492 -0.2580
  120MOL0     C16083  -1.353   1.250   9.906  0.0305 -0.1588 -0.5354
  120MOL0     C16084  -1.460   1.265   9.829  0.5642  0.0118  0.2106
  120MOL0     C16085  -1.570   1.157   9.802  0.2308 -0.7428 -0.0181
  120MOL0     C16086  -1.695   1.205   9.745  0.0583 -0.2132  0.3105
  120MOL0     C16087  -1.763   1.307   9.835 -0.9000  0.1582  0.3133
  120MOL0     C16088  -1.900   1.354   9.764 -0.6427  0.3457  0.3003
  120MOL0     O16089  -1.989   1.241   9.737  0.0630 -0.3490 -0.0854
  120MOL0     C16090  -2.121   1.265   9.720 -0.1565 -0.3363  0.1880
  120MOL0     C16091  -2.187   1.382   9.684  0.1200  0.7445 -0.7486
  120MOL0     C16092  -2.323   1.389   9.681  0.6034 -0.2717 -0.6633
  120MOL0     C16093  -2.383   1.524   9.653 -0.6754 -0.6884 -0.4478
  120MOL0     C16094  -2.399   1.272   9.703  0.6503  0.0873 -0.0546
  120MOL0     C16095  -2.551   1.261   9.700 -0.0964 -0.2243 -0.9598
  120MOL0     O16096  -2.605   1.129   9.703  1.0066  0.1072  0.5560
  120MOL0     C16097  -2.741   1.127   9.677 -0.4827 -0.0234  0.3476
  120MOL0     C16098  -2.783   1.060   9.567  0.4429  0.8616 -0.3595
  120MOL0     C16099  -2.923   1.035   9.550  0.4041  0.0313 -0.5627
  120MOL0     C16100  -3.018   1.091   9.639  0.0558 -1.1593 -0.6350
  120MOL0     O16101  -3.154   1.076   9.623 -0.2223 -0.2611 -0.0596
  120MOL0     C16102  -3.207   0.965   9.558 -0.4723  0.4762 -0.5001
  120MOL0     C16103  -3.352   0.944   9.602 -0.6574  0.3797  0.2654
  120MOL0     C16104  -3.434   1.058   9.538  0.2321 -0.0449 -0.3147
  120MOL0     C16105  -3.574   1.057   9.591 -0.0736  0.4845  0.1676
  120MOL0     C16106  -3.654   1.182   9.539 -0.5680 -0.1623 -0.3470
  120MOL0     C16107  -3.647   1.193   9.392 -0.2119  0.0262 -1.0223
  120MOL0     C16108  -3.725   1.318   9.356 -0.1258  0.3143 -0.2035
  120MOL0     C16109  -3.759   1.322   9.208 -0.9130 -0.0556  0.1057
  120MOL0    Cl16110  -3.853   1.180   9.170 -0.2885  0.1704  0.2437
  120MOL0     C16111  -2.974   1.166   9.753  0.5366  0.0111  0.4461
  120MOL0     C16112  -2.833   1.176   9.770  0.1924  0.1829  0.6257
  120MOL0     O16113  -2.623   1.368   9.700  0.7219  0.0132  0.4576
  120MOL0     C16114  -2.330   1.157   9.740 -0.6647 -0.4048  0.5384
  120MOL0     C16115  -2.193   1.145   9.741  0.1779 -0.6307 -0.1037
  120MOL0     N16116  -1.435   1.383   9.763  0.3936  0.1265 -0.1241
  120MOL0     N16117  -1.323   1.435   9.786 -0.4138 -0.2887 -0.0847
  120MOL0     C16118  -0.048   1.306   9.769 -0.3293 -0.0656  1.0383
  120MOL0     C16119   0.095   1.295   9.789  0.0812  0.1191  0.0178
  120MOL0     C16120   0.516   1.265   9.906  0.0366 -0.5090  0.0270
  120MOL0     C16121   0.624   1.310   9.826  1.5122  0.5858  0.1682
  120MOL0     C16122   0.754   1.260   9.851  0.0126  0.0464  0.6642
  120MOL0     C16123   0.782   1.198   9.973 -0.3335  0.4239  0.2019
  120MOL0     O16124   0.909   1.169   9.996 -0.4755 -0.0374 -0.0332
  120MOL0     C16125   0.957   1.213  10.130  0.6750  0.1105 -0.3617
  120MOL0     C16126   1.103   1.186  10.157 -0.2336 -0.4715 -0.9500
  120MOL0     C16127   1.149   1.046  10.158 -0.1428  0.0227 -0.5279
  120MOL0     C16128   1.144   0.973  10.024  0.4484  0.0340 -0.8640
  120MOL0     C16129   1.241   0.857  10.015  0.8978 -0.4278  0.1441
  120MOL0     C16130   1.340   0.781  10.003 -0.4472 -0.5119  0.2852
  120MOL0     C16131   0.680   1.146  10.048 -0.7363 -0.0221 -0.4160
  120MOL0     C16132   0.544   1.180  10.018  0.3723 -0.6651 -0.4981
  120MOL0     H16133   0.095   1.274  10.137 -1.6846  1.5738  1.0524
  120MOL0     H16134  -0.140   1.288  10.091  0.6534  0.7769  1.1377
  120MOL0     H16135  -0.311   1.387   9.699 -0.6131  0.4314  0.5608
  120MOL0     H16136  -0.291   1.203   9.710  1.1230 -0.3831  0.7644
  120MOL0     H16137  -0.536   1.245   9.691 -2.0818  0.7881  0.2394
  120MOL0     H16138  -0.503   1.212   9.858 -0.5612  0.9990  1.5285
  120MOL0     H16139  -0.474   1.492   9.858 -2.2650  2.3858  0.3994
  120MOL0     H16140  -0.578   1.465   9.712 -0.7258 -2.0831 -0.9333
  120MOL0     H16141  -0.651   1.354   9.981 -1.9372 -0.4064  0.3744
  120MOL0     H16142  -0.663   1.529   9.944 -0.8106  0.1532  0.4940
  120MOL0     H16143  -0.810   1.493   9.754  0.2793  1.1033  0.5116
  120MOL0     H16144  -0.794   1.314   9.773  0.6609  0.3363  0.8718
  120MOL0     H16145  -0.891   1.344  10.018 -0.2500  2.4219  1.4688
  120MOL0     H16146  -0.913   1.509   9.984 -2.4193  0.3945 -0.5827
  120MOL0     H16147  -1.056   1.443   9.780 -0.2846  0.5235  0.5363
  120MOL0     H16148  -1.024   1.277   9.819 -0.5682  0.2563  1.5700
  120MOL0     H16149  -1.153   1.488   9.997  0.2869  0.7562 -0.5423
  120MOL0     H16150  -1.132   1.313  10.037  0.9663 -1.4504 -1.2606
  120MOL0     H16151  -1.323   1.159   9.957 -0.0187 -0.5282 -1.1536
  120MOL0     H16152  -1.537   1.080   9.732  0.4200  0.9838 -1.9364
  120MOL0     H16153  -1.594   1.108   9.896  0.0510  0.4401  0.5712
  120MOL0     H16154  -1.765   1.123   9.727 -0.5404 -0.4070  3.1422
  120MOL0     H16155  -1.672   1.257   9.651 -2.4513 -0.4524 -0.5266
  120MOL0     H16156  -1.706   1.400   9.841  1.3635 -1.2518  2.2949
  120MOL0     H16157  -1.781   1.261   9.933  1.5209  2.5897  2.0542
  120MOL0     H16158  -1.877   1.402   9.668 -1.0803 -0.6917 -0.3499
  120MOL0     H16159  -1.956   1.420   9.831 -1.1516 -0.3300  0.5517
  120MOL0     H16160  -2.132   1.466   9.643  1.0014 -0.4717 -2.2065
  120MOL0     H16161  -2.438   1.569   9.735  1.8925  2.2508 -0.1183
  120MOL0     H16162  -2.305   1.600   9.638 -0.3459 -1.2778 -1.9087
  120MOL0     H16163  -2.443   1.501   9.565 -0.6879 -1.1470 -0.3175
  120MOL0     H16164  -2.716   1.026   9.489 -0.4555  3.4384 -2.4134
  120MOL0     H16165  -2.945   0.977   9.461  2.6727  0.3563 -1.4166
  120MOL0     H16166  -3.206   0.981   9.450  1.5680  0.2977 -0.5582
  120MOL0     H16167  -3.147   0.875   9.577 -1.7771  0.0037  1.6428
  120MOL0     H16168  -3.388   0.849   9.560 -0.0995  0.1186  0.3629
  120MOL0     H16169  -3.354   0.941   9.711  3.0368  0.6385  0.4680
  120MOL0     H16170  -3.437   1.029   9.432  2.5288  0.4999 -0.5853
  120MOL0     H16171  -3.385   1.155   9.541  0.0979  0.0588  3.8319
  120MOL0     H16172  -3.628   0.966   9.560 -0.0031 -0.0592  1.5591
  120MOL0     H16173  -3.579   1.057   9.700  3.8217  2.6827  0.5271
  120MOL0     H16174  -3.616   1.277   9.580 -0.1920  0.4220 -1.9617
  120MOL0     H16175  -3.757   1.161   9.567 -0.3640 -2.9512 -1.3866
  120MOL0     H16176  -3.549   1.195   9.344  0.1340 -0.5787 -0.3670
  120MOL0     H16177  -3.690   1.111   9.334  0.7946 -0.0935 -1.6220
  120MOL0     H16178  -3.669   1.409   9.380  0.8019 -0.3458  0.1884
  120MOL0     H16179  -3.817   1.319   9.416 -0.1900  2.7233 -0.2331
  120MOL0     H16180  -3.668   1.325   9.148 -0.1511  1.6656  1.2687
  120MOL0     H16181  -3.820   1.411   9.187  1.8348  2.8207  3.0986
  120MOL0     H16182  -3.052   1.195   9.822 -0.2034  0.9757 -0.7559
  120MOL0     H16183  -2.800   1.211   9.867  3.1816  0.0665 -0.2556
  120MOL0     H16184  -2.382   1.062   9.746  0.6540 -1.2626 -0.9157
  120MOL0     H16185  -2.149   1.049   9.766  2.4878  0.2580 -0.4913
  120MOL0     H16186  -0.084   1.284   9.669  0.5619 -2.8987  1.2624
  120MOL0     H16187   0.147   1.279   9.695 -1.8958 -3.2362 -0.6581
  120MOL0     H16188   0.604   1.374   9.740 -0.0707  1.4549  1.1473
  120MOL0     H16189   0.836   1.299   9.791 -0.1144 -0.2432  0.3004
  120MOL0     H16190   0.936   1.319  10.141 -2.1455 -0.0642 -2.8027
  120MOL0     H16191   0.900   1.158  10.205  1.1301 -0.9063 -0.7425
  120MOL0     H16192   1.134   1.242  10.246 -2.2223  2.3632 -1.8866
  120MOL0     H16193   1.160   1.228  10.074  0.1674 -0.9773 -0.9354
  120MOL0     H16194   1.087   0.994  10.231 -1.8218  2.7316  0.1492
  120MOL0     H16195   1.250   1.042  10.200 -0.3625  2.8116  0.5200
  120MOL0     H16196   1.175   1.047   9.950 -0.5153  2.5741  1.1132
  120MOL0     H16197   1.044   0.943   9.994 -0.5025  1.9596  0.2009
  120MOL0     H16198   1.425   0.717   9.997 -1.3725 -1.6403 -2.2452
  120MOL0     H16199   0.698   1.079  10.132  2.8991 -1.6449 -2.2400
  120MOL0     H16200   0.459   1.138  10.070 -1.3159  2.4145 -0.5500
  121MOL0     O16201   2.317   2.787   9.378  0.2209 -0.9376  0.5327
  121MOL0     C16202   2.364   2.770   9.490 -0.4566 -0.1676  0.0704
  121MOL0     O16203   2.321   2.820   9.611 -0.1480  0.2988 -0.4234
  121MOL0     C16204   2.205   2.888   9.630  0.6024  0.0468  0.4962
  121MOL0     C16205   2.182   2.920   9.761 -0.5077  0.4516  0.2817
  121MOL0     C16206   2.073   2.995   9.789 -0.1475  0.2862  0.1643
  121MOL0     C16207   1.964   3.010   9.698  0.1356 -0.5067  0.1971
  121MOL0     O16208   1.849   3.053   9.742  0.4287 -0.1372 -0.6187
  121MOL0     C16209   1.745   3.104   9.656 -0.0938 -0.2432  0.3599
  121MOL0     C16210   1.643   3.176   9.736 -0.9913  0.6690 -0.4148
  121MOL0     C16211   1.591   3.092   9.851 -0.5099  0.4474 -0.2491
  121MOL0     C16212   1.444   3.129   9.908 -0.2407 -0.0180  0.0021
  121MOL0     C16213   1.399   3.036  10.028 -0.5572 -0.0046  0.5347
  121MOL0     C16214   1.284   3.106  10.097 -0.4925  0.6299 -0.1763
  121MOL0     C16215   1.152   3.111  10.017 -0.2419 -0.5328  1.4062
  121MOL0     C16216   1.028   3.171  10.097 -0.0088  0.3343  0.6313
  121MOL0     N16217   0.900   3.189  10.018 -0.8160  0.4743  0.4540
  121MOL0     C16218   0.789   3.112  10.013  0.8079  0.1282  0.1179
  121MOL0     C16219   0.695   3.190   9.944  0.4424 -0.4371 -0.4390
  121MOL0     C16220   0.545   3.161   9.926 -0.7683 -0.4071 -0.0660
  121MOL0     C16221   0.461   3.254  10.012 -0.1655 -0.0267  0.6472
  121MOL0     C16222   0.318   3.190  10.009 -0.0955 -0.3045  0.6115
  121MOL0     C16223   0.232   3.257  10.115  0.5170 -0.3692 -0.0134
  121MOL0     O16224   0.278   3.243  10.251 -0.3152  0.0704 -0.2363
  121MOL0     C16225   0.189   3.234  10.354 -0.0832 -1.1639  0.4383
  121MOL0     C16226   0.230   3.189  10.479 -0.0004 -0.6946  0.1613
  121MOL0     C16227   0.128   3.158  10.573 -0.0313  0.6876 -1.1715
  121MOL0     C16228   0.189   3.114  10.706 -0.1870 -0.2841  0.1643
  121MOL0     C16229  -0.006   3.163  10.546 -0.0896 -0.5194 -0.7592
  121MOL0     C16230  -0.119   3.126  10.647 -0.8431  0.1068  0.1579
  121MOL0     O16231  -0.256   3.157  10.616  0.5239  0.4262 -0.8264
  121MOL0     C16232  -0.355   3.103  10.696 -0.1188  0.1144  0.3138
  121MOL0     C16233  -0.351   3.137  10.829  0.6958 -1.0351  0.8464
  121MOL0     C16234  -0.456   3.091  10.899  0.2175  0.0361  0.1268
  121MOL0     C16235  -0.549   2.995  10.859  0.4447 -0.4639  1.3008
  121MOL0     O16236  -0.639   2.957  10.950 -0.0127  0.7564 -0.3264
  121MOL0     C16237  -0.738   2.863  10.905 -0.1097 -0.4364  0.5524
  121MOL0     C16238  -0.824   2.826  11.025 -0.8776  0.3122  0.3709
  121MOL0     C16239  -0.879   2.953  11.095 -0.3754 -0.8741 -0.2281
  121MOL0     C16240  -0.991   3.036  11.023  1.0722 -0.0854 -0.1377
  121MOL0     C16241  -1.130   2.972  11.004 -0.2284 -0.1369 -0.3536
  121MOL0     C16242  -1.175   2.901  11.136  0.1994  0.1116  0.3579
  121MOL0     C16243  -1.319   2.857  11.110  0.4105 -0.0995 -0.6825
  121MOL0     C16244  -1.374   2.785  11.239  0.4509  0.0122  1.0540
  121MOL0    Cl16245  -1.551   2.749  11.189  0.3624  0.0724 -0.1396
  121MOL0     C16246  -0.552   2.957  10.720 -0.4313  0.4851 -0.0516
  121MOL0     C16247  -0.453   3.012  10.644 -0.2556  0.3131 -0.0149
  121MOL0     O16248  -0.083   3.053  10.737 -0.2354 -0.3879  0.5011
  121MOL0     C16249  -0.045   3.219  10.428 -0.8419 -0.4750 -0.3811
  121MOL0     C16250   0.052   3.262  10.339  0.3605 -0.1134 -0.3205
  121MOL0     N16251   0.755   3.304   9.906 -0.2825  0.1979  0.3874
  121MOL0     N16252   0.877   3.312   9.954  0.3358  0.4408 -0.5380
  121MOL0     C16253   1.982   2.971   9.572 -0.3318  0.3749  0.0309
  121MOL0     C16254   2.103   2.909   9.533 -1.0624 -0.0736  0.2349
  121MOL0     C16255   2.501   2.701   9.499  0.7844  0.4917  1.2598
  121MOL0     C16256   2.550   2.654   9.623  0.6606  0.1675  0.4113
  121MOL0     C16257   2.681   2.605   9.631  0.1777 -0.5014 -0.3464
  121MOL0     C16258   2.766   2.590   9.523  0.0142  0.3130  0.4705
  121MOL0     O16259   2.884   2.518   9.540 -0.3586 -0.0172 -0.8182
  121MOL0     C16260   2.995   2.531   9.449  0.3684 -0.7111  0.1325
  121MOL0     C16261   3.093   2.412   9.473  0.1829 -0.9031 -0.0481
  121MOL0     C16262   3.201   2.405   9.359  0.3179  0.7645  0.3352
  121MOL0     C16263   3.304   2.291   9.374 -0.1717 -0.1798 -0.5796
  121MOL0     C16264   3.444   2.350   9.362  0.4823  0.0968 -0.5776
  121MOL0     C16265   3.547   2.404   9.345  0.1996  0.3316 -0.2491
  121MOL0     C16266   2.712   2.628   9.397  0.1939 -0.1424  0.3582
  121MOL0     C16267   2.582   2.685   9.387  0.4771 -0.2884  0.3544
  121MOL0     H16268   2.260   2.911   9.837  1.7440  1.3952 -1.8014
  121MOL0     H16269   2.064   3.017   9.895  0.4853 -0.5233  0.3914
  121MOL0     H16270   1.780   3.171   9.578  0.0842 -0.1281  0.5385
  121MOL0     H16271   1.699   3.017   9.606  0.9932 -0.6717  0.0701
  121MOL0     H16272   1.681   3.273   9.769  1.6019 -0.0243 -1.1531
  121MOL0     H16273   1.562   3.199   9.665  0.2139 -0.1642 -2.1249
  121MOL0     H16274   1.578   2.987   9.822 -0.5283  0.9107 -2.0471
  121MOL0     H16275   1.664   3.084   9.932  1.5994 -1.0481 -2.1907
  121MOL0     H16276   1.441   3.235   9.936  3.4440  0.5020 -1.0601
  121MOL0     H16277   1.378   3.133   9.821  0.6818  3.8457 -0.7018
  121MOL0     H16278   1.374   2.932  10.004 -0.7154  0.1149  0.1593
  121MOL0     H16279   1.485   3.032  10.094 -1.6669  0.8673  2.1080
  121MOL0     H16280   1.273   3.046  10.188 -0.2669  0.0054 -0.5506
  121MOL0     H16281   1.308   3.207  10.132  1.8347 -0.0129  0.2527
  121MOL0     H16282   1.159   3.169   9.924  0.5424 -1.4591  0.8741
  121MOL0     H16283   1.120   3.010   9.990 -0.3924  0.3422 -2.2067
  121MOL0     H16284   1.050   3.266  10.145 -0.6445  1.4803 -1.2288
  121MOL0     H16285   1.006   3.103  10.179 -2.1608  0.5235  0.2751
  121MOL0     H16286   0.763   3.017  10.059  2.0389 -1.3047 -1.9408
  121MOL0     H16287   0.521   3.171   9.819 -1.4202 -1.1340  0.0035
  121MOL0     H16288   0.532   3.054   9.944 -0.2647 -0.1280  2.2748
  121MOL0     H16289   0.454   3.355   9.970 -0.0708  0.3232  1.4523
  121MOL0     H16290   0.508   3.256  10.111 -0.2528 -0.5871  0.7034
  121MOL0     H16291   0.333   3.085  10.035  3.7976  0.1803  0.8553
  121MOL0     H16292   0.273   3.216   9.913  0.3119 -0.7081  0.3077
  121MOL0     H16293   0.138   3.203  10.110 -0.1127  0.6744  0.1713
  121MOL0     H16294   0.207   3.360  10.085  1.8551  0.2926  1.0212
  121MOL0     H16295   0.335   3.170  10.496  1.2669 -1.8236 -6.1042
  121MOL0     H16296   0.149   3.177  10.787  2.2547  3.3647 -1.1833
  121MOL0     H16297   0.161   3.010  10.725  1.1803 -0.8498 -0.7349
  121MOL0     H16298   0.299   3.116  10.707 -0.1592 -1.1571 -0.4326
  121MOL0     H16299  -0.276   3.199  10.876  0.7079 -1.0025  0.7845
  121MOL0     H16300  -0.468   3.120  11.003  2.2161  1.2803  0.0653
  121MOL0     H16301  -0.807   2.904  10.830  1.0089  1.1799  0.3390
  121MOL0     H16302  -0.695   2.774  10.859 -1.1075  0.3656 -2.1504
  121MOL0     H16303  -0.900   2.759  10.983 -2.6519  1.9260  0.8693
  121MOL0     H16304  -0.763   2.768  11.094 -0.2433 -0.3647 -0.7245
  121MOL0     H16305  -0.808   3.034  11.112 -2.7748  1.5874 -1.0967
  121MOL0     H16306  -0.917   2.924  11.194 -2.9042  0.3821 -0.7367
  121MOL0     H16307  -1.007   3.127  11.081 -2.0290  0.5373 -1.7097
  121MOL0     H16308  -0.965   3.059  10.919 -1.7819  0.2677 -0.8615
  121MOL0     H16309  -1.130   2.908  10.916 -2.1277 -0.3147 -0.2716
  121MOL0     H16310  -1.206   3.048  10.986 -1.2401 -1.0579 -0.0967
  121MOL0     H16311  -1.113   2.811  11.149  0.6490  0.0578 -1.8151
  121MOL0     H16312  -1.171   2.969  11.221 -3.9351  0.4929  0.4467
  121MOL0     H16313  -1.324   2.786  11.027 -0.6131 -0.9579  0.0783
  121MOL0     H16314  -1.380   2.943  11.081  2.9443  1.2834 -2.1799
  121MOL0     H16315  -1.393   2.849  11.326 -2.4509 -0.3460  0.7805
  121MOL0     H16316  -1.323   2.692  11.265  0.8439 -0.7547 -2.0974
  121MOL0     H16317  -0.635   2.898  10.683 -0.8512  0.2574  1.2046
  121MOL0     H16318  -0.444   2.980  10.540  3.0418  1.9457 -0.3598
  121MOL0     H16319  -0.151   3.237  10.412 -0.7469  2.2674  1.3374
  121MOL0     H16320   0.009   3.283  10.242  1.4052 -2.3053 -1.3374
  121MOL0     H16321   1.904   2.966   9.497 -0.0065  5.2664 -1.0011
  121MOL0     H16322   2.120   2.877   9.431  4.5073 -1.3567  1.2247
  121MOL0     H16323   2.493   2.661   9.715  3.2623 -1.5613  2.2887
  121MOL0     H16324   2.717   2.567   9.726  1.8602  0.7086 -0.4596
  121MOL0     H16325   2.946   2.519   9.352 -0.8070 -2.1060  0.8488
  121MOL0     H16326   3.044   2.627   9.466  1.9129 -1.7900  2.1825
  121MOL0     H16327   3.037   2.318   9.477 -0.2484 -0.6024  1.1668
  121MOL0     H16328   3.146   2.424   9.567  0.3343  0.7111 -0.3016
  121MOL0     H16329   3.253   2.501   9.359  1.8270 -0.0199  1.3969
  121MOL0     H16330   3.135   2.396   9.272  1.0769  2.5061 -0.4779
  121MOL0     H16331   3.301   2.214   9.296  2.0967  0.2124 -1.1226
  121MOL0     H16332   3.297   2.248   9.474  1.0117  1.0752  0.0791
  121MOL0     H16333   3.636   2.461   9.327 -0.6479  1.3464 -1.3862
  121MOL0     H16334   2.767   2.625   9.303  1.2782  5.2118  0.5368
  121MOL0     H16335   2.552   2.732   9.293  1.2915  1.7197  1.0567
  122MOL0     O16336   2.787   0.275   3.548  0.2619  1.4878 -0.7052
  122MOL0     C16337   2.823   0.377   3.503  0.7370 -0.9323 -0.9153
  122MOL0     O16338   2.734   0.480   3.454  0.0610  0.2803 -0.4707
  122MOL0     C16339   2.601   0.456   3.464  0.0236 -0.0016  0.8943
  122MOL0     C16340   2.520   0.530   3.556 -0.2255  0.1613 -0.1891
  122MOL0     C16341   2.385   0.501   3.578  0.5269  0.2834  0.6736
  122MOL0     C16342   2.323   0.406   3.499 -0.7056  0.3524  1.0385
  122MOL0     O16343   2.189   0.354   3.507 -0.6595 -0.1883 -1.0287
  122MOL0     C16344   2.135   0.357   3.632 -0.2147  0.0938 -0.6345
  122MOL0     C16345   2.024   0.258   3.638  0.6071  0.6889  0.3052
  122MOL0     C16346   1.901   0.287   3.548  0.4213  0.9659  0.2255
  122MOL0     C16347   1.813   0.164   3.526 -0.3613 -0.1505  0.3987
  122MOL0     C16348   1.736   0.109   3.652  0.2929  0.0976  0.2401
  122MOL0     C16349   1.646   0.214   3.718 -0.1499 -0.7051  0.4061
  122MOL0     C16350   1.559   0.155   3.835 -0.4113  0.2191 -0.5722
  122MOL0     C16351   1.480   0.267   3.907  0.8171  0.5108 -0.2682
  122MOL0     N16352   1.358   0.289   3.830 -0.5659 -0.3185  0.3858
  122MOL0     C16353   1.339   0.404   3.756 -0.7529 -0.1922  0.1177
  122MOL0     C16354   1.214   0.400   3.711  0.4329  0.3196 -0.1730
  122MOL0     C16355   1.149   0.506   3.619  0.0224 -0.8667 -0.5992
  122MOL0     C16356   0.999   0.488   3.609 -0.2362  0.7840  0.9065
  122MOL0     C16357   0.928   0.618   3.567  0.4855 -0.7154 -0.9542
  122MOL0     C16358   0.777   0.595   3.536 -0.6643 -0.2598  0.9465
  122MOL0     O16359   0.756   0.474   3.463 -0.1375  0.4638  0.1323
  122MOL0     C16360   0.626   0.474   3.412  0.3838 -0.8199  0.2727
  122MOL0     C16361   0.601   0.436   3.283  0.0906 -0.4337 -0.2861
  122MOL0     C16362   0.472   0.447   3.228 -0.3306 -0.9456  0.1903
  122MOL0     C16363   0.468   0.407   3.076 -0.0036  0.2791 -0.4591
  122MOL0     C16364   0.363   0.488   3.313  0.7660  0.2760 -0.7220
  122MOL0     C16365   0.221   0.500   3.263  0.0983  0.0669 -0.0138
  122MOL0     O16366   0.141   0.592   3.326 -0.4565  0.1494 -0.6389
  122MOL0     C16367   0.014   0.598   3.275 -0.4216 -0.4915 -0.1830
  122MOL0     C16368  -0.041   0.713   3.219  0.4148  0.2168 -0.4779
  122MOL0     C16369  -0.181   0.712   3.180  0.3397  0.2963 -0.3143
  122MOL0     C16370  -0.259   0.600   3.203  0.8100 -0.5828 -0.8449
  122MOL0     O16371  -0.391   0.607   3.171  0.6320 -0.1051 -0.2803
  122MOL0     C16372  -0.472   0.493   3.156  0.1422  0.7792 -0.8675
  122MOL0     C16373  -0.587   0.532   3.067 -0.8741  0.6531 -0.0037
  122MOL0     C16374  -0.694   0.418   3.062 -0.4058 -0.4663 -0.7195
  122MOL0     C16375  -0.800   0.440   2.948  0.6823 -0.3702 -0.0199
  122MOL0     C16376  -0.911   0.549   2.986 -0.3159  0.1706  0.4910
  122MOL0     C16377  -0.993   0.569   2.856  0.6204 -0.8124 -0.8410
  122MOL0     C16378  -1.041   0.721   2.846  0.5596  0.5046 -0.0597
  122MOL0     C16379  -1.132   0.736   2.715  0.0892 -0.2940  0.4147
  122MOL0    Cl16380  -1.203   0.904   2.672 -0.1869 -0.6513  0.0926
  122MOL0     C16381  -0.204   0.485   3.251  0.0779 -0.4098 -0.7851
  122MOL0     C16382  -0.064   0.484   3.285  1.0149 -0.3295 -0.3956
  122MOL0     O16383   0.188   0.438   3.163  0.2666  0.8012  1.0596
  122MOL0     C16384   0.390   0.523   3.443  0.3324 -0.0348 -0.6741
  122MOL0     C16385   0.517   0.514   3.491  0.1467 -0.0708 -0.5993
  122MOL0     N16386   1.159   0.277   3.748  0.2214 -0.3595  0.0049
  122MOL0     N16387   1.248   0.215   3.815 -0.5640  0.2471 -1.1265
  122MOL0     C16388   2.399   0.340   3.397  0.4634 -0.3663  0.1194
  122MOL0     C16389   2.535   0.367   3.386  0.0263 -0.0528  0.2739
  122MOL0     C16390   2.964   0.395   3.485 -0.4121 -0.5312 -0.2302
  122MOL0     C16391   3.012   0.523   3.454 -0.0418  0.6144  1.1918
  122MOL0     C16392   3.151   0.546   3.455 -0.2444 -0.3796  0.0499
  122MOL0     C16393   3.234   0.441   3.482  0.1209  0.0963  0.7810
  122MOL0     O16394   3.368   0.471   3.481  0.6946 -0.7254 -0.4070
  122MOL0     C16395   3.439   0.448   3.362 -0.0646 -0.1508  0.8456
  122MOL0     C16396   3.513   0.567   3.306  0.6967 -0.6642 -0.8645
  122MOL0     C16397   3.647   0.601   3.384  0.6784  0.6332  0.4915
  122MOL0     C16398   3.695   0.742   3.349  0.1518  0.5953  0.1119
  122MOL0     C16399   3.822   0.777   3.413  0.3878  0.3904  1.0265
  122MOL0     C16400   3.932   0.799   3.467  0.4686 -0.0043  0.3369
  122MOL0     C16401   3.196   0.309   3.517 -0.7594  0.4071  0.1067
  122MOL0     C16402   3.053   0.290   3.514  0.0958  0.7397  0.1026
  122MOL0     H16403   2.554   0.617   3.611 -2.2135 -0.7125  2.6370
  122MOL0     H16404   2.333   0.557   3.655  0.5137  0.5269  0.4884
  122MOL0     H16405   2.213   0.326   3.703  0.9399 -1.4548 -2.4936
  122MOL0     H16406   2.087   0.450   3.664  0.0381  0.2273 -0.6427
  122MOL0     H16407   2.074   0.166   3.606  0.2239  0.3248  0.7521
  122MOL0     H16408   1.986   0.239   3.738 -0.9603 -0.0205 -0.4023
  122MOL0     H16409   1.832   0.366   3.580 -1.9007 -0.3554 -1.2590
  122MOL0     H16410   1.948   0.314   3.453 -1.2050 -0.7413 -1.1383
  122MOL0     H16411   1.743   0.184   3.445  0.7403 -0.6282 -0.7176
  122MOL0     H16412   1.878   0.083   3.491  2.1601  1.5434  0.8861
  122MOL0     H16413   1.677   0.026   3.614  0.4984 -0.2193  0.6099
  122MOL0     H16414   1.812   0.079   3.725  2.4610 -0.4244 -2.0667
  122MOL0     H16415   1.711   0.298   3.745  1.8053 -1.5970 -1.2289
  122MOL0     H16416   1.584   0.246   3.634  0.7143 -2.5613 -1.0098
  122MOL0     H16417   1.494   0.071   3.811  0.8528 -0.9879  0.0895
  122MOL0     H16418   1.625   0.111   3.911  0.2151 -0.5245 -1.5272
  122MOL0     H16419   1.532   0.363   3.915 -0.8886  1.4095  0.8002
  122MOL0     H16420   1.451   0.239   4.009 -0.1015  2.9966  0.2274
  122MOL0     H16421   1.417   0.472   3.726 -1.0121 -1.0350 -2.7430
  122MOL0     H16422   1.170   0.608   3.651  1.7546 -0.3466 -3.0989
  122MOL0     H16423   1.200   0.496   3.523  0.3184 -1.3998 -0.3919
  122MOL0     H16424   0.968   0.456   3.709  1.1391 -2.4785  0.4076
  122MOL0     H16425   0.974   0.394   3.558 -1.2442 -0.9384  4.2662
  122MOL0     H16426   0.983   0.660   3.482  1.7192  0.9526  0.6068
  122MOL0     H16427   0.942   0.700   3.637 -0.1181  2.1100 -3.9284
  122MOL0     H16428   0.737   0.678   3.478 -0.8182 -2.8630 -2.9762
  122MOL0     H16429   0.732   0.581   3.635  2.3935 -1.3269  2.3151
  122MOL0     H16430   0.685   0.404   3.221  0.0145 -2.7205  0.7102
  122MOL0     H16431   0.463   0.489   3.005  2.7142 -0.2710 -1.4090
  122MOL0     H16432   0.557   0.346   3.059 -0.4935 -1.2358  1.9121
  122MOL0     H16433   0.383   0.339   3.064 -0.2610  0.6948 -0.9959
  122MOL0     H16434   0.021   0.800   3.203 -1.5703  1.6108 -0.9197
  122MOL0     H16435  -0.226   0.804   3.144  0.7150  0.0624 -1.4035
  122MOL0     H16436  -0.418   0.402   3.128 -0.4009  0.4760 -0.9357
  122MOL0     H16437  -0.515   0.477   3.256 -1.0705  1.8505 -1.1890
  122MOL0     H16438  -0.631   0.624   3.106 -0.4248  1.4732 -1.3736
  122MOL0     H16439  -0.541   0.558   2.972  2.0468  1.7195  1.5906
  122MOL0     H16440  -0.743   0.424   3.159 -0.9340  0.4860 -1.0238
  122MOL0     H16441  -0.648   0.320   3.048  1.0104  0.1436 -0.5523
  122MOL0     H16442  -0.744   0.459   2.856  0.2424 -1.2935 -0.4909
  122MOL0     H16443  -0.855   0.348   2.930  0.5444 -0.5022  1.0144
  122MOL0     H16444  -0.861   0.643   3.012  0.9013 -0.8020  1.8485
  122MOL0     H16445  -0.958   0.515   3.079  1.8094 -0.3301  1.4419
  122MOL0     H16446  -0.919   0.559   2.776  0.7875 -1.4536 -0.6106
  122MOL0     H16447  -1.066   0.488   2.854  1.8483 -2.0247  0.7782
  122MOL0     H16448  -0.953   0.785   2.855  0.0813  1.0108  1.1597
  122MOL0     H16449  -1.099   0.753   2.932  0.8798  2.1542 -0.4255
  122MOL0     H16450  -1.215   0.667   2.734 -0.6645  0.7476  1.0095
  122MOL0     H16451  -1.073   0.697   2.631 -1.6536  1.0083 -1.4900
  122MOL0     H16452  -0.252   0.388   3.254  1.8191 -1.4271 -3.0190
  122MOL0     H16453  -0.027   0.389   3.325 -1.6528  0.1606  3.9864
  122MOL0     H16454   0.317   0.576   3.503  2.5371  4.1618 -1.3477
  122MOL0     H16455   0.520   0.541   3.596  1.0813  1.3665 -0.9743
  122MOL0     H16456   2.349   0.270   3.330 -1.2880  3.1438 -2.6403
  122MOL0     H16457   2.603   0.308   3.325  3.0005  2.2879  1.0923
  122MOL0     H16458   2.940   0.603   3.439  2.1296  2.5845  0.6524
  122MOL0     H16459   3.190   0.646   3.440 -0.5531  0.3657  3.3773
  122MOL0     H16460   3.514   0.373   3.389 -1.1089  0.1377  5.3024
  122MOL0     H16461   3.368   0.404   3.291 -0.4080  0.4471  0.8068
  122MOL0     H16462   3.455   0.659   3.305  0.8699 -0.5548 -1.5290
  122MOL0     H16463   3.543   0.538   3.205 -3.9244 -2.3802 -1.9866
  122MOL0     H16464   3.719   0.526   3.352 -1.9895 -2.8958  2.0035
  122MOL0     H16465   3.629   0.589   3.492 -3.1490 -1.7867 -0.2065
  122MOL0     H16466   3.615   0.810   3.379 -1.2706 -1.0880  0.2698
  122MOL0     H16467   3.705   0.765   3.243  0.1511  0.8749  0.1719
  122MOL0     H16468   4.029   0.826   3.501  0.2020  2.2665 -0.5821
  122MOL0     H16469   3.263   0.228   3.547 -2.9152 -1.0249  1.3668
  122MOL0     H16470   3.002   0.197   3.537 -1.5859  1.6427  0.1940
  123MOL0     O16471   1.808   0.993   5.192 -0.5056  0.5370  0.5123
  123MOL0     C16472   1.837   1.019   5.302  1.0313 -0.4449 -1.1483
  123MOL0     O16473   1.759   1.109   5.381  0.6702 -0.5342 -0.8258
  123MOL0     C16474   1.679   1.201   5.330  1.3664 -0.0715  0.3619
  123MOL0     C16475   1.690   1.263   5.203 -0.2868 -0.2809 -0.6610
  123MOL0     C16476   1.598   1.369   5.176  0.4288  0.0258 -0.4395
  123MOL0     C16477   1.488   1.389   5.249 -0.5209 -0.8715  0.6600
  123MOL0     O16478   1.390   1.478   5.207 -0.1107 -0.7327  0.1695
  123MOL0     C16479   1.266   1.417   5.178  0.3326 -0.2334  0.1542
  123MOL0     C16480   1.152   1.492   5.259  0.3684 -0.3907  0.9546
  123MOL0     C16481   1.012   1.491   5.207 -0.1816  0.7332 -0.0884
  123MOL0     C16482   0.916   1.568   5.290  0.2456  0.5666  0.7167
  123MOL0     C16483   0.773   1.559   5.231 -0.2243  0.2887 -0.0412
  123MOL0     C16484   0.702   1.694   5.255 -0.0438 -0.8339 -0.7442
  123MOL0     C16485   0.570   1.702   5.186  0.1571 -0.0167 -0.2083
  123MOL0     C16486   0.470   1.615   5.257  0.7966 -0.0571  0.0759
  123MOL0     N16487   0.344   1.639   5.186 -0.2253  0.9864 -0.3983
  123MOL0     C16488   0.260   1.751   5.199 -1.1300  0.1362 -0.1388
  123MOL0     C16489   0.171   1.736   5.104 -0.0480 -0.1845 -0.2670
  123MOL0     C16490   0.038   1.806   5.083  0.1670  0.4066 -0.1615
  123MOL0     C16491  -0.061   1.716   5.005  0.2005 -0.0585  0.3419
  123MOL0     C16492  -0.191   1.800   4.976  0.4354  0.0092 -0.4602
  123MOL0     C16493  -0.249   1.767   4.835 -0.3060  0.9576 -0.0789
  123MOL0     O16494  -0.283   1.627   4.833 -0.6798  0.3417  1.4384
  123MOL0     C16495  -0.407   1.579   4.874 -0.3666 -0.1448 -0.3512
  123MOL0     C16496  -0.412   1.447   4.845  0.6755  0.7611  0.2434
  123MOL0     C16497  -0.525   1.370   4.883 -0.7664  0.4906  0.2508
  123MOL0     C16498  -0.528   1.231   4.827 -0.9229 -0.4757 -0.1297
  123MOL0     C16499  -0.634   1.429   4.959  0.0781  0.5585  0.2436
  123MOL0     C16500  -0.754   1.360   5.006 -0.4768 -0.0926 -0.8461
  123MOL0     O16501  -0.842   1.432   5.086 -0.2644 -0.2898 -0.5966
  123MOL0     C16502  -0.970   1.395   5.098 -0.1724  0.3508  0.3366
  123MOL0     C16503  -1.046   1.371   4.982  0.7451  0.3488  0.2513
  123MOL0     C16504  -1.189   1.348   4.992  0.1871 -1.3248  0.1944
  123MOL0     C16505  -1.251   1.343   5.125 -1.1787  0.0732 -0.4682
  123MOL0     O16506  -1.384   1.342   5.150  0.6467 -0.6245 -0.2006
  123MOL0     C16507  -1.483   1.289   5.061 -0.8367  0.1830 -0.1773
  123MOL0     C16508  -1.624   1.317   5.113  0.3400 -0.5234  0.0158
  123MOL0     C16509  -1.640   1.472   5.123  0.0070  0.1327 -0.1353
  123MOL0     C16510  -1.757   1.530   5.198  0.1946  0.7963 -0.1121
  123MOL0     C16511  -1.891   1.470   5.128 -0.0686 -0.3615 -0.5503
  123MOL0     C16512  -2.007   1.546   5.197  0.0794  0.5059  0.0528
  123MOL0     C16513  -2.142   1.482   5.165  0.4822 -1.1435 -0.0844
  123MOL0     C16514  -2.251   1.521   5.271  0.2370  0.4223  0.2339
  123MOL0    Cl16515  -2.407   1.474   5.223 -0.1265  0.0882 -0.0897
  123MOL0     C16516  -1.161   1.363   5.241  0.1957  0.1937 -0.3358
  123MOL0     C16517  -1.027   1.391   5.223  0.0380 -1.2468  0.0347
  123MOL0     O16518  -0.772   1.247   4.965 -0.3237  0.4624 -0.2771
  123MOL0     C16519  -0.618   1.562   4.992  0.1796 -0.7607 -0.0955
  123MOL0     C16520  -0.513   1.647   4.941 -0.7033  0.1413  0.4433
  123MOL0     N16521   0.201   1.623   5.030 -0.1046  0.2478 -0.0441
  123MOL0     N16522   0.307   1.566   5.076  0.1460 -0.5038 -0.2585
  123MOL0     C16523   1.477   1.320   5.375  0.5811 -0.0220  0.3650
  123MOL0     C16524   1.576   1.237   5.419 -0.4003 -0.1606  1.0318
  123MOL0     C16525   1.959   0.953   5.368 -0.0717 -0.2186  0.5573
  123MOL0     C16526   2.060   0.904   5.287 -0.2349 -0.6391  0.0759
  123MOL0     C16527   2.179   0.857   5.347  0.1362  0.5860  0.1705
  123MOL0     C16528   2.194   0.868   5.491  0.3877 -0.2084 -0.0342
  123MOL0     O16529   2.296   0.824   5.568 -0.3414  0.2172 -0.7017
  123MOL0     C16530   2.426   0.812   5.509 -0.3739  0.4539 -0.3656
  123MOL0     C16531   2.511   0.942   5.502  0.4668 -0.1888 -0.0942
  123MOL0     C16532   2.498   1.027   5.631 -0.3567  0.1544 -0.4798
  123MOL0     C16533   2.591   1.149   5.618  0.4319 -0.4945  0.4686
  123MOL0     C16534   2.732   1.107   5.603  0.1313 -0.0755  0.1972
  123MOL0     C16535   2.847   1.074   5.577  1.1867 -0.2770 -0.5294
  123MOL0     C16536   2.091   0.924   5.565 -0.0303  0.5402 -0.3123
  123MOL0     C16537   1.979   0.966   5.502  0.1842  0.6810 -0.1260
  123MOL0     H16538   1.754   1.238   5.119 -0.6694  2.4085 -1.8546
  123MOL0     H16539   1.626   1.434   5.094  1.2329 -1.4827 -1.3960
  123MOL0     H16540   1.253   1.412   5.070 -0.5564 -3.6532  0.3242
  123MOL0     H16541   1.262   1.311   5.203  1.7118 -0.2482  0.3685
  123MOL0     H16542   1.162   1.460   5.363 -0.3103  0.7597  1.3884
  123MOL0     H16543   1.175   1.598   5.262 -2.2545  0.3516 -1.0986
  123MOL0     H16544   1.024   1.531   5.106  3.2116  0.2709  0.0467
  123MOL0     H16545   0.972   1.390   5.192 -0.3863  0.6369  1.0364
  123MOL0     H16546   0.908   1.522   5.389  1.0021 -1.5426 -0.1563
  123MOL0     H16547   0.960   1.668   5.297  2.0447  0.2668 -3.2344
  123MOL0     H16548   0.778   1.551   5.122 -0.4858  1.1324 -0.1184
  123MOL0     H16549   0.723   1.468   5.265  1.7813 -1.2841 -1.0576
  123MOL0     H16550   0.712   1.725   5.360  5.1223  1.4565 -1.6115
  123MOL0     H16551   0.763   1.771   5.208  1.3240 -1.5783 -0.2264
  123MOL0     H16552   0.530   1.804   5.188 -0.3353 -0.0047 -3.5253
  123MOL0     H16553   0.577   1.689   5.077 -2.4923  2.7783 -0.8765
  123MOL0     H16554   0.462   1.639   5.364  0.1693  1.7223 -0.3323
  123MOL0     H16555   0.500   1.511   5.245  2.1698  0.2860  0.3373
  123MOL0     H16556   0.255   1.827   5.277 -1.8237  1.3179 -1.2833
  123MOL0     H16557  -0.001   1.822   5.184  1.5075  1.6624  0.1872
  123MOL0     H16558   0.056   1.906   5.043 -0.2214  1.0044  1.1011
  123MOL0     H16559  -0.089   1.630   5.067  0.3711 -0.8414 -0.6373
  123MOL0     H16560  -0.015   1.687   4.910 -1.2028  0.2708 -0.4622
  123MOL0     H16561  -0.179   1.908   4.992  1.2735 -0.4074  2.4164
  123MOL0     H16562  -0.261   1.781   5.058  0.1888  1.1742 -0.3858
  123MOL0     H16563  -0.178   1.789   4.754 -1.3735 -3.2434 -2.5003
  123MOL0     H16564  -0.335   1.834   4.832 -1.5791 -0.4209  2.5625
  123MOL0     H16565  -0.334   1.401   4.787  1.5849  1.2804  1.0163
  123MOL0     H16566  -0.611   1.223   4.756 -0.4118  1.1975 -0.9795
  123MOL0     H16567  -0.437   1.196   4.777  0.3777 -0.5827  2.1691
  123MOL0     H16568  -0.556   1.162   4.907  0.8561 -1.5111 -0.3500
  123MOL0     H16569  -1.003   1.386   4.884 -0.6591  0.0476 -0.4286
  123MOL0     H16570  -1.263   1.349   4.913 -0.9374  0.2290  1.2090
  123MOL0     H16571  -1.480   1.340   4.964  1.0432 -0.1282 -0.3097
  123MOL0     H16572  -1.461   1.183   5.048  0.5498  0.7035 -3.0226
  123MOL0     H16573  -1.683   1.279   5.028  3.5905 -2.0643 -1.7605
  123MOL0     H16574  -1.637   1.254   5.201 -0.6188  0.7003  0.7796
  123MOL0     H16575  -1.653   1.503   5.019  1.2202 -1.1827 -0.7214
  123MOL0     H16576  -1.547   1.522   5.150 -0.1346 -0.5777  1.8253
  123MOL0     H16577  -1.748   1.501   5.303 -2.2094  0.7355  0.1445
  123MOL0     H16578  -1.757   1.640   5.197  0.3372  0.8330 -2.4458
  123MOL0     H16579  -1.905   1.363   5.147 -1.3966 -0.5825 -2.4038
  123MOL0     H16580  -1.897   1.498   5.022 -0.2490  2.2011  0.0531
  123MOL0     H16581  -1.991   1.550   5.305  1.8810 -2.7600  0.0237
  123MOL0     H16582  -2.021   1.644   5.150  1.2387  0.9847  0.6835
  123MOL0     H16583  -2.136   1.373   5.151  1.4311 -1.1104 -0.0399
  123MOL0     H16584  -2.192   1.509   5.072 -1.6732 -0.5848  1.1797
  123MOL0     H16585  -2.251   1.630   5.281  0.8297  0.4465  0.0217
  123MOL0     H16586  -2.229   1.474   5.367 -0.4213 -1.8248 -0.6518
  123MOL0     H16587  -1.208   1.353   5.338  2.9282 -0.2029  1.0228
  123MOL0     H16588  -0.965   1.415   5.308 -1.2105  0.5332  0.5102
  123MOL0     H16589  -0.688   1.616   5.055  1.2654 -1.0856  1.4640
  123MOL0     H16590  -0.509   1.754   4.956  0.2639  0.1412  0.2396
  123MOL0     H16591   1.390   1.340   5.437  0.4355  0.3380  0.0503
  123MOL0     H16592   1.562   1.200   5.520  1.0512 -2.0552  0.5895
  123MOL0     H16593   2.046   0.891   5.180 -1.0104  2.4205 -0.2946
  123MOL0     H16594   2.250   0.804   5.284 -3.0494 -2.8952 -0.8495
  123MOL0     H16595   2.477   0.740   5.573  0.4886 -0.4127 -1.9712
  123MOL0     H16596   2.429   0.763   5.411  2.8262 -1.9463  0.7837
  123MOL0     H16597   2.468   0.996   5.417 -0.2899 -3.2543 -1.8018
  123MOL0     H16598   2.613   0.921   5.469 -0.5636 -2.1423 -2.3418
  123MOL0     H16599   2.529   0.976   5.723  0.0556  0.1843 -0.6008
  123MOL0     H16600   2.394   1.056   5.642 -0.7549 -0.3495 -2.5442
  123MOL0     H16601   2.583   1.204   5.712 -0.7727 -0.6197  0.4580
  123MOL0     H16602   2.568   1.216   5.534  0.9648 -1.2731 -0.3084
  123MOL0     H16603   2.942   1.027   5.561  0.6901 -1.3922 -0.2690
  123MOL0     H16604   2.102   0.928   5.673  1.2500 -1.7830 -0.2843
  123MOL0     H16605   1.900   1.011   5.562  0.1456  2.1051 -1.1867
  124MOL0     O16606   9.515   6.686  10.730 -0.4246  0.4974  0.4682
  124MOL0     C16607   9.469   6.773  10.804  0.2719  0.0013  0.2342
  124MOL0     O16608   9.341   6.823  10.788 -0.7014  0.2478 -0.3451
  124MOL0     C16609   9.262   6.746  10.716 -0.1839 -0.1950 -0.5015
  124MOL0     C16610   9.195   6.643  10.777  0.3666 -0.2957  0.4182
  124MOL0     C16611   9.108   6.556  10.704 -0.4594 -0.2271  0.1227
  124MOL0     C16612   9.085   6.582  10.572  0.1760 -0.7086  0.3960
  124MOL0     O16613   8.986   6.519  10.506 -0.6073 -0.1493 -0.0074
  124MOL0     C16614   8.881   6.448  10.582 -0.3125  0.0288  0.0067
  124MOL0     C16615   8.772   6.435  10.478 -0.1879 -0.0728 -0.7814
  124MOL0     C16616   8.728   6.569  10.412 -0.4661  0.4735 -1.2445
  124MOL0     C16617   8.617   6.555  10.309  0.1906  0.1054 -1.0962
  124MOL0     C16618   8.565   6.690  10.258  0.9672  0.9646 -0.1249
  124MOL0     C16619   8.431   6.674  10.188  0.0688 -1.0272 -0.3052
  124MOL0     C16620   8.321   6.643  10.290 -0.4322 -0.2430  0.5308
  124MOL0     C16621   8.191   6.718  10.260  0.1993 -0.5612  0.1869
  124MOL0     N16622   8.094   6.700  10.373 -0.0931 -0.2264  0.3412
  124MOL0     C16623   8.011   6.794  10.433  1.1103 -0.2821 -0.1456
  124MOL0     C16624   7.936   6.719  10.519  0.5637 -0.0325 -0.7950
  124MOL0     C16625   7.841   6.784  10.618  0.6446  0.2483 -0.0578
  124MOL0     C16626   7.844   6.937  10.625  0.5440 -0.0119  0.3411
  124MOL0     C16627   7.791   6.982  10.760  0.0381 -0.0773  0.7902
  124MOL0     C16628   7.641   6.966  10.757  0.7449 -0.3337  0.1109
  124MOL0     O16629   7.596   7.003  10.886  0.3227 -0.5390 -0.1819
  124MOL0     C16630   7.465   7.025  10.915  1.6011 -0.4342 -0.3488
  124MOL0     C16631   7.421   7.098  11.027 -0.8321 -0.1127  0.1260
  124MOL0     C16632   7.287   7.119  11.063 -0.1265  0.3078 -0.7758
  124MOL0     C16633   7.251   7.203  11.180  0.2492  0.4002 -0.5121
  124MOL0     C16634   7.189   7.054  10.984  0.3423 -0.7013 -0.8389
  124MOL0     C16635   7.038   7.054  11.017 -0.4018  0.1180 -0.1579
  124MOL0     O16636   6.973   6.971  10.938 -0.1812  0.1852  0.3520
  124MOL0     C16637   6.859   6.916  10.991  0.4989 -0.5235 -0.4173
  124MOL0     C16638   6.732   6.964  10.957 -0.9611 -0.6096 -0.1820
  124MOL0     C16639   6.619   6.903  11.006  0.3623  1.3588  0.3573
  124MOL0     C16640   6.624   6.795  11.098 -0.3704  0.2306 -0.2607
  124MOL0     O16641   6.522   6.728  11.156  0.7016 -0.0657  0.5895
  124MOL0     C16642   6.413   6.807  11.204 -0.4528 -0.2011  0.0207
  124MOL0     C16643   6.282   6.734  11.157  0.5598 -0.1734 -0.4783
  124MOL0     C16644   6.251   6.608  11.227 -0.2885 -0.2368 -0.0563
  124MOL0     C16645   6.100   6.561  11.214  0.1629 -0.3072  0.2201
  124MOL0     C16646   6.078   6.412  11.231  0.3870 -1.0216  0.1157
  124MOL0     C16647   5.930   6.378  11.207  0.3799  0.2424 -0.2663
  124MOL0     C16648   5.902   6.225  11.206 -0.6459  0.6272 -0.3383
  124MOL0     C16649   5.754   6.183  11.218 -0.2293  0.4348  0.7521
  124MOL0    Cl16650   5.716   6.023  11.307 -0.3852  0.3415 -0.2462
  124MOL0     C16651   6.757   6.760  11.147  0.4357 -0.4092  0.5187
  124MOL0     C16652   6.865   6.812  11.094 -0.6045 -0.1911 -1.1127
  124MOL0     O16653   6.989   7.110  11.114 -1.4324 -0.2818  0.5051
  124MOL0     C16654   7.228   6.978  10.873 -0.8075  0.9628 -0.1726
  124MOL0     C16655   7.364   6.964  10.839 -1.2469  0.6938 -0.5536
  124MOL0     N16656   7.974   6.588  10.513  0.4069  1.0798  0.0985
  124MOL0     N16657   8.059   6.569  10.416  0.8788  0.1066 -0.6800
  124MOL0     C16658   9.153   6.693  10.511  0.2323 -0.0295 -0.0630
  124MOL0     C16659   9.236   6.776  10.585  0.1070  0.0085 -0.1495
  124MOL0     C16660   9.568   6.829  10.903  0.2592 -0.2766 -0.2710
  124MOL0     C16661   9.692   6.766  10.931  0.2873 -0.3581  0.1205
  124MOL0     C16662   9.785   6.820  11.018  0.2427 -0.1949  0.3557
  124MOL0     C16663   9.773   6.944  11.080 -0.0074  0.5874 -0.3367
  124MOL0     O16664   9.878   6.976  11.162 -0.4486 -0.2267  0.1971
  124MOL0     C16665   9.900   7.111  11.219 -0.2544 -0.7466  0.1120
  124MOL0     C16666   9.811   7.131  11.346 -0.0694 -0.1071  0.4710
  124MOL0     C16667   9.851   7.252  11.434 -0.5106 -0.9817 -0.1859
  124MOL0     C16668   9.757   7.279  11.553  0.2473 -0.3773 -0.4471
  124MOL0     C16669   9.611   7.280  11.507  0.9553 -1.0243 -0.1077
  124MOL0     C16670   9.490   7.261  11.483 -0.0655 -0.5793 -0.2541
  124MOL0     C16671   9.654   7.019  11.055 -0.4246  0.2654  0.6205
  124MOL0     C16672   9.560   6.958  10.966 -0.1360  0.3916 -0.3223
  124MOL0     H16673   9.203   6.620  10.883 -0.2212  2.8318  1.2432
  124MOL0     H16674   9.071   6.462  10.744 -0.9652 -0.5868 -1.1563
  124MOL0     H16675   8.931   6.360  10.622  0.4333  1.1918  1.7463
  124MOL0     H16676   8.847   6.497  10.673 -0.7071  0.2418 -0.2528
  124MOL0     H16677   8.797   6.364  10.398 -0.6082 -0.8394 -0.2407
  124MOL0     H16678   8.684   6.397  10.530 -0.0277 -0.0239 -0.4766
  124MOL0     H16679   8.708   6.634  10.497  5.3093  1.8338 -0.5192
  124MOL0     H16680   8.810   6.626  10.367  1.0488  1.9774  2.9671
  124MOL0     H16681   8.648   6.488  10.228  1.8146 -2.2002  1.2660
  124MOL0     H16682   8.543   6.493  10.361  2.0641 -1.1552  0.1773
  124MOL0     H16683   8.558   6.756  10.345  3.0897  1.2846 -0.1339
  124MOL0     H16684   8.632   6.729  10.181 -0.5508  2.9688 -0.4933
  124MOL0     H16685   8.406   6.754  10.118 -1.0588 -2.6169 -1.7940
  124MOL0     H16686   8.452   6.586  10.126 -0.0814 -1.6422  0.5042
  124MOL0     H16687   8.302   6.535  10.282 -1.5433  0.0278 -1.0562
  124MOL0     H16688   8.357   6.673  10.389 -1.5515  1.9374  0.3323
  124MOL0     H16689   8.142   6.676  10.171  2.0456 -2.8110  0.1253
  124MOL0     H16690   8.207   6.825  10.242  0.5046 -0.4977  0.8161
  124MOL0     H16691   8.007   6.901  10.422  2.1155  0.0731  2.3253
  124MOL0     H16692   7.743   6.752  10.580  0.8163  1.3818 -1.5432
  124MOL0     H16693   7.863   6.754  10.721 -0.6148 -0.5032  0.0153
  124MOL0     H16694   7.776   6.964  10.544  1.2298 -0.8085 -0.5274
  124MOL0     H16695   7.945   6.978  10.613  1.3100 -2.3131 -1.8382
  124MOL0     H16696   7.810   7.089  10.758  2.7894 -0.4402 -3.4602
  124MOL0     H16697   7.824   6.946  10.858 -1.7216  0.4108  1.6165
  124MOL0     H16698   7.616   6.862  10.736  0.6631 -0.1350 -0.8224
  124MOL0     H16699   7.594   7.042  10.694 -0.8054  2.8398  4.5487
  124MOL0     H16700   7.499   7.159  11.072 -0.0508  1.0732 -2.6191
  124MOL0     H16701   7.213   7.138  11.260 -0.8125 -0.6860 -1.8647
  124MOL0     H16702   7.343   7.248  11.219  0.5643  0.1080 -0.9190
  124MOL0     H16703   7.184   7.286  11.155 -0.3650  0.6085  1.6026
  124MOL0     H16704   6.725   7.038  10.878  2.5149  1.1412  0.9563
  124MOL0     H16705   6.517   6.916  10.968 -0.1538 -1.5208  0.5363
  124MOL0     H16706   6.411   6.798  11.313 -2.7564  0.4793  0.0846
  124MOL0     H16707   6.418   6.913  11.177  1.5118  0.2487  1.9390
  124MOL0     H16708   6.196   6.800  11.162  0.7562  0.2696 -2.2781
  124MOL0     H16709   6.294   6.711  11.051 -0.7297  2.8912 -1.3627
  124MOL0     H16710   6.281   6.612  11.333  2.2516  1.7459 -0.7535
  124MOL0     H16711   6.301   6.523  11.180  0.9546 -2.4585  4.5892
  124MOL0     H16712   6.037   6.622  11.279  0.3314 -0.1691  0.2513
  124MOL0     H16713   6.061   6.583  11.114 -0.6096  0.6593  0.7198
  124MOL0     H16714   6.111   6.379  11.329 -1.3103 -1.2199  0.6510
  124MOL0     H16715   6.143   6.362  11.158 -0.0514 -1.2553 -0.1192
  124MOL0     H16716   5.873   6.419  11.291  0.8179  1.7814 -0.6944
  124MOL0     H16717   5.899   6.425  11.114  0.4814  0.7096 -0.0665
  124MOL0     H16718   5.945   6.181  11.297 -2.5146 -1.6929 -0.4863
  124MOL0     H16719   5.948   6.175  11.121  1.1014  0.0830  0.8605
  124MOL0     H16720   5.708   6.192  11.119 -0.0254 -1.1577  0.4796
  124MOL0     H16721   5.714   6.259  11.285 -1.8822 -1.3365  1.8936
  124MOL0     H16722   6.777   6.673  11.207 -2.2603 -1.8937 -0.5694
  124MOL0     H16723   6.960   6.786  11.138 -0.4146  1.1970 -0.6540
  124MOL0     H16724   7.158   6.920  10.813 -0.1762 -0.1083  0.0908
  124MOL0     H16725   7.384   6.900  10.754 -0.0504  1.6323 -1.0039
  124MOL0     H16726   9.136   6.710  10.405 -0.8253 -1.9296 -0.2253
  124MOL0     H16727   9.306   6.852  10.549  0.6606 -0.5498 -0.2753
  124MOL0     H16728   9.724   6.675  10.882  1.8794 -0.4685  1.2683
  124MOL0     H16729   9.869   6.752  11.029 -0.2513 -1.6542 -3.4583
  124MOL0     H16730  10.007   7.123  11.238 -0.4106 -0.1981  0.6646
  124MOL0     H16731   9.875   7.184  11.141  2.7315 -0.7393 -0.9584
  124MOL0     H16732   9.811   7.041  11.408  0.2725 -0.5353 -0.1417
  124MOL0     H16733   9.706   7.138  11.315  0.3059 -1.0420 -1.0786
  124MOL0     H16734   9.868   7.344  11.378 -1.0462  0.0556  1.3010
  124MOL0     H16735   9.949   7.224  11.475 -2.4171 -2.0979  4.2225
  124MOL0     H16736   9.771   7.367  11.616  0.6537 -1.9609  1.8121
  124MOL0     H16737   9.769   7.192  11.619  0.3111 -0.0394 -0.0090
  124MOL0     H16738   9.385   7.260  11.459 -0.1818  0.8397  0.1033
  124MOL0     H16739   9.636   7.117  11.099  0.0807  0.4288  0.4721
  124MOL0     H16740   9.466   7.004  10.939  0.2471  0.8147 -0.9682
  125MOL0     O16741  11.220   5.416   1.336 -0.3677  0.1998 -0.0763
  125MOL0     C16742  11.127   5.348   1.388 -0.6556 -0.1611  0.6316
  125MOL0     O16743  11.123   5.217   1.375 -0.7442 -0.2799 -0.3960
  125MOL0     C16744  11.241   5.144   1.348  0.0132 -0.1179  0.4026
  125MOL0     C16745  11.255   5.024   1.430 -0.0447 -0.2319 -0.1175
  125MOL0     C16746  11.379   4.969   1.431  0.8214  0.3480 -0.5867
  125MOL0     C16747  11.484   5.011   1.343 -0.4585 -0.0595 -0.0045
  125MOL0     O16748  11.603   4.939   1.333  0.7025  0.2719  0.9378
  125MOL0     C16749  11.624   4.819   1.419  0.2570 -0.1680 -0.7293
  125MOL0     C16750  11.781   4.792   1.426 -0.4426 -0.4686 -0.2820
  125MOL0     C16751  11.807   4.676   1.523 -0.2383 -0.4703  0.3827
  125MOL0     C16752  11.766   4.702   1.674 -0.4246  0.0272 -1.0145
  125MOL0     C16753  11.815   4.586   1.764 -0.0892 -0.4801  0.2621
  125MOL0     C16754  11.777   4.612   1.903 -0.7875 -0.5567  0.4092
  125MOL0     C16755  11.804   4.511   2.015  0.2645 -0.1482 -1.1156
  125MOL0     C16756  11.759   4.366   1.990  0.5519  0.2385  0.0150
  125MOL0     N16757  11.605   4.350   1.986  0.2377  0.2617 -0.6291
  125MOL0     C16758  11.509   4.352   2.089  0.1494  0.1803 -0.1524
  125MOL0     C16759  11.390   4.365   2.026  0.0449 -0.2758  0.0808
  125MOL0     C16760  11.253   4.372   2.094  0.1869  0.3869 -0.1195
  125MOL0     C16761  11.156   4.271   2.038 -0.7440  0.6035  0.0427
  125MOL0     C16762  11.021   4.306   2.093  0.3992 -0.3030 -0.1942
  125MOL0     C16763  10.912   4.235   2.022  0.6407  0.1386 -0.1887
  125MOL0     O16764  10.907   4.099   2.078 -0.6440 -0.0406  0.5380
  125MOL0     C16765  10.867   4.020   1.977 -0.5852  0.5170  0.3286
  125MOL0     C16766  10.735   4.026   1.942  0.0088  0.4889 -0.3875
  125MOL0     C16767  10.690   3.931   1.845  0.5688 -0.3168 -1.1209
  125MOL0     C16768  10.547   3.928   1.812  0.1175  0.7071 -0.3020
  125MOL0     C16769  10.773   3.827   1.789  0.2713 -0.5448 -0.2372
  125MOL0     C16770  10.734   3.718   1.693  0.7782  0.9270 -0.9616
  125MOL0     O16771  10.837   3.643   1.636 -0.1929  0.0975  0.2203
  125MOL0     C16772  10.794   3.527   1.578  0.5012 -0.1317 -0.0365
  125MOL0     C16773  10.757   3.425   1.664  0.0639 -0.3717  0.2135
  125MOL0     C16774  10.723   3.308   1.605 -0.0209 -0.8033 -0.9161
  125MOL0     C16775  10.739   3.288   1.466 -0.1931 -0.1786 -0.7564
  125MOL0     O16776  10.723   3.166   1.407  0.2299  0.5080  0.2410
  125MOL0     C16777  10.736   3.047   1.492  0.3508 -0.0609 -0.7052
  125MOL0     C16778  10.735   2.914   1.414  0.3102 -0.8881 -0.8405
  125MOL0     C16779  10.591   2.885   1.350 -1.5774  0.3737  0.3348
  125MOL0     C16780  10.597   2.740   1.302  0.9576  0.3893  0.8722
  125MOL0     C16781  10.480   2.689   1.221 -0.0468  0.9108 -0.3505
  125MOL0     C16782  10.445   2.744   1.092  0.2940  0.5662  0.0612
  125MOL0     C16783  10.336   2.652   1.025 -0.3533  0.9928 -0.5029
  125MOL0     C16784  10.196   2.679   1.078 -0.5826  0.1848 -0.9554
  125MOL0    Cl16785  10.079   2.564   1.008  0.2973  0.5822 -0.1348
  125MOL0     C16786  10.778   3.394   1.386 -0.1143 -0.2470  0.5626
  125MOL0     C16787  10.799   3.522   1.439  0.1718 -0.3105  0.5887
  125MOL0     O16788  10.612   3.697   1.679 -0.5239  0.9870  0.4296
  125MOL0     C16789  10.901   3.827   1.837 -1.6858  0.4585  0.6292
  125MOL0     C16790  10.952   3.924   1.922 -0.4560  0.4582 -0.5514
  125MOL0     N16791  11.414   4.383   1.887 -0.4425  0.0140 -0.2007
  125MOL0     N16792  11.541   4.371   1.862 -0.5937 -0.7277 -0.0213
  125MOL0     C16793  11.470   5.115   1.260  0.8171 -0.2114  0.9303
  125MOL0     C16794  11.339   5.185   1.253 -0.6955 -0.5796  0.3581
  125MOL0     C16795  11.041   5.417   1.480  0.6697  0.3017  0.6323
  125MOL0     C16796  10.980   5.340   1.576 -0.3896 -0.5428 -0.8502
  125MOL0     C16797  10.880   5.382   1.653  0.0553 -0.4366  0.5477
  125MOL0     C16798  10.829   5.513   1.640 -0.7063  0.1521  0.8369
  125MOL0     O16799  10.730   5.565   1.719 -0.5755  0.5421  0.3876
  125MOL0     C16800  10.598   5.506   1.709 -0.0683 -0.1198 -0.1325
  125MOL0     C16801  10.527   5.533   1.582 -0.0087 -0.1950 -0.3063
  125MOL0     C16802  10.380   5.485   1.584 -0.4705 -0.7878 -0.3655
  125MOL0     C16803  10.305   5.509   1.463  0.3192  0.2095  0.1932
  125MOL0     C16804  10.156   5.452   1.471  0.1143  0.3069 -0.4056
  125MOL0     C16805  10.053   5.393   1.491  0.0154  0.0677 -0.7636
  125MOL0     C16806  10.887   5.589   1.531  0.2660  0.3151  0.5056
  125MOL0     C16807  10.995   5.544   1.458  0.1581 -0.2125 -0.2825
  125MOL0     H16808  11.175   4.977   1.487 -1.5235  0.9598 -1.1312
  125MOL0     H16809  11.385   4.877   1.489 -1.1764  0.1890 -0.5893
  125MOL0     H16810  11.596   4.833   1.524 -1.4081 -0.8631 -1.0579
  125MOL0     H16811  11.569   4.731   1.384  0.4845  0.0038 -1.5215
  125MOL0     H16812  11.826   4.768   1.329 -0.1308 -0.9157 -0.0315
  125MOL0     H16813  11.829   4.883   1.463  1.3905 -2.2428  2.0773
  125MOL0     H16814  11.754   4.587   1.490  0.6545 -1.1201  0.6668
  125MOL0     H16815  11.915   4.658   1.517  0.2298  2.0825 -0.0549
  125MOL0     H16816  11.812   4.795   1.708  1.6629 -0.3438 -2.5517
  125MOL0     H16817  11.658   4.705   1.685 -0.5560  0.7780 -2.2956
  125MOL0     H16818  11.761   4.499   1.725 -1.9975  1.1461 -0.9148
  125MOL0     H16819  11.924   4.581   1.757 -0.1425 -1.4972  0.0152
  125MOL0     H16820  11.828   4.705   1.930 -0.5676 -0.4212 -0.4538
  125MOL0     H16821  11.669   4.628   1.900 -0.4002  2.6441  0.0581
  125MOL0     H16822  11.910   4.510   2.039  1.1008  2.4360 -3.9896
  125MOL0     H16823  11.755   4.539   2.109  0.9403  0.7203 -1.0156
  125MOL0     H16824  11.794   4.320   2.083 -0.7372  1.1552  0.9883
  125MOL0     H16825  11.805   4.323   1.900 -0.5080  0.5578 -0.6919
  125MOL0     H16826  11.517   4.345   2.197 -0.6060  0.9948 -0.0326
  125MOL0     H16827  11.258   4.361   2.203  0.5279  1.4432 -0.0107
  125MOL0     H16828  11.222   4.476   2.077 -0.4825 -0.0305 -1.6095
  125MOL0     H16829  11.188   4.172   2.072 -0.3135 -0.0370 -2.1051
  125MOL0     H16830  11.163   4.282   1.930  0.4400  0.7262  0.1192
  125MOL0     H16831  11.000   4.413   2.079 -0.3670 -0.5411 -0.9548
  125MOL0     H16832  11.016   4.287   2.201  0.0571  0.6316 -0.0285
  125MOL0     H16833  10.933   4.232   1.915 -2.1041 -3.1492 -0.8072
  125MOL0     H16834  10.816   4.286   2.031 -0.3608 -1.3144 -2.0434
  125MOL0     H16835  10.670   4.100   1.987 -0.5746  0.9603 -1.9177
  125MOL0     H16836  10.505   3.846   1.871  3.9087 -2.0226 -1.0416
  125MOL0     H16837  10.497   4.019   1.847  0.1903  0.3716  0.7129
  125MOL0     H16838  10.531   3.931   1.704 -1.7875 -2.5704 -0.2300
  125MOL0     H16839  10.749   3.438   1.772 -0.1916 -1.3008  0.3162
  125MOL0     H16840  10.682   3.228   1.665  0.0420  0.8345  1.4361
  125MOL0     H16841  10.834   3.041   1.539  0.6150 -3.9665 -1.4503
  125MOL0     H16842  10.656   3.037   1.566  0.9508 -4.3718 -0.4094
  125MOL0     H16843  10.809   2.923   1.334  1.9454 -0.3814  0.6556
  125MOL0     H16844  10.773   2.828   1.470  2.5374 -1.1194 -2.5759
  125MOL0     H16845  10.583   2.941   1.256  2.0790  1.9301  0.7742
  125MOL0     H16846  10.506   2.909   1.413 -1.9130  2.0509 -0.6925
  125MOL0     H16847  10.688   2.710   1.250  1.7224  2.8755  0.6464
  125MOL0     H16848  10.593   2.674   1.390 -1.5568 -1.3279 -0.4111
  125MOL0     H16849  10.391   2.701   1.283  0.6671 -1.9019  1.4586
  125MOL0     H16850  10.489   2.581   1.206 -1.8965  0.8784 -1.4949
  125MOL0     H16851  10.411   2.846   1.110  1.4151  0.7909  0.9960
  125MOL0     H16852  10.529   2.750   1.022 -0.8713 -2.8413 -1.9081
  125MOL0     H16853  10.356   2.545   1.025  3.5892  1.5340  1.2803
  125MOL0     H16854  10.343   2.673   0.918  0.3972  1.1983 -0.4227
  125MOL0     H16855  10.146   2.769   1.039 -0.9142  0.2656 -0.3485
  125MOL0     H16856  10.190   2.674   1.187 -0.0812  1.9214 -0.8129
  125MOL0     H16857  10.790   3.383   1.278 -0.0106  2.0336  0.2926
  125MOL0     H16858  10.819   3.609   1.376 -1.9030 -2.3448 -3.2034
  125MOL0     H16859  10.971   3.753   1.800 -2.4822 -0.4502  0.8979
  125MOL0     H16860  11.058   3.919   1.946 -0.5817  0.4229  0.0172
  125MOL0     H16861  11.548   5.139   1.187 -1.2969 -0.8015 -1.7029
  125MOL0     H16862  11.334   5.273   1.190 -2.1748 -0.7144  0.2379
  125MOL0     H16863  11.012   5.237   1.589  0.5691 -0.3510 -1.5710
  125MOL0     H16864  10.833   5.320   1.729 -0.1691  0.0724  0.8325
  125MOL0     H16865  10.603   5.397   1.709 -0.0510 -0.1193  0.4154
  125MOL0     H16866  10.538   5.537   1.795  1.3811  0.1065  0.8175
  125MOL0     H16867  10.578   5.484   1.499  3.2418  0.3881  1.2000
  125MOL0     H16868  10.516   5.641   1.564  0.0488 -0.1271  0.0607
  125MOL0     H16869  10.329   5.541   1.663  0.0731  1.5446 -1.5831
  125MOL0     H16870  10.384   5.377   1.601  1.1260 -0.7504 -0.3180
  125MOL0     H16871  10.356   5.463   1.378 -0.9699  0.4909 -0.7731
  125MOL0     H16872  10.287   5.615   1.444 -1.2916  0.3657  2.1826
  125MOL0     H16873   9.960   5.340   1.489  0.7827 -1.3164 -1.7631
  125MOL0     H16874  10.851   5.691   1.517 -0.1994  0.4187  2.1828
  125MOL0     H16875  11.038   5.600   1.375  0.6743 -1.1186 -0.6415
  126MOL0     O16876   6.309   2.864   3.087  0.0519 -0.4385 -0.1217
  126MOL0     C16877   6.358   2.753   3.098 -0.0609 -0.2346 -0.5834
  126MOL0     O16878   6.286   2.641   3.126  0.3225 -0.0062 -0.8025
  126MOL0     C16879   6.149   2.650   3.132  0.6280 -0.1522  0.6223
  126MOL0     C16880   6.066   2.689   3.245 -0.1586 -0.0926 -0.8514
  126MOL0     C16881   5.925   2.690   3.250 -0.0208  0.4455  0.4728
  126MOL0     C16882   5.861   2.629   3.140  0.2459  1.0929 -0.6257
  126MOL0     O16883   5.725   2.606   3.164  0.2308 -0.6311 -0.5120
  126MOL0     C16884   5.662   2.486   3.113 -0.5002 -0.1307 -0.6095
  126MOL0     C16885   5.510   2.486   3.147 -0.1954 -0.2907  0.7113
  126MOL0     C16886   5.439   2.585   3.058 -0.4640 -1.1202 -0.1291
  126MOL0     C16887   5.283   2.587   3.080  0.1148  0.2012 -0.4518
  126MOL0     C16888   5.220   2.698   2.988  0.7790 -0.2330 -0.8668
  126MOL0     C16889   5.067   2.697   2.996  0.4318 -0.5931 -0.2755
  126MOL0     C16890   5.002   2.580   2.931  0.5219  0.3564  0.2812
  126MOL0     C16891   4.844   2.591   2.967 -0.2121 -0.0311  0.2035
  126MOL0     N16892   4.763   2.482   2.914 -0.1540  0.4082  0.9963
  126MOL0     C16893   4.769   2.358   2.964  0.1342  0.8870 -0.0949
  126MOL0     C16894   4.683   2.285   2.885 -0.1982  0.5820 -0.0142
  126MOL0     C16895   4.670   2.136   2.891  0.1198  0.3733 -0.1955
  126MOL0     C16896   4.806   2.071   2.863  0.1363 -0.1995 -0.4524
  126MOL0     C16897   4.835   1.937   2.935  0.1067  0.4164  0.2587
  126MOL0     C16898   4.793   1.818   2.845 -0.2948 -0.1719  1.0248
  126MOL0     O16899   4.654   1.835   2.803  0.5376  0.2591 -0.0295
  126MOL0     C16900   4.569   1.724   2.809  0.4810 -0.4707  0.0250
  126MOL0     C16901   4.433   1.756   2.787  0.7148 -0.2436 -0.9722
  126MOL0     C16902   4.332   1.665   2.797 -0.6465  0.1339 -0.1935
  126MOL0     C16903   4.190   1.723   2.793 -0.3386  0.5055 -0.5927
  126MOL0     C16904   4.366   1.526   2.801 -0.9484  0.5243  0.5510
  126MOL0     C16905   4.271   1.408   2.798  0.1242  0.1960  0.8066
  126MOL0     O16906   4.334   1.281   2.783  1.0785  0.9059 -0.4026
  126MOL0     C16907   4.240   1.186   2.744  1.1145  0.5584  0.3618
  126MOL0     C16908   4.170   1.114   2.839  0.8343  0.6871 -0.0736
  126MOL0     C16909   4.094   0.998   2.819 -0.3785  0.4329  0.4153
  126MOL0     C16910   4.072   0.942   2.693  0.4349  0.1560 -0.4868
  126MOL0     O16911   3.995   0.838   2.663 -0.4526  0.8589  0.1778
  126MOL0     C16912   3.906   0.780   2.760  0.3111 -0.0611 -0.4022
  126MOL0     C16913   3.781   0.860   2.763 -0.3288  0.0889  0.0653
  126MOL0     C16914   3.652   0.802   2.823  0.1635  0.4595  0.0328
  126MOL0     C16915   3.535   0.894   2.804  0.6294 -0.1096 -0.7105
  126MOL0     C16916   3.408   0.860   2.887 -0.1146  0.0836  0.0324
  126MOL0     C16917   3.319   0.765   2.808  1.4497 -0.2246 -0.2922
  126MOL0     C16918   3.192   0.746   2.888 -0.0943 -0.6812 -0.9878
  126MOL0     C16919   3.230   0.697   3.035 -0.3166  0.6730  0.0790
  126MOL0    Cl16920   3.076   0.653   3.126  0.1333  0.2049 -0.0363
  126MOL0     C16921   4.132   1.017   2.591 -0.0695  0.3643 -0.0632
  126MOL0     C16922   4.213   1.137   2.617 -0.1961  0.7045  0.2607
  126MOL0     O16923   4.150   1.431   2.797 -0.4567  0.3209 -0.1348
  126MOL0     C16924   4.501   1.490   2.804 -0.3480  0.7407  1.1012
  126MOL0     C16925   4.601   1.586   2.812  0.4550 -0.0285 -0.4919
  126MOL0     N16926   4.638   2.357   2.778 -0.3247  0.0515 -0.0800
  126MOL0     N16927   4.686   2.481   2.802  0.2750  0.0431 -0.3216
  126MOL0     C16928   5.927   2.604   3.022  0.3417 -0.0884 -0.7835
  126MOL0     C16929   6.069   2.622   3.013 -0.3166 -1.2636  0.0947
  126MOL0     C16930   6.504   2.742   3.068 -0.0498 -0.0837  1.0459
  126MOL0     C16931   6.557   2.626   3.013  0.2707  0.4083  0.1144
  126MOL0     C16932   6.690   2.616   2.962 -0.0967 -0.1160  0.2345
  126MOL0     C16933   6.778   2.713   3.003  0.6330 -0.3903 -0.6855
  126MOL0     O16934   6.909   2.695   2.952 -0.1287 -0.7496  0.1159
  126MOL0     C16935   7.007   2.799   2.945  0.1374 -0.0704  0.2403
  126MOL0     C16936   7.084   2.836   3.071  0.5568  0.4728 -0.2017
  126MOL0     C16937   7.208   2.919   3.034 -1.0459 -0.2666  0.3374
  126MOL0     C16938   7.260   2.974   3.180 -0.9440  0.2389 -0.0257
  126MOL0     C16939   7.375   3.056   3.153 -0.7454 -0.3205  0.0689
  126MOL0     C16940   7.472   3.125   3.143  0.0380 -0.3211 -0.5315
  126MOL0     C16941   6.733   2.818   3.081  1.1533  0.2071 -1.2864
  126MOL0     C16942   6.597   2.840   3.102 -0.6004 -0.0574  0.0243
  126MOL0     H16943   6.119   2.723   3.333 -1.2513 -1.0459  0.2153
  126MOL0     H16944   5.860   2.720   3.332 -1.7708 -0.4167 -0.5423
  126MOL0     H16945   5.670   2.482   3.004 -0.0809  2.4061 -0.7341
  126MOL0     H16946   5.712   2.396   3.149  0.8762  0.5349 -0.7843
  126MOL0     H16947   5.471   2.385   3.131  0.5899 -0.2575 -1.8158
  126MOL0     H16948   5.493   2.504   3.254 -1.3963  0.4967  0.4135
  126MOL0     H16949   5.467   2.689   3.078 -1.3348 -0.8775 -0.1432
  126MOL0     H16950   5.470   2.567   2.955 -0.3993 -0.4506 -0.2293
  126MOL0     H16951   5.237   2.490   3.061 -0.9771  0.8319 -1.0783
  126MOL0     H16952   5.263   2.615   3.184 -0.8919 -1.4949 -0.1447
  126MOL0     H16953   5.255   2.796   3.022  0.1702 -0.6749  1.2317
  126MOL0     H16954   5.253   2.690   2.884  1.9490 -0.2795 -0.5072
  126MOL0     H16955   5.039   2.706   3.101  0.5107  1.4963 -0.4030
  126MOL0     H16956   5.031   2.785   2.943  1.2424  1.8508  2.9474
  126MOL0     H16957   5.027   2.600   2.827 -1.3173  1.2408 -0.0327
  126MOL0     H16958   5.039   2.480   2.957  0.5670  0.2959 -0.0188
  126MOL0     H16959   4.799   2.680   2.923  1.6737  0.4370 -0.8861
  126MOL0     H16960   4.828   2.594   3.075 -1.2689  0.1356  0.0446
  126MOL0     H16961   4.844   2.324   3.035  0.4588 -2.2612 -1.7608
  126MOL0     H16962   4.636   2.113   2.992  0.7933  1.6776  0.3395
  126MOL0     H16963   4.589   2.092   2.831  0.1021  3.1656 -2.4674
  126MOL0     H16964   4.892   2.133   2.888  2.4344 -3.0105 -0.8298
  126MOL0     H16965   4.828   2.061   2.756  0.1905  1.3797 -0.6129
  126MOL0     H16966   4.764   1.914   3.015 -0.1786 -4.3276 -1.0229
  126MOL0     H16967   4.941   1.920   2.959  0.4737 -0.6684 -1.8388
  126MOL0     H16968   4.803   1.736   2.917  3.0797 -1.7492 -1.0003
  126MOL0     H16969   4.854   1.799   2.756  1.1946  1.1700  1.7018
  126MOL0     H16970   4.406   1.861   2.791  0.5577 -0.3170  1.0121
  126MOL0     H16971   4.183   1.831   2.776 -3.2448  0.7056  1.1326
  126MOL0     H16972   4.130   1.679   2.712  2.5784  1.1343 -3.2571
  126MOL0     H16973   4.146   1.708   2.893  0.6360 -3.1465 -0.5742
  126MOL0     H16974   4.177   1.155   2.940  0.5348  0.7192 -0.0635
  126MOL0     H16975   4.053   0.958   2.911  2.1969 -0.6791  1.1466
  126MOL0     H16976   3.880   0.677   2.735 -0.0456  0.2304 -1.2707
  126MOL0     H16977   3.943   0.787   2.862 -0.7752  1.1372 -0.0538
  126MOL0     H16978   3.810   0.953   2.811 -1.3921  0.5278 -0.1233
  126MOL0     H16979   3.773   0.889   2.658  1.3083  0.3015 -0.0306
  126MOL0     H16980   3.665   0.781   2.930  1.4036  1.0063  0.0013
  126MOL0     H16981   3.631   0.714   2.761 -1.5716  1.6152 -1.1098
  126MOL0     H16982   3.569   0.997   2.819  0.3293  0.0669 -1.1946
  126MOL0     H16983   3.512   0.903   2.697  0.1174  2.9306 -0.4598
  126MOL0     H16984   3.350   0.951   2.902 -0.2907  0.0274 -0.3031
  126MOL0     H16985   3.433   0.813   2.982 -0.4145  1.6595  0.9224
  126MOL0     H16986   3.300   0.797   2.706  1.4518  0.3992 -0.1003
  126MOL0     H16987   3.377   0.672   2.807  0.1816 -1.1938  2.8177
  126MOL0     H16988   3.127   0.670   2.844  0.3612 -0.0367 -2.8455
  126MOL0     H16989   3.133   0.838   2.889 -1.2860 -1.4307 -0.6614
  126MOL0     H16990   3.284   0.769   3.097 -3.0407  2.2509  0.8126
  126MOL0     H16991   3.292   0.608   3.024 -1.7143 -0.0357 -4.0888
  126MOL0     H16992   4.102   1.002   2.488 -4.6665  1.5021  0.8764
  126MOL0     H16993   4.248   1.191   2.530  2.7268  1.5182  1.8136
  126MOL0     H16994   4.536   1.387   2.811 -1.2521  0.2625 -0.7809
  126MOL0     H16995   4.704   1.550   2.813  1.1194  1.7208 -1.4449
  126MOL0     H16996   5.870   2.559   2.942 -1.6317 -1.6061  1.3307
  126MOL0     H16997   6.116   2.591   2.921  2.3577  2.4293 -0.0054
  126MOL0     H16998   6.485   2.547   2.994  0.4733  0.1192  0.5315
  126MOL0     H16999   6.722   2.542   2.889 -2.4712 -1.7756  0.7545
  126MOL0     H17000   7.085   2.756   2.880  0.7593  0.4323  0.6417
  126MOL0     H17001   6.963   2.887   2.897 -1.1571 -1.6719 -1.7044
  126MOL0     H17002   7.108   2.747   3.130 -1.2731 -0.4418 -0.7541
  126MOL0     H17003   7.016   2.895   3.133 -0.1459  0.3183 -0.8111
  126MOL0     H17004   7.185   3.007   2.973  1.9985  0.4641  0.0432
  126MOL0     H17005   7.288   2.862   2.985 -2.4842  0.2919 -2.8991
  126MOL0     H17006   7.290   2.893   3.247  0.5517  0.5868 -0.2221
  126MOL0     H17007   7.182   3.034   3.227  1.2749  3.3923  0.0227
  126MOL0     H17008   7.556   3.190   3.156  0.1488 -0.9861  3.0031
  126MOL0     H17009   6.802   2.901   3.094  0.1891  0.8047  0.4613
  126MOL0     H17010   6.556   2.932   3.144 -1.6308 -0.4032 -0.1923
  127MOL0     O17011  10.914  10.318   6.688  0.5527  0.1957 -0.3401
  127MOL0     C17012  10.910  10.242   6.786 -0.0567 -0.6231 -0.9387
  127MOL0     O17013  10.807  10.228   6.872 -0.2470  0.4991 -0.2240
  127MOL0     C17014  10.691  10.295   6.852 -0.0286 -1.0030 -0.3938
  127MOL0     C17015  10.672  10.431   6.888  0.2448  0.2907  0.0925
  127MOL0     C17016  10.549  10.493   6.890 -1.0913 -0.6243  0.0957
  127MOL0     C17017  10.441  10.416   6.837 -1.2444 -0.4359 -0.3808
  127MOL0     O17018  10.316  10.473   6.824  0.0545  0.3299  0.2376
  127MOL0     C17019  10.326  10.584   6.727  0.5484  0.6135  0.0460
  127MOL0     C17020  10.178  10.636   6.699 -0.8574 -0.4530  0.0054
  127MOL0     C17021  10.119  10.554   6.585  0.3750  0.1117  0.2371
  127MOL0     C17022   9.961  10.542   6.598  0.3298 -0.1298 -0.5148
  127MOL0     C17023   9.893  10.469   6.476 -1.2983 -0.1916 -0.3281
  127MOL0     C17024   9.752  10.440   6.518  0.2021  0.1536 -0.1895
  127MOL0     C17025   9.663  10.405   6.400  0.1477  0.5513  0.4933
  127MOL0     C17026   9.693  10.279   6.329 -0.7221  0.2927 -0.2131
  127MOL0     N17027   9.595  10.250   6.219  0.1490  0.3199  0.1808
  127MOL0     C17028   9.477  10.193   6.242  0.3535  0.1528 -0.3554
  127MOL0     C17029   9.419  10.183   6.120 -0.8445  0.2340  0.0481
  127MOL0     C17030   9.276  10.147   6.090  0.1516 -0.7405 -0.0512
  127MOL0     C17031   9.178  10.212   6.194  0.4928 -1.0293  0.0655
  127MOL0     C17032   9.161  10.368   6.192 -0.2548 -0.0188 -0.3192
  127MOL0     C17033   9.114  10.416   6.054  0.2837 -0.1130 -0.1071
  127MOL0     O17034   9.054  10.542   6.078  0.1557 -0.1660 -0.8369
  127MOL0     C17035   8.916  10.546   6.091 -0.6758 -0.5962  0.6197
  127MOL0     C17036   8.862  10.672   6.081  0.2690 -0.1978 -0.1710
  127MOL0     C17037   8.724  10.686   6.082  0.3560 -0.4273 -0.8455
  127MOL0     C17038   8.691  10.829   6.078  0.0120 -0.7960 -1.3098
  127MOL0     C17039   8.636  10.582   6.117  0.0961 -0.2729  0.6850
  127MOL0     C17040   8.496  10.599   6.121 -0.3084  0.4080  0.1341
  127MOL0     O17041   8.431  10.480   6.113  0.3104  0.1821 -0.0039
  127MOL0     C17042   8.294  10.478   6.133 -0.2708 -1.2467  0.5778
  127MOL0     C17043   8.211  10.473   6.025  0.1868  0.3121  0.3177
  127MOL0     C17044   8.073  10.477   6.046  0.0449  0.4177 -0.0569
  127MOL0     C17045   8.020  10.473   6.168  0.3511  0.6294 -0.9042
  127MOL0     O17046   7.889  10.466   6.167  0.4793 -0.1037  0.1271
  127MOL0     C17047   7.813  10.500   6.284 -0.2681 -0.0213 -0.8586
  127MOL0     C17048   7.667  10.535   6.257 -0.9026 -0.2003 -0.5400
  127MOL0     C17049   7.601  10.420   6.183  0.3981  0.1516  0.2471
  127MOL0     C17050   7.463  10.458   6.130  0.0141  0.5716  0.0619
  127MOL0     C17051   7.401  10.332   6.062  0.5562 -0.2280 -0.2462
  127MOL0     C17052   7.246  10.341   6.028 -0.4831 -0.8136  0.5456
  127MOL0     C17053   7.155  10.374   6.158 -0.4769 -0.7305  0.2976
  127MOL0     C17054   7.153  10.262   6.258  0.6375  0.7510 -0.3508
  127MOL0    Cl17055   7.036  10.294   6.386 -0.0156  0.2851  0.6695
  127MOL0     C17056   8.101  10.476   6.283 -0.2045 -0.5345 -0.3747
  127MOL0     C17057   8.240  10.478   6.256  0.0421  0.1210 -0.1641
  127MOL0     O17058   8.442  10.713   6.119  0.4724 -0.7507  0.2287
  127MOL0     C17059   8.696  10.457   6.125  0.5839 -0.3191  0.6808
  127MOL0     C17060   8.832  10.434   6.100 -0.4860 -0.8892  0.3153
  127MOL0     N17061   9.498  10.240   6.024  0.5302 -0.5638  0.0687
  127MOL0     N17062   9.612  10.275   6.085  0.5514 -0.1208  0.6654
  127MOL0     C17063  10.453  10.283   6.810  1.0057  0.2626 -0.3433
  127MOL0     C17064  10.585  10.228   6.824  0.7023  0.9868  1.0006
  127MOL0     C17065  11.036  10.194   6.844  0.4019 -0.1700 -0.0764
  127MOL0     C17066  11.041  10.100   6.944  0.1517  0.2959  0.0817
  127MOL0     C17067  11.156  10.069   7.013 -0.8189  0.4174 -0.1310
  127MOL0     C17068  11.275  10.114   6.970 -0.1204  0.1741  0.6368
  127MOL0     O17069  11.391  10.084   7.035  0.4442  0.3329 -0.4125
  127MOL0     C17070  11.516  10.106   6.977 -0.2687 -0.5548  0.1764
  127MOL0     C17071  11.583  10.242   7.006  0.3385 -0.0201  0.2256
  127MOL0     C17072  11.639  10.266   7.143  0.4801 -0.0480  0.0919
  127MOL0     C17073  11.741  10.385   7.110 -0.1939  0.4623 -0.0995
  127MOL0     C17074  11.798  10.429   7.237  0.3584 -0.1620 -0.3522
  127MOL0     C17075  11.848  10.472   7.336  0.5255  0.4237 -0.7512
  127MOL0     C17076  11.271  10.196   6.863  1.2529 -1.4501  0.2331
  127MOL0     C17077  11.159  10.245   6.799 -0.1077 -0.0332 -0.2213
  127MOL0     H17078  10.743  10.494   6.940  0.6581  1.1330 -1.4432
  127MOL0     H17079  10.528  10.594   6.925  2.5932  0.0554  0.7017
  127MOL0     H17080  10.390  10.668   6.756  2.1975 -1.2876  2.2573
  127MOL0     H17081  10.357  10.542   6.631  0.8367  0.6002  0.1461
  127MOL0     H17082  10.119  10.615   6.789 -2.8916  2.7220 -0.4472
  127MOL0     H17083  10.184  10.743   6.679  2.2659 -0.2653  1.4658
  127MOL0     H17084  10.146  10.603   6.491 -1.2297  0.7289  0.0585
  127MOL0     H17085  10.157  10.452   6.584  0.5411  0.1731  0.1987
  127MOL0     H17086   9.927  10.497   6.692  0.7940  1.3410  0.3974
  127MOL0     H17087   9.910  10.639   6.603  2.9289  1.3099  3.1531
  127MOL0     H17088   9.886  10.535   6.389 -0.0088  1.7905  0.9758
  127MOL0     H17089   9.941  10.376   6.445  2.2576  0.7181  1.8139
  127MOL0     H17090   9.763  10.354   6.585 -0.2150  0.7424  0.6466
  127MOL0     H17091   9.713  10.520   6.581  0.2776  2.0820 -2.4238
  127MOL0     H17092   9.561  10.403   6.437 -1.5911 -1.9455 -3.6822
  127MOL0     H17093   9.666  10.488   6.329 -1.1711 -1.0503 -1.5569
  127MOL0     H17094   9.677  10.195   6.397  1.0505 -0.4050 -0.5877
  127MOL0     H17095   9.797  10.259   6.299 -1.1139 -1.1773 -0.6699
  127MOL0     H17096   9.429  10.174   6.337  1.8647 -2.4771 -0.0389
  127MOL0     H17097   9.246  10.176   5.989  0.8739 -0.1003 -0.0914
  127MOL0     H17098   9.285  10.038   6.099  0.3282 -0.7910 -0.8104
  127MOL0     H17099   9.213  10.167   6.287 -0.6455 -0.8387  0.6046
  127MOL0     H17100   9.074  10.178   6.183 -0.3406  0.0419  3.4766
  127MOL0     H17101   9.258  10.409   6.222 -0.0213 -0.4107 -0.5293
  127MOL0     H17102   9.086  10.394   6.267 -0.0236 -3.1686  1.1398
  127MOL0     H17103   9.041  10.342   6.019  1.8139 -0.6210 -2.3941
  127MOL0     H17104   9.206  10.430   5.996  2.0191 -0.2491  2.4198
  127MOL0     H17105   8.936  10.752   6.078  1.6687 -1.4173  0.8362
  127MOL0     H17106   8.774  10.893   6.046 -1.2089  1.4982 -0.1586
  127MOL0     H17107   8.615  10.850   6.002  0.2183  0.0001 -1.3094
  127MOL0     H17108   8.653  10.872   6.171  2.7270 -0.9031 -0.0431
  127MOL0     H17109   8.249  10.480   5.923 -0.0635 -0.1732  0.1884
  127MOL0     H17110   8.018  10.473   5.953 -1.2908 -1.3774  0.7435
  127MOL0     H17111   7.820  10.417   6.355  1.4468  0.0785 -0.8587
  127MOL0     H17112   7.840  10.585   6.346 -2.9587  1.8836 -2.1190
  127MOL0     H17113   7.621  10.557   6.354  4.2688 -0.2679  2.3047
  127MOL0     H17114   7.664  10.625   6.194  0.6822 -1.5105 -2.6438
  127MOL0     H17115   7.583  10.340   6.255  2.4113  1.3871  2.2722
  127MOL0     H17116   7.653  10.375   6.098 -1.9813 -2.0955 -0.1610
  127MOL0     H17117   7.406  10.484   6.220 -1.0059  0.4545 -0.5349
  127MOL0     H17118   7.451  10.543   6.063  0.0667  1.4410  1.1300
  127MOL0     H17119   7.395  10.247   6.129 -0.0506 -1.5605 -1.9147
  127MOL0     H17120   7.451  10.313   5.966 -2.7178 -2.2055 -1.7078
  127MOL0     H17121   7.226  10.429   5.965 -1.4598 -0.4618  1.3098
  127MOL0     H17122   7.203  10.252   5.982 -1.3442  0.1893 -0.6562
  127MOL0     H17123   7.055  10.394   6.119 -0.3759  1.0003  0.8311
  127MOL0     H17124   7.187  10.471   6.197 -2.3445  0.4974 -1.0380
  127MOL0     H17125   7.251  10.249   6.305 -0.8072 -0.5387  2.5983
  127MOL0     H17126   7.122  10.168   6.210 -0.5689  0.1878  1.4130
  127MOL0     H17127   8.060  10.469   6.383 -0.0909 -1.0407 -0.3629
  127MOL0     H17128   8.311  10.469   6.338  0.3747 -2.0096 -0.6253
  127MOL0     H17129   8.645  10.364   6.149  1.3105 -0.9313 -0.0663
  127MOL0     H17130   8.874  10.335   6.111  1.9239  0.2274  2.0393
  127MOL0     H17131  10.371  10.216   6.789  2.0681 -0.2179 -3.4572
  127MOL0     H17132  10.592  10.124   6.796  1.3045  1.5860 -1.3205
  127MOL0     H17133  10.950  10.043   6.964 -0.5724  0.7899 -1.6271
  127MOL0     H17134  11.149  10.003   7.099  3.3815 -0.0775  0.0531
  127MOL0     H17135  11.584  10.025   7.007 -0.6386 -1.5752 -1.6063
  127MOL0     H17136  11.509  10.081   6.871 -0.0736  2.1009 -0.5196
  127MOL0     H17137  11.500  10.312   6.999 -0.8901 -1.5245 -0.7886
  127MOL0     H17138  11.660  10.265   6.931 -0.4646  0.0403 -0.5880
  127MOL0     H17139  11.682  10.173   7.181 -1.5042 -1.0721 -0.0683
  127MOL0     H17140  11.560  10.300   7.210 -2.7169 -1.6032 -2.5852
  127MOL0     H17141  11.694  10.477   7.073  0.3689  0.0771 -1.8778
  127MOL0     H17142  11.827  10.357   7.048 -0.3864 -1.5092  0.4456
  127MOL0     H17143  11.895  10.501   7.427  0.9822 -1.8540 -0.2034
  127MOL0     H17144  11.362  10.246   6.831 -0.1741  0.1200 -1.6454
  127MOL0     H17145  11.171  10.319   6.721  0.2133 -0.1607 -0.2912
  128MOL0     O17146  10.740   5.974   3.831  0.1870 -0.0465 -0.6866
  128MOL0     C17147  10.861   5.960   3.836  0.4084  0.6779  0.3465
  128MOL0     O17148  10.945   5.935   3.733  0.8210  0.4627 -0.1511
  128MOL0     C17149  10.907   5.954   3.609 -0.7526  0.5593  0.3295
  128MOL0     C17150  10.797   6.018   3.563 -0.5545 -0.0078  0.4189
  128MOL0     C17151  10.761   6.018   3.426 -0.9616  0.1434  0.6620
  128MOL0     C17152  10.850   5.957   3.334 -0.1347  0.0698  0.4718
  128MOL0     O17153  10.813   5.959   3.203  1.1670  0.1942  0.5357
  128MOL0     C17154  10.816   5.831   3.137 -0.0328 -0.3963 -0.7507
  128MOL0     C17155  10.936   5.803   3.048 -0.2091  0.0682  0.1746
  128MOL0     C17156  10.972   5.662   3.032  0.1272  0.4974 -0.8099
  128MOL0     C17157  11.108   5.661   2.959  0.2856 -0.3079  0.2442
  128MOL0     C17158  11.175   5.524   2.975 -0.0124 -0.5617  0.1687
  128MOL0     C17159  11.288   5.504   2.881 -0.4611  0.6998  0.0200
  128MOL0     C17160  11.346   5.364   2.898 -0.0121  0.0537 -0.1783
  128MOL0     C17161  11.443   5.321   2.793  0.1263 -0.9835  0.1053
  128MOL0     N17162  11.566   5.399   2.799 -0.1270 -0.1849  0.5287
  128MOL0     C17163  11.603   5.494   2.703 -0.1179  0.3369  0.1246
  128MOL0     C17164  11.711   5.551   2.761  0.4881  1.0045 -0.5953
  128MOL0     C17165  11.792   5.654   2.702  0.2327  0.6647 -0.9214
  128MOL0     C17166  11.729   5.793   2.713 -0.6020 -0.3059  0.6110
  128MOL0     C17167  11.731   5.850   2.854  0.1387  0.4680  0.0985
  128MOL0     C17168  11.681   5.997   2.852  0.1425 -0.6770 -0.4232
  128MOL0     O17169  11.549   6.001   2.791 -0.3965 -0.4915 -0.7686
  128MOL0     C17170  11.494   6.120   2.757  0.5809  0.2394 -0.0334
  128MOL0     C17171  11.522   6.244   2.828 -0.7606  0.3802  0.3018
  128MOL0     C17172  11.478   6.359   2.777  0.5825  0.6265  0.2279
  128MOL0     C17173  11.524   6.489   2.850  0.5198 -0.0187 -0.2750
  128MOL0     C17174  11.377   6.360   2.681  0.0034  0.1692 -0.4650
  128MOL0     C17175  11.330   6.483   2.617 -0.0392 -0.4384  0.5487
  128MOL0     O17176  11.209   6.466   2.553 -0.6674  0.0445  0.2788
  128MOL0     C17177  11.150   6.575   2.489 -1.1955  0.4838 -0.7740
  128MOL0     C17178  11.040   6.543   2.408 -0.1682 -0.1713 -0.2883
  128MOL0     C17179  10.981   6.633   2.328  0.1832 -0.9991  0.3512
  128MOL0     C17180  11.017   6.773   2.342  0.1237  0.0414 -0.4059
  128MOL0     O17181  10.960   6.885   2.282  0.5563  0.1729  0.1231
  128MOL0     C17182  10.885   6.861   2.163  0.0378 -0.2152  0.0620
  128MOL0     C17183  10.736   6.852   2.197  0.7576 -0.0953 -0.7288
  128MOL0     C17184  10.657   6.798   2.079 -0.1977  0.2009 -0.7405
  128MOL0     C17185  10.507   6.787   2.105 -0.3499 -0.3170 -1.6293
  128MOL0     C17186  10.430   6.790   1.972  0.4381 -0.2417  0.5468
  128MOL0     C17187  10.283   6.793   1.996  0.1889 -0.0464  0.5523
  128MOL0     C17188  10.209   6.760   1.864  0.4726  0.0021 -0.5327
  128MOL0     C17189  10.061   6.751   1.886 -0.4012 -0.6446 -0.2991
  128MOL0    Cl17190  10.046   6.616   2.016 -0.0549 -0.6487  0.0080
  128MOL0     C17191  11.127   6.807   2.416  0.2594  1.0217 -0.4838
  128MOL0     C17192  11.192   6.709   2.487  0.2696  0.0895 -0.5444
  128MOL0     O17193  11.414   6.578   2.601  0.3485 -0.4190 -0.2225
  128MOL0     C17194  11.324   6.232   2.629  0.1663  0.3937 -0.2729
  128MOL0     C17195  11.395   6.114   2.660 -0.3545 -0.2225  0.8889
  128MOL0     N17196  11.734   5.501   2.882 -0.3175 -0.1706 -0.1441
  128MOL0     N17197  11.657   5.402   2.901  0.2320 -0.3036  0.0029
  128MOL0     C17198  10.972   5.904   3.384  0.5157 -0.2311  0.4872
  128MOL0     C17199  10.993   5.898   3.516 -0.3676 -0.2258  0.4205
  128MOL0     C17200  10.913   5.967   3.976  0.0845 -0.6444  0.2200
  128MOL0     C17201  11.052   5.963   4.003 -0.8498  0.5464 -0.4043
  128MOL0     C17202  11.109   5.970   4.131 -0.4462  0.0145 -0.0745
  128MOL0     C17203  11.023   6.004   4.239  0.2687 -0.1507  0.0436
  128MOL0     O17204  11.068   6.015   4.366  0.0461 -0.0339 -0.0278
  128MOL0     C17205  11.194   6.093   4.383  0.1704  0.4404 -0.1553
  128MOL0     C17206  11.181   6.148   4.524 -0.3051 -0.4764  0.4452
  128MOL0     C17207  11.159   6.051   4.639  0.4356 -0.7409  0.0262
  128MOL0     C17208  11.285   5.999   4.699  0.3563 -0.3043  0.2800
  128MOL0     C17209  11.342   5.889   4.619 -0.7748  0.1735  0.3791
  128MOL0     C17210  11.384   5.797   4.552 -0.3806 -0.0194 -0.0732
  128MOL0     C17211  10.889   6.022   4.214 -0.2970  0.4201 -0.4725
  128MOL0     C17212  10.834   5.997   4.090 -0.2978 -0.3259  0.0406
  128MOL0     H17213  10.732   6.059   3.639 -0.8493 -2.6293  1.7153
  128MOL0     H17214  10.672   6.072   3.393 -2.2538 -1.1234  1.9026
  128MOL0     H17215  10.801   5.752   3.212 -0.1877  0.8360  0.5537
  128MOL0     H17216  10.728   5.824   3.073 -0.6964 -2.9619  0.2872
  128MOL0     H17217  10.917   5.852   2.952 -1.8954 -1.1163 -0.1567
  128MOL0     H17218  11.019   5.854   3.098  0.0851 -0.5577  0.3285
  128MOL0     H17219  10.985   5.610   3.128  5.2670 -2.1860 -2.6295
  128MOL0     H17220  10.887   5.612   2.983 -1.2801 -1.1185  2.8960
  128MOL0     H17221  11.089   5.690   2.855  0.2104 -1.7408 -0.1568
  128MOL0     H17222  11.173   5.741   2.996 -1.4537  2.1432 -1.6695
  128MOL0     H17223  11.196   5.514   3.082  0.8741  2.6870  0.3941
  128MOL0     H17224  11.104   5.448   2.940  0.3714  0.0874 -2.1985
  128MOL0     H17225  11.255   5.519   2.777 -3.0501  2.7214  0.9943
  128MOL0     H17226  11.361   5.582   2.905  2.7689 -1.5957 -1.6470
  128MOL0     H17227  11.396   5.361   2.995  1.0089  0.7133 -0.6619
  128MOL0     H17228  11.264   5.291   2.899 -1.8523  2.0106  0.5167
  128MOL0     H17229  11.394   5.333   2.696  0.5196  1.6751  0.1574
  128MOL0     H17230  11.460   5.213   2.795 -0.5619 -1.1343 -1.2028
  128MOL0     H17231  11.564   5.517   2.604  1.7352 -1.9860 -1.2620
  128MOL0     H17232  11.885   5.644   2.760  0.6748  0.6778 -1.6157
  128MOL0     H17233  11.824   5.636   2.599 -1.8462 -0.2733 -1.4497
  128MOL0     H17234  11.624   5.790   2.683 -1.7176 -0.0173  4.0604
  128MOL0     H17235  11.793   5.853   2.647 -0.7644 -0.1740  0.5735
  128MOL0     H17236  11.833   5.843   2.891 -0.5201 -0.2682  1.9224
  128MOL0     H17237  11.666   5.790   2.919 -0.0439 -0.2533 -0.7329
  128MOL0     H17238  11.750   6.059   2.794 -0.3895  1.4311  1.1005
  128MOL0     H17239  11.678   6.030   2.956  0.9721 -0.6024 -0.4158
  128MOL0     H17240  11.584   6.241   2.917 -1.8095 -2.6897  1.0532
  128MOL0     H17241  11.584   6.466   2.939 -0.0858 -0.7884 -0.0503
  128MOL0     H17242  11.580   6.555   2.783 -0.6676  3.5877  1.9964
  128MOL0     H17243  11.428   6.532   2.881  0.6095  0.0580 -0.1046
  128MOL0     H17244  11.001   6.442   2.402  2.3503 -1.3562  1.6052
  128MOL0     H17245  10.904   6.602   2.259 -0.0143  2.1828 -1.0558
  128MOL0     H17246  10.898   6.940   2.088 -0.1178  1.7057  1.9762
  128MOL0     H17247  10.919   6.770   2.113  0.9937 -1.1344  2.2634
  128MOL0     H17248  10.723   6.781   2.279  0.1363  1.1467  0.2753
  128MOL0     H17249  10.697   6.948   2.230  2.6529 -0.4356  2.9690
  128MOL0     H17250  10.697   6.701   2.048  0.2014  0.4797 -1.1126
  128MOL0     H17251  10.665   6.861   1.990 -2.6760 -0.8610 -1.8316
  128MOL0     H17252  10.489   6.702   2.171  3.2401  0.6992  0.9343
  128MOL0     H17253  10.471   6.871   2.165 -1.4534 -4.0520  3.5420
  128MOL0     H17254  10.454   6.704   1.910 -1.6558 -0.0095 -0.6725
  128MOL0     H17255  10.456   6.882   1.919  1.6148 -1.0478 -0.3106
  128MOL0     H17256  10.275   6.716   2.074  1.5161  1.6950  2.5165
  128MOL0     H17257  10.245   6.886   2.039  2.2152  1.9606 -1.6570
  128MOL0     H17258  10.249   6.669   1.819  0.5223  0.2549 -1.0008
  128MOL0     H17259  10.225   6.843   1.795  0.5342  1.4647  1.1610
  128MOL0     H17260  10.030   6.722   1.785 -1.1301 -1.0142  0.0162
  128MOL0     H17261  10.014   6.845   1.916 -1.0548 -1.3106  0.8522
  128MOL0     H17262  11.171   6.906   2.424  0.3111  0.8540  4.4325
  128MOL0     H17263  11.272   6.745   2.550  1.3974 -2.9293 -0.0661
  128MOL0     H17264  11.245   6.221   2.556  1.0118 -1.1177 -0.9959
  128MOL0     H17265  11.364   6.023   2.609  0.1807  0.3317 -0.4824
  128MOL0     H17266  11.052   5.870   3.318  0.8041 -0.5969  1.0172
  128MOL0     H17267  11.081   5.841   3.542 -1.7676 -2.1173  1.2687
  128MOL0     H17268  11.121   5.952   3.920 -2.1639  1.6619 -1.7155
  128MOL0     H17269  11.215   5.963   4.153  0.4907 -0.8029 -4.1423
  128MOL0     H17270  11.284   6.032   4.376  0.0229  0.0245  1.1169
  128MOL0     H17271  11.199   6.167   4.304 -3.0744 -1.2090 -2.1519
  128MOL0     H17272  11.090   6.209   4.532  0.0056 -0.2414  4.7747
  128MOL0     H17273  11.264   6.217   4.546  0.5489 -1.0361 -0.9339
  128MOL0     H17274  11.100   5.967   4.601 -1.4168  0.6243 -0.3077
  128MOL0     H17275  11.096   6.105   4.711 -0.0221 -1.8990  0.5206
  128MOL0     H17276  11.258   5.961   4.798  1.0514  2.0847  1.4668
  128MOL0     H17277  11.355   6.083   4.707 -0.4064  0.3930 -0.2431
  128MOL0     H17278  11.414   5.712   4.494  0.5078  0.1011  0.1932
  128MOL0     H17279  10.821   6.059   4.291  0.5077  1.6868 -0.3372
  128MOL0     H17280  10.728   6.011   4.076  0.1356  1.3675 -1.9008
  129MOL0     O17281   3.141   4.937   0.523  0.0852 -0.8059  0.5998
  129MOL0     C17282   3.185   4.891   0.628  0.4775  0.8867  0.5188
  129MOL0     O17283   3.127   4.922   0.754 -0.1274 -0.3232 -0.1053
  129MOL0     C17284   3.013   5.007   0.740 -0.0072  0.5350  0.2009
  129MOL0     C17285   2.891   4.950   0.780 -0.2983 -0.4528  0.1309
  129MOL0     C17286   2.771   5.023   0.781 -0.9017  0.0655  0.1453
  129MOL0     C17287   2.785   5.162   0.743 -0.4946  0.6065  0.8139
  129MOL0     O17288   2.666   5.235   0.726  0.3826 -0.0865  0.2066
  129MOL0     C17289   2.662   5.369   0.668 -0.9634  1.1465  0.2313
  129MOL0     C17290   2.531   5.434   0.677 -0.1388 -1.1237 -0.3530
  129MOL0     C17291   2.514   5.497   0.821  0.1908 -0.0762 -0.4672
  129MOL0     C17292   2.387   5.577   0.848 -0.6066  0.0458 -0.5615
  129MOL0     C17293   2.265   5.498   0.812 -0.2558  0.3322  0.4920
  129MOL0     C17294   2.235   5.376   0.901 -0.2216 -0.0984  0.2970
  129MOL0     C17295   2.087   5.332   0.895  0.2575 -0.4277  0.3487
  129MOL0     C17296   2.037   5.303   0.752  0.6186  0.1308  1.1374
  129MOL0     N17297   2.063   5.167   0.703 -0.2739 -0.4021 -0.4342
  129MOL0     C17298   2.157   5.144   0.607 -0.4455  0.8801  0.2951
  129MOL0     C17299   2.127   5.011   0.564 -0.0460  0.5244 -0.1303
  129MOL0     C17300   2.204   4.918   0.468 -0.8206 -0.4552  0.0004
  129MOL0     C17301   2.339   4.877   0.521 -1.1168  0.5116  0.8326
  129MOL0     C17302   2.447   4.983   0.485  0.3665  0.6459  0.0284
  129MOL0     C17303   2.584   4.911   0.481  0.0689  0.2013  0.6219
  129MOL0     O17304   2.596   4.841   0.354 -0.4603 -0.0536  0.4939
  129MOL0     C17305   2.687   4.737   0.336  0.4758 -0.1994  0.9780
  129MOL0     C17306   2.798   4.721   0.421  0.4511  0.1974  0.9737
  129MOL0     C17307   2.899   4.631   0.398  0.1691  1.3585 -0.1645
  129MOL0     C17308   3.013   4.625   0.499  0.6038  0.2020 -0.5118
  129MOL0     C17309   2.897   4.561   0.273 -0.6022  0.1714  0.1623
  129MOL0     C17310   3.011   4.478   0.215 -0.2245  0.2508  0.1475
  129MOL0     O17311   3.030   4.461   0.074  0.3337 -0.5974  0.0233
  129MOL0     C17312   3.138   4.398   0.027 -0.1664 -0.0170  0.2811
  129MOL0     C17313   3.264   4.419   0.082 -0.6211 -0.2291  0.1194
  129MOL0     C17314   3.378   4.342   0.035  1.1770 -0.3935 -0.3780
  129MOL0     C17315   3.365   4.257  -0.076 -0.2186  0.1968  0.5940
  129MOL0     O17316   3.482   4.189  -0.116  0.5103  0.2347  0.2199
  129MOL0     C17317   3.476   4.114  -0.234  0.2794  0.2575 -0.0893
  129MOL0     C17318   3.594   4.006  -0.244 -0.0124 -0.9042  0.1198
  129MOL0     C17319   3.612   3.968  -0.386  0.8156  0.6420  0.4443
  129MOL0     C17320   3.756   3.926  -0.399 -0.0789 -0.1275 -0.2710
  129MOL0     C17321   3.774   3.869  -0.543  0.1763  0.2453 -0.2835
  129MOL0     C17322   3.918   3.819  -0.555 -0.3069  1.0365 -0.6568
  129MOL0     C17323   3.935   3.774  -0.695  0.5067 -0.2696 -0.5431
  129MOL0     C17324   4.079   3.745  -0.741  0.3468  0.0884  0.3640
  129MOL0    Cl17325   4.204   3.881  -0.733  0.1030  0.4453 -0.2278
  129MOL0     C17326   3.240   4.265  -0.147 -0.5777  0.9907 -0.3549
  129MOL0     C17327   3.130   4.331  -0.094  0.4572  0.1153 -0.3021
  129MOL0     O17328   3.072   4.412   0.302  0.4199  0.4363  0.4077
  129MOL0     C17329   2.795   4.584   0.179  1.2416 -0.7830 -0.2800
  129MOL0     C17330   2.686   4.668   0.212  0.6684 -0.8698  0.6025
  129MOL0     N17331   2.019   4.964   0.644  0.3792 -0.1122 -0.4097
  129MOL0     N17332   1.986   5.064   0.724  0.5469  1.5635  0.0675
  129MOL0     C17333   2.908   5.211   0.701 -0.7667 -0.0920  0.0455
  129MOL0     C17334   3.023   5.142   0.710  0.2737  0.9006 -0.3850
  129MOL0     C17335   3.312   4.813   0.623  0.0389 -0.4430 -0.6777
  129MOL0     C17336   3.371   4.773   0.751 -0.2921 -0.7184  0.7879
  129MOL0     C17337   3.487   4.695   0.754  0.3866 -0.0383 -0.2551
  129MOL0     C17338   3.549   4.659   0.633 -0.7402 -0.9257 -0.3152
  129MOL0     O17339   3.671   4.590   0.637  0.9767  0.3628  0.2323
  129MOL0     C17340   3.734   4.548   0.521 -0.4653  0.1609 -0.4004
  129MOL0     C17341   3.859   4.468   0.553  0.4881 -0.1867  1.3532
  129MOL0     C17342   3.977   4.557   0.576  0.4720  0.0387 -0.1148
  129MOL0     C17343   4.093   4.478   0.641 -0.0054  0.8612  0.4143
  129MOL0     C17344   4.144   4.389   0.540  0.3780 -0.3568 -1.3075
  129MOL0     C17345   4.159   4.305   0.453 -0.0074  0.2865 -0.4161
  129MOL0     C17346   3.500   4.706   0.512  0.0193 -0.3297  0.2622
  129MOL0     C17347   3.383   4.774   0.508  0.3090  0.3491 -0.1629
  129MOL0     H17348   2.890   4.842   0.795  0.6207 -0.6593 -1.1426
  129MOL0     H17349   2.673   4.977   0.792 -0.3017 -0.8147  2.3718
  129MOL0     H17350   2.730   5.421   0.736  0.5094  0.0478 -0.3193
  129MOL0     H17351   2.711   5.374   0.570 -1.0177 -0.0093  0.1236
  129MOL0     H17352   2.525   5.512   0.600  0.4506 -1.3017 -0.5840
  129MOL0     H17353   2.450   5.363   0.658 -2.1348  0.8148  0.4283
  129MOL0     H17354   2.513   5.413   0.891 -0.9971  1.2677  1.2106
  129MOL0     H17355   2.607   5.554   0.834  2.4691 -3.7664  0.8915
  129MOL0     H17356   2.393   5.605   0.953 -4.1836  1.1355 -0.5104
  129MOL0     H17357   2.386   5.668   0.787  1.3705 -0.2852 -1.1664
  129MOL0     H17358   2.187   5.572   0.830 -2.4009 -0.9923 -2.5425
  129MOL0     H17359   2.257   5.464   0.709 -5.0445 -0.4673  0.8654
  129MOL0     H17360   2.307   5.295   0.884 -3.3832 -3.3289  1.2126
  129MOL0     H17361   2.246   5.408   1.005  0.7666 -0.0850  0.2019
  129MOL0     H17362   2.068   5.244   0.957 -1.8358 -1.4503 -1.6026
  129MOL0     H17363   2.023   5.404   0.947 -0.7858  0.6839 -2.3102
  129MOL0     H17364   2.058   5.381   0.679 -2.6638  0.8689  0.8243
  129MOL0     H17365   1.928   5.298   0.757  0.4438 -0.4734 -1.5725
  129MOL0     H17366   2.236   5.210   0.572 -0.7760  1.1143 -0.0184
  129MOL0     H17367   2.140   4.831   0.450 -2.1776  0.8676 -1.9387
  129MOL0     H17368   2.208   4.961   0.368 -0.0173 -3.2192 -1.2403
  129MOL0     H17369   2.372   4.778   0.489  1.9141  1.2627  1.3580
  129MOL0     H17370   2.331   4.859   0.629  0.8575 -0.0584  0.9243
  129MOL0     H17371   2.435   5.058   0.563 -2.9939 -0.1885  0.4803
  129MOL0     H17372   2.431   5.019   0.383 -3.8250 -0.1288  0.2122
  129MOL0     H17373   2.582   4.851   0.572  0.8674 -0.8744 -0.0475
  129MOL0     H17374   2.656   4.990   0.504  0.0284 -0.2283  2.3555
  129MOL0     H17375   2.792   4.779   0.513  2.7018  0.4849  0.9926
  129MOL0     H17376   3.037   4.522   0.530 -1.7149 -1.3337 -3.3247
  129MOL0     H17377   3.106   4.668   0.461  0.7065 -0.5290 -1.1095
  129MOL0     H17378   2.982   4.680   0.588 -0.8621  0.7952 -1.3530
  129MOL0     H17379   3.270   4.483   0.170  0.8968 -0.5808  0.2911
  129MOL0     H17380   3.469   4.354   0.093 -0.3454  0.1245  2.0418
  129MOL0     H17381   3.385   4.052  -0.232  0.3223  0.1980  0.0537
  129MOL0     H17382   3.479   4.179  -0.321  0.8356 -0.0652 -0.3155
  129MOL0     H17383   3.680   4.060  -0.203 -0.2170  0.2267 -0.8816
  129MOL0     H17384   3.577   3.919  -0.180 -1.7972  0.8847  2.2301
  129MOL0     H17385   3.607   4.055  -0.452 -0.0271  0.0140 -0.3566
  129MOL0     H17386   3.532   3.899  -0.417  0.8419  0.3122  1.1077
  129MOL0     H17387   3.831   4.003  -0.378  1.0607 -1.4671  0.7912
  129MOL0     H17388   3.774   3.850  -0.322 -2.8272  1.2456  1.8906
  129MOL0     H17389   3.750   3.937  -0.625 -0.9732  0.1340 -0.0591
  129MOL0     H17390   3.712   3.781  -0.562 -0.0092  0.0649  1.0785
  129MOL0     H17391   3.979   3.908  -0.536  0.0673  0.8794 -1.1052
  129MOL0     H17392   3.939   3.736  -0.487 -0.0284 -0.5755 -2.6232
  129MOL0     H17393   3.885   3.841  -0.765 -1.8349  0.6380  1.8733
  129MOL0     H17394   3.878   3.681  -0.686 -0.7727  0.6738  1.9439
  129MOL0     H17395   4.077   3.703  -0.842 -1.5991 -1.9896  1.1854
  129MOL0     H17396   4.112   3.671  -0.668  1.6432  1.0369  0.7873
  129MOL0     H17397   3.222   4.204  -0.235 -3.8338  0.6767  0.3999
  129MOL0     H17398   3.040   4.328  -0.155  1.0673  0.9650 -1.2820
  129MOL0     H17399   2.802   4.536   0.082  1.4862  0.7804 -1.0641
  129MOL0     H17400   2.603   4.685   0.143  0.4630  0.8199  1.2267
  129MOL0     H17401   2.924   5.311   0.662 -0.3314 -0.7078 -1.3907
  129MOL0     H17402   3.120   5.188   0.694  1.7230 -1.5543  0.7818
  129MOL0     H17403   3.330   4.813   0.843 -1.7892  2.3883 -1.0628
  129MOL0     H17404   3.516   4.661   0.853 -1.6550 -2.7154 -0.4602
  129MOL0     H17405   3.664   4.490   0.459 -0.1414  0.2751 -0.8850
  129MOL0     H17406   3.762   4.640   0.467  0.9201  0.3915  0.6691
  129MOL0     H17407   3.883   4.402   0.469  0.7935 -0.9825  2.0504
  129MOL0     H17408   3.846   4.397   0.636  2.8214 -2.9803 -0.4632
  129MOL0     H17409   3.944   4.641   0.637  1.0993 -0.5011  0.9947
  129MOL0     H17410   4.003   4.589   0.475 -0.3090 -1.0988 -0.7060
  129MOL0     H17411   4.069   4.424   0.733 -0.8334  0.9269  0.2418
  129MOL0     H17412   4.175   4.548   0.657  2.3820 -0.8291 -3.1713
  129MOL0     H17413   4.185   4.234   0.377  2.7645  0.5269  0.2022
  129MOL0     H17414   3.559   4.696   0.422 -1.0834 -0.8030 -0.4191
  129MOL0     H17415   3.335   4.806   0.416  0.5424 -1.2828 -0.8777
  130MOL0     O17416   4.958   0.986   5.625 -0.0368  0.2190 -0.2436
  130MOL0     C17417   5.002   0.930   5.723 -0.6645  0.2492  0.0908
  130MOL0     O17418   4.939   0.913   5.846 -0.4716 -0.0231 -0.1714
  130MOL0     C17419   4.813   0.957   5.876  0.8701  1.1649  0.2142
  130MOL0     C17420   4.772   0.911   6.001 -0.8941 -0.3254  0.3371
  130MOL0     C17421   4.646   0.938   6.044 -0.3555 -0.5154 -0.2516
  130MOL0     C17422   4.565   1.035   5.981 -0.5985 -0.4642  0.0175
  130MOL0     O17423   4.447   1.061   6.041  0.1578  0.4130 -0.3769
  130MOL0     C17424   4.355   1.147   5.978  0.1504  0.8394 -0.1216
  130MOL0     C17425   4.241   1.162   6.072  0.3579 -0.7450 -0.1577
  130MOL0     C17426   4.125   1.233   6.010  0.1897 -0.1411 -0.2571
  130MOL0     C17427   4.033   1.273   6.120 -0.0954  0.1454 -0.1965
  130MOL0     C17428   3.920   1.349   6.054 -0.4631  0.1945  0.6419
  130MOL0     C17429   3.828   1.389   6.165 -0.8835  0.5262 -0.4195
  130MOL0     C17430   3.706   1.459   6.124 -0.5332 -0.5796 -0.1945
  130MOL0     C17431   3.648   1.414   5.992  0.8456 -0.7847 -0.1178
  130MOL0     N17432   3.523   1.484   5.955 -0.2348  0.5718  0.5290
  130MOL0     C17433   3.469   1.585   6.025  0.2033  0.2036  0.1689
  130MOL0     C17434   3.356   1.612   5.957 -0.8122  0.6277  0.1652
  130MOL0     C17435   3.244   1.704   5.995  0.0555  0.3877  0.3638
  130MOL0     C17436   3.276   1.854   5.956 -0.0175 -0.4185 -0.6688
  130MOL0     C17437   3.225   1.952   6.067  0.0788 -0.1248 -0.0199
  130MOL0     C17438   3.077   1.932   6.112  0.3246  0.7132  0.3212
  130MOL0     O17439   2.998   1.967   5.997  0.4293  0.2442 -0.2713
  130MOL0     C17440   2.860   1.967   6.013 -0.0276  0.4095 -0.3943
  130MOL0     C17441   2.789   2.029   5.913 -0.1524 -0.8241  0.1935
  130MOL0     C17442   2.646   2.041   5.903 -0.6502  0.6942 -0.5938
  130MOL0     C17443   2.595   2.111   5.778  0.1822  1.0467  0.0332
  130MOL0     C17444   2.574   1.990   6.012  0.4133 -0.8477  0.4594
  130MOL0     C17445   2.430   1.999   6.022  0.3411 -0.7552  0.5452
  130MOL0     O17446   2.354   1.987   5.913 -0.4169  0.4372  0.4237
  130MOL0     C17447   2.222   2.004   5.922  0.3666 -0.2834 -0.5088
  130MOL0     C17448   2.176   2.128   5.875  0.2284 -0.5506  0.3586
  130MOL0     C17449   2.040   2.147   5.865  0.1154 -0.5809 -0.2775
  130MOL0     C17450   1.948   2.054   5.912  0.0584 -0.6293  0.4179
  130MOL0     O17451   1.819   2.096   5.900 -0.0997  0.7953  0.9244
  130MOL0     C17452   1.710   2.002   5.927  0.4479  0.6730 -0.6488
  130MOL0     C17453   1.589   2.069   5.877  0.4464  0.5831 -1.3698
  130MOL0     C17454   1.469   1.979   5.889  0.1188  1.1280  0.0959
  130MOL0     C17455   1.352   2.060   5.845 -0.1176 -0.3927  0.1317
  130MOL0     C17456   1.229   1.959   5.855 -0.3576 -0.6678 -0.2348
  130MOL0     C17457   1.092   2.033   5.839  0.3528 -0.6230 -0.2208
  130MOL0     C17458   0.988   1.934   5.864 -0.0779 -1.0532 -0.9718
  130MOL0     C17459   0.854   1.990   5.917 -0.2524 -0.1102 -0.2172
  130MOL0    Cl17460   0.779   2.094   5.797 -0.2089 -0.0258  0.3841
  130MOL0     C17461   1.984   1.932   5.960 -0.1494  0.0993 -1.2526
  130MOL0     C17462   2.124   1.915   5.973 -0.2521 -0.7240  0.0813
  130MOL0     O17463   2.387   2.025   6.133 -0.2805  0.3478  0.5194
  130MOL0     C17464   2.645   1.934   6.118 -0.1110  0.6484  0.3540
  130MOL0     C17465   2.784   1.918   6.113  1.2209  0.5867 -0.4051
  130MOL0     N17466   3.351   1.538   5.842  0.8689  0.5012  0.0132
  130MOL0     N17467   3.455   1.454   5.840  0.1948 -1.2557 -0.7614
  130MOL0     C17468   4.605   1.072   5.855  0.1256  0.4475 -0.3819
  130MOL0     C17469   4.726   1.032   5.800 -1.4167 -0.0616  0.3207
  130MOL0     C17470   5.136   0.879   5.708  0.5513  0.2593  0.0976
  130MOL0     C17471   5.211   0.917   5.597 -0.5629 -0.8075 -0.1915
  130MOL0     C17472   5.344   0.892   5.588  0.7757  0.0354 -0.2634
  130MOL0     C17473   5.409   0.817   5.695 -0.2029  0.3696 -0.0903
  130MOL0     O17474   5.547   0.808   5.686  0.4845  0.2800  0.0939
  130MOL0     C17475   5.615   0.713   5.780 -0.4852  0.4062  0.4864
  130MOL0     C17476   5.674   0.773   5.904 -0.6683 -0.4433 -1.2587
  130MOL0     C17477   5.750   0.674   5.985  0.1260 -0.9259  0.6161
  130MOL0     C17478   5.850   0.736   6.076 -0.8943  0.6770  0.4401
  130MOL0     C17479   5.965   0.783   6.006  0.3142  0.4242 -0.0898
  130MOL0     C17480   6.062   0.835   5.948 -0.4846  0.2101 -0.2986
  130MOL0     C17481   5.341   0.795   5.813  0.3835 -0.0056  1.1055
  130MOL0     C17482   5.198   0.820   5.817 -0.7089  0.3113 -0.3394
  130MOL0     H17483   4.849   0.847   6.044  0.1454 -0.7188 -1.9445
  130MOL0     H17484   4.621   0.903   6.143  0.6428 -0.3415  0.0672
  130MOL0     H17485   4.398   1.243   5.951 -0.4636  0.9812 -0.6247
  130MOL0     H17486   4.319   1.087   5.894  1.0383  0.0369  0.0471
  130MOL0     H17487   4.201   1.071   6.118 -3.2418  0.1923 -1.1243
  130MOL0     H17488   4.280   1.227   6.152  1.7275 -0.5039 -0.9966
  130MOL0     H17489   4.163   1.324   5.963 -2.1584  0.7896 -0.4951
  130MOL0     H17490   4.086   1.163   5.936  3.2691  0.7623 -2.9506
  130MOL0     H17491   3.999   1.188   6.179 -0.1076  1.0085  1.0787
  130MOL0     H17492   4.094   1.335   6.187 -0.0991 -1.8048  1.7318
  130MOL0     H17493   3.951   1.430   5.987 -0.4206 -0.6505 -0.4003
  130MOL0     H17494   3.873   1.277   5.986 -1.5928  0.0755  1.5196
  130MOL0     H17495   3.805   1.308   6.234  2.8039  0.5223  1.0627
  130MOL0     H17496   3.882   1.463   6.225 -2.4678  2.2837 -1.0514
  130MOL0     H17497   3.643   1.460   6.213 -0.3914 -1.9802 -0.0573
  130MOL0     H17498   3.732   1.563   6.104 -0.4651 -0.8496 -1.6312
  130MOL0     H17499   3.628   1.306   5.983 -1.1641 -0.5114  0.5908
  130MOL0     H17500   3.731   1.448   5.930  1.4504  1.8005  1.9397
  130MOL0     H17501   3.505   1.613   6.124 -0.4562 -0.2209  0.5381
  130MOL0     H17502   3.145   1.674   5.959  0.6803 -0.3175 -0.8558
  130MOL0     H17503   3.223   1.691   6.101 -0.6981 -1.5690  0.0230
  130MOL0     H17504   3.220   1.872   5.864  0.3261 -1.8768 -1.1870
  130MOL0     H17505   3.385   1.865   5.947 -0.0226 -1.6368 -2.8188
  130MOL0     H17506   3.248   2.054   6.035 -0.9685 -0.5125 -2.1760
  130MOL0     H17507   3.291   1.940   6.154 -0.2740  0.1467  0.2882
  130MOL0     H17508   3.052   1.997   6.196 -1.4447 -0.9472  1.1576
  130MOL0     H17509   3.068   1.828   6.145  2.8744  0.4782  0.4956
  130MOL0     H17510   2.848   2.067   5.830 -1.1894 -0.4263 -0.3838
  130MOL0     H17511   2.671   2.173   5.730 -0.3664  2.2528  0.6750
  130MOL0     H17512   2.557   2.034   5.710 -1.0123  1.3069  0.3930
  130MOL0     H17513   2.520   2.183   5.812  1.5456  2.9986 -0.8783
  130MOL0     H17514   2.229   2.210   5.827 -0.8820 -0.3124 -0.4880
  130MOL0     H17515   2.005   2.241   5.826 -1.0981 -1.0027 -0.2566
  130MOL0     H17516   1.729   1.905   5.880 -0.8262 -0.9640  1.9479
  130MOL0     H17517   1.703   1.992   6.036  2.8219 -1.3552 -0.5644
  130MOL0     H17518   1.560   2.161   5.929 -2.0026  0.2005 -1.9777
  130MOL0     H17519   1.605   2.089   5.770  1.2230  0.8289 -1.2182
  130MOL0     H17520   1.457   1.941   5.991  1.0010 -0.1966 -0.2737
  130MOL0     H17521   1.480   1.891   5.825  0.7923  1.3556 -0.1122
  130MOL0     H17522   1.340   2.146   5.911  0.7826  0.5530 -0.9086
  130MOL0     H17523   1.357   2.089   5.740 -0.5599  1.3689  0.5641
  130MOL0     H17524   1.241   1.906   5.949  3.5939  1.9368  0.9758
  130MOL0     H17525   1.231   1.876   5.784  0.4149 -0.1680 -0.8117
  130MOL0     H17526   1.093   2.100   5.926 -1.2098  0.6827 -1.1598
  130MOL0     H17527   1.073   2.101   5.756 -1.0314 -0.8985 -0.1470
  130MOL0     H17528   1.015   1.851   5.931 -2.0050 -0.0847  1.1498
  130MOL0     H17529   0.977   1.885   5.767 -2.8368 -1.2122 -0.6462
  130MOL0     H17530   0.861   2.034   6.017 -2.2324 -0.2403  0.0124
  130MOL0     H17531   0.792   1.900   5.924  0.8701 -0.7730  2.5595
  130MOL0     H17532   1.918   1.850   5.988  2.2318 -1.6526 -0.3777
  130MOL0     H17533   2.158   1.827   6.026 -1.8588 -1.7362 -0.5035
  130MOL0     H17534   2.581   1.902   6.200  1.5541  2.0869  2.3326
  130MOL0     H17535   2.839   1.863   6.188  0.0674  1.9434  1.5150
  130MOL0     H17536   4.533   1.134   5.803 -1.3675  0.4159  1.5511
  130MOL0     H17537   4.753   1.059   5.698 -1.1520 -1.7580 -0.0822
  130MOL0     H17538   5.158   0.972   5.520  1.5876  2.1264  0.2481
  130MOL0     H17539   5.406   0.927   5.505  0.5913 -0.9661 -0.8489
  130MOL0     H17540   5.543   0.633   5.799 -0.9250  0.7440  0.2679
  130MOL0     H17541   5.695   0.658   5.729  0.1490  0.7471  1.0884
  130MOL0     H17542   5.595   0.813   5.968  1.4483 -1.3123  2.2158
  130MOL0     H17543   5.740   0.853   5.869  0.7732 -0.2679  1.5545
  130MOL0     H17544   5.804   0.612   5.912 -0.4386 -0.4742 -0.1966
  130MOL0     H17545   5.671   0.624   6.041 -1.2079  1.7198  1.2800
  130MOL0     H17546   5.882   0.651   6.137  3.2432  1.2326 -0.6522
  130MOL0     H17547   5.803   0.801   6.151 -0.0796  0.2221  1.3559
  130MOL0     H17548   6.151   0.884   5.914  1.1773 -2.0977  0.4196
  130MOL0     H17549   5.378   0.752   5.906 -0.2594 -3.9014 -0.2226
  130MOL0     H17550   5.134   0.800   5.902  1.5946 -1.7277  1.0689
  131MOL0     O17551  10.136   4.794   0.104  0.0194 -0.4322 -0.7807
  131MOL0     C17552  10.079   4.904   0.107 -0.2535 -0.2345 -0.0846
  131MOL0     O17553   9.948   4.928   0.131  0.0309  0.2350 -0.2839
  131MOL0     C17554   9.871   4.816   0.147 -0.5637  0.4355  1.0352
  131MOL0     C17555   9.832   4.733   0.043  0.7697  0.0910  0.0531
  131MOL0     C17556   9.730   4.636   0.061 -0.6577 -0.3753  0.3317
  131MOL0     C17557   9.681   4.615   0.188 -0.1994  0.4055 -0.6600
  131MOL0     O17558   9.586   4.516   0.218 -0.3812 -0.3793 -0.2402
  131MOL0     C17559   9.525   4.436   0.111  0.0485 -0.2364 -0.0249
  131MOL0     C17560   9.446   4.314   0.164 -0.2532 -0.2029  0.3535
  131MOL0     C17561   9.357   4.251   0.057  0.4112 -0.2314 -0.8444
  131MOL0     C17562   9.284   4.126   0.110 -0.3187 -0.1305  0.4629
  131MOL0     C17563   9.167   4.089   0.018  0.2158  0.7989  0.7843
  131MOL0     C17564   9.113   3.940   0.035  0.0015  0.4463 -1.1160
  131MOL0     C17565   8.986   3.913  -0.046  0.4213 -0.1298 -0.0697
  131MOL0     C17566   8.886   3.821   0.024  1.1279 -0.6366  0.5006
  131MOL0     N17567   8.771   3.805  -0.060  0.1589  0.5179  0.7411
  131MOL0     C17568   8.655   3.874  -0.053 -0.5405  0.7132  0.1717
  131MOL0     C17569   8.566   3.805  -0.129  0.8720 -0.2636 -1.1888
  131MOL0     C17570   8.423   3.860  -0.149 -1.4342  0.5938 -0.1494
  131MOL0     C17571   8.365   3.905  -0.013 -0.7945  0.1503  0.3948
  131MOL0     C17572   8.211   3.915  -0.018  0.0761 -0.5401 -0.3039
  131MOL0     C17573   8.163   4.023  -0.105  1.0797  0.0635  0.8590
  131MOL0     O17574   8.016   4.027  -0.123  0.3023 -0.1218 -0.2467
  131MOL0     C17575   7.949   4.131  -0.178  0.2540  0.6556 -0.1067
  131MOL0     C17576   8.014   4.218  -0.257  0.1015 -0.1910 -0.3773
  131MOL0     C17577   7.939   4.319  -0.329  1.1967  1.0889 -0.5482
  131MOL0     C17578   8.029   4.406  -0.414  0.0889 -0.3079  0.9650
  131MOL0     C17579   7.805   4.338  -0.300  0.7231 -0.8103  1.0056
  131MOL0     C17580   7.715   4.444  -0.361  0.3786  0.9229  0.3417
  131MOL0     O17581   7.586   4.457  -0.313  0.1420 -0.8127 -0.2044
  131MOL0     C17582   7.495   4.547  -0.366  0.5916 -0.4088  0.1004
  131MOL0     C17583   7.484   4.560  -0.507 -0.3126 -0.6169  0.1599
  131MOL0     C17584   7.379   4.647  -0.557  0.5986  0.1992  0.0592
  131MOL0     C17585   7.283   4.706  -0.478 -0.6084  0.0353 -0.0994
  131MOL0     O17586   7.176   4.782  -0.528 -0.5418 -0.0198 -0.7959
  131MOL0     C17587   7.052   4.725  -0.560  0.3003 -0.5180  0.3290
  131MOL0     C17588   6.977   4.795  -0.680 -0.7370  0.1009 -0.8917
  131MOL0     C17589   6.868   4.702  -0.735  0.3092 -0.1131  0.4593
  131MOL0     C17590   6.811   4.763  -0.861  0.3073 -0.3188  0.6517
  131MOL0     C17591   6.684   4.685  -0.916  0.1830  0.0794  0.6664
  131MOL0     C17592   6.572   4.709  -0.823  0.2834  0.8388  0.3889
  131MOL0     C17593   6.434   4.649  -0.874 -0.6933  0.3580  0.0881
  131MOL0     C17594   6.333   4.622  -0.765  0.2948  0.4355 -0.1280
  131MOL0    Cl17595   6.169   4.579  -0.841  0.6955  0.5416 -0.2993
  131MOL0     C17596   7.287   4.683  -0.345  0.3957 -0.3002  0.4743
  131MOL0     C17597   7.394   4.614  -0.293  0.1883  0.1493  0.5464
  131MOL0     O17598   7.767   4.515  -0.449  0.4602 -0.3929 -0.4517
  131MOL0     C17599   7.743   4.243  -0.220  0.1117 -0.3445  0.8221
  131MOL0     C17600   7.806   4.149  -0.160 -0.6256 -0.6153 -0.3593
  131MOL0     N17601   8.622   3.689  -0.170  0.4094 -0.1275 -0.7166
  131MOL0     N17602   8.755   3.701  -0.142 -0.0698  0.4378  0.0110
  131MOL0     C17603   9.732   4.692   0.299 -0.2332 -0.3068  0.1001
  131MOL0     C17604   9.817   4.802   0.275  0.3854 -0.1987 -0.5205
  131MOL0     C17605  10.165   5.023   0.081 -0.1373  0.2150  0.0471
  131MOL0     C17606  10.292   5.019   0.022  0.2519 -0.0546  0.4213
  131MOL0     C17607  10.372   5.133   0.004 -0.1775 -0.4005 -0.2961
  131MOL0     C17608  10.313   5.260   0.024 -1.0973  0.5608  0.3376
  131MOL0     O17609  10.386   5.367  -0.017  0.3801 -0.2951 -0.4945
  131MOL0     C17610  10.325   5.502  -0.015  0.4526 -0.6008  0.3238
  131MOL0     C17611  10.421   5.618  -0.027  0.1469  0.1151 -0.0544
  131MOL0     C17612  10.532   5.619   0.073 -0.2198 -0.4406  0.1812
  131MOL0     C17613  10.663   5.659   0.003 -1.0964 -0.8085  0.2377
  131MOL0     C17614  10.665   5.803  -0.034 -0.0156  0.2520  0.1568
  131MOL0     C17615  10.652   5.918  -0.070  0.2959 -0.4146 -0.6400
  131MOL0     C17616  10.179   5.266   0.072  0.1358  0.3129  0.7458
  131MOL0     C17617  10.110   5.149   0.106  0.3047 -0.9018  0.0933
  131MOL0     H17618   9.866   4.756  -0.057 -0.2996  0.7356 -0.1758
  131MOL0     H17619   9.682   4.594  -0.027 -4.0031  3.3088  0.1413
  131MOL0     H17620   9.454   4.498   0.055  0.4638  0.3124  0.0405
  131MOL0     H17621   9.605   4.396   0.049 -1.8022  0.3375 -3.0050
  131MOL0     H17622   9.527   4.246   0.193  2.4542  1.8724 -1.7668
  131MOL0     H17623   9.394   4.337   0.258  2.9406  0.0586  2.2146
  131MOL0     H17624   9.286   4.326   0.021 -0.7792 -1.4634 -1.1509
  131MOL0     H17625   9.417   4.222  -0.030  4.5351 -0.5492  1.8639
  131MOL0     H17626   9.354   4.042   0.106  0.0503  0.2020 -0.2372
  131MOL0     H17627   9.251   4.145   0.213 -0.6225  3.5692 -0.1662
  131MOL0     H17628   9.088   4.162   0.036 -2.7410 -2.0231  0.3023
  131MOL0     H17629   9.199   4.094  -0.086  2.0323 -2.0864  1.0713
  131MOL0     H17630   9.192   3.867   0.014  0.8891  0.1301  2.5638
  131MOL0     H17631   9.101   3.934   0.143  2.7724  1.0284 -0.7050
  131MOL0     H17632   8.937   4.010  -0.054  1.9744  0.7799  0.8375
  131MOL0     H17633   9.014   3.886  -0.149  2.0970  0.8836  0.0821
  131MOL0     H17634   8.865   3.864   0.122 -1.4667  1.9881 -1.0148
  131MOL0     H17635   8.930   3.721   0.030  0.6463 -0.8997 -0.1463
  131MOL0     H17636   8.647   3.978  -0.023  1.6608  1.2770 -1.0443
  131MOL0     H17637   8.435   3.951  -0.207 -1.3359  1.0215  0.5291
  131MOL0     H17638   8.356   3.779  -0.182 -0.3495 -0.2190 -0.4088
  131MOL0     H17639   8.410   3.997   0.026  2.2091 -1.7693  1.7794
  131MOL0     H17640   8.392   3.832   0.063 -2.1867 -0.2138  0.5683
  131MOL0     H17641   8.175   3.947   0.080 -2.8192  0.4371 -1.5822
  131MOL0     H17642   8.166   3.817  -0.034 -1.9356  0.3132 -0.1709
  131MOL0     H17643   8.206   4.012  -0.205  1.3815 -0.6525  1.0640
  131MOL0     H17644   8.199   4.118  -0.064 -1.1765  0.7625  1.3855
  131MOL0     H17645   8.122   4.214  -0.266  0.7566  1.0022  4.4459
  131MOL0     H17646   8.136   4.394  -0.395  0.3669 -1.9219 -1.3128
  131MOL0     H17647   8.004   4.390  -0.519 -1.2379 -1.7292  1.4601
  131MOL0     H17648   7.997   4.511  -0.406  0.3835  0.0073 -1.2633
  131MOL0     H17649   7.557   4.511  -0.570 -0.1126  2.5487 -2.3179
  131MOL0     H17650   7.380   4.669  -0.664 -1.6144 -0.4889 -0.1487
  131MOL0     H17651   7.067   4.619  -0.584  0.3297 -0.2540 -0.9029
  131MOL0     H17652   6.989   4.730  -0.471 -3.3144  0.4950 -2.0633
  131MOL0     H17653   6.934   4.891  -0.650  2.0732  1.2032 -0.0673
  131MOL0     H17654   7.057   4.816  -0.750 -0.3359  2.3988  0.1825
  131MOL0     H17655   6.786   4.684  -0.664  0.1673 -0.0632  0.3098
  131MOL0     H17656   6.913   4.605  -0.758 -1.0275 -0.7560  0.4334
  131MOL0     H17657   6.768   4.860  -0.835 -0.2182 -1.0271  2.6206
  131MOL0     H17658   6.892   4.778  -0.933  1.8965 -3.0483  1.6819
  131MOL0     H17659   6.701   4.578  -0.931 -2.8183 -0.8649  3.1144
  131MOL0     H17660   6.664   4.718  -1.019  4.3226 -1.1455 -0.7590
  131MOL0     H17661   6.601   4.671  -0.725  1.8624 -0.3684 -0.5066
  131MOL0     H17662   6.553   4.816  -0.811 -0.5458  0.5813  1.6004
  131MOL0     H17663   6.452   4.551  -0.918 -0.8439  0.1720  0.4368
  131MOL0     H17664   6.399   4.715  -0.954  0.5097  2.1156  0.9240
  131MOL0     H17665   6.322   4.716  -0.711  1.1247  0.9301 -0.7850
  131MOL0     H17666   6.361   4.539  -0.699 -0.5885 -0.6618 -1.0862
  131MOL0     H17667   7.211   4.734  -0.287 -1.4716  0.8575 -2.6971
  131MOL0     H17668   7.387   4.598  -0.186  0.0299  2.5530  0.9430
  131MOL0     H17669   7.635   4.240  -0.223  0.1468 -1.2459 -1.7897
  131MOL0     H17670   7.758   4.067  -0.107 -3.2073  0.5150 -0.7938
  131MOL0     H17671   9.702   4.667   0.400  1.9941 -0.5808  0.7572
  131MOL0     H17672   9.853   4.869   0.352  2.2581 -2.0272  0.2997
  131MOL0     H17673  10.317   4.918  -0.011 -4.9552 -0.7255 -2.6923
  131MOL0     H17674  10.470   5.135  -0.042  0.2019  3.1506  0.4014
  131MOL0     H17675  10.260   5.518  -0.101  0.9164 -0.2348  0.0367
  131MOL0     H17676  10.270   5.513   0.079 -2.1374  1.5786 -1.3174
  131MOL0     H17677  10.369   5.714  -0.025 -0.8383 -0.3817 -0.5815
  131MOL0     H17678  10.463   5.604  -0.127 -0.8106 -0.8337 -0.3440
  131MOL0     H17679  10.550   5.515   0.102  2.7422 -0.1928 -0.4474
  131MOL0     H17680  10.517   5.688   0.156  0.7978  1.8795 -1.4583
  131MOL0     H17681  10.678   5.592  -0.082  0.1260  0.3996 -0.5459
  131MOL0     H17682  10.745   5.642   0.074  0.2577  1.4018 -0.6992
  131MOL0     H17683  10.626   6.021  -0.082  3.1320  0.7050  1.6588
  131MOL0     H17684  10.127   5.357   0.100 -0.0003 -0.6843  4.1061
  131MOL0     H17685  10.008   5.164   0.140  0.4102 -1.5039  0.6756
  132MOL0     O17686   4.878  10.193   5.221  0.4196  0.0694  0.1725
  132MOL0     C17687   4.918  10.094   5.161 -0.5162 -0.1255 -0.5829
  132MOL0     O17688   4.843  10.015   5.075 -0.2393  0.4933 -0.5791
  132MOL0     C17689   4.708  10.047   5.079 -0.7114 -0.5680  0.0202
  132MOL0     C17690   4.642  10.092   4.969  0.2186  0.1473  0.3497
  132MOL0     C17691   4.506  10.122   4.970  0.5429  0.0573 -0.1673
  132MOL0     C17692   4.432  10.101   5.087 -0.6275  0.2269  0.6414
  132MOL0     O17693   4.297  10.135   5.079  0.3261  0.1412  0.0812
  132MOL0     C17694   4.232  10.188   5.196 -0.5121 -0.0068  0.4772
  132MOL0     C17695   4.310  10.317   5.243  0.0554 -0.0797 -0.4009
  132MOL0     C17696   4.259  10.440   5.164  0.8033 -0.6392  0.7923
  132MOL0     C17697   4.127  10.487   5.229 -0.4345 -0.4401  0.4780
  132MOL0     C17698   4.085  10.616   5.160 -0.8131  0.1728 -0.9470
  132MOL0     C17699   3.970  10.694   5.225 -0.0869 -0.1186 -0.4852
  132MOL0     C17700   3.972  10.849   5.201  0.5332  0.1529  0.9040
  132MOL0     C17701   3.897  10.876   5.068 -0.5908  0.1529  0.4152
  132MOL0     N17702   3.850  11.020   5.059  0.4894 -0.0489 -0.1316
  132MOL0     C17703   3.910  11.135   5.105 -0.1458  1.2870 -0.7658
  132MOL0     C17704   3.811  11.232   5.087  0.3481  0.5503  0.0115
  132MOL0     C17705   3.814  11.376   5.137 -0.3784 -0.2570 -0.6298
  132MOL0     C17706   3.851  11.377   5.288 -0.6079  0.5245 -0.0652
  132MOL0     C17707   3.731  11.343   5.378 -1.1551  0.7116  0.0723
  132MOL0     C17708   3.773  11.387   5.522 -0.1052  0.1530  0.5131
  132MOL0     O17709   3.658  11.391   5.601  0.0401 -0.8185  0.5546
  132MOL0     C17710   3.603  11.267   5.634 -0.4097 -0.0875 -0.1127
  132MOL0     C17711   3.666  11.143   5.620 -0.0051 -0.6430 -0.8443
  132MOL0     C17712   3.614  11.023   5.676 -0.2374  0.4425 -0.3704
  132MOL0     C17713   3.703  10.899   5.668 -0.3604  0.1324 -0.4904
  132MOL0     C17714   3.487  11.030   5.742 -0.0342 -0.8033 -0.2200
  132MOL0     C17715   3.405  10.920   5.794  0.8353  0.5770  0.5279
  132MOL0     O17716   3.299  10.948   5.877 -0.3482  0.4366 -0.6464
  132MOL0     C17717   3.208  10.858   5.895 -0.6938 -0.1589 -0.2332
  132MOL0     C17718   3.156  10.776   5.793 -0.3766  0.4624  0.9545
  132MOL0     C17719   3.051  10.688   5.822  0.6107  0.0385  0.3098
  132MOL0     C17720   2.998  10.666   5.950  0.4029 -0.5889  0.2805
  132MOL0     O17721   2.884  10.585   5.969  0.2448  0.1199 -0.4888
  132MOL0     C17722   2.823  10.577   6.100  0.8165 -0.1008  0.0486
  132MOL0     C17723   2.675  10.517   6.081 -0.5133  0.2804 -0.4937
  132MOL0     C17724   2.636  10.424   6.192  0.0422 -0.0930 -0.6478
  132MOL0     C17725   2.504  10.344   6.157  0.0093 -0.4716 -0.2882
  132MOL0     C17726   2.468  10.248   6.262  0.2829 -0.1046 -0.0338
  132MOL0     C17727   2.365  10.141   6.211 -0.0670 -0.7719  0.2088
  132MOL0     C17728   2.307  10.070   6.332 -0.0912 -0.4390  0.2297
  132MOL0     C17729   2.193   9.973   6.286  0.3831 -0.0245 -0.7292
  132MOL0    Cl17730   2.108   9.919   6.437 -0.0084  0.1470  0.1425
  132MOL0     C17731   3.064  10.738   6.049 -0.1577  0.0768  0.0960
  132MOL0     C17732   3.165  10.834   6.020 -0.6748  0.7962 -0.5441
  132MOL0     O17733   3.436  10.806   5.773  0.4787 -0.0484  0.1302
  132MOL0     C17734   3.427  11.157   5.755 -0.1440 -0.8313  0.4667
  132MOL0     C17735   3.479  11.274   5.702 -0.0582 -0.2677  0.0890
  132MOL0     N17736   3.709  11.170   5.013 -0.9708  0.2685  0.0865
  132MOL0     N17737   3.739  11.046   4.992  0.1239 -0.5822 -0.0533
  132MOL0     C17738   4.494  10.047   5.199 -0.2841 -0.1715 -0.1275
  132MOL0     C17739   4.630  10.023   5.196 -0.0742 -0.7475  1.1300
  132MOL0     C17740   5.056  10.049   5.177  0.0430 -0.4764 -0.6438
  132MOL0     C17741   5.142  10.107   5.277  0.4169  0.1736 -0.6496
  132MOL0     C17742   5.267  10.064   5.300 -1.1880 -0.1179  0.5231
  132MOL0     C17743   5.315   9.953   5.232 -0.8074  1.2650 -0.2265
  132MOL0     O17744   5.443   9.917   5.256 -0.3199  0.4162 -0.5872
  132MOL0     C17745   5.492   9.802   5.180 -0.7370  0.0897  0.7501
  132MOL0     C17746   5.640   9.777   5.208 -0.6822 -0.2299 -0.0299
  132MOL0     C17747   5.728   9.889   5.150  0.4762 -0.2385 -0.0454
  132MOL0     C17748   5.871   9.871   5.200 -0.4179 -0.3590 -0.7137
  132MOL0     C17749   5.958   9.985   5.157 -1.1984  0.2397 -0.7695
  132MOL0     C17750   6.015  10.080   5.109 -0.1420  0.0835  0.7073
  132MOL0     C17751   5.240   9.908   5.132  0.3494 -0.0709 -0.1819
  132MOL0     C17752   5.119   9.948   5.101 -0.0628 -1.1787  0.5933
  132MOL0     H17753   4.689  10.124   4.876  0.6633  2.4061  1.3050
  132MOL0     H17754   4.457  10.149   4.877 -0.2408  1.8512  0.7161
  132MOL0     H17755   4.132  10.206   5.156  0.2267  4.2458 -0.0167
  132MOL0     H17756   4.224  10.108   5.270 -1.1339  0.0485  0.4716
  132MOL0     H17757   4.288  10.339   5.347  2.3523  0.0982  0.1109
  132MOL0     H17758   4.420  10.314   5.236  0.0171 -3.2468 -1.5807
  132MOL0     H17759   4.339  10.514   5.166  1.2064 -1.0794  1.2288
  132MOL0     H17760   4.242  10.408   5.061 -0.0282 -2.0305  1.3422
  132MOL0     H17761   4.050  10.413   5.205 -0.7914  0.7737 -2.6410
  132MOL0     H17762   4.142  10.514   5.334 -0.9155  1.0817  0.1837
  132MOL0     H17763   4.172  10.682   5.156 -0.8682  0.3323  0.1735
  132MOL0     H17764   4.035  10.584   5.068 -2.0933  2.0204 -0.9599
  132MOL0     H17765   3.874  10.647   5.203 -0.2249  0.5133 -1.2633
  132MOL0     H17766   3.989  10.676   5.332  5.9423 -0.0336 -1.1697
  132MOL0     H17767   3.922  10.905   5.280  1.1229  0.9326  0.7302
  132MOL0     H17768   4.074  10.887   5.191  0.1095  1.9427  2.6905
  132MOL0     H17769   3.808  10.813   5.058 -1.6231  1.0187  3.1950
  132MOL0     H17770   3.963  10.849   4.986  2.5155  0.8052  2.5296
  132MOL0     H17771   3.991  11.126   5.176 -2.6986 -2.5665  2.0635
  132MOL0     H17772   3.894  11.426   5.081 -1.1894 -0.3288 -1.8753
  132MOL0     H17773   3.712  11.409   5.118 -1.0894 -0.7931  1.8527
  132MOL0     H17774   3.898  11.475   5.300 -0.0828  0.1296  1.3877
  132MOL0     H17775   3.930  11.305   5.311 -2.3846 -1.2712  0.7315
  132MOL0     H17776   3.711  11.236   5.365 -1.5426  0.6164  1.2959
  132MOL0     H17777   3.645  11.408   5.355 -1.0082  1.2584  1.0303
  132MOL0     H17778   3.825  11.483   5.520 -0.2852  0.4486  3.8276
  132MOL0     H17779   3.850  11.319   5.561  1.4334 -0.5492 -3.3034
  132MOL0     H17780   3.769  11.131   5.587  0.4279  0.4998  0.0405
  132MOL0     H17781   3.670  10.839   5.582 -2.3637 -0.1991  0.4631
  132MOL0     H17782   3.811  10.908   5.654  0.3170 -0.7361  3.2093
  132MOL0     H17783   3.701  10.847   5.764  0.3936 -2.8006 -1.9513
  132MOL0     H17784   3.191  10.796   5.692 -1.3899  1.0859  0.7101
  132MOL0     H17785   3.014  10.625   5.741 -1.7453  2.2956 -0.5348
  132MOL0     H17786   2.870  10.513   6.175 -1.1780 -0.8757  0.6812
  132MOL0     H17787   2.823  10.675   6.150 -3.7091 -1.0384  2.4317
  132MOL0     H17788   2.610  10.604   6.068 -0.5606 -0.0858 -3.3674
  132MOL0     H17789   2.674  10.456   5.991 -1.4768  0.6976 -0.7758
  132MOL0     H17790   2.625  10.481   6.284  0.9052 -1.0396  0.0653
  132MOL0     H17791   2.722  10.358   6.207  0.1873  0.6965  2.5764
  132MOL0     H17792   2.417  10.409   6.146 -0.2752 -0.4128  1.9051
  132MOL0     H17793   2.528  10.288   6.066 -0.5806  0.9816 -1.3814
  132MOL0     H17794   2.415  10.305   6.339  1.8803  1.3028  0.0904
  132MOL0     H17795   2.561  10.202   6.296 -0.6739 -0.6889  1.9385
  132MOL0     H17796   2.287  10.189   6.150  1.1921  0.2233 -0.6740
  132MOL0     H17797   2.416  10.077   6.139  0.5432  0.5052 -0.5250
  132MOL0     H17798   2.255  10.141   6.396 -1.8786 -3.0502  1.8843
  132MOL0     H17799   2.393  10.017   6.374  0.1700 -0.3714 -0.2158
  132MOL0     H17800   2.234   9.885   6.235  4.8659  2.2236 -1.5010
  132MOL0     H17801   2.124  10.027   6.221 -0.9404 -1.9208 -0.9988
  132MOL0     H17802   3.050  10.730   6.157 -0.2504  1.1642  0.1756
  132MOL0     H17803   3.216  10.891   6.097 -1.7148  0.4439  0.4438
  132MOL0     H17804   3.325  11.175   5.789  0.0210 -1.9193  1.6070
  132MOL0     H17805   3.420  11.365   5.695  1.3146  0.5762 -1.2792
  132MOL0     H17806   4.445  10.028   5.293 -0.7485 -1.0544 -0.5416
  132MOL0     H17807   4.680   9.977   5.280  1.5965 -3.2457 -1.0816
  132MOL0     H17808   5.099  10.178   5.348 -0.7468 -0.0555 -1.0948
  132MOL0     H17809   5.344  10.118   5.353  1.5041 -0.6285 -2.5569
  132MOL0     H17810   5.432   9.718   5.215 -2.5095  1.5728  1.4204
  132MOL0     H17811   5.476   9.824   5.074 -0.6248  1.0644  0.9230
  132MOL0     H17812   5.676   9.680   5.170  0.9174 -0.2004  1.3059
  132MOL0     H17813   5.646   9.776   5.317 -1.1490 -2.8196  0.0375
  132MOL0     H17814   5.692   9.987   5.182 -2.8735 -0.2267 -3.2681
  132MOL0     H17815   5.733   9.894   5.041 -2.1203  3.2691 -0.1839
  132MOL0     H17816   5.921   9.779   5.166 -0.1840 -1.1079  1.4645
  132MOL0     H17817   5.870   9.862   5.309 -0.5013  2.3042 -0.4346
  132MOL0     H17818   6.064  10.169   5.074  1.0298 -0.9471 -0.3763
  132MOL0     H17819   5.277   9.822   5.077  3.0837 -2.3834  4.7207
  132MOL0     H17820   5.069   9.895   5.021 -1.1305  1.2363 -0.4421
  133MOL0     O17821  10.073   1.069   6.999  0.3902 -0.9182  0.8227
  133MOL0     C17822  10.079   1.081   6.876  0.2952 -0.4471 -0.1513
  133MOL0     O17823   9.988   1.132   6.790 -0.7244 -0.1687 -0.7093
  133MOL0     C17824   9.877   1.191   6.846 -0.4043  0.1708  0.1171
  133MOL0     C17825   9.840   1.326   6.809  0.0039 -0.5616 -0.3735
  133MOL0     C17826   9.713   1.371   6.850  0.2648  0.1633 -0.5672
  133MOL0     C17827   9.627   1.303   6.942 -0.6932 -0.6911 -0.3509
  133MOL0     O17828   9.513   1.364   6.981 -0.2725 -0.8552  0.0335
  133MOL0     C17829   9.435   1.308   7.077 -0.0213 -0.7386 -0.3925
  133MOL0     C17830   9.323   1.233   7.008 -0.0551 -0.3740  0.2051
  133MOL0     C17831   9.176   1.272   7.054 -0.2259 -0.9788  0.2621
  133MOL0     C17832   9.153   1.243   7.205 -0.8964  0.5163 -0.2322
  133MOL0     C17833   9.010   1.248   7.245  0.3863  0.0723 -0.3901
  133MOL0     C17834   8.996   1.385   7.298 -0.3718 -0.4984  0.5580
  133MOL0     C17835   8.852   1.403   7.344 -0.7141 -0.4254 -0.5298
  133MOL0     C17836   8.758   1.413   7.236  0.0009  0.2368 -0.2069
  133MOL0     N17837   8.639   1.420   7.321  0.9832 -0.7362 -0.5004
  133MOL0     C17838   8.582   1.323   7.397 -0.1480  0.1533  0.1599
  133MOL0     C17839   8.483   1.385   7.467 -0.3448 -1.3017 -0.2722
  133MOL0     C17840   8.388   1.337   7.577 -1.0359  0.3374 -0.0404
  133MOL0     C17841   8.243   1.358   7.527  0.7581 -0.5388 -0.7699
  133MOL0     C17842   8.142   1.324   7.632 -0.5406  0.2572 -0.0741
  133MOL0     C17843   8.003   1.356   7.574 -0.6887  0.2158 -0.3714
  133MOL0     O17844   7.901   1.348   7.681  0.0999 -0.0121 -0.2110
  133MOL0     C17845   7.766   1.356   7.639  0.3665 -0.6332 -0.1684
  133MOL0     C17846   7.719   1.435   7.531 -0.3842  0.3562 -0.1209
  133MOL0     C17847   7.578   1.455   7.508  1.0064  0.3858  1.4500
  133MOL0     C17848   7.545   1.553   7.399  0.2566 -0.1226 -0.1718
  133MOL0     C17849   7.475   1.391   7.580  0.1190 -0.2043 -0.3631
  133MOL0     C17850   7.327   1.408   7.565 -0.5609  0.0213 -0.3554
  133MOL0     O17851   7.254   1.376   7.674 -1.1354 -0.4224  0.3071
  133MOL0     C17852   7.117   1.384   7.653 -0.9951  0.1513  0.2748
  133MOL0     C17853   7.041   1.266   7.664 -0.1422 -0.1355 -0.1962
  133MOL0     C17854   6.905   1.267   7.641 -0.1117 -0.5532 -0.1971
  133MOL0     C17855   6.838   1.389   7.633 -0.3398  0.7971 -0.2410
  133MOL0     O17856   6.704   1.402   7.626 -0.0463  0.2384  0.5554
  133MOL0     C17857   6.619   1.293   7.678 -0.0987  0.2342 -0.5760
  133MOL0     C17858   6.477   1.348   7.710  0.0008  0.8655  0.1440
  133MOL0     C17859   6.390   1.230   7.767 -0.5423  0.3650  0.1403
  133MOL0     C17860   6.249   1.245   7.722  0.2715  1.4840 -0.2635
  133MOL0     C17861   6.163   1.138   7.796 -0.3196  0.2715 -0.5493
  133MOL0     C17862   6.146   1.014   7.715  0.5375 -0.3156  0.5043
  133MOL0     C17863   6.042   1.030   7.607 -0.3283  0.1426 -0.3695
  133MOL0     C17864   6.019   0.909   7.519  0.3137  0.2647  0.3555
  133MOL0    Cl17865   6.174   0.853   7.443 -0.3847  0.1518 -0.1580
  133MOL0     C17866   6.912   1.510   7.632 -0.6486 -0.2575  0.0294
  133MOL0     C17867   7.055   1.508   7.641 -0.2502  0.7238  0.1369
  133MOL0     O17868   7.283   1.449   7.456 -0.2076 -0.6146  0.0405
  133MOL0     C17869   7.520   1.308   7.683 -0.7686  0.0729 -1.0683
  133MOL0     C17870   7.661   1.300   7.719 -0.1859  0.9575 -0.0023
  133MOL0     N17871   8.470   1.514   7.410  0.0722 -0.2647 -0.8357
  133MOL0     N17872   8.565   1.532   7.325 -0.3209 -0.7033  0.3178
  133MOL0     C17873   9.668   1.174   6.973  0.8400 -0.1031 -0.1087
  133MOL0     C17874   9.784   1.122   6.926  0.2917  0.3546 -0.0894
  133MOL0     C17875  10.202   1.028   6.819 -0.0517 -0.0757 -0.3802
  133MOL0     C17876  10.227   1.042   6.683  0.0882 -0.7930 -0.0175
  133MOL0     C17877  10.342   0.992   6.619 -0.1761 -0.0513  0.1369
  133MOL0     C17878  10.443   0.948   6.697 -0.8858  0.7434  0.5406
  133MOL0     O17879  10.549   0.897   6.622  0.6464 -0.2619 -0.1297
  133MOL0     C17880  10.671   0.849   6.687  0.3232  0.4302  0.3804
  133MOL0     C17881  10.756   0.972   6.728 -0.1714  0.0215  0.4438
  133MOL0     C17882  10.882   0.930   6.807  0.9718 -0.1684  0.1990
  133MOL0     C17883  10.995   0.899   6.708  0.2705 -0.7082 -1.4441
  133MOL0     C17884  11.126   0.930   6.778  0.5996  0.0666  0.6627
  133MOL0     C17885  11.245   0.946   6.811  0.1110 -0.4143  0.0911
  133MOL0     C17886  10.429   0.940   6.834 -0.2666  0.3548 -0.9875
  133MOL0     C17887  10.304   0.976   6.894 -0.0183  0.1096  0.7920
  133MOL0     H17888   9.893   1.390   6.739  4.6546  1.4878  4.3327
  133MOL0     H17889   9.686   1.473   6.825 -0.9333 -0.0467 -0.1897
  133MOL0     H17890   9.488   1.250   7.153  0.8398  1.1309  0.5155
  133MOL0     H17891   9.390   1.388   7.138 -0.6877  0.5265 -2.4222
  133MOL0     H17892   9.341   1.252   6.901  1.0256  2.4669  0.7972
  133MOL0     H17893   9.332   1.125   7.022  0.9888 -0.2435  0.6060
  133MOL0     H17894   9.157   1.378   7.033  1.0436 -0.4323  1.6526
  133MOL0     H17895   9.100   1.215   6.999  0.8286 -0.5305 -1.7285
  133MOL0     H17896   9.188   1.140   7.214  1.3486  1.3411  1.4303
  133MOL0     H17897   9.225   1.300   7.265 -2.9500  1.7368  1.1926
  133MOL0     H17898   8.940   1.225   7.163 -0.6282  2.0120 -0.1285
  133MOL0     H17899   9.000   1.184   7.333 -0.7960  0.8799  0.0917
  133MOL0     H17900   9.078   1.402   7.369  0.5862  1.9443 -0.9958
  133MOL0     H17901   9.018   1.455   7.217  1.8211 -0.3805  1.1894
  133MOL0     H17902   8.835   1.318   7.412  1.6500  0.1012  0.8433
  133MOL0     H17903   8.838   1.495   7.402 -1.2057 -1.8557  1.7746
  133MOL0     H17904   8.763   1.323   7.175 -0.4996 -1.4516  2.0860
  133MOL0     H17905   8.772   1.504   7.176 -0.7991 -0.5163 -1.5758
  133MOL0     H17906   8.627   1.224   7.403 -1.1662 -0.9042 -4.6738
  133MOL0     H17907   8.415   1.234   7.602  0.1974  0.8057  0.6716
  133MOL0     H17908   8.404   1.397   7.667 -0.6116 -0.5482  0.4779
  133MOL0     H17909   8.239   1.299   7.435  0.5394 -1.4907 -0.1649
  133MOL0     H17910   8.223   1.461   7.496 -0.1900  0.5603  2.9586
  133MOL0     H17911   8.171   1.378   7.723  4.8148  0.7887 -1.7228
  133MOL0     H17912   8.138   1.216   7.649 -1.2186  0.1215 -1.0152
  133MOL0     H17913   7.980   1.286   7.493  1.4145  2.3051 -2.9764
  133MOL0     H17914   8.013   1.453   7.524 -1.3616  0.1614 -0.6168
  133MOL0     H17915   7.794   1.494   7.480  1.3519 -1.4478  0.2041
  133MOL0     H17916   7.500   1.494   7.318 -0.2079 -1.1373  0.7925
  133MOL0     H17917   7.470   1.626   7.430 -0.3639 -0.4541 -0.8539
  133MOL0     H17918   7.638   1.606   7.377 -0.1328  0.1061 -1.3600
  133MOL0     H17919   7.103   1.180   7.685  1.9629  1.3992  0.3249
  133MOL0     H17920   6.856   1.171   7.652 -0.3613 -0.4892 -0.7500
  133MOL0     H17921   6.606   1.221   7.597  0.5250  0.9886 -1.3638
  133MOL0     H17922   6.658   1.253   7.772 -0.9065  0.5863 -0.0748
  133MOL0     H17923   6.501   1.429   7.779  0.9058  0.6808  0.0524
  133MOL0     H17924   6.425   1.387   7.622 -0.3744 -0.5582 -0.3062
  133MOL0     H17925   6.389   1.256   7.873  0.4439  1.8825 -0.1954
  133MOL0     H17926   6.426   1.130   7.743  1.4819  0.8840  0.8732
  133MOL0     H17927   6.219   1.346   7.751  1.3585  0.5489  4.9658
  133MOL0     H17928   6.233   1.242   7.613 -0.2419  0.7526 -0.1779
  133MOL0     H17929   6.067   1.183   7.822 -0.5306 -0.3228 -0.2917
  133MOL0     H17930   6.216   1.117   7.890 -2.0371 -0.3400  0.3169
  133MOL0     H17931   6.243   0.991   7.670 -0.4909 -1.2265 -1.3556
  133MOL0     H17932   6.118   0.924   7.772 -2.5248  0.2825  0.0938
  133MOL0     H17933   6.071   1.104   7.531 -3.1071 -0.8463 -2.5779
  133MOL0     H17934   5.946   1.061   7.649 -1.0525  0.3859 -2.0882
  133MOL0     H17935   5.944   0.934   7.443  0.8271  1.1888  0.1360
  133MOL0     H17936   5.981   0.829   7.584  0.1218  0.9891  1.1572
  133MOL0     H17937   6.852   1.600   7.629  1.5265  1.5513  3.6455
  133MOL0     H17938   7.095   1.609   7.637 -1.3179  1.1391 -0.6643
  133MOL0     H17939   7.454   1.249   7.746 -1.3016  0.4511 -1.2710
  133MOL0     H17940   7.683   1.247   7.810 -0.4764  0.6979 -0.0788
  133MOL0     H17941   9.603   1.112   7.034  0.4359 -2.0603 -2.3794
  133MOL0     H17942   9.811   1.017   6.937 -0.5372  0.0144 -1.1513
  133MOL0     H17943  10.145   1.079   6.622 -0.1419 -3.5966 -1.6035
  133MOL0     H17944  10.341   1.005   6.511  0.6595 -2.2598 -0.1902
  133MOL0     H17945  10.647   0.777   6.766  0.2447 -1.4955 -1.3028
  133MOL0     H17946  10.725   0.786   6.616 -0.0696 -2.6871  2.6153
  133MOL0     H17947  10.703   1.042   6.793  1.9397  0.3693  1.9022
  133MOL0     H17948  10.779   1.023   6.634  0.3970 -0.4213  0.3364
  133MOL0     H17949  10.843   0.850   6.871 -2.1937  0.1446 -1.1561
  133MOL0     H17950  10.907   1.018   6.867 -2.9616  0.1275  1.7017
  133MOL0     H17951  10.990   0.970   6.624 -1.6159  1.2104  0.1814
  133MOL0     H17952  10.990   0.794   6.679  1.5545 -1.9272  2.1840
  133MOL0     H17953  11.347   0.960   6.841  0.5234 -0.5779 -1.1844
  133MOL0     H17954  10.514   0.916   6.897 -2.5865 -2.5488  1.3759
  133MOL0     H17955  10.281   0.964   7.000  2.0706  0.5872  1.3549
  134MOL0     O17956   0.013   9.946   0.776  0.9153  0.3198 -0.1612
  134MOL0     C17957   0.038   9.857   0.695  0.7125  0.1581 -0.9613
  134MOL0     O17958  -0.054   9.787   0.620  0.7134 -0.0096 -0.6833
  134MOL0     C17959  -0.184   9.823   0.642  0.7987  0.1798  0.6444
  134MOL0     C17960  -0.241   9.923   0.557 -0.3419  0.0292 -1.1703
  134MOL0     C17961  -0.378   9.945   0.567 -0.5274  0.2896  0.2335
  134MOL0     C17962  -0.461   9.854   0.644  0.4936 -0.5239 -0.1155
  134MOL0     O17963  -0.591   9.860   0.627 -0.0268  0.7573 -0.7310
  134MOL0     C17964  -0.657   9.982   0.664  0.7027  0.0159  0.1693
  134MOL0     C17965  -0.791  10.005   0.599 -0.0980  0.3753  0.0645
  134MOL0     C17966  -0.787   9.982   0.454  0.5273 -0.2992 -0.4494
  134MOL0     C17967  -0.922  10.003   0.388 -1.0049 -0.6555  0.7624
  134MOL0     C17968  -0.902   9.983   0.240 -0.7447  0.1136  0.6421
  134MOL0     C17969  -1.044   9.990   0.170 -0.9405 -0.2760 -0.7121
  134MOL0     C17970  -1.092  10.140   0.163 -0.9885 -0.3137  0.4881
  134MOL0     C17971  -1.165  10.163   0.027 -1.0651 -0.3406 -0.6958
  134MOL0     N17972  -1.304  10.118   0.017  0.5806  0.3201 -0.3416
  134MOL0     C17973  -1.415  10.168   0.095  0.1111  0.4613 -0.3356
  134MOL0     C17974  -1.518  10.105   0.033  0.4684 -0.3683 -0.1968
  134MOL0     C17975  -1.659  10.114   0.069  0.2781 -0.5897 -0.6426
  134MOL0     C17976  -1.713  10.262   0.050  0.1602  0.7045 -0.6884
  134MOL0     C17977  -1.853  10.288   0.098  0.3182  0.1365 -0.7963
  134MOL0     C17978  -1.959  10.174   0.075 -0.5497 -0.4951 -0.2150
  134MOL0     O17979  -1.962  10.089   0.185 -1.2233  0.9935 -0.4163
  134MOL0     C17980  -2.030   9.970   0.172 -1.0209 -0.9280  0.4423
  134MOL0     C17981  -1.985   9.864   0.248 -0.1691 -0.0432 -0.0698
  134MOL0     C17982  -2.035   9.732   0.238  0.6693  0.2305 -0.4908
  134MOL0     C17983  -1.968   9.626   0.329 -0.4035 -0.6561  0.4853
  134MOL0     C17984  -2.152   9.709   0.155  0.4135  0.1716  0.0829
  134MOL0     C17985  -2.229   9.585   0.149 -0.1219 -0.2412  0.4358
  134MOL0     O17986  -2.327   9.587   0.057  0.1567 -0.2276 -0.1842
  134MOL0     C17987  -2.392   9.474   0.024  0.4217 -0.1265 -0.7394
  134MOL0     C17988  -2.484   9.413   0.113  0.4343 -0.1324  0.0406
  134MOL0     C17989  -2.559   9.305   0.075  0.5972  0.9591  0.2355
  134MOL0     C17990  -2.530   9.250  -0.062  0.4759 -0.1055 -0.3666
  134MOL0     O17991  -2.592   9.135  -0.115  0.1022  0.0652 -0.2641
  134MOL0     C17992  -2.697   9.068  -0.038 -0.4333  0.0403  0.3894
  134MOL0     C17993  -2.717   8.940  -0.123  0.9831 -0.0588  0.6122
  134MOL0     C17994  -2.592   8.842  -0.126  0.4049  0.4250 -0.4873
  134MOL0     C17995  -2.563   8.802   0.028  0.1594 -1.0394 -0.0700
  134MOL0     C17996  -2.471   8.688   0.038  0.1064  0.5623 -0.1142
  134MOL0     C17997  -2.451   8.647   0.180  0.0815  0.6224 -0.0274
  134MOL0     C17998  -2.352   8.530   0.180  0.3266  0.0349 -0.2392
  134MOL0     C17999  -2.361   8.436   0.293 -0.0328 -0.0091 -0.5024
  134MOL0    Cl18000  -2.281   8.508   0.429 -0.3134  0.2141 -0.2355
  134MOL0     C18001  -2.439   9.314  -0.144 -0.6206 -0.3089 -0.2480
  134MOL0     C18002  -2.371   9.424  -0.099  0.5005 -0.4773  0.2195
  134MOL0     O18003  -2.197   9.491   0.215  0.6927 -0.3188 -0.6890
  134MOL0     C18004  -2.203   9.824   0.085  0.4400 -0.5416 -0.0628
  134MOL0     C18005  -2.139   9.949   0.089 -0.8326  0.0076 -0.2613
  134MOL0     N18006  -1.474  10.033  -0.076  0.4585  0.6163  0.1132
  134MOL0     N18007  -1.352  10.042  -0.082  0.1361  0.4432  0.2283
  134MOL0     C18008  -0.401   9.754   0.720 -0.6543 -0.0246 -0.3006
  134MOL0     C18009  -0.264   9.748   0.727  0.4915 -0.1100 -0.0632
  134MOL0     C18010   0.178   9.819   0.685  0.1961 -0.1373 -0.2577
  134MOL0     C18011   0.270   9.861   0.782 -0.3236  0.3503 -0.2946
  134MOL0     C18012   0.403   9.845   0.764 -0.3343  0.3679  0.0579
  134MOL0     C18013   0.457   9.761   0.662 -0.3070  0.6094  0.4365
  134MOL0     O18014   0.584   9.722   0.646 -0.1106  0.2257 -0.7277
  134MOL0     C18015   0.693   9.784   0.713 -0.1556 -0.2241  0.8138
  134MOL0     C18016   0.817   9.781   0.622 -0.2326  0.3523 -0.1320
  134MOL0     C18017   0.929   9.844   0.711 -0.7589 -1.1847 -1.0773
  134MOL0     C18018   1.055   9.885   0.632 -0.7480 -0.3665 -0.4196
  134MOL0     C18019   1.131   9.769   0.574 -0.1902 -0.6067  0.2589
  134MOL0     C18020   1.169   9.663   0.528  0.4544  0.6453 -0.1227
  134MOL0     C18021   0.360   9.712   0.571 -0.6508  0.0034 -0.0469
  134MOL0     C18022   0.224   9.737   0.581  0.8063  0.8605 -0.0094
  134MOL0     H18023  -0.181   9.969   0.480  1.5328 -0.6476 -0.1678
  134MOL0     H18024  -0.421  10.019   0.500  0.3201  0.6229  0.0452
  134MOL0     H18025  -0.680   9.986   0.771 -0.1543  4.8973  0.0426
  134MOL0     H18026  -0.594  10.070   0.647  0.0586  0.2340 -1.2540
  134MOL0     H18027  -0.862   9.932   0.639  0.2614  0.3078  0.5839
  134MOL0     H18028  -0.826  10.106   0.624  0.5784  0.7773 -0.5602
  134MOL0     H18029  -0.702  10.038   0.415  0.1051  2.4812  2.2529
  134MOL0     H18030  -0.783   9.874   0.434 -3.0747 -1.2146  2.5385
  134MOL0     H18031  -0.995   9.929   0.423 -1.9265 -1.1928 -2.0639
  134MOL0     H18032  -0.955  10.106   0.404 -0.3818 -0.1290 -1.1579
  134MOL0     H18033  -0.843  10.065   0.200 -2.1261 -0.5860 -3.3120
  134MOL0     H18034  -0.868   9.880   0.227 -2.2612 -0.3926  0.4094
  134MOL0     H18035  -1.020   9.947   0.073  3.5485 -0.6953  0.3606
  134MOL0     H18036  -1.117   9.925   0.219 -1.0961  0.6930  0.3925
  134MOL0     H18037  -1.150  10.173   0.249  1.4206  2.6216  1.1577
  134MOL0     H18038  -1.004  10.205   0.164 -2.1324  1.2909  2.2408
  134MOL0     H18039  -1.101  10.132  -0.056 -1.3231  0.7686 -1.3249
  134MOL0     H18040  -1.179  10.272   0.028  0.6227 -0.0961 -0.0462
  134MOL0     H18041  -1.404  10.231   0.183  1.4461  0.0851 -0.2108
  134MOL0     H18042  -1.719  10.043   0.010  0.8938 -1.7434  0.0853
  134MOL0     H18043  -1.668  10.088   0.175  2.1278  3.7679  0.7951
  134MOL0     H18044  -1.709  10.293  -0.055 -0.1588  0.7360 -0.6931
  134MOL0     H18045  -1.661  10.340   0.107 -0.5345 -1.7735  3.7177
  134MOL0     H18046  -1.884  10.382   0.052 -1.5410  0.9817  1.9396
  134MOL0     H18047  -1.857  10.310   0.205  0.7669 -0.1989 -0.7065
  134MOL0     H18048  -1.946  10.120  -0.019 -2.3127 -1.1149 -0.1548
  134MOL0     H18049  -2.057  10.222   0.073 -0.2080  0.2302  0.1154
  134MOL0     H18050  -1.906   9.896   0.315 -0.7823  0.1623  0.5545
  134MOL0     H18051  -1.882   9.668   0.381  0.3322  0.2586 -1.3772
  134MOL0     H18052  -2.040   9.600   0.408 -0.0371  0.5015  1.2324
  134MOL0     H18053  -1.944   9.545   0.260  0.6435  0.7286 -0.8462
  134MOL0     H18054  -2.517   9.453   0.209 -1.1954 -0.8402 -0.1939
  134MOL0     H18055  -2.625   9.249   0.140 -0.0725  0.0545 -1.1962
  134MOL0     H18056  -2.671   9.039   0.064  1.1991 -2.7874 -0.7190
  134MOL0     H18057  -2.792   9.123  -0.045 -0.4501  0.1396  1.3387
  134MOL0     H18058  -2.804   8.889  -0.081 -0.5254  0.3302 -1.8222
  134MOL0     H18059  -2.749   8.971  -0.223 -6.2664 -0.4340  2.3263
  134MOL0     H18060  -2.508   8.892  -0.175 -0.8872  2.2603 -0.9118
  134MOL0     H18061  -2.606   8.751  -0.186  0.3254  1.4766 -2.1262
  134MOL0     H18062  -2.507   8.886   0.068  0.9467 -1.2903 -0.6292
  134MOL0     H18063  -2.657   8.794   0.084 -1.8854  4.7689 -1.9645
  134MOL0     H18064  -2.376   8.722  -0.004  0.6167  1.2752  1.5219
  134MOL0     H18065  -2.519   8.604  -0.013  0.1933  2.2312 -3.1385
  134MOL0     H18066  -2.404   8.730   0.233  0.9431  0.2317 -0.1628
  134MOL0     H18067  -2.551   8.619   0.215 -0.3072  0.8979 -0.9069
  134MOL0     H18068  -2.248   8.565   0.169  0.0563  0.9805  0.1450
  134MOL0     H18069  -2.377   8.473   0.090 -0.2037 -2.1093  1.1933
  134MOL0     H18070  -2.300   8.350   0.263 -0.0551 -0.0567 -0.4065
  134MOL0     H18071  -2.465   8.409   0.316 -0.3619  0.1723 -1.6847
  134MOL0     H18072  -2.432   9.270  -0.243  1.1863  1.9912 -1.2463
  134MOL0     H18073  -2.309   9.491  -0.158  1.4037 -1.1842  0.3601
  134MOL0     H18074  -2.288   9.809   0.020 -1.7778 -0.5961  2.6805
  134MOL0     H18075  -2.190  10.035   0.045  0.5255  2.0379  1.8863
  134MOL0     H18076  -0.470   9.693   0.777 -0.2255  0.9216  1.2960
  134MOL0     H18077  -0.216   9.676   0.793  1.9161  1.6443  0.9277
  134MOL0     H18078   0.238   9.916   0.870 -0.0082  2.6399 -1.5333
  134MOL0     H18079   0.461   9.878   0.850  1.0948  2.8179 -1.7239
  134MOL0     H18080   0.665   9.886   0.739  0.9957  0.2459  0.3109
  134MOL0     H18081   0.719   9.727   0.803 -0.4390 -1.8874 -0.1206
  134MOL0     H18082   0.797   9.832   0.527  0.4713 -1.2431 -1.1837
  134MOL0     H18083   0.824   9.673   0.608 -1.4794  0.2589 -0.0748
  134MOL0     H18084   0.966   9.767   0.779  0.9979 -0.9349 -1.7105
  134MOL0     H18085   0.896   9.935   0.761  3.1539  2.1643 -3.9072
  134MOL0     H18086   1.112   9.932   0.713 -0.2816 -1.1808 -0.2586
  134MOL0     H18087   1.032   9.965   0.562 -0.2632  0.8341  0.7456
  134MOL0     H18088   1.203   9.570   0.488 -1.3419  0.3034 -0.9571
  134MOL0     H18089   0.408   9.657   0.490 -2.5434  0.2572 -1.4118
  134MOL0     H18090   0.156   9.687   0.513  0.6857  0.0166  0.7110
  135MOL0     O18091   9.799   5.751   0.641  0.5649  0.0162  0.1977
  135MOL0     C18092   9.755   5.840   0.708 -0.2767 -0.4678 -0.9229
  135MOL0     O18093   9.619   5.858   0.742  0.1277 -0.1071  0.1603
  135MOL0     C18094   9.529   5.784   0.676 -0.2610  0.2313  0.2648
  135MOL0     C18095   9.423   5.851   0.606  0.3777 -0.0071 -0.1301
  135MOL0     C18096   9.321   5.781   0.549  0.3452  0.5290  0.1070
  135MOL0     C18097   9.324   5.640   0.556  0.3995 -0.3712  0.2428
  135MOL0     O18098   9.231   5.569   0.479  0.4592  0.3342  0.1440
  135MOL0     C18099   9.258   5.431   0.449  0.4196  1.1870  0.7587
  135MOL0     C18100   9.149   5.397   0.349  0.1007  1.1496  0.3742
  135MOL0     C18101   9.006   5.389   0.409 -0.2710 -0.2152 -0.1917
  135MOL0     C18102   8.912   5.369   0.288  0.3863 -0.4958 -0.0700
  135MOL0     C18103   8.774   5.351   0.333  1.0546  0.0477  0.2544
  135MOL0     C18104   8.669   5.406   0.227 -0.5912 -0.6399  0.3570
  135MOL0     C18105   8.706   5.353   0.082  0.7849 -0.7055 -0.6204
  135MOL0     C18106   8.727   5.202   0.081  0.0020 -0.3232  0.6713
  135MOL0     N18107   8.607   5.133   0.129  0.2721  0.4116  0.1964
  135MOL0     C18108   8.480   5.152   0.080  0.4708  0.5410  0.7059
  135MOL0     C18109   8.399   5.061   0.141 -0.2157 -0.5596  0.0423
  135MOL0     C18110   8.249   5.032   0.119  0.3388  0.0905 -0.5800
  135MOL0     C18111   8.165   5.162   0.165 -0.4809 -0.2477  0.6189
  135MOL0     C18112   8.011   5.138   0.161  0.4808 -0.0913  0.1904
  135MOL0     C18113   7.927   5.267   0.198 -0.5525  0.7757  0.6887
  135MOL0     O18114   7.788   5.246   0.169 -1.1129 -0.1621  0.5636
  135MOL0     C18115   7.708   5.201   0.265 -0.1781  0.1927  0.7292
  135MOL0     C18116   7.737   5.149   0.387 -0.1406  0.4122 -0.0829
  135MOL0     C18117   7.631   5.106   0.475 -0.4591  1.1745  0.0676
  135MOL0     C18118   7.683   5.053   0.606 -0.0345  0.0807 -0.3576
  135MOL0     C18119   7.501   5.115   0.433  0.5218 -0.9380  0.6333
  135MOL0     C18120   7.378   5.075   0.512  1.0948 -0.7995 -0.8295
  135MOL0     O18121   7.258   5.106   0.454  0.2754 -0.2785  0.7147
  135MOL0     C18122   7.137   5.080   0.513 -0.0506 -0.2598  0.1404
  135MOL0     C18123   7.026   5.128   0.442 -0.4575 -0.2337 -0.0362
  135MOL0     C18124   6.890   5.114   0.476 -0.4998  0.6900  0.0189
  135MOL0     C18125   6.865   5.039   0.593 -0.2871 -0.5713 -0.5789
  135MOL0     O18126   6.737   5.024   0.640 -0.0577  0.2866 -0.2052
  135MOL0     C18127   6.621   5.064   0.568 -0.4077 -1.2164 -0.2957
  135MOL0     C18128   6.607   5.213   0.605 -0.8389 -0.3255  1.1374
  135MOL0     C18129   6.476   5.269   0.546 -0.0389  0.1398 -0.6226
  135MOL0     C18130   6.463   5.419   0.532  0.3863  0.3387 -0.1461
  135MOL0     C18131   6.326   5.456   0.471 -0.1167 -0.2799  0.4539
  135MOL0     C18132   6.282   5.604   0.463  0.5339  0.2079  0.4238
  135MOL0     C18133   6.381   5.697   0.397  0.2523  0.3526 -0.1065
  135MOL0     C18134   6.353   5.689   0.245  1.2897  0.1273 -0.8461
  135MOL0    Cl18135   6.495   5.728   0.140  0.3862 -0.1349 -0.2773
  135MOL0     C18136   6.975   4.991   0.670  0.0192  0.9184  0.3084
  135MOL0     C18137   7.111   5.006   0.621  1.2940  0.3552 -0.4402
  135MOL0     O18138   7.392   5.025   0.621  0.4016  0.0596 -0.3904
  135MOL0     C18139   7.472   5.164   0.306 -0.6398 -0.7106 -0.9814
  135MOL0     C18140   7.578   5.208   0.218  0.2929 -0.6463 -0.9441
  135MOL0     N18141   8.485   5.004   0.241  0.0197 -0.3590 -0.3989
  135MOL0     N18142   8.601   5.045   0.231  0.9249  0.1138  0.4821
  135MOL0     C18143   9.435   5.575   0.612  0.1933  0.6502 -0.0351
  135MOL0     C18144   9.531   5.642   0.678  0.2714  0.0739  0.0505
  135MOL0     C18145   9.859   5.945   0.743  0.3640  0.5756 -1.0293
  135MOL0     C18146   9.825   6.030   0.848 -0.0111 -0.2274  0.1838
  135MOL0     C18147   9.918   6.129   0.884 -0.1614 -0.7553 -0.3825
  135MOL0     C18148  10.041   6.139   0.829  0.0819  0.5710  0.1060
  135MOL0     O18149  10.106   6.248   0.864 -0.3076  0.1685 -0.3793
  135MOL0     C18150  10.244   6.251   0.840 -0.2898  0.6282 -0.3307
  135MOL0     C18151  10.276   6.399   0.813  0.2638 -0.6214 -0.3914
  135MOL0     C18152  10.265   6.483   0.939  0.0173 -0.1776  0.1426
  135MOL0     C18153  10.377   6.467   1.036 -0.1729 -0.1622  0.4640
  135MOL0     C18154  10.379   6.586   1.128  0.1376 -1.4347 -0.6593
  135MOL0     C18155  10.374   6.691   1.201 -0.3858 -0.4775 -0.2268
  135MOL0     C18156  10.076   6.050   0.719  0.8697  0.1337  0.0556
  135MOL0     C18157   9.978   5.956   0.676 -0.4082 -0.5302  0.6014
  135MOL0     H18158   9.422   5.958   0.587 -1.1992 -0.0818 -0.5857
  135MOL0     H18159   9.249   5.846   0.499 -1.1853  2.5897  4.4130
  135MOL0     H18160   9.350   5.428   0.390 -1.4305 -1.4551 -2.2603
  135MOL0     H18161   9.243   5.360   0.531 -1.9650  0.1574 -0.4809
  135MOL0     H18162   9.145   5.484   0.283 -0.3402  1.9403  1.4080
  135MOL0     H18163   9.166   5.303   0.297  1.1004  0.0081  2.5980
  135MOL0     H18164   8.994   5.310   0.484 -3.9166 -1.9348 -2.2807
  135MOL0     H18165   8.977   5.484   0.455 -4.0051 -0.7962 -1.0321
  135MOL0     H18166   8.907   5.467   0.239  2.2970  0.0357  0.6901
  135MOL0     H18167   8.947   5.299   0.212  2.5322  0.5425 -0.1145
  135MOL0     H18168   8.765   5.245   0.355  1.8661 -0.1628 -0.3467
  135MOL0     H18169   8.750   5.404   0.426 -0.0247  1.5598 -0.8238
  135MOL0     H18170   8.570   5.372   0.258  0.7119 -5.4020  0.1449
  135MOL0     H18171   8.672   5.515   0.232  0.8636 -0.6918  1.0256
  135MOL0     H18172   8.617   5.389   0.028  1.3946  2.1443  0.1030
  135MOL0     H18173   8.796   5.390   0.033  0.8064 -1.6216 -1.2999
  135MOL0     H18174   8.817   5.170   0.136  0.1349  1.3341  1.4788
  135MOL0     H18175   8.749   5.174  -0.022 -2.9055  0.9109 -0.3797
  135MOL0     H18176   8.445   5.231   0.016  1.3780 -0.4689 -1.1121
  135MOL0     H18177   8.222   5.007   0.016  1.4170  0.0288 -0.8540
  135MOL0     H18178   8.235   4.944   0.183 -0.6833  0.3862 -0.3732
  135MOL0     H18179   8.198   5.242   0.098  1.4147 -0.2423  1.4854
  135MOL0     H18180   8.193   5.202   0.263 -2.1092  1.4691  0.4348
  135MOL0     H18181   7.988   5.057   0.232 -3.1253 -1.1997 -1.9480
  135MOL0     H18182   7.979   5.108   0.061 -2.6072  1.0679  0.7135
  135MOL0     H18183   7.963   5.344   0.129  0.3873 -1.3610 -1.3041
  135MOL0     H18184   7.943   5.308   0.299 -0.5487  3.2906 -0.2512
  135MOL0     H18185   7.840   5.137   0.417 -0.5619 -0.4341  1.1186
  135MOL0     H18186   7.792   5.062   0.610 -0.0365  1.8410 -2.5794
  135MOL0     H18187   7.644   5.109   0.692  1.6137 -2.2625  2.0817
  135MOL0     H18188   7.666   4.946   0.620  0.1895  0.1838  0.7998
  135MOL0     H18189   7.054   5.189   0.357  1.8121 -0.1944  0.6629
  135MOL0     H18190   6.810   5.162   0.420 -0.5669 -0.7113 -1.1558
  135MOL0     H18191   6.636   5.056   0.460  0.1419  4.9957 -1.0087
  135MOL0     H18192   6.539   4.996   0.595 -2.1160  0.3332 -1.3663
  135MOL0     H18193   6.598   5.227   0.714  0.2392  2.0323  0.9958
  135MOL0     H18194   6.688   5.280   0.575 -0.4801 -1.2954 -0.1583
  135MOL0     H18195   6.402   5.231   0.617  0.6614 -1.0254 -0.4869
  135MOL0     H18196   6.452   5.230   0.446 -3.5138  3.8912 -1.5517
  135MOL0     H18197   6.470   5.463   0.632 -1.1291 -0.3400  0.2807
  135MOL0     H18198   6.543   5.467   0.474  0.7377  1.1831  1.0017
  135MOL0     H18199   6.257   5.403   0.538 -0.6841  0.7381  0.6952
  135MOL0     H18200   6.315   5.408   0.374  0.4374  0.3610  0.0701
  135MOL0     H18201   6.186   5.613   0.412  0.9888  1.7286 -0.2212
  135MOL0     H18202   6.273   5.638   0.567  1.6670  0.5880  0.4189
  135MOL0     H18203   6.481   5.663   0.426  0.2471  0.3547 -0.0851
  135MOL0     H18204   6.374   5.800   0.431  4.2278  1.2216 -1.4338
  135MOL0     H18205   6.265   5.753   0.233 -0.4346 -1.4798  2.0020
  135MOL0     H18206   6.320   5.589   0.217 -1.8855  0.0608  2.3510
  135MOL0     H18207   6.954   4.923   0.752 -1.2540 -0.3468 -0.9932
  135MOL0     H18208   7.185   4.956   0.682  0.2031  1.6724  2.0838
  135MOL0     H18209   7.369   5.164   0.273 -1.6481 -2.1016  1.8100
  135MOL0     H18210   7.557   5.253   0.122  1.0112  4.8837  1.1329
  135MOL0     H18211   9.441   5.467   0.598 -2.4734  0.4291 -0.1089
  135MOL0     H18212   9.606   5.592   0.738  2.0175  0.4308 -1.7375
  135MOL0     H18213   9.731   6.017   0.902  0.7353 -0.3841  1.4790
  135MOL0     H18214   9.900   6.205   0.959 -0.4238 -1.3376  0.1484
  135MOL0     H18215  10.287   6.229   0.939  1.3126  2.5258 -0.5327
  135MOL0     H18216  10.286   6.182   0.767 -0.8754 -1.7550  1.4367
  135MOL0     H18217  10.211   6.432   0.732  2.3905 -0.8765 -2.3109
  135MOL0     H18218  10.374   6.404   0.765 -0.8624  3.5963 -2.7937
  135MOL0     H18219  10.175   6.457   0.997 -0.6300  0.2800 -0.6361
  135MOL0     H18220  10.261   6.586   0.905  0.0475  0.2233  1.3024
  135MOL0     H18221  10.473   6.470   0.984  1.2028  4.0812  2.7124
  135MOL0     H18222  10.363   6.376   1.094  1.3846 -0.0649  1.0305
  135MOL0     H18223  10.373   6.765   1.277  0.2927 -0.8034  0.1085
  135MOL0     H18224  10.167   6.065   0.662  1.1530  1.2107  0.7632
  135MOL0     H18225   9.998   5.900   0.585  2.8328  2.1958 -0.5537
  136MOL0     O18226   0.718   7.418   2.915 -0.6737 -0.0996 -0.1465
  136MOL0     C18227   0.760   7.364   3.019 -0.4572 -0.7010  0.5011
  136MOL0     O18228   0.791   7.431   3.135  0.0340  0.5923 -0.6951
  136MOL0     C18229   0.759   7.564   3.153  0.0858  0.0037  0.8827
  136MOL0     C18230   0.775   7.662   3.052  0.9821  0.0117  0.1934
  136MOL0     C18231   0.758   7.799   3.094 -1.0320 -0.2656 -0.6920
  136MOL0     C18232   0.727   7.830   3.226  1.1031 -0.3592 -0.6189
  136MOL0     O18233   0.681   7.961   3.244  0.1669 -0.0873  0.1474
  136MOL0     C18234   0.568   7.982   3.328  0.8223 -0.5308  0.5096
  136MOL0     C18235   0.443   7.997   3.239  0.0680 -0.0560  0.4278
  136MOL0     C18236   0.334   8.065   3.311 -0.0805  0.0566 -0.0818
  136MOL0     C18237   0.205   8.100   3.225  0.5349  0.5773 -0.8044
  136MOL0     C18238   0.081   8.129   3.313 -0.1071  0.5565  0.2295
  136MOL0     C18239  -0.007   8.005   3.335 -0.4628  0.3916 -0.1030
  136MOL0     C18240  -0.096   7.976   3.210  0.7719 -0.0574  0.5836
  136MOL0     C18241  -0.211   7.885   3.245 -0.3107  0.9221 -0.4056
  136MOL0     N18242  -0.154   7.755   3.299  0.8292  0.0735 -0.9572
  136MOL0     C18243  -0.069   7.673   3.238  0.1168  0.4028 -0.4507
  136MOL0     C18244  -0.068   7.564   3.313  0.4111  0.1180 -0.1489
  136MOL0     C18245   0.011   7.445   3.271 -0.1999  0.0583 -0.3354
  136MOL0     C18246  -0.081   7.320   3.285  0.5460 -0.6916 -0.6768
  136MOL0     C18247  -0.008   7.205   3.215  0.3619  1.1765 -0.2523
  136MOL0     C18248  -0.063   7.056   3.236 -0.1550 -0.0311  0.2979
  136MOL0     O18249   0.031   6.967   3.166  0.2500  0.0852 -0.3183
  136MOL0     C18250   0.037   6.836   3.199 -0.0380 -1.0505 -0.2694
  136MOL0     C18251  -0.064   6.765   3.240 -0.2338 -0.0868 -0.3588
  136MOL0     C18252  -0.057   6.616   3.254  0.8481 -0.2110  0.2160
  136MOL0     C18253  -0.190   6.550   3.294 -0.3808 -0.8370  0.2590
  136MOL0     C18254   0.060   6.549   3.222  0.6666 -0.0345 -0.2886
  136MOL0     C18255   0.073   6.398   3.239 -0.5219  0.2884 -0.1985
  136MOL0     O18256  -0.031   6.329   3.292 -0.8299  0.8965  0.3347
  136MOL0     C18257  -0.013   6.191   3.272  0.3669  0.6282 -0.6291
  136MOL0     C18258  -0.024   6.108   3.388  0.9272 -0.8930 -0.1028
  136MOL0     C18259  -0.047   5.976   3.373 -0.2090  0.2306  0.0180
  136MOL0     C18260  -0.039   5.912   3.254 -0.3486  0.5625  0.4276
  136MOL0     O18261  -0.041   5.774   3.255 -0.3423  0.4966  0.2825
  136MOL0     C18262   0.080   5.715   3.207 -0.1300 -0.0359 -0.6411
  136MOL0     C18263   0.123   5.577   3.274 -0.0614  0.2923 -0.1926
  136MOL0     C18264   0.178   5.577   3.412 -0.0307 -0.3727 -0.7281
  136MOL0     C18265   0.113   5.681   3.500 -0.0150 -0.6056  1.6163
  136MOL0     C18266   0.150   5.666   3.645 -0.0210 -0.2028  0.2603
  136MOL0     C18267   0.104   5.790   3.714  0.3802 -0.2067  0.7013
  136MOL0     C18268   0.141   5.799   3.856 -0.9122 -0.2591  0.4490
  136MOL0     C18269   0.054   5.898   3.934 -0.0065 -0.1231  0.4758
  136MOL0    Cl18270   0.128   5.941   4.096  0.4482  0.3010  0.0678
  136MOL0     C18271  -0.027   5.988   3.143 -0.2410 -0.0595  0.3881
  136MOL0     C18272  -0.021   6.129   3.147 -0.0595  0.2764  0.0964
  136MOL0     O18273   0.182   6.350   3.208  0.0850 -0.0734 -0.1928
  136MOL0     C18274   0.160   6.630   3.171  0.0843  0.7556  0.1251
  136MOL0     C18275   0.149   6.766   3.164 -0.0618 -0.4836  0.6623
  136MOL0     N18276  -0.150   7.583   3.426  0.1401  0.4592 -0.2716
  136MOL0     N18277  -0.187   7.709   3.421  0.2263  0.0652 -0.5876
  136MOL0     C18278   0.722   7.730   3.324 -0.1050 -0.4357  0.8574
  136MOL0     C18279   0.743   7.595   3.284 -0.5583  0.2866  0.2055
  136MOL0     C18280   0.797   7.222   3.002 -0.4089  0.1231 -0.0399
  136MOL0     C18281   0.768   7.151   2.889 -0.9284  0.1275  1.4009
  136MOL0     C18282   0.796   7.009   2.884  0.5367  0.9075  0.8859
  136MOL0     C18283   0.853   6.935   2.994  0.5547  0.0963 -0.4006
  136MOL0     O18284   0.878   6.807   2.980 -0.0511 -0.9793  0.3664
  136MOL0     C18285   0.969   6.747   3.073 -0.1324 -0.2728  0.6303
  136MOL0     C18286   1.022   6.620   3.007 -0.4712 -0.5914 -0.9580
  136MOL0     C18287   1.085   6.517   3.111  0.3635 -0.5289  0.3464
  136MOL0     C18288   1.091   6.373   3.071 -0.8003 -0.5581 -0.8083
  136MOL0     C18289   1.188   6.347   2.962  0.0831  0.2334 -0.2715
  136MOL0     C18290   1.267   6.299   2.880  0.9358  0.4839  0.5317
  136MOL0     C18291   0.884   7.014   3.110  0.2853  0.1462  0.4714
  136MOL0     C18292   0.860   7.154   3.114  0.3809 -0.5308 -0.2709
  136MOL0     H18293   0.795   7.643   2.947  0.4674 -0.5113  0.1854
  136MOL0     H18294   0.760   7.870   3.012  0.1276  0.4983 -0.0377
  136MOL0     H18295   0.541   7.909   3.405  2.2629 -1.4163  0.2185
  136MOL0     H18296   0.578   8.083   3.369  0.1666  1.3507 -3.5226
  136MOL0     H18297   0.470   8.066   3.158 -1.3492  3.0441  2.4005
  136MOL0     H18298   0.409   7.904   3.194 -1.3423  1.1441 -1.1538
  136MOL0     H18299   0.313   7.994   3.391  1.6780 -0.0211  0.3595
  136MOL0     H18300   0.374   8.164   3.337  1.8629 -0.6950 -0.0081
  136MOL0     H18301   0.217   8.187   3.158 -2.6951  2.3953  0.7164
  136MOL0     H18302   0.192   8.017   3.155 -2.4848 -0.3143  0.6327
  136MOL0     H18303   0.121   8.174   3.404  0.0143  0.8776  0.0202
  136MOL0     H18304   0.018   8.200   3.259 -0.3078 -1.2706 -2.1470
  136MOL0     H18305   0.062   7.923   3.355  1.5576  1.1812 -3.1968
  136MOL0     H18306  -0.075   8.022   3.419 -2.0291  0.6714 -1.3820
  136MOL0     H18307  -0.143   8.068   3.173 -2.3393 -0.3551  3.3650
  136MOL0     H18308  -0.046   7.933   3.123  0.8251  0.9373  0.1073
  136MOL0     H18309  -0.270   7.844   3.162 -0.3372 -1.4199  0.6688
  136MOL0     H18310  -0.280   7.943   3.307 -1.2321  0.3057 -0.8255
  136MOL0     H18311  -0.013   7.691   3.146  3.9943  1.1781  1.8581
  136MOL0     H18312   0.055   7.453   3.172  3.2233  2.0362  1.1870
  136MOL0     H18313   0.100   7.432   3.333  0.3533 -0.5613 -1.2455
  136MOL0     H18314  -0.163   7.347   3.218  0.1400  1.2352  0.5271
  136MOL0     H18315  -0.110   7.314   3.390  1.8084  0.8025 -0.1981
  136MOL0     H18316   0.099   7.201   3.236  0.5218 -2.1223 -1.1364
  136MOL0     H18317  -0.016   7.228   3.108 -3.3553 -2.5509 -1.0383
  136MOL0     H18318  -0.160   7.044   3.186 -0.7059  2.4163  0.6514
  136MOL0     H18319  -0.075   7.034   3.343 -1.6811  0.1456  0.1930
  136MOL0     H18320  -0.149   6.825   3.269  0.3385  0.9146 -0.7135
  136MOL0     H18321  -0.179   6.502   3.392 -0.0248  0.5189  0.9045
  136MOL0     H18322  -0.268   6.625   3.306  1.2646  1.5408 -2.6177
  136MOL0     H18323  -0.227   6.482   3.217 -2.8948  1.4938 -0.7194
  136MOL0     H18324  -0.036   6.159   3.483  0.2828 -0.3729 -0.4495
  136MOL0     H18325  -0.082   5.916   3.458 -5.5388 -2.1857 -3.3279
  136MOL0     H18326   0.068   5.707   3.098  1.0803  1.6723 -0.9407
  136MOL0     H18327   0.157   5.792   3.208 -0.5747  0.4337  1.0377
  136MOL0     H18328   0.033   5.518   3.296  1.8430 -1.3139  4.7207
  136MOL0     H18329   0.189   5.516   3.213  1.2526 -1.0721  2.4170
  136MOL0     H18330   0.286   5.594   3.407  0.2202 -0.6322  2.2943
  136MOL0     H18331   0.157   5.481   3.459 -2.5945  0.8298  0.8321
  136MOL0     H18332   0.143   5.779   3.461 -2.3229 -0.0239  1.1744
  136MOL0     H18333   0.004   5.678   3.492  0.0163 -0.9762  1.2941
  136MOL0     H18334   0.259   5.667   3.656 -0.1440 -0.7575  1.8093
  136MOL0     H18335   0.113   5.568   3.676 -0.9561 -0.2656 -0.9664
  136MOL0     H18336   0.155   5.869   3.658  2.4065 -2.0665 -0.2243
  136MOL0     H18337  -0.004   5.807   3.708  1.0085  4.4034 -2.3909
  136MOL0     H18338   0.243   5.835   3.867 -0.3392 -1.3467 -1.0145
  136MOL0     H18339   0.146   5.698   3.898 -1.5505 -0.8355 -0.8043
  136MOL0     H18340  -0.047   5.856   3.944  0.4991 -2.0462 -1.6871
  136MOL0     H18341   0.035   5.988   3.874  1.3711  0.5860  1.0610
  136MOL0     H18342  -0.046   5.937   3.049 -2.3391  0.4100  0.5036
  136MOL0     H18343  -0.021   6.186   3.055  0.7363  0.7774  0.3936
  136MOL0     H18344   0.250   6.583   3.134 -1.5974 -1.6190 -1.1997
  136MOL0     H18345   0.224   6.814   3.101 -0.8466 -0.7866 -0.5422
  136MOL0     H18346   0.707   7.754   3.429  0.3736  2.5719  0.2988
  136MOL0     H18347   0.737   7.522   3.364 -1.2741 -1.0001 -0.9793
  136MOL0     H18348   0.736   7.205   2.801 -0.8395  2.3415  2.6546
  136MOL0     H18349   0.761   6.948   2.801  1.7332  0.9180  0.3604
  136MOL0     H18350   1.054   6.811   3.100 -1.1506  0.7505  1.5540
  136MOL0     H18351   0.919   6.729   3.169  1.1291  0.9153  1.5582
  136MOL0     H18352   1.093   6.640   2.926 -0.0572 -1.7627 -0.9084
  136MOL0     H18353   0.944   6.571   2.949  0.3239 -3.2640  0.0557
  136MOL0     H18354   1.022   6.505   3.200 -1.0937  0.5973 -0.4913
  136MOL0     H18355   1.184   6.555   3.136  0.8850 -1.5886 -0.0149
  136MOL0     H18356   0.995   6.340   3.029 -1.4463 -0.0865  0.2580
  136MOL0     H18357   1.121   6.314   3.158 -1.9132  0.7601  0.5257
  136MOL0     H18358   1.349   6.257   2.824 -0.1471 -1.6542  0.4265
  136MOL0     H18359   0.928   6.977   3.202  0.1774  0.4450  0.6433
  136MOL0     H18360   0.892   7.200   3.207 -1.8708 -1.4020  1.0148
  137MOL0     O18361   2.418   2.197   8.393  0.1044  0.1866  0.6403
  137MOL0     C18362   2.518   2.185   8.318 -0.1233 -0.4763  0.1419
  137MOL0     O18363   2.511   2.175   8.183 -0.2125  0.3784  0.0036
  137MOL0     C18364   2.392   2.188   8.126  0.4283  0.5989  0.7134
  137MOL0     C18365   2.342   2.072   8.063  0.0638  0.9365  1.1739
  137MOL0     C18366   2.217   2.080   7.999 -0.3224 -0.8613 -0.2004
  137MOL0     C18367   2.141   2.199   8.016 -1.2882 -0.3710 -0.5282
  137MOL0     O18368   2.014   2.218   7.962 -0.1347 -0.0456 -0.6761
  137MOL0     C18369   2.012   2.204   7.814 -0.4256 -0.4061 -0.4738
  137MOL0     C18370   1.873   2.137   7.788  0.5773  0.0091  0.0616
  137MOL0     C18371   1.830   2.157   7.650  0.1945  0.6406  0.5294
  137MOL0     C18372   1.682   2.135   7.633 -0.1204 -0.7351 -0.4549
  137MOL0     C18373   1.604   2.259   7.657 -0.0029 -0.0197 -0.4259
  137MOL0     C18374   1.454   2.238   7.633  0.3942  0.0968 -0.9200
  137MOL0     C18375   1.381   2.155   7.752 -1.5105 -0.3049  0.1783
  137MOL0     C18376   1.235   2.123   7.737 -0.1277  0.5659  0.4885
  137MOL0     N18377   1.142   2.234   7.717 -0.0662  0.4431 -0.2071
  137MOL0     C18378   1.005   2.212   7.735  0.2445  0.4472  0.9254
  137MOL0     C18379   0.948   2.330   7.757  0.0282 -0.3118 -0.2689
  137MOL0     C18380   0.798   2.364   7.771  0.0752 -0.6013 -0.9794
  137MOL0     C18381   0.784   2.475   7.880  0.6988 -0.1030 -0.2452
  137MOL0     C18382   0.643   2.472   7.934 -0.2709  0.4578 -0.6537
  137MOL0     C18383   0.636   2.557   8.057 -0.8551  0.0602 -0.4205
  137MOL0     O18384   0.644   2.483   8.175  0.1990  0.7047  0.1832
  137MOL0     C18385   0.639   2.544   8.296 -0.3411  0.1262 -0.0382
  137MOL0     C18386   0.523   2.551   8.364  0.1791  0.5904 -0.6575
  137MOL0     C18387   0.522   2.599   8.496  0.8081 -0.5474 -0.9952
  137MOL0     C18388   0.398   2.584   8.578 -0.3360  0.1775 -0.2995
  137MOL0     C18389   0.637   2.659   8.550 -0.4676  0.6615 -0.0935
  137MOL0     C18390   0.639   2.730   8.688 -0.7347 -0.5200  1.0557
  137MOL0     O18391   0.759   2.768   8.748  0.2049 -0.1353  0.3720
  137MOL0     C18392   0.757   2.880   8.825 -0.0614 -0.8221 -0.1098
  137MOL0     C18393   0.860   2.885   8.917 -0.0843 -0.1434  0.0279
  137MOL0     C18394   0.873   2.992   9.003 -0.5327  0.1939  1.1616
  137MOL0     C18395   0.779   3.094   9.003 -0.4085  0.5172  0.1685
  137MOL0     O18396   0.803   3.214   9.070  0.5390  0.1564 -0.0007
  137MOL0     C18397   0.942   3.237   9.116 -0.6425 -0.1534 -0.2765
  137MOL0     C18398   0.959   3.387   9.164  0.8786 -0.1242  0.0010
  137MOL0     C18399   1.112   3.422   9.144  1.5660  0.0303 -0.7230
  137MOL0     C18400   1.121   3.485   9.003  0.7992  0.2600  0.5582
  137MOL0     C18401   1.265   3.476   8.948 -0.5316  0.1654  0.0040
  137MOL0     C18402   1.275   3.533   8.811  0.1254 -0.3367  0.9553
  137MOL0     C18403   1.210   3.453   8.699 -0.7031 -0.4634 -0.8449
  137MOL0     C18404   1.277   3.453   8.554 -0.5293  0.3651  0.0450
  137MOL0    Cl18405   1.436   3.383   8.569  0.0041 -0.2003  0.0678
  137MOL0     C18406   0.678   3.097   8.912  0.8120 -0.7846 -0.7395
  137MOL0     C18407   0.669   2.992   8.817  0.1622 -0.5351 -0.0027
  137MOL0     O18408   0.529   2.744   8.745  0.6149 -0.2317  0.2991
  137MOL0     C18409   0.752   2.666   8.471 -0.7289  0.2373  0.1852
  137MOL0     C18410   0.748   2.610   8.343  0.3889  0.5454 -0.1402
  137MOL0     N18411   1.048   2.423   7.767  0.7011 -0.0844  0.0475
  137MOL0     N18412   1.166   2.365   7.742 -0.6147  0.5838 -1.0614
  137MOL0     C18413   2.183   2.305   8.095  0.1421 -0.4638  0.5959
  137MOL0     C18414   2.310   2.304   8.144 -0.4012  0.3233  0.0125
  137MOL0     C18415   2.653   2.184   8.393 -0.0578  0.4790  0.3323
  137MOL0     C18416   2.768   2.150   8.321  1.3024  0.9398 -0.3231
  137MOL0     C18417   2.890   2.163   8.386 -0.1217 -0.4228  0.7165
  137MOL0     C18418   2.908   2.204   8.520 -0.3919 -0.4689 -0.5591
  137MOL0     O18419   3.036   2.219   8.581 -0.1203  0.1414 -0.3338
  137MOL0     C18420   3.032   2.251   8.723  0.5177  0.0042 -0.0347
  137MOL0     C18421   3.177   2.251   8.771 -0.0669 -0.2302 -0.0741
  137MOL0     C18422   3.182   2.280   8.917  0.0428 -0.3123  0.0983
  137MOL0     C18423   3.325   2.254   8.985 -0.6151 -0.1663  0.3352
  137MOL0     C18424   3.439   2.272   8.898 -0.7108  0.3294  0.3017
  137MOL0     C18425   3.513   2.279   8.797  1.1904  0.4882  0.4923
  137MOL0     C18426   2.785   2.238   8.585 -0.9376 -1.1090  0.6735
  137MOL0     C18427   2.658   2.234   8.523  0.4597  0.7772 -0.5268
  137MOL0     H18428   2.404   1.984   8.051 -0.0649  1.0490 -0.5542
  137MOL0     H18429   2.175   2.003   7.936 -2.3122  0.5227 -0.6715
  137MOL0     H18430   2.039   2.298   7.764  0.2713 -0.9160 -1.0823
  137MOL0     H18431   2.083   2.129   7.778  1.8153  1.3778 -0.0381
  137MOL0     H18432   1.877   2.028   7.797  2.0065 -0.1582 -1.9875
  137MOL0     H18433   1.796   2.179   7.854 -1.0519 -2.9926  0.2838
  137MOL0     H18434   1.864   2.256   7.620  0.5460  0.7542  1.2897
  137MOL0     H18435   1.892   2.084   7.597 -0.7686 -1.7826  2.5170
  137MOL0     H18436   1.658   2.098   7.533 -0.7558 -0.5748 -0.3659
  137MOL0     H18437   1.647   2.056   7.699  1.4518 -1.8153 -0.8720
  137MOL0     H18438   1.634   2.297   7.755 -0.8698 -0.0882 -0.1224
  137MOL0     H18439   1.632   2.340   7.590 -1.3217 -0.1721 -1.1975
  137MOL0     H18440   1.408   2.338   7.635  2.4779  1.1108  1.9892
  137MOL0     H18441   1.436   2.196   7.533  0.2692 -1.6402 -0.2015
  137MOL0     H18442   1.436   2.062   7.765 -1.2314 -0.1029  0.4779
  137MOL0     H18443   1.392   2.214   7.844 -0.4869  0.4331 -0.3884
  137MOL0     H18444   1.206   2.053   7.816 -0.5624 -3.7698 -3.1079
  137MOL0     H18445   1.236   2.067   7.643  0.5704  1.8345 -0.2851
  137MOL0     H18446   0.959   2.114   7.734  3.0944 -1.0323 -1.1905
  137MOL0     H18447   0.758   2.411   7.681 -3.4048 -0.9907  0.2163
  137MOL0     H18448   0.738   2.278   7.803 -1.2249  0.4041 -0.6563
  137MOL0     H18449   0.802   2.577   7.843  3.0110 -0.2531  0.2910
  137MOL0     H18450   0.852   2.473   7.966 -1.7178  2.2365  1.8805
  137MOL0     H18451   0.618   2.369   7.959  0.5330  0.2766 -0.5621
  137MOL0     H18452   0.569   2.508   7.861 -1.1736 -1.2662 -0.6440
  137MOL0     H18453   0.542   2.611   8.066 -1.1804 -0.7239  1.2732
  137MOL0     H18454   0.721   2.626   8.050  0.4477 -1.5807 -2.1001
  137MOL0     H18455   0.429   2.518   8.320  0.2996  0.7870 -1.0700
  137MOL0     H18456   0.337   2.673   8.596  1.0758  0.6294  3.2582
  137MOL0     H18457   0.337   2.517   8.517 -1.7252  1.2615 -0.1422
  137MOL0     H18458   0.418   2.535   8.674 -1.7398  1.0151  0.4592
  137MOL0     H18459   0.927   2.799   8.926  1.6965  1.1392 -0.4381
  137MOL0     H18460   0.960   2.991   9.068 -0.4316  1.7574  1.0934
  137MOL0     H18461   0.968   3.179   9.205  2.5736  1.5936  0.0792
  137MOL0     H18462   1.018   3.218   9.039  0.2526 -2.2950  1.0539
  137MOL0     H18463   0.902   3.458   9.104  3.0559  2.7293  1.0971
  137MOL0     H18464   0.922   3.397   9.267 -0.8685  0.2005 -0.6197
  137MOL0     H18465   1.180   3.339   9.161  0.4974 -0.4086  1.8578
  137MOL0     H18466   1.143   3.496   9.218  3.1268 -2.7357  1.5831
  137MOL0     H18467   1.055   3.443   8.927  0.6572  0.7449  0.4093
  137MOL0     H18468   1.113   3.594   9.009  3.0204  0.3934  2.1845
  137MOL0     H18469   1.297   3.372   8.951 -0.3522  0.2311  1.6676
  137MOL0     H18470   1.324   3.528   9.025 -1.4388 -1.5457  1.9660
  137MOL0     H18471   1.236   3.635   8.817  0.4152 -0.2463  1.3381
  137MOL0     H18472   1.381   3.525   8.786  0.2336 -0.1624  1.3599
  137MOL0     H18473   1.111   3.500   8.688 -0.4942  0.3430  0.5521
  137MOL0     H18474   1.197   3.349   8.731  1.5761 -0.1114  1.5503
  137MOL0     H18475   1.281   3.557   8.520 -1.6976  0.3893 -0.0754
  137MOL0     H18476   1.214   3.395   8.487 -1.1032 -2.4028  2.7357
  137MOL0     H18477   0.607   3.179   8.914  1.0384 -0.6000 -0.2830
  137MOL0     H18478   0.587   3.001   8.747  1.2907  0.0193 -1.2970
  137MOL0     H18479   0.835   2.728   8.504  0.2721  0.3015 -2.2698
  137MOL0     H18480   0.838   2.626   8.285 -1.0096  2.3712 -1.9593
  137MOL0     H18481   2.117   2.391   8.101 -1.4924 -1.7268  1.3983
  137MOL0     H18482   2.347   2.387   8.203 -0.4762 -0.3467  1.0335
  137MOL0     H18483   2.773   2.121   8.216  2.1703 -0.2763  0.0381
  137MOL0     H18484   2.974   2.133   8.325 -0.3702 -3.3000  1.6473
  137MOL0     H18485   2.986   2.351   8.720  0.5229  0.0036 -2.6699
  137MOL0     H18486   2.980   2.178   8.786 -0.9793  1.5367  0.5939
  137MOL0     H18487   3.236   2.325   8.717 -1.2617  0.0822 -0.9905
  137MOL0     H18488   3.223   2.152   8.767  2.8082  0.8364  2.5296
  137MOL0     H18489   3.106   2.217   8.964 -1.1488 -0.6365 -2.1583
  137MOL0     H18490   3.141   2.380   8.935  0.6459 -0.4318  2.6408
  137MOL0     H18491   3.332   2.151   9.023 -1.8685 -2.0597 -3.9820
  137MOL0     H18492   3.338   2.309   9.079  1.8707 -0.7564  0.4107
  137MOL0     H18493   3.567   2.290   8.705 -1.3568  0.0408 -1.1509
  137MOL0     H18494   2.769   2.275   8.685 -1.0799  5.2812 -1.2977
  137MOL0     H18495   2.576   2.278   8.579 -0.1555 -1.9205  0.8713
  138MOL0     O18496   6.538   0.377   2.560 -0.2689  0.4739  0.4879
  138MOL0     C18497   6.610   0.457   2.622  0.1398  0.4028  0.6361
  138MOL0     O18498   6.569   0.580   2.648  0.3143 -0.1942 -0.1660
  138MOL0     C18499   6.440   0.619   2.625  0.5817  0.7658 -0.4785
  138MOL0     C18500   6.408   0.683   2.510 -0.3115  0.0422  0.0318
  138MOL0     C18501   6.280   0.735   2.498  0.1984 -0.3186 -0.0259
  138MOL0     C18502   6.183   0.723   2.605 -0.3604 -1.1104 -0.0227
  138MOL0     O18503   6.054   0.783   2.605 -1.1073 -0.0019  0.6191
  138MOL0     C18504   6.018   0.822   2.469  0.3635  0.2967  0.4947
  138MOL0     C18505   5.880   0.886   2.468 -0.1422 -0.5357 -0.1776
  138MOL0     C18506   5.773   0.780   2.508 -1.0965  0.6588 -0.2559
  138MOL0     C18507   5.640   0.849   2.529 -0.1875 -0.0973 -0.1342
  138MOL0     C18508   5.525   0.733   2.523 -0.0293  0.7065  0.7809
  138MOL0     C18509   5.383   0.792   2.523 -0.5877 -0.8964  0.2342
  138MOL0     C18510   5.329   0.815   2.661  0.7418 -0.0158  0.2767
  138MOL0     C18511   5.245   0.693   2.698  0.5821  0.0949 -0.1418
  138MOL0     N18512   5.173   0.714   2.821  0.0684  0.6760 -0.0697
  138MOL0     C18513   5.228   0.734   2.939 -0.6850 -0.5557 -0.0556
  138MOL0     C18514   5.126   0.792   3.011 -0.1609  0.3990 -0.5003
  138MOL0     C18515   5.155   0.851   3.149 -0.0150 -0.5545  0.1104
  138MOL0     C18516   5.032   0.881   3.225 -0.0221  0.2810  0.2517
  138MOL0     C18517   4.947   0.758   3.273  0.4186  0.0261  0.6688
  138MOL0     C18518   4.819   0.804   3.348  1.4990 -0.5359  0.1219
  138MOL0     O18519   4.752   0.677   3.385 -0.1456  0.2013  0.7286
  138MOL0     C18520   4.668   0.681   3.493  0.5527 -0.1091  0.6905
  138MOL0     C18521   4.617   0.804   3.545  0.0445  0.5669  0.2298
  138MOL0     C18522   4.514   0.801   3.637 -0.2316  0.4270 -0.4503
  138MOL0     C18523   4.445   0.932   3.665 -1.3392  0.4254 -0.3858
  138MOL0     C18524   4.474   0.681   3.696  1.2108  0.9583  0.7325
  138MOL0     C18525   4.362   0.671   3.797  0.1019  0.3623  0.4932
  138MOL0     O18526   4.285   0.568   3.771 -0.2154  0.6715 -0.5931
  138MOL0     C18527   4.157   0.555   3.833  0.7964  0.2190  0.0234
  138MOL0     C18528   4.130   0.466   3.933 -0.3655  0.8669 -0.0889
  138MOL0     C18529   4.005   0.458   3.999 -0.7327  0.3797 -0.3660
  138MOL0     C18530   3.901   0.548   3.961 -0.8444  0.1351 -0.3423
  138MOL0     O18531   3.782   0.527   4.036 -0.0947 -0.4520 -0.3309
  138MOL0     C18532   3.671   0.611   4.002 -0.6879  0.1153 -0.1160
  138MOL0     C18533   3.553   0.569   4.080  0.3308 -0.7023 -0.0112
  138MOL0     C18534   3.435   0.639   4.033 -0.6265  0.6140  0.0728
  138MOL0     C18535   3.330   0.632   4.141 -0.3900 -0.3293 -0.0101
  138MOL0     C18536   3.203   0.696   4.082  0.4171 -0.2825 -0.1623
  138MOL0     C18537   3.098   0.712   4.197 -0.0370  0.0994 -0.0330
  138MOL0     C18538   2.975   0.791   4.163  0.3683 -0.6084  0.2207
  138MOL0     C18539   2.862   0.780   4.263 -0.1887 -0.1757  0.2322
  138MOL0    Cl18540   2.823   0.605   4.253  0.6285  0.2192  0.5092
  138MOL0     C18541   3.928   0.629   3.849 -0.7046 -0.3331 -0.1711
  138MOL0     C18542   4.053   0.634   3.786  1.1826  0.4190  0.1809
  138MOL0     O18543   4.336   0.762   3.886  0.6067  0.0117  0.1630
  138MOL0     C18544   4.526   0.554   3.653 -0.4760 -0.7638 -0.3435
  138MOL0     C18545   4.623   0.562   3.552  0.0901  0.0336 -0.6194
  138MOL0     N18546   5.005   0.788   2.944  0.4627  0.6805  0.0007
  138MOL0     N18547   5.038   0.743   2.822  0.5672 -0.7476  0.1450
  138MOL0     C18548   6.221   0.654   2.718 -0.6069  1.6648  0.2021
  138MOL0     C18549   6.353   0.601   2.732  0.6686 -0.0473 -0.6948
  138MOL0     C18550   6.746   0.405   2.666  0.5075 -0.4195  0.0073
  138MOL0     C18551   6.798   0.286   2.617 -1.0203  0.0433 -0.2145
  138MOL0     C18552   6.927   0.251   2.645  0.0087 -0.5234 -0.1510
  138MOL0     C18553   7.017   0.331   2.723 -0.3628  0.6177 -0.0884
  138MOL0     O18554   7.140   0.267   2.742 -0.1969  0.1009  0.7692
  138MOL0     C18555   7.226   0.322   2.839  0.0246  0.2789 -0.4579
  138MOL0     C18556   7.311   0.445   2.790 -0.5320  0.8411 -0.4346
  138MOL0     C18557   7.408   0.401   2.680 -0.4712  0.4143 -0.0997
  138MOL0     C18558   7.348   0.387   2.541 -0.0055 -0.5593 -0.1295
  138MOL0     C18559   7.448   0.386   2.440  0.0410 -0.4549 -0.0300
  138MOL0     C18560   7.541   0.388   2.362  0.5264 -1.1333 -0.4432
  138MOL0     C18561   6.968   0.450   2.775 -0.5941 -0.0790 -0.5153
  138MOL0     C18562   6.833   0.490   2.737  0.7567  0.1616 -0.4167
  138MOL0     H18563   6.470   0.705   2.424  1.5866  0.3646  1.4137
  138MOL0     H18564   6.245   0.776   2.403  0.6949 -0.3514 -0.2258
  138MOL0     H18565   6.086   0.904   2.446 -3.6448  3.4623 -1.4053
  138MOL0     H18566   6.027   0.741   2.396  1.7611 -0.4973  1.5059
  138MOL0     H18567   5.875   0.967   2.542 -0.3740  0.3224 -1.1121
  138MOL0     H18568   5.869   0.934   2.371  1.2390 -0.1969 -0.1920
  138MOL0     H18569   5.775   0.705   2.428  2.0816  0.9391 -0.5785
  138MOL0     H18570   5.801   0.720   2.595  1.4368 -0.3284 -1.6367
  138MOL0     H18571   5.630   0.893   2.629  3.4449 -1.1876  0.8610
  138MOL0     H18572   5.621   0.930   2.459 -0.7691  0.3195  0.4910
  138MOL0     H18573   5.537   0.680   2.428  1.3671 -1.2874  1.9943
  138MOL0     H18574   5.535   0.665   2.607 -3.5507  1.8920  2.3716
  138MOL0     H18575   5.372   0.887   2.470  2.8036  1.0875  2.6626
  138MOL0     H18576   5.316   0.731   2.462 -0.8256  0.0745 -0.5007
  138MOL0     H18577   5.400   0.830   2.743  1.2014 -1.8849  0.2634
  138MOL0     H18578   5.263   0.902   2.659  1.0100  0.2417  1.6605
  138MOL0     H18579   5.308   0.604   2.703  0.7814  0.1088 -1.7760
  138MOL0     H18580   5.173   0.677   2.618  2.8504  0.9049 -2.4829
  138MOL0     H18581   5.334   0.729   2.962 -0.3699 -0.6704 -1.4604
  138MOL0     H18582   5.209   0.775   3.206  1.4587 -0.5786 -1.2347
  138MOL0     H18583   5.214   0.943   3.136 -0.8759  0.0088  0.0937
  138MOL0     H18584   4.960   0.943   3.171 -0.6004 -1.4579 -1.0480
  138MOL0     H18585   5.059   0.938   3.315  1.2488 -2.2708  1.5837
  138MOL0     H18586   5.004   0.694   3.341  0.1842  0.2690  1.1040
  138MOL0     H18587   4.925   0.699   3.184  2.4022  0.5811 -0.2434
  138MOL0     H18588   4.757   0.868   3.283  2.5613 -1.0196 -1.4039
  138MOL0     H18589   4.845   0.865   3.435  3.3081 -1.0778 -0.0211
  138MOL0     H18590   4.640   0.893   3.487  2.2092 -0.5852 -0.7934
  138MOL0     H18591   4.458   1.003   3.583 -0.6349 -0.3145 -0.9259
  138MOL0     H18592   4.339   0.921   3.690 -0.9400  1.8005  2.3321
  138MOL0     H18593   4.488   0.976   3.755 -0.4209 -0.6359 -0.2896
  138MOL0     H18594   4.207   0.400   3.970  1.5246  2.2741 -1.3296
  138MOL0     H18595   3.996   0.397   4.089 -1.4173  2.4641  1.0498
  138MOL0     H18596   3.696   0.717   4.014  0.1533 -0.0782 -0.1454
  138MOL0     H18597   3.656   0.598   3.895  1.5693 -2.1962 -0.2310
  138MOL0     H18598   3.547   0.464   4.053 -1.5829 -0.5359 -0.4215
  138MOL0     H18599   3.563   0.570   4.189  2.7056 -0.7013 -0.1871
  138MOL0     H18600   3.400   0.604   3.936 -0.7368 -0.1488  0.3753
  138MOL0     H18601   3.466   0.743   4.019  2.6296 -0.3335 -0.5387
  138MOL0     H18602   3.316   0.528   4.172  0.7544 -0.2150  0.9612
  138MOL0     H18603   3.365   0.673   4.235 -1.4415 -0.7886  0.6058
  138MOL0     H18604   3.153   0.643   4.001 -0.8081 -0.3461  0.6200
  138MOL0     H18605   3.241   0.793   4.047  1.7038 -1.1546 -1.3117
  138MOL0     H18606   3.067   0.612   4.229  0.1887 -0.4962 -1.5811
  138MOL0     H18607   3.145   0.761   4.283 -0.8437 -0.6709  0.8545
  138MOL0     H18608   2.948   0.781   4.058 -0.9181 -0.5076  0.5233
  138MOL0     H18609   2.991   0.898   4.184  0.0037 -0.5306  0.1121
  138MOL0     H18610   2.777   0.841   4.231  0.8217  0.4854 -1.2659
  138MOL0     H18611   2.901   0.797   4.364 -1.5185  0.1506  0.7135
  138MOL0     H18612   3.853   0.696   3.807  1.4250  2.4704  0.1736
  138MOL0     H18613   4.080   0.700   3.704  0.2440  0.5618 -0.0232
  138MOL0     H18614   4.494   0.467   3.710 -0.9558  1.0720  2.4365
  138MOL0     H18615   4.667   0.470   3.514  2.2478  0.8779 -0.3028
  138MOL0     H18616   6.144   0.620   2.786  2.2087  0.8929  3.2492
  138MOL0     H18617   6.369   0.539   2.820 -0.9711  1.7382  0.9264
  138MOL0     H18618   6.728   0.218   2.568 -1.3361  1.0564 -1.1864
  138MOL0     H18619   6.975   0.168   2.594  2.8209  0.7048  0.3615
  138MOL0     H18620   7.164   0.345   2.926  2.4616 -0.2710  1.5469
  138MOL0     H18621   7.291   0.238   2.865 -1.8141 -1.3238 -0.7600
  138MOL0     H18622   7.369   0.470   2.879  0.9910 -2.0185 -0.5057
  138MOL0     H18623   7.250   0.533   2.768 -1.1037  0.8482  1.0327
  138MOL0     H18624   7.466   0.311   2.704  0.2272  0.7270 -0.5794
  138MOL0     H18625   7.486   0.478   2.671 -0.3151  0.1254 -1.3757
  138MOL0     H18626   7.276   0.469   2.531  1.2528  0.6574  0.3413
  138MOL0     H18627   7.294   0.293   2.546 -2.0001  0.1879 -3.7730
  138MOL0     H18628   7.628   0.404   2.302  0.9656  0.2639  0.5159
  138MOL0     H18629   7.024   0.523   2.832 -0.2211  0.9715 -2.1590
  138MOL0     H18630   6.809   0.590   2.771  1.1058  0.5426 -1.2614
  139MOL0     O18631  10.896   8.454   5.576 -0.3975 -0.2948 -0.0202
  139MOL0     C18632  10.927   8.505   5.683 -0.0834 -0.7796  0.7224
  139MOL0     O18633  10.864   8.622   5.737 -0.1638  0.1637 -0.3314
  139MOL0     C18634  10.728   8.624   5.747  1.0588 -0.8770  0.3991
  139MOL0     C18635  10.677   8.718   5.839  0.4674 -0.3793  0.3248
  139MOL0     C18636  10.540   8.714   5.881 -0.8411  0.5572  0.1576
  139MOL0     C18637  10.450   8.620   5.830  0.0765 -0.9895 -0.4149
  139MOL0     O18638  10.315   8.621   5.874 -0.7781  0.3767 -0.6353
  139MOL0     C18639  10.226   8.514   5.836  0.1880  0.3535 -0.2329
  139MOL0     C18640  10.173   8.554   5.700  0.0745  0.5007  0.8729
  139MOL0     C18641  10.036   8.488   5.677  1.0168  0.4698  0.6600
  139MOL0     C18642   9.940   8.544   5.564 -0.8968  0.3027  0.1399
  139MOL0     C18643   9.814   8.461   5.550 -0.6897 -0.0081  0.7315
  139MOL0     C18644   9.697   8.542   5.495 -0.8839 -0.0139  0.3209
  139MOL0     C18645   9.600   8.450   5.414 -0.2761  0.8753  0.3223
  139MOL0     C18646   9.491   8.528   5.340  0.1343 -0.1834 -0.5003
  139MOL0     N18647   9.381   8.566   5.435  0.5062 -0.0407  0.6496
  139MOL0     C18648   9.280   8.483   5.478  0.7830  0.2039  0.8590
  139MOL0     C18649   9.201   8.566   5.558 -0.0929 -0.1330  0.5042
  139MOL0     C18650   9.094   8.527   5.649 -0.1743 -0.0042  0.7063
  139MOL0     C18651   8.968   8.613   5.612 -0.2331  0.5549  0.2423
  139MOL0     C18652   8.855   8.590   5.714 -0.1119  0.3262 -0.6892
  139MOL0     C18653   8.783   8.461   5.693 -0.2133 -0.2703 -0.2311
  139MOL0     O18654   8.699   8.471   5.569  0.5862 -0.3550  0.0564
  139MOL0     C18655   8.577   8.412   5.564  0.0672 -0.0556 -0.2434
  139MOL0     C18656   8.527   8.313   5.654  0.4862 -0.1366  0.2294
  139MOL0     C18657   8.401   8.254   5.623  0.6108 -0.3631 -0.9516
  139MOL0     C18658   8.353   8.159   5.735 -0.0330  0.4255  0.2474
  139MOL0     C18659   8.318   8.301   5.524  0.3368  0.8901 -0.2331
  139MOL0     C18660   8.184   8.241   5.480  0.5424 -0.0459  0.6326
  139MOL0     O18661   8.119   8.318   5.381 -0.3911  0.7484 -0.4118
  139MOL0     C18662   7.999   8.287   5.316 -0.6509  0.0397 -0.1514
  139MOL0     C18663   7.974   8.163   5.259  0.2624  0.5699 -0.2170
  139MOL0     C18664   7.857   8.138   5.189 -0.1609 -0.6533  0.3022
  139MOL0     C18665   7.764   8.244   5.167 -0.0919  1.1583  0.5887
  139MOL0     O18666   7.648   8.206   5.096 -0.1801 -0.1331  0.0287
  139MOL0     C18667   7.532   8.280   5.141  0.7795 -0.1984  0.6926
  139MOL0     C18668   7.409   8.221   5.067 -0.8826 -0.0263 -0.1328
  139MOL0     C18669   7.362   8.088   5.135  0.6554 -0.3282  0.0685
  139MOL0     C18670   7.249   8.033   5.059  0.0265  0.4064 -0.0645
  139MOL0     C18671   7.215   7.898   5.128  0.3607  0.4048  0.5669
  139MOL0     C18672   7.104   7.811   5.059 -0.4847 -0.8647  0.4064
  139MOL0     C18673   7.128   7.669   5.083  0.2077  0.4442 -0.8285
  139MOL0     C18674   7.007   7.579   5.039 -0.6731 -0.4854 -0.3855
  139MOL0    Cl18675   7.013   7.420   5.113  0.0326  0.5380 -0.0550
  139MOL0     C18676   7.795   8.373   5.212  0.6185 -0.1175 -0.2035
  139MOL0     C18677   7.906   8.394   5.295  0.3463  0.6574 -0.3799
  139MOL0     O18678   8.143   8.136   5.535  0.3397  0.0471  0.3392
  139MOL0     C18679   8.366   8.409   5.455 -0.1513 -0.2982 -0.0912
  139MOL0     C18680   8.492   8.465   5.472 -0.7921 -0.1837  0.2816
  139MOL0     N18681   9.268   8.687   5.563 -0.8088 -1.0014 -0.1886
  139MOL0     N18682   9.377   8.684   5.500  0.1770 -0.3513  0.3966
  139MOL0     C18683  10.504   8.537   5.732 -0.5841  0.5581  0.6655
  139MOL0     C18684  10.636   8.542   5.685 -0.6489  0.2866 -0.2215
  139MOL0     C18685  11.061   8.481   5.733  0.6592 -0.1973  0.8048
  139MOL0     C18686  11.142   8.379   5.681  0.3780  0.5129  0.1458
  139MOL0     C18687  11.277   8.368   5.725 -0.2312 -0.4258 -0.0625
  139MOL0     C18688  11.328   8.452   5.824 -0.4411 -0.1643  0.0250
  139MOL0     O18689  11.455   8.437   5.869 -0.0585  0.2184  0.1327
  139MOL0     C18690  11.515   8.531   5.966  0.3330  0.9304 -0.4590
  139MOL0     C18691  11.666   8.488   5.982  0.1532  0.6493  0.5841
  139MOL0     C18692  11.671   8.346   6.042 -0.8717 -0.7962  0.1370
  139MOL0     C18693  11.610   8.330   6.177 -0.0026 -0.4829 -0.6737
  139MOL0     C18694  11.628   8.197   6.237  0.5904 -0.0697 -0.4887
  139MOL0     C18695  11.642   8.080   6.274  0.5967  0.9265 -0.0589
  139MOL0     C18696  11.253   8.557   5.874  0.3770  1.0382 -0.7692
  139MOL0     C18697  11.113   8.570   5.837 -0.4698 -0.0711  0.1045
  139MOL0     H18698  10.740   8.794   5.884  1.5623  0.5717 -2.5924
  139MOL0     H18699  10.510   8.786   5.956 -2.3321  1.8263 -1.5692
  139MOL0     H18700  10.278   8.418   5.825  0.7898  0.9662 -4.5745
  139MOL0     H18701  10.152   8.506   5.917  1.7290 -2.0412  1.0545
  139MOL0     H18702  10.156   8.662   5.698 -1.7049  0.2502  0.1625
  139MOL0     H18703  10.238   8.539   5.614 -0.7421 -1.3654  0.5291
  139MOL0     H18704  10.045   8.382   5.653  0.7063  0.4081  0.8214
  139MOL0     H18705   9.976   8.493   5.768  2.2799 -1.7662  1.6824
  139MOL0     H18706   9.917   8.648   5.591  0.4906  0.4002  1.1151
  139MOL0     H18707   9.983   8.541   5.464  1.1401  1.7692  0.8816
  139MOL0     H18708   9.823   8.364   5.501 -1.8325  0.0269  0.4382
  139MOL0     H18709   9.785   8.431   5.651  0.3397  0.8631  1.3120
  139MOL0     H18710   9.643   8.604   5.568 -1.4272 -1.2783  1.0151
  139MOL0     H18711   9.737   8.619   5.429 -1.1820 -0.0409  0.1044
  139MOL0     H18712   9.656   8.410   5.329 -2.6797  1.2178 -1.5577
  139MOL0     H18713   9.559   8.373   5.480 -0.1163 -1.1782 -1.8172
  139MOL0     H18714   9.447   8.473   5.256 -3.2381  4.4888 -2.2090
  139MOL0     H18715   9.542   8.618   5.302 -0.0621  0.6344  1.0928
  139MOL0     H18716   9.264   8.378   5.453 -0.0661  0.7557 -1.1705
  139MOL0     H18717   9.072   8.420   5.644  1.5815 -0.9112  5.9885
  139MOL0     H18718   9.114   8.549   5.754  1.5153  1.9791  0.0354
  139MOL0     H18719   8.931   8.592   5.512  0.1923 -0.3868  0.2739
  139MOL0     H18720   8.997   8.716   5.634  0.6628  0.0216  1.7642
  139MOL0     H18721   8.786   8.675   5.722  0.3326  0.7785 -1.6250
  139MOL0     H18722   8.894   8.580   5.816 -2.7284 -0.6828  0.3268
  139MOL0     H18723   8.718   8.455   5.781 -0.6499 -2.6546 -0.6526
  139MOL0     H18724   8.853   8.379   5.677 -0.9869 -0.8783 -0.5414
  139MOL0     H18725   8.597   8.271   5.726 -2.2234 -2.0281  1.9435
  139MOL0     H18726   8.249   8.172   5.764 -0.4428 -3.6075  1.0948
  139MOL0     H18727   8.362   8.054   5.708  1.3138  0.0950  1.8223
  139MOL0     H18728   8.412   8.163   5.827  1.1878  0.4491 -0.5091
  139MOL0     H18729   8.036   8.075   5.259 -2.6450 -1.7717 -3.4947
  139MOL0     H18730   7.842   8.041   5.142 -2.5036  0.3902 -1.3008
  139MOL0     H18731   7.520   8.269   5.249  0.9151  0.8300  0.8258
  139MOL0     H18732   7.545   8.383   5.107 -0.3946 -0.1882  0.2375
  139MOL0     H18733   7.321   8.286   5.076  0.3362  2.1545 -2.5987
  139MOL0     H18734   7.435   8.199   4.964  0.2406  1.2753 -0.1573
  139MOL0     H18735   7.343   8.096   5.243 -3.0658 -3.0294 -0.1866
  139MOL0     H18736   7.449   8.022   5.126  1.3068  0.7332 -1.8441
  139MOL0     H18737   7.165   8.103   5.048  1.0288  1.5114 -1.0991
  139MOL0     H18738   7.274   8.008   4.955 -3.6681 -1.1561 -0.7310
  139MOL0     H18739   7.187   7.912   5.233  2.3471  0.2235  1.1652
  139MOL0     H18740   7.303   7.834   5.130 -0.0625 -0.1954  0.0098
  139MOL0     H18741   7.000   7.834   5.088 -0.3973  0.8051 -0.4305
  139MOL0     H18742   7.108   7.833   4.952  0.2394 -0.9960  0.4062
  139MOL0     H18743   7.132   7.653   5.191  1.1182 -2.0795 -1.1539
  139MOL0     H18744   7.227   7.641   5.046  0.8808  2.8239 -1.0009
  139MOL0     H18745   7.020   7.579   4.931  0.6931  2.0731 -0.3140
  139MOL0     H18746   6.909   7.620   5.063 -0.1066  0.1435  0.9646
  139MOL0     H18747   7.723   8.451   5.188 -1.0956 -1.4913  0.2138
  139MOL0     H18748   7.940   8.481   5.349  2.5505  0.9890 -2.1534
  139MOL0     H18749   8.310   8.455   5.374 -0.7918  0.2449  0.6400
  139MOL0     H18750   8.526   8.544   5.406  2.6894  0.5096  2.6582
  139MOL0     H18751  10.435   8.479   5.671  0.0624  1.4683 -1.0097
  139MOL0     H18752  10.665   8.478   5.602 -0.5492 -2.6404  1.9315
  139MOL0     H18753  11.121   8.309   5.601  4.6519  0.1199 -0.8696
  139MOL0     H18754  11.329   8.282   5.683  1.3189 -0.3774  1.6047
  139MOL0     H18755  11.517   8.631   5.921 -1.8509  1.3077  0.1797
  139MOL0     H18756  11.469   8.530   6.065 -0.9280  0.4188 -1.0213
  139MOL0     H18757  11.710   8.557   6.053  0.2226 -0.2887  1.4737
  139MOL0     H18758  11.716   8.489   5.884 -3.1768 -2.2503 -1.3854
  139MOL0     H18759  11.777   8.320   6.043 -0.3908  1.0777  1.3948
  139MOL0     H18760  11.624   8.268   5.980 -2.0020 -1.6165  1.9557
  139MOL0     H18761  11.503   8.353   6.167 -0.0276  0.3086  0.9371
  139MOL0     H18762  11.647   8.406   6.247  2.6845 -3.2146  1.0997
  139MOL0     H18763  11.647   7.978   6.306 -0.6804  0.5904 -0.8556
  139MOL0     H18764  11.282   8.630   5.949 -0.8598  0.8300 -0.0536
  139MOL0     H18765  11.062   8.657   5.878 -0.9113  0.8164 -2.1168
  140MOL0     O18766   1.519   9.162   8.893 -0.6784  0.0463  0.3744
  140MOL0     C18767   1.555   9.052   8.935  0.1551  0.9968 -0.1779
  140MOL0     O18768   1.497   8.986   9.034 -0.1873  0.1484  0.3587
  140MOL0     C18769   1.355   8.977   9.050  0.0778  0.5523 -0.1627
  140MOL0     C18770   1.254   9.047   8.964 -0.7882  0.1943  0.5117
  140MOL0     C18771   1.121   9.034   8.984 -0.0371 -0.5572  1.1976
  140MOL0     C18772   1.069   8.950   9.086  0.2946 -0.5863  0.1818
  140MOL0     O18773   0.936   8.911   9.102 -0.6858 -0.3932  0.6565
  140MOL0     C18774   0.847   8.921   8.993 -0.1476 -0.1103 -0.3520
  140MOL0     C18775   0.709   8.875   9.046 -0.1197  1.1755  0.3269
  140MOL0     C18776   0.597   8.927   8.948 -0.4624 -0.5984 -0.0550
  140MOL0     C18777   0.468   8.857   8.982 -0.2546  0.6980 -0.6708
  140MOL0     C18778   0.349   8.905   8.901  0.0102  0.1732 -0.0918
  140MOL0     C18779   0.246   8.791   8.884 -0.1402  0.1620  0.6207
  140MOL0     C18780   0.106   8.850   8.864 -0.3222  1.0863  0.6094
  140MOL0     C18781  -0.003   8.741   8.852  0.3316 -0.1742  0.2070
  140MOL0     N18782  -0.132   8.806   8.890 -0.2695 -0.0757 -0.1517
  140MOL0     C18783  -0.227   8.879   8.812 -0.6407  0.2865 -0.0711
  140MOL0     C18784  -0.322   8.917   8.892 -0.1282  0.3373 -0.1619
  140MOL0     C18785  -0.445   9.000   8.871 -0.0205 -0.1981  0.3470
  140MOL0     C18786  -0.547   8.931   8.772 -0.4334  0.0057 -0.1510
  140MOL0     C18787  -0.662   9.023   8.745  0.0356 -0.7723  0.5450
  140MOL0     C18788  -0.734   8.978   8.620  0.1640 -1.0563  0.7743
  140MOL0     O18789  -0.806   8.851   8.649  0.0813  0.6312  0.4722
  140MOL0     C18790  -0.905   8.799   8.561  0.4889  0.5092  0.1888
  140MOL0     C18791  -0.931   8.845   8.431  0.6452  0.1780  0.1776
  140MOL0     C18792  -1.055   8.803   8.361  0.4182  0.8265 -0.1413
  140MOL0     C18793  -1.069   8.827   8.209  0.1320 -0.3458 -0.2146
  140MOL0     C18794  -1.142   8.706   8.428 -0.1548 -0.1880  0.3899
  140MOL0     C18795  -1.278   8.675   8.378  0.0449 -0.8654  0.7594
  140MOL0     O18796  -1.314   8.548   8.383 -0.1482 -0.3700  0.1441
  140MOL0     C18797  -1.438   8.508   8.330 -0.5160 -0.1179 -0.4737
  140MOL0     C18798  -1.563   8.496   8.408 -0.0814 -0.4731 -0.1979
  140MOL0     C18799  -1.681   8.457   8.347 -0.3795 -0.6413  0.8783
  140MOL0     C18800  -1.679   8.420   8.213  0.0817  0.4517  0.1275
  140MOL0     O18801  -1.788   8.347   8.172  0.7733  0.2448  0.5992
  140MOL0     C18802  -1.806   8.287   8.040  0.0607  0.2502 -0.0779
  140MOL0     C18803  -1.940   8.222   8.036 -0.1006  0.2884 -0.3065
  140MOL0     C18804  -2.001   8.232   7.891 -0.6505 -0.4822  0.3912
  140MOL0     C18805  -2.155   8.211   7.920  0.9351  0.0256  0.2512
  140MOL0     C18806  -2.237   8.227   7.793  0.1233  0.1883  0.6567
  140MOL0     C18807  -2.385   8.211   7.823  0.2578  0.1014 -0.5038
  140MOL0     C18808  -2.458   8.185   7.693  0.5941  0.0825  1.2032
  140MOL0     C18809  -2.471   8.038   7.667  0.0485 -0.4499 -0.3823
  140MOL0    Cl18810  -2.565   8.024   7.516 -0.4411 -0.2338 -0.2613
  140MOL0     C18811  -1.567   8.440   8.134  0.3384  0.9679  1.2912
  140MOL0     C18812  -1.444   8.477   8.193 -0.4194 -0.4651 -0.8320
  140MOL0     O18813  -1.336   8.760   8.320  0.4738 -0.3290  0.3304
  140MOL0     C18814  -1.103   8.662   8.553 -0.0026  0.2316  0.3484
  140MOL0     C18815  -0.987   8.704   8.621 -0.6955 -0.5451  0.4470
  140MOL0     N18816  -0.285   8.874   9.020 -0.4802 -0.3055  0.3567
  140MOL0     N18817  -0.173   8.812   9.017  0.4637  1.1527  0.0246
  140MOL0     C18818   1.154   8.890   9.176 -0.0923 -0.7704  0.1789
  140MOL0     C18819   1.293   8.909   9.160 -0.3722 -1.0789  0.7853
  140MOL0     C18820   1.684   8.999   8.886 -0.0953  0.6789 -0.3409
  140MOL0     C18821   1.766   9.069   8.803 -0.2575  0.1960  0.4053
  140MOL0     C18822   1.895   9.021   8.756  0.8041 -0.5324  0.4705
  140MOL0     C18823   1.939   8.902   8.813  0.1061 -1.1302 -0.5580
  140MOL0     O18824   2.066   8.856   8.779 -0.4112 -0.2293  0.1934
  140MOL0     C18825   2.168   8.935   8.720 -0.4900 -0.2460 -0.2938
  140MOL0     C18826   2.184   8.914   8.565  0.4147  0.7743 -0.3076
  140MOL0     C18827   2.290   9.007   8.502 -0.1106  0.2678  0.6552
  140MOL0     C18828   2.313   8.973   8.346 -0.4784  0.0473  0.0470
  140MOL0     C18829   2.187   8.986   8.277 -0.3797 -0.3118  0.5314
  140MOL0     C18830   2.097   8.991   8.195  0.0006 -0.1642  0.1093
  140MOL0     C18831   1.858   8.830   8.904  1.4064 -0.0203  0.1463
  140MOL0     C18832   1.729   8.881   8.939  0.1953  0.5590 -0.7051
  140MOL0     H18833   1.285   9.103   8.876 -0.3081 -0.8570 -0.0131
  140MOL0     H18834   1.062   9.095   8.917 -1.2810 -0.8537  1.9769
  140MOL0     H18835   0.840   9.026   8.963 -0.2983 -0.5776 -2.0539
  140MOL0     H18836   0.894   8.869   8.909 -0.2944 -0.8257  0.0062
  140MOL0     H18837   0.709   8.766   9.051  2.1559  1.1330  0.2916
  140MOL0     H18838   0.696   8.918   9.146 -0.2603  1.2352  0.2833
  140MOL0     H18839   0.595   9.036   8.953  1.8941 -0.5580  2.1714
  140MOL0     H18840   0.610   8.894   8.844  3.1225  0.0247  0.0529
  140MOL0     H18841   0.489   8.751   8.973 -0.5725  0.5250  0.4038
  140MOL0     H18842   0.436   8.873   9.086 -1.1789 -1.7197 -0.5247
  140MOL0     H18843   0.296   8.991   8.942  0.4127  1.1894 -1.6215
  140MOL0     H18844   0.377   8.916   8.796 -0.2989 -1.7490 -0.4184
  140MOL0     H18845   0.276   8.732   8.797  2.1523  0.3612  1.2350
  140MOL0     H18846   0.230   8.728   8.971 -0.3737  0.3124  0.6885
  140MOL0     H18847   0.093   8.904   8.958  1.1315  0.4985  1.1738
  140MOL0     H18848   0.109   8.922   8.782 -1.9869 -0.8632 -1.2911
  140MOL0     H18849   0.008   8.657   8.922  0.3281 -0.3437  0.0037
  140MOL0     H18850  -0.019   8.705   8.750  0.4938  1.9083 -0.5990
  140MOL0     H18851  -0.210   8.900   8.707  0.0086  4.7781  0.7109
  140MOL0     H18852  -0.497   9.016   8.966 -1.5034  1.1507 -0.6373
  140MOL0     H18853  -0.415   9.096   8.829 -1.8174 -0.2255 -1.1474
  140MOL0     H18854  -0.573   8.834   8.814  1.4162 -0.0502  0.9740
  140MOL0     H18855  -0.489   8.913   8.681  0.4696 -0.2017  0.4562
  140MOL0     H18856  -0.626   9.123   8.721 -1.5478 -0.3460 -0.2137
  140MOL0     H18857  -0.728   9.040   8.830 -2.8614  2.0555 -1.9833
  140MOL0     H18858  -0.666   8.954   8.538 -1.1688 -0.5386 -0.5226
  140MOL0     H18859  -0.801   9.057   8.586  2.6040  0.6566 -0.3567
  140MOL0     H18860  -0.849   8.901   8.388  0.8354 -0.0007  0.3064
  140MOL0     H18861  -0.967   8.851   8.177  0.0533  1.4558  0.7683
  140MOL0     H18862  -1.111   8.738   8.161 -2.3155  0.8977 -0.5075
  140MOL0     H18863  -1.124   8.915   8.177  2.6459  1.5270  0.3166
  140MOL0     H18864  -1.564   8.515   8.515 -0.2650  2.0918 -0.5964
  140MOL0     H18865  -1.768   8.447   8.412  0.4723  1.4973  2.4586
  140MOL0     H18866  -1.801   8.364   7.963 -2.2054  1.4604  0.8871
  140MOL0     H18867  -1.742   8.202   8.019 -2.2131 -2.1159  1.9108
  140MOL0     H18868  -1.934   8.118   8.068 -0.9179  0.2030 -0.3881
  140MOL0     H18869  -2.010   8.263   8.110  0.3644 -0.2401  0.4365
  140MOL0     H18870  -1.962   8.163   7.816  0.1899  3.5433 -3.2438
  140MOL0     H18871  -1.984   8.332   7.850  1.0532 -1.2517 -0.9002
  140MOL0     H18872  -2.164   8.112   7.964 -0.3705  1.0688  2.5268
  140MOL0     H18873  -2.197   8.281   7.993  0.0683  0.1339 -0.3290
  140MOL0     H18874  -2.196   8.156   7.720  1.2152  1.5669 -0.1283
  140MOL0     H18875  -2.222   8.327   7.752  0.5241  0.8869  2.4111
  140MOL0     H18876  -2.403   8.122   7.884 -2.2265 -0.3297 -1.7141
  140MOL0     H18877  -2.424   8.303   7.867 -1.5054 -0.7099 -0.2896
  140MOL0     H18878  -2.423   8.248   7.611 -0.2657 -0.0358  0.7236
  140MOL0     H18879  -2.564   8.209   7.706  0.3530 -1.8019  3.4509
  140MOL0     H18880  -2.518   7.984   7.750  0.5406  2.2480  1.8011
  140MOL0     H18881  -2.371   7.995   7.653  1.1833  1.7767  0.4454
  140MOL0     H18882  -1.558   8.408   8.031 -0.0183 -0.1820  1.6044
  140MOL0     H18883  -1.352   8.490   8.137 -0.3250  0.9432 -0.3839
  140MOL0     H18884  -1.166   8.593   8.609 -1.0949  0.2427 -0.8094
  140MOL0     H18885  -0.953   8.664   8.717  0.9084 -2.2920 -0.7620
  140MOL0     H18886   1.124   8.836   9.265 -1.4219  0.0350  0.2398
  140MOL0     H18887   1.367   8.862   9.224  0.5542 -2.0850 -0.9542
  140MOL0     H18888   1.742   9.168   8.765 -0.7407  0.0783  0.4058
  140MOL0     H18889   1.939   9.088   8.682 -0.5393  1.0170  1.0342
  140MOL0     H18890   2.156   9.040   8.748  0.4755 -0.5583  1.4396
  140MOL0     H18891   2.262   8.904   8.768  0.9021  1.8766 -1.4540
  140MOL0     H18892   2.084   8.912   8.521  0.8421  1.2960 -1.3427
  140MOL0     H18893   2.224   8.814   8.547 -3.4537 -0.7966 -1.2961
  140MOL0     H18894   2.381   8.992   8.560  0.7542 -0.8046 -0.9074
  140MOL0     H18895   2.259   9.111   8.516 -0.0908  0.1073  2.0417
  140MOL0     H18896   2.336   8.866   8.341 -1.4714 -0.2016  0.4668
  140MOL0     H18897   2.388   9.030   8.291 -0.5343 -0.2419 -0.3298
  140MOL0     H18898   2.020   8.969   8.125  3.1338 -0.6903 -3.4991
  140MOL0     H18899   1.897   8.744   8.957 -0.5205  1.2832  4.0844
  140MOL0     H18900   1.666   8.823   9.006  1.9799 -0.1562  0.4332
  141MOL0     O18901   6.241   5.109   2.443  0.1046  0.3852  0.6131
  141MOL0     C18902   6.307   5.204   2.399  0.3661 -0.0837 -0.5338
  141MOL0     O18903   6.259   5.325   2.361  0.5023 -1.0769 -0.0815
  141MOL0     C18904   6.129   5.360   2.338  0.2622  0.3468 -0.4492
  141MOL0     C18905   6.115   5.495   2.311 -0.2009 -0.3092 -0.1850
  141MOL0     C18906   5.994   5.548   2.278 -0.4494 -1.0849  0.3048
  141MOL0     C18907   5.888   5.465   2.263  0.1590  0.1271 -0.5846
  141MOL0     O18908   5.751   5.508   2.249 -0.1246  0.1157 -0.4781
  141MOL0     C18909   5.738   5.650   2.271  0.2339 -0.1036  0.9831
  141MOL0     C18910   5.585   5.672   2.311  0.5875 -0.3286  0.7690
  141MOL0     C18911   5.579   5.809   2.383 -0.4000  0.0265 -0.2581
  141MOL0     C18912   5.586   5.791   2.538  0.5912 -0.1670 -0.3840
  141MOL0     C18913   5.601   5.935   2.602  0.1605 -0.0801  0.5927
  141MOL0     C18914   5.458   5.989   2.616  0.6714 -0.8630 -0.5689
  141MOL0     C18915   5.466   6.116   2.701  0.3679  1.1039 -0.6658
  141MOL0     C18916   5.333   6.185   2.715  1.0402 -0.6681 -0.6681
  141MOL0     N18917   5.229   6.086   2.743  0.9510  0.2637 -0.1493
  141MOL0     C18918   5.116   6.051   2.676 -0.1826  0.4512  0.5348
  141MOL0     C18919   5.057   5.963   2.754 -0.6530  0.6187 -0.2723
  141MOL0     C18920   4.923   5.908   2.723 -0.2073  0.9852  0.0114
  141MOL0     C18921   4.814   5.947   2.831 -0.1858 -0.1776 -0.0320
  141MOL0     C18922   4.791   6.091   2.838  0.9578 -0.6817 -0.2170
  141MOL0     C18923   4.653   6.122   2.889 -0.3270  0.3544 -0.1491
  141MOL0     O18924   4.554   6.098   2.781  0.1164 -0.3761  0.0293
  141MOL0     C18925   4.429   6.168   2.788 -0.0915  0.6185  0.2625
  141MOL0     C18926   4.330   6.149   2.688 -1.7828 -0.0869 -0.0468
  141MOL0     C18927   4.203   6.208   2.686  0.3451  0.0160  0.0286
  141MOL0     C18928   4.113   6.197   2.571 -0.1985 -0.2824 -0.4732
  141MOL0     C18929   4.174   6.298   2.789 -0.2987 -1.0386  0.4187
  141MOL0     C18930   4.048   6.373   2.803  0.0777 -0.2419 -0.3696
  141MOL0     O18931   4.051   6.510   2.828 -0.5250  0.9450  0.2086
  141MOL0     C18932   3.938   6.586   2.817  0.3500  0.2684  0.1922
  141MOL0     C18933   3.924   6.701   2.895 -0.3319 -0.5414  0.3413
  141MOL0     C18934   3.819   6.792   2.872 -0.0981 -0.4872  0.1694
  141MOL0     C18935   3.729   6.767   2.772  0.5899 -0.5093  0.6952
  141MOL0     O18936   3.605   6.836   2.744 -0.1735  0.8041  0.2934
  141MOL0     C18937   3.572   6.953   2.816 -0.6186 -0.0834  0.0480
  141MOL0     C18938   3.442   7.021   2.764  0.1767  0.2006 -0.3557
  141MOL0     C18939   3.321   6.929   2.764  1.1252  0.3643  0.4809
  141MOL0     C18940   3.193   7.012   2.751  0.1567  0.0786 -0.0810
  141MOL0     C18941   3.067   6.939   2.707  0.2490 -0.5787  0.1553
  141MOL0     C18942   3.013   6.838   2.820 -0.0650 -0.1780 -0.4101
  141MOL0     C18943   2.929   6.742   2.743 -0.2615  0.3896 -0.3759
  141MOL0     C18944   2.870   6.643   2.844 -0.1724 -0.2060  0.1105
  141MOL0    Cl18945   2.737   6.553   2.769 -0.4239  0.1885 -0.3833
  141MOL0     C18946   3.742   6.651   2.695  0.4305  0.8264  0.2689
  141MOL0     C18947   3.845   6.562   2.711 -0.2300  0.9610 -0.1657
  141MOL0     O18948   3.948   6.303   2.800 -0.3259  0.7352 -0.6205
  141MOL0     C18949   4.267   6.326   2.892 -0.5974  0.7615 -0.5241
  141MOL0     C18950   4.390   6.256   2.891 -0.5386  0.1197  0.2675
  141MOL0     N18951   5.128   5.939   2.872 -0.5605 -0.0461 -0.1499
  141MOL0     N18952   5.233   6.016   2.863 -0.1681  0.4715 -0.4926
  141MOL0     C18953   5.903   5.330   2.269 -0.2398 -0.2302  0.6141
  141MOL0     C18954   6.024   5.274   2.309 -0.2016  0.4194 -0.0225
  141MOL0     C18955   6.453   5.176   2.408 -0.0907  0.0311 -1.7606
  141MOL0     C18956   6.514   5.056   2.451 -0.9682 -0.4117 -1.0139
  141MOL0     C18957   6.653   5.039   2.454 -0.2105  0.3323  0.1365
  141MOL0     C18958   6.741   5.142   2.416 -0.4970 -0.8439  0.7965
  141MOL0     O18959   6.880   5.135   2.404 -0.0548  0.5245 -0.8011
  141MOL0     C18960   6.952   5.052   2.495  0.3608 -0.0531  0.3700
  141MOL0     C18961   7.089   5.126   2.530 -0.5717  0.6373  0.4575
  141MOL0     C18962   7.178   5.144   2.408  0.0443  0.5462 -0.3894
  141MOL0     C18963   7.313   5.212   2.445  0.0347 -0.9315  1.0394
  141MOL0     C18964   7.424   5.121   2.466  0.0219  0.2340 -0.7294
  141MOL0     C18965   7.509   5.038   2.474 -0.2102  1.0423  0.5650
  141MOL0     C18966   6.690   5.258   2.368 -0.4568  0.6657 -0.3104
  141MOL0     C18967   6.554   5.276   2.368  0.5366 -0.0798  0.0596
  141MOL0     H18968   6.204   5.554   2.329 -0.6648 -0.0398  1.3756
  141MOL0     H18969   5.988   5.653   2.252 -0.3854 -1.4324 -1.1635
  141MOL0     H18970   5.797   5.682   2.357  0.3831  0.0541  0.8231
  141MOL0     H18971   5.764   5.710   2.183  0.0022 -1.5418 -0.1007
  141MOL0     H18972   5.521   5.666   2.223  0.9453 -1.7918  0.5859
  141MOL0     H18973   5.553   5.591   2.377  1.5520 -1.9268 -0.6482
  141MOL0     H18974   5.661   5.873   2.349  0.1992 -0.4708  0.2340
  141MOL0     H18975   5.481   5.851   2.356 -0.8429  0.2311  1.5440
  141MOL0     H18976   5.492   5.746   2.569  0.6123  1.0724  1.6772
  141MOL0     H18977   5.667   5.721   2.562 -0.0981 -1.7005 -2.2801
  141MOL0     H18978   5.649   5.929   2.700  0.5581  1.1480  0.4840
  141MOL0     H18979   5.653   5.991   2.524  0.2012 -1.2283 -0.2431
  141MOL0     H18980   5.413   5.999   2.517 -0.9190 -1.4923  0.0602
  141MOL0     H18981   5.391   5.925   2.674 -2.9702  0.9904 -2.4172
  141MOL0     H18982   5.498   6.085   2.800  3.0250  1.4737 -1.3332
  141MOL0     H18983   5.536   6.191   2.663  0.3877  2.1480  1.2985
  141MOL0     H18984   5.316   6.234   2.619  0.4869 -1.7075 -1.1153
  141MOL0     H18985   5.328   6.260   2.795  0.4130  1.6259 -2.7205
  141MOL0     H18986   5.068   6.086   2.585  2.4801  0.4484 -0.9869
  141MOL0     H18987   4.888   5.948   2.627 -2.0032 -0.6263 -0.0612
  141MOL0     H18988   4.925   5.799   2.716  0.5464  0.6804  3.3219
  141MOL0     H18989   4.851   5.898   2.921 -0.0428 -1.7283 -0.9013
  141MOL0     H18990   4.717   5.900   2.813 -0.9871  0.9146  1.2544
  141MOL0     H18991   4.796   6.137   2.738 -1.1944 -2.5301 -1.2682
  141MOL0     H18992   4.862   6.142   2.903  1.6770 -1.3665 -0.4612
  141MOL0     H18993   4.653   6.228   2.916 -0.7526  0.5224 -0.7893
  141MOL0     H18994   4.634   6.064   2.980 -1.7576  0.9462 -0.0494
  141MOL0     H18995   4.377   6.083   2.615  0.3836  1.0954  0.1992
  141MOL0     H18996   4.141   6.111   2.510 -1.3869  1.3850 -3.6144
  141MOL0     H18997   4.008   6.187   2.602 -0.0092 -0.9211 -0.0373
  141MOL0     H18998   4.117   6.283   2.503  2.2301 -0.3493 -0.4945
  141MOL0     H18999   3.988   6.722   2.980 -3.8782  0.9011  2.9146
  141MOL0     H19000   3.808   6.874   2.942  2.1365  0.0440 -0.0189
  141MOL0     H19001   3.554   6.911   2.915  2.5345 -2.0995 -0.0846
  141MOL0     H19002   3.648   7.030   2.831 -2.2982  1.5284  0.7321
  141MOL0     H19003   3.419   7.104   2.831  0.4584 -2.0836  2.8175
  141MOL0     H19004   3.458   7.051   2.660  1.8791  1.4523  0.2283
  141MOL0     H19005   3.323   6.881   2.862  1.3458  0.9216  0.7571
  141MOL0     H19006   3.327   6.855   2.683  2.3050  0.8728  0.0824
  141MOL0     H19007   3.171   7.063   2.845 -1.7715  2.6504 -1.7733
  141MOL0     H19008   3.214   7.086   2.673 -1.1006  0.9570  0.3872
  141MOL0     H19009   3.097   6.878   2.621 -2.5321 -0.1645 -1.2064
  141MOL0     H19010   2.994   7.019   2.694  0.7908  0.0760  1.0409
  141MOL0     H19011   3.101   6.794   2.868  0.2916  0.7586 -0.1882
  141MOL0     H19012   2.949   6.885   2.895 -1.5161 -3.6370  0.7488
  141MOL0     H19013   2.969   6.676   2.666 -0.5390 -0.4026  0.1453
  141MOL0     H19014   2.856   6.810   2.696 -0.5123  1.8490  1.9556
  141MOL0     H19015   2.833   6.700   2.929  1.8278  0.8264  0.3454
  141MOL0     H19016   2.937   6.567   2.884 -1.0802 -1.8138 -1.2432
  141MOL0     H19017   3.673   6.634   2.613 -0.7296  0.8917  1.2094
  141MOL0     H19018   3.855   6.487   2.633 -1.3415  0.9238 -0.2836
  141MOL0     H19019   4.245   6.400   2.968  0.2230 -0.2141  0.6873
  141MOL0     H19020   4.467   6.290   2.961 -0.7126  1.6581 -0.2420
  141MOL0     H19021   5.811   5.273   2.260 -0.8786  0.1220  3.8408
  141MOL0     H19022   6.042   5.168   2.323  1.4477  0.8553  1.4124
  141MOL0     H19023   6.444   4.978   2.478 -2.9286  2.2063  2.2806
  141MOL0     H19024   6.701   4.945   2.482 -1.0028 -0.3085 -0.5864
  141MOL0     H19025   6.893   5.017   2.581 -2.1567 -2.8314 -2.2356
  141MOL0     H19026   6.974   4.957   2.444  2.1562 -0.4287  1.7099
  141MOL0     H19027   7.157   5.077   2.600 -0.1115  1.3918  0.5440
  141MOL0     H19028   7.059   5.222   2.571 -1.5324 -0.3552  2.1923
  141MOL0     H19029   7.137   5.208   2.330  1.2566 -0.7471 -2.1691
  141MOL0     H19030   7.204   5.049   2.360  2.2592  0.3301  1.0713
  141MOL0     H19031   7.306   5.275   2.534  1.2577 -1.3605  1.4535
  141MOL0     H19032   7.349   5.275   2.364  0.4912 -1.4056  0.8649
  141MOL0     H19033   7.576   4.955   2.463 -0.4408  1.0213 -0.9168
  141MOL0     H19034   6.755   5.336   2.332  0.8153 -0.8026 -1.3294
  141MOL0     H19035   6.519   5.365   2.317  2.3282 -0.3031 -1.6783
  142MOL0     O19036  10.254   3.307   0.080 -0.2108 -0.2120 -0.0814
  142MOL0     C19037  10.296   3.195   0.072 -0.0346 -0.2419  0.0155
  142MOL0     O19038  10.229   3.079   0.093 -0.4815  0.2440 -0.1419
  142MOL0     C19039  10.102   3.090   0.140  0.1585 -0.0382  0.1220
  142MOL0     C19040   9.989   3.102   0.056  0.3601 -0.1400  0.8969
  142MOL0     C19041   9.869   3.132   0.105 -0.7485 -0.2127 -1.0651
  142MOL0     C19042   9.842   3.150   0.239  0.3063  0.4331 -1.0054
  142MOL0     O19043   9.729   3.194   0.304  0.1650 -0.3419  0.5955
  142MOL0     C19044   9.605   3.147   0.253 -0.3568 -0.4645 -0.5360
  142MOL0     C19045   9.490   3.197   0.337  0.6206 -0.3579 -0.2680
  142MOL0     C19046   9.360   3.115   0.304 -0.5180 -0.0606 -0.5061
  142MOL0     C19047   9.357   2.972   0.356  0.2194 -0.3051 -0.1839
  142MOL0     C19048   9.214   2.916   0.332  0.2119  0.5238  0.1780
  142MOL0     C19049   9.113   2.971   0.439  0.0623 -0.5304  0.3998
  142MOL0     C19050   8.983   2.892   0.434 -0.0806  0.0136 -0.7707
  142MOL0     C19051   8.893   2.933   0.318 -0.3639 -0.7286 -0.4315
  142MOL0     N19052   8.913   2.856   0.198 -0.2027  1.1231  0.4233
  142MOL0     C19053   8.847   2.737   0.173 -0.4730 -0.4259 -0.4657
  142MOL0     C19054   8.890   2.692   0.045  0.0708 -0.4152  0.4793
  142MOL0     C19055   8.832   2.573  -0.026  0.2337  0.6878  0.2319
  142MOL0     C19056   8.676   2.595  -0.054 -0.7682  0.6382  0.2870
  142MOL0     C19057   8.629   2.500  -0.166  0.3440  0.9018  0.2994
  142MOL0     C19058   8.475   2.486  -0.183 -1.0016  0.3326 -0.0137
  142MOL0     O19059   8.421   2.618  -0.192  0.1867 -0.8535  0.1510
  142MOL0     C19060   8.289   2.633  -0.160  0.2051  0.1000 -0.0433
  142MOL0     C19061   8.191   2.529  -0.168  0.7480  0.2659 -0.5155
  142MOL0     C19062   8.052   2.557  -0.133  0.6292 -0.0001  1.2660
  142MOL0     C19063   7.966   2.426  -0.139  0.3050  0.8026  0.4164
  142MOL0     C19064   8.010   2.679  -0.094  0.5060 -0.6070 -0.2710
  142MOL0     C19065   7.866   2.716  -0.070 -0.1548 -0.6366  0.3119
  142MOL0     O19066   7.842   2.842  -0.027 -1.2113  0.5463 -0.0678
  142MOL0     C19067   7.711   2.872  -0.003 -0.5216  0.0109 -0.1461
  142MOL0     C19068   7.671   2.920   0.122  0.0479  0.6398 -0.8443
  142MOL0     C19069   7.540   2.971   0.135 -0.3551 -0.0149 -0.1464
  142MOL0     C19070   7.445   2.980   0.034  1.0783 -0.9202  0.2810
  142MOL0     O19071   7.308   3.029   0.047  0.3744 -0.6297  0.2941
  142MOL0     C19072   7.287   3.114   0.153 -0.1862 -0.2060 -1.2262
  142MOL0     C19073   7.140   3.160   0.164 -0.1701 -0.1443  0.5038
  142MOL0     C19074   7.038   3.049   0.200 -0.0726 -0.2744  0.0477
  142MOL0     C19075   6.901   3.075   0.137  0.7245 -0.0274  0.2260
  142MOL0     C19076   6.845   3.223   0.150  0.0176  0.1881  0.3323
  142MOL0     C19077   6.703   3.228   0.118  0.3481 -0.1371  0.0653
  142MOL0     C19078   6.654   3.377   0.129 -0.1083  0.2890 -0.3221
  142MOL0     C19079   6.523   3.390   0.050  0.7803 -0.9533  0.1421
  142MOL0    Cl19080   6.393   3.303   0.137  0.4644 -0.4803 -0.1963
  142MOL0     C19081   7.488   2.932  -0.091 -0.3562  0.4395  0.4122
  142MOL0     C19082   7.622   2.879  -0.107 -0.3420  0.1684  0.2660
  142MOL0     O19083   7.781   2.627  -0.072  0.0476 -0.2788  0.0393
  142MOL0     C19084   8.106   2.785  -0.097  0.3629  0.1281  0.4068
  142MOL0     C19085   8.240   2.761  -0.140 -0.5563 -0.1016  0.3119
  142MOL0     N19086   8.975   2.791  -0.005 -0.0899 -0.0020 -0.4480
  142MOL0     N19087   8.993   2.883   0.093  0.1576 -0.5966  0.4510
  142MOL0     C19088   9.954   3.130   0.326  0.0395 -0.4428 -0.7582
  142MOL0     C19089  10.084   3.100   0.280  1.0188 -0.0144 -0.3962
  142MOL0     C19090  10.436   3.188   0.050  0.5978  0.8381  0.3764
  142MOL0     C19091  10.506   3.293  -0.009  0.9090  0.2380 -0.2774
  142MOL0     C19092  10.639   3.275  -0.038  0.9104  0.1911  0.1345
  142MOL0     C19093  10.707   3.170  -0.001  0.0723  0.0417  0.0476
  142MOL0     O19094  10.844   3.183  -0.021 -0.1099  0.3557 -0.8112
  142MOL0     C19095  10.922   3.062  -0.042  0.1310 -0.3465 -0.1633
  142MOL0     C19096  11.058   3.102  -0.097  0.2637 -0.0249  0.2068
  142MOL0     C19097  11.139   3.165   0.014 -0.0861  0.3552 -0.2331
  142MOL0     C19098  11.263   3.243  -0.044  0.9645  0.3522 -1.4309
  142MOL0     C19099  11.390   3.197   0.008  0.0811  0.9324 -0.8827
  142MOL0     C19100  11.503   3.158   0.051 -1.2413  0.5928 -0.0372
  142MOL0     C19101  10.641   3.067   0.059  0.1325 -0.2368  0.1168
  142MOL0     C19102  10.507   3.077   0.089  0.3931 -0.0564  0.4724
  142MOL0     H19103  10.001   3.105  -0.052 -0.9673  2.8924  0.7558
  142MOL0     H19104   9.786   3.140   0.035 -0.3512  0.2455 -1.4910
  142MOL0     H19105   9.597   3.190   0.152  0.5951 -0.5801 -0.6765
  142MOL0     H19106   9.610   3.039   0.241 -0.9193 -0.6331  0.6320
  142MOL0     H19107   9.510   3.183   0.444 -2.2387 -0.0255  0.4063
  142MOL0     H19108   9.462   3.301   0.320 -1.8867 -0.8630  0.4046
  142MOL0     H19109   9.272   3.173   0.332 -0.1757 -0.3244  1.2881
  142MOL0     H19110   9.355   3.110   0.195  0.5956  2.0960 -0.7127
  142MOL0     H19111   9.434   2.913   0.305  1.9529  1.4139  0.3182
  142MOL0     H19112   9.373   2.974   0.464  1.4706  0.8775 -0.3540
  142MOL0     H19113   9.188   2.943   0.230 -0.6668  0.2529  0.3258
  142MOL0     H19114   9.224   2.808   0.346  5.9114  0.4239 -2.0116
  142MOL0     H19115   9.160   2.953   0.536 -0.6427 -0.6873  0.7183
  142MOL0     H19116   9.101   3.080   0.433 -1.4004 -0.7176 -0.6931
  142MOL0     H19117   9.003   2.785   0.446 -0.3362  0.0459  0.0203
  142MOL0     H19118   8.929   2.917   0.526  0.7145  0.0071 -0.2898
  142MOL0     H19119   8.910   3.037   0.287 -0.1939 -0.0282  1.8456
  142MOL0     H19120   8.790   2.928   0.355 -0.9328  1.1867 -1.5902
  142MOL0     H19121   8.772   2.692   0.237 -2.2524  1.7535 -0.9408
  142MOL0     H19122   8.886   2.547  -0.118 -0.5221  1.2074 -0.3746
  142MOL0     H19123   8.838   2.479   0.030 -0.8496 -0.0326 -0.8081
  142MOL0     H19124   8.666   2.699  -0.085 -1.8602 -0.2099 -2.5352
  142MOL0     H19125   8.621   2.573   0.038  1.9336 -1.2053  1.6210
  142MOL0     H19126   8.668   2.399  -0.153 -0.2301  0.2709 -2.3292
  142MOL0     H19127   8.649   2.553  -0.260 -2.9820 -0.2654 -1.2294
  142MOL0     H19128   8.437   2.432  -0.095 -1.0799  0.4642  0.0338
  142MOL0     H19129   8.447   2.425  -0.269 -1.1908  2.0162 -1.1925
  142MOL0     H19130   8.231   2.433  -0.200 -0.8938 -1.4469  2.1747
  142MOL0     H19131   8.023   2.333  -0.145 -1.2317 -0.2248  1.2842
  142MOL0     H19132   7.926   2.427  -0.038  2.2132  0.2099  1.2254
  142MOL0     H19133   7.896   2.421  -0.223  3.4806 -0.3960 -2.3849
  142MOL0     H19134   7.736   2.907   0.208 -0.7738 -3.7686 -0.6350
  142MOL0     H19135   7.510   2.993   0.237 -1.5996 -1.0958 -0.2448
  142MOL0     H19136   7.285   3.062   0.249 -0.2334 -0.2659 -1.2596
  142MOL0     H19137   7.349   3.203   0.150 -0.8484  0.2441 -2.0188
  142MOL0     H19138   7.123   3.234   0.242 -3.8021 -2.0759  1.8130
  142MOL0     H19139   7.104   3.205   0.071 -1.3319  0.4180  1.2093
  142MOL0     H19140   7.030   3.035   0.308 -0.2736 -1.6336 -0.1232
  142MOL0     H19141   7.082   2.957   0.160  0.3779 -0.6431  1.3684
  142MOL0     H19142   6.920   3.060   0.030  1.9431  1.5135  0.1971
  142MOL0     H19143   6.833   3.000   0.179 -1.4896  1.1532 -1.0788
  142MOL0     H19144   6.897   3.289   0.080 -2.6122  0.4302 -1.5459
  142MOL0     H19145   6.866   3.266   0.248 -0.3567  1.4993 -0.1485
  142MOL0     H19146   6.715   3.193   0.015  1.1041  0.6757 -0.1400
  142MOL0     H19147   6.640   3.171   0.186 -0.7551  0.9277 -0.0199
  142MOL0     H19148   6.734   3.440   0.089 -1.6408  1.2770 -1.9614
  142MOL0     H19149   6.639   3.403   0.234 -1.6323  3.4582 -1.2132
  142MOL0     H19150   6.530   3.347  -0.050 -0.5735 -0.8749  0.0016
  142MOL0     H19151   6.491   3.494   0.042  0.6508 -0.5476  4.1039
  142MOL0     H19152   7.417   2.936  -0.173  2.8224  1.2715 -2.5380
  142MOL0     H19153   7.654   2.856  -0.208 -1.7984  0.8407 -0.3692
  142MOL0     H19154   8.072   2.884  -0.068  1.4857  0.6207  0.0984
  142MOL0     H19155   8.312   2.841  -0.154 -1.4031  0.3866 -1.4642
  142MOL0     H19156   9.958   3.160   0.431  2.8585 -1.1255 -0.5853
  142MOL0     H19157  10.171   3.093   0.344  2.2376  2.2684 -1.6844
  142MOL0     H19158  10.462   3.390  -0.032 -0.8783  0.1333  2.2209
  142MOL0     H19159  10.692   3.361  -0.076 -0.6012  1.6253  1.1148
  142MOL0     H19160  10.935   3.001   0.048  1.6617 -1.2110 -0.9260
  142MOL0     H19161  10.869   3.005  -0.119 -1.3408  0.1739  0.4467
  142MOL0     H19162  11.032   3.170  -0.179  0.4159 -0.3046 -0.0771
  142MOL0     H19163  11.106   3.013  -0.139  1.8062 -0.4163  2.5830
  142MOL0     H19164  11.162   3.085   0.086 -0.1808  0.8698  0.3786
  142MOL0     H19165  11.083   3.237   0.074 -1.2251 -1.9977  1.7456
  142MOL0     H19166  11.256   3.351  -0.028  1.3315  0.0063  1.8299
  142MOL0     H19167  11.257   3.230  -0.152 -2.0547  0.5338 -1.3708
  142MOL0     H19168  11.600   3.120   0.077 -1.3151 -1.9176 -2.8173
  142MOL0     H19169  10.691   2.977   0.094 -0.0641 -0.2115  0.4686
  142MOL0     H19170  10.465   2.993   0.143 -0.4916  0.8490  1.2326
  143MOL0     O19171   2.393  10.674   1.157 -0.2235  1.0175 -0.0883
  143MOL0     C19172   2.438  10.670   1.268  0.2985 -0.1372 -0.4043
  143MOL0     O19173   2.363  10.671   1.391 -0.4568  0.3870  0.5178
  143MOL0     C19174   2.230  10.696   1.380  0.3405  0.4639 -0.9339
  143MOL0     C19175   2.171  10.799   1.306 -1.1665  0.6708  0.0908
  143MOL0     C19176   2.034  10.826   1.305  0.2624  0.6784 -0.2644
  143MOL0     C19177   1.942  10.770   1.397 -1.2471  0.3017  0.3983
  143MOL0     O19178   1.810  10.807   1.394 -0.3249  0.2487  0.5063
  143MOL0     C19179   1.721  10.697   1.415  0.6269  0.3517  0.9030
  143MOL0     C19180   1.586  10.711   1.336 -0.3739 -0.3514  0.0212
  143MOL0     C19181   1.468  10.796   1.399  0.4618 -0.0901 -0.0719
  143MOL0     C19182   1.318  10.745   1.361  0.8136 -0.0803 -0.8292
  143MOL0     C19183   1.302  10.713   1.222 -0.0619 -0.0663 -0.1304
  143MOL0     C19184   1.170  10.648   1.195  0.5989 -0.2202  0.2699
  143MOL0     C19185   1.174  10.496   1.241 -1.2391  1.0132  0.1933
  143MOL0     C19186   1.056  10.446   1.310  0.6646  0.0120 -0.7984
  143MOL0     N19187   0.938  10.428   1.228  0.7653  0.0048 -0.3892
  143MOL0     C19188   0.834  10.510   1.197 -0.7256 -0.9890  0.6065
  143MOL0     C19189   0.758  10.445   1.104  0.2504 -0.0531  0.1371
  143MOL0     C19190   0.633  10.496   1.040  0.0973 -0.3688 -0.4969
  143MOL0     C19191   0.507  10.414   1.081  0.0679 -0.8069  0.6514
  143MOL0     C19192   0.406  10.417   0.955  0.0950  0.4682 -0.0356
  143MOL0     C19193   0.252  10.437   0.994 -0.8707  0.6505 -0.1180
  143MOL0     O19194   0.214  10.324   1.080 -0.2375 -0.1832  0.4069
  143MOL0     C19195   0.080  10.306   1.081  0.3198 -0.8051 -0.0181
  143MOL0     C19196  -0.015  10.402   1.120  0.1446  0.4076 -0.9641
  143MOL0     C19197  -0.151  10.367   1.109 -0.5386  0.4151 -0.1390
  143MOL0     C19198  -0.244  10.469   1.172 -0.3493 -0.0434  0.3599
  143MOL0     C19199  -0.191  10.249   1.044  0.1627  0.1764 -0.5243
  143MOL0     C19200  -0.333  10.212   1.020  0.1044  0.8581 -0.1676
  143MOL0     O19201  -0.421  10.317   1.021 -0.1585 -0.0100  0.2498
  143MOL0     C19202  -0.546  10.291   0.974 -0.2259  0.0715  0.4822
  143MOL0     C19203  -0.560  10.314   0.838  0.0644  0.2474 -0.7464
  143MOL0     C19204  -0.685  10.305   0.781 -0.4686 -0.8321 -0.4614
  143MOL0     C19205  -0.800  10.275   0.856  1.1917 -0.3687 -0.1175
  143MOL0     O19206  -0.933  10.249   0.807 -0.3031 -0.1790 -0.1492
  143MOL0     C19207  -0.972  10.345   0.710 -0.0537 -0.1923 -0.3164
  143MOL0     C19208  -1.087  10.292   0.622 -0.1301 -0.6179  0.1635
  143MOL0     C19209  -1.217  10.264   0.694 -0.2304  1.0182 -0.5188
  143MOL0     C19210  -1.256  10.119   0.675  0.1012 -0.0696  0.0025
  143MOL0     C19211  -1.287  10.087   0.529 -0.5782  0.2379 -0.2273
  143MOL0     C19212  -1.376   9.970   0.517  0.0022  0.4805  0.9830
  143MOL0     C19213  -1.371   9.888   0.388 -0.2332  0.7121  0.7326
  143MOL0     C19214  -1.481   9.788   0.362  0.9155 -0.0909 -0.3114
  143MOL0    Cl19215  -1.641   9.879   0.331 -0.4453  0.5449  0.0529
  143MOL0     C19216  -0.786  10.239   0.992  0.2697 -0.5426  0.1444
  143MOL0     C19217  -0.655  10.245   1.044  0.7207  1.2978 -0.2263
  143MOL0     O19218  -0.363  10.090   0.985 -0.0165 -0.1687  1.5769
  143MOL0     C19219  -0.084  10.164   0.995  0.1419  0.0341 -0.0930
  143MOL0     C19220   0.050  10.189   1.011  0.1080 -0.3581  0.6679
  143MOL0     N19221   0.812  10.324   1.084 -0.0543 -0.5302 -0.0318
  143MOL0     N19222   0.912  10.310   1.161 -0.2955 -0.2608  0.1473
  143MOL0     C19223   2.002  10.668   1.479  0.1517  0.2497 -0.0749
  143MOL0     C19224   2.144  10.633   1.468 -0.0040  0.2997  0.5779
  143MOL0     C19225   2.586  10.661   1.283  0.0080  0.7559  0.0567
  143MOL0     C19226   2.650  10.672   1.409  0.2051  1.0032  0.1631
  143MOL0     C19227   2.787  10.648   1.421 -0.3707 -0.2000  0.8972
  143MOL0     C19228   2.870  10.601   1.313 -0.4592 -0.0601 -0.1201
  143MOL0     O19229   3.007  10.570   1.327  0.4962 -1.1220  0.0344
  143MOL0     C19230   3.068  10.590   1.452 -0.5605 -0.5160  1.0011
  143MOL0     C19231   3.215  10.549   1.439  0.3255  0.0823  0.4828
  143MOL0     C19232   3.289  10.634   1.537  0.0339  0.0580 -0.2281
  143MOL0     C19233   3.451  10.610   1.533  0.5943 -0.6984 -0.3682
  143MOL0     C19234   3.513  10.710   1.624 -0.5646  0.9745 -0.5173
  143MOL0     C19235   3.562  10.771   1.716 -0.2937  0.6793  0.3911
  143MOL0     C19236   2.801  10.567   1.196 -0.3678  0.9647 -0.1854
  143MOL0     C19237   2.663  10.595   1.185  0.2515  0.0852 -0.6914
  143MOL0     H19238   2.229  10.852   1.231 -2.4900 -0.2839 -1.6727
  143MOL0     H19239   1.991  10.896   1.234  0.4923 -1.8539 -3.1203
  143MOL0     H19240   1.761  10.606   1.371  0.6960  0.2140  1.2488
  143MOL0     H19241   1.701  10.686   1.522  0.2010 -1.0718  0.6967
  143MOL0     H19242   1.603  10.754   1.237  0.6469 -0.8522 -0.0344
  143MOL0     H19243   1.548  10.609   1.334  0.5755 -0.7099 -0.3040
  143MOL0     H19244   1.483  10.803   1.507  0.4424  0.8125 -0.1245
  143MOL0     H19245   1.481  10.899   1.364  0.5281  0.4665  1.5205
  143MOL0     H19246   1.289  10.659   1.422  1.2396  0.5608  0.3063
  143MOL0     H19247   1.245  10.822   1.388  0.6548  0.1020 -1.7338
  143MOL0     H19248   1.312  10.807   1.168 -2.0435 -0.9209 -2.1073
  143MOL0     H19249   1.384  10.645   1.197 -0.6272 -1.4348  1.4908
  143MOL0     H19250   1.092  10.703   1.248  1.1798  1.7976 -0.8819
  143MOL0     H19251   1.153  10.657   1.088  0.5397 -1.1952  0.1876
  143MOL0     H19252   1.203  10.425   1.163 -0.4630  0.8503  0.6155
  143MOL0     H19253   1.260  10.489   1.309 -0.1312 -3.1440 -1.3651
  143MOL0     H19254   1.028  10.516   1.390 -2.8693 -0.3774 -1.5415
  143MOL0     H19255   1.069  10.349   1.358  0.6978  1.6810  2.9924
  143MOL0     H19256   0.823  10.608   1.244 -1.4029 -1.0444  0.5726
  143MOL0     H19257   0.619  10.598   1.077 -1.2493 -0.4877 -0.6070
  143MOL0     H19258   0.653  10.498   0.933  0.9844 -0.9386 -0.3527
  143MOL0     H19259   0.457  10.436   1.176 -0.2595  1.4560  0.0064
  143MOL0     H19260   0.543  10.310   1.076 -0.1213 -0.8204 -2.0317
  143MOL0     H19261   0.394  10.324   0.898 -4.8902  0.5653  0.3670
  143MOL0     H19262   0.433  10.503   0.894  1.0125  0.5602  0.4928
  143MOL0     H19263   0.193  10.445   0.902  1.2271 -1.5332 -1.7726
  143MOL0     H19264   0.235  10.526   1.056 -1.9569 -0.9265  1.9734
  143MOL0     H19265   0.017  10.495   1.164 -2.9513  0.5523  1.2853
  143MOL0     H19266  -0.276  10.533   1.090 -0.9866 -0.0985  0.5599
  143MOL0     H19267  -0.323  10.426   1.234 -0.8316  1.1574  0.6071
  143MOL0     H19268  -0.190  10.537   1.240 -0.1611  2.1699 -1.8665
  143MOL0     H19269  -0.474  10.340   0.778  0.9276 -1.4109 -0.2980
  143MOL0     H19270  -0.695  10.317   0.673 -2.1558  0.0789 -0.2401
  143MOL0     H19271  -1.011  10.436   0.755  0.8779 -1.0733  2.4348
  143MOL0     H19272  -0.887  10.383   0.652 -1.4227  0.0755 -2.2523
  143MOL0     H19273  -1.110  10.368   0.547  1.1780 -0.2656  0.0917
  143MOL0     H19274  -1.043  10.202   0.577  0.4701 -0.2864  0.0689
  143MOL0     H19275  -1.291  10.325   0.641 -1.5663  1.0939  1.3161
  143MOL0     H19276  -1.213  10.291   0.801 -1.4461  2.4956 -0.7955
  143MOL0     H19277  -1.170  10.056   0.697  0.2181  0.7121  1.9997
  143MOL0     H19278  -1.331  10.092   0.750  0.0754 -0.7593 -0.2710
  143MOL0     H19279  -1.192  10.071   0.477 -1.9142 -1.0821 -2.3934
  143MOL0     H19280  -1.332  10.176   0.485  1.0581  0.6472 -1.1231
  143MOL0     H19281  -1.341   9.898   0.593  2.6172  0.6252  0.0201
  143MOL0     H19282  -1.474  10.002   0.552  0.6691  0.7895  2.7273
  143MOL0     H19283  -1.272   9.841   0.395 -0.1251  0.6458 -0.7831
  143MOL0     H19284  -1.369   9.955   0.301 -0.2363  0.5690  0.6213
  143MOL0     H19285  -1.498   9.721   0.446 -0.0797  0.0650 -0.3826
  143MOL0     H19286  -1.455   9.724   0.278 -0.4545  1.6568 -2.1757
  143MOL0     H19287  -0.870  10.221   1.059 -0.0711  2.5439  0.6949
  143MOL0     H19288  -0.640  10.221   1.149  0.6757 -0.9809 -0.6705
  143MOL0     H19289  -0.112  10.075   0.939 -0.3112  0.4964 -0.6104
  143MOL0     H19290   0.121  10.123   0.962  2.1108 -1.3079  4.4434
  143MOL0     H19291   1.938  10.625   1.556  0.6344  1.2048  0.8910
  143MOL0     H19292   2.179  10.555   1.535  2.0895  2.1380  1.7653
  143MOL0     H19293   2.601  10.711   1.497  2.6741 -0.2175  2.1976
  143MOL0     H19294   2.843  10.671   1.511 -2.9348 -0.9484  2.8243
  143MOL0     H19295   3.063  10.696   1.478  1.6406  0.1206 -0.8583
  143MOL0     H19296   3.019  10.543   1.538 -0.5783  1.6570  2.2685
  143MOL0     H19297   3.251  10.571   1.338 -2.1693 -1.7336 -0.8975
  143MOL0     H19298   3.227  10.440   1.444  0.5239  0.1507  2.3019
  143MOL0     H19299   3.246  10.613   1.636 -0.1815 -1.5200 -0.6279
  143MOL0     H19300   3.269  10.738   1.510  1.3177 -0.4047 -3.3912
  143MOL0     H19301   3.490  10.612   1.431 -1.2284  0.0468 -1.0936
  143MOL0     H19302   3.459  10.511   1.579  2.8194  0.3847  1.8063
  143MOL0     H19303   3.597  10.829   1.799 -0.8676  0.1565  1.0092
  143MOL0     H19304   2.855  10.525   1.112 -0.2971  0.4915  0.0955
  143MOL0     H19305   2.620  10.566   1.089 -3.2828 -0.4426  0.8752
  144MOL0     O19306   2.538   7.741  10.756 -0.0160  0.0336 -0.0892
  144MOL0     C19307   2.626   7.685  10.819  0.6884 -0.1359 -0.1127
  144MOL0     O19308   2.651   7.694  10.952  0.1312 -0.4819 -0.5850
  144MOL0     C19309   2.564   7.774  11.019  0.8574  0.1998 -0.0145
  144MOL0     C19310   2.423   7.776  11.014 -0.6019 -0.1340  0.1573
  144MOL0     C19311   2.343   7.864  11.088  0.3309  0.4964  0.2790
  144MOL0     C19312   2.401   7.943  11.180 -0.0003 -0.5368  0.4847
  144MOL0     O19313   2.320   8.024  11.252 -0.2130 -0.5927 -0.5376
  144MOL0     C19314   2.317   8.168  11.216 -0.9925 -0.5940  0.6194
  144MOL0     C19315   2.186   8.231  11.249  0.8604  0.6299 -0.2936
  144MOL0     C19316   2.175   8.378  11.198  0.2297  0.6829 -0.0491
  144MOL0     C19317   2.072   8.461  11.270  0.2433 -0.0204 -0.7558
  144MOL0     C19318   1.960   8.511  11.181  0.1911  0.8131  0.6715
  144MOL0     C19319   1.873   8.391  11.128  0.7463 -0.2052 -0.3536
  144MOL0     C19320   1.725   8.436  11.091  0.0921 -0.1431 -1.0740
  144MOL0     C19321   1.641   8.467  11.218 -0.4909 -0.4098  0.1941
  144MOL0     N19322   1.574   8.345  11.271 -0.4120  0.2363 -0.0721
  144MOL0     C19323   1.447   8.305  11.256  0.3024 -0.5720  0.0123
  144MOL0     C19324   1.442   8.190  11.328 -0.0451  0.5340  0.6368
  144MOL0     C19325   1.318   8.104  11.344  0.3333 -0.6455  0.8697
  144MOL0     C19326   1.249   8.097  11.479 -0.8044 -0.7389 -0.9157
  144MOL0     C19327   1.135   7.994  11.464  0.6771  0.1742  0.3827
  144MOL0     C19328   1.010   8.016  11.559  0.2586  0.0379  0.2530
  144MOL0     O19329   0.895   7.933  11.523  0.4980  0.4855  0.6315
  144MOL0     C19330   0.769   7.954  11.565  0.0945  0.4443 -0.1381
  144MOL0     C19331   0.732   8.030  11.680  0.0511  0.4162 -0.1949
  144MOL0     C19332   0.602   8.047  11.726  0.5136 -0.7357  0.3351
  144MOL0     C19333   0.598   8.154  11.831 -0.6233 -0.0047  0.1045
  144MOL0     C19334   0.492   7.974  11.663  0.3077 -0.0209 -0.3168
  144MOL0     C19335   0.350   7.983  11.714 -0.4684 -0.4514 -0.4363
  144MOL0     O19336   0.321   8.081  11.811  0.5407  0.5866  0.2817
  144MOL0     C19337   0.192   8.097  11.857 -0.6010 -0.7044 -0.5330
  144MOL0     C19338   0.148   8.230  11.871 -0.1687  0.4328 -0.2507
  144MOL0     C19339   0.027   8.259  11.934  0.3461  0.0282  0.5856
  144MOL0     C19340  -0.058   8.159  11.976  0.6646  0.1458 -0.3732
  144MOL0     O19341  -0.185   8.176  12.032 -0.0549  0.4504 -0.1313
  144MOL0     C19342  -0.240   8.304  12.011 -0.2339 -0.3461 -0.3796
  144MOL0     C19343  -0.391   8.297  12.026 -0.3810  0.0238  0.5449
  144MOL0     C19344  -0.450   8.205  11.921 -0.4151 -0.2495  0.5009
  144MOL0     C19345  -0.591   8.174  11.978 -0.5528  0.2929  0.2372
  144MOL0     C19346  -0.690   8.106  11.882  0.0315  0.6788  0.7584
  144MOL0     C19347  -0.713   8.196  11.760 -0.6995 -0.0981  0.2037
  144MOL0     C19348  -0.817   8.140  11.675  0.7185  0.5847  0.4033
  144MOL0     C19349  -0.847   8.213  11.544 -1.1161  1.0126  0.0926
  144MOL0    Cl19350  -0.699   8.223  11.443 -0.0246 -0.0902 -0.3236
  144MOL0     C19351  -0.014   8.030  11.958 -0.2764  0.0267 -0.1355
  144MOL0     C19352   0.111   7.989  11.902  0.0910 -0.4358 -0.2006
  144MOL0     O19353   0.269   7.907  11.660 -0.0929 -0.3249  0.0674
  144MOL0     C19354   0.527   7.900  11.551 -0.0534  0.6501  0.2702
  144MOL0     C19355   0.659   7.885  11.506 -0.3554  0.0136  0.3025
  144MOL0     N19356   1.562   8.159  11.390  0.2188 -0.0101 -0.0112
  144MOL0     N19357   1.640   8.247  11.348  0.7155  0.4617  0.4824
  144MOL0     C19358   2.536   7.940  11.200 -0.2424  0.1402  0.1648
  144MOL0     C19359   2.614   7.857  11.118  0.1010  0.4247  0.0541
  144MOL0     C19360   2.708   7.592  10.740 -0.8835 -0.9280 -0.6764
  144MOL0     C19361   2.803   7.511  10.808  0.1916  0.3424  0.1941
  144MOL0     C19362   2.901   7.451  10.728  0.4058 -0.8827 -0.5107
  144MOL0     C19363   2.905   7.456  10.587  0.6886 -0.3383  0.2621
  144MOL0     O19364   3.012   7.405  10.517 -0.1865 -0.2825  0.3044
  144MOL0     C19365   3.105   7.318  10.587  0.3872 -0.5782  0.3058
  144MOL0     C19366   3.215   7.279  10.488  0.1623  0.2190 -0.9406
  144MOL0     C19367   3.163   7.187  10.373  0.4120 -0.3663 -0.1297
  144MOL0     C19368   3.267   7.165  10.262  0.4013 -0.0996  0.1490
  144MOL0     C19369   3.212   7.067  10.163  0.0139 -1.0138  0.3676
  144MOL0     C19370   3.174   6.986  10.080 -0.2836 -0.3293 -0.5596
  144MOL0     C19371   2.805   7.538  10.525 -0.3635  0.0843 -0.0743
  144MOL0     C19372   2.717   7.608  10.603 -0.5548 -0.2109  0.2485
  144MOL0     H19373   2.379   7.716  10.934  2.3538  0.0988 -1.7756
  144MOL0     H19374   2.235   7.874  11.078  0.0099 -0.1629  2.4866
  144MOL0     H19375   2.397   8.217  11.272 -2.2447  2.2465  0.1084
  144MOL0     H19376   2.327   8.187  11.109 -0.0851 -3.3649  0.1320
  144MOL0     H19377   2.106   8.162  11.221 -1.3564  2.5025  1.0687
  144MOL0     H19378   2.174   8.235  11.358 -0.4043 -2.4461 -0.2357
  144MOL0     H19379   2.276   8.419  11.207 -0.6344  2.8615  0.2150
  144MOL0     H19380   2.159   8.376  11.090  2.0515  0.0783 -0.3532
  144MOL0     H19381   2.031   8.405  11.355 -0.7806  1.7560 -0.0424
  144MOL0     H19382   2.124   8.546  11.314  2.0206 -2.6069  2.6854
  144MOL0     H19383   1.888   8.581  11.224 -2.6427 -0.3605 -1.8537
  144MOL0     H19384   2.002   8.558  11.092  2.8708 -0.5263  1.1147
  144MOL0     H19385   1.919   8.338  11.044  0.2623  0.3662 -0.9894
  144MOL0     H19386   1.871   8.322  11.213  2.2228 -1.4669 -1.2845
  144MOL0     H19387   1.730   8.527  11.030 -0.2940 -0.1951 -1.1867
  144MOL0     H19388   1.678   8.355  11.034 -0.5117 -1.6847  1.4593
  144MOL0     H19389   1.567   8.542  11.190  0.8714  1.6755  1.8102
  144MOL0     H19390   1.694   8.514  11.302 -1.3510  3.7907 -1.4046
  144MOL0     H19391   1.379   8.358  11.191 -0.7047  2.3915  3.1616
  144MOL0     H19392   1.248   8.140  11.267  0.1195  1.4533  1.9624
  144MOL0     H19393   1.363   8.007  11.325  2.8354  0.4062  1.0441
  144MOL0     H19394   1.204   8.195  11.499 -0.1994 -1.2322  3.9260
  144MOL0     H19395   1.319   8.070  11.559 -0.9892  0.5433 -0.2976
  144MOL0     H19396   1.163   7.889  11.468  0.5964 -0.0747 -2.6982
  144MOL0     H19397   1.091   8.002  11.364 -0.9944 -4.7438  0.4783
  144MOL0     H19398   0.983   8.120  11.539 -3.6752 -0.6320  1.2251
  144MOL0     H19399   1.040   7.996  11.662 -1.3292  0.2169  0.7843
  144MOL0     H19400   0.822   8.074  11.723 -1.0764  2.2469  0.4335
  144MOL0     H19401   0.696   8.200  11.847 -0.4155 -0.5175  0.3407
  144MOL0     H19402   0.534   8.238  11.805  0.2060  0.9703  1.1321
  144MOL0     H19403   0.563   8.104  11.922 -1.6975  0.8890  0.1940
  144MOL0     H19404   0.213   8.314  11.849 -0.1015  0.6119  0.5712
  144MOL0     H19405   0.013   8.366  11.944 -0.7751  0.3463 -2.9626
  144MOL0     H19406  -0.194   8.376  12.080 -3.3731  2.0682 -0.5610
  144MOL0     H19407  -0.213   8.349  11.915 -0.2181 -0.1155 -0.2674
  144MOL0     H19408  -0.412   8.250  12.122  0.1846  0.7222  1.0267
  144MOL0     H19409  -0.437   8.396  12.032  0.9306  0.6844  0.1708
  144MOL0     H19410  -0.399   8.110  11.904 -0.4585 -0.5478  1.8997
  144MOL0     H19411  -0.452   8.258  11.825  1.6670  0.7362  0.9268
  144MOL0     H19412  -0.584   8.111  12.067 -1.2137 -1.4184 -0.8788
  144MOL0     H19413  -0.635   8.272  11.998 -1.0915  0.9072 -3.2433
  144MOL0     H19414  -0.785   8.082  11.931  0.7504 -2.0684  0.9747
  144MOL0     H19415  -0.651   8.014  11.838 -1.0488  1.4647 -2.0650
  144MOL0     H19416  -0.750   8.294  11.793 -0.7372 -1.4364  4.7966
  144MOL0     H19417  -0.625   8.204  11.695 -2.2143  1.0613 -1.8336
  144MOL0     H19418  -0.910   8.133  11.732  0.3239 -2.1948 -0.4063
  144MOL0     H19419  -0.784   8.038  11.652 -1.5348  0.0368 -0.8134
  144MOL0     H19420  -0.875   8.317  11.566 -2.2492  0.3721  1.9232
  144MOL0     H19421  -0.921   8.164  11.480  0.0429  1.6789 -1.8335
  144MOL0     H19422  -0.077   7.950  11.994  0.5246 -0.7327 -0.3799
  144MOL0     H19423   0.137   7.884  11.893 -0.3048 -0.4087 -2.2099
  144MOL0     H19424   0.449   7.847  11.497  0.9562  0.9177 -1.5089
  144MOL0     H19425   0.676   7.808  11.432 -1.6906 -1.4403  1.4447
  144MOL0     H19426   2.584   7.996  11.280 -2.0693  1.1654  0.5839
  144MOL0     H19427   2.721   7.858  11.134  0.1127 -0.2669  0.0679
  144MOL0     H19428   2.806   7.502  10.916  1.4261 -0.0295  0.1423
  144MOL0     H19429   2.983   7.406  10.783 -1.4405 -0.7556  2.6213
  144MOL0     H19430   3.152   7.359  10.677  2.0932  0.8394 -1.1457
  144MOL0     H19431   3.051   7.228  10.618 -1.0634 -1.4569 -4.0568
  144MOL0     H19432   3.289   7.227  10.549 -3.1727 -1.2897  2.2339
  144MOL0     H19433   3.267   7.366  10.449  1.2581 -1.1656 -2.7110
  144MOL0     H19434   3.063   7.216  10.338 -0.6072 -1.6856  1.5300
  144MOL0     H19435   3.148   7.092  10.425  0.3301  0.0341  0.5948
  144MOL0     H19436   3.362   7.127  10.303 -0.3018 -2.5837 -0.3494
  144MOL0     H19437   3.278   7.255  10.202 -5.4830  0.5248 -0.5302
  144MOL0     H19438   3.143   6.920  10.001  0.5990  0.5595 -1.6902
  144MOL0     H19439   2.811   7.559  10.418  1.6231  2.4933  0.4237
  144MOL0     H19440   2.635   7.663  10.557 -2.1232 -2.5520  0.0425
  145MOL0     O19441   4.416   6.468   1.059  0.1005  1.0082  0.5296
  145MOL0     C19442   4.414   6.368   1.125 -0.7569  0.3270 -0.4599
  145MOL0     O19443   4.299   6.299   1.170  0.0298 -0.3514  0.3212
  145MOL0     C19444   4.183   6.360   1.124 -0.0361  0.2497 -0.0025
  145MOL0     C19445   4.155   6.403   0.994 -0.9345 -1.0110 -0.1646
  145MOL0     C19446   4.015   6.435   0.966 -0.7126  0.3928  0.1662
  145MOL0     C19447   3.912   6.430   1.060 -0.3463 -0.2718 -0.8078
  145MOL0     O19448   3.779   6.469   1.050  0.0537  0.0779 -0.0117
  145MOL0     C19449   3.741   6.531   0.929 -0.0811 -0.5871 -0.3395
  145MOL0     C19450   3.603   6.569   0.936  1.0180  0.6252  0.4932
  145MOL0     C19451   3.565   6.668   1.039 -0.2396 -0.1326 -0.7428
  145MOL0     C19452   3.426   6.721   1.011  0.4389  0.7021 -0.1074
  145MOL0     C19453   3.373   6.815   1.125  0.9010  0.6109  0.4984
  145MOL0     C19454   3.226   6.846   1.105  1.1383  0.6189  0.4824
  145MOL0     C19455   3.174   6.966   1.175 -0.1929 -0.4879  0.0939
  145MOL0     C19456   3.016   6.975   1.175 -0.1078 -0.2143  0.2263
  145MOL0     N19457   2.972   7.110   1.215 -0.9168  0.9545  0.9889
  145MOL0     C19458   2.974   7.162   1.348  0.0380 -0.1748 -0.3825
  145MOL0     C19459   2.938   7.290   1.324  0.2156 -0.8008  1.3324
  145MOL0     C19460   2.912   7.386   1.438  0.3898 -0.4445 -0.7408
  145MOL0     C19461   3.042   7.414   1.521 -0.4118  0.6302  0.4390
  145MOL0     C19462   3.155   7.464   1.440  1.2768 -0.3532  1.0939
  145MOL0     C19463   3.275   7.463   1.517 -0.1500  0.4386  0.1997
  145MOL0     O19464   3.377   7.534   1.444  0.6593 -0.6592  0.0741
  145MOL0     C19465   3.498   7.523   1.483 -0.2230 -0.0130 -0.2690
  145MOL0     C19466   3.588   7.443   1.418  0.5222  0.0761  0.0410
  145MOL0     C19467   3.720   7.432   1.458 -0.4355  0.5133  0.3305
  145MOL0     C19468   3.809   7.329   1.388  0.0863 -0.3011 -0.4261
  145MOL0     C19469   3.758   7.499   1.578  0.0508 -0.5766 -0.0614
  145MOL0     C19470   3.904   7.508   1.618  0.8292  0.6611 -0.3900
  145MOL0     O19471   3.993   7.517   1.517  0.4230  0.4843 -0.2592
  145MOL0     C19472   4.135   7.505   1.531  0.0935 -0.0214 -0.0573
  145MOL0     C19473   4.197   7.457   1.646 -0.7499 -0.7487  0.6132
  145MOL0     C19474   4.340   7.459   1.662 -1.0323 -0.5178 -0.3225
  145MOL0     C19475   4.420   7.513   1.560 -0.2589  0.2258  0.1118
  145MOL0     O19476   4.560   7.520   1.552  0.4993 -0.1752 -0.3648
  145MOL0     C19477   4.636   7.508   1.671  0.1282 -0.5616 -0.4328
  145MOL0     C19478   4.779   7.481   1.618 -0.3961 -1.2164  0.4325
  145MOL0     C19479   4.845   7.618   1.569 -0.2472 -0.2857 -1.3929
  145MOL0     C19480   4.989   7.603   1.518 -0.6652 -0.3498  1.0764
  145MOL0     C19481   5.040   7.726   1.432 -0.2347 -0.4921 -0.6295
  145MOL0     C19482   4.979   7.737   1.291 -0.2862  0.1846  0.1875
  145MOL0     C19483   5.017   7.867   1.222 -0.5738 -0.0812  0.3998
  145MOL0     C19484   5.052   7.845   1.073 -0.0094 -0.5896 -0.5110
  145MOL0    Cl19485   5.179   7.709   1.059  0.0552 -0.2961  0.1819
  145MOL0     C19486   4.353   7.555   1.449  0.5732  0.3396 -0.9177
  145MOL0     C19487   4.217   7.553   1.427  0.7576  0.1555  0.7030
  145MOL0     O19488   3.933   7.515   1.740 -0.5063 -0.5258  0.7948
  145MOL0     C19489   3.666   7.582   1.645  0.1505  0.1518 -0.1630
  145MOL0     C19490   3.542   7.601   1.589  0.5032 -0.3498  0.7785
  145MOL0     N19491   2.918   7.311   1.186  1.1026  0.6799 -0.0132
  145MOL0     N19492   2.932   7.197   1.126  1.1372 -0.3998 -0.3222
  145MOL0     C19493   3.944   6.378   1.186 -0.3377  0.0556  0.3145
  145MOL0     C19494   4.079   6.352   1.218 -0.5605 -0.2067  0.9943
  145MOL0     C19495   4.546   6.335   1.197  0.5446  0.2785 -0.4332
  145MOL0     C19496   4.678   6.363   1.151  0.0001  0.0698 -0.1671
  145MOL0     C19497   4.793   6.330   1.218  0.0666  0.0472 -0.2856
  145MOL0     C19498   4.779   6.272   1.345  0.0774 -0.2361  0.7074
  145MOL0     O19499   4.880   6.218   1.418 -0.2074 -1.0445 -0.4470
  145MOL0     C19500   5.015   6.254   1.380 -1.4785  1.4986  0.4635
  145MOL0     C19501   5.110   6.209   1.489 -0.3145 -0.9090 -0.1882
  145MOL0     C19502   5.142   6.319   1.597  0.0279  0.3216  0.8607
  145MOL0     C19503   5.018   6.392   1.657 -0.3203  0.7456 -0.0442
  145MOL0     C19504   4.971   6.303   1.760  0.4096 -0.1520 -0.4006
  145MOL0     C19505   4.920   6.220   1.838  0.3740  0.1044 -0.3921
  145MOL0     C19506   4.660   6.253   1.398  0.4799 -0.3953  0.4906
  145MOL0     C19507   4.545   6.281   1.326  0.2206 -1.3017 -0.1580
  145MOL0     H19508   4.223   6.389   0.911  1.4329  1.5882  1.1934
  145MOL0     H19509   3.987   6.477   0.870  0.6285  1.1002  0.0608
  145MOL0     H19510   3.800   6.617   0.898 -3.1457  1.7214 -0.2383
  145MOL0     H19511   3.748   6.446   0.860 -0.8486 -0.3243 -0.7548
  145MOL0     H19512   3.588   6.608   0.835 -3.5289 -1.3619  0.1672
  145MOL0     H19513   3.541   6.480   0.951  1.8892 -0.1742 -0.5455
  145MOL0     H19514   3.565   6.614   1.134 -1.1023  1.1017 -0.0095
  145MOL0     H19515   3.637   6.749   1.055 -0.3176 -0.3819  1.2132
  145MOL0     H19516   3.439   6.777   0.918  1.0024 -1.7009 -1.5641
  145MOL0     H19517   3.353   6.645   0.986  0.8117 -1.0728  3.5320
  145MOL0     H19518   3.375   6.758   1.218 -0.9681  0.2323  0.3441
  145MOL0     H19519   3.433   6.903   1.152  0.6270  0.4294  1.7791
  145MOL0     H19520   3.197   6.860   1.000 -2.1845  2.1384  1.4500
  145MOL0     H19521   3.176   6.756   1.140  0.0177  1.6132  1.5523
  145MOL0     H19522   3.194   6.965   1.282 -0.4413 -0.2839  0.1431
  145MOL0     H19523   3.217   7.058   1.133 -0.2619 -0.4548  0.0956
  145MOL0     H19524   2.972   6.899   1.239 -0.1343 -0.5851 -0.2277
  145MOL0     H19525   2.979   6.951   1.075  0.2292  0.4163 -0.0607
  145MOL0     H19526   3.006   7.123   1.444 -3.6072 -0.8008  0.7249
  145MOL0     H19527   2.870   7.477   1.393  0.3787 -0.8935 -1.6666
  145MOL0     H19528   2.833   7.354   1.507 -1.3711  1.7017 -1.6098
  145MOL0     H19529   3.062   7.316   1.566  0.5009 -0.1039 -1.4453
  145MOL0     H19530   3.041   7.493   1.596  0.4406  0.5687  0.5249
  145MOL0     H19531   3.130   7.567   1.413 -0.5327 -0.7188  1.2383
  145MOL0     H19532   3.177   7.406   1.349  2.7147 -0.7250  1.6575
  145MOL0     H19533   3.296   7.358   1.539 -0.6178  0.7896  2.7110
  145MOL0     H19534   3.268   7.515   1.613 -0.9673  0.6544  0.0360
  145MOL0     H19535   3.544   7.381   1.341 -2.2731  0.2228  1.3971
  145MOL0     H19536   3.847   7.259   1.464 -0.9897  1.1057  1.4794
  145MOL0     H19537   3.763   7.262   1.315  1.6154 -2.5255  0.5153
  145MOL0     H19538   3.896   7.381   1.348  1.0920 -1.4705  0.1357
  145MOL0     H19539   4.136   7.420   1.728 -0.9949 -1.1054  0.2758
  145MOL0     H19540   4.378   7.417   1.755  0.7701  0.1271 -0.7422
  145MOL0     H19541   4.631   7.598   1.734  2.1404 -0.8321  0.2003
  145MOL0     H19542   4.603   7.421   1.728  0.9324  1.0246  2.6896
  145MOL0     H19543   4.843   7.443   1.698  0.5286  2.0416  1.4231
  145MOL0     H19544   4.763   7.413   1.534  2.0325 -1.0654 -0.2007
  145MOL0     H19545   4.854   7.685   1.656  0.5934 -2.9656  0.7370
  145MOL0     H19546   4.782   7.656   1.489 -1.0564  0.1275 -0.5833
  145MOL0     H19547   5.062   7.580   1.595 -0.0106  1.2009  0.9676
  145MOL0     H19548   4.991   7.525   1.442 -1.8627 -0.1807  0.8473
  145MOL0     H19549   5.147   7.712   1.416 -0.1544 -1.3540  0.5602
  145MOL0     H19550   5.033   7.824   1.480  1.1529  0.6423 -2.6050
  145MOL0     H19551   5.009   7.650   1.232  2.2224  0.2078  1.2755
  145MOL0     H19552   4.871   7.726   1.294 -0.5616  2.5152  2.0856
  145MOL0     H19553   5.109   7.903   1.269 -0.3609 -2.0139  1.5808
  145MOL0     H19554   4.935   7.939   1.216 -2.6409 -2.4343 -3.0356
  145MOL0     H19555   5.099   7.929   1.020  0.6505 -1.1608 -0.8497
  145MOL0     H19556   4.969   7.796   1.022  1.9410 -1.9867 -2.5419
  145MOL0     H19557   4.413   7.601   1.372 -0.3069  2.9709 -0.1294
  145MOL0     H19558   4.172   7.609   1.345  0.8781  0.5543  0.9054
  145MOL0     H19559   3.691   7.631   1.738 -0.7218 -1.7064  1.0944
  145MOL0     H19560   3.477   7.669   1.644  0.9286  0.4835  0.2850
  145MOL0     H19561   3.871   6.367   1.265 -1.3763  0.6285 -0.5313
  145MOL0     H19562   4.100   6.310   1.315  1.8773 -1.5563 -0.0186
  145MOL0     H19563   4.694   6.403   1.052 -0.7609  1.1671  0.1300
  145MOL0     H19564   4.887   6.353   1.169  1.1013  0.6237  1.8458
  145MOL0     H19565   5.029   6.202   1.285 -1.8234 -0.8338  1.6300
  145MOL0     H19566   5.031   6.362   1.366  3.0679  1.0908  1.0509
  145MOL0     H19567   5.202   6.175   1.439 -0.5887 -0.1090 -1.2660
  145MOL0     H19568   5.055   6.120   1.522 -2.2682  0.1177 -0.5353
  145MOL0     H19569   5.193   6.405   1.551 -0.7658  0.4602  0.2130
  145MOL0     H19570   5.213   6.278   1.669  2.2604 -2.1839 -2.4698
  145MOL0     H19571   4.949   6.416   1.576  1.1213 -1.0670 -1.9461
  145MOL0     H19572   5.056   6.483   1.704  1.7667  1.2556 -2.4880
  145MOL0     H19573   4.878   6.151   1.908  1.0362  0.4973  0.4037
  145MOL0     H19574   4.655   6.189   1.485  0.7878 -0.5791  0.3736
  145MOL0     H19575   4.448   6.256   1.368 -0.1129 -1.0791 -0.7726
  146MOL0     O19576   5.759   3.698   9.966 -0.3844  0.5042  0.0749
  146MOL0     C19577   5.822   3.797   9.960 -0.2432 -0.5887  0.8180
  146MOL0     O19578   5.770   3.914   9.903  0.5407  0.7112  0.5153
  146MOL0     C19579   5.639   3.918   9.858 -0.2340  0.2181  0.3924
  146MOL0     C19580   5.618   3.962   9.726  0.7479 -0.2624 -1.1095
  146MOL0     C19581   5.485   3.961   9.672  1.0963 -0.1821  0.4584
  146MOL0     C19582   5.375   3.935   9.745  0.3523  0.8168 -0.5171
  146MOL0     O19583   5.265   3.949   9.685  0.1691  0.3825  0.2685
  146MOL0     C19584   5.136   3.933   9.741 -0.5394  0.7212  0.4742
  146MOL0     C19585   5.029   3.997   9.648 -0.5417 -0.3969  0.1760
  146MOL0     C19586   4.885   3.973   9.699  0.2309  0.9801  0.6334
  146MOL0     C19587   4.778   4.012   9.588 -0.3365 -0.1429 -0.9685
  146MOL0     C19588   4.643   4.036   9.648 -0.8064 -0.1714 -0.2558
  146MOL0     C19589   4.533   4.027   9.550  0.3575  0.0456  0.3486
  146MOL0     C19590   4.401   4.065   9.617  1.1228  0.9568 -0.0968
  146MOL0     C19591   4.289   4.036   9.517 -0.3474  0.1223 -0.6543
  146MOL0     N19592   4.168   4.075   9.582 -0.8396 -0.2897 -0.1604
  146MOL0     C19593   4.102   4.007   9.672  0.0890  0.4584 -0.7138
  146MOL0     C19594   3.989   4.074   9.702 -0.1350 -0.7902  0.0472
  146MOL0     C19595   3.891   4.021   9.806 -0.8053 -0.0115  0.1382
  146MOL0     C19596   3.768   4.113   9.814  0.1776 -0.1757 -0.2800
  146MOL0     C19597   3.682   4.063   9.933  0.0813  0.3301  0.8977
  146MOL0     C19598   3.541   4.126   9.939  0.2103 -0.6036 -0.8187
  146MOL0     O19599   3.483   4.101  10.072  0.1848  0.1336 -0.2102
  146MOL0     C19600   3.354   4.136  10.101  0.1050  0.7819 -0.9006
  146MOL0     C19601   3.293   4.078  10.207  0.0753  1.0157 -0.4621
  146MOL0     C19602   3.162   4.103  10.235 -0.4020  0.6340 -0.7625
  146MOL0     C19603   3.108   4.022  10.350  0.6502  0.4852  0.0645
  146MOL0     C19604   3.089   4.195  10.162 -1.0165 -0.0612  0.4756
  146MOL0     C19605   2.952   4.226  10.179  0.8314 -0.0436  0.0920
  146MOL0     O19606   2.875   4.278  10.080  0.1848 -0.1831  0.2847
  146MOL0     C19607   2.737   4.286  10.096  0.1959  0.4467 -0.3914
  146MOL0     C19608   2.673   4.415  10.103  0.1666  0.4185 -0.3804
  146MOL0     C19609   2.538   4.425  10.112  0.1222 -0.1496 -1.1206
  146MOL0     C19610   2.452   4.311  10.121 -0.3294  1.2681  0.0113
  146MOL0     O19611   2.324   4.340  10.137 -0.2785  0.0962  0.4952
  146MOL0     C19612   2.250   4.233  10.197  0.8447  0.0319  0.1286
  146MOL0     C19613   2.129   4.288  10.286  0.5341  0.4248 -0.0558
  146MOL0     C19614   2.047   4.165  10.338 -0.2950 -0.1962  0.1437
  146MOL0     C19615   1.924   4.213  10.408  0.5626  0.2024 -0.3402
  146MOL0     C19616   1.847   4.090  10.458 -0.4779  1.1356 -0.0880
  146MOL0     C19617   1.742   4.118  10.568  0.3101 -0.1006  0.1201
  146MOL0     C19618   1.702   3.993  10.643 -0.7400  0.1240  0.3982
  146MOL0     C19619   1.598   3.903  10.579 -0.1426  0.2884 -0.6384
  146MOL0    Cl19620   1.453   4.005  10.552 -0.1732  0.2051  0.4061
  146MOL0     C19621   2.512   4.185  10.107  0.3908  0.2029  0.4084
  146MOL0     C19622   2.651   4.174  10.093 -0.3823 -0.9471  0.9754
  146MOL0     O19623   2.907   4.203  10.292 -0.1171  0.3164  0.4716
  146MOL0     C19624   3.156   4.265  10.056  0.9091  0.4241  0.1462
  146MOL0     C19625   3.288   4.242  10.030  0.3352  0.6653 -0.3379
  146MOL0     N19626   3.986   4.185   9.619  0.3127 -0.4290  0.0054
  146MOL0     N19627   4.094   4.184   9.547 -0.2742  0.2491 -1.1795
  146MOL0     C19628   5.393   3.891   9.882  0.5915 -0.1283  0.2481
  146MOL0     C19629   5.527   3.876   9.931 -0.0941  0.2059 -0.8698
  146MOL0     C19630   5.959   3.799  10.022  0.6540 -0.8476 -0.1234
  146MOL0     C19631   6.024   3.926  10.043  0.0301  0.0593 -0.2078
  146MOL0     C19632   6.158   3.923  10.095 -0.2171  0.0209 -0.5066
  146MOL0     C19633   6.227   3.801  10.111  0.2255  0.1719 -0.2974
  146MOL0     O19634   6.347   3.820  10.165  0.3438  0.7634 -0.0070
  146MOL0     C19635   6.409   3.707  10.225  0.1005  0.0122 -0.0594
  146MOL0     C19636   6.380   3.697  10.376 -0.1929 -0.0580 -0.3537
  146MOL0     C19637   6.445   3.570  10.432 -0.0567 -0.0025  0.2696
  146MOL0     C19638   6.452   3.539  10.589  0.6664  0.0555  0.6113
  146MOL0     C19639   6.330   3.539  10.655 -0.0563  0.4615  0.2415
  146MOL0     C19640   6.225   3.522  10.714 -0.2671 -0.4259  0.7634
  146MOL0     C19641   6.155   3.682  10.102  1.1321  0.7158  0.1720
  146MOL0     C19642   6.020   3.681  10.061 -0.0898  0.0137  0.0425
  146MOL0     H19643   5.705   3.996   9.671  0.0679  2.8084 -0.4709
  146MOL0     H19644   5.474   3.996   9.570 -0.7352  0.9252  0.9906
  146MOL0     H19645   5.104   3.831   9.763 -0.4574  0.4671 -0.5573
  146MOL0     H19646   5.137   3.989   9.836  0.2740  1.0176  0.2937
  146MOL0     H19647   5.060   4.102   9.641  0.7054 -0.7628 -0.1157
  146MOL0     H19648   5.040   3.949   9.551 -1.4165 -0.2310 -0.0058
  146MOL0     H19649   4.868   3.871   9.735  0.3785  0.0063 -1.8908
  146MOL0     H19650   4.871   4.039   9.786  2.5422 -0.2890  2.0724
  146MOL0     H19651   4.813   4.094   9.524  0.9838 -0.7988 -1.1370
  146MOL0     H19652   4.768   3.930   9.516 -3.4473  1.1772 -2.1847
  146MOL0     H19653   4.619   3.961   9.724 -3.3511  0.0160 -0.7933
  146MOL0     H19654   4.654   4.136   9.691  0.7707  0.1751 -1.3796
  146MOL0     H19655   4.555   4.090   9.463 -0.3600 -0.2507 -0.0536
  146MOL0     H19656   4.537   3.920   9.528  2.2347 -0.1027  1.2201
  146MOL0     H19657   4.373   4.006   9.705 -0.7760 -2.5078 -2.7803
  146MOL0     H19658   4.415   4.172   9.637  1.0092  0.8630  0.5080
  146MOL0     H19659   4.280   3.929   9.498  0.8493 -0.4037  1.3303
  146MOL0     H19660   4.313   4.103   9.434 -1.2855  1.6464  0.2559
  146MOL0     H19661   4.146   3.918   9.717 -0.6089 -1.0384 -2.8322
  146MOL0     H19662   3.871   3.915   9.786 -0.5739 -1.0802  4.5063
  146MOL0     H19663   3.944   4.024   9.902 -1.1837  0.9223  0.3295
  146MOL0     H19664   3.726   4.095   9.715 -0.6353 -2.9374  0.4955
  146MOL0     H19665   3.803   4.217   9.822  0.1564 -0.2105  0.3141
  146MOL0     H19666   3.742   4.072  10.024  1.4735 -1.3436  0.2097
  146MOL0     H19667   3.668   3.955   9.919 -1.3461  0.4439  1.3289
  146MOL0     H19668   3.480   4.064   9.873  3.5453 -1.7526 -3.0990
  146MOL0     H19669   3.539   4.232   9.915 -0.8755 -0.1851  0.9310
  146MOL0     H19670   3.334   3.991  10.257 -1.9427  0.0869 -0.3171
  146MOL0     H19671   3.173   3.942  10.388  1.2427  1.6937  1.6924
  146MOL0     H19672   3.077   4.082  10.435 -0.4774 -0.6012  0.4552
  146MOL0     H19673   3.017   3.975  10.313 -0.1020  0.0131  2.3727
  146MOL0     H19674   2.732   4.506  10.113  2.6105 -1.3028  2.1964
  146MOL0     H19675   2.496   4.525  10.110 -0.7199 -0.5005 -1.1829
  146MOL0     H19676   2.213   4.165  10.120  0.8976 -1.0472  1.0374
  146MOL0     H19677   2.313   4.178  10.267  2.3464  0.8104 -0.5667
  146MOL0     H19678   2.160   4.356  10.366 -0.0589 -0.7610  1.2160
  146MOL0     H19679   2.073   4.347  10.213  0.8536  0.1687 -0.5139
  146MOL0     H19680   2.110   4.112  10.410  0.6260  0.9065  0.1894
  146MOL0     H19681   2.031   4.102  10.251  2.9349 -0.7198 -0.2022
  146MOL0     H19682   1.948   4.280  10.492  0.1943 -1.5167  1.2176
  146MOL0     H19683   1.857   4.269  10.342 -0.6425 -1.0832 -0.2718
  146MOL0     H19684   1.920   4.020  10.500  0.1105  0.9362 -1.4030
  146MOL0     H19685   1.795   4.035  10.379 -0.2307 -0.8815  1.0637
  146MOL0     H19686   1.780   4.197  10.633 -2.9721  2.2122 -0.5273
  146MOL0     H19687   1.658   4.167  10.518  1.0867 -0.9258 -2.1544
  146MOL0     H19688   1.666   4.021  10.743  1.7540  1.5990  0.9562
  146MOL0     H19689   1.794   3.936  10.662 -0.7856 -1.0852 -2.5083
  146MOL0     H19690   1.562   3.830  10.653  1.5573 -0.4657 -0.5159
  146MOL0     H19691   1.637   3.855  10.489 -1.6813 -0.6170 -0.8634
  146MOL0     H19692   2.450   4.096  10.102  0.0371  0.5018 -0.9022
  146MOL0     H19693   2.695   4.077  10.074  0.8897 -0.1233 -0.5688
  146MOL0     H19694   3.127   4.351   9.996  1.1213  1.9410  2.1113
  146MOL0     H19695   3.338   4.312   9.964 -1.3904  3.1134  0.8002
  146MOL0     H19696   5.309   3.858   9.942  1.2992  1.1634  2.0548
  146MOL0     H19697   5.546   3.832  10.029  0.2650  1.7531 -0.2254
  146MOL0     H19698   5.980   4.019  10.008  1.4927  0.7361 -0.3107
  146MOL0     H19699   6.207   4.019  10.108  0.1169 -0.2740  0.4552
  146MOL0     H19700   6.387   3.611  10.177  0.4611 -0.8371  1.4290
  146MOL0     H19701   6.518   3.711  10.214  0.2342  0.4401  1.3249
  146MOL0     H19702   6.271   3.685  10.382 -0.2483 -0.3542 -1.7314
  146MOL0     H19703   6.402   3.788  10.433 -0.4352  0.0713 -0.4670
  146MOL0     H19704   6.549   3.572  10.400 -0.3317  1.1998 -0.6189
  146MOL0     H19705   6.398   3.480  10.392  3.7345 -2.4886  0.8880
  146MOL0     H19706   6.515   3.614  10.638  0.2589  1.8803 -1.4844
  146MOL0     H19707   6.491   3.436  10.586 -0.8180 -0.6317  2.7688
  146MOL0     H19708   6.132   3.531  10.767  0.0360  2.9248  0.9440
  146MOL0     H19709   6.182   3.581  10.133  0.3164  0.5255  0.2942
  146MOL0     H19710   5.959   3.591  10.056  1.6568 -1.2050 -0.4741
  147MOL0     O19711   5.617   8.608   1.134  0.3541 -0.2239  0.1591
  147MOL0     C19712   5.646   8.714   1.192 -1.7741 -0.5523 -0.2470
  147MOL0     O19713   5.561   8.789   1.261 -0.0854 -0.0239 -0.0546
  147MOL0     C19714   5.428   8.751   1.266 -1.5524 -0.8239 -0.5662
  147MOL0     C19715   5.340   8.738   1.162 -0.2897  0.1932  1.1148
  147MOL0     C19716   5.205   8.710   1.189 -0.5364 -0.6748 -0.2934
  147MOL0     C19717   5.163   8.690   1.318  0.3503  0.3011 -0.2469
  147MOL0     O19718   5.022   8.679   1.333 -0.5530 -0.1859 -1.0537
  147MOL0     C19719   4.973   8.654   1.468  0.4055 -0.0869 -0.0674
  147MOL0     C19720   4.859   8.552   1.477  0.9399 -0.0897  1.2174
  147MOL0     C19721   4.898   8.417   1.403 -0.0820  0.9690  0.3432
  147MOL0     C19722   5.013   8.341   1.470 -0.8429 -0.5207  0.3083
  147MOL0     C19723   5.093   8.241   1.383  0.7414 -1.0507  0.5916
  147MOL0     C19724   5.187   8.309   1.291 -0.1082  0.2154 -0.7036
  147MOL0     C19725   5.277   8.206   1.209  0.1700  0.2939 -0.2373
  147MOL0     C19726   5.418   8.260   1.177 -0.0200 -0.0614 -0.0452
  147MOL0     N19727   5.516   8.268   1.293  1.2823  0.1944  0.6309
  147MOL0     C19728   5.525   8.378   1.374  0.8758  0.3853 -0.4661
  147MOL0     C19729   5.635   8.353   1.444 -0.4126  0.0377 -0.0878
  147MOL0     C19730   5.706   8.440   1.543  1.4197  0.4090 -0.7863
  147MOL0     C19731   5.802   8.549   1.494 -0.1898 -0.1125 -0.1665
  147MOL0     C19732   5.900   8.501   1.395  0.5362 -0.6678  0.4325
  147MOL0     C19733   6.001   8.414   1.460  0.0867  0.2936 -0.3168
  147MOL0     O19734   6.126   8.424   1.377  0.2750 -0.2092 -0.2285
  147MOL0     C19735   6.253   8.394   1.425  0.0684 -0.1386  0.3147
  147MOL0     C19736   6.365   8.404   1.337 -0.5734 -0.2104 -0.4707
  147MOL0     C19737   6.493   8.396   1.381  0.5263  0.5541 -0.1845
  147MOL0     C19738   6.609   8.425   1.284 -0.3944  0.0056  0.7415
  147MOL0     C19739   6.513   8.353   1.520  0.5587 -1.0705  1.0665
  147MOL0     C19740   6.647   8.316   1.562  0.3908 -0.4460  1.1981
  147MOL0     O19741   6.756   8.399   1.537  0.5875 -0.4651 -0.0967
  147MOL0     C19742   6.876   8.350   1.586 -0.1315  0.5020  0.6654
  147MOL0     C19743   6.887   8.313   1.724  1.2413  0.2348 -0.3500
  147MOL0     C19744   7.003   8.256   1.773  0.0257 -0.2952  0.7317
  147MOL0     C19745   7.122   8.272   1.698 -0.0150 -0.5271  0.7388
  147MOL0     O19746   7.242   8.247   1.751 -0.4300  0.4911  0.5786
  147MOL0     C19747   7.261   8.195   1.882  0.2542  0.2306  0.2463
  147MOL0     C19748   7.409   8.183   1.913 -0.1144  0.3275  0.9525
  147MOL0     C19749   7.485   8.317   1.892  0.9572 -0.3865 -0.0550
  147MOL0     C19750   7.464   8.424   2.005 -0.5144  0.3421 -0.3626
  147MOL0     C19751   7.597   8.481   2.044 -0.4324 -0.1210 -0.2045
  147MOL0     C19752   7.584   8.588   2.153  0.4057  0.0214 -0.0937
  147MOL0     C19753   7.720   8.646   2.192 -0.5074 -0.4338 -0.5620
  147MOL0     C19754   7.719   8.752   2.290  0.0965  0.2634 -0.8299
  147MOL0    Cl19755   7.597   8.881   2.240  0.2872 -0.2913 -0.3193
  147MOL0     C19756   7.112   8.320   1.569  0.0713 -0.5082  0.5728
  147MOL0     C19757   6.989   8.350   1.506  0.3019 -1.0520  0.2974
  147MOL0     O19758   6.657   8.216   1.630  0.7162  0.1892 -0.1717
  147MOL0     C19759   6.408   8.334   1.604  0.5890 -0.1821  0.1156
  147MOL0     C19760   6.278   8.355   1.562 -0.4266  0.3765 -0.3535
  147MOL0     N19761   5.681   8.228   1.410 -0.0669 -0.5059 -0.9457
  147MOL0     N19762   5.602   8.173   1.324  0.2459 -0.2840  0.7466
  147MOL0     C19763   5.254   8.697   1.428  0.0994  0.3975 -0.1537
  147MOL0     C19764   5.389   8.723   1.396 -0.1529  0.3061 -0.4466
  147MOL0     C19765   5.789   8.774   1.185  0.1299 -0.3235  0.0817
  147MOL0     C19766   5.888   8.725   1.099  0.4572  0.3591 -0.2211
  147MOL0     C19767   6.009   8.796   1.090  0.6809 -0.1898 -0.2942
  147MOL0     C19768   6.038   8.911   1.152  0.4492 -0.2551 -1.0998
  147MOL0     O19769   6.161   8.969   1.144 -0.3239 -0.3685  0.5860
  147MOL0     C19770   6.278   8.905   1.083  0.1346 -0.1320  0.0576
  147MOL0     C19771   6.387   9.013   1.075  0.2296  0.1140 -0.1064
  147MOL0     C19772   6.463   9.035   1.202  0.4402 -0.2642  0.2692
  147MOL0     C19773   6.572   9.138   1.194 -0.4510  0.1483  1.2639
  147MOL0     C19774   6.683   9.108   1.090  0.7859 -1.3086 -0.2125
  147MOL0     C19775   6.781   9.098   1.016  0.4496 -0.0954  0.3114
  147MOL0     C19776   5.946   8.960   1.246  0.8011  0.4667 -0.2221
  147MOL0     C19777   5.820   8.888   1.263 -0.1097 -0.4523  0.5208
  147MOL0     H19778   5.376   8.772   1.065  0.8435  0.2415  1.5469
  147MOL0     H19779   5.123   8.711   1.119  1.2269  1.0707 -2.5162
  147MOL0     H19780   5.046   8.621   1.542  0.9369 -0.5355 -0.7735
  147MOL0     H19781   4.937   8.751   1.502 -0.5953 -1.1234  2.0036
  147MOL0     H19782   4.830   8.537   1.582  0.4171 -0.4511  1.0310
  147MOL0     H19783   4.773   8.610   1.441  2.8050  1.2222 -1.4297
  147MOL0     H19784   4.812   8.351   1.400 -0.2257  1.1584  0.2563
  147MOL0     H19785   4.925   8.433   1.298 -0.9616 -0.4834 -0.1206
  147MOL0     H19786   5.077   8.421   1.507  1.3641 -1.2879 -1.6471
  147MOL0     H19787   4.983   8.274   1.551 -0.0732 -2.5656 -1.0275
  147MOL0     H19788   5.140   8.164   1.444  0.4807 -1.4137  0.3411
  147MOL0     H19789   5.021   8.178   1.330  1.5933 -2.6131  1.2326
  147MOL0     H19790   5.141   8.389   1.232  0.7674  1.3321  0.0785
  147MOL0     H19791   5.249   8.369   1.359 -2.3360  0.1724  1.5216
  147MOL0     H19792   5.284   8.107   1.256 -1.9059  1.0205  1.7647
  147MOL0     H19793   5.218   8.179   1.121 -1.2772  0.0500  0.7779
  147MOL0     H19794   5.414   8.357   1.127 -0.7853 -1.0463 -2.0361
  147MOL0     H19795   5.475   8.197   1.108  1.1512 -0.4440  1.2292
  147MOL0     H19796   5.466   8.469   1.381  2.4035  1.5392 -1.9387
  147MOL0     H19797   5.633   8.494   1.604  1.1443 -0.4145 -0.3706
  147MOL0     H19798   5.764   8.374   1.608 -1.5013 -0.5652  1.0295
  147MOL0     H19799   5.862   8.585   1.578  1.8620 -3.1489 -0.1811
  147MOL0     H19800   5.750   8.636   1.453  0.0931  0.9744  1.6464
  147MOL0     H19801   5.956   8.579   1.342  1.0206 -0.4569  1.2367
  147MOL0     H19802   5.846   8.445   1.317 -2.8526  0.7981  1.5251
  147MOL0     H19803   5.973   8.308   1.462  1.4039 -0.0689  0.2433
  147MOL0     H19804   6.011   8.438   1.566  0.0080  0.9589 -0.4606
  147MOL0     H19805   6.351   8.419   1.231 -0.8009 -0.3296 -0.4584
  147MOL0     H19806   6.661   8.520   1.299 -0.8153  0.2613  0.6118
  147MOL0     H19807   6.683   8.345   1.285  0.7949  1.0899  1.2850
  147MOL0     H19808   6.564   8.423   1.184 -0.4272  2.9268  0.5979
  147MOL0     H19809   6.801   8.321   1.789  0.0843  1.6947 -1.9618
  147MOL0     H19810   6.995   8.220   1.875 -2.6115  0.0928  0.7479
  147MOL0     H19811   7.216   8.274   1.943 -1.7290  0.0652 -0.9027
  147MOL0     H19812   7.210   8.100   1.903 -0.3175  0.3166 -0.6869
  147MOL0     H19813   7.423   8.144   2.014 -5.0555  1.1798  2.2676
  147MOL0     H19814   7.455   8.107   1.848 -0.2583 -0.5199  1.8244
  147MOL0     H19815   7.447   8.358   1.798 -0.9681 -2.5653 -0.3216
  147MOL0     H19816   7.591   8.299   1.872  0.9018 -0.9982  0.1795
  147MOL0     H19817   7.387   8.499   1.983 -0.1693  0.1092 -2.5399
  147MOL0     H19818   7.431   8.374   2.097 -2.3048  0.4916 -0.8773
  147MOL0     H19819   7.634   8.542   1.961  2.1866  0.9261  1.6128
  147MOL0     H19820   7.668   8.407   2.082 -0.0482  0.7793  0.8966
  147MOL0     H19821   7.503   8.652   2.117 -0.3672 -1.2498 -0.6678
  147MOL0     H19822   7.540   8.556   2.248  2.9386  2.0498  1.9099
  147MOL0     H19823   7.755   8.683   2.095  2.3758 -4.0489 -1.0964
  147MOL0     H19824   7.779   8.560   2.225 -1.2262 -0.8278 -0.2625
  147MOL0     H19825   7.818   8.795   2.312 -0.2674  0.6514  0.1040
  147MOL0     H19826   7.690   8.706   2.385  1.8785 -0.7579 -0.7450
  147MOL0     H19827   7.201   8.343   1.512  0.0634 -0.6047  0.5217
  147MOL0     H19828   6.985   8.395   1.408 -3.1033  0.5756  1.0293
  147MOL0     H19829   6.418   8.302   1.707 -0.5475  2.6275  1.2067
  147MOL0     H19830   6.199   8.357   1.636 -1.2749 -0.3512 -1.2107
  147MOL0     H19831   5.229   8.690   1.533  2.8108  0.7133  0.5962
  147MOL0     H19832   5.465   8.725   1.473 -0.3304  0.8387 -0.2854
  147MOL0     H19833   5.868   8.642   1.032  2.2082  1.4035 -2.1632
  147MOL0     H19834   6.073   8.759   1.009  1.0576  0.0112 -0.0927
  147MOL0     H19835   6.308   8.815   1.138 -0.5952  0.1155  0.8932
  147MOL0     H19836   6.258   8.883   0.978  0.5878  0.7784 -0.2258
  147MOL0     H19837   6.361   9.107   1.023  2.1542  0.5040 -0.4539
  147MOL0     H19838   6.458   8.968   1.005  1.7470 -0.8821  1.9895
  147MOL0     H19839   6.499   8.941   1.243  1.2079 -0.6406 -1.2187
  147MOL0     H19840   6.399   9.088   1.273  3.7197  1.5301  2.0896
  147MOL0     H19841   6.614   9.161   1.292 -0.9307 -0.8109  1.7046
  147MOL0     H19842   6.520   9.229   1.162  2.9349  1.4000 -1.2458
  147MOL0     H19843   6.872   9.097   0.959 -0.2176  0.4260 -0.8060
  147MOL0     H19844   5.970   9.044   1.311  1.8338 -0.6208  0.8537
  147MOL0     H19845   5.748   8.933   1.330 -1.5256 -0.7672 -0.7431
  148MOL0     O19846   0.819   9.178   5.129 -0.0828  0.4980  0.4038
  148MOL0     C19847   0.869   9.069   5.093  0.3449 -0.6276  0.1688
  148MOL0     O19848   0.793   8.953   5.070 -0.0109 -0.3677  0.0227
  148MOL0     C19849   0.655   8.971   5.073  0.0663  1.1622  0.2262
  148MOL0     C19850   0.583   8.914   4.968  0.2746 -0.1252  0.7995
  148MOL0     C19851   0.442   8.912   4.959 -0.0340 -0.2569 -0.4743
  148MOL0     C19852   0.378   8.965   5.077  0.2602 -0.0585  0.1539
  148MOL0     O19853   0.239   8.975   5.074 -0.6596 -0.0324 -0.7677
  148MOL0     C19854   0.159   8.871   5.007  0.1484  0.6592  0.3996
  148MOL0     C19855   0.012   8.868   5.067  0.6687 -0.1686  0.5471
  148MOL0     C19856  -0.046   9.012   5.066  0.0199  0.1851 -0.0033
  148MOL0     C19857  -0.185   9.014   5.114  0.8788 -0.3620 -0.6831
  148MOL0     C19858  -0.291   8.961   5.017  0.1629 -0.1464  0.1176
  148MOL0     C19859  -0.430   8.988   5.047  0.0721 -0.2782 -0.1457
  148MOL0     C19860  -0.535   8.921   4.953 -0.3600 -0.7054 -0.2263
  148MOL0     C19861  -0.676   8.979   4.982  0.3083 -0.4890 -0.6465
  148MOL0     N19862  -0.773   8.894   4.915  0.7118 -0.3855 -0.0896
  148MOL0     C19863  -0.810   8.760   4.927  0.0800  0.2105 -1.1527
  148MOL0     C19864  -0.906   8.743   4.828 -1.0716  0.2149 -0.5696
  148MOL0     C19865  -0.979   8.616   4.801 -0.6178 -0.3735  0.2253
  148MOL0     C19866  -0.879   8.534   4.708  0.1441 -0.1383 -0.4520
  148MOL0     C19867  -0.942   8.410   4.658 -0.5670  0.2486  0.0562
  148MOL0     C19868  -0.961   8.299   4.767  0.3115  0.2885  0.1859
  148MOL0     O19869  -1.020   8.343   4.899  0.1493  0.4303 -0.9256
  148MOL0     C19870  -1.157   8.362   4.911 -0.5296  0.3173 -0.3276
  148MOL0     C19871  -1.217   8.376   5.040 -0.0895  0.1330 -0.0448
  148MOL0     C19872  -1.353   8.375   5.073 -0.4485  0.6942  0.9758
  148MOL0     C19873  -1.381   8.381   5.221 -0.3557  0.3092 -0.4492
  148MOL0     C19874  -1.446   8.364   4.970  0.1687  0.0418 -0.2305
  148MOL0     C19875  -1.588   8.336   4.997 -0.1415 -0.2046 -0.2155
  148MOL0     O19876  -1.653   8.269   4.899 -1.3226 -0.0338  0.5205
  148MOL0     C19877  -1.784   8.272   4.856  0.0147  0.0641 -0.5668
  148MOL0     C19878  -1.871   8.373   4.883  0.1176 -0.3197  1.1533
  148MOL0     C19879  -2.009   8.364   4.838 -0.6232 -0.1983  1.4313
  148MOL0     C19880  -2.052   8.257   4.756  0.2049 -0.1270  0.3174
  148MOL0     O19881  -2.182   8.248   4.698 -0.2674 -0.4925  0.2042
  148MOL0     C19882  -2.196   8.196   4.565 -0.0154 -0.8290  0.2898
  148MOL0     C19883  -2.342   8.184   4.520  0.5380 -0.5563  0.4440
  148MOL0     C19884  -2.351   8.166   4.370 -0.3295 -0.2612  0.5619
  148MOL0     C19885  -2.501   8.140   4.333 -0.9813  0.5184 -0.4665
  148MOL0     C19886  -2.539   8.120   4.183  0.3373  0.1526 -0.5283
  148MOL0     C19887  -2.691   8.100   4.164 -0.0745  0.5698  0.5168
  148MOL0     C19888  -2.746   8.102   4.015 -1.0613 -0.5004  0.1899
  148MOL0     C19889  -2.873   8.019   3.995 -0.0968 -0.0663 -0.1339
  148MOL0    Cl19890  -2.934   8.068   3.828  0.2144 -0.2378  0.4776
  148MOL0     C19891  -1.959   8.162   4.726  0.1259  0.1446  0.0227
  148MOL0     C19892  -1.828   8.170   4.770  0.2278 -1.0027 -0.1654
  148MOL0     O19893  -1.643   8.376   5.096  0.0474 -0.1249 -0.0734
  148MOL0     C19894  -1.391   8.350   4.837  0.1237  0.3967 -0.2318
  148MOL0     C19895  -1.249   8.353   4.809 -0.4172  0.4342  0.5515
  148MOL0     N19896  -0.929   8.860   4.769 -0.3196  0.4804 -0.3874
  148MOL0     N19897  -0.855   8.956   4.823 -0.9142  0.8441 -0.8238
  148MOL0     C19898   0.450   9.014   5.187 -0.8464  0.8317  0.3761
  148MOL0     C19899   0.586   9.015   5.183  1.4436  0.2601  0.1609
  148MOL0     C19900   1.013   9.058   5.070  0.6106  0.3324 -0.1393
  148MOL0     C19901   1.072   8.926   5.049  0.9258 -0.4519 -0.7848
  148MOL0     C19902   1.210   8.909   5.031 -0.3396 -0.4370 -0.2620
  148MOL0     C19903   1.292   9.025   5.040 -0.2143 -0.4121 -0.4692
  148MOL0     O19904   1.436   9.006   5.030  0.2743  0.0198  0.6863
  148MOL0     C19905   1.521   9.119   5.008 -0.7043 -0.0943  0.4051
  148MOL0     C19906   1.664   9.052   4.979  0.0149 -0.3690 -0.7674
  148MOL0     C19907   1.707   8.988   5.114 -0.2831 -0.0426 -0.7139
  148MOL0     C19908   1.851   8.948   5.114 -0.4578  0.6878  0.5948
  148MOL0     C19909   1.887   8.856   5.007 -0.1313  0.6682 -0.5100
  148MOL0     C19910   1.925   8.767   4.928 -0.0330 -0.2237  0.8657
  148MOL0     C19911   1.236   9.153   5.072  0.2146 -0.3277  0.0193
  148MOL0     C19912   1.100   9.169   5.086 -0.4972 -0.0607 -0.0588
  148MOL0     H19913   0.628   8.892   4.872 -0.1891  2.7323 -0.1645
  148MOL0     H19914   0.393   8.890   4.864  0.6999 -0.2278 -0.8667
  148MOL0     H19915   0.152   8.877   4.898 -1.0676  1.0205  0.4802
  148MOL0     H19916   0.210   8.775   5.019  0.3705  0.6518 -0.4933
  148MOL0     H19917  -0.047   8.789   5.019 -2.0227 -1.2091  4.9932
  148MOL0     H19918   0.004   8.836   5.172 -1.0949  3.8741  1.8608
  148MOL0     H19919   0.009   9.083   5.129 -0.6404 -0.2292  1.0760
  148MOL0     H19920  -0.030   9.043   4.963  1.1274  1.6803  0.5804
  148MOL0     H19921  -0.186   8.973   5.215  1.5541 -0.5150 -0.7367
  148MOL0     H19922  -0.219   9.118   5.121 -0.5169 -0.8394  0.2275
  148MOL0     H19923  -0.279   9.007   4.918  0.8377  1.3796  0.8858
  148MOL0     H19924  -0.280   8.852   5.010 -1.3963 -0.2612 -0.9157
  148MOL0     H19925  -0.446   8.953   5.150 -2.2986  0.6774 -0.1375
  148MOL0     H19926  -0.439   9.097   5.045  2.3473 -0.0236  0.6236
  148MOL0     H19927  -0.514   8.958   4.852  4.1627 -0.7003  0.5303
  148MOL0     H19928  -0.528   8.813   4.943  0.9839 -0.4343 -4.1825
  148MOL0     H19929  -0.683   9.084   4.953  2.2702 -0.2845 -0.4640
  148MOL0     H19930  -0.702   8.969   5.088 -0.3100 -1.2386 -0.8539
  148MOL0     H19931  -0.792   8.684   5.002 -0.7739  1.2046  0.1010
  148MOL0     H19932  -0.994   8.584   4.905  0.0908 -0.1049  0.4237
  148MOL0     H19933  -1.077   8.632   4.757 -1.2136 -2.0374  0.8470
  148MOL0     H19934  -0.789   8.516   4.767 -1.7113 -1.6416  2.1452
  148MOL0     H19935  -0.846   8.591   4.621  3.5985 -2.5022 -0.8985
  148MOL0     H19936  -0.879   8.377   4.576 -0.2155  2.5079 -0.6653
  148MOL0     H19937  -1.028   8.439   4.597  0.0077  0.3066 -0.7435
  148MOL0     H19938  -0.856   8.271   4.786  1.0226  1.3867 -1.8150
  148MOL0     H19939  -1.016   8.210   4.737  0.5640 -0.3175  1.4307
  148MOL0     H19940  -1.141   8.375   5.117  2.2106 -0.2048 -2.1690
  148MOL0     H19941  -1.298   8.417   5.283 -0.5230  0.1047 -0.1048
  148MOL0     H19942  -1.462   8.450   5.249 -1.1977 -0.4527 -0.9548
  148MOL0     H19943  -1.399   8.282   5.263 -0.1377  0.7018  0.6066
  148MOL0     H19944  -1.841   8.458   4.942  2.3151 -0.5768  0.5022
  148MOL0     H19945  -2.077   8.447   4.852 -0.6613 -0.1394  0.9054
  148MOL0     H19946  -2.145   8.267   4.498  0.0851 -0.2904  0.9341
  148MOL0     H19947  -2.145   8.100   4.555  2.0310  0.2843 -0.6233
  148MOL0     H19948  -2.383   8.097   4.571 -0.5910  0.8312  2.0397
  148MOL0     H19949  -2.400   8.274   4.543 -1.5350 -0.5689 -3.7293
  148MOL0     H19950  -2.290   8.079   4.345  0.6271 -0.3567  3.0068
  148MOL0     H19951  -2.320   8.258   4.320 -4.3281  1.8379  1.5269
  148MOL0     H19952  -2.527   8.054   4.395 -0.0670  0.6069  0.0566
  148MOL0     H19953  -2.555   8.223   4.379 -0.5938 -0.5514  2.0671
  148MOL0     H19954  -2.497   8.037   4.126 -5.3514 -2.3160 -1.8029
  148MOL0     H19955  -2.509   8.218   4.146  0.8914 -0.2793 -1.2308
  148MOL0     H19956  -2.707   8.002   4.210  4.2943 -0.5314  0.1537
  148MOL0     H19957  -2.738   8.170   4.233  0.6937  2.2126 -0.5638
  148MOL0     H19958  -2.664   8.068   3.951  1.9189  2.9426  1.7448
  148MOL0     H19959  -2.767   8.203   3.979  1.3022  0.4581  1.2326
  148MOL0     H19960  -2.943   8.042   4.076  2.0760  0.1713  1.7654
  148MOL0     H19961  -2.843   7.914   3.996  1.2412  0.2144 -2.7064
  148MOL0     H19962  -1.993   8.075   4.671 -0.0974  0.3060 -0.0957
  148MOL0     H19963  -1.760   8.089   4.745  0.6455 -0.9366  0.7134
  148MOL0     H19964  -1.466   8.344   4.759 -1.6378  0.6466  1.3487
  148MOL0     H19965  -1.212   8.364   4.708 -0.1702  0.9955  0.6996
  148MOL0     H19966   0.396   9.063   5.267 -0.6786 -0.0809  1.0568
  148MOL0     H19967   0.632   9.050   5.275 -0.6597  4.2285 -0.0681
  148MOL0     H19968   1.014   8.835   5.044  1.7611 -1.1750  1.4973
  148MOL0     H19969   1.256   8.814   5.007 -3.2530 -2.8934  2.9368
  148MOL0     H19970   1.487   9.179   4.923 -0.7873  0.9845  1.1792
  148MOL0     H19971   1.527   9.171   5.104  0.5366 -1.8812  1.3719
  148MOL0     H19972   1.734   9.126   4.938 -0.6459  1.1199  0.6545
  148MOL0     H19973   1.650   8.970   4.908  3.3413 -0.1971 -1.8067
  148MOL0     H19974   1.645   8.898   5.120  0.2252 -0.4681 -1.7339
  148MOL0     H19975   1.686   9.049   5.202 -2.4278 -0.0075 -1.2027
  148MOL0     H19976   1.879   8.900   5.208  0.5717  0.4707  0.1964
  148MOL0     H19977   1.909   9.040   5.107 -0.1926  0.4758 -0.0838
  148MOL0     H19978   1.983   8.713   4.855  2.9043  1.5443  1.7009
  148MOL0     H19979   1.300   9.240   5.062  1.6169 -1.2144  0.9385
  148MOL0     H19980   1.055   9.266   5.102  1.3998  0.4917  2.5442
  149MOL0     O19981   7.587   1.098   8.796  0.3464  0.4751  0.4420
  149MOL0     C19982   7.622   1.011   8.874  0.2109  0.0550  0.0023
  149MOL0     O19983   7.535   0.924   8.936 -0.4135  0.1083  0.3759
  149MOL0     C19984   7.398   0.926   8.925  0.8094 -0.8999 -0.6601
  149MOL0     C19985   7.336   0.801   8.896  0.6300 -0.5321 -0.6162
  149MOL0     C19986   7.196   0.790   8.890 -1.3122 -0.8017 -0.5755
  149MOL0     C19987   7.115   0.904   8.882  0.4463  0.1329 -0.7292
  149MOL0     O19988   6.976   0.888   8.862 -0.5799 -0.7420 -0.4183
  149MOL0     C19989   6.898   1.003   8.819 -0.1676 -0.4921  0.3355
  149MOL0     C19990   6.748   0.964   8.778  0.5588  0.7180 -0.9632
  149MOL0     C19991   6.649   1.085   8.776  0.2541  0.2284 -0.1539
  149MOL0     C19992   6.500   1.027   8.770  0.2642 -0.4773 -0.2209
  149MOL0     C19993   6.450   0.972   8.642  0.0148 -0.6880 -0.2308
  149MOL0     C19994   6.307   0.917   8.668 -0.3250 -0.6290  0.5058
  149MOL0     C19995   6.235   0.866   8.531 -0.1112 -0.4196  0.1008
  149MOL0     C19996   6.091   0.845   8.567 -0.0818  0.1122 -0.5874
  149MOL0     N19997   6.022   0.975   8.598  0.1402  0.6591  0.9838
  149MOL0     C19998   6.012   1.090   8.519 -0.5873  0.0250  0.7927
  149MOL0     C19999   5.917   1.171   8.583 -0.0745 -0.4576  0.0652
  149MOL0     C20000   5.851   1.295   8.529 -0.0468 -0.0757 -0.2379
  149MOL0     C20001   5.708   1.271   8.479  0.1034  0.3729  0.0278
  149MOL0     C20002   5.652   1.400   8.414  0.0077  0.2486 -0.1726
  149MOL0     C20003   5.503   1.387   8.401 -0.0418  1.0911 -0.8388
  149MOL0     O20004   5.455   1.520   8.382  0.6321 -0.4317  0.4968
  149MOL0     C20005   5.315   1.528   8.366 -0.0693  0.2957  0.1169
  149MOL0     C20006   5.265   1.658   8.362  0.2382 -0.2630  0.6183
  149MOL0     C20007   5.129   1.686   8.347  0.7973  0.8558  0.3948
  149MOL0     C20008   5.084   1.827   8.357  0.2047 -0.4605  0.9838
  149MOL0     C20009   5.036   1.578   8.322 -0.8071 -0.9821 -0.1028
  149MOL0     C20010   4.898   1.605   8.285  0.0341 -1.0568  0.1770
  149MOL0     O20011   4.806   1.531   8.345 -0.6325  0.2031 -0.4380
  149MOL0     C20012   4.670   1.550   8.317 -0.3013  0.4102 -0.4778
  149MOL0     C20013   4.599   1.426   8.307 -0.1284 -0.2573  0.4644
  149MOL0     C20014   4.468   1.421   8.260  0.2343  0.3513 -0.0574
  149MOL0     C20015   4.399   1.541   8.229  0.2721  0.3837  0.2031
  149MOL0     O20016   4.273   1.556   8.190 -0.0594 -0.6985 -0.5398
  149MOL0     C20017   4.256   1.502   8.057 -0.1200  0.7986 -0.7734
  149MOL0     C20018   4.127   1.551   7.998  0.3029  0.0525  0.1363
  149MOL0     C20019   4.109   1.486   7.853  0.4308 -0.6275 -0.8582
  149MOL0     C20020   4.008   1.555   7.763  0.9338 -0.5238  0.6108
  149MOL0     C20021   4.006   1.486   7.625 -0.2303  0.4683  0.9364
  149MOL0     C20022   3.960   1.343   7.613  1.1629 -0.0260  0.9127
  149MOL0     C20023   3.959   1.287   7.466  0.3096  1.0506  0.5149
  149MOL0     C20024   3.877   1.158   7.452 -0.3813 -0.5485 -0.2154
  149MOL0    Cl20025   3.970   1.016   7.529  0.1028  0.3275  0.1752
  149MOL0     C20026   4.465   1.664   8.243  0.1744  0.2335 -1.4754
  149MOL0     C20027   4.595   1.665   8.292  0.3489  0.1479 -0.2667
  149MOL0     O20028   4.879   1.679   8.185  0.7153  0.7617  0.1120
  149MOL0     C20029   5.090   1.455   8.313  0.6150  0.4981  0.3517
  149MOL0     C20030   5.225   1.428   8.338 -0.4324  0.0805  0.2051
  149MOL0     N20031   5.877   1.110   8.693 -0.7662  0.1723  0.4919
  149MOL0     N20032   5.938   0.996   8.704 -0.7362  0.0804 -0.4103
  149MOL0     C20033   7.173   1.032   8.897 -0.2652  0.7308  0.2045
  149MOL0     C20034   7.309   1.041   8.937 -0.1053  0.0913  0.4790
  149MOL0     C20035   7.756   1.032   8.931  0.7808  0.1330 -0.3184
  149MOL0     C20036   7.796   0.956   9.039  0.0495 -0.5551  0.8828
  149MOL0     C20037   7.926   0.968   9.094 -0.3945  0.2964 -0.0653
  149MOL0     C20038   8.012   1.058   9.039 -0.4710  0.1384  0.1443
  149MOL0     O20039   8.141   1.079   9.096 -0.5413 -0.5166 -0.1838
  149MOL0     C20040   8.198   1.204   9.077 -0.9089 -0.8156  0.5876
  149MOL0     C20041   8.122   1.314   9.153  0.8603  0.1557  0.4663
  149MOL0     C20042   8.135   1.316   9.298 -0.5599  0.5199 -0.2064
  149MOL0     C20043   8.057   1.435   9.361  0.1336 -0.0997 -0.2094
  149MOL0     C20044   8.059   1.424   9.507 -1.0079 -0.1993 -0.4426
  149MOL0     C20045   8.088   1.423   9.626  0.1723 -0.1322 -0.3378
  149MOL0     C20046   7.972   1.124   8.923 -0.3815 -0.5414  0.5864
  149MOL0     C20047   7.848   1.109   8.862 -0.2707 -0.3998  0.3177
  149MOL0     H20048   7.396   0.711   8.887  1.9231  0.0809  1.2497
  149MOL0     H20049   7.133   0.701   8.883 -0.8243 -1.1181 -0.9676
  149MOL0     H20050   6.882   1.070   8.904 -1.5100 -0.0052 -0.2718
  149MOL0     H20051   6.946   1.062   8.740 -2.3883  0.9726 -0.0120
  149MOL0     H20052   6.749   0.921   8.678 -1.8650 -1.6798 -0.0788
  149MOL0     H20053   6.709   0.882   8.838  0.4438 -0.8067 -3.0259
  149MOL0     H20054   6.653   1.130   8.875 -3.0992 -1.9550  1.1542
  149MOL0     H20055   6.670   1.160   8.699  0.3817  0.1388 -0.2079
  149MOL0     H20056   6.485   0.952   8.848 -2.0978  1.0686  0.9339
  149MOL0     H20057   6.440   1.114   8.797 -1.2678 -2.1439  2.0525
  149MOL0     H20058   6.446   1.054   8.569  1.9223  1.9842  2.4145
  149MOL0     H20059   6.528   0.905   8.606 -0.4032 -0.7448 -1.0441
  149MOL0     H20060   6.298   0.834   8.738 -5.2405 -1.6650 -0.9620
  149MOL0     H20061   6.252   1.004   8.705  0.8534  0.3180  0.0889
  149MOL0     H20062   6.252   0.930   8.444  1.3998 -0.9691 -0.0354
  149MOL0     H20063   6.271   0.765   8.511  4.3351  1.2603 -1.4426
  149MOL0     H20064   6.082   0.769   8.645 -3.0346 -1.9096 -2.6633
  149MOL0     H20065   6.033   0.789   8.492  0.2266  0.6273 -1.2148
  149MOL0     H20066   6.067   1.114   8.428 -1.0169  0.2466  0.5924
  149MOL0     H20067   5.848   1.366   8.612 -0.8859  0.0606 -0.3761
  149MOL0     H20068   5.915   1.347   8.456  0.0131  3.2174  1.9439
  149MOL0     H20069   5.647   1.231   8.560 -0.3228 -0.3189 -0.6142
  149MOL0     H20070   5.709   1.189   8.406 -0.2009  0.2760  0.1328
  149MOL0     H20071   5.686   1.420   8.312  1.3022 -0.3932  0.1103
  149MOL0     H20072   5.673   1.485   8.480  1.4647  1.1134 -1.6884
  149MOL0     H20073   5.464   1.352   8.497  2.3908 -3.7090 -1.3279
  149MOL0     H20074   5.468   1.329   8.315 -5.3007  1.9700  0.3258
  149MOL0     H20075   5.334   1.741   8.363  0.6014 -0.5581  1.8972
  149MOL0     H20076   5.043   1.858   8.261  0.9213 -0.7003  0.5992
  149MOL0     H20077   5.005   1.845   8.431 -0.3501  1.7470 -0.0753
  149MOL0     H20078   5.169   1.893   8.378 -0.3882  1.3881 -1.8299
  149MOL0     H20079   4.651   1.335   8.336 -2.8926 -1.6199  1.4540
  149MOL0     H20080   4.412   1.328   8.253  0.5146  0.0941  0.9078
  149MOL0     H20081   4.345   1.520   7.995  1.5484 -2.7698  0.3108
  149MOL0     H20082   4.233   1.396   8.062  1.8869  0.2941 -1.4208
  149MOL0     H20083   4.050   1.511   8.065 -0.5412  0.6748 -0.4398
  149MOL0     H20084   4.134   1.660   7.994 -4.1962  0.4927 -2.7340
  149MOL0     H20085   4.075   1.385   7.880 -2.2775  0.7238  1.2547
  149MOL0     H20086   4.208   1.491   7.807  0.4965  1.5488 -0.5600
  149MOL0     H20087   3.906   1.570   7.799  0.8369  3.7007 -0.8792
  149MOL0     H20088   4.026   1.662   7.746 -4.5652  0.3077 -2.0362
  149MOL0     H20089   4.112   1.488   7.595  0.1665  0.6706  2.2946
  149MOL0     H20090   3.943   1.544   7.556 -0.4101  0.6866  1.2850
  149MOL0     H20091   4.016   1.276   7.677 -1.3722 -2.8463  0.3992
  149MOL0     H20092   3.858   1.346   7.654  0.7760 -0.5297  0.0164
  149MOL0     H20093   4.053   1.272   7.413 -0.0921 -0.7695  0.2398
  149MOL0     H20094   3.909   1.361   7.403 -1.6876  0.7014  1.5977
  149MOL0     H20095   3.857   1.135   7.347 -0.7362 -0.7094 -0.1145
  149MOL0     H20096   3.779   1.170   7.498 -0.9528 -3.3875 -0.4710
  149MOL0     H20097   4.405   1.748   8.210  0.0939  0.9434  0.4037
  149MOL0     H20098   4.640   1.757   8.328 -0.0162 -0.6988  2.6344
  149MOL0     H20099   5.018   1.379   8.284 -0.7651  2.7493 -2.6471
  149MOL0     H20100   5.262   1.327   8.326 -0.2569  0.0530  0.9639
  149MOL0     H20101   7.115   1.124   8.892 -1.8006 -0.0635  2.3316
  149MOL0     H20102   7.344   1.136   8.975 -0.1176 -0.6028  2.3107
  149MOL0     H20103   7.729   0.886   9.086 -0.7765  0.2818  0.9753
  149MOL0     H20104   7.946   0.894   9.170 -3.3973 -1.7250 -1.0582
  149MOL0     H20105   8.301   1.184   9.108 -0.0256 -0.7758 -1.9968
  149MOL0     H20106   8.226   1.231   8.974  2.8552  0.7967  1.8629
  149MOL0     H20107   8.017   1.309   9.123  0.8621 -1.3167  0.6252
  149MOL0     H20108   8.175   1.398   9.107 -1.0780  0.3101 -1.6671
  149MOL0     H20109   8.232   1.314   9.349 -1.5321 -0.2863  1.7214
  149MOL0     H20110   8.092   1.221   9.333 -0.6460  0.9659  0.9498
  149MOL0     H20111   7.952   1.447   9.332  0.0621  3.3821  0.9779
  149MOL0     H20112   8.108   1.529   9.339 -0.2066  0.2634  0.5187
  149MOL0     H20113   8.107   1.440   9.730  0.5584  0.5693 -0.5179
  149MOL0     H20114   8.038   1.189   8.867  0.8655 -0.9739  1.5224
  149MOL0     H20115   7.825   1.156   8.767  1.7765 -0.6148 -0.3440
  150MOL0     O20116   6.634   2.408   1.112  0.0634  0.7314  0.1455
  150MOL0     C20117   6.699   2.325   1.167 -0.7397 -1.1008 -0.0240
  150MOL0     O20118   6.647   2.214   1.230 -0.9675  0.3200  0.0204
  150MOL0     C20119   6.506   2.218   1.249  0.2548  0.2825 -1.1499
  150MOL0     C20120   6.425   2.156   1.152 -0.0418 -0.4278 -0.0754
  150MOL0     C20121   6.285   2.162   1.168 -0.2618  0.1473 -0.4748
  150MOL0     C20122   6.225   2.219   1.272  1.2250  0.2453 -1.1267
  150MOL0     O20123   6.090   2.219   1.282 -0.0571  0.5165  0.8555
  150MOL0     C20124   6.054   2.128   1.385 -1.0236 -0.5062 -0.9925
  150MOL0     C20125   5.911   2.081   1.380 -0.8381 -0.2118  1.3360
  150MOL0     C20126   5.893   2.016   1.239  0.4647 -0.4012  0.0177
  150MOL0     C20127   5.748   1.986   1.220  0.3564 -0.0206  0.0637
  150MOL0     C20128   5.707   1.903   1.091 -0.7476 -0.7758 -0.6355
  150MOL0     C20129   5.574   1.817   1.094  0.2652 -0.4691  0.5291
  150MOL0     C20130   5.567   1.705   0.986 -0.4402  0.0322  0.7593
  150MOL0     C20131   5.422   1.647   0.959 -0.7460  0.5775  0.5637
  150MOL0     N20132   5.362   1.605   1.080 -0.1088 -0.4771 -0.2148
  150MOL0     C20133   5.236   1.636   1.132 -0.3626 -0.1828 -0.0399
  150MOL0     C20134   5.229   1.572   1.251 -0.3045  0.6072 -0.3301
  150MOL0     C20135   5.123   1.580   1.356  0.5649 -0.9439  0.0213
  150MOL0     C20136   5.022   1.472   1.320 -1.4453 -0.6113 -0.1352
  150MOL0     C20137   4.940   1.463   1.441 -0.0049  0.1582 -0.2173
  150MOL0     C20138   4.811   1.371   1.430  0.7661  0.3352 -0.3588
  150MOL0     O20139   4.835   1.228   1.428  0.0036  0.6614  0.7194
  150MOL0     C20140   4.748   1.136   1.372 -1.1155  0.6614 -0.2120
  150MOL0     C20141   4.796   1.003   1.372 -0.4796 -0.4012  0.5164
  150MOL0     C20142   4.726   0.903   1.305 -0.5324 -0.1299 -0.4806
  150MOL0     C20143   4.794   0.772   1.294 -0.2100  0.4036 -0.7948
  150MOL0     C20144   4.590   0.933   1.263 -1.1416  0.6465 -0.4004
  150MOL0     C20145   4.506   0.835   1.185 -0.9629 -0.5038 -0.6322
  150MOL0     O20146   4.441   0.874   1.076 -0.3425  0.9388 -0.1583
  150MOL0     C20147   4.382   0.788   0.987 -0.7174  0.4644  0.5777
  150MOL0     C20148   4.470   0.703   0.916 -0.2101  0.0616  0.7209
  150MOL0     C20149   4.420   0.637   0.800 -0.5184 -0.1528  0.4930
  150MOL0     C20150   4.284   0.643   0.754  0.4827  0.1617 -0.7513
  150MOL0     O20151   4.230   0.567   0.657 -0.8377  1.2565  0.1992
  150MOL0     C20152   4.115   0.613   0.594  0.7972 -0.3650 -0.1876
  150MOL0     C20153   4.071   0.532   0.471  0.2142  0.0893 -0.1600
  150MOL0     C20154   3.919   0.551   0.432  0.2671  0.0798 -0.1606
  150MOL0     C20155   3.813   0.540   0.551 -0.3010 -0.1537  0.2411
  150MOL0     C20156   3.667   0.517   0.492  0.2362 -1.0265 -0.1154
  150MOL0     C20157   3.626   0.604   0.373 -0.2540  0.5922  0.3666
  150MOL0     C20158   3.615   0.760   0.398 -0.4283  0.0609  0.4739
  150MOL0     C20159   3.645   0.834   0.258 -0.4535 -0.8562  0.2880
  150MOL0    Cl20160   3.819   0.889   0.227  0.3943 -0.3420 -0.2437
  150MOL0     C20161   4.201   0.716   0.845 -0.3993 -0.3220  1.0923
  150MOL0     C20162   4.251   0.796   0.948 -0.3927  0.4509 -0.0954
  150MOL0     O20163   4.493   0.724   1.236 -0.1578 -0.4355 -0.1084
  150MOL0     C20164   4.539   1.063   1.287  1.0537  0.6304 -0.1413
  150MOL0     C20165   4.619   1.165   1.339  1.2909  0.2394 -0.2677
  150MOL0     N20166   5.347   1.506   1.272 -0.0443 -0.2424 -0.0821
  150MOL0     N20167   5.419   1.521   1.173 -0.4450  0.1849 -0.4300
  150MOL0     C20168   6.306   2.273   1.368  0.4608 -0.1859  0.4709
  150MOL0     C20169   6.441   2.270   1.363 -0.4319  0.1132 -0.6640
  150MOL0     C20170   6.841   2.337   1.168  0.3774 -0.1279 -0.4520
  150MOL0     C20171   6.902   2.463   1.125  0.5325 -0.5145  0.3506
  150MOL0     C20172   7.041   2.474   1.109  0.0729 -0.7178 -0.3109
  150MOL0     C20173   7.124   2.376   1.157  0.2253  0.8547  0.1324
  150MOL0     O20174   7.258   2.409   1.155  0.1759  0.9981  0.5897
  150MOL0     C20175   7.314   2.422   1.284 -0.8770  0.2516 -0.1490
  150MOL0     C20176   7.457   2.471   1.259  0.0463 -0.1945 -0.2532
  150MOL0     C20177   7.530   2.398   1.137 -0.4319  0.2282 -0.2697
  150MOL0     C20178   7.565   2.256   1.177 -1.0098 -0.1311 -0.5075
  150MOL0     C20179   7.639   2.202   1.068 -0.7151  0.0666  0.2673
  150MOL0     C20180   7.727   2.170   0.991  0.3645 -0.2971  0.4169
  150MOL0     C20181   7.069   2.260   1.219 -0.5046  0.0430  0.4454
  150MOL0     C20182   6.928   2.235   1.221 -0.0029 -0.3793  0.6665
  150MOL0     H20183   6.474   2.112   1.065  0.3330  0.1006 -0.1360
  150MOL0     H20184   6.227   2.119   1.087  0.9426 -4.4202  0.7496
  150MOL0     H20185   6.123   2.044   1.394  0.8888  1.0561 -0.3848
  150MOL0     H20186   6.063   2.176   1.483 -3.4587 -0.2866 -0.8153
  150MOL0     H20187   5.899   2.010   1.462  2.2203  0.9672  2.9552
  150MOL0     H20188   5.837   2.161   1.387 -0.2058  0.4865  0.2421
  150MOL0     H20189   5.915   2.082   1.155 -2.8096 -1.1983 -1.6383
  150MOL0     H20190   5.957   1.928   1.234 -0.8141 -1.3280 -0.7446
  150MOL0     H20191   5.726   1.913   1.298 -1.0914  1.1054  0.7450
  150MOL0     H20192   5.690   2.078   1.228 -1.6531 -1.3324  1.3225
  150MOL0     H20193   5.726   1.963   1.002  1.7540  0.4769  0.6385
  150MOL0     H20194   5.774   1.816   1.089 -0.8429 -0.9280  1.2137
  150MOL0     H20195   5.572   1.766   1.191  1.8077 -0.1490  0.7493
  150MOL0     H20196   5.496   1.892   1.077  2.3408  1.4528 -1.0566
  150MOL0     H20197   5.616   1.753   0.901  3.2744  0.8657  3.1356
  150MOL0     H20198   5.629   1.624   1.026  0.3574 -1.0288 -2.3746
  150MOL0     H20199   5.434   1.561   0.892 -3.9515  0.9144 -0.5895
  150MOL0     H20200   5.355   1.717   0.908  0.3256  0.8212 -0.5663
  150MOL0     H20201   5.166   1.707   1.090 -0.4574  0.0834  0.5588
  150MOL0     H20202   5.183   1.562   1.446  0.3469  1.3832  0.6992
  150MOL0     H20203   5.076   1.679   1.348  0.2307 -1.1394 -0.4606
  150MOL0     H20204   5.080   1.383   1.295  1.0851  1.0686 -0.6032
  150MOL0     H20205   4.968   1.500   1.229  2.4316  0.1758 -2.4517
  150MOL0     H20206   4.903   1.564   1.459 -0.7135  0.1721 -1.6660
  150MOL0     H20207   4.999   1.439   1.531 -0.1738  0.3982 -0.0405
  150MOL0     H20208   4.769   1.394   1.332  1.1113 -0.7410 -0.7707
  150MOL0     H20209   4.746   1.391   1.516  0.0070 -1.1398 -0.5563
  150MOL0     H20210   4.899   0.987   1.401  0.4177 -0.0321 -2.1956
  150MOL0     H20211   4.829   0.742   1.393 -0.6819 -0.1069 -0.7792
  150MOL0     H20212   4.731   0.691   1.256  1.3475 -0.9259 -0.6437
  150MOL0     H20213   4.887   0.772   1.236  1.5245 -1.9414  1.7224
  150MOL0     H20214   4.569   0.676   0.952 -0.0454 -1.1767 -0.5840
  150MOL0     H20215   4.480   0.575   0.733  0.2620 -0.4968  1.4670
  150MOL0     H20216   4.029   0.616   0.661  1.5394  1.3957  0.7626
  150MOL0     H20217   4.128   0.717   0.561 -1.2818 -0.3657 -1.1615
  150MOL0     H20218   4.137   0.555   0.387  1.8946 -1.7461  0.5662
  150MOL0     H20219   4.086   0.430   0.507  1.1820  0.2303 -0.1363
  150MOL0     H20220   3.908   0.462   0.369 -0.8537 -0.4376  0.7270
  150MOL0     H20221   3.902   0.646   0.381 -2.7354  0.0375  0.5698
  150MOL0     H20222   3.841   0.456   0.616 -2.7900 -0.9467  0.3933
  150MOL0     H20223   3.814   0.636   0.604  1.1286  1.4086 -2.3890
  150MOL0     H20224   3.598   0.535   0.575  1.4113  1.2404  0.4551
  150MOL0     H20225   3.653   0.411   0.468  1.4988 -1.3325  0.4125
  150MOL0     H20226   3.697   0.588   0.290 -1.1254 -1.5132 -0.0389
  150MOL0     H20227   3.533   0.563   0.333  1.4027 -0.6010 -2.5543
  150MOL0     H20228   3.688   0.798   0.470 -0.7729 -1.8140  1.9008
  150MOL0     H20229   3.515   0.782   0.436  0.0355 -1.1429  2.5187
  150MOL0     H20230   3.586   0.925   0.262 -0.9989 -1.2258  0.9303
  150MOL0     H20231   3.615   0.772   0.173 -2.2546  1.9826 -1.2715
  150MOL0     H20232   4.094   0.725   0.829 -0.1261 -0.2624 -1.0517
  150MOL0     H20233   4.182   0.861   1.000  1.6717  1.1734  1.8953
  150MOL0     H20234   4.438   1.088   1.256  0.6131 -1.7565 -0.8691
  150MOL0     H20235   4.576   1.263   1.351 -0.4427 -0.7068  1.9886
  150MOL0     H20236   6.256   2.328   1.447 -0.9822 -1.1753  0.2847
  150MOL0     H20237   6.508   2.309   1.440 -1.2210 -2.2661  1.3531
  150MOL0     H20238   6.828   2.538   1.099  1.2302  0.7979  2.0247
  150MOL0     H20239   7.098   2.558   1.069  4.6193 -1.5828  3.4290
  150MOL0     H20240   7.266   2.497   1.348  0.4100 -0.6614  1.9957
  150MOL0     H20241   7.308   2.327   1.338 -0.8688 -0.7330 -1.7946
  150MOL0     H20242   7.504   2.459   1.358  0.2981 -0.0300 -0.3519
  150MOL0     H20243   7.460   2.578   1.237  1.1606 -0.2594 -0.5080
  150MOL0     H20244   7.625   2.449   1.116  1.3716 -1.3180  3.3228
  150MOL0     H20245   7.469   2.399   1.046 -0.7046 -0.1293 -0.0902
  150MOL0     H20246   7.473   2.198   1.194 -0.4317 -0.5654  1.4058
  150MOL0     H20247   7.629   2.260   1.265  2.1280  1.2115 -2.6952
  150MOL0     H20248   7.803   2.149   0.918 -1.2022  0.6313 -1.5845
  150MOL0     H20249   7.129   2.173   1.240 -2.8457 -1.9401 -0.5365
  150MOL0     H20250   6.898   2.139   1.262 -0.8802  0.0917  1.1518
  151MOL0     O20251   1.995   6.159   3.178  0.5888 -1.1143  0.4190
  151MOL0     C20252   2.101   6.122   3.134  0.2157  0.1470  0.6269
  151MOL0     O20253   2.138   5.994   3.090 -0.4640 -0.0803 -0.4062
  151MOL0     C20254   2.041   5.901   3.053 -0.1453  0.2691 -0.3582
  151MOL0     C20255   1.902   5.926   3.022 -0.4096  0.9085 -0.0109
  151MOL0     C20256   1.822   5.821   2.975  0.5330 -0.2116  0.2851
  151MOL0     C20257   1.861   5.685   2.962 -0.3520 -0.4839 -0.6751
  151MOL0     O20258   1.780   5.579   2.936  0.3900 -0.3650 -0.2560
  151MOL0     C20259   1.647   5.612   2.888 -0.4573  0.2784  0.0081
  151MOL0     C20260   1.554   5.485   2.882 -0.4361 -0.7332 -0.3274
  151MOL0     C20261   1.516   5.404   3.005 -0.8242 -0.3677  0.9187
  151MOL0     C20262   1.440   5.279   2.959  0.0048 -0.2733  0.6134
  151MOL0     C20263   1.380   5.209   3.080  0.5028 -0.8589  0.4351
  151MOL0     C20264   1.316   5.066   3.051  0.3185  0.0109  0.6116
  151MOL0     C20265   1.189   5.086   2.963  0.1384 -0.5847 -0.0962
  151MOL0     C20266   1.072   5.146   3.041 -0.8617  0.3243 -0.0648
  151MOL0     N20267   1.024   5.256   2.969  0.2442 -0.4855  0.9588
  151MOL0     C20268   0.953   5.259   2.844  0.4788 -0.7713  0.6127
  151MOL0     C20269   0.932   5.393   2.816  0.0873 -0.7058  0.4621
  151MOL0     C20270   0.863   5.460   2.705  0.6284  0.5778  0.1365
  151MOL0     C20271   0.802   5.363   2.594 -0.6424 -0.2821  0.6479
  151MOL0     C20272   0.673   5.290   2.644 -0.0981  0.3233 -0.3529
  151MOL0     C20273   0.598   5.253   2.521  0.9590  0.3336  0.7716
  151MOL0     O20274   0.529   5.131   2.540 -0.7056 -0.1981  0.2998
  151MOL0     C20275   0.399   5.123   2.518  0.0049 -0.1265  0.5760
  151MOL0     C20276   0.323   5.037   2.597  0.9115 -0.1266  0.2275
  151MOL0     C20277   0.181   5.042   2.591 -0.1224 -0.2448  0.0712
  151MOL0     C20278   0.113   4.942   2.682  0.3320 -0.7788  0.5115
  151MOL0     C20279   0.113   5.124   2.502 -0.0144 -0.8297  0.0811
  151MOL0     C20280  -0.033   5.116   2.473 -0.0455  0.0963  0.4731
  151MOL0     O20281  -0.102   5.239   2.449 -0.0933 -0.4313  0.1873
  151MOL0     C20282  -0.237   5.250   2.474 -0.1582 -0.2859 -0.5564
  151MOL0     C20283  -0.279   5.230   2.609 -0.0798 -0.1158  0.0053
  151MOL0     C20284  -0.415   5.220   2.630  1.0182  0.4660 -0.1285
  151MOL0     C20285  -0.513   5.250   2.532 -0.3476 -0.1407 -0.4706
  151MOL0     O20286  -0.650   5.234   2.548 -0.5511 -0.2366 -0.1757
  151MOL0     C20287  -0.684   5.090   2.538  0.6097  0.0858  0.1341
  151MOL0     C20288  -0.832   5.098   2.541 -0.4403  0.2104  0.1634
  151MOL0     C20289  -0.906   4.966   2.576  0.2794  0.6696  0.8501
  151MOL0     C20290  -1.057   4.983   2.556 -0.3399 -0.3020 -0.0582
  151MOL0     C20291  -1.134   5.041   2.680  1.3119 -0.3104  0.1767
  151MOL0     C20292  -1.153   4.955   2.800  0.3780  0.7707 -0.5336
  151MOL0     C20293  -1.235   5.010   2.906 -0.3425  0.1938  0.5465
  151MOL0     C20294  -1.380   5.035   2.867  0.0983 -0.2336  0.0106
  151MOL0    Cl20295  -1.465   5.095   3.020 -0.0491  0.3193  0.1150
  151MOL0     C20296  -0.461   5.263   2.398  0.0169  0.4139 -0.5151
  151MOL0     C20297  -0.325   5.266   2.366  0.1641  0.3265 -0.0259
  151MOL0     O20298  -0.085   5.008   2.487  0.5327  0.3811  0.7604
  151MOL0     C20299   0.186   5.221   2.432  0.0112  0.5139 -0.0668
  151MOL0     C20300   0.327   5.216   2.435 -0.6850  0.1515 -0.4176
  151MOL0     N20301   0.977   5.465   2.923  0.2591 -0.4365 -0.0224
  151MOL0     N20302   1.028   5.387   3.010 -0.1269  0.4894  0.0327
  151MOL0     C20303   1.989   5.659   3.006  0.9811 -0.8417 -0.2070
  151MOL0     C20304   2.076   5.762   3.044  0.8254 -0.2539  0.4041
  151MOL0     C20305   2.220   6.215   3.156  0.8074 -0.6239 -0.1161
  151MOL0     C20306   2.348   6.190   3.100  0.5766  0.7242 -1.0812
  151MOL0     C20307   2.453   6.284   3.123 -0.7772  0.8385  0.0281
  151MOL0     C20308   2.435   6.394   3.203 -0.8219  0.6589  0.5317
  151MOL0     O20309   2.521   6.496   3.250  0.0643  0.5956 -0.7179
  151MOL0     C20310   2.646   6.528   3.187 -0.8631  0.1194 -0.4125
  151MOL0     C20311   2.760   6.444   3.257  0.6943 -0.2028  0.1356
  151MOL0     C20312   2.898   6.464   3.188  0.1489 -0.1130 -0.7372
  151MOL0     C20313   2.954   6.615   3.208 -0.5596 -1.7021 -0.9098
  151MOL0     C20314   2.970   6.650   3.353  1.7552  0.1910  0.8595
  151MOL0     C20315   2.991   6.680   3.468  0.1206 -0.0820 -0.4104
  151MOL0     C20316   2.302   6.414   3.253 -0.5771 -0.4149  0.0823
  151MOL0     C20317   2.199   6.328   3.232 -0.2877  0.4652  0.5509
  151MOL0     H20318   1.854   6.023   3.024 -1.8132  0.2388 -0.4428
  151MOL0     H20319   1.720   5.857   2.967  0.8160  0.2962 -1.2454
  151MOL0     H20320   1.603   5.697   2.942 -0.0845 -0.7764  2.0415
  151MOL0     H20321   1.654   5.643   2.783 -1.7339 -0.4362 -0.3026
  151MOL0     H20322   1.462   5.520   2.835  0.7479 -0.1770 -2.3364
  151MOL0     H20323   1.593   5.425   2.800 -0.4079  0.0985 -0.9392
  151MOL0     H20324   1.604   5.370   3.061 -0.6580  0.0037  0.8929
  151MOL0     H20325   1.456   5.475   3.064  0.0645  1.6728 -0.5091
  151MOL0     H20326   1.382   5.299   2.869  1.7275 -4.1491 -1.5963
  151MOL0     H20327   1.514   5.208   2.920 -0.4631  0.4687 -1.7281
  151MOL0     H20328   1.461   5.193   3.152  0.9656  2.3043  0.7754
  151MOL0     H20329   1.311   5.276   3.132  3.4750 -0.3084  4.0613
  151MOL0     H20330   1.386   4.998   3.001  0.6548  0.7223  0.1022
  151MOL0     H20331   1.286   5.020   3.145 -1.9240  0.5233  0.2033
  151MOL0     H20332   1.202   5.135   2.866 -0.7654 -0.0792  0.0145
  151MOL0     H20333   1.151   4.986   2.942  0.1495 -1.6583  4.1453
  151MOL0     H20334   1.095   5.185   3.141 -0.4417 -1.1505  0.4336
  151MOL0     H20335   0.993   5.073   3.062  2.6100 -3.3142  1.6321
  151MOL0     H20336   0.924   5.174   2.783  0.6522 -1.4795  1.4917
  151MOL0     H20337   0.783   5.527   2.739  2.2296  3.2229 -0.9899
  151MOL0     H20338   0.926   5.536   2.657 -2.5035  4.6263  1.7497
  151MOL0     H20339   0.876   5.286   2.574 -1.1349 -1.9079  4.3019
  151MOL0     H20340   0.787   5.425   2.504  4.2108  0.3290  0.0169
  151MOL0     H20341   0.605   5.357   2.698  2.0313  2.2684  0.0305
  151MOL0     H20342   0.682   5.202   2.709 -2.3449  1.4205  1.6318
  151MOL0     H20343   0.666   5.240   2.435 -1.1029  2.8242 -1.4202
  151MOL0     H20344   0.553   5.342   2.476  1.7366  0.6835  0.6667
  151MOL0     H20345   0.365   4.972   2.672 -1.5048 -2.6091 -0.4095
  151MOL0     H20346   0.167   4.926   2.776  0.7911 -0.2686  0.3374
  151MOL0     H20347   0.016   4.968   2.726  0.1416  0.7537 -0.7413
  151MOL0     H20348   0.107   4.845   2.631 -0.1369  0.0521 -1.0502
  151MOL0     H20349  -0.223   5.202   2.698 -2.4462 -2.9444  0.7764
  151MOL0     H20350  -0.453   5.194   2.728  0.3591  0.6889 -0.3243
  151MOL0     H20351  -0.650   5.053   2.441 -0.8258  3.1998 -1.7026
  151MOL0     H20352  -0.647   5.034   2.624  0.8075 -2.2401 -1.3735
  151MOL0     H20353  -0.860   5.167   2.621  2.2037  0.0681  1.2985
  151MOL0     H20354  -0.874   5.129   2.445  0.2051 -3.8657 -1.6527
  151MOL0     H20355  -0.884   4.932   2.678 -0.8782 -2.1475  0.2543
  151MOL0     H20356  -0.872   4.889   2.506 -1.1106 -0.3603  1.2543
  151MOL0     H20357  -1.073   5.057   2.477 -2.3900 -0.1887  0.4102
  151MOL0     H20358  -1.106   4.889   2.531 -2.7347  0.7221  0.4784
  151MOL0     H20359  -1.235   5.062   2.643  0.8390  0.0651  1.6107
  151MOL0     H20360  -1.082   5.132   2.711 -0.6980  0.5134  1.3653
  151MOL0     H20361  -1.195   4.862   2.760  1.5105  0.4941 -1.1237
  151MOL0     H20362  -1.062   4.925   2.853  0.3558  0.9907 -0.3699
  151MOL0     H20363  -1.195   5.111   2.917  0.2417  0.1243 -0.7187
  151MOL0     H20364  -1.235   4.943   2.992 -0.4516  0.7770  1.0080
  151MOL0     H20365  -1.420   4.942   2.825  0.1651 -2.2172  3.8910
  151MOL0     H20366  -1.395   5.110   2.789 -0.3489  0.2368  0.5395
  151MOL0     H20367  -0.541   5.265   2.325  0.1750 -0.0619 -0.7036
  151MOL0     H20368  -0.290   5.281   2.264 -0.0831 -0.2755 -0.2040
  151MOL0     H20369   0.132   5.294   2.372 -1.3464 -0.2016  0.2492
  151MOL0     H20370   0.382   5.282   2.369 -0.2902 -2.1938 -2.5540
  151MOL0     H20371   2.014   5.554   3.009  0.5946 -0.9063  1.9801
  151MOL0     H20372   2.180   5.744   3.070  0.2176 -2.5474  1.4670
  151MOL0     H20373   2.340   6.097   3.046 -0.9492  0.1592  0.0343
  151MOL0     H20374   2.548   6.265   3.074 -0.8180 -1.0703  0.6156
  151MOL0     H20375   2.651   6.507   3.080 -1.2875  0.9661 -0.6034
  151MOL0     H20376   2.672   6.634   3.183  0.9610 -0.1155  2.2015
  151MOL0     H20377   2.742   6.337   3.271  2.1797 -0.1904  2.9266
  151MOL0     H20378   2.752   6.470   3.363 -2.6092 -3.2282  0.8436
  151MOL0     H20379   2.906   6.436   3.082  1.2082 -0.9219 -0.4571
  151MOL0     H20380   2.972   6.397   3.232 -0.2171  0.2919  0.5212
  151MOL0     H20381   2.897   6.688   3.149  1.7808  0.3163 -0.8448
  151MOL0     H20382   3.052   6.605   3.161 -1.3504 -2.0432 -2.5941
  151MOL0     H20383   3.013   6.699   3.571  3.6090  3.0654 -1.5179
  151MOL0     H20384   2.293   6.503   3.315  0.4979 -2.0143  2.6979
  151MOL0     H20385   2.101   6.355   3.270 -0.4608  2.6204 -1.2075
  152MOL0     O20386   0.310   8.526   0.544 -0.1896  0.0841  0.0144
  152MOL0     C20387   0.384   8.615   0.576  0.0859 -1.0624  0.8639
  152MOL0     O20388   0.341   8.747   0.615  0.0507  0.1142 -0.5514
  152MOL0     C20389   0.207   8.748   0.614  0.1543 -1.0210 -1.1866
  152MOL0     C20390   0.131   8.698   0.723  0.3317  0.2574 -0.9691
  152MOL0     C20391  -0.012   8.709   0.725 -0.3998  0.5492 -0.3128
  152MOL0     C20392  -0.083   8.777   0.624 -0.2358  0.7061  0.1800
  152MOL0     O20393  -0.222   8.777   0.636 -0.4102 -0.2421 -0.4920
  152MOL0     C20394  -0.292   8.690   0.540  0.1278 -0.6212  0.3356
  152MOL0     C20395  -0.260   8.713   0.392 -0.8109  0.1931 -0.3769
  152MOL0     C20396  -0.357   8.629   0.321  1.2812  0.7844  0.0338
  152MOL0     C20397  -0.358   8.646   0.164  0.2407 -0.2609 -0.0096
  152MOL0     C20398  -0.434   8.532   0.093  0.3179  0.1552  0.4456
  152MOL0     C20399  -0.419   8.532  -0.063 -0.4140  1.0212  0.0151
  152MOL0     C20400  -0.496   8.410  -0.126  0.5594  0.4393 -1.1902
  152MOL0     C20401  -0.476   8.403  -0.279  0.1925 -0.4892 -0.4928
  152MOL0     N20402  -0.554   8.293  -0.329  0.3822 -0.2391  0.4703
  152MOL0     C20403  -0.684   8.272  -0.290 -0.1934 -0.0104  0.7067
  152MOL0     C20404  -0.715   8.150  -0.344 -1.1215 -0.2250 -1.3148
  152MOL0     C20405  -0.857   8.093  -0.340 -1.0674 -0.3695 -0.9254
  152MOL0     C20406  -0.864   8.025  -0.204  0.3419 -0.9938 -0.8964
  152MOL0     C20407  -0.834   7.876  -0.210  0.0153  0.0427 -0.6847
  152MOL0     C20408  -0.835   7.789  -0.088  0.2321 -1.0202 -0.4849
  152MOL0     O20409  -0.812   7.647  -0.114  0.0077 -0.9420 -0.0758
  152MOL0     C20410  -0.780   7.567  -0.012  0.4707  0.3407 -0.7919
  152MOL0     C20411  -0.781   7.424  -0.047 -0.1717 -0.4401 -0.3823
  152MOL0     C20412  -0.705   7.328   0.032 -0.5388 -1.0974  0.4029
  152MOL0     C20413  -0.706   7.191  -0.026 -0.0420 -0.0391  0.0717
  152MOL0     C20414  -0.652   7.370   0.165  0.4107  0.4122  0.4513
  152MOL0     C20415  -0.585   7.284   0.260  0.2108 -0.0765 -0.5755
  152MOL0     O20416  -0.586   7.313   0.395  0.0465 -0.8759 -0.2393
  152MOL0     C20417  -0.493   7.237   0.469 -0.0708 -0.1828  0.4637
  152MOL0     C20418  -0.367   7.290   0.478  0.9255 -0.1142  0.0824
  152MOL0     C20419  -0.263   7.207   0.536  0.1576  0.5093 -0.3572
  152MOL0     C20420  -0.303   7.083   0.593  1.0888  0.3580  0.1652
  152MOL0     O20421  -0.223   7.003   0.667  0.2862 -0.0207  0.2847
  152MOL0     C20422  -0.093   7.051   0.711 -0.3456 -0.4011  0.8236
  152MOL0     C20423  -0.102   7.156   0.830 -0.1640  0.8142 -0.7838
  152MOL0     C20424  -0.138   7.090   0.961 -0.1371 -2.0138 -0.5239
  152MOL0     C20425  -0.275   7.043   0.975 -0.5875  0.8325 -0.1403
  152MOL0     C20426  -0.326   7.033   1.120  0.7500 -0.4387  0.1764
  152MOL0     C20427  -0.473   6.981   1.126  0.3353  0.1511 -0.8612
  152MOL0     C20428  -0.526   6.987   1.265  0.0295  0.8140 -0.3936
  152MOL0     C20429  -0.675   6.948   1.276 -0.2771 -0.4432  0.0556
  152MOL0    Cl20430  -0.774   7.051   1.162  0.1245  0.6204 -0.2426
  152MOL0     C20431  -0.433   7.039   0.579  0.7647 -0.4348 -0.6907
  152MOL0     C20432  -0.535   7.111   0.508 -0.2168 -0.3853  0.2650
  152MOL0     O20433  -0.527   7.182   0.211 -0.9576 -0.1660 -0.3816
  152MOL0     C20434  -0.671   7.499   0.210 -0.7428  0.3996 -0.2273
  152MOL0     C20435  -0.737   7.596   0.122  0.7033 -0.8363  0.8422
  152MOL0     N20436  -0.614   8.115  -0.432  0.5769 -0.5222  0.1640
  152MOL0     N20437  -0.517   8.200  -0.427  0.4341  0.3594 -0.6951
  152MOL0     C20438  -0.001   8.849   0.535  0.1723  0.4886 -0.6575
  152MOL0     C20439   0.142   8.829   0.523 -0.3345 -1.2776  0.1163
  152MOL0     C20440   0.526   8.596   0.545  0.2751  0.5665  0.7073
  152MOL0     C20441   0.556   8.500   0.441 -0.7120 -0.1110 -0.0691
  152MOL0     C20442   0.684   8.484   0.386 -0.3133  0.2784 -0.1779
  152MOL0     C20443   0.785   8.560   0.436 -0.0715 -1.0041  1.0932
  152MOL0     O20444   0.917   8.560   0.386  0.2855 -0.2647 -0.0585
  152MOL0     C20445   0.939   8.482   0.270  0.6089  0.3372 -0.1710
  152MOL0     C20446   1.069   8.519   0.201 -0.7076  0.1984 -1.0304
  152MOL0     C20447   1.191   8.468   0.282  0.4340  0.5364  0.1557
  152MOL0     C20448   1.333   8.520   0.240  0.2543  0.3644 -0.3318
  152MOL0     C20449   1.433   8.422   0.267 -0.6864  0.2874 -0.2231
  152MOL0     C20450   1.523   8.338   0.284 -0.6054  0.5252 -0.7843
  152MOL0     C20451   0.762   8.647   0.539  0.1120  0.0483  0.0540
  152MOL0     C20452   0.636   8.665   0.596 -0.2882 -1.1362 -0.0166
  152MOL0     H20453   0.184   8.639   0.798 -0.4530  0.5224 -0.1888
  152MOL0     H20454  -0.060   8.652   0.804 -0.7460  0.6475 -0.4530
  152MOL0     H20455  -0.262   8.588   0.568 -1.1631 -0.8692  0.8508
  152MOL0     H20456  -0.398   8.702   0.564  0.3029 -0.0149  0.8185
  152MOL0     H20457  -0.271   8.821   0.374 -2.4726  0.3193  1.2004
  152MOL0     H20458  -0.162   8.676   0.359 -0.2619  0.0075  1.3582
  152MOL0     H20459  -0.342   8.526   0.355 -3.0627  0.2244  0.8956
  152MOL0     H20460  -0.458   8.652   0.357 -0.1645 -2.7691 -1.2661
  152MOL0     H20461  -0.397   8.745   0.137 -2.2552 -1.2692 -0.3727
  152MOL0     H20462  -0.257   8.656   0.122 -0.7653  2.0415 -2.1216
  152MOL0     H20463  -0.397   8.438   0.134 -1.6938 -0.7496  0.2925
  152MOL0     H20464  -0.538   8.538   0.124  0.2305 -0.5427  0.3041
  152MOL0     H20465  -0.471   8.620  -0.102 -2.0340  0.1231  0.0906
  152MOL0     H20466  -0.310   8.524  -0.074 -0.5513 -1.9956  0.1327
  152MOL0     H20467  -0.465   8.315  -0.082 -1.3518 -0.5494 -1.8714
  152MOL0     H20468  -0.602   8.423  -0.103  0.6574 -1.3464  0.5059
  152MOL0     H20469  -0.371   8.396  -0.306  1.0613  2.6976  1.4745
  152MOL0     H20470  -0.526   8.490  -0.323 -0.3611 -0.1450  0.7505
  152MOL0     H20471  -0.743   8.327  -0.217 -2.4431 -1.3516 -0.0032
  152MOL0     H20472  -0.925   8.178  -0.347 -0.8674  0.0992  1.5787
  152MOL0     H20473  -0.887   8.018  -0.413 -4.3315  0.2521 -0.4016
  152MOL0     H20474  -0.967   8.045  -0.172  1.5307 -0.0316  2.9018
  152MOL0     H20475  -0.802   8.072  -0.127  0.5335 -1.5620 -0.7009
  152MOL0     H20476  -0.733   7.866  -0.250  0.4938  0.4922  0.3823
  152MOL0     H20477  -0.901   7.825  -0.280  0.0813  0.5617 -1.1380
  152MOL0     H20478  -0.932   7.797  -0.039  0.6379  2.9526 -0.0328
  152MOL0     H20479  -0.756   7.830  -0.025 -0.1858  2.1473 -1.8409
  152MOL0     H20480  -0.823   7.393  -0.142  1.5566 -1.3324 -0.8897
  152MOL0     H20481  -0.627   7.177  -0.100 -0.1305 -0.6777  0.0970
  152MOL0     H20482  -0.709   7.113   0.050 -1.0726 -0.8281 -0.7429
  152MOL0     H20483  -0.805   7.176  -0.071  0.2621  0.6161 -0.8458
  152MOL0     H20484  -0.352   7.390   0.436 -0.8424 -0.1808 -0.7764
  152MOL0     H20485  -0.163   7.248   0.544  1.1849 -1.8918 -0.2394
  152MOL0     H20486  -0.042   6.958   0.738 -0.4993 -0.8778 -0.4314
  152MOL0     H20487  -0.035   7.096   0.629 -0.0071 -3.3274 -0.6771
  152MOL0     H20488  -0.002   7.199   0.843  0.5866 -1.0973  0.2273
  152MOL0     H20489  -0.170   7.234   0.796 -2.4027 -1.7362 -2.6471
  152MOL0     H20490  -0.121   7.165   1.039 -2.6885 -0.8220 -1.0283
  152MOL0     H20491  -0.068   7.007   0.977  2.1127 -1.0773 -4.2726
  152MOL0     H20492  -0.343   7.105   0.916  0.6532  0.0203 -2.5639
  152MOL0     H20493  -0.279   6.945   0.928  1.7078 -0.6827  2.5126
  152MOL0     H20494  -0.316   7.126   1.176  1.0716 -1.7680  2.4567
  152MOL0     H20495  -0.271   6.948   1.162  0.5225 -1.5594 -1.6880
  152MOL0     H20496  -0.529   7.050   1.062 -0.2430  1.4545  0.9727
  152MOL0     H20497  -0.482   6.876   1.097 -2.2193  0.0759  0.0451
  152MOL0     H20498  -0.516   7.090   1.300  1.1779  0.8944 -0.9194
  152MOL0     H20499  -0.474   6.920   1.334 -2.9990  0.8823  2.2350
  152MOL0     H20500  -0.707   6.971   1.378  2.8709  0.1764  1.0231
  152MOL0     H20501  -0.692   6.844   1.247  0.6379 -0.4084 -0.6480
  152MOL0     H20502  -0.442   6.946   0.634  2.0156  0.6527  1.4773
  152MOL0     H20503  -0.638   7.080   0.494 -0.0089 -0.3609 -1.4185
  152MOL0     H20504  -0.643   7.534   0.309  0.7769 -1.7294  0.1782
  152MOL0     H20505  -0.735   7.702   0.144 -0.4041 -0.4477 -0.8065
  152MOL0     H20506  -0.060   8.913   0.469 -0.7533 -0.0779 -0.4008
  152MOL0     H20507   0.198   8.873   0.441 -1.4063 -2.9205 -1.5538
  152MOL0     H20508   0.477   8.441   0.395 -2.2377  3.5211 -2.5186
  152MOL0     H20509   0.701   8.408   0.311 -4.3180 -1.7552  0.6898
  152MOL0     H20510   0.937   8.375   0.289  1.4504  0.6816  2.0824
  152MOL0     H20511   0.863   8.518   0.199 -0.1696 -0.0373  0.4518
  152MOL0     H20512   1.083   8.626   0.185  2.0046 -0.3875 -3.1320
  152MOL0     H20513   1.082   8.468   0.106  3.7108 -0.3550 -0.3311
  152MOL0     H20514   1.184   8.359   0.276 -0.6423  0.5973  0.1563
  152MOL0     H20515   1.169   8.487   0.387  0.1508 -1.7598  0.5851
  152MOL0     H20516   1.350   8.610   0.300 -3.0106  1.3853 -0.7162
  152MOL0     H20517   1.326   8.539   0.133  3.8488 -1.4565 -1.0501
  152MOL0     H20518   1.604   8.268   0.278  0.4760  1.7061 -0.5010
  152MOL0     H20519   0.845   8.711   0.564 -2.4433  3.3105  0.9514
  152MOL0     H20520   0.620   8.733   0.679 -1.3827 -0.2196 -0.9411
  153MOL0     O20521   0.042   4.879   1.880  0.0959 -0.7250  0.2201
  153MOL0     C20522   0.009   4.958   1.792 -0.2468 -0.9236 -0.5204
  153MOL0     O20523  -0.120   4.972   1.741  0.4939 -0.0313 -0.5004
  153MOL0     C20524  -0.234   4.936   1.806  0.7927  0.6719 -0.0733
  153MOL0     C20525  -0.358   4.962   1.735 -0.5013  0.0701 -0.0148
  153MOL0     C20526  -0.489   4.919   1.778 -0.2394  0.8134 -0.6510
  153MOL0     C20527  -0.494   4.858   1.904  0.1939 -0.2321 -0.1177
  153MOL0     O20528  -0.622   4.848   1.953  0.8156 -0.2824  0.4751
  153MOL0     C20529  -0.656   4.797   2.083  0.8872 -0.1383  0.3929
  153MOL0     C20530  -0.797   4.815   2.129  1.0262 -0.3037 -0.8851
  153MOL0     C20531  -0.838   4.962   2.126  0.1140  0.1719 -0.2284
  153MOL0     C20532  -0.989   4.980   2.156 -0.9469  0.1287 -0.4507
  153MOL0     C20533  -1.041   5.128   2.131 -0.0559 -0.0002 -0.2310
  153MOL0     C20534  -1.061   5.151   1.982 -0.1642 -0.1957 -0.0956
  153MOL0     C20535  -1.135   5.278   1.969  0.0500 -0.5557  0.0896
  153MOL0     C20536  -1.239   5.280   1.858 -0.5116  0.5745  0.8724
  153MOL0     N20537  -1.349   5.366   1.892 -0.8530 -0.0121  0.0310
  153MOL0     C20538  -1.335   5.501   1.926 -0.2909  0.5986 -0.6333
  153MOL0     C20539  -1.445   5.540   1.992  0.0389  0.3587 -0.7723
  153MOL0     C20540  -1.467   5.674   2.039 -0.0272 -0.4352  0.5850
  153MOL0     C20541  -1.573   5.677   2.160  0.5600 -0.1277  0.1570
  153MOL0     C20542  -1.719   5.703   2.104 -1.0667  0.2459  0.0417
  153MOL0     C20543  -1.813   5.689   2.224  0.8733 -0.2090 -0.5962
  153MOL0     O20544  -1.926   5.769   2.178  0.8323 -0.6800  0.0846
  153MOL0     C20545  -2.048   5.708   2.142  0.7586 -0.5705  0.0980
  153MOL0     C20546  -2.058   5.578   2.094  0.5900  1.4783 -0.0105
  153MOL0     C20547  -2.172   5.520   2.038  0.0057 -0.9761 -0.1423
  153MOL0     C20548  -2.152   5.388   1.968  0.9751  0.2966 -0.3063
  153MOL0     C20549  -2.288   5.601   2.043  0.3442 -0.1173  0.6867
  153MOL0     C20550  -2.407   5.552   1.977  0.2148  0.2350  0.6492
  153MOL0     O20551  -2.438   5.627   1.862 -0.7246 -0.4111 -0.5963
  153MOL0     C20552  -2.558   5.613   1.793  0.2212 -0.4160  0.4542
  153MOL0     C20553  -2.682   5.590   1.855 -0.1830 -0.6739 -1.0583
  153MOL0     C20554  -2.802   5.606   1.782 -0.2455  0.0891 -1.1289
  153MOL0     C20555  -2.797   5.639   1.649  0.0769  0.0866  0.2583
  153MOL0     O20556  -2.919   5.665   1.593 -0.3310 -0.2401 -0.0833
  153MOL0     C20557  -2.913   5.696   1.453  0.3091  0.5702 -0.1123
  153MOL0     C20558  -3.042   5.661   1.391 -0.4147  0.0739  0.7883
  153MOL0     C20559  -3.025   5.698   1.241  0.6845 -0.1198  0.0783
  153MOL0     C20560  -3.152   5.669   1.178 -0.0068  0.1594  0.4722
  153MOL0     C20561  -3.152   5.722   1.033  0.7927 -0.0919  0.1370
  153MOL0     C20562  -3.293   5.714   0.971  0.2350  0.0972 -0.2212
  153MOL0     C20563  -3.354   5.583   0.954  0.9295  0.0513 -0.2390
  153MOL0     C20564  -3.488   5.589   0.875 -0.6931 -0.5501  0.2976
  153MOL0    Cl20565  -3.621   5.677   0.942  0.4383 -0.1232  0.1389
  153MOL0     C20566  -2.672   5.665   1.590  0.0270  0.7206  1.0645
  153MOL0     C20567  -2.552   5.657   1.664  0.2913 -0.0551  0.8509
  153MOL0     O20568  -2.460   5.442   2.007  0.6941 -0.2096  0.1664
  153MOL0     C20569  -2.289   5.727   2.106 -0.6884 -0.1098  0.6114
  153MOL0     C20570  -2.171   5.781   2.147  0.4292 -1.2208  0.0925
  153MOL0     N20571  -1.526   5.427   1.984  0.4916  0.0319  0.0506
  153MOL0     N20572  -1.466   5.324   1.933  0.5997 -1.0705  0.0074
  153MOL0     C20573  -0.376   4.832   1.983  0.2576  0.2231  0.6958
  153MOL0     C20574  -0.247   4.871   1.930 -0.2690 -1.3957  0.6921
  153MOL0     C20575   0.112   5.045   1.748 -0.4691 -0.5782  0.3205
  153MOL0     C20576   0.253   5.027   1.779 -0.9805 -0.3266  0.9086
  153MOL0     C20577   0.350   5.119   1.726 -0.3901 -0.6883 -0.2640
  153MOL0     C20578   0.308   5.232   1.648  0.1631  1.0072 -0.0410
  153MOL0     O20579   0.393   5.316   1.585  0.3595 -0.6233  0.3225
  153MOL0     C20580   0.453   5.255   1.467  0.4969  0.4181  0.0537
  153MOL0     C20581   0.493   5.365   1.379 -1.5359 -0.4331  0.6938
  153MOL0     C20582   0.555   5.318   1.237 -0.1450  0.1211  0.4048
  153MOL0     C20583   0.700   5.260   1.235 -0.6037  1.0013 -0.1150
  153MOL0     C20584   0.809   5.364   1.264 -0.3196  1.0046 -0.7213
  153MOL0     C20585   0.874   5.460   1.278  0.0202 -0.5843  0.5244
  153MOL0     C20586   0.171   5.254   1.623 -0.2293  0.9428  0.2408
  153MOL0     C20587   0.077   5.165   1.682  0.5723 -0.1525  0.1662
  153MOL0     H20588  -0.356   5.021   1.644  0.3665  0.7624  0.4306
  153MOL0     H20589  -0.581   4.948   1.728  0.4616  2.7954 -0.8776
  153MOL0     H20590  -0.626   4.692   2.090  2.1185  0.3098  2.4500
  153MOL0     H20591  -0.602   4.847   2.164 -0.3290  1.4167  0.3100
  153MOL0     H20592  -0.869   4.760   2.068 -0.1997  0.0544  0.1702
  153MOL0     H20593  -0.816   4.772   2.228 -0.2317  0.7092 -0.6456
  153MOL0     H20594  -0.775   5.013   2.200  1.3233 -2.9192  1.0320
  153MOL0     H20595  -0.822   5.014   2.031  0.3787  2.5846  1.0569
  153MOL0     H20596  -1.062   4.918   2.103 -2.0534 -0.6548  1.8431
  153MOL0     H20597  -1.009   4.948   2.258  0.4863  1.3795  0.2626
  153MOL0     H20598  -1.124   5.148   2.199  0.3313 -1.6496  0.7768
  153MOL0     H20599  -0.955   5.189   2.162  1.6516 -2.0848 -0.6089
  153MOL0     H20600  -0.965   5.146   1.930 -1.8961  1.5245 -3.8377
  153MOL0     H20601  -1.131   5.070   1.958 -2.5957  1.9841 -0.8853
  153MOL0     H20602  -1.183   5.305   2.063  1.6684  1.9466  0.2846
  153MOL0     H20603  -1.062   5.357   1.948 -0.4769 -0.7136 -2.8898
  153MOL0     H20604  -1.278   5.180   1.837  0.6945  0.4058 -0.7689
  153MOL0     H20605  -1.192   5.313   1.765  0.7954 -1.4465  0.7473
  153MOL0     H20606  -1.255   5.567   1.893 -0.0691  1.0725  0.7820
  153MOL0     H20607  -1.370   5.707   2.077  0.4082 -1.4541  0.3763
  153MOL0     H20608  -1.494   5.716   1.942 -0.7866 -4.6042 -1.2122
  153MOL0     H20609  -1.555   5.758   2.231  3.8127  0.5092 -1.1919
  153MOL0     H20610  -1.568   5.585   2.218  1.8096 -0.6998 -0.7957
  153MOL0     H20611  -1.751   5.627   2.032  1.1432  0.7641 -1.5630
  153MOL0     H20612  -1.728   5.804   2.062  0.2102  0.4210  0.1635
  153MOL0     H20613  -1.779   5.731   2.318 -2.6146 -0.2807  0.8408
  153MOL0     H20614  -1.833   5.584   2.247  2.3976 -0.1789  1.0435
  153MOL0     H20615  -1.967   5.518   2.093  2.1497  3.6823 -1.6734
  153MOL0     H20616  -2.131   5.313   2.044 -0.2381  0.2510  0.0144
  153MOL0     H20617  -2.244   5.352   1.920  0.4846  0.9631  0.1044
  153MOL0     H20618  -2.084   5.399   1.883  1.9797  2.6137  0.7053
  153MOL0     H20619  -2.694   5.564   1.960 -2.1596  1.3981 -0.7099
  153MOL0     H20620  -2.897   5.585   1.831  0.2731  1.9628  0.8515
  153MOL0     H20621  -2.892   5.802   1.441  0.0132  0.8799  1.7655
  153MOL0     H20622  -2.841   5.635   1.399  0.2406 -0.7029  1.1597
  153MOL0     H20623  -3.061   5.554   1.398 -1.0420  0.2152  1.3853
  153MOL0     H20624  -3.122   5.709   1.450  0.5986  0.1152  2.1766
  153MOL0     H20625  -2.943   5.650   1.187  1.0430 -1.3029  1.5777
  153MOL0     H20626  -3.007   5.805   1.230 -2.3950  0.2054 -3.8972
  153MOL0     H20627  -3.186   5.565   1.179 -0.7840  0.4090  0.6112
  153MOL0     H20628  -3.228   5.723   1.235  1.3687  1.6773  0.9295
  153MOL0     H20629  -3.075   5.670   0.976  4.4630  2.2447  2.5852
  153MOL0     H20630  -3.124   5.827   1.037  0.7108 -0.0980  1.2153
  153MOL0     H20631  -3.362   5.770   1.034  0.9168  1.0999 -0.3462
  153MOL0     H20632  -3.274   5.759   0.873  0.8636  1.0530  0.3261
  153MOL0     H20633  -3.376   5.548   1.055 -1.8219  1.2071 -0.3606
  153MOL0     H20634  -3.285   5.516   0.900  3.9687  1.9180  1.0564
  153MOL0     H20635  -3.510   5.482   0.871  2.4964 -1.3494  0.7125
  153MOL0     H20636  -3.465   5.620   0.773  3.5598 -1.6554  0.7043
  153MOL0     H20637  -2.653   5.694   1.487 -3.3909 -1.1817 -0.2977
  153MOL0     H20638  -2.456   5.669   1.615  0.1026  3.0121  1.0493
  153MOL0     H20639  -2.370   5.798   2.106 -0.0882  0.5904  0.4086
  153MOL0     H20640  -2.144   5.883   2.172  2.2140 -1.4668 -0.6540
  153MOL0     H20641  -0.378   4.805   2.088 -1.0217 -0.5049  0.5011
  153MOL0     H20642  -0.162   4.837   1.988  0.5717 -2.1706 -0.9331
  153MOL0     H20643   0.277   4.931   1.824 -2.7422 -2.7691 -2.8274
  153MOL0     H20644   0.457   5.106   1.739 -0.7321 -3.7355  0.3158
  153MOL0     H20645   0.547   5.210   1.501  0.0019 -0.8297 -0.1933
  153MOL0     H20646   0.408   5.165   1.425 -0.1387  1.5525 -1.8185
  153MOL0     H20647   0.570   5.422   1.431 -1.5937 -0.0452  0.3527
  153MOL0     H20648   0.411   5.433   1.354 -0.8119  0.7643  1.4854
  153MOL0     H20649   0.567   5.403   1.170  0.9926  1.0289  1.7001
  153MOL0     H20650   0.481   5.249   1.197  0.5171 -1.4205  1.7142
  153MOL0     H20651   0.715   5.216   1.136 -3.3501  0.6126 -0.4370
  153MOL0     H20652   0.706   5.178   1.307  1.5108  0.3986 -0.9090
  153MOL0     H20653   0.936   5.547   1.284 -0.6900 -0.1873  3.0055
  153MOL0     H20654   0.140   5.334   1.557  1.2234  0.6385 -0.8754
  153MOL0     H20655  -0.027   5.178   1.655  0.2695  0.3445  1.5338
  154MOL0     O20656   4.449   1.439  10.063 -0.3282  0.2328 -0.0184
  154MOL0     C20657   4.507   1.360  10.143  0.5280 -0.1538  0.4921
  154MOL0     O20658   4.453   1.301  10.249  0.5651 -0.7414  0.0978
  154MOL0     C20659   4.313   1.305  10.253  0.4572 -0.2604 -0.5389
  154MOL0     C20660   4.238   1.220  10.170 -0.2448 -0.3702  0.6831
  154MOL0     C20661   4.102   1.224  10.170  1.3132  0.5925 -0.2647
  154MOL0     C20662   4.038   1.312  10.259  0.0227  0.2040  0.1244
  154MOL0     O20663   3.900   1.310  10.268  0.1254 -0.3672 -0.5332
  154MOL0     C20664   3.818   1.253  10.157 -0.1423 -0.1295  0.4806
  154MOL0     C20665   3.671   1.294  10.178  0.2342 -0.4192  0.7522
  154MOL0     C20666   3.588   1.165  10.198 -0.4438 -0.6932  2.0626
  154MOL0     C20667   3.446   1.208  10.225  0.3613 -0.7622  0.0934
  154MOL0     C20668   3.347   1.087  10.245  0.5258  0.5652  0.7860
  154MOL0     C20669   3.212   1.134  10.300  0.0839 -0.4998  0.5876
  154MOL0     C20670   3.112   1.020  10.303 -0.2964  0.4746 -0.7627
  154MOL0     C20671   2.982   1.076  10.360 -0.0660  0.2025  0.8017
  154MOL0     N20672   2.885   0.975  10.390 -0.6085  0.4965 -1.2207
  154MOL0     C20673   2.837   0.968  10.515  1.1988  0.1209  0.2799
  154MOL0     C20674   2.741   0.870  10.501  0.7011  0.7166  0.0904
  154MOL0     C20675   2.631   0.828  10.602 -0.0989 -0.3849  0.6232
  154MOL0     C20676   2.673   0.712  10.689  0.7171 -0.7664  0.0947
  154MOL0     C20677   2.628   0.584  10.624  0.4155 -0.3904 -0.2106
  154MOL0     C20678   2.477   0.570  10.593  0.0616  0.1896  0.5335
  154MOL0     O20679   2.386   0.654  10.661 -0.2704 -0.0605 -0.3918
  154MOL0     C20680   2.331   0.623  10.784  0.1742 -1.6657 -0.0102
  154MOL0     C20681   2.371   0.512  10.859 -0.1017 -0.4851 -0.2010
  154MOL0     C20682   2.292   0.476  10.971  0.8768  0.1341 -0.4196
  154MOL0     C20683   2.332   0.355  11.052 -0.1331  0.3205  0.0727
  154MOL0     C20684   2.176   0.548  11.006 -0.7315  0.0655  0.5949
  154MOL0     C20685   2.076   0.532  11.119  1.2899  0.1209 -0.0115
  154MOL0     O20686   1.943   0.578  11.102  0.1580  0.6201  0.1676
  154MOL0     C20687   1.828   0.508  11.135  0.5846 -0.0779 -0.5576
  154MOL0     C20688   1.714   0.583  11.125 -0.4170 -0.3749 -0.1263
  154MOL0     C20689   1.589   0.534  11.162  0.5166  0.8788 -0.5263
  154MOL0     C20690   1.566   0.397  11.199 -0.5450  1.3270 -0.1908
  154MOL0     O20691   1.436   0.362  11.233 -0.3951 -0.6263  0.2307
  154MOL0     C20692   1.401   0.228  11.270  0.3761 -0.3685  0.1568
  154MOL0     C20693   1.252   0.215  11.303 -1.0157  0.0962  0.7233
  154MOL0     C20694   1.206   0.105  11.398 -0.3220 -0.2580  0.3295
  154MOL0     C20695   1.256  -0.036  11.373 -0.3757  0.0076  0.3941
  154MOL0     C20696   1.185  -0.133  11.462 -0.5377  0.6922 -0.4103
  154MOL0     C20697   1.040  -0.167  11.407 -0.4914 -0.0381 -0.2053
  154MOL0     C20698   0.963  -0.251  11.515 -0.3955 -0.1429 -0.2408
  154MOL0     C20699   0.838  -0.311  11.451 -0.2718 -0.4228  0.3570
  154MOL0    Cl20700   0.714  -0.202  11.450  0.4312 -0.5585 -0.1891
  154MOL0     C20701   1.686   0.318  11.211 -0.0077 -0.0746 -0.6377
  154MOL0     C20702   1.816   0.372  11.180  0.1444 -0.0298 -0.1118
  154MOL0     O20703   2.103   0.453  11.212 -0.0961 -0.3898 -0.7476
  154MOL0     C20704   2.144   0.664  10.938 -0.1127 -0.0715  0.0914
  154MOL0     C20705   2.221   0.706  10.829  0.7262  0.3968 -0.1151
  154MOL0     N20706   2.761   0.810  10.376  0.2390  0.7617 -0.1005
  154MOL0     N20707   2.846   0.876  10.316 -0.3637  0.4985 -0.1499
  154MOL0     C20708   4.111   1.384  10.354  0.3414  0.1622 -0.2661
  154MOL0     C20709   4.246   1.376  10.354  0.1032 -0.4193 -0.0128
  154MOL0     C20710   4.641   1.328  10.117 -0.4959  0.3770  1.3853
  154MOL0     C20711   4.700   1.347   9.989 -0.1888  0.5693 -1.0827
  154MOL0     C20712   4.832   1.328   9.969 -0.4765  0.3158 -0.1942
  154MOL0     C20713   4.916   1.285  10.075  0.2879  0.5761 -0.2979
  154MOL0     O20714   5.053   1.294  10.040  0.0980 -0.3077 -0.5794
  154MOL0     C20715   5.142   1.246  10.144 -0.2181  0.3476 -0.2387
  154MOL0     C20716   5.168   1.095  10.126 -0.2147  0.1581  0.1141
  154MOL0     C20717   5.207   1.080   9.984  0.4509  0.1834  0.0717
  154MOL0     C20718   5.259   0.935   9.940 -0.1273 -0.9604 -0.5618
  154MOL0     C20719   5.397   0.911   9.985  0.5544 -0.3546 -0.2012
  154MOL0     C20720   5.505   0.890  10.037  0.4921  0.3967  0.1238
  154MOL0     C20721   4.861   1.254  10.198  0.2368  0.1160  0.7128
  154MOL0     C20722   4.720   1.263  10.215 -0.4924 -0.5023 -0.0057
  154MOL0     H20723   4.287   1.143  10.111 -2.7078 -0.7445 -1.0596
  154MOL0     H20724   4.036   1.168  10.104 -3.3384  4.2265  0.6957
  154MOL0     H20725   3.849   1.306  10.066  1.0964  2.1444  2.1250
  154MOL0     H20726   3.825   1.144  10.156 -0.6243 -0.1746 -1.1883
  154MOL0     H20727   3.672   1.343  10.276  0.9274  1.3751 -0.1034
  154MOL0     H20728   3.634   1.363  10.102 -0.9674 -0.9782  0.8063
  154MOL0     H20729   3.594   1.103  10.109  0.9357 -1.0542  2.3863
  154MOL0     H20730   3.626   1.108  10.284 -2.6761 -0.3793  3.3306
  154MOL0     H20731   3.447   1.274  10.312  1.7630  0.0703 -0.5111
  154MOL0     H20732   3.404   1.269  10.144 -0.7476  0.5367  1.5691
  154MOL0     H20733   3.342   1.032  10.150  0.5674  3.3338 -0.9282
  154MOL0     H20734   3.396   1.015  10.312  2.0945  0.7716 -0.0816
  154MOL0     H20735   3.227   1.172  10.401  2.8956  2.6222 -0.7908
  154MOL0     H20736   3.183   1.215  10.232 -1.2517 -2.8745 -1.8440
  154MOL0     H20737   3.098   0.968  10.207 -0.9081  1.1173 -1.0292
  154MOL0     H20738   3.158   0.942  10.364  0.0314  0.6444 -0.7919
  154MOL0     H20739   2.927   1.135  10.287  0.4528  1.4156  1.3683
  154MOL0     H20740   2.998   1.159  10.430 -3.2814  1.7840 -0.1425
  154MOL0     H20741   2.855   1.056  10.577 -0.1428  1.8523 -1.6299
  154MOL0     H20742   2.608   0.916  10.662 -1.0715 -0.4732  0.4002
  154MOL0     H20743   2.535   0.814  10.551 -1.7886  1.8900  2.9445
  154MOL0     H20744   2.624   0.721  10.786  0.9832 -1.8329  0.3359
  154MOL0     H20745   2.780   0.703  10.709  0.8504  0.0780 -0.1937
  154MOL0     H20746   2.658   0.498  10.685 -0.7580  0.0854  1.1091
  154MOL0     H20747   2.678   0.573  10.528  1.7730 -2.5871  0.6543
  154MOL0     H20748   2.443   0.469  10.620 -3.3143  1.5676  2.0145
  154MOL0     H20749   2.469   0.579  10.484  1.4275  0.2804  0.4251
  154MOL0     H20750   2.462   0.459  10.833  1.3095  1.8311 -0.1969
  154MOL0     H20751   2.252   0.280  11.058  1.6521 -1.5419  2.9403
  154MOL0     H20752   2.420   0.308  11.007  0.6010  1.2400  0.5063
  154MOL0     H20753   2.350   0.389  11.155 -0.4958  2.1970 -0.4511
  154MOL0     H20754   1.724   0.686  11.093  2.4139 -0.1588  1.1466
  154MOL0     H20755   1.502   0.598  11.151  0.8881  1.7239  1.1627
  154MOL0     H20756   1.420   0.159  11.187  0.8095  0.5646 -0.5458
  154MOL0     H20757   1.469   0.201  11.352  0.4243  3.3189  1.5538
  154MOL0     H20758   1.232   0.315  11.341 -0.7164  0.4781 -0.0931
  154MOL0     H20759   1.205   0.204  11.204  0.7995 -2.0154  0.0205
  154MOL0     H20760   1.100   0.116  11.425 -0.0252  1.4844  0.8970
  154MOL0     H20761   1.247   0.132  11.495 -0.9089  0.6359  0.3417
  154MOL0     H20762   1.244  -0.060  11.267  0.3268  1.6210 -0.0848
  154MOL0     H20763   1.362  -0.042  11.395  0.2176 -1.9028 -2.4248
  154MOL0     H20764   1.169  -0.095  11.563  1.9000  0.0540  0.2922
  154MOL0     H20765   1.237  -0.229  11.467  2.7789  2.2705 -1.2258
  154MOL0     H20766   0.989  -0.075  11.377 -2.0644 -0.7983  0.0396
  154MOL0     H20767   1.061  -0.222  11.315 -2.3400  1.0756 -1.3682
  154MOL0     H20768   0.944  -0.188  11.602  1.1810 -1.2234  0.9310
  154MOL0     H20769   1.016  -0.338  11.553 -0.6272  0.8861  2.6353
  154MOL0     H20770   0.823  -0.402  11.509  1.8586 -0.5019  0.8334
  154MOL0     H20771   0.849  -0.344  11.348 -0.5833  0.8136 -0.0957
  154MOL0     H20772   1.693   0.216  11.248  1.7059  0.4663  0.6400
  154MOL0     H20773   1.913   0.325  11.195  0.6016  1.5177  2.4010
  154MOL0     H20774   2.060   0.731  10.951  1.8239  2.7494 -1.0049
  154MOL0     H20775   2.177   0.781  10.764  0.8186  0.4751 -0.0867
  154MOL0     H20776   4.068   1.457  10.423  2.0527 -1.0078  2.1843
  154MOL0     H20777   4.294   1.443  10.424 -1.4589 -0.9770  1.6482
  154MOL0     H20778   4.639   1.394   9.913  2.7458  3.6104 -1.7431
  154MOL0     H20779   4.881   1.353   9.875 -0.1191 -1.9554 -0.6939
  154MOL0     H20780   5.236   1.300  10.133  1.0221 -1.0478  2.4141
  154MOL0     H20781   5.112   1.259  10.249 -1.6119 -1.9286 -0.2978
  154MOL0     H20782   5.086   1.026  10.147  0.3368 -0.9673 -1.2348
  154MOL0     H20783   5.248   1.052  10.187 -1.8455 -2.0737  0.8221
  154MOL0     H20784   5.284   1.150   9.948 -1.1136  1.0476 -1.8226
  154MOL0     H20785   5.120   1.099   9.920  0.8859 -0.9302 -0.8811
  154MOL0     H20786   5.259   0.934   9.831 -1.2576  3.3968 -0.7798
  154MOL0     H20787   5.195   0.857   9.983  0.3364 -0.7152  0.6398
  154MOL0     H20788   5.606   0.881  10.072  1.2461  1.9397 -1.4710
  154MOL0     H20789   4.920   1.221  10.283  0.5027  3.0699  1.7759
  154MOL0     H20790   4.687   1.239  10.315  2.5341  1.3311  1.5813
  155MOL0     O20791   5.439   6.968   5.039 -0.5778  0.2453 -1.5339
  155MOL0     C20792   5.473   6.871   4.982 -0.6446  0.4979 -0.4830
  155MOL0     O20793   5.398   6.769   4.931  0.3030 -0.0759 -0.0492
  155MOL0     C20794   5.262   6.778   4.948  0.3383  0.4507  0.4993
  155MOL0     C20795   5.200   6.825   5.063 -0.4893 -0.0964 -0.4467
  155MOL0     C20796   5.059   6.829   5.071 -0.6698 -0.5454  0.1561
  155MOL0     C20797   4.984   6.797   4.957 -0.1093 -0.9833 -0.7538
  155MOL0     O20798   4.852   6.837   4.972  0.5221  0.0618 -0.3444
  155MOL0     C20799   4.766   6.807   4.860 -0.5389 -0.5837  0.3668
  155MOL0     C20800   4.626   6.858   4.888  0.3646 -0.0209 -0.4740
  155MOL0     C20801   4.556   6.765   4.981  0.3390  0.1009 -0.6191
  155MOL0     C20802   4.407   6.807   4.999  0.0359  0.2597 -0.2435
  155MOL0     C20803   4.380   6.955   5.017  0.7469 -0.1601  0.6644
  155MOL0     C20804   4.424   7.009   5.154  0.3696 -1.0528  0.1435
  155MOL0     C20805   4.392   7.153   5.165 -0.6175 -0.3816 -0.4596
  155MOL0     C20806   4.236   7.182   5.165 -0.1754 -0.0751  0.5418
  155MOL0     N20807   4.198   7.298   5.081  0.7786 -0.0729 -0.2876
  155MOL0     C20808   4.243   7.427   5.112 -0.0121  0.6815 -0.4195
  155MOL0     C20809   4.211   7.505   5.003  0.2338  0.4796 -0.0032
  155MOL0     C20810   4.261   7.646   4.987  0.8552 -0.1311  0.0139
  155MOL0     C20811   4.182   7.751   5.068 -0.1908 -0.2395 -0.6157
  155MOL0     C20812   4.032   7.768   5.036  0.2916 -0.0480  1.1874
  155MOL0     C20813   3.974   7.892   5.094  0.5149 -0.2711 -0.5874
  155MOL0     O20814   3.843   7.916   5.040  0.2993  0.0020  0.8189
  155MOL0     C20815   3.750   8.007   5.099 -0.5645  0.1728  0.3372
  155MOL0     C20816   3.619   8.013   5.056 -0.0909  1.2504 -0.5154
  155MOL0     C20817   3.533   8.112   5.103 -0.3939  0.5331 -0.2180
  155MOL0     C20818   3.387   8.092   5.066  1.4944 -0.0340  0.4520
  155MOL0     C20819   3.577   8.210   5.194 -0.4360 -1.3340 -0.3431
  155MOL0     C20820   3.484   8.314   5.246 -0.1352 -1.0288 -0.0879
  155MOL0     O20821   3.537   8.439   5.277  0.5230 -0.5174 -0.2528
  155MOL0     C20822   3.461   8.552   5.274 -1.0715  0.0281 -0.3100
  155MOL0     C20823   3.339   8.574   5.209 -0.2166  0.1981 -0.2944
  155MOL0     C20824   3.275   8.697   5.229 -0.5398  0.3564  0.4089
  155MOL0     C20825   3.325   8.795   5.319  0.4062  0.3748 -0.0257
  155MOL0     O20826   3.244   8.903   5.346 -0.4896 -1.0548 -0.4555
  155MOL0     C20827   3.269   8.985   5.458 -0.1916  0.5345 -0.0535
  155MOL0     C20828   3.142   9.053   5.518  0.2999  0.1537  0.6416
  155MOL0     C20829   3.197   9.123   5.650  0.5401  0.5678  0.6314
  155MOL0     C20830   3.104   9.245   5.684 -0.0259 -0.0074  0.3782
  155MOL0     C20831   3.136   9.294   5.821  0.1681  0.1618 -0.3203
  155MOL0     C20832   3.073   9.436   5.845 -0.7446 -0.2571 -0.3727
  155MOL0     C20833   3.140   9.501   5.976  0.0028  0.0163  0.7441
  155MOL0     C20834   3.038   9.481   6.084 -0.4879 -0.2365 -0.7261
  155MOL0    Cl20835   2.900   9.595   6.057 -0.2597 -0.0907  0.0253
  155MOL0     C20836   3.451   8.777   5.373  0.5408  0.5932  0.4958
  155MOL0     C20837   3.518   8.654   5.351  0.5482 -0.1910  0.2370
  155MOL0     O20838   3.363   8.296   5.244 -0.2790  0.4522 -0.3852
  155MOL0     C20839   3.713   8.205   5.240  0.4059  0.0467 -0.7441
  155MOL0     C20840   3.790   8.099   5.201  0.3376 -0.4436 -0.3404
  155MOL0     N20841   4.132   7.428   4.915  0.6343 -0.5341  0.5275
  155MOL0     N20842   4.131   7.307   4.962  0.4664  0.9961 -0.3638
  155MOL0     C20843   5.046   6.749   4.840  0.2218 -0.4097 -0.0039
  155MOL0     C20844   5.190   6.730   4.843  0.9761 -0.2862 -0.1999
  155MOL0     C20845   5.619   6.862   4.954 -0.4153 -0.0899  0.1614
  155MOL0     C20846   5.660   6.794   4.837  0.0604 -0.1168  0.2324
  155MOL0     C20847   5.797   6.793   4.793 -0.4288 -0.5185 -0.3107
  155MOL0     C20848   5.891   6.847   4.874 -0.0832 -1.1333  0.7395
  155MOL0     O20849   6.021   6.830   4.825 -0.1832  0.3964 -0.4579
  155MOL0     C20850   6.116   6.867   4.922 -0.1378 -0.2265  0.3228
  155MOL0     C20851   6.138   6.769   5.040  0.1497  0.2235 -0.8162
  155MOL0     C20852   6.276   6.780   5.095 -0.2712  0.4328 -0.4312
  155MOL0     C20853   6.299   6.703   5.234  0.2668 -0.8001  0.0125
  155MOL0     C20854   6.278   6.566   5.223 -0.4301 -0.6000 -0.1433
  155MOL0     C20855   6.265   6.449   5.218  0.8060 -0.3805 -0.8115
  155MOL0     C20856   5.853   6.923   4.995  0.7623 -0.7294  0.4854
  155MOL0     C20857   5.718   6.934   5.029 -0.5630 -0.3102  0.4157
  155MOL0     H20858   5.259   6.862   5.146 -0.3542  0.9914 -1.0066
  155MOL0     H20859   5.011   6.885   5.151 -1.3718 -1.4133  0.3714
  155MOL0     H20860   4.798   6.860   4.770  1.2252 -1.1919  0.6087
  155MOL0     H20861   4.761   6.701   4.833  1.2144 -0.2281 -1.6214
  155MOL0     H20862   4.630   6.955   4.937  0.4606 -0.9741  1.4759
  155MOL0     H20863   4.569   6.868   4.795  0.8852  0.6774 -0.7235
  155MOL0     H20864   4.557   6.663   4.941 -0.1223 -0.0722 -0.1934
  155MOL0     H20865   4.607   6.769   5.077 -0.4482 -0.5199 -0.1604
  155MOL0     H20866   4.372   6.767   4.904 -1.2273  0.7830 -0.0246
  155MOL0     H20867   4.365   6.743   5.077  1.5604 -0.2198  0.2088
  155MOL0     H20868   4.427   7.009   4.933  1.3732 -1.4980  0.1329
  155MOL0     H20869   4.273   6.976   5.002  0.4424 -2.1232 -0.2590
  155MOL0     H20870   4.375   6.949   5.232 -1.0302 -1.9728 -1.3759
  155MOL0     H20871   4.531   6.990   5.163  0.8418 -0.2527 -2.9155
  155MOL0     H20872   4.429   7.183   5.263 -2.7458  0.5305  0.1187
  155MOL0     H20873   4.437   7.216   5.088  0.1025  2.6090  2.2355
  155MOL0     H20874   4.211   7.205   5.269 -1.2218  0.0050  0.2866
  155MOL0     H20875   4.173   7.098   5.135 -2.0357  0.2901  3.1438
  155MOL0     H20876   4.292   7.460   5.204  3.4542 -1.5612 -1.3004
  155MOL0     H20877   4.364   7.648   5.023  0.9955  3.4089 -0.2341
  155MOL0     H20878   4.262   7.674   4.882 -1.0826  1.3284  0.3181
  155MOL0     H20879   4.231   7.846   5.046 -0.4287 -0.1497 -0.7520
  155MOL0     H20880   4.189   7.725   5.174 -2.4401  0.9123 -0.1185
  155MOL0     H20881   3.969   7.685   5.068 -3.6067  3.2934  3.0521
  155MOL0     H20882   4.017   7.779   4.928 -1.2687 -0.7971  1.3099
  155MOL0     H20883   4.039   7.977   5.076  0.7974 -0.4036 -0.2131
  155MOL0     H20884   3.956   7.878   5.201 -0.1345 -0.1185 -0.6754
  155MOL0     H20885   3.581   7.945   4.980 -1.1346  1.0148  0.1873
  155MOL0     H20886   3.335   8.183   5.035 -0.1042 -1.5244 -1.5918
  155MOL0     H20887   3.373   8.025   4.980  0.1900  0.0101  0.6086
  155MOL0     H20888   3.331   8.059   5.154 -0.9355 -0.7193 -1.2158
  155MOL0     H20889   3.298   8.498   5.143  1.8727 -0.0615 -1.4156
  155MOL0     H20890   3.174   8.707   5.188  0.0440  0.8244 -0.9656
  155MOL0     H20891   3.313   8.922   5.536 -3.2836  0.3260  1.6824
  155MOL0     H20892   3.348   9.057   5.434 -0.0829  1.3585  2.4252
  155MOL0     H20893   3.097   9.127   5.451  2.0587  0.9368  0.2795
  155MOL0     H20894   3.064   8.977   5.534 -0.1014  0.4567  0.1494
  155MOL0     H20895   3.299   9.161   5.642  1.5047 -1.9163  0.2483
  155MOL0     H20896   3.196   9.053   5.734  1.2609  1.0092  1.0150
  155MOL0     H20897   3.104   9.316   5.601 -0.2173 -0.6099 -0.1416
  155MOL0     H20898   3.002   9.204   5.685 -0.8793  1.9599 -0.9016
  155MOL0     H20899   3.245   9.298   5.830  0.2851 -1.8797 -0.2786
  155MOL0     H20900   3.099   9.222   5.895  2.7443 -2.1169 -1.1122
  155MOL0     H20901   3.091   9.492   5.753 -1.6623 -0.6753 -0.8167
  155MOL0     H20902   2.966   9.418   5.854 -0.9751  1.6964  1.5014
  155MOL0     H20903   3.167   9.605   5.960  4.8216 -0.9947  0.9811
  155MOL0     H20904   3.234   9.452   6.002 -0.1249 -0.8340 -0.2820
  155MOL0     H20905   3.082   9.509   6.181  1.3077 -3.4917 -0.4671
  155MOL0     H20906   3.015   9.377   6.110  4.2275 -1.3194  0.0685
  155MOL0     H20907   3.507   8.850   5.430  0.2105  1.5348 -0.3734
  155MOL0     H20908   3.616   8.630   5.390 -0.0040 -2.3395  0.4251
  155MOL0     H20909   3.765   8.283   5.296  1.0152  0.1609 -1.4435
  155MOL0     H20910   3.892   8.094   5.237  0.8183 -0.2692 -1.6289
  155MOL0     H20911   4.986   6.731   4.751 -2.5761 -0.6181  1.7989
  155MOL0     H20912   5.232   6.688   4.752  0.0993  2.5628 -2.0741
  155MOL0     H20913   5.581   6.746   4.782 -1.0320 -1.1119  2.5613
  155MOL0     H20914   5.817   6.740   4.700  0.2087  1.9031 -1.6220
  155MOL0     H20915   6.207   6.871   4.862  0.5848  4.1159  1.3596
  155MOL0     H20916   6.088   6.971   4.945  1.1161 -0.1990  1.8792
  155MOL0     H20917   6.116   6.665   5.014 -0.8585 -0.0624  0.9978
  155MOL0     H20918   6.064   6.783   5.120 -2.8730 -1.0670 -3.1808
  155MOL0     H20919   6.298   6.886   5.107 -0.6529  0.6175 -1.3033
  155MOL0     H20920   6.356   6.749   5.027 -0.8227 -0.3237 -0.7536
  155MOL0     H20921   6.228   6.744   5.307 -1.2931  0.9820 -2.3675
  155MOL0     H20922   6.399   6.718   5.276  0.3500 -1.5803  0.1041
  155MOL0     H20923   6.248   6.344   5.205 -1.0127  0.1111 -3.1944
  155MOL0     H20924   5.931   6.957   5.063 -0.1260 -0.6405  1.4835
  155MOL0     H20925   5.702   7.009   5.105  1.2454  1.4056 -0.7956
  156MOL0     O20926   7.803   4.713   4.346  0.8601  0.6360 -0.4752
  156MOL0     C20927   7.832   4.635   4.436  0.0452  0.3594 -0.9028
  156MOL0     O20928   7.751   4.547   4.493  0.1748 -0.4485  0.3866
  156MOL0     C20929   7.630   4.507   4.439 -1.0030 -0.6038  0.4445
  156MOL0     C20930   7.526   4.484   4.529  0.3552  0.5108 -0.3804
  156MOL0     C20931   7.406   4.436   4.472  0.1360 -0.5482 -0.0358
  156MOL0     C20932   7.389   4.413   4.331 -0.4413  0.4221 -0.5336
  156MOL0     O20933   7.271   4.357   4.296 -0.1122 -0.1920  0.4058
  156MOL0     C20934   7.212   4.366   4.166 -0.4570  0.3022  0.0860
  156MOL0     C20935   7.068   4.328   4.171  0.7258 -0.0291 -0.9042
  156MOL0     C20936   6.990   4.351   4.038  0.3790 -0.2808  1.0410
  156MOL0     C20937   6.837   4.342   4.048 -0.5882  0.0087  0.5132
  156MOL0     C20938   6.789   4.364   3.907  1.5938 -0.7481 -0.1547
  156MOL0     C20939   6.633   4.331   3.900 -0.3442  0.3428  0.4180
  156MOL0     C20940   6.569   4.386   3.768 -0.1753 -0.6198 -0.0636
  156MOL0     C20941   6.562   4.538   3.782  0.1426 -0.1694 -0.3046
  156MOL0     N20942   6.473   4.596   3.675 -1.4168  0.0520  0.4940
  156MOL0     C20943   6.475   4.562   3.540 -0.1585  0.1074 -1.1166
  156MOL0     C20944   6.427   4.676   3.481  0.1034  0.3575  0.4917
  156MOL0     C20945   6.389   4.696   3.339 -0.0317 -0.2051 -0.6097
  156MOL0     C20946   6.413   4.844   3.305  0.6320  0.3511  0.8098
  156MOL0     C20947   6.392   4.877   3.157  0.0121 -0.5138 -0.5491
  156MOL0     C20948   6.244   4.868   3.107  0.1639 -0.3692 -0.0274
  156MOL0     O20949   6.163   4.952   3.193  0.1329 -1.2786 -0.4467
  156MOL0     C20950   6.025   4.948   3.170  0.4084 -0.0235 -0.2380
  156MOL0     C20951   5.953   5.014   3.272 -0.0172 -0.4520  0.8477
  156MOL0     C20952   5.815   5.038   3.270  0.0332  0.3486  0.5061
  156MOL0     C20953   5.750   5.087   3.400  0.9448  0.9584  0.3208
  156MOL0     C20954   5.741   4.997   3.154 -0.1375  0.1370 -0.2894
  156MOL0     C20955   5.597   4.998   3.135  0.3302  0.1741  0.6980
  156MOL0     O20956   5.529   5.090   3.211 -0.4935  0.3493  0.5682
  156MOL0     C20957   5.389   5.102   3.212  0.3772  1.0717  0.2191
  156MOL0     C20958   5.305   4.986   3.206 -1.0725  0.7606 -0.1647
  156MOL0     C20959   5.170   5.003   3.191  1.0154 -0.3327  0.0474
  156MOL0     C20960   5.113   5.131   3.174  0.1531  0.8625 -1.1124
  156MOL0     O20961   4.976   5.144   3.148  0.6995  0.2098  0.5719
  156MOL0     C20962   4.928   5.266   3.094 -0.0218  0.2130 -0.7824
  156MOL0     C20963   4.780   5.260   3.058 -0.4744  0.5069  0.0431
  156MOL0     C20964   4.756   5.133   2.969  0.1847  0.1213 -0.7246
  156MOL0     C20965   4.647   5.155   2.869 -0.4938 -0.0735 -0.5379
  156MOL0     C20966   4.500   5.182   2.917  0.5089  0.1189 -0.4276
  156MOL0     C20967   4.403   5.210   2.805  0.4493 -0.8509  0.1363
  156MOL0     C20968   4.444   5.348   2.737 -0.8484 -0.0432 -0.3534
  156MOL0     C20969   4.378   5.464   2.805 -0.3130  0.1225  0.3795
  156MOL0    Cl20970   4.218   5.473   2.735 -0.5761  0.0244 -0.1162
  156MOL0     C20971   5.198   5.238   3.202 -0.6113  0.9376  0.2205
  156MOL0     C20972   5.332   5.221   3.215 -0.5413 -0.6482 -1.0221
  156MOL0     O20973   5.541   4.926   3.046  0.4018  0.3255 -0.1623
  156MOL0     C20974   5.810   4.922   3.053  0.4329 -0.6529 -0.2544
  156MOL0     C20975   5.948   4.893   3.073 -0.8720 -1.0603  0.0292
  156MOL0     N20976   6.403   4.775   3.576 -0.1548  0.9867 -0.2209
  156MOL0     N20977   6.431   4.722   3.694  0.0996  0.2365 -0.2334
  156MOL0     C20978   7.499   4.432   4.249 -0.3516  0.1925  0.4945
  156MOL0     C20979   7.615   4.483   4.302 -0.0736  0.0796  0.3290
  156MOL0     C20980   7.970   4.638   4.488  0.3400 -0.2867  0.1463
  156MOL0     C20981   8.050   4.756   4.462  0.1297 -0.3368 -0.5479
  156MOL0     C20982   8.183   4.761   4.505  0.5295 -0.5702  0.3062
  156MOL0     C20983   8.241   4.649   4.559  0.5101 -0.2068 -0.2824
  156MOL0     O20984   8.376   4.650   4.579 -0.1129  0.1656  0.0739
  156MOL0     C20985   8.468   4.616   4.471  0.0676 -0.1433  0.3540
  156MOL0     C20986   8.605   4.666   4.511  0.2521  0.2952 -0.0659
  156MOL0     C20987   8.605   4.817   4.520 -1.2302 -0.1834 -0.3999
  156MOL0     C20988   8.749   4.878   4.552 -0.4472 -0.3992 -0.1310
  156MOL0     C20989   8.825   4.823   4.668  0.7779 -0.0267 -0.4270
  156MOL0     C20990   8.880   4.795   4.778 -0.5884  0.5535 -0.0222
  156MOL0     C20991   8.168   4.529   4.567 -0.6672  0.1594  1.1645
  156MOL0     C20992   8.034   4.524   4.526 -0.4186  1.0236 -1.3551
  156MOL0     H20993   7.537   4.511   4.633  3.3834  2.7074 -1.1260
  156MOL0     H20994   7.325   4.414   4.540  1.1092  0.4453  1.5120
  156MOL0     H20995   7.234   4.462   4.117 -0.8283 -0.0262 -0.7280
  156MOL0     H20996   7.259   4.291   4.102  2.4719  2.8683 -1.0261
  156MOL0     H20997   7.060   4.224   4.204 -1.8966  0.8842  1.7519
  156MOL0     H20998   7.026   4.390   4.250  2.4273  1.5695 -1.2058
  156MOL0     H20999   7.013   4.453   4.005  0.9981 -1.3780 -2.3643
  156MOL0     H21000   7.023   4.273   3.968 -0.7316 -1.5038  1.8358
  156MOL0     H21001   6.811   4.242   4.083  0.0328 -0.9956 -1.7471
  156MOL0     H21002   6.789   4.423   4.105 -3.8478 -0.3950 -1.4095
  156MOL0     H21003   6.801   4.466   3.868 -1.3152 -1.3310 -3.0317
  156MOL0     H21004   6.853   4.309   3.838  2.9640 -0.6854  1.0298
  156MOL0     H21005   6.620   4.222   3.902 -0.0956  0.2560 -1.1777
  156MOL0     H21006   6.580   4.369   3.988 -1.2223 -2.0264  0.9871
  156MOL0     H21007   6.631   4.350   3.685 -0.6835  0.3186 -0.8677
  156MOL0     H21008   6.467   4.351   3.752 -0.4625 -0.3780  1.1151
  156MOL0     H21009   6.663   4.578   3.767 -0.4346  1.5362  0.2611
  156MOL0     H21010   6.533   4.563   3.884  0.8980 -1.4039  0.2388
  156MOL0     H21011   6.502   4.467   3.495  0.9788  0.4288 -1.1305
  156MOL0     H21012   6.437   4.627   3.270  0.6329 -1.1614  0.7622
  156MOL0     H21013   6.280   4.687   3.345  0.0433 -0.2105  1.6562
  156MOL0     H21014   6.518   4.873   3.314  0.6815 -0.3180  3.0948
  156MOL0     H21015   6.355   4.908   3.372 -1.7327  0.5524 -1.2792
  156MOL0     H21016   6.454   4.806   3.101 -0.4159  0.1444 -1.8904
  156MOL0     H21017   6.425   4.980   3.142 -1.7420  0.0751 -0.5472
  156MOL0     H21018   6.222   4.761   3.112  2.7958 -0.9334  1.5132
  156MOL0     H21019   6.236   4.896   3.002 -1.5353 -2.8154 -0.6420
  156MOL0     H21020   6.007   5.037   3.363  0.9505 -0.1695  0.2163
  156MOL0     H21021   5.662   5.027   3.426  3.1175 -2.5118  0.3381
  156MOL0     H21022   5.823   5.090   3.481 -0.2906  1.0250  1.4596
  156MOL0     H21023   5.705   5.185   3.385  0.0884  0.2450 -2.3721
  156MOL0     H21024   5.338   4.883   3.208 -0.8604  0.8347  0.3305
  156MOL0     H21025   5.097   4.924   3.177 -1.1488  1.2811  1.6514
  156MOL0     H21026   4.941   5.350   3.163 -0.3432 -1.0480  0.9078
  156MOL0     H21027   4.979   5.292   3.001 -1.3213 -0.4414 -1.6982
  156MOL0     H21028   4.720   5.243   3.147  1.6725 -2.8143  1.0434
  156MOL0     H21029   4.748   5.355   3.013 -2.1612  0.8556  1.8273
  156MOL0     H21030   4.734   5.044   3.029 -1.0274  1.0935  0.3252
  156MOL0     H21031   4.850   5.102   2.921  1.1122 -0.5307  1.3805
  156MOL0     H21032   4.684   5.231   2.799  0.0711 -0.1035 -0.2839
  156MOL0     H21033   4.632   5.072   2.799 -2.1240 -0.0045 -0.2944
  156MOL0     H21034   4.490   5.260   2.994  0.3597 -1.1555  0.9007
  156MOL0     H21035   4.459   5.099   2.976  0.6404  1.2466  1.3344
  156MOL0     H21036   4.411   5.126   2.735 -0.1274 -0.2265 -0.6999
  156MOL0     H21037   4.308   5.227   2.857  1.8570 -1.4234  3.0791
  156MOL0     H21038   4.418   5.344   2.631 -1.0659  0.5866 -0.3295
  156MOL0     H21039   4.551   5.368   2.726 -1.6677  4.0230 -3.4714
  156MOL0     H21040   4.433   5.556   2.785 -0.6217  0.6263  1.7615
  156MOL0     H21041   4.379   5.456   2.914 -0.1667 -2.0769  0.2535
  156MOL0     H21042   5.156   5.338   3.202 -0.4571  1.0445 -1.8510
  156MOL0     H21043   5.397   5.307   3.231  0.2626 -1.3211 -0.5480
  156MOL0     H21044   5.757   4.866   2.976 -0.3410 -2.4715  1.5304
  156MOL0     H21045   6.001   4.834   2.999 -0.2216  2.5053 -2.6434
  156MOL0     H21046   7.497   4.407   4.144  0.5316 -0.2657  0.5780
  156MOL0     H21047   7.702   4.493   4.237  1.3276  2.9772  2.4159
  156MOL0     H21048   8.002   4.839   4.410  0.9117  1.2462  1.1514
  156MOL0     H21049   8.247   4.848   4.495 -0.6515  0.0552 -5.0881
  156MOL0     H21050   8.473   4.508   4.456  0.0729 -0.0516 -0.3717
  156MOL0     H21051   8.440   4.677   4.384  0.2181 -0.6465 -0.0550
  156MOL0     H21052   8.657   4.627   4.423 -2.9742  0.7210 -2.3278
  156MOL0     H21053   8.642   4.619   4.603 -0.1979 -5.4283 -2.3568
  156MOL0     H21054   8.536   4.856   4.595 -2.3189 -1.9845 -0.3919
  156MOL0     H21055   8.568   4.856   4.425  1.0008  4.6373  0.4069
  156MOL0     H21056   8.733   4.983   4.578 -1.3777 -0.8821  1.3204
  156MOL0     H21057   8.808   4.885   4.460  0.3104  3.5525  0.4541
  156MOL0     H21058   8.949   4.771   4.857  2.4976 -1.6419 -3.0762
  156MOL0     H21059   8.228   4.445   4.599  1.0540  1.4512  1.4960
  156MOL0     H21060   7.994   4.424   4.541  0.3159  1.1119  2.0822
  157MOL0     O21061   8.063   2.728   8.284  0.7497 -0.5271  0.6034
  157MOL0     C21062   8.082   2.657   8.186 -0.2641  0.6888  0.3485
  157MOL0     O21063   7.988   2.623   8.092  0.1338 -0.3254 -0.0595
  157MOL0     C21064   7.867   2.682   8.087  1.3851 -0.1733  0.1477
  157MOL0     C21065   7.755   2.600   8.069 -0.2694  0.4421  0.3649
  157MOL0     C21066   7.629   2.644   8.097 -0.3733 -0.2306  0.2939
  157MOL0     C21067   7.603   2.774   8.137  0.2519 -0.3085  0.9343
  157MOL0     O21068   7.484   2.828   8.174  0.4913  0.1781 -0.0145
  157MOL0     C21069   7.392   2.741   8.241  0.3869  0.7093  0.5084
  157MOL0     C21070   7.255   2.810   8.242  0.0969 -0.1459 -0.6770
  157MOL0     C21071   7.159   2.749   8.345  1.5293  0.8316  0.2251
  157MOL0     C21072   7.009   2.777   8.325  0.2379 -0.0168 -0.3229
  157MOL0     C21073   6.926   2.676   8.409 -0.6438 -0.2383 -0.1952
  157MOL0     C21074   6.793   2.708   8.368 -0.1601  0.4393 -0.0827
  157MOL0     C21075   6.696   2.607   8.441 -0.4681 -0.5214  0.0285
  157MOL0     C21076   6.635   2.668   8.570  0.4398 -0.2541  0.4015
  157MOL0     N21077   6.548   2.787   8.539 -0.2916 -0.1836 -0.0178
  157MOL0     C21078   6.584   2.913   8.582 -0.2480  0.4393  0.0086
  157MOL0     C21079   6.505   2.999   8.521  0.1557  0.7874 -0.4197
  157MOL0     C21080   6.501   3.138   8.543 -0.3746 -0.0555 -0.0115
  157MOL0     C21081   6.417   3.181   8.669  0.1254 -0.8345  0.9473
  157MOL0     C21082   6.258   3.158   8.652  0.5340  0.4993  0.9920
  157MOL0     C21083   6.175   3.183   8.773  0.2522 -0.2978 -1.0509
  157MOL0     O21084   6.039   3.165   8.732 -0.1860 -0.0661 -0.5498
  157MOL0     C21085   5.934   3.173   8.827 -1.2180 -0.5798  0.2818
  157MOL0     C21086   5.807   3.174   8.777 -0.3023  0.3671  0.6406
  157MOL0     C21087   5.701   3.153   8.869  0.2182 -0.9671 -0.1133
  157MOL0     C21088   5.557   3.148   8.815  0.4948  0.3076 -0.4554
  157MOL0     C21089   5.715   3.161   9.005  0.3616 -0.6589  0.3013
  157MOL0     C21090   5.598   3.166   9.102 -0.1279  0.2709 -0.4961
  157MOL0     O21091   5.583   3.058   9.182  0.1694  0.3179  0.3427
  157MOL0     C21092   5.455   3.014   9.222 -0.0021  0.5036 -0.6114
  157MOL0     C21093   5.440   2.956   9.345  0.2851 -0.7413  0.6426
  157MOL0     C21094   5.316   2.900   9.382 -0.0743 -0.7126  0.4258
  157MOL0     C21095   5.202   2.902   9.292  0.4779  0.1750 -0.0960
  157MOL0     O21096   5.070   2.857   9.317 -0.4750 -0.1659 -0.3963
  157MOL0     C21097   5.046   2.770   9.426  0.5596  0.3010 -0.2581
  157MOL0     C21098   4.919   2.683   9.378  0.6319  0.6163  0.1538
  157MOL0     C21099   4.804   2.761   9.318 -0.0285  0.0600 -0.0173
  157MOL0     C21100   4.677   2.670   9.285 -0.8866  0.5722  0.2268
  157MOL0     C21101   4.583   2.762   9.206 -0.9964 -1.3151 -0.4701
  157MOL0     C21102   4.437   2.724   9.225  0.8622  1.6559  0.4399
  157MOL0     C21103   4.404   2.616   9.124  0.9977  1.1108  0.5630
  157MOL0     C21104   4.257   2.583   9.110  0.6432  0.0887 -0.4351
  157MOL0    Cl21105   4.154   2.715   9.051 -0.3466  0.0789 -0.2683
  157MOL0     C21106   5.228   2.951   9.163  0.6758  0.0589 -0.5691
  157MOL0     C21107   5.348   3.006   9.127 -0.2990  0.1683 -0.9339
  157MOL0     O21108   5.523   3.262   9.093  0.2469 -0.1718  0.4813
  157MOL0     C21109   5.845   3.166   9.048  0.7951  0.1181 -0.0497
  157MOL0     C21110   5.956   3.173   8.966 -0.1243  0.6036 -0.0737
  157MOL0     N21111   6.425   2.921   8.440  0.2010  0.7517  0.2300
  157MOL0     N21112   6.455   2.793   8.442 -0.2190  0.5364 -0.0835
  157MOL0     C21113   7.711   2.872   8.145 -0.3993  0.3633 -1.2007
  157MOL0     C21114   7.841   2.821   8.122  0.3117 -1.0100  0.0170
  157MOL0     C21115   8.214   2.587   8.186  0.3325 -0.4747 -0.1965
  157MOL0     C21116   8.313   2.623   8.280 -0.2549 -0.2410  0.8891
  157MOL0     C21117   8.433   2.554   8.284  0.1795  0.6710  0.0215
  157MOL0     C21118   8.459   2.453   8.191  0.9467 -0.0597  1.1221
  157MOL0     O21119   8.586   2.400   8.198  0.4751 -0.0760  0.1242
  157MOL0     C21120   8.630   2.338   8.076  0.1700  0.3804 -0.7809
  157MOL0     C21121   8.769   2.295   8.098 -0.3171  0.0948  0.1786
  157MOL0     C21122   8.873   2.409   8.135 -0.6737  0.4466  0.1054
  157MOL0     C21123   8.865   2.468   8.284 -1.1832 -0.0403  0.1454
  157MOL0     C21124   8.993   2.535   8.317 -0.6724  0.2315  0.1655
  157MOL0     C21125   9.100   2.583   8.344  0.4568 -0.3547 -0.6013
  157MOL0     C21126   8.368   2.420   8.086  0.2367  0.9369 -1.1724
  157MOL0     C21127   8.241   2.480   8.097 -0.0090  0.7983 -0.3978
  157MOL0     H21128   7.770   2.494   8.050  1.6566 -0.0041  3.6430
  157MOL0     H21129   7.545   2.577   8.081 -1.3663  1.5813 -3.0106
  157MOL0     H21130   7.381   2.643   8.192 -0.1661  1.9779 -2.0885
  157MOL0     H21131   7.427   2.719   8.342  0.8216 -2.3060 -0.1887
  157MOL0     H21132   7.271   2.916   8.264 -1.1792 -0.3014  1.1918
  157MOL0     H21133   7.202   2.805   8.147 -1.1706 -2.1144  0.0748
  157MOL0     H21134   7.181   2.642   8.350  3.4400  1.2044  0.3585
  157MOL0     H21135   7.186   2.783   8.445  0.4895 -0.4437  0.9860
  157MOL0     H21136   6.988   2.881   8.352 -3.0441 -0.9374  1.2474
  157MOL0     H21137   6.986   2.766   8.219 -2.9519  2.2724 -0.0199
  157MOL0     H21138   6.948   2.569   8.402  1.4507  0.1364 -0.1427
  157MOL0     H21139   6.950   2.705   8.512  1.4271 -0.0401 -0.6850
  157MOL0     H21140   6.763   2.813   8.379  4.3345  1.7963  1.4342
  157MOL0     H21141   6.795   2.677   8.263  0.8300 -0.3198  0.1450
  157MOL0     H21142   6.609   2.579   8.380  0.9815 -1.3463 -1.7674
  157MOL0     H21143   6.740   2.510   8.465  1.5312 -0.2991 -2.3045
  157MOL0     H21144   6.714   2.694   8.641  0.1781  1.6358  0.0613
  157MOL0     H21145   6.581   2.602   8.639 -3.0099  3.3022  1.4891
  157MOL0     H21146   6.658   2.928   8.661 -0.6259  2.2648  0.0517
  157MOL0     H21147   6.605   3.170   8.552  1.2107 -4.4723 -0.4000
  157MOL0     H21148   6.459   3.192   8.458 -0.1472 -0.0508 -0.1220
  157MOL0     H21149   6.456   3.280   8.692  0.0962 -0.2900 -1.1328
  157MOL0     H21150   6.448   3.120   8.754  2.1494  0.7957  1.4434
  157MOL0     H21151   6.239   3.061   8.605  0.4041  0.9774  0.0416
  157MOL0     H21152   6.226   3.229   8.575 -0.4354 -0.3469  0.5925
  157MOL0     H21153   6.194   3.286   8.807 -1.3323 -0.0579 -0.8237
  157MOL0     H21154   6.201   3.111   8.851 -1.1273 -1.3148 -1.5006
  157MOL0     H21155   5.793   3.196   8.672 -0.5669 -2.0215  0.1041
  157MOL0     H21156   5.496   3.230   8.855 -1.0100 -1.1633  0.3803
  157MOL0     H21157   5.555   3.163   8.707  0.3296 -0.1747 -0.5183
  157MOL0     H21158   5.507   3.057   8.847  1.4782  0.4775  1.7363
  157MOL0     H21159   5.522   2.950   9.415  1.3731 -0.1031 -0.5256
  157MOL0     H21160   5.307   2.861   9.482  0.0239 -3.4567 -0.5447
  157MOL0     H21161   5.129   2.703   9.449  0.3822  0.8067  2.0396
  157MOL0     H21162   5.025   2.822   9.520 -3.7938 -1.7399  0.1057
  157MOL0     H21163   4.948   2.622   9.292 -1.1553  0.9169 -0.7005
  157MOL0     H21164   4.883   2.619   9.459 -3.9392  1.8567 -0.6265
  157MOL0     H21165   4.832   2.801   9.220  0.9829 -1.9070 -0.5714
  157MOL0     H21166   4.784   2.847   9.383  2.1109  2.7846 -2.6926
  157MOL0     H21167   4.707   2.579   9.232 -4.3959 -1.2961  1.0521
  157MOL0     H21168   4.624   2.645   9.378 -2.6769  2.6812 -0.1473
  157MOL0     H21169   4.609   2.777   9.101 -1.6606 -1.1446 -0.6119
  157MOL0     H21170   4.600   2.862   9.248 -1.2205 -1.5413  0.1710
  157MOL0     H21171   4.421   2.685   9.326 -1.2732  1.1016 -0.0490
  157MOL0     H21172   4.370   2.807   9.200 -0.6692  0.4286  0.2738
  157MOL0     H21173   4.456   2.522   9.148 -0.1756 -0.0008 -1.0482
  157MOL0     H21174   4.440   2.651   9.027  0.1476 -1.3633 -0.7531
  157MOL0     H21175   4.220   2.551   9.208 -0.0300 -0.2506 -0.7931
  157MOL0     H21176   4.242   2.497   9.043  1.9849 -2.2452  2.0884
  157MOL0     H21177   5.154   2.935   9.085 -0.7893  0.1820  0.7477
  157MOL0     H21178   5.370   3.047   9.029  1.5724  1.6652  0.0292
  157MOL0     H21179   5.860   3.169   9.155  1.4021 -1.7430 -0.0310
  157MOL0     H21180   6.056   3.169   9.009 -0.1259 -1.6594 -0.1341
  157MOL0     H21181   7.699   2.975   8.177  2.1490  0.0811  1.0271
  157MOL0     H21182   7.924   2.885   8.147 -0.0918 -0.1489 -0.7745
  157MOL0     H21183   8.311   2.704   8.353 -0.1626  0.2755  0.3234
  157MOL0     H21184   8.506   2.575   8.362  2.2793  0.6192 -1.8491
  157MOL0     H21185   8.566   2.249   8.072 -0.1580  0.4993  0.8682
  157MOL0     H21186   8.626   2.411   7.995 -1.2712  2.4695  1.0496
  157MOL0     H21187   8.790   2.252   8.000 -1.1722  0.5630 -0.2208
  157MOL0     H21188   8.784   2.212   8.168  0.1832 -0.5866 -0.7076
  157MOL0     H21189   8.857   2.499   8.075  1.9057  0.9078 -0.0050
  157MOL0     H21190   8.978   2.379   8.126 -0.3443  1.7956 -0.8804
  157MOL0     H21191   8.853   2.382   8.350 -0.9311  0.5911  1.0310
  157MOL0     H21192   8.782   2.539   8.280  0.5502  2.0683 -0.8021
  157MOL0     H21193   9.195   2.613   8.383  0.7744  2.1747 -3.0169
  157MOL0     H21194   8.381   2.342   8.012 -1.7865  1.3620 -2.0486
  157MOL0     H21195   8.163   2.434   8.037  0.6928  0.6005 -1.1865
  158MOL0     O21196   9.128  10.439   7.914 -0.0397  0.2414  0.2403
  158MOL0     C21197   9.148  10.431   8.034 -0.8530  0.4612  0.2031
  158MOL0     O21198   9.079  10.371   8.124  0.4659  0.1532  0.3736
  158MOL0     C21199   8.938  10.354   8.096  0.7464 -0.8193  0.0076
  158MOL0     C21200   8.862  10.425   8.003 -0.0151  0.1444 -0.4053
  158MOL0     C21201   8.737  10.390   7.960  0.5328  0.4597  0.7192
  158MOL0     C21202   8.676  10.284   8.017  0.9745  0.8079  0.0156
  158MOL0     O21203   8.553  10.247   7.969  1.2171  0.0956 -0.0316
  158MOL0     C21204   8.475  10.170   8.065 -0.3839  0.3712  0.5361
  158MOL0     C21205   8.336  10.176   8.013  0.1534  0.0995  0.1026
  158MOL0     C21206   8.223  10.136   8.110  0.2210  0.5121 -0.5789
  158MOL0     C21207   8.081  10.180   8.083  0.5662 -0.0241 -0.0855
  158MOL0     C21208   7.991  10.134   8.203  0.1811  0.4399 -0.4834
  158MOL0     C21209   7.942   9.989   8.183  0.0183 -0.1723 -0.9084
  158MOL0     C21210   7.853   9.927   8.297  0.0071 -0.0511 -0.1160
  158MOL0     C21211   7.801   9.789   8.274  0.1965 -0.0100  0.0692
  158MOL0     N21212   7.711   9.769   8.163 -0.4940 -0.4259  0.0939
  158MOL0     C21213   7.598   9.697   8.170 -0.3072 -0.7843 -0.0547
  158MOL0     C21214   7.549   9.695   8.041 -0.4221  0.1385 -0.5481
  158MOL0     C21215   7.414   9.647   7.981  0.6220 -0.1913  0.0952
  158MOL0     C21216   7.386   9.500   7.996 -0.4950  0.7770 -0.3261
  158MOL0     C21217   7.294   9.425   7.892  0.4502 -0.0053  0.8966
  158MOL0     C21218   7.171   9.525   7.866  0.0617 -0.8782 -0.3370
  158MOL0     O21219   7.053   9.459   7.823  0.5062 -0.8338  0.0615
  158MOL0     C21220   6.960   9.442   7.928  0.8063  0.1513 -0.3035
  158MOL0     C21221   6.987   9.435   8.063 -0.0191 -0.5605 -0.1689
  158MOL0     C21222   6.876   9.428   8.147  0.3660  0.5754  0.6198
  158MOL0     C21223   6.896   9.433   8.305 -0.3839 -0.1099 -0.2636
  158MOL0     C21224   6.739   9.422   8.098 -0.2685 -0.8891 -1.0548
  158MOL0     C21225   6.613   9.404   8.182  0.2000 -0.0904  0.4575
  158MOL0     O21226   6.495   9.378   8.110 -0.4687  0.7894  0.3412
  158MOL0     C21227   6.371   9.370   8.173  0.6176  0.5839 -0.1184
  158MOL0     C21228   6.326   9.480   8.242 -0.7835 -0.4003 -0.6496
  158MOL0     C21229   6.199   9.474   8.301  0.1431  0.0659 -0.0964
  158MOL0     C21230   6.108   9.366   8.287  0.3262 -0.0126 -0.1008
  158MOL0     O21231   5.992   9.379   8.351 -0.2344  0.1099 -0.0594
  158MOL0     C21232   5.880   9.282   8.330 -0.9511 -0.3908  0.9101
  158MOL0     C21233   5.770   9.295   8.436  0.0655  0.1464  0.3489
  158MOL0     C21234   5.675   9.410   8.398  0.6845 -0.1305  0.7212
  158MOL0     C21235   5.559   9.423   8.499 -0.0113 -1.2003 -0.6811
  158MOL0     C21236   5.461   9.529   8.451  0.4552 -0.2319  0.2200
  158MOL0     C21237   5.390   9.591   8.565  0.1989 -0.4284  0.2145
  158MOL0     C21238   5.282   9.506   8.621  0.0290  0.0397  0.5666
  158MOL0     C21239   5.183   9.577   8.716  0.7057  0.0136 -0.3352
  158MOL0    Cl21240   5.084   9.680   8.617 -0.0160  0.1177 -0.0801
  158MOL0     C21241   6.153   9.257   8.206  0.6720  0.2587 -0.4171
  158MOL0     C21242   6.279   9.256   8.152 -0.0197 -0.3786  0.5095
  158MOL0     O21243   6.611   9.400   8.307  0.1439  0.0259  0.3230
  158MOL0     C21244   6.721   9.432   7.963 -0.5112 -0.1845  0.1606
  158MOL0     C21245   6.830   9.438   7.880 -0.7389  0.0986  1.0161
  158MOL0     N21246   7.638   9.775   7.970  0.5213  0.2669  0.8496
  158MOL0     N21247   7.737   9.811   8.041  0.5959 -0.4367  0.2526
  158MOL0     C21248   8.749  10.209   8.117  0.2800 -0.5912 -1.1894
  158MOL0     C21249   8.873  10.251   8.164 -0.7959  1.0315  0.1984
  158MOL0     C21250   9.278  10.473   8.086  0.5114  0.6728  0.0658
  158MOL0     C21251   9.330  10.419   8.205 -0.7520 -0.8670 -0.0589
  158MOL0     C21252   9.451  10.473   8.250  0.3963  0.6554 -0.2449
  158MOL0     C21253   9.523  10.560   8.175 -0.8421  0.0493  0.7126
  158MOL0     O21254   9.648  10.590   8.224 -0.5962 -0.2283  0.7247
  158MOL0     C21255   9.740  10.655   8.135 -0.4118 -0.4074  0.0147
  158MOL0     C21256   9.866  10.680   8.217  0.5637 -0.0214  0.0293
  158MOL0     C21257   9.925  10.547   8.279 -0.2477 -1.4829 -0.0247
  158MOL0     C21258  10.057  10.569   8.355  0.0941  0.0379 -0.0678
  158MOL0     C21259  10.161  10.630   8.274 -0.1802  0.1253 -0.0502
  158MOL0     C21260  10.244  10.682   8.200  0.7568 -0.0462  0.2305
  158MOL0     C21261   9.478  10.607   8.051  0.0656 -0.6793  0.2517
  158MOL0     C21262   9.353  10.567   8.011  0.3234  0.6238  0.1983
  158MOL0     H21263   8.904  10.510   7.951 -1.0551  0.6181 -0.5054
  158MOL0     H21264   8.688  10.447   7.882  0.0954  0.5965  1.0885
  158MOL0     H21265   8.523  10.073   8.081  4.5134  2.8233  3.0718
  158MOL0     H21266   8.470  10.219   8.162  0.1183  0.9160  0.2969
  158MOL0     H21267   8.302  10.273   7.977 -0.5180  0.5784  1.9202
  158MOL0     H21268   8.331  10.119   7.920  2.5159 -0.0661  0.0109
  158MOL0     H21269   8.218  10.027   8.114 -1.8950  0.6103  2.0224
  158MOL0     H21270   8.249  10.171   8.210  0.3040 -1.8217  0.2881
  158MOL0     H21271   8.078  10.289   8.080  1.3731 -0.0032 -0.4841
  158MOL0     H21272   8.054  10.141   7.985  0.8447 -2.0975  0.6132
  158MOL0     H21273   8.037  10.139   8.302  0.2603  0.0348 -0.4987
  158MOL0     H21274   7.908  10.205   8.200  1.0845  1.6282  0.8658
  158MOL0     H21275   7.892   9.982   8.086  4.3472  0.6502 -3.4505
  158MOL0     H21276   8.034   9.930   8.178  0.4669  0.4640 -0.2906
  158MOL0     H21277   7.912   9.930   8.389  0.7678  0.7751 -0.6132
  158MOL0     H21278   7.768   9.994   8.312  1.4040  1.5186  1.2575
  158MOL0     H21279   7.751   9.751   8.364 -2.5510  0.3653 -1.1785
  158MOL0     H21280   7.891   9.734   8.248 -0.5775 -0.3933 -2.0365
  158MOL0     H21281   7.549   9.668   8.262 -1.3581 -0.0771 -0.3818
  158MOL0     H21282   7.337   9.708   8.030  2.3115  1.3666  0.9301
  158MOL0     H21283   7.405   9.676   7.875  1.1978  2.5026  0.6896
  158MOL0     H21284   7.345   9.482   8.096 -1.8262 -0.1947 -1.0194
  158MOL0     H21285   7.486   9.454   7.990 -0.3330  1.2946 -3.5877
  158MOL0     H21286   7.263   9.324   7.919 -1.4947 -0.1461 -1.5262
  158MOL0     H21287   7.347   9.399   7.800  0.6984 -1.8661  1.5187
  158MOL0     H21288   7.200   9.592   7.785  1.0741 -1.3575 -0.3917
  158MOL0     H21289   7.154   9.588   7.954 -1.8100 -0.3619 -1.0243
  158MOL0     H21290   7.082   9.433   8.115 -0.0703 -0.5693 -0.0753
  158MOL0     H21291   7.003   9.453   8.320 -0.4765 -0.9354  1.8483
  158MOL0     H21292   6.837   9.508   8.358  0.6297 -0.3320  1.2605
  158MOL0     H21293   6.872   9.336   8.350  2.8003 -1.3613 -0.9866
  158MOL0     H21294   6.393   9.565   8.245 -1.9394  0.6115 -1.8599
  158MOL0     H21295   6.172   9.559   8.363 -1.7157  0.0492 -0.8142
  158MOL0     H21296   5.836   9.301   8.231  0.1373  1.9516  0.8247
  158MOL0     H21297   5.920   9.180   8.329 -0.4359 -0.2089 -0.7295
  158MOL0     H21298   5.718   9.199   8.440 -1.7601  1.1375  1.9443
  158MOL0     H21299   5.820   9.300   8.533  2.6677 -2.7361 -0.6933
  158MOL0     H21300   5.631   9.386   8.301  1.6676 -0.3934  0.3340
  158MOL0     H21301   5.730   9.503   8.386 -0.8455  0.8367  0.8868
  158MOL0     H21302   5.513   9.324   8.507 -0.6971 -0.7551  1.2827
  158MOL0     H21303   5.591   9.448   8.600 -1.8271  1.1823 -0.6164
  158MOL0     H21304   5.391   9.491   8.376  0.1495 -1.0352  0.8879
  158MOL0     H21305   5.514   9.601   8.388  0.8505 -2.4483 -2.1501
  158MOL0     H21306   5.465   9.606   8.643 -0.8897 -1.2246  1.4505
  158MOL0     H21307   5.343   9.686   8.536 -1.8687 -0.4685  3.0745
  158MOL0     H21308   5.326   9.418   8.667 -0.7262  0.1137  1.4632
  158MOL0     H21309   5.216   9.471   8.541 -0.3732  0.6845  0.6008
  158MOL0     H21310   5.227   9.614   8.809  0.2103 -0.3320  0.0410
  158MOL0     H21311   5.123   9.490   8.745  0.4833  0.2243 -0.1611
  158MOL0     H21312   6.084   9.177   8.179 -1.4602  2.2773 -1.3433
  158MOL0     H21313   6.319   9.176   8.090 -1.8605  0.6421 -2.1621
  158MOL0     H21314   6.629   9.427   7.907 -0.5793 -1.3120  0.3458
  158MOL0     H21315   6.819   9.442   7.772 -1.9290 -1.6928  1.0294
  158MOL0     H21316   8.705  10.122   8.166 -0.5063 -0.1314 -1.0608
  158MOL0     H21317   8.925  10.190   8.237 -2.3864  1.7315  2.0278
  158MOL0     H21318   9.279  10.338   8.256 -0.1237 -1.6069 -0.5705
  158MOL0     H21319   9.500  10.450   8.344 -1.6381  0.8222  0.9334
  158MOL0     H21320   9.768  10.598   8.046 -1.6416 -1.8921  0.5395
  158MOL0     H21321   9.698  10.750   8.100 -2.1760 -1.6307 -1.4060
  158MOL0     H21322   9.836  10.747   8.298 -2.3243 -1.3704  0.1945
  158MOL0     H21323   9.935  10.730   8.149 -1.5714  3.2494 -0.0062
  158MOL0     H21324   9.943  10.473   8.200  2.0948 -2.8568  1.6725
  158MOL0     H21325   9.851  10.521   8.354 -1.0178  0.2232 -0.1624
  158MOL0     H21326  10.108  10.475   8.379 -0.1676  0.1803  1.1040
  158MOL0     H21327  10.036  10.630   8.443  0.5393  2.6235 -1.6282
  158MOL0     H21328  10.306  10.742   8.137  2.0455 -2.5805 -1.0585
  158MOL0     H21329   9.525  10.686   7.993 -0.5356 -1.2650 -1.0541
  158MOL0     H21330   9.308  10.614   7.924 -2.6558  0.5638  1.5975
  159MOL0     O21331   8.645   2.718   7.713 -0.0005 -0.3078  0.0055
  159MOL0     C21332   8.693   2.743   7.826 -0.1760  0.1927  0.1978
  159MOL0     O21333   8.624   2.790   7.935 -0.0157 -0.7811  0.3548
  159MOL0     C21334   8.496   2.823   7.926 -0.2297 -0.0117 -0.2578
  159MOL0     C21335   8.483   2.953   7.971  0.1102  0.4325  0.9514
  159MOL0     C21336   8.354   3.011   7.974  0.3655 -0.9170  0.3624
  159MOL0     C21337   8.242   2.936   7.935  1.2719  0.2452 -0.8850
  159MOL0     O21338   8.112   2.985   7.927  0.4179 -0.1655 -0.1857
  159MOL0     C21339   8.107   3.120   7.878  0.9829  0.0058  0.2283
  159MOL0     C21340   7.967   3.147   7.800  0.1019  0.2407 -0.1809
  159MOL0     C21341   7.842   3.125   7.880  1.0345 -0.1392 -0.3665
  159MOL0     C21342   7.721   3.113   7.785 -1.0515  0.0815 -0.4267
  159MOL0     C21343   7.603   3.073   7.869  0.6875  0.0169 -0.3948
  159MOL0     C21344   7.481   3.117   7.782 -0.1230 -0.2368  0.0572
  159MOL0     C21345   7.354   3.142   7.863 -0.4640 -0.5169  0.1625
  159MOL0     C21346   7.315   3.020   7.957 -0.4364 -0.1634  0.0681
  159MOL0     N21347   7.193   2.968   7.901 -0.2186 -0.1039 -0.0770
  159MOL0     C21348   7.184   2.925   7.772  0.8818 -0.1405  0.3869
  159MOL0     C21349   7.047   2.913   7.745 -0.9878  0.1306 -1.1329
  159MOL0     C21350   6.989   2.874   7.614 -0.0244 -0.1496  0.0269
  159MOL0     C21351   6.875   2.767   7.621 -1.0038 -0.0685  0.2482
  159MOL0     C21352   6.801   2.745   7.487 -0.3867 -0.5833  0.2014
  159MOL0     C21353   6.895   2.687   7.382  0.1316  0.5883 -0.1638
  159MOL0     O21354   6.986   2.790   7.334  0.5925  0.5412  0.1836
  159MOL0     C21355   7.110   2.755   7.275  0.0966 -0.1270 -0.4583
  159MOL0     C21356   7.123   2.642   7.199  0.2524 -1.1024  0.5627
  159MOL0     C21357   7.251   2.596   7.149  0.6202 -0.2689 -0.0660
  159MOL0     C21358   7.249   2.466   7.075  0.3982 -0.3808 -0.0012
  159MOL0     C21359   7.363   2.681   7.156 -0.0147 -0.0147  0.1130
  159MOL0     C21360   7.494   2.645   7.096 -0.3593 -0.0477 -0.0605
  159MOL0     O21361   7.590   2.742   7.124  0.1872  0.7272 -0.2585
  159MOL0     C21362   7.726   2.740   7.091  0.1052  1.1915 -0.0805
  159MOL0     C21363   7.796   2.628   7.051 -0.5922  1.0100  0.5704
  159MOL0     C21364   7.927   2.639   7.030 -1.0343 -0.8048  0.6918
  159MOL0     C21365   8.002   2.752   7.060  0.9138  0.5015  0.4899
  159MOL0     O21366   8.137   2.745   7.022  0.2320  0.5478 -0.0744
  159MOL0     C21367   8.227   2.845   7.070  0.1116  0.8036  0.1321
  159MOL0     C21368   8.369   2.816   7.034 -0.1592  0.0542 -0.6909
  159MOL0     C21369   8.383   2.804   6.883  0.4682 -0.1363 -0.1761
  159MOL0     C21370   8.530   2.796   6.861 -0.4373 -0.2177  0.2109
  159MOL0     C21371   8.560   2.768   6.715 -0.4775  0.7223 -1.3022
  159MOL0     C21372   8.688   2.831   6.679 -0.4081 -0.1252  0.4258
  159MOL0     C21373   8.723   2.810   6.534  0.2243 -0.6144 -0.5788
  159MOL0     C21374   8.856   2.885   6.505  0.5842 -0.5822 -0.2765
  159MOL0    Cl21375   8.940   2.848   6.351  0.1334 -0.0458  0.2332
  159MOL0     C21376   7.940   2.864   7.124  0.1385  0.0028  0.2677
  159MOL0     C21377   7.795   2.855   7.132 -0.2548 -0.0648  0.5443
  159MOL0     O21378   7.519   2.534   7.053 -0.1491  0.0242 -0.0958
  159MOL0     C21379   7.356   2.799   7.234  0.7472  0.4287 -0.1216
  159MOL0     C21380   7.233   2.838   7.289 -0.0641 -0.5891 -0.0309
  159MOL0     N21381   6.988   2.913   7.871 -0.7623 -0.3343 -0.1994
  159MOL0     N21382   7.070   2.955   7.958 -0.1520 -0.8351 -0.0294
  159MOL0     C21383   8.263   2.800   7.896 -0.0265  0.5114  0.3669
  159MOL0     C21384   8.391   2.744   7.887 -0.1673 -0.4105 -0.8112
  159MOL0     C21385   8.834   2.713   7.853 -0.1528 -0.4919  0.2407
  159MOL0     C21386   8.914   2.654   7.756 -0.0080  1.0413 -0.3834
  159MOL0     C21387   9.048   2.625   7.777  0.6821 -0.4836 -0.1757
  159MOL0     C21388   9.105   2.674   7.895 -0.1043  0.0218  0.6620
  159MOL0     O21389   9.240   2.645   7.907  0.4315  0.0172  0.2573
  159MOL0     C21390   9.310   2.677   8.023 -0.1758 -0.1134 -0.3416
  159MOL0     C21391   9.459   2.643   8.010 -0.4755  0.3287 -0.0491
  159MOL0     C21392   9.491   2.496   7.975  0.8428 -0.9347 -0.0010
  159MOL0     C21393   9.421   2.385   8.052  0.0025  0.3130  0.5822
  159MOL0     C21394   9.475   2.400   8.193 -1.0116 -0.7216  0.1927
  159MOL0     C21395   9.523   2.427   8.300 -0.2251 -0.3639 -0.3404
  159MOL0     C21396   9.031   2.749   7.986 -0.8981 -0.6990  0.1075
  159MOL0     C21397   8.894   2.759   7.973 -0.4355 -0.9948 -0.0594
  159MOL0     H21398   8.571   3.011   7.999  0.7266  0.3216 -0.6330
  159MOL0     H21399   8.355   3.117   7.996  1.1935 -0.7679 -0.3095
  159MOL0     H21400   8.106   3.200   7.952  3.6063 -0.5839  0.9699
  159MOL0     H21401   8.184   3.138   7.802 -2.3082 -1.7487 -3.9642
  159MOL0     H21402   7.961   3.250   7.763  2.9476  0.3300 -0.6129
  159MOL0     H21403   7.976   3.079   7.715  0.4324 -0.9094  0.7506
  159MOL0     H21404   7.844   3.036   7.944  0.2378  0.5285  0.6462
  159MOL0     H21405   7.828   3.210   7.949 -3.9210 -0.6611 -0.3245
  159MOL0     H21406   7.698   3.209   7.738 -0.3227 -0.7370 -2.5478
  159MOL0     H21407   7.747   3.037   7.711  0.4259 -1.4992  1.5661
  159MOL0     H21408   7.596   2.966   7.887  0.0629  0.3074  1.2539
  159MOL0     H21409   7.599   3.125   7.965  1.7538 -0.8090  0.1166
  159MOL0     H21410   7.501   3.204   7.718  3.5538 -1.6282 -0.9464
  159MOL0     H21411   7.456   3.033   7.717 -1.2804  0.5076 -0.5048
  159MOL0     H21412   7.367   3.232   7.924  2.3132 -1.3879  1.0173
  159MOL0     H21413   7.275   3.162   7.791  0.8414  1.1617 -0.8684
  159MOL0     H21414   7.302   3.054   8.060  3.1603 -1.4938  1.0917
  159MOL0     H21415   7.393   2.945   7.955 -0.6135 -0.3676 -2.2343
  159MOL0     H21416   7.262   2.927   7.697  0.9166 -2.7833  0.2568
  159MOL0     H21417   6.958   2.966   7.562 -0.6854 -0.7971 -0.7513
  159MOL0     H21418   7.073   2.829   7.560  0.1709  1.5429 -1.1767
  159MOL0     H21419   6.805   2.803   7.696  1.2852 -0.1905  2.5960
  159MOL0     H21420   6.922   2.672   7.652  1.0655  0.5809 -0.6846
  159MOL0     H21421   6.757   2.841   7.458 -0.6272 -0.0093  2.3148
  159MOL0     H21422   6.728   2.665   7.498  0.5083 -1.5656 -0.7671
  159MOL0     H21423   6.826   2.649   7.305 -2.4494  1.9617  1.3210
  159MOL0     H21424   6.944   2.601   7.427  2.0471  1.8247  0.2197
  159MOL0     H21425   7.032   2.589   7.172 -1.2712  1.3089  0.7109
  159MOL0     H21426   7.230   2.493   6.971 -0.6883  0.2115  0.3361
  159MOL0     H21427   7.335   2.399   7.078  0.5240 -0.4739 -3.0715
  159MOL0     H21428   7.164   2.400   7.099  0.4186 -0.0754  0.9578
  159MOL0     H21429   7.750   2.533   7.024 -0.2817  1.3023 -1.0943
  159MOL0     H21430   7.983   2.554   6.993  0.1440 -0.4576  1.6314
  159MOL0     H21431   8.191   2.937   7.023  1.0434  1.4194  0.5933
  159MOL0     H21432   8.218   2.868   7.176  0.7347  1.7697 -0.0093
  159MOL0     H21433   8.441   2.884   7.081 -4.1035  2.1186  3.1685
  159MOL0     H21434   8.393   2.726   7.091  0.4211  0.7606  0.2161
  159MOL0     H21435   8.352   2.887   6.819  3.1279 -1.3000 -3.2392
  159MOL0     H21436   8.329   2.713   6.855  1.3367 -0.6954 -0.0708
  159MOL0     H21437   8.565   2.899   6.876  1.7964 -0.4717 -2.4193
  159MOL0     H21438   8.570   2.717   6.924 -0.1455 -1.5867 -1.6129
  159MOL0     H21439   8.483   2.800   6.645  0.6735 -0.8132 -3.3762
  159MOL0     H21440   8.574   2.662   6.693 -1.3177  0.2457  0.2405
  159MOL0     H21441   8.677   2.939   6.694 -3.9017  0.1567 -2.7053
  159MOL0     H21442   8.773   2.788   6.731  0.5747  0.8770 -0.3161
  159MOL0     H21443   8.644   2.841   6.465 -0.2879 -2.9055 -1.1150
  159MOL0     H21444   8.736   2.704   6.513 -3.0471 -0.8650 -1.9689
  159MOL0     H21445   8.922   2.865   6.590  2.4439  4.6567 -0.1711
  159MOL0     H21446   8.837   2.992   6.513 -2.2706 -1.1453  1.9470
  159MOL0     H21447   7.991   2.942   7.181 -1.7090  0.0502  1.9678
  159MOL0     H21448   7.741   2.934   7.183  0.2943 -0.1353  1.2595
  159MOL0     H21449   7.449   2.850   7.254  1.4720 -0.2416 -1.6317
  159MOL0     H21450   7.241   2.927   7.350  1.2710 -0.0334 -0.9639
  159MOL0     H21451   8.173   2.747   7.866  0.1735  0.2252  0.2737
  159MOL0     H21452   8.405   2.637   7.872 -0.7626 -0.8560  1.3903
  159MOL0     H21453   8.863   2.622   7.665 -1.7571  0.6771  0.6720
  159MOL0     H21454   9.100   2.568   7.701  1.8056  0.4285 -0.1105
  159MOL0     H21455   9.298   2.784   8.046  1.3673 -0.1610  0.7747
  159MOL0     H21456   9.263   2.614   8.099 -0.4208 -0.7171 -0.9895
  159MOL0     H21457   9.502   2.652   8.111 -1.4013 -1.1391  0.4981
  159MOL0     H21458   9.501   2.702   7.928 -0.3488 -1.1817 -1.0899
  159MOL0     H21459   9.599   2.479   7.974  0.7900 -1.3784 -1.5279
  159MOL0     H21460   9.440   2.480   7.879  1.8547 -0.5395 -0.6219
  159MOL0     H21461   9.458   2.288   8.016  2.1126  0.1845  2.8431
  159MOL0     H21462   9.312   2.378   8.061 -0.2003  1.5077 -0.5949
  159MOL0     H21463   9.571   2.453   8.393 -2.4847  0.9296  0.5433
  159MOL0     H21464   9.081   2.795   8.070  0.5301  2.0498 -2.0684
  159MOL0     H21465   8.836   2.805   8.052  1.7778  1.1106  0.4855
  160MOL0     O21466   3.395   7.444  10.822 -0.0506  0.1349 -0.0372
  160MOL0     C21467   3.446   7.493  10.725 -0.1529  0.0924 -0.9116
  160MOL0     O21468   3.412   7.619  10.673 -0.1316 -0.0382 -0.2273
  160MOL0     C21469   3.319   7.698  10.736 -0.4232  0.7172 -0.3553
  160MOL0     C21470   3.370   7.819  10.782  0.5583 -0.1353  0.4495
  160MOL0     C21471   3.276   7.907  10.839 -0.7303  0.2070  0.0510
  160MOL0     C21472   3.145   7.870  10.864  0.4173  1.0160 -0.3863
  160MOL0     O21473   3.058   7.970  10.911 -0.1660 -0.8834  0.6353
  160MOL0     C21474   2.914   7.955  10.894 -0.4399  0.2218  0.0882
  160MOL0     C21475   2.847   8.090  10.921 -0.3055  1.2341  0.4724
  160MOL0     C21476   2.713   8.107  10.842 -0.4056 -0.5957 -1.0762
  160MOL0     C21477   2.649   8.226  10.901  0.5039 -0.0138  0.5065
  160MOL0     C21478   2.511   8.247  10.830 -0.1355 -0.1056 -0.6357
  160MOL0     C21479   2.441   8.377  10.881  0.2145  0.8678 -0.2729
  160MOL0     C21480   2.308   8.414  10.812 -0.4936  0.4204 -0.0073
  160MOL0     C21481   2.236   8.284  10.779 -1.0311  0.9433 -0.3578
  160MOL0     N21482   2.096   8.302  10.748 -0.6420 -0.1786  0.4169
  160MOL0     C21483   2.026   8.217  10.669  0.0182  0.2797  0.6871
  160MOL0     C21484   1.897   8.256  10.683  0.7961  0.6449 -0.1349
  160MOL0     C21485   1.778   8.195  10.608  0.9432  0.0228 -0.6422
  160MOL0     C21486   1.687   8.133  10.712  0.0934  0.6171  0.3830
  160MOL0     C21487   1.562   8.083  10.661 -0.7589  0.7285 -0.9506
  160MOL0     C21488   1.448   8.058  10.761 -0.4073 -0.3532  0.4992
  160MOL0     O21489   1.401   8.184  10.812 -0.0093 -0.4180 -0.0249
  160MOL0     C21490   1.285   8.194  10.888  0.7729 -0.9494 -0.1647
  160MOL0     C21491   1.213   8.086  10.941  0.1867  0.4721  0.3828
  160MOL0     C21492   1.102   8.117  11.019 -0.3287 -0.7096 -0.7375
  160MOL0     C21493   1.016   8.005  11.049  0.1496 -0.4598  0.5680
  160MOL0     C21494   1.066   8.256  11.050 -0.3889  1.3299 -0.4218
  160MOL0     C21495   0.939   8.294  11.107  0.2374 -0.1850 -0.1989
  160MOL0     O21496   0.922   8.283  11.239 -0.7650  0.3986 -0.2084
  160MOL0     C21497   0.798   8.324  11.290 -0.3990 -0.4759 -0.5989
  160MOL0     C21498   0.710   8.236  11.349  0.4825  1.1320  0.3922
  160MOL0     C21499   0.581   8.258  11.401  0.6168  0.6266 -0.3697
  160MOL0     C21500   0.528   8.393  11.393 -0.7436  1.1470 -0.6927
  160MOL0     O21501   0.395   8.426  11.429 -0.1254  0.2548 -0.1026
  160MOL0     C21502   0.300   8.327  11.474 -0.0675  0.7273  0.4531
  160MOL0     C21503   0.168   8.390  11.468  0.1029  0.3197  0.0394
  160MOL0     C21504   0.057   8.286  11.505 -0.1340 -0.5569  0.0456
  160MOL0     C21505  -0.064   8.352  11.570  0.2761  0.2762  0.1074
  160MOL0     C21506  -0.176   8.247  11.615 -0.9943 -0.0012  0.7054
  160MOL0     C21507  -0.235   8.152  11.506  0.2972 -0.3826 -0.2812
  160MOL0     C21508  -0.366   8.075  11.539 -0.2112 -0.4663  0.2900
  160MOL0     C21509  -0.416   7.973  11.435 -0.2527 -0.3599  0.4071
  160MOL0    Cl21510  -0.558   7.881  11.496 -0.0554  0.2154 -0.1556
  160MOL0     C21511   0.618   8.482  11.332  0.7349 -0.1468  0.1923
  160MOL0     C21512   0.746   8.451  11.278 -0.1854  0.1595  0.4147
  160MOL0     O21513   0.851   8.316  11.024 -0.5391 -0.0147 -0.4041
  160MOL0     C21514   1.152   8.353  11.009 -0.5077 -0.4069 -0.2779
  160MOL0     C21515   1.257   8.322  10.927 -0.1015 -0.4715 -0.7215
  160MOL0     N21516   1.889   8.366  10.770 -0.1059  0.3542  0.7495
  160MOL0     N21517   2.015   8.390  10.802  0.3324  0.5391 -0.3427
  160MOL0     C21518   3.094   7.744  10.827  0.2783  0.5713  0.2452
  160MOL0     C21519   3.188   7.659  10.758 -0.1633 -0.1280  0.6171
  160MOL0     C21520   3.561   7.430  10.671 -0.7158  0.1923 -0.3349
  160MOL0     C21521   3.639   7.501  10.592 -0.8044  0.2846 -0.2760
  160MOL0     C21522   3.766   7.454  10.552  0.8135  0.4169 -0.0387
  160MOL0     C21523   3.805   7.327  10.596  0.3815  0.1494 -0.1631
  160MOL0     O21524   3.920   7.265  10.560  0.5427  0.4543 -0.1683
  160MOL0     C21525   3.946   7.250  10.422 -0.1059 -0.0612  0.2265
  160MOL0     C21526   3.955   7.104  10.394  0.2403  0.8265 -0.3534
  160MOL0     C21527   3.825   7.016  10.398  0.4758 -1.0274 -0.9344
  160MOL0     C21528   3.727   7.040  10.277  0.1436  0.4409  0.4140
  160MOL0     C21529   3.647   7.162  10.297 -0.5054 -0.2098  0.5541
  160MOL0     C21530   3.584   7.258  10.312 -0.0013 -0.1189 -0.3969
  160MOL0     C21531   3.719   7.255  10.679 -0.1522  0.4162 -0.0315
  160MOL0     C21532   3.597   7.302  10.719 -0.8965  0.0754 -0.1944
  160MOL0     H21533   3.472   7.848  10.762  1.2060 -1.8277  1.1837
  160MOL0     H21534   3.304   8.011  10.853 -0.1508  0.0150  0.3483
  160MOL0     H21535   2.904   7.919  10.792 -0.4063 -1.3252  0.6010
  160MOL0     H21536   2.886   7.872  10.959 -4.5344  1.7496  0.5678
  160MOL0     H21537   2.844   8.103  11.029 -0.6213  0.2358  0.5940
  160MOL0     H21538   2.920   8.163  10.883  1.3759  0.1936  1.5948
  160MOL0     H21539   2.735   8.121  10.736  1.0012 -2.8577 -1.1497
  160MOL0     H21540   2.647   8.020  10.849 -0.5572 -0.3522  1.6193
  160MOL0     H21541   2.621   8.215  11.006 -2.9340  2.4328  0.0142
  160MOL0     H21542   2.708   8.318  10.891  1.5879 -0.9083 -2.0511
  160MOL0     H21543   2.521   8.274  10.724  0.5007  2.2001 -0.0487
  160MOL0     H21544   2.445   8.161  10.843 -0.7207  0.8029  5.5546
  160MOL0     H21545   2.425   8.357  10.987 -0.9468  0.6900 -0.4660
  160MOL0     H21546   2.503   8.466  10.871 -1.1966  1.7726 -1.3163
  160MOL0     H21547   2.244   8.470  10.882 -1.7596 -1.6861  0.5977
  160MOL0     H21548   2.323   8.477  10.724 -2.9612  0.4136 -0.5158
  160MOL0     H21549   2.246   8.218  10.865  2.2000  1.3541 -0.2791
  160MOL0     H21550   2.294   8.231  10.702 -1.4589 -1.2859  0.7986
  160MOL0     H21551   2.058   8.142  10.597 -0.4367  0.2094  0.5544
  160MOL0     H21552   1.715   8.272  10.564 -2.2661 -1.4858  0.9697
  160MOL0     H21553   1.814   8.123  10.534  1.5220  1.4191 -1.7671
  160MOL0     H21554   1.660   8.214  10.780 -0.8728  0.6903 -0.0785
  160MOL0     H21555   1.746   8.067  10.776  2.5743  0.3478 -1.9904
  160MOL0     H21556   1.583   7.989  10.610 -1.7735  1.0129 -1.9221
  160MOL0     H21557   1.521   8.149  10.583 -0.8272 -0.3298 -1.8319
  160MOL0     H21558   1.477   8.007  10.853 -0.9481 -2.3673 -0.4036
  160MOL0     H21559   1.374   8.011  10.695  1.6641  1.7709 -3.7408
  160MOL0     H21560   1.238   7.985  10.911  0.5951  0.3565  1.0909
  160MOL0     H21561   0.941   8.008  10.969  0.8653 -0.7451 -0.1265
  160MOL0     H21562   1.070   7.910  11.057 -0.7646 -0.9284  1.3452
  160MOL0     H21563   0.962   8.015  11.144 -1.0572 -1.4562  0.0276
  160MOL0     H21564   0.735   8.131  11.350 -1.9614  0.3074 -3.2610
  160MOL0     H21565   0.532   8.168  11.435  2.5524  0.7801  3.3742
  160MOL0     H21566   0.301   8.238  11.412  0.0911  1.2112 -0.2524
  160MOL0     H21567   0.333   8.293  11.572  2.8883  0.8443 -0.4121
  160MOL0     H21568   0.165   8.473  11.540  1.9854  0.1157  0.3835
  160MOL0     H21569   0.142   8.435  11.372 -1.8598 -2.0489 -0.6243
  160MOL0     H21570   0.113   8.224  11.575  0.2798  2.2560  2.4178
  160MOL0     H21571   0.021   8.229  11.419  2.3313 -1.1130 -0.6856
  160MOL0     H21572  -0.021   8.407  11.654 -1.4817  0.5957  0.8372
  160MOL0     H21573  -0.112   8.423  11.503 -0.9945 -0.2119  0.4639
  160MOL0     H21574  -0.265   8.291  11.662 -1.8394 -1.0079  0.1100
  160MOL0     H21575  -0.133   8.183  11.693 -1.0243  2.5463  2.9818
  160MOL0     H21576  -0.239   8.207  11.412 -1.9133  2.1206  1.1496
  160MOL0     H21577  -0.161   8.072  11.493  2.3988  1.5167 -0.6261
  160MOL0     H21578  -0.444   8.145  11.572  2.3064  2.3884  0.6888
  160MOL0     H21579  -0.342   8.026  11.634 -0.0138  0.6530  0.8437
  160MOL0     H21580  -0.334   7.903  11.418  0.3915  0.2080  1.1418
  160MOL0     H21581  -0.442   8.014  11.337 -1.6823 -1.0323  0.4772
  160MOL0     H21582   0.586   8.585  11.330 -0.5881 -0.5347  0.1410
  160MOL0     H21583   0.812   8.524  11.232  1.5236 -1.7590 -0.3292
  160MOL0     H21584   1.131   8.455  11.042 -0.9951 -0.1857 -1.2400
  160MOL0     H21585   1.328   8.400  10.903  0.5598 -1.3437 -1.6657
  160MOL0     H21586   2.995   7.700  10.839  1.0923 -1.8457 -1.1694
  160MOL0     H21587   3.148   7.564  10.722 -2.9815  1.3714 -0.5546
  160MOL0     H21588   3.619   7.605  10.570 -0.3509  0.6243  0.8417
  160MOL0     H21589   3.837   7.506  10.488  1.5319  0.2473  0.5977
  160MOL0     H21590   3.883   7.315  10.360  2.9865 -0.0078 -3.2359
  160MOL0     H21591   4.045   7.287  10.392  0.9456 -1.2126  2.1084
  160MOL0     H21592   4.024   7.061  10.468 -0.6114  2.0433  1.2129
  160MOL0     H21593   3.988   7.089  10.291 -0.6280 -0.9543 -0.4030
  160MOL0     H21594   3.782   7.036  10.497  1.6410 -1.8191 -0.2377
  160MOL0     H21595   3.840   6.908  10.398 -0.9945 -1.2474 -1.2876
  160MOL0     H21596   3.664   6.952  10.288  1.0375 -0.0494  1.7274
  160MOL0     H21597   3.786   7.028  10.185  0.1490 -2.1720  0.6934
  160MOL0     H21598   3.519   7.343  10.306 -2.8059 -1.8666  2.3689
  160MOL0     H21599   3.747   7.151  10.698 -1.1443  0.1257 -0.1131
  160MOL0     H21600   3.535   7.252  10.793 -0.5340  1.6363  1.2135
  161MOL0     O21601   5.389   9.800   9.593 -0.3671 -0.2899  0.1820
  161MOL0     C21602   5.423   9.822   9.707 -0.0047 -0.0224  0.1053
  161MOL0     O21603   5.339   9.877   9.806  0.5844 -0.2710  0.3306
  161MOL0     C21604   5.203   9.879   9.781 -0.8220 -0.1287 -0.6992
  161MOL0     C21605   5.133   9.991   9.834 -0.9991 -0.7807  0.4526
  161MOL0     C21606   4.994   9.989   9.834 -0.1731  0.7037 -0.2425
  161MOL0     C21607   4.918   9.885   9.777  0.4887  0.1274 -0.0026
  161MOL0     O21608   4.776   9.881   9.773 -0.6040 -0.5817  0.6685
  161MOL0     C21609   4.713   9.995   9.718  0.7897  0.2684 -0.0674
  161MOL0     C21610   4.581   9.948   9.655 -0.3263 -0.6482 -0.8700
  161MOL0     C21611   4.502  10.070   9.611  0.2962 -0.5851 -0.4534
  161MOL0     C21612   4.392  10.020   9.517  0.0689 -0.0116  0.5475
  161MOL0     C21613   4.293   9.934   9.595  0.3747  0.0725  0.2728
  161MOL0     C21614   4.177   9.895   9.503  0.1180 -0.2948  0.1321
  161MOL0     C21615   4.062   9.863   9.599 -0.8317 -0.2631 -0.5108
  161MOL0     C21616   3.939   9.810   9.537 -0.1202 -0.2253  0.0379
  161MOL0     N21617   3.828   9.850   9.625  0.5243  0.5935 -0.1652
  161MOL0     C21618   3.775   9.770   9.724  0.1704 -0.7760  0.0344
  161MOL0     C21619   3.681   9.844   9.785  0.2459 -0.2670  0.4358
  161MOL0     C21620   3.591   9.805   9.903 -0.3228  0.4333  0.9803
  161MOL0     C21621   3.473   9.902   9.922 -0.1917  0.0874  0.4109
  161MOL0     C21622   3.355   9.898   9.817 -0.9125 -1.0357  0.6134
  161MOL0     C21623   3.260   9.795   9.847 -0.0684 -0.1745 -0.0296
  161MOL0     O21624   3.167   9.835   9.949  0.7368 -0.3859  0.4595
  161MOL0     C21625   3.083   9.940   9.932  0.5216  1.6336  0.5739
  161MOL0     C21626   3.046   9.988   9.810 -0.5706  0.4843  0.3314
  161MOL0     C21627   2.960  10.097   9.791 -1.3404 -0.3854  0.3822
  161MOL0     C21628   2.940  10.140   9.643  0.1098  0.2890 -0.2312
  161MOL0     C21629   2.912  10.162   9.905  0.0047  0.6627 -0.4743
  161MOL0     C21630   2.834  10.294   9.906 -0.3169 -0.5680  0.2618
  161MOL0     O21631   2.801  10.350   9.785 -0.9558  0.8588  0.2239
  161MOL0     C21632   2.736  10.471   9.783  0.9280 -0.3279  0.5852
  161MOL0     C21633   2.599  10.475   9.827 -0.0901 -0.4583  0.1665
  161MOL0     C21634   2.527  10.595   9.810 -0.3253  0.0194 -0.5379
  161MOL0     C21635   2.591  10.706   9.752 -0.9661  0.1765 -0.3085
  161MOL0     O21636   2.519  10.820   9.761 -0.2820  0.4490 -0.5677
  161MOL0     C21637   2.584  10.939   9.803  0.5241  0.3609 -0.1193
  161MOL0     C21638   2.517  10.988   9.926 -0.8813  0.6022 -0.2283
  161MOL0     C21639   2.381  11.061   9.890  0.1717 -0.1806 -0.0862
  161MOL0     C21640   2.304  11.101  10.008 -0.0354 -0.0382  0.0679
  161MOL0     C21641   2.188  11.201   9.976 -0.2494 -1.0059  0.2628
  161MOL0     C21642   2.133  11.254  10.109  0.5740 -0.9106 -0.3542
  161MOL0     C21643   1.996  11.319  10.107 -0.0763 -0.4853 -0.7055
  161MOL0     C21644   1.953  11.386  10.240 -0.6618  0.8968  0.2964
  161MOL0    Cl21645   1.906  11.252  10.364  0.0043 -0.2838  0.1476
  161MOL0     C21646   2.719  10.698   9.701 -0.5351  0.2531 -0.6012
  161MOL0     C21647   2.786  10.580   9.713  0.8315  0.4338  0.1146
  161MOL0     O21648   2.823  10.348  10.013  0.2354 -0.2177  0.3591
  161MOL0     C21649   2.932  10.101  10.028 -0.8086 -0.4972 -0.3685
  161MOL0     C21650   3.019   9.993  10.041 -0.7314 -0.9393 -0.4544
  161MOL0     N21651   3.694   9.972   9.727  0.4182  0.2300 -0.7052
  161MOL0     N21652   3.779   9.971   9.638  0.1923 -0.5785  0.9016
  161MOL0     C21653   4.992   9.791   9.702 -0.2717  0.6917 -0.0709
  161MOL0     C21654   5.131   9.781   9.705  0.9821  0.1209  0.2537
  161MOL0     C21655   5.565   9.802   9.747  0.8403  0.4889 -0.1803
  161MOL0     C21656   5.615   9.861   9.870  0.6070 -0.7130 -0.3412
  161MOL0     C21657   5.739   9.825   9.907 -0.0242 -0.2363  0.1095
  161MOL0     C21658   5.836   9.754   9.827  0.0698 -0.5214 -0.1559
  161MOL0     O21659   5.965   9.727   9.869 -0.5646 -0.1826  0.2517
  161MOL0     C21660   6.008   9.802   9.984  0.4686  0.3894  1.0078
  161MOL0     C21661   6.159   9.808   9.995 -0.4552  0.3786  0.8749
  161MOL0     C21662   6.241   9.676   9.996 -0.3465 -0.1913  0.1268
  161MOL0     C21663   6.378   9.685  10.070 -0.2215  0.2101  0.0199
  161MOL0     C21664   6.459   9.790  10.015  0.5036 -0.0330 -0.2203
  161MOL0     C21665   6.534   9.879   9.977  0.1877  0.1986 -0.4644
  161MOL0     C21666   5.785   9.695   9.713 -0.0661  0.4787 -0.2824
  161MOL0     C21667   5.655   9.717   9.671  0.2375  0.5064  0.5364
  161MOL0     H21668   5.186  10.069   9.887 -1.5457  0.6494 -1.0361
  161MOL0     H21669   4.946  10.075   9.879  0.9841  0.9000  0.6278
  161MOL0     H21670   4.670  10.055   9.799 -0.6385 -2.0268  0.9775
  161MOL0     H21671   4.778  10.056   9.655  1.0490 -1.5918 -1.6835
  161MOL0     H21672   4.597   9.886   9.566  1.4566 -2.6522  0.7492
  161MOL0     H21673   4.524   9.904   9.736  2.3686 -0.0468  1.5092
  161MOL0     H21674   4.452  10.115   9.697  0.0059 -0.7582 -0.5308
  161MOL0     H21675   4.559  10.149   9.561  0.8067  0.3170  1.4780
  161MOL0     H21676   4.337  10.107   9.480 -0.9286 -0.6120  0.5800
  161MOL0     H21677   4.437   9.963   9.435 -2.1086 -3.7630  1.7308
  161MOL0     H21678   4.326   9.838   9.635  0.5128 -0.3063 -0.7439
  161MOL0     H21679   4.253   9.994   9.678 -0.7432  0.4424 -0.5150
  161MOL0     H21680   4.154   9.980   9.438  1.3262  0.9934  1.3258
  161MOL0     H21681   4.211   9.818   9.433  2.4457  0.9087 -0.1833
  161MOL0     H21682   4.096   9.806   9.686 -1.3185  1.5585  0.9387
  161MOL0     H21683   4.038   9.957   9.649 -0.0410 -0.9985  1.3530
  161MOL0     H21684   3.939   9.701   9.525  1.5944 -0.1675 -0.7351
  161MOL0     H21685   3.918   9.856   9.439 -2.0354  1.5651  1.2143
  161MOL0     H21686   3.802   9.666   9.734  1.5533 -0.5857 -1.4960
  161MOL0     H21687   3.551   9.706   9.882  1.3889 -0.2561  0.7806
  161MOL0     H21688   3.645   9.799   9.998 -0.7870  0.7470  1.2720
  161MOL0     H21689   3.501  10.007   9.919 -0.6210  0.1822 -0.9919
  161MOL0     H21690   3.443   9.896  10.027  1.1644 -0.0806  0.7991
  161MOL0     H21691   3.398   9.861   9.724 -0.3408 -2.5280  1.4352
  161MOL0     H21692   3.315   9.999   9.803 -0.5348 -1.0759 -0.8967
  161MOL0     H21693   3.313   9.706   9.882  2.4909  1.4812  0.4927
  161MOL0     H21694   3.217   9.759   9.752  0.1871  4.6611 -2.2430
  161MOL0     H21695   3.084   9.942   9.719  1.9457  0.1709  1.4611
  161MOL0     H21696   2.834  10.141   9.614  0.3296 -2.2119 -1.3618
  161MOL0     H21697   2.989  10.237   9.634  1.1711 -0.4212 -3.3636
  161MOL0     H21698   2.977  10.076   9.562  0.5150 -0.4069  0.4920
  161MOL0     H21699   2.556  10.388   9.875 -2.0941 -1.4472 -3.1128
  161MOL0     H21700   2.424  10.611   9.843 -0.0610  0.4703  0.0820
  161MOL0     H21701   2.689  10.929   9.835  0.1239 -3.6902  0.5156
  161MOL0     H21702   2.553  11.011   9.727 -1.5416  0.8759  1.1244
  161MOL0     H21703   2.500  10.907   9.997 -1.5794  0.6601 -0.3219
  161MOL0     H21704   2.575  11.071   9.968 -0.4082  0.4740 -0.6175
  161MOL0     H21705   2.316  11.003   9.823 -1.9939 -0.4406  2.1053
  161MOL0     H21706   2.405  11.152   9.834 -0.2593  1.1326  1.7571
  161MOL0     H21707   2.279  11.008  10.059 -0.2354 -1.0159 -1.7111
  161MOL0     H21708   2.374  11.158  10.070  2.0479  1.3871 -3.2722
  161MOL0     H21709   2.106  11.146   9.930  0.0439 -1.3382  0.1312
  161MOL0     H21710   2.219  11.281   9.908 -5.5776  0.2292 -1.1680
  161MOL0     H21711   2.113  11.170  10.176 -1.0470  0.8357  1.4730
  161MOL0     H21712   2.201  11.328  10.152 -2.3833  1.1173  1.1836
  161MOL0     H21713   1.916  11.247  10.088 -2.3739  2.2942 -2.4593
  161MOL0     H21714   1.977  11.389  10.025 -2.6214 -1.7759 -1.3171
  161MOL0     H21715   1.861  11.444  10.230 -0.8278  0.2243 -3.5525
  161MOL0     H21716   2.036  11.449  10.274 -0.3544 -0.6389  2.7011
  161MOL0     H21717   2.778  10.779   9.661  0.2389  0.2018  0.4073
  161MOL0     H21718   2.885  10.559   9.672  0.3005 -1.4501 -0.2914
  161MOL0     H21719   2.884  10.140  10.117  0.9055  0.5483  0.1437
  161MOL0     H21720   3.032   9.955  10.142 -3.6470  1.2522  0.8848
  161MOL0     H21721   4.935   9.717   9.648 -1.4651 -0.0934  2.1457
  161MOL0     H21722   5.170   9.695   9.652 -1.6799 -1.1358  0.2134
  161MOL0     H21723   5.548   9.912   9.938  2.5564  2.8991 -0.9253
  161MOL0     H21724   5.768   9.869  10.002 -0.3688 -0.2189  0.2063
  161MOL0     H21725   5.972   9.905   9.976  1.5614  0.8384  1.6260
  161MOL0     H21726   5.957   9.764  10.072 -0.3623 -1.0837 -0.0651
  161MOL0     H21727   6.169   9.861  10.090 -0.0349  0.0231  1.0364
  161MOL0     H21728   6.199   9.862   9.908  0.3943 -2.3881 -0.6037
  161MOL0     H21729   6.251   9.652   9.890  0.5663  2.5126 -0.4570
  161MOL0     H21730   6.186   9.600  10.053 -1.8650  2.1334  1.9708
  161MOL0     H21731   6.426   9.586  10.069 -2.4540 -1.0614 -3.7839
  161MOL0     H21732   6.353   9.711  10.173 -3.5297 -0.9918 -0.3739
  161MOL0     H21733   6.593   9.961   9.942 -0.7978  1.6683  1.1457
  161MOL0     H21734   5.852   9.641   9.647  1.1652 -0.6227  1.7453
  161MOL0     H21735   5.608   9.645   9.605 -2.3154 -1.2346  3.9407
  162MOL0     O21736   9.468   6.801   6.191  0.5583  0.1341  1.1804
  162MOL0     C21737   9.461   6.834   6.307  0.1447 -0.3569  0.1757
  162MOL0     O21738   9.346   6.855   6.378 -0.4551  0.3111 -0.7846
  162MOL0     C21739   9.223   6.838   6.321 -0.6716 -0.3636 -0.9504
  162MOL0     C21740   9.125   6.928   6.359  0.2495 -0.0951  0.6085
  162MOL0     C21741   8.991   6.914   6.310  0.0107  0.4153 -0.5944
  162MOL0     C21742   8.959   6.813   6.219  0.0124 -0.0192 -0.0922
  162MOL0     O21743   8.836   6.799   6.158  0.0197 -0.4519 -0.9530
  162MOL0     C21744   8.817   6.895   6.062  0.1499 -0.1752  0.3598
  162MOL0     C21745   8.723   6.841   5.949  0.0896 -0.4174 -0.6178
  162MOL0     C21746   8.636   6.954   5.876  0.2348 -0.7312 -0.0046
  162MOL0     C21747   8.550   6.900   5.768 -0.0609 -0.7990  0.9112
  162MOL0     C21748   8.417   6.981   5.746  0.1241  0.1441 -1.3805
  162MOL0     C21749   8.320   6.907   5.655 -0.0851 -0.6500  0.4585
  162MOL0     C21750   8.196   6.994   5.635 -0.0029 -0.0602 -0.2422
  162MOL0     C21751   8.096   6.978   5.738  0.0831  1.4184  0.5709
  162MOL0     N21752   7.971   7.058   5.701 -0.4252  0.2658 -0.0908
  162MOL0     C21753   7.896   7.033   5.600  0.2199  0.3133  0.0702
  162MOL0     C21754   7.795   7.124   5.612  0.2416 -0.0433 -1.0562
  162MOL0     C21755   7.685   7.145   5.507 -0.3776 -0.0063  0.4023
  162MOL0     C21756   7.687   7.303   5.480 -0.2324 -0.6628  0.1833
  162MOL0     C21757   7.588   7.370   5.384  0.1223  0.4076  0.6686
  162MOL0     C21758   7.459   7.294   5.367  0.3835  0.7281  0.0896
  162MOL0     O21759   7.478   7.183   5.280 -0.2407  0.1519 -0.7880
  162MOL0     C21760   7.357   7.122   5.235 -0.0977 -0.0939  0.3883
  162MOL0     C21761   7.303   7.148   5.105  1.1308  0.2906  0.0829
  162MOL0     C21762   7.206   7.061   5.045  0.0340 -0.0032 -0.8253
  162MOL0     C21763   7.156   7.118   4.911 -0.0555  0.0150 -1.1735
  162MOL0     C21764   7.166   6.956   5.119  0.2597 -0.3888 -0.5277
  162MOL0     C21765   7.067   6.865   5.077 -0.0472  1.0292  0.1151
  162MOL0     O21766   6.984   6.804   5.168  0.2094  0.1027 -0.0232
  162MOL0     C21767   6.878   6.735   5.120  0.0773  0.4095  0.5615
  162MOL0     C21768   6.791   6.778   5.010 -0.0235  0.3511  0.1166
  162MOL0     C21769   6.689   6.695   4.975 -0.5568  0.5161  0.4793
  162MOL0     C21770   6.655   6.584   5.045 -1.6407  0.6126  0.2541
  162MOL0     O21771   6.555   6.516   4.990 -0.4422  0.2478  0.6923
  162MOL0     C21772   6.555   6.373   5.004  0.0700  0.8542  0.3941
  162MOL0     C21773   6.493   6.335   4.872  0.1877  0.0109  0.4828
  162MOL0     C21774   6.348   6.378   4.847 -0.3192  0.7209  0.8148
  162MOL0     C21775   6.293   6.306   4.724 -0.7632  0.1623 -0.1375
  162MOL0     C21776   6.168   6.363   4.676  0.2743 -0.0635  0.6488
  162MOL0     C21777   6.045   6.284   4.735  0.6187  0.3922  0.3092
  162MOL0     C21778   6.010   6.137   4.702  0.4061  1.0056  0.5954
  162MOL0     C21779   5.893   6.089   4.779 -0.2955  0.2710 -0.3051
  162MOL0    Cl21780   5.888   5.920   4.740  0.2327  0.2342  0.3730
  162MOL0     C21781   6.734   6.548   5.152 -0.2618  0.1362  0.2771
  162MOL0     C21782   6.848   6.614   5.186 -0.1107 -0.2892 -0.3430
  162MOL0     O21783   7.074   6.833   4.957  0.0472  0.6244  0.2702
  162MOL0     C21784   7.208   6.928   5.248 -0.1145  0.1444  0.5179
  162MOL0     C21785   7.303   7.018   5.305 -0.0236  0.4436 -0.3389
  162MOL0     N21786   7.815   7.195   5.728  0.0277  0.0081  0.4222
  162MOL0     N21787   7.917   7.151   5.789  0.1962 -1.0951 -0.4700
  162MOL0     C21788   9.058   6.719   6.194  0.9855 -0.6847  0.6591
  162MOL0     C21789   9.189   6.731   6.237 -0.6109 -0.5061 -0.6498
  162MOL0     C21790   9.596   6.852   6.371  0.1096  0.8782  0.2480
  162MOL0     C21791   9.721   6.823   6.300  0.5038  0.1075  0.4909
  162MOL0     C21792   9.847   6.844   6.370  0.2977  0.0309  0.1622
  162MOL0     C21793   9.851   6.887   6.504 -0.3162 -0.4695 -0.5990
  162MOL0     O21794   9.970   6.919   6.571  0.0450  0.7021 -1.3531
  162MOL0     C21795  10.090   6.925   6.491  1.0196  0.0988 -0.1855
  162MOL0     C21796  10.217   6.952   6.557 -0.9669  0.4120  0.2958
  162MOL0     C21797  10.234   6.853   6.675  0.4062 -0.1234 -0.3204
  162MOL0     C21798  10.369   6.887   6.752 -0.6764  0.5307  0.6014
  162MOL0     C21799  10.488   6.889   6.671 -0.3109  0.1790 -0.2383
  162MOL0     C21800  10.581   6.874   6.599 -0.9455 -0.4890 -0.5908
  162MOL0     C21801   9.739   6.917   6.565 -0.0702  0.3785  0.0901
  162MOL0     C21802   9.615   6.905   6.504  0.3504  0.1336  0.3368
  162MOL0     H21803   9.168   6.998   6.430  0.4455  1.9216 -1.4042
  162MOL0     H21804   8.928   6.997   6.341  1.7819  1.2617  0.9809
  162MOL0     H21805   8.784   6.992   6.099 -0.2469  0.2162 -0.9541
  162MOL0     H21806   8.910   6.924   6.011 -1.6135  0.3757 -2.8344
  162MOL0     H21807   8.791   6.801   5.873  0.2847  1.5844 -1.5495
  162MOL0     H21808   8.660   6.759   5.985 -0.4819  0.9231  1.6441
  162MOL0     H21809   8.575   6.996   5.957 -1.0034 -1.1836 -0.6683
  162MOL0     H21810   8.701   7.027   5.828 -2.0630 -0.6423 -3.3055
  162MOL0     H21811   8.614   6.884   5.681  1.3997  0.9486  1.5985
  162MOL0     H21812   8.510   6.802   5.798 -0.8551 -0.7823 -0.0716
  162MOL0     H21813   8.360   6.979   5.839  3.4557  1.4746  0.9088
  162MOL0     H21814   8.438   7.087   5.727 -0.2372  1.1023  2.6011
  162MOL0     H21815   8.375   6.886   5.563  2.0816  0.3312  1.4669
  162MOL0     H21816   8.308   6.804   5.691  3.9435 -1.4150  0.0605
  162MOL0     H21817   8.216   7.102   5.636 -1.9435  0.3621  2.1895
  162MOL0     H21818   8.167   6.972   5.532  3.8778 -1.6278 -1.1758
  162MOL0     H21819   8.139   7.010   5.833  0.3289  2.5830  0.0824
  162MOL0     H21820   8.066   6.876   5.763 -0.8517  1.4509 -0.3763
  162MOL0     H21821   7.927   6.958   5.528  3.2962 -0.1988  1.7375
  162MOL0     H21822   7.707   7.078   5.423  1.0986  0.7063  0.1992
  162MOL0     H21823   7.589   7.111   5.547  0.2231 -4.0191 -1.0454
  162MOL0     H21824   7.787   7.333   5.449 -0.4592  0.8237  0.7881
  162MOL0     H21825   7.666   7.351   5.576  2.6479 -0.3369  0.7519
  162MOL0     H21826   7.636   7.369   5.285 -0.6144  0.3912  0.3065
  162MOL0     H21827   7.579   7.475   5.411  1.3140  0.8151 -0.3833
  162MOL0     H21828   7.383   7.361   5.327  1.2636  1.2607 -0.7384
  162MOL0     H21829   7.431   7.259   5.467  4.6207  1.6447  1.8411
  162MOL0     H21830   7.345   7.238   5.062  1.8387  0.1494  0.4681
  162MOL0     H21831   7.161   7.048   4.827  0.2327  0.3114 -1.4049
  162MOL0     H21832   7.049   7.141   4.924 -0.2244  0.0444 -2.4602
  162MOL0     H21833   7.205   7.213   4.888 -2.1292  0.3480 -5.1916
  162MOL0     H21834   6.802   6.868   4.952  0.6244 -0.0073 -0.3355
  162MOL0     H21835   6.628   6.735   4.894 -0.2440  1.7261  0.8157
  162MOL0     H21836   6.657   6.336   4.991 -0.1165  0.8325 -1.2228
  162MOL0     H21837   6.503   6.326   5.088 -2.0418  1.0441 -0.7406
  162MOL0     H21838   6.567   6.372   4.800 -1.3259  0.4183 -0.9231
  162MOL0     H21839   6.494   6.226   4.873 -4.3437 -0.2473 -0.4739
  162MOL0     H21840   6.350   6.484   4.822 -0.4685  0.9528  1.7328
  162MOL0     H21841   6.280   6.359   4.931 -1.2418  2.1805  0.4315
  162MOL0     H21842   6.377   6.332   4.660  0.3895  2.2636  2.0615
  162MOL0     H21843   6.280   6.197   4.729 -1.1188  0.2211  0.4638
  162MOL0     H21844   6.168   6.346   4.568  4.5766 -0.3501  0.5310
  162MOL0     H21845   6.167   6.470   4.698 -1.9842  0.6675 -2.2634
  162MOL0     H21846   6.042   6.305   4.843 -0.6204 -0.4422  0.4577
  162MOL0     H21847   5.958   6.337   4.696  0.5892  0.2201  0.1425
  162MOL0     H21848   6.093   6.078   4.740 -0.4580 -0.3554  0.4719
  162MOL0     H21849   5.987   6.125   4.595  0.2968  0.6126  0.6595
  162MOL0     H21850   5.805   6.139   4.738 -1.9246 -0.9910  1.4484
  162MOL0     H21851   5.907   6.104   4.887  0.6357 -6.7297  1.0533
  162MOL0     H21852   6.706   6.461   5.211  0.1758  0.8345  1.5479
  162MOL0     H21853   6.907   6.598   5.275 -0.5979  3.4647  0.8429
  162MOL0     H21854   7.175   6.840   5.303  1.0888 -0.1517  0.8012
  162MOL0     H21855   7.346   7.002   5.403  1.8091 -3.0185 -1.5110
  162MOL0     H21856   9.025   6.640   6.128 -0.5045  0.5160 -0.0969
  162MOL0     H21857   9.263   6.657   6.209 -0.3484 -1.3838  2.0105
  162MOL0     H21858   9.730   6.784   6.200 -2.2155 -0.0312  0.2280
  162MOL0     H21859   9.937   6.840   6.310 -0.4989  0.1973 -1.0813
  162MOL0     H21860  10.102   6.824   6.450 -6.8330 -1.6766  0.2169
  162MOL0     H21861  10.086   6.995   6.407 -0.3181 -0.1139 -0.3262
  162MOL0     H21862  10.222   7.053   6.597  3.3454  1.0089 -1.1660
  162MOL0     H21863  10.300   6.948   6.486  0.3163  2.8242  1.5545
  162MOL0     H21864  10.241   6.749   6.642  1.6658 -0.2542  0.3164
  162MOL0     H21865  10.153   6.850   6.748  0.9268 -2.1950  0.2303
  162MOL0     H21866  10.380   6.807   6.825  0.1136 -1.7168 -1.8386
  162MOL0     H21867  10.354   6.986   6.797 -1.4787 -0.1461  1.8743
  162MOL0     H21868  10.649   6.873   6.516 -2.8851 -2.0852 -2.2655
  162MOL0     H21869   9.748   6.940   6.671  0.0614  0.1898  0.1209
  162MOL0     H21870   9.522   6.923   6.558 -0.1444 -1.4130  0.0559
  163MOL0     O21871   8.754   0.979   7.418  0.3318  0.5780 -1.1558
  163MOL0     C21872   8.735   0.925   7.307  0.1118  0.0555 -0.0056
  163MOL0     O21873   8.613   0.903   7.244  0.1681  0.3958  0.3131
  163MOL0     C21874   8.485   0.930   7.290 -0.4682 -0.6360 -0.0281
  163MOL0     C21875   8.378   0.913   7.200  0.8907 -0.6036  0.2018
  163MOL0     C21876   8.244   0.930   7.236 -0.3291 -0.0506 -0.6781
  163MOL0     C21877   8.214   0.956   7.368 -0.0724 -1.3665  0.1603
  163MOL0     O21878   8.084   0.985   7.404  0.1160  0.5358  0.3716
  163MOL0     C21879   7.974   0.925   7.325 -0.1889  0.0267  0.6803
  163MOL0     C21880   7.840   0.976   7.376  0.1104 -0.0419  0.6091
  163MOL0     C21881   7.783   1.106   7.311 -0.7352  0.2816  0.0377
  163MOL0     C21882   7.717   1.088   7.165 -0.0160  0.2729 -0.0875
  163MOL0     C21883   7.625   1.206   7.140  0.2022  0.4067 -0.1056
  163MOL0     C21884   7.545   1.198   7.007  0.7182  0.4895  0.6108
  163MOL0     C21885   7.437   1.310   6.996 -0.0405  0.1150  0.3909
  163MOL0     C21886   7.364   1.324   6.862 -0.6096 -0.2479  0.2365
  163MOL0     N21887   7.266   1.221   6.845  0.1601  0.2526 -0.2338
  163MOL0     C21888   7.154   1.216   6.922 -0.0599 -0.1200 -0.5357
  163MOL0     C21889   7.110   1.089   6.902 -0.4340 -0.4807  0.0441
  163MOL0     C21890   6.988   1.027   6.962  0.6702  0.2994 -0.4113
  163MOL0     C21891   6.861   1.115   6.957  0.3369 -1.0792  0.4414
  163MOL0     C21892   6.732   1.038   6.954  0.3660 -0.2554 -0.1773
  163MOL0     C21893   6.711   0.955   7.081  0.1946 -0.6609 -0.6638
  163MOL0     O21894   6.742   1.035   7.200 -0.0251  0.0138 -0.3645
  163MOL0     C21895   6.705   0.971   7.317  0.3912 -0.0419  0.2176
  163MOL0     C21896   6.803   0.932   7.411  0.1272  0.1597  0.7745
  163MOL0     C21897   6.781   0.883   7.538  1.0965 -0.6199 -0.0019
  163MOL0     C21898   6.894   0.857   7.634  0.6350  0.0792  0.9356
  163MOL0     C21899   6.641   0.860   7.580 -0.3308 -0.0876 -0.0081
  163MOL0     C21900   6.609   0.832   7.724  0.1283 -0.5990  0.1025
  163MOL0     O21901   6.492   0.881   7.764  0.2350 -0.3860  0.0486
  163MOL0     C21902   6.423   0.820   7.862  0.3001 -0.1905  0.0137
  163MOL0     C21903   6.449   0.847   8.005 -0.3514  0.2539  0.1968
  163MOL0     C21904   6.373   0.775   8.101 -0.7967  1.1759  0.1700
  163MOL0     C21905   6.272   0.678   8.057 -0.0643 -0.1663  0.0271
  163MOL0     O21906   6.202   0.598   8.149 -0.4705 -0.5694 -0.2281
  163MOL0     C21907   6.234   0.461   8.121  0.1450 -0.5880  0.3767
  163MOL0     C21908   6.253   0.382   8.250  0.0845 -0.9078 -0.2853
  163MOL0     C21909   6.235   0.232   8.229 -0.6517  1.3412 -0.5304
  163MOL0     C21910   6.177   0.155   8.347 -0.1111 -0.6943  0.9346
  163MOL0     C21911   6.165   0.008   8.309 -0.3086 -0.2051  0.3720
  163MOL0     C21912   6.078  -0.027   8.186 -0.1298 -0.3323 -0.2746
  163MOL0     C21913   6.072  -0.179   8.165 -0.2740 -0.1910 -0.2036
  163MOL0     C21914   5.991  -0.238   8.048 -0.1352  0.3547  0.0517
  163MOL0    Cl21915   5.822  -0.191   8.070  0.0023  0.1498  0.3957
  163MOL0     C21916   6.252   0.664   7.922 -0.0514 -0.1109 -0.5687
  163MOL0     C21917   6.322   0.732   7.831 -0.2801 -0.4089  0.7758
  163MOL0     O21918   6.680   0.758   7.787 -0.2932 -0.4096 -0.5681
  163MOL0     C21919   6.541   0.895   7.486  0.2358 -0.4564  1.0292
  163MOL0     C21920   6.572   0.948   7.362  0.4711  0.0554  0.7908
  163MOL0     N21921   7.197   1.021   6.817  0.1726 -1.4569  0.5999
  163MOL0     N21922   7.292   1.103   6.793  0.7511 -0.1364  0.4491
  163MOL0     C21923   8.317   1.001   7.453 -0.0756 -0.5078 -0.8905
  163MOL0     C21924   8.456   0.991   7.417 -0.0565  0.3915  0.7051
  163MOL0     C21925   8.852   0.895   7.220  0.1165 -0.4287 -0.3362
  163MOL0     C21926   8.834   0.867   7.085 -0.2577 -0.8603  0.6603
  163MOL0     C21927   8.944   0.854   7.002 -0.3568 -0.5574  0.4140
  163MOL0     C21928   9.078   0.866   7.047 -0.3295  1.4135 -0.0405
  163MOL0     O21929   9.182   0.870   6.963  0.4302  0.1331 -0.0494
  163MOL0     C21930   9.326   0.864   6.996 -0.4822  0.1694 -0.1405
  163MOL0     C21931   9.374   0.719   7.029 -0.2722  0.8901  0.7088
  163MOL0     C21932   9.517   0.710   7.094  0.8428 -0.4927  0.8330
  163MOL0     C21933   9.630   0.736   6.991 -0.8858 -0.2869  0.2260
  163MOL0     C21934   9.728   0.619   7.005  0.3090 -0.1128  0.3547
  163MOL0     C21935   9.805   0.535   7.025 -0.2971  0.4381 -0.6292
  163MOL0     C21936   9.093   0.885   7.185 -0.1154 -0.6466  0.1043
  163MOL0     C21937   8.985   0.895   7.271  0.1284 -0.4123  0.0009
  163MOL0     H21938   8.390   0.878   7.098 -0.8850 -0.4199 -0.1051
  163MOL0     H21939   8.165   0.909   7.164 -1.7817 -1.5547  1.2434
  163MOL0     H21940   7.973   0.936   7.216 -1.7339  0.8120  0.7428
  163MOL0     H21941   7.975   0.818   7.343 -0.0892  0.0212  0.6421
  163MOL0     H21942   7.768   0.895   7.360  0.9460 -0.4718 -1.1787
  163MOL0     H21943   7.850   0.988   7.485  0.5796 -0.8669  0.6600
  163MOL0     H21944   7.710   1.148   7.382  3.2165  2.4708  3.2313
  163MOL0     H21945   7.867   1.176   7.307  0.0111 -0.6336 -3.4726
  163MOL0     H21946   7.801   1.073   7.097 -0.0343  3.0506 -0.8619
  163MOL0     H21947   7.659   0.996   7.171  0.1306  0.2342  0.9370
  163MOL0     H21948   7.554   1.216   7.223  1.4550  2.4655  0.7820
  163MOL0     H21949   7.690   1.293   7.139 -1.8619  2.0272  0.0955
  163MOL0     H21950   7.616   1.205   6.924 -0.9453  0.0997 -0.9241
  163MOL0     H21951   7.506   1.096   7.012 -1.5171  1.0104 -2.4690
  163MOL0     H21952   7.358   1.285   7.067  2.7852 -1.3980  3.2762
  163MOL0     H21953   7.489   1.406   7.005  2.8959 -1.0283 -2.4696
  163MOL0     H21954   7.439   1.328   6.782  0.5290 -0.1217  1.2804
  163MOL0     H21955   7.315   1.420   6.876  0.0330  0.1533 -0.2362
  163MOL0     H21956   7.097   1.288   6.980 -1.4126 -3.7724  3.1902
  163MOL0     H21957   6.977   0.931   6.911 -3.4492  1.0994 -1.3960
  163MOL0     H21958   7.002   1.014   7.070 -0.7498 -0.0369 -0.2438
  163MOL0     H21959   6.859   1.170   6.862  1.2220  1.1758  1.6516
  163MOL0     H21960   6.860   1.193   7.034 -0.8556 -0.0935 -0.5166
  163MOL0     H21961   6.720   0.962   6.876 -0.2684 -1.6972  1.2498
  163MOL0     H21962   6.657   1.115   6.936  2.4806  2.2050  0.9007
  163MOL0     H21963   6.783   0.873   7.091 -0.8474 -1.4155  1.0797
  163MOL0     H21964   6.608   0.919   7.084  0.5504 -2.1071  5.0225
  163MOL0     H21965   6.904   0.943   7.374 -0.2163 -0.7291 -0.4891
  163MOL0     H21966   6.904   0.755   7.673  1.9002 -0.1205  0.1302
  163MOL0     H21967   6.993   0.883   7.595  1.2373 -1.3406  1.4586
  163MOL0     H21968   6.878   0.912   7.728  2.3657  2.2107  0.0606
  163MOL0     H21969   6.527   0.913   8.040 -0.3752  0.9074 -0.9234
  163MOL0     H21970   6.399   0.775   8.206  0.2983 -3.0479  0.0932
  163MOL0     H21971   6.156   0.419   8.057  0.3821  0.8387 -0.8862
  163MOL0     H21972   6.329   0.454   8.068  0.3638  1.0576  0.5069
  163MOL0     H21973   6.356   0.397   8.282 -0.1160 -0.9810  0.4335
  163MOL0     H21974   6.188   0.421   8.329 -0.3813 -1.4784 -0.3815
  163MOL0     H21975   6.333   0.187   8.208 -1.5744 -1.3973  0.6643
  163MOL0     H21976   6.182   0.214   8.135  0.6401 -1.0814 -0.8752
  163MOL0     H21977   6.241   0.155   8.436  0.9871 -4.0129  0.2952
  163MOL0     H21978   6.070   0.177   8.361 -0.8326 -2.3235 -1.4150
  163MOL0     H21979   6.128  -0.050   8.394 -3.7129  3.0459  1.3789
  163MOL0     H21980   6.265  -0.021   8.277  0.7569  1.6595  1.8400
  163MOL0     H21981   5.976   0.010   8.196 -0.0212 -0.4024  1.3931
  163MOL0     H21982   6.115   0.025   8.098 -2.5591  1.5186 -0.2842
  163MOL0     H21983   6.019  -0.206   8.256 -0.9482  0.8661 -0.2631
  163MOL0     H21984   6.174  -0.216   8.151  1.0506  3.2308 -0.5002
  163MOL0     H21985   6.000  -0.347   8.044 -0.8998  0.2640  0.5276
  163MOL0     H21986   6.023  -0.202   7.949 -1.2089 -2.7640 -1.5714
  163MOL0     H21987   6.180   0.591   7.884 -2.4664  1.0539  1.5176
  163MOL0     H21988   6.295   0.722   7.726  0.9964  1.9958  0.1605
  163MOL0     H21989   6.433   0.890   7.503 -0.9002  5.0097 -2.1205
  163MOL0     H21990   6.486   0.984   7.305 -1.0638 -2.8384  1.1040
  163MOL0     H21991   8.299   1.033   7.555  1.6428 -0.9656 -0.4159
  163MOL0     H21992   8.527   1.019   7.494  1.5783 -1.0672 -0.2058
  163MOL0     H21993   8.736   0.877   7.038  0.5882  3.5524 -0.7044
  163MOL0     H21994   8.941   0.847   6.894  0.6818  1.2731  0.2082
  163MOL0     H21995   9.387   0.904   6.915 -1.9940  1.8813 -0.4914
  163MOL0     H21996   9.342   0.922   7.087  1.5395 -0.8392  0.2080
  163MOL0     H21997   9.367   0.656   6.939 -0.5011 -0.8332  1.8895
  163MOL0     H21998   9.300   0.679   7.099  0.6416 -3.1445 -0.4136
  163MOL0     H21999   9.530   0.622   7.157 -0.7962  0.0722  2.0534
  163MOL0     H22000   9.524   0.796   7.162 -1.8050  0.7363 -0.2986
  163MOL0     H22001   9.681   0.829   7.018 -3.6198  0.9684  1.4476
  163MOL0     H22002   9.593   0.745   6.888  0.0053  0.4632 -0.0466
  163MOL0     H22003   9.878   0.458   7.040 -2.8363 -2.6053 -2.6132
  163MOL0     H22004   9.183   0.916   7.236 -0.0287 -0.9559  0.1448
  163MOL0     H22005   8.990   0.919   7.377 -0.5240  0.5809 -0.1755
  164MOL0     O22006   6.843   7.378   7.386 -0.4648 -0.0033  0.5792
  164MOL0     C22007   6.807   7.479   7.326  0.4700  0.0521  0.2346
  164MOL0     O22008   6.686   7.536   7.342 -1.2919  0.1451 -0.0811
  164MOL0     C22009   6.619   7.493   7.457 -0.7384 -0.1857 -1.0296
  164MOL0     C22010   6.511   7.403   7.453  0.4344  0.3955  0.9811
  164MOL0     C22011   6.432   7.362   7.561 -0.9699 -0.9171 -0.8028
  164MOL0     C22012   6.456   7.412   7.688 -0.6528  0.8672 -0.0872
  164MOL0     O22013   6.367   7.378   7.786 -1.0033  0.1152  0.2934
  164MOL0     C22014   6.413   7.374   7.919 -0.9953 -0.4022 -0.1607
  164MOL0     C22015   6.315   7.322   8.020  1.1891 -0.0802 -0.3713
  164MOL0     C22016   6.196   7.413   8.037 -0.6150  0.6683  0.9700
  164MOL0     C22017   6.095   7.349   8.133  0.4410  0.2466 -0.4758
  164MOL0     C22018   5.995   7.455   8.177  0.7406 -0.8660  0.0952
  164MOL0     C22019   5.884   7.398   8.264  0.2637  0.3687 -0.7315
  164MOL0     C22020   5.790   7.310   8.179  0.0334  0.4484 -0.2153
  164MOL0     C22021   5.643   7.364   8.173  0.4673 -0.9673  0.1446
  164MOL0     N22022   5.561   7.344   8.295  0.0576 -0.0569 -0.0102
  164MOL0     C22023   5.561   7.231   8.376  0.0575  0.4808  0.6410
  164MOL0     C22024   5.490   7.263   8.486  0.0984  0.3076  0.0648
  164MOL0     C22025   5.451   7.176   8.605 -0.1582  0.0572  0.7459
  164MOL0     C22026   5.292   7.160   8.627 -0.2177 -0.1868  0.2164
  164MOL0     C22027   5.239   7.026   8.654  0.1136  0.2584  0.2450
  164MOL0     C22028   5.089   7.043   8.690  0.2006  0.1205  0.6916
  164MOL0     O22029   5.033   6.918   8.742 -0.6041 -0.0697  0.2622
  164MOL0     C22030   4.900   6.912   8.773 -0.1597 -0.0805  1.1905
  164MOL0     C22031   4.811   7.023   8.766  0.1889  0.8317  0.1510
  164MOL0     C22032   4.677   7.001   8.820  0.5002  0.4036  0.4437
  164MOL0     C22033   4.593   7.128   8.829  0.5524  1.0414  0.2446
  164MOL0     C22034   4.635   6.870   8.857  0.2137  0.8079  0.1393
  164MOL0     C22035   4.505   6.843   8.918  0.1863  0.2545  0.1251
  164MOL0     O22036   4.408   6.940   8.928  0.1820 -0.1269  0.1294
  164MOL0     C22037   4.282   6.918   8.973 -0.6545 -0.7018 -0.3373
  164MOL0     C22038   4.201   6.807   8.946  0.0265  0.1643  0.1661
  164MOL0     C22039   4.079   6.789   9.014 -0.3000  0.4561 -0.3308
  164MOL0     C22040   4.026   6.882   9.104 -1.5012  0.0546  0.0401
  164MOL0     O22041   3.913   6.858   9.187  0.2045  0.7753  0.6704
  164MOL0     C22042   3.827   6.966   9.193 -0.2139  0.5445 -0.2186
  164MOL0     C22043   3.847   7.020   9.333 -0.6064 -0.8228 -1.1019
  164MOL0     C22044   3.773   7.161   9.353 -0.3832  0.0855  0.5813
  164MOL0     C22045   3.629   7.147   9.355  0.1600  0.1734 -0.6780
  164MOL0     C22046   3.571   7.079   9.486  0.4018  0.6228  1.1353
  164MOL0     C22047   3.574   7.161   9.612  0.0930 -0.7029  1.0297
  164MOL0     C22048   3.604   7.086   9.738  0.3150  0.4476 -0.4686
  164MOL0     C22049   3.495   6.990   9.775  0.3450 -0.3044  0.2779
  164MOL0    Cl22050   3.508   6.944   9.943  0.0519  0.1577  0.3454
  164MOL0     C22051   4.107   6.993   9.129  0.0844  0.5839 -0.3007
  164MOL0     C22052   4.237   7.010   9.076  0.7350 -0.8326  0.2152
  164MOL0     O22053   4.478   6.724   8.943  0.5959 -0.1906  0.9882
  164MOL0     C22054   4.737   6.770   8.864  0.1669 -0.6620  0.3127
  164MOL0     C22055   4.860   6.791   8.819 -0.2040  0.8108 -0.6092
  164MOL0     N22056   5.459   7.398   8.480 -0.3162  0.4090  0.2054
  164MOL0     N22057   5.499   7.444   8.364  0.2631  0.6544  0.1952
  164MOL0     C22058   6.561   7.502   7.703 -0.8812 -0.3247 -0.5479
  164MOL0     C22059   6.643   7.542   7.593  0.7295  0.4501 -0.0375
  164MOL0     C22060   6.905   7.536   7.224 -0.3356 -0.9558  0.1139
  164MOL0     C22061   7.030   7.468   7.215 -0.3523  0.3114  0.6226
  164MOL0     C22062   7.132   7.520   7.147 -0.2529 -0.7294  0.4156
  164MOL0     C22063   7.115   7.641   7.071  0.8828 -0.7710  0.0498
  164MOL0     O22064   7.228   7.692   7.009 -0.8304 -0.4914  0.2241
  164MOL0     C22065   7.228   7.835   6.995  0.4378 -0.4260 -0.1448
  164MOL0     C22066   7.373   7.877   6.965 -0.4194 -0.4113  1.4325
  164MOL0     C22067   7.394   8.013   6.887  0.2452 -0.1185 -0.9543
  164MOL0     C22068   7.344   8.138   6.968 -0.7368  0.2894 -0.4687
  164MOL0     C22069   7.425   8.253   6.934  0.3097  0.4895  0.7572
  164MOL0     C22070   7.512   8.332   6.907 -0.6394  0.5479  0.6017
  164MOL0     C22071   6.990   7.700   7.070  0.5397 -0.2057  0.0493
  164MOL0     C22072   6.887   7.657   7.151 -0.4608  0.5106 -0.0266
  164MOL0     H22073   6.488   7.356   7.358 -1.8583  2.3229  0.4690
  164MOL0     H22074   6.354   7.287   7.550 -1.2280 -0.6808 -0.6057
  164MOL0     H22075   6.507   7.319   7.930 -0.8106 -0.0311  0.1375
  164MOL0     H22076   6.438   7.477   7.942 -0.5633 -0.5335 -0.0367
  164MOL0     H22077   6.278   7.223   7.992  4.2115 -1.4258  0.0508
  164MOL0     H22078   6.361   7.312   8.118 -2.0561 -0.3626  1.2696
  164MOL0     H22079   6.240   7.509   8.066  0.6685  0.6348 -0.7350
  164MOL0     H22080   6.162   7.412   7.934  0.5881 -1.7194  0.5114
  164MOL0     H22081   6.049   7.268   8.075  0.1076 -0.6138  0.9403
  164MOL0     H22082   6.148   7.304   8.217 -1.2364  0.5412  0.7779
  164MOL0     H22083   6.047   7.532   8.235 -1.3536  0.3684  0.4736
  164MOL0     H22084   5.949   7.508   8.092  1.9678  1.4965  0.7966
  164MOL0     H22085   5.923   7.341   8.349 -0.1301  0.6274 -0.3735
  164MOL0     H22086   5.826   7.482   8.303 -1.7734  0.2228 -3.1993
  164MOL0     H22087   5.824   7.301   8.075 -0.5754  1.7104 -0.5398
  164MOL0     H22088   5.793   7.210   8.223  0.2698  0.5419 -0.0168
  164MOL0     H22089   5.587   7.318   8.091  2.3799 -0.5666 -1.4817
  164MOL0     H22090   5.649   7.471   8.155 -1.8368 -0.9587 -0.8800
  164MOL0     H22091   5.599   7.135   8.342  0.2346  0.2180  1.5688
  164MOL0     H22092   5.496   7.077   8.593  0.7059  0.4467  0.7140
  164MOL0     H22093   5.496   7.216   8.697 -0.5286  0.4210  0.7713
  164MOL0     H22094   5.243   7.201   8.539  0.7607  0.2754 -0.1286
  164MOL0     H22095   5.260   7.223   8.711 -2.5688  0.9248 -1.4087
  164MOL0     H22096   5.304   6.981   8.730 -0.5809  1.4288  1.5861
  164MOL0     H22097   5.243   6.961   8.566  0.9064 -0.0973  0.5435
  164MOL0     H22098   5.052   7.069   8.590  3.0488 -4.2628 -1.8380
  164MOL0     H22099   5.066   7.120   8.765 -0.2254 -1.8589  2.7127
  164MOL0     H22100   4.841   7.121   8.729  0.6222  0.3540 -0.8155
  164MOL0     H22101   4.496   7.116   8.779  1.4828  0.1289 -1.4403
  164MOL0     H22102   4.565   7.139   8.934 -0.7950 -2.3206  0.3839
  164MOL0     H22103   4.641   7.218   8.791 -1.9859  2.5887  0.4755
  164MOL0     H22104   4.244   6.736   8.875 -0.1891 -1.1476  1.3184
  164MOL0     H22105   4.030   6.696   8.986 -0.3308 -0.0560  1.3173
  164MOL0     H22106   3.844   7.052   9.127 -0.9587 -0.8153 -2.3187
  164MOL0     H22107   3.728   6.920   9.179  1.1889 -2.1443 -2.4724
  164MOL0     H22108   3.818   6.949   9.411 -2.5510  1.2702  0.2130
  164MOL0     H22109   3.955   7.025   9.346 -0.3208 -3.5919 -1.7204
  164MOL0     H22110   3.806   7.242   9.287  0.5423 -0.4996  0.3099
  164MOL0     H22111   3.811   7.205   9.446  1.6660  1.1693 -0.6786
  164MOL0     H22112   3.595   7.251   9.363 -0.9877 -0.1320 -1.3546
  164MOL0     H22113   3.596   7.104   9.261 -1.1856  1.9715 -1.0747
  164MOL0     H22114   3.607   6.976   9.496 -0.1039  0.1590 -1.1704
  164MOL0     H22115   3.467   7.059   9.459  0.4950 -1.6919  2.2571
  164MOL0     H22116   3.661   7.226   9.596 -1.8134  2.3791  2.2267
  164MOL0     H22117   3.485   7.224   9.612  1.1206  0.8434 -0.0807
  164MOL0     H22118   3.616   7.160   9.817 -1.4199  1.6515 -1.2696
  164MOL0     H22119   3.692   7.023   9.724 -0.0168 -0.0613 -0.2806
  164MOL0     H22120   3.490   6.907   9.705 -2.5978 -0.8067  0.9280
  164MOL0     H22121   3.393   7.029   9.770 -0.3110 -1.3247  3.3948
  164MOL0     H22122   4.075   7.069   9.200 -0.3331  0.2112 -0.0813
  164MOL0     H22123   4.304   7.083   9.121 -0.0002 -1.4376  2.3865
  164MOL0     H22124   4.699   6.671   8.885 -1.5175 -0.3332 -1.0368
  164MOL0     H22125   4.939   6.717   8.827 -1.3303 -0.7155 -2.7155
  164MOL0     H22126   6.583   7.546   7.800  3.4070  0.7046 -1.7816
  164MOL0     H22127   6.727   7.604   7.621 -0.6016  0.5478  4.6532
  164MOL0     H22128   7.053   7.368   7.251  0.1485 -0.4134 -1.5851
  164MOL0     H22129   7.228   7.469   7.148  0.1293 -0.0993 -1.1807
  164MOL0     H22130   7.160   7.866   6.915 -1.6394 -2.8699  0.5501
  164MOL0     H22131   7.189   7.879   7.087  1.2941  0.5195 -0.2180
  164MOL0     H22132   7.406   7.798   6.897  1.2721 -1.4779  3.3743
  164MOL0     H22133   7.431   7.868   7.057  1.1611 -0.5602  0.4677
  164MOL0     H22134   7.340   8.019   6.792 -3.3352 -0.2807  0.8993
  164MOL0     H22135   7.500   8.015   6.861  1.0384 -2.5588  1.5678
  164MOL0     H22136   7.366   8.124   7.075  0.9899  0.1284 -0.8171
  164MOL0     H22137   7.237   8.154   6.951 -0.5159  1.6034 -0.7231
  164MOL0     H22138   7.581   8.399   6.860 -3.3447  1.8906 -1.7434
  164MOL0     H22139   6.981   7.787   7.006  3.4212  0.7507  0.7897
  164MOL0     H22140   6.788   7.700   7.146 -0.8947 -0.4934 -0.3647
  165MOL0     O22141   0.420   5.604   8.804  0.3545  0.0056 -0.2508
  165MOL0     C22142   0.453   5.705   8.864 -0.4198 -0.6043  0.6725
  165MOL0     O22143   0.381   5.819   8.884  0.0736 -0.5950 -0.4305
  165MOL0     C22144   0.248   5.833   8.839  0.5953  0.2366  0.5805
  165MOL0     C22145   0.155   5.892   8.922 -0.7445  0.5224  0.2542
  165MOL0     C22146   0.022   5.905   8.888 -0.3265  0.2141 -0.0718
  165MOL0     C22147  -0.025   5.853   8.764  0.0430  0.0393  0.8608
  165MOL0     O22148  -0.151   5.863   8.718  0.4532 -0.3573 -0.3198
  165MOL0     C22149  -0.242   5.949   8.783  0.6264  0.3102  0.0708
  165MOL0     C22150  -0.382   5.941   8.719 -0.0107  0.7576 -0.6810
  165MOL0     C22151  -0.396   5.934   8.574 -0.3035 -0.1989 -0.3360
  165MOL0     C22152  -0.538   5.939   8.515  0.1410  0.3492 -0.4605
  165MOL0     C22153  -0.542   5.920   8.364 -0.1709 -0.0177  0.2223
  165MOL0     C22154  -0.648   6.000   8.293 -0.7452 -0.8570  0.8754
  165MOL0     C22155  -0.671   5.935   8.157 -0.3215 -0.0208 -0.6550
  165MOL0     C22156  -0.716   6.027   8.048  0.4916 -0.8254  0.3306
  165MOL0     N22157  -0.862   6.047   8.061  0.1817 -0.2080 -0.1658
  165MOL0     C22158  -0.962   5.965   7.998 -0.1771 -0.1863 -0.3418
  165MOL0     C22159  -1.072   6.017   8.050 -0.3583  0.8245 -0.4513
  165MOL0     C22160  -1.214   5.983   8.009 -0.0823 -0.4720 -0.8398
  165MOL0     C22161  -1.235   5.992   7.861  0.3007 -0.3911  0.5894
  165MOL0     C22162  -1.388   5.979   7.831  0.3721  0.0225 -0.1671
  165MOL0     C22163  -1.397   5.961   7.679 -0.7207  0.0012 -0.1628
  165MOL0     O22164  -1.536   5.917   7.660  0.4864 -0.6028  0.5062
  165MOL0     C22165  -1.633   6.009   7.623  0.4008  0.1091 -0.5892
  165MOL0     C22166  -1.622   6.146   7.624 -0.3812  0.7008  1.0427
  165MOL0     C22167  -1.725   6.233   7.591  0.5318 -0.5312 -0.5575
  165MOL0     C22168  -1.702   6.382   7.598 -0.5978  0.1153  0.1577
  165MOL0     C22169  -1.860   6.178   7.563  0.1352  0.1429 -0.2913
  165MOL0     C22170  -1.985   6.251   7.515  0.7378 -0.0837  0.1688
  165MOL0     O22171  -2.091   6.177   7.479  0.1120 -0.0573  0.2665
  165MOL0     C22172  -2.211   6.233   7.437  0.1340  0.7262  0.3398
  165MOL0     C22173  -2.281   6.165   7.335 -0.0707  0.6357 -0.1931
  165MOL0     C22174  -2.404   6.200   7.273 -1.0646  0.2937  0.2757
  165MOL0     C22175  -2.461   6.313   7.328  0.5467  0.7882 -0.7678
  165MOL0     O22176  -2.589   6.334   7.273 -0.4634  0.0962 -0.3685
  165MOL0     C22177  -2.692   6.374   7.364 -0.6160 -0.0450 -0.1312
  165MOL0     C22178  -2.814   6.429   7.281 -0.1237  0.9938 -0.0092
  165MOL0     C22179  -2.925   6.329   7.233  0.3213  0.0636 -0.3996
  165MOL0     C22180  -3.026   6.400   7.132 -1.0417 -0.2258 -0.0204
  165MOL0     C22181  -3.157   6.329   7.118 -1.1036 -0.3351  0.4705
  165MOL0     C22182  -3.243   6.406   7.023  0.9926 -1.4003 -0.8531
  165MOL0     C22183  -3.391   6.354   7.027  0.1738  0.6852 -0.0963
  165MOL0     C22184  -3.479   6.429   7.127  0.8498 -0.2844  0.8587
  165MOL0    Cl22185  -3.646   6.358   7.139 -0.0182  0.1092 -0.3617
  165MOL0     C22186  -2.394   6.393   7.421  0.6743 -0.2280  0.0667
  165MOL0     C22187  -2.274   6.349   7.482 -0.2072 -0.6655 -0.4018
  165MOL0     O22188  -1.988   6.375   7.515 -1.0039 -0.1595 -0.2387
  165MOL0     C22189  -1.875   6.030   7.584  0.1987  0.2637  0.4376
  165MOL0     C22190  -1.763   5.953   7.610  0.4205  0.9944  0.4373
  165MOL0     N22191  -1.047   6.116   8.146  0.2638 -0.3905  0.4743
  165MOL0     N22192  -0.924   6.122   8.161 -0.4481 -0.4767 -0.1077
  165MOL0     C22193   0.064   5.793   8.677 -0.2044  0.8989 -0.5184
  165MOL0     C22194   0.199   5.785   8.716  0.6106  0.2048 -0.4653
  165MOL0     C22195   0.591   5.721   8.906  0.8691  0.3664 -0.1966
  165MOL0     C22196   0.675   5.614   8.896 -0.1251  0.1694  0.5622
  165MOL0     C22197   0.806   5.613   8.942 -0.5867 -0.2681 -1.0909
  165MOL0     C22198   0.857   5.725   9.003  0.1667  0.7670 -0.0375
  165MOL0     O22199   0.992   5.737   9.030  0.1878 -0.2016 -0.6062
  165MOL0     C22200   1.067   5.613   9.018  0.5151  0.2664  0.3489
  165MOL0     C22201   1.201   5.630   9.084  0.0607  0.0313  1.1555
  165MOL0     C22202   1.304   5.529   9.025  0.0386 -0.5642 -0.3981
  165MOL0     C22203   1.300   5.379   9.054 -0.8320 -0.0600  0.0507
  165MOL0     C22204   1.172   5.314   9.018  0.2518  1.1494  0.3993
  165MOL0     C22205   1.070   5.252   8.975  0.1017  0.5654 -0.4358
  165MOL0     C22206   0.776   5.831   9.027  1.3742 -0.0602 -0.6010
  165MOL0     C22207   0.648   5.833   8.965 -0.5083  0.8122 -0.2300
  165MOL0     H22208   0.188   5.937   9.015  0.9151  1.2189 -0.6247
  165MOL0     H22209  -0.052   5.956   8.948 -1.2497  0.7770 -1.6234
  165MOL0     H22210  -0.258   5.918   8.887 -4.1087  0.5340 -0.3766
  165MOL0     H22211  -0.206   6.052   8.789 -0.6686  0.7765  0.1541
  165MOL0     H22212  -0.428   5.855   8.769  0.0791  1.8549  1.4160
  165MOL0     H22213  -0.430   6.031   8.759  2.1550  2.1915 -1.1140
  165MOL0     H22214  -0.336   6.019   8.538 -0.7368  0.4678  0.4877
  165MOL0     H22215  -0.350   5.841   8.538 -0.5380 -0.9667  1.2842
  165MOL0     H22216  -0.607   5.866   8.560  0.8625  0.5005  0.9343
  165MOL0     H22217  -0.576   6.040   8.533  1.1575  1.1430 -2.4365
  165MOL0     H22218  -0.451   5.958   8.315  0.7675 -3.9627 -1.4806
  165MOL0     H22219  -0.540   5.812   8.351 -0.1122 -0.0427  0.4401
  165MOL0     H22220  -0.743   6.010   8.345 -1.4910 -0.4827 -0.5123
  165MOL0     H22221  -0.603   6.099   8.281  2.9900 -2.6607 -2.3970
  165MOL0     H22222  -0.579   5.886   8.122 -0.7138 -0.4629 -1.0914
  165MOL0     H22223  -0.739   5.850   8.172  0.9990 -0.9117  0.4909
  165MOL0     H22224  -0.687   5.987   7.951 -1.5906 -4.0316  0.8845
  165MOL0     H22225  -0.670   6.125   8.064 -1.4467 -0.0729  1.7790
  165MOL0     H22226  -0.955   5.884   7.925 -0.1613 -0.4248 -0.0754
  165MOL0     H22227  -1.230   5.879   8.037  2.1172 -0.0492  2.4910
  165MOL0     H22228  -1.281   6.050   8.064  0.7222 -1.3312  1.2967
  165MOL0     H22229  -1.168   5.924   7.807  1.4636  1.1066  0.0738
  165MOL0     H22230  -1.205   6.093   7.829 -1.8617  0.3067  0.6208
  165MOL0     H22231  -1.445   6.064   7.871 -0.3947 -0.4062 -0.3388
  165MOL0     H22232  -1.423   5.882   7.867  0.0503  0.6601  1.3067
  165MOL0     H22233  -1.330   5.879   7.652  0.7216  0.6311  1.3414
  165MOL0     H22234  -1.376   6.054   7.626  0.5816  0.9069  1.8015
  165MOL0     H22235  -1.525   6.192   7.634  1.0929 -1.9860  0.0963
  165MOL0     H22236  -1.766   6.415   7.680 -0.8414 -0.0506  0.0368
  165MOL0     H22237  -1.600   6.413   7.619 -1.5753  2.1818  2.3099
  165MOL0     H22238  -1.728   6.428   7.502  1.6014  3.2427  0.9206
  165MOL0     H22239  -2.235   6.069   7.316  0.1566  0.8795 -0.8866
  165MOL0     H22240  -2.467   6.140   7.208  0.0033  0.5411 -1.0452
  165MOL0     H22241  -2.731   6.289   7.420 -1.4778 -0.1882 -0.9222
  165MOL0     H22242  -2.663   6.443   7.443 -2.8699  0.6158  0.1770
  165MOL0     H22243  -2.872   6.495   7.346 -1.2184 -1.2044  1.3708
  165MOL0     H22244  -2.778   6.481   7.191  2.4765 -0.5491  0.0241
  165MOL0     H22245  -2.984   6.290   7.316 -1.2476  2.0779 -0.4769
  165MOL0     H22246  -2.886   6.237   7.190  1.5366  0.7321 -0.7800
  165MOL0     H22247  -3.043   6.504   7.162  0.5576  0.2387 -0.6070
  165MOL0     H22248  -2.985   6.415   7.032 -0.1208 -1.1519  0.2047
  165MOL0     H22249  -3.204   6.329   7.217  1.0034  1.9472  1.5643
  165MOL0     H22250  -3.145   6.228   7.078 -2.5090 -0.7560  1.0560
  165MOL0     H22251  -3.252   6.514   7.041 -1.9329 -1.7203  0.1275
  165MOL0     H22252  -3.204   6.404   6.921 -1.2875  2.6707 -2.0464
  165MOL0     H22253  -3.391   6.248   7.053  0.4811  0.2735 -1.6900
  165MOL0     H22254  -3.444   6.369   6.932 -1.1929  0.6420  0.6319
  165MOL0     H22255  -3.493   6.527   7.080  1.7850  0.7024  2.5543
  165MOL0     H22256  -3.426   6.436   7.223  2.2864 -2.6048  0.3311
  165MOL0     H22257  -2.449   6.482   7.447  0.3204  0.6635 -3.3003
  165MOL0     H22258  -2.228   6.403   7.564  0.4586 -0.1633 -1.0812
  165MOL0     H22259  -1.968   5.974   7.580  1.1053 -1.3030  0.5764
  165MOL0     H22260  -1.764   5.845   7.624 -0.3497  1.2218  2.5974
  165MOL0     H22261   0.044   5.770   8.573 -0.4895  3.0816 -1.0043
  165MOL0     H22262   0.281   5.753   8.653  1.7074  1.8545  0.0753
  165MOL0     H22263   0.643   5.524   8.845  2.4103 -0.5293  0.0322
  165MOL0     H22264   0.865   5.523   8.923  0.6785 -0.0365  1.4166
  165MOL0     H22265   1.018   5.530   9.069  0.9133  0.6280  1.3448
  165MOL0     H22266   1.071   5.584   8.913 -2.6976 -2.4869  0.8451
  165MOL0     H22267   1.191   5.614   9.192  2.2102  0.7566  1.5143
  165MOL0     H22268   1.235   5.733   9.071  1.6076 -0.8154 -3.0297
  165MOL0     H22269   1.400   5.567   9.061  0.6621 -2.6755  0.3465
  165MOL0     H22270   1.299   5.545   8.917 -3.2988 -2.8817 -0.7470
  165MOL0     H22271   1.329   5.345   9.154  0.3247  1.3292  0.2305
  165MOL0     H22272   1.377   5.336   8.988  1.4204  1.5816  1.4410
  165MOL0     H22273   0.996   5.194   8.925  0.0425  1.2527 -1.1675
  165MOL0     H22274   0.809   5.910   9.094 -3.0991  1.8276 -0.2605
  165MOL0     H22275   0.601   5.931   8.967 -3.8710 -0.6465 -1.0886
  166MOL0     O22276   6.742   6.402   3.136 -0.4291 -0.5620  0.1212
  166MOL0     C22277   6.752   6.505   3.202 -0.3350  0.1292 -0.0181
  166MOL0     O22278   6.648   6.571   3.264 -0.5068 -0.3478 -0.0440
  166MOL0     C22279   6.524   6.527   3.238  0.0609  0.4129  1.1064
  166MOL0     C22280   6.447   6.517   3.346  0.4734  1.2755  0.3512
  166MOL0     C22281   6.309   6.475   3.342  0.1767 -0.8734  1.1978
  166MOL0     C22282   6.258   6.432   3.215 -0.2324 -0.3993  0.7187
  166MOL0     O22283   6.125   6.409   3.191 -0.4037  0.0463  0.0230
  166MOL0     C22284   6.053   6.369   3.304 -0.6172 -0.0550  0.1082
  166MOL0     C22285   5.914   6.318   3.255 -0.0644  0.0807  0.1801
  166MOL0     C22286   5.847   6.221   3.350 -0.4385  0.0691  0.3230
  166MOL0     C22287   5.705   6.180   3.323 -0.2356  0.4434 -0.8821
  166MOL0     C22288   5.660   6.064   3.411  0.3760  0.3762 -0.0038
  166MOL0     C22289   5.518   6.031   3.403 -0.1150 -0.0533 -0.8685
  166MOL0     C22290   5.462   5.939   3.526 -0.8855 -0.3131  0.8076
  166MOL0     C22291   5.348   5.849   3.490  0.5704  0.5854  0.2812
  166MOL0     N22292   5.221   5.912   3.435 -0.3864  0.1698  0.0947
  166MOL0     C22293   5.187   5.951   3.309 -0.2104 -0.1817 -0.5239
  166MOL0     C22294   5.074   6.021   3.322 -0.2715 -0.1248  0.4076
  166MOL0     C22295   5.008   6.084   3.200  0.3597 -0.3243  0.2623
  166MOL0     C22296   4.866   6.132   3.230 -0.3425  0.1666 -0.4604
  166MOL0     C22297   4.772   6.019   3.269  0.1237  0.0005 -0.2428
  166MOL0     C22298   4.644   6.067   3.326  0.0729  0.7349  0.5451
  166MOL0     O22299   4.578   6.139   3.226  0.4943  0.3314 -0.7450
  166MOL0     C22300   4.448   6.160   3.250 -0.3964  0.1656 -0.1545
  166MOL0     C22301   4.350   6.098   3.170  0.1017 -0.2276 -0.0651
  166MOL0     C22302   4.213   6.112   3.192 -0.0188 -0.0088  0.8401
  166MOL0     C22303   4.114   6.054   3.082  0.1974 -0.5335 -0.0997
  166MOL0     C22304   4.181   6.180   3.313  0.7523  0.1833 -1.0516
  166MOL0     C22305   4.042   6.174   3.374 -0.8286  0.1913  0.3317
  166MOL0     O22306   4.029   6.246   3.482  0.5398 -0.0289 -0.1911
  166MOL0     C22307   3.919   6.239   3.562 -0.7278 -1.0432  0.5145
  166MOL0     C22308   3.942   6.224   3.699  0.0304 -0.0318 -0.6640
  166MOL0     C22309   3.840   6.238   3.796  1.1955  0.1594  0.4569
  166MOL0     C22310   3.708   6.270   3.749  0.3110 -0.0768  0.7106
  166MOL0     O22311   3.600   6.270   3.831 -0.9896 -0.3746 -0.7743
  166MOL0     C22312   3.561   6.134   3.859  0.6202  0.0423 -0.1339
  166MOL0     C22313   3.421   6.152   3.915  1.1275  0.0981 -0.2548
  166MOL0     C22314   3.330   6.037   3.922 -0.2138  0.1351 -0.5038
  166MOL0     C22315   3.404   5.923   3.995 -0.0391 -0.0713 -0.0905
  166MOL0     C22316   3.311   5.812   4.026 -0.9934 -0.5130  0.4420
  166MOL0     C22317   3.405   5.687   4.042  0.0423 -0.2654  0.0575
  166MOL0     C22318   3.319   5.562   4.054  0.7520  0.9193  0.2425
  166MOL0     C22319   3.373   5.427   4.105 -0.5165 -0.3844  0.7438
  166MOL0    Cl22320   3.410   5.435   4.283 -0.4533  0.0505  0.1807
  166MOL0     C22321   3.682   6.286   3.616  0.2174 -1.2039  0.7655
  166MOL0     C22322   3.796   6.278   3.522  0.3793 -0.5320 -0.1685
  166MOL0     O22323   3.957   6.118   3.311 -0.6088 -0.0370 -0.2728
  166MOL0     C22324   4.280   6.242   3.389 -0.0057  0.1283  0.3605
  166MOL0     C22325   4.414   6.232   3.359 -0.1885  0.2575 -0.1065
  166MOL0     N22326   5.036   6.027   3.454  0.2038 -0.1262  0.2489
  166MOL0     N22327   5.120   5.953   3.520  0.1044  0.0820 -0.8949
  166MOL0     C22328   6.331   6.453   3.104 -0.0267 -0.6566  0.3130
  166MOL0     C22329   6.462   6.503   3.113  0.3050 -0.5226 -0.4079
  166MOL0     C22330   6.886   6.559   3.242  0.9219  0.1270 -0.7273
  166MOL0     C22331   7.002   6.517   3.178 -0.1552 -1.0688  0.4810
  166MOL0     C22332   7.121   6.564   3.216 -0.8752 -0.5685 -0.9764
  166MOL0     C22333   7.136   6.650   3.327 -0.3858  0.9900  0.5991
  166MOL0     O22334   7.254   6.707   3.374 -1.0265  0.2904 -0.5429
  166MOL0     C22335   7.380   6.678   3.312  0.2300  0.3193 -0.1548
  166MOL0     C22336   7.428   6.537   3.351  0.5732 -0.3707  0.0772
  166MOL0     C22337   7.558   6.510   3.284  0.2363  0.4090 -0.2740
  166MOL0     C22338   7.616   6.382   3.337 -0.5184 -0.7775  0.4063
  166MOL0     C22339   7.525   6.268   3.334 -0.0149 -0.6986  0.1786
  166MOL0     C22340   7.444   6.178   3.337 -0.6744 -0.4026  0.7614
  166MOL0     C22341   7.023   6.676   3.405  0.3830 -0.1615 -0.2220
  166MOL0     C22342   6.896   6.644   3.357  0.5187  0.1221  0.6448
  166MOL0     H22343   6.498   6.556   3.433  0.3884 -0.9807  1.4937
  166MOL0     H22344   6.251   6.470   3.434 -3.2939 -2.5321 -0.8982
  166MOL0     H22345   6.112   6.292   3.355  1.8175  0.5324 -1.6315
  166MOL0     H22346   6.044   6.454   3.373  0.2619  3.1852 -3.3967
  166MOL0     H22347   5.849   6.403   3.233 -1.4814 -1.5712 -2.6486
  166MOL0     H22348   5.929   6.269   3.159 -0.2630 -0.3866  0.3779
  166MOL0     H22349   5.913   6.134   3.351  0.3212  0.6325  0.0985
  166MOL0     H22350   5.850   6.263   3.451  0.8354 -0.7944  0.6633
  166MOL0     H22351   5.638   6.264   3.343  1.3905  1.7583 -0.6976
  166MOL0     H22352   5.697   6.157   3.216  0.5705 -0.0453 -0.8431
  166MOL0     H22353   5.718   5.976   3.384  1.5217  2.3683 -5.0097
  166MOL0     H22354   5.684   6.093   3.514  0.6840  2.2650 -0.5681
  166MOL0     H22355   5.458   6.122   3.397  0.4557  0.3725 -0.2190
  166MOL0     H22356   5.504   5.974   3.311 -2.1885 -0.3536 -0.4285
  166MOL0     H22357   5.549   5.884   3.563  1.5619  1.4955 -1.8452
  166MOL0     H22358   5.425   5.994   3.613  1.2209 -3.7383  4.1599
  166MOL0     H22359   5.312   5.801   3.581 -1.7676  0.6834 -0.5326
  166MOL0     H22360   5.377   5.768   3.422 -2.6379  0.2777 -0.9040
  166MOL0     H22361   5.248   5.948   3.219  1.0442  3.3519  0.0472
  166MOL0     H22362   5.073   6.170   3.181 -0.8192  0.6506  0.5878
  166MOL0     H22363   5.010   6.026   3.107  0.4591  2.5429 -1.6305
  166MOL0     H22364   4.833   6.191   3.144 -1.4067 -1.0247 -0.9017
  166MOL0     H22365   4.881   6.205   3.309  2.2557 -2.0089  1.2516
  166MOL0     H22366   4.810   5.951   3.346  1.8941  0.6249 -0.5369
  166MOL0     H22367   4.757   5.957   3.180 -0.1727  0.5305 -0.5629
  166MOL0     H22368   4.671   6.135   3.408 -0.0186  0.9489  0.3989
  166MOL0     H22369   4.576   5.987   3.357 -1.5936  1.8940  0.0138
  166MOL0     H22370   4.398   6.055   3.082  0.8819  1.2284 -0.3925
  166MOL0     H22371   4.072   6.137   3.025 -0.3008  0.5163  1.7323
  166MOL0     H22372   4.170   5.980   3.023  0.6889 -1.5137  1.5284
  166MOL0     H22373   4.025   6.009   3.127 -1.4954  3.1738  0.5661
  166MOL0     H22374   4.034   6.193   3.746 -0.5207 -1.1140 -0.2516
  166MOL0     H22375   3.857   6.202   3.897  1.0312 -2.8764 -0.5090
  166MOL0     H22376   3.556   6.090   3.759 -2.6145  1.5165 -0.7546
  166MOL0     H22377   3.622   6.086   3.936  0.1608 -0.7636 -0.2621
  166MOL0     H22378   3.423   6.205   4.010 -0.4558  1.3104 -0.8400
  166MOL0     H22379   3.356   6.214   3.853 -1.4542 -1.9119  0.2337
  166MOL0     H22380   3.301   6.019   3.819 -0.7204  1.1316 -0.5410
  166MOL0     H22381   3.250   6.075   3.986 -0.1051 -0.5947  0.0774
  166MOL0     H22382   3.492   5.896   3.937 -0.7421  1.1165 -1.7817
  166MOL0     H22383   3.428   5.966   4.093 -4.1039  1.3704  0.4716
  166MOL0     H22384   3.245   5.786   3.942  1.4042  2.0700 -2.4573
  166MOL0     H22385   3.257   5.820   4.121 -0.5946 -1.0310  0.7205
  166MOL0     H22386   3.468   5.664   3.956  0.0226 -0.2296  0.0334
  166MOL0     H22387   3.465   5.696   4.133  0.2015 -1.8349  0.1373
  166MOL0     H22388   3.281   5.532   3.956  1.3901 -2.8104  0.9883
  166MOL0     H22389   3.223   5.582   4.102 -0.8152  0.1278 -2.3534
  166MOL0     H22390   3.462   5.408   4.044  0.1994  4.4184 -0.0566
  166MOL0     H22391   3.308   5.341   4.085  0.1952 -0.7366 -0.1408
  166MOL0     H22392   3.583   6.315   3.582  0.9850 -1.0489 -1.5285
  166MOL0     H22393   3.767   6.317   3.425  0.7384 -0.5387 -0.2789
  166MOL0     H22394   4.256   6.300   3.478  1.9346 -1.5141  2.0283
  166MOL0     H22395   4.492   6.275   3.421  1.6902 -2.4145 -0.4504
  166MOL0     H22396   6.285   6.447   3.006 -2.6906 -0.1384  1.4411
  166MOL0     H22397   6.517   6.536   3.026 -0.4669  0.2637 -0.6193
  166MOL0     H22398   6.994   6.449   3.093  1.8857  1.5810 -2.0375
  166MOL0     H22399   7.200   6.528   3.151  0.1884  2.5064 -1.5722
  166MOL0     H22400   7.358   6.689   3.205  0.9161 -1.0250 -0.4540
  166MOL0     H22401   7.447   6.754   3.353  2.0176 -1.1401 -0.2631
  166MOL0     H22402   7.353   6.462   3.325  1.9505 -0.9704 -2.5670
  166MOL0     H22403   7.439   6.539   3.460 -0.4525 -0.0971  0.1928
  166MOL0     H22404   7.623   6.595   3.304 -0.8699  1.4659 -1.0149
  166MOL0     H22405   7.546   6.501   3.175 -0.6794 -0.9090 -0.0990
  166MOL0     H22406   7.643   6.394   3.443  0.7583  3.1778 -0.1905
  166MOL0     H22407   7.704   6.367   3.274  0.0146  1.5245  0.4801
  166MOL0     H22408   7.366   6.105   3.334  0.4857 -1.6986  0.9722
  166MOL0     H22409   7.036   6.726   3.500 -0.0333  0.1360 -0.3214
  166MOL0     H22410   6.807   6.668   3.413  0.4117  0.2953  0.4031
  167MOL0     O22411  11.027  11.362   2.099  0.5623  0.6093 -0.0665
  167MOL0     C22412  10.963  11.383   1.997  0.0155  0.1271 -0.1165
  167MOL0     O22413  10.844  11.328   1.962  0.2402  0.6277 -0.6558
  167MOL0     C22414  10.753  11.291   2.060 -0.2223 -0.7054 -0.6927
  167MOL0     C22415  10.657  11.194   2.023  0.2356  0.6687 -0.4502
  167MOL0     C22416  10.568  11.149   2.113  0.6426  0.3794 -0.5943
  167MOL0     C22417  10.554  11.207   2.242 -0.7241  1.1554  0.8859
  167MOL0     O22418  10.474  11.162   2.349  0.1033 -0.5622  0.7173
  167MOL0     C22419  10.433  11.029   2.359 -0.4168  0.3183 -0.6717
  167MOL0     C22420  10.275  11.008   2.335 -1.3410  0.2988  0.0022
  167MOL0     C22421  10.181  11.042   2.455 -0.8708 -0.0490  0.3055
  167MOL0     C22422  10.038  11.072   2.408  0.2039  0.8186 -0.2392
  167MOL0     C22423  10.027  11.209   2.347 -0.1957  0.3076 -0.0176
  167MOL0     C22424   9.891  11.264   2.324  0.2879  0.2562  1.1771
  167MOL0     C22425   9.899  11.406   2.266  1.0880  1.4762  0.1012
  167MOL0     C22426   9.773  11.494   2.278 -0.3675  0.0049  1.0003
  167MOL0     N22427   9.683  11.467   2.162  0.1980  0.4501  0.3838
  167MOL0     C22428   9.703  11.490   2.031  0.6075 -0.5813  0.3371
  167MOL0     C22429   9.586  11.445   1.968 -0.1941 -1.0337 -0.6386
  167MOL0     C22430   9.542  11.469   1.825 -0.1582  0.2615 -1.3331
  167MOL0     C22431   9.557  11.353   1.731 -0.2935  0.0160  0.5088
  167MOL0     C22432   9.485  11.380   1.602  0.0015 -0.3705 -0.4720
  167MOL0     C22433   9.331  11.392   1.609  0.2033 -0.3399  0.0212
  167MOL0     O22434   9.279  11.450   1.483 -0.2965 -0.2582  0.0647
  167MOL0     C22435   9.150  11.439   1.446  0.8502 -0.0348  0.1153
  167MOL0     C22436   9.038  11.393   1.528 -1.1174 -1.6365  0.2557
  167MOL0     C22437   8.904  11.401   1.485 -0.5247  0.0078  0.2294
  167MOL0     C22438   8.799  11.367   1.592  0.0522 -0.4223  0.4777
  167MOL0     C22439   8.872  11.438   1.348  0.0100  0.6422  0.4621
  167MOL0     C22440   8.738  11.432   1.285  0.2285 -0.4566 -0.1893
  167MOL0     O22441   8.631  11.468   1.358  0.2758  0.3591 -0.1566
  167MOL0     C22442   8.503  11.443   1.296  0.2662 -0.6686 -0.1165
  167MOL0     C22443   8.424  11.547   1.256  0.8301 -0.9075  0.2205
  167MOL0     C22444   8.302  11.532   1.196 -0.0098  0.0710  0.7975
  167MOL0     C22445   8.251  11.400   1.179  0.6741 -0.0268  0.5962
  167MOL0     O22446   8.121  11.378   1.134 -0.0560  0.1854  0.6117
  167MOL0     C22447   8.054  11.480   1.051  0.0381  0.2568  0.0627
  167MOL0     C22448   7.926  11.422   0.976 -0.9418 -0.6077 -0.2086
  167MOL0     C22449   7.808  11.414   1.068  0.3958 -0.0219  1.1575
  167MOL0     C22450   7.713  11.543   1.058 -0.3915 -0.6983  0.0404
  167MOL0     C22451   7.608  11.526   1.169 -0.1735  0.9050  0.4378
  167MOL0     C22452   7.591  11.659   1.263 -0.9634  0.8859  0.0943
  167MOL0     C22453   7.561  11.792   1.179 -0.3778  1.4964  0.4106
  167MOL0     C22454   7.508  11.899   1.273  0.2580  0.3767  0.0979
  167MOL0    Cl22455   7.609  11.901   1.427  0.0285  0.1828 -0.3168
  167MOL0     C22456   8.316  11.285   1.229 -0.6019  0.5880  0.3986
  167MOL0     C22457   8.442  11.313   1.291  0.9398  0.5591  0.5708
  167MOL0     O22458   8.733  11.419   1.159  0.8546 -0.8723 -0.2593
  167MOL0     C22459   8.986  11.473   1.269  0.4142  0.5050  1.0653
  167MOL0     C22460   9.114  11.477   1.318 -0.0554 -0.1768 -0.0903
  167MOL0     N22461   9.512  11.373   2.059 -0.3302 -0.4098 -0.1384
  167MOL0     N22462   9.571  11.386   2.175  0.6718 -0.1757  0.0504
  167MOL0     C22463  10.635  11.312   2.274  0.0619 -0.2102  0.1517
  167MOL0     C22464  10.738  11.353   2.182 -0.0357  0.4405  0.4097
  167MOL0     C22465  11.016  11.459   1.892  0.5713 -0.3607  0.9495
  167MOL0     C22466  11.149  11.451   1.842 -0.3621 -0.8104 -0.7242
  167MOL0     C22467  11.201  11.535   1.730  0.8662  0.4839 -0.1526
  167MOL0     C22468  11.112  11.642   1.685  0.1753  1.2890 -0.9178
  167MOL0     O22469  11.145  11.732   1.588  0.5489 -0.1357  0.7498
  167MOL0     C22470  11.237  11.683   1.491  0.2254  0.4389 -0.3243
  167MOL0     C22471  11.183  11.720   1.349 -0.6275 -0.6086  0.2035
  167MOL0     C22472  11.182  11.866   1.323  0.1430  0.5219  0.0655
  167MOL0     C22473  11.118  11.887   1.184  0.1482 -0.6717 -0.0099
  167MOL0     C22474  11.077  12.034   1.175 -0.6394  0.5185 -0.1661
  167MOL0     C22475  11.058  12.154   1.164 -0.1280 -0.6724  0.3733
  167MOL0     C22476  10.990  11.661   1.753  0.5005 -1.5088 -0.6624
  167MOL0     C22477  10.940  11.571   1.846  0.1651 -0.0396  0.2153
  167MOL0     H22478  10.677  11.141   1.931  1.5400 -2.6872  1.5588
  167MOL0     H22479  10.496  11.080   2.072 -0.9759  1.8403 -0.3103
  167MOL0     H22480  10.505  10.969   2.303 -0.6526  0.6104 -1.2969
  167MOL0     H22481  10.455  10.996   2.461  0.3375 -0.8653 -1.1950
  167MOL0     H22482  10.259  11.064   2.243 -0.4726 -1.1546 -1.0635
  167MOL0     H22483  10.262  10.901   2.319 -0.2453  0.1858 -0.1865
  167MOL0     H22484  10.180  10.958   2.524  0.1153  0.0548  0.4548
  167MOL0     H22485  10.232  11.123   2.507 -0.8463 -0.7672  1.4230
  167MOL0     H22486   9.991  10.987   2.360  3.9459 -1.6514  0.0777
  167MOL0     H22487   9.979  11.078   2.500 -0.8785 -1.5560 -0.7300
  167MOL0     H22488  10.073  11.273   2.422 -1.5706 -1.1140  2.1408
  167MOL0     H22489  10.082  11.206   2.252 -1.5149  0.2983 -0.8092
  167MOL0     H22490   9.841  11.205   2.246 -0.4155  2.8783 -0.4788
  167MOL0     H22491   9.827  11.268   2.413 -0.6541  1.6094  0.4696
  167MOL0     H22492   9.970  11.455   2.334  0.5197 -0.9042  2.5693
  167MOL0     H22493   9.936  11.411   2.163  0.2220  1.5740 -0.2155
  167MOL0     H22494   9.792  11.602   2.274 -0.5704  0.0156 -0.5001
  167MOL0     H22495   9.725  11.481   2.375 -0.2400  1.1641  1.2400
  167MOL0     H22496   9.791  11.543   1.995  0.5391  0.0613  1.0858
  167MOL0     H22497   9.436  11.490   1.843  0.1236  1.3141 -0.8187
  167MOL0     H22498   9.585  11.555   1.773 -2.2995  1.6550 -0.9278
  167MOL0     H22499   9.525  11.257   1.772 -0.1483 -0.1927  0.1317
  167MOL0     H22500   9.661  11.323   1.718 -1.0014 -2.0239 -1.0229
  167MOL0     H22501   9.508  11.304   1.526  1.7910  2.9925 -3.6092
  167MOL0     H22502   9.536  11.467   1.561  3.4527 -3.1311 -2.6205
  167MOL0     H22503   9.307  11.475   1.676  1.1114 -0.5491  0.6352
  167MOL0     H22504   9.279  11.304   1.649  0.6297 -0.6172 -0.0266
  167MOL0     H22505   9.059  11.350   1.626 -2.7445 -0.8645  0.9839
  167MOL0     H22506   8.740  11.460   1.596 -0.0839  0.0963 -5.0176
  167MOL0     H22507   8.734  11.290   1.549 -1.4863  1.4941 -0.8174
  167MOL0     H22508   8.824  11.337   1.694  3.5583 -2.2462 -0.7600
  167MOL0     H22509   8.466  11.643   1.284 -2.6593  0.4399  1.4644
  167MOL0     H22510   8.240  11.620   1.182 -0.8493 -0.7162 -0.5837
  167MOL0     H22511   8.034  11.568   1.113 -0.5889 -0.3680  0.7745
  167MOL0     H22512   8.120  11.508   0.969  2.5777 -0.4170  1.7547
  167MOL0     H22513   7.904  11.491   0.895  2.1398 -1.2084 -1.7086
  167MOL0     H22514   7.940  11.321   0.935 -0.5515 -0.3189 -0.7931
  167MOL0     H22515   7.842  11.408   1.172 -0.8888 -0.4763  1.5821
  167MOL0     H22516   7.748  11.323   1.055 -1.7744  1.5354 -0.4221
  167MOL0     H22517   7.761  11.641   1.060 -2.1592  0.1926  1.4766
  167MOL0     H22518   7.656  11.532   0.965 -1.1862 -0.8483  0.5386
  167MOL0     H22519   7.633  11.439   1.231  0.1460  0.1655 -0.6785
  167MOL0     H22520   7.521  11.508   1.105  0.2405  0.6159 -0.0604
  167MOL0     H22521   7.511  11.626   1.330 -1.4615 -3.7903 -2.3792
  167MOL0     H22522   7.686  11.666   1.317 -0.6411 -2.0917  0.1148
  167MOL0     H22523   7.493  11.761   1.099  1.4469 -2.3106  0.1027
  167MOL0     H22524   7.646  11.840   1.130 -2.1780  3.7508 -0.7320
  167MOL0     H22525   7.408  11.866   1.303  0.2549  1.2379  1.1048
  167MOL0     H22526   7.509  11.999   1.228  1.4369  0.8211  1.0539
  167MOL0     H22527   8.277  11.184   1.223  0.0752  0.2432  1.4344
  167MOL0     H22528   8.502  11.236   1.340 -0.6711 -1.5062 -0.5222
  167MOL0     H22529   8.962  11.513   1.171  0.5121  0.7326  1.1347
  167MOL0     H22530   9.193  11.510   1.251  1.1893 -5.9129 -1.9767
  167MOL0     H22531  10.638  11.363   2.370  2.7876  1.9876 -0.9858
  167MOL0     H22532  10.803  11.433   2.215 -0.3872  0.0782  2.0994
  167MOL0     H22533  11.225  11.382   1.877  1.7704  2.5692  1.9753
  167MOL0     H22534  11.305  11.525   1.700  2.1308  0.4088  3.7670
  167MOL0     H22535  11.332  11.733   1.513  0.0001  0.4265  0.7094
  167MOL0     H22536  11.264  11.577   1.490  1.4847  0.7229  0.8203
  167MOL0     H22537  11.078  11.691   1.344 -0.9492 -0.0632  2.4234
  167MOL0     H22538  11.238  11.671   1.268  0.7860  1.5005 -0.2013
  167MOL0     H22539  11.280  11.912   1.337  1.3342 -2.4052  2.4034
  167MOL0     H22540  11.115  11.912   1.396  1.0447 -1.3626  2.1997
  167MOL0     H22541  11.030  11.826   1.161 -0.2528  0.5050 -1.8264
  167MOL0     H22542  11.199  11.877   1.111  1.5808  0.2942  1.3910
  167MOL0     H22543  11.030  12.257   1.161 -0.0875 -0.5808  2.1666
  167MOL0     H22544  10.920  11.740   1.726 -0.8532 -1.3403  2.8141
  167MOL0     H22545  10.842  11.580   1.892  0.7970  1.1777  1.3976
  168MOL0     O22546   5.660   1.628   9.631  0.0004  0.3369  0.1332
  168MOL0     C22547   5.700   1.623   9.746 -0.1818 -0.4224  0.6025
  168MOL0     O22548   5.617   1.600   9.856 -0.5047 -0.0321  0.1374
  168MOL0     C22549   5.483   1.582   9.830  0.1268  0.4901 -0.0274
  168MOL0     C22550   5.405   1.697   9.804  0.2168  0.2113 -0.2934
  168MOL0     C22551   5.267   1.679   9.786 -0.1499  0.0458 -0.2581
  168MOL0     C22552   5.202   1.555   9.801 -0.3434  0.2156  0.0278
  168MOL0     O22553   5.067   1.537   9.792  0.4101  0.5943 -0.3510
  168MOL0     C22554   4.984   1.611   9.880 -0.1060  0.8582 -0.2796
  168MOL0     C22555   4.855   1.630   9.807 -0.3005 -0.1499  0.0849
  168MOL0     C22556   4.754   1.698   9.904  0.3577 -0.0699  1.0470
  168MOL0     C22557   4.648   1.787   9.825  0.5763  0.8415  0.3516
  168MOL0     C22558   4.512   1.815   9.896  0.2365  0.8909  0.0486
  168MOL0     C22559   4.418   1.869   9.794  0.4085 -0.6637  0.2958
  168MOL0     C22560   4.288   1.905   9.873  0.7125 -0.2615  0.3769
  168MOL0     C22561   4.191   1.962   9.769 -0.2529 -0.6241  0.2352
  168MOL0     N22562   4.061   1.992   9.820  0.1922 -0.3734 -0.8992
  168MOL0     C22563   4.032   2.069   9.938 -0.1540 -0.4845  0.6429
  168MOL0     C22564   3.896   2.080   9.944 -0.0589  0.3107  0.4065
  168MOL0     C22565   3.816   2.143  10.045 -0.0357 -1.2967 -0.9367
  168MOL0     C22566   3.704   2.049  10.087  0.3428 -0.8934  0.2916
  168MOL0     C22567   3.654   2.086  10.224  0.6620 -0.0182 -0.9199
  168MOL0     C22568   3.517   2.020  10.252 -0.2968  0.6780  0.2785
  168MOL0     O22569   3.498   2.037  10.396  0.7190  0.6355  0.1408
  168MOL0     C22570   3.375   2.083  10.443 -0.1893  0.2734  1.2881
  168MOL0     C22571   3.377   2.163  10.557 -0.3210 -0.0022 -0.6577
  168MOL0     C22572   3.257   2.196  10.625  0.1485  0.7824 -0.3149
  168MOL0     C22573   3.281   2.268  10.751 -0.1854  0.5051 -0.7766
  168MOL0     C22574   3.130   2.140  10.589 -0.0901  1.2979  0.1709
  168MOL0     C22575   3.003   2.167  10.657  0.6326  0.6426 -0.3053
  168MOL0     O22576   2.997   2.272  10.736  0.6153  0.3806 -0.2742
  168MOL0     C22577   2.868   2.308  10.782 -0.2056 -0.5230  0.0839
  168MOL0     C22578   2.826   2.294  10.914  0.7702  0.1305 -0.7292
  168MOL0     C22579   2.688   2.315  10.954 -0.5307 -1.2600 -0.1143
  168MOL0     C22580   2.601   2.370  10.858 -0.4307 -0.7653  0.4065
  168MOL0     O22581   2.476   2.394  10.911  0.0149  0.1987 -0.3773
  168MOL0     C22582   2.391   2.490  10.849  0.2143 -0.4290  0.3302
  168MOL0     C22583   2.267   2.519  10.926  0.1336 -0.4130  0.7561
  168MOL0     C22584   2.177   2.401  10.942  0.7419  0.3171  0.4931
  168MOL0     C22585   2.100   2.387  11.079  0.3505 -0.2140 -0.4365
  168MOL0     C22586   2.016   2.511  11.123 -0.2446  0.7684 -0.4685
  168MOL0     C22587   1.877   2.523  11.060  0.7083 -1.0257 -0.6760
  168MOL0     C22588   1.783   2.410  11.103  0.2454 -0.7411  0.4735
  168MOL0     C22589   1.647   2.456  11.064  0.7631 -0.5350 -0.4236
  168MOL0    Cl22590   1.533   2.319  11.088  0.6235  0.2892  0.0793
  168MOL0     C22591   2.646   2.398  10.728 -0.2722  0.0383  0.4694
  168MOL0     C22592   2.777   2.360  10.686  0.2803  0.1506 -0.0634
  168MOL0     O22593   2.905   2.090  10.648 -0.5851 -0.3605  0.5155
  168MOL0     C22594   3.134   2.063  10.466 -0.3537 -0.5515 -0.3561
  168MOL0     C22595   3.252   2.031  10.398  0.0813 -0.3821  0.1759
  168MOL0     N22596   3.853   2.020   9.825 -0.0358 -0.1132 -0.0024
  168MOL0     N22597   3.944   1.960   9.758 -0.0007  0.2525 -0.2604
  168MOL0     C22598   5.283   1.442   9.831  0.9155 -0.3258  0.2457
  168MOL0     C22599   5.421   1.457   9.845  0.0317 -0.1972 -0.2879
  168MOL0     C22600   5.847   1.649   9.765 -0.1746  0.2861  0.2095
  168MOL0     C22601   5.940   1.658   9.658  0.6062  0.1978 -0.1199
  168MOL0     C22602   6.077   1.677   9.692 -0.3179  0.4053  0.6840
  168MOL0     C22603   6.123   1.671   9.820  0.2156  0.2819 -0.4969
  168MOL0     O22604   6.257   1.682   9.840  0.2856  0.5497 -0.2414
  168MOL0     C22605   6.323   1.690   9.971 -0.0464 -0.2052  0.0014
  168MOL0     C22606   6.327   1.829  10.029  1.1350  0.0520 -0.3266
  168MOL0     C22607   6.391   1.823  10.172  0.0025  0.0315  0.4942
  168MOL0     C22608   6.377   1.960  10.242  0.6880  0.5935 -1.0517
  168MOL0     C22609   6.231   2.001  10.249  0.3984 -0.3769 -1.1220
  168MOL0     C22610   6.118   2.057  10.243 -1.1288  0.4866  0.2372
  168MOL0     C22611   6.032   1.650   9.922 -0.2090  0.8984 -0.3119
  168MOL0     C22612   5.896   1.642   9.904  0.3662  0.8581  0.2381
  168MOL0     H22613   5.445   1.797   9.818 -0.2238  0.1627  1.5847
  168MOL0     H22614   5.210   1.760   9.744 -1.4114 -1.1214 -0.8825
  168MOL0     H22615   4.971   1.554   9.972 -0.5512 -0.4073 -1.0956
  168MOL0     H22616   5.038   1.700   9.912 -0.0919  0.6614  0.2513
  168MOL0     H22617   4.880   1.696   9.723  1.1367 -1.5196 -0.6117
  168MOL0     H22618   4.818   1.531   9.779  1.7809 -0.9277 -0.0682
  168MOL0     H22619   4.713   1.622   9.971  0.1429  0.2463  1.2777
  168MOL0     H22620   4.817   1.763   9.964  0.3477 -1.5804  2.7943
  168MOL0     H22621   4.700   1.883   9.820 -1.2397  1.9624  1.7593
  168MOL0     H22622   4.632   1.740   9.728 -0.1508 -2.1877  1.7996
  168MOL0     H22623   4.469   1.721   9.931  1.0841 -0.1845 -1.6756
  168MOL0     H22624   4.533   1.877   9.983  1.6047 -1.8263  1.7898
  168MOL0     H22625   4.462   1.961   9.754 -1.3043 -0.5400 -1.4516
  168MOL0     H22626   4.406   1.818   9.698  1.5259  1.5757 -1.1477
  168MOL0     H22627   4.228   1.829   9.924  0.7587  0.3522  1.3844
  168MOL0     H22628   4.314   1.986   9.943  1.8150  0.4647 -0.8312
  168MOL0     H22629   4.184   1.882   9.694 -2.7432 -0.6660  0.4313
  168MOL0     H22630   4.229   2.055   9.726 -1.8459 -0.7618 -1.6458
  168MOL0     H22631   4.098   2.134   9.996 -0.8930  2.5919 -1.7056
  168MOL0     H22632   3.880   2.164  10.131  1.0190 -1.6908 -1.6046
  168MOL0     H22633   3.776   2.237  10.004  1.2302 -0.4050 -0.1874
  168MOL0     H22634   3.753   1.951  10.082 -3.0820 -2.7568 -2.8317
  168MOL0     H22635   3.624   2.055  10.012  0.8014 -0.0764 -0.1406
  168MOL0     H22636   3.655   2.194  10.242  3.2739 -0.1171  0.0177
  168MOL0     H22637   3.729   2.037  10.287  0.4597 -0.2910 -0.8901
  168MOL0     H22638   3.541   1.915  10.234  0.2690  1.1163 -1.8402
  168MOL0     H22639   3.428   2.048  10.194  0.4537 -0.4128 -1.4881
  168MOL0     H22640   3.473   2.190  10.601 -1.0724  0.0706  1.0254
  168MOL0     H22641   3.385   2.269  10.783 -0.3544  0.5593 -0.2226
  168MOL0     H22642   3.258   2.374  10.738  0.8475  0.5599 -2.3356
  168MOL0     H22643   3.221   2.230  10.834  0.8798  2.9792  1.2572
  168MOL0     H22644   2.900   2.262  10.987 -0.1823  0.5401  0.4568
  168MOL0     H22645   2.663   2.301  11.059 -1.0165 -0.1525 -0.0770
  168MOL0     H22646   2.441   2.586  10.835 -0.2727  0.0062  1.4746
  168MOL0     H22647   2.360   2.444  10.755  2.2568 -0.8518 -0.1898
  168MOL0     H22648   2.302   2.540  11.027  1.2606 -1.0221  0.5194
  168MOL0     H22649   2.215   2.607  10.886 -1.0874 -1.4593 -0.0381
  168MOL0     H22650   2.239   2.314  10.917  1.9888  0.6154  2.3167
  168MOL0     H22651   2.102   2.405  10.863  1.3235  0.6456 -0.0562
  168MOL0     H22652   2.046   2.293  11.091  0.0573  0.0558  0.4720
  168MOL0     H22653   2.172   2.375  11.160 -0.2542  0.1443  0.1648
  168MOL0     H22654   2.081   2.596  11.099  1.8975 -0.3536  1.0648
  168MOL0     H22655   2.006   2.515  11.231 -1.9071 -1.0538 -0.5204
  168MOL0     H22656   1.846   2.621  11.096 -1.8222 -2.6054  1.9451
  168MOL0     H22657   1.878   2.521  10.950 -0.4959 -2.7438 -0.6947
  168MOL0     H22658   1.783   2.411  11.212  0.2365  4.4367  0.7036
  168MOL0     H22659   1.812   2.315  11.057  1.4861  0.9838 -2.6468
  168MOL0     H22660   1.664   2.480  10.958 -2.0363 -1.4418 -1.1505
  168MOL0     H22661   1.612   2.547  11.114  0.7109 -0.5825 -0.3737
  168MOL0     H22662   2.584   2.461  10.665 -2.0421  0.1084  2.1658
  168MOL0     H22663   2.802   2.359  10.580 -1.2730  0.0672 -0.4537
  168MOL0     H22664   3.040   2.025  10.427 -0.9317 -1.7430  2.0239
  168MOL0     H22665   3.244   1.959  10.317 -2.0801 -0.2336  0.2059
  168MOL0     H22666   5.228   1.348   9.827 -2.4216  1.4919 -0.9637
  168MOL0     H22667   5.486   1.371   9.853  1.8991  1.1975  0.2073
  168MOL0     H22668   5.913   1.666   9.553 -1.1001 -1.4290  0.1481
  168MOL0     H22669   6.150   1.698   9.614  0.5873 -1.1375  1.0766
  168MOL0     H22670   6.282   1.623  10.046 -0.6040  0.3448  0.2012
  168MOL0     H22671   6.428   1.665   9.954 -0.2008 -2.0229  1.4672
  168MOL0     H22672   6.224   1.867  10.027  1.2114  0.3662 -3.4971
  168MOL0     H22673   6.386   1.898   9.968 -0.5482  1.8770 -0.0021
  168MOL0     H22674   6.497   1.798  10.160  0.2679  0.8634  1.0165
  168MOL0     H22675   6.334   1.749  10.229  1.8979 -0.9287  1.2494
  168MOL0     H22676   6.434   2.037  10.191 -0.2748  1.2118 -1.2198
  168MOL0     H22677   6.423   1.948  10.341  1.8902  0.2962 -1.6233
  168MOL0     H22678   6.025   2.108  10.228  0.3140  2.8516 -1.2979
  168MOL0     H22679   6.068   1.617  10.019  2.1070 -2.3121 -2.0577
  168MOL0     H22680   5.835   1.621   9.991  2.8391  0.8769  2.0603
  169MOL0     O22681   5.346   1.103   1.833  0.3791 -0.0936  0.0892
  169MOL0     C22682   5.439   1.178   1.817 -0.0301 -0.2250 -0.8031
  169MOL0     O22683   5.426   1.314   1.815  0.3121 -0.4887 -0.1231
  169MOL0     C22684   5.300   1.369   1.839  0.0810  0.2163  0.1482
  169MOL0     C22685   5.252   1.352   1.969  0.4627  0.0717  0.4810
  169MOL0     C22686   5.134   1.418   2.005  0.1883 -0.6942 -0.0037
  169MOL0     C22687   5.068   1.501   1.906 -0.1051  0.3424 -0.8051
  169MOL0     O22688   4.951   1.563   1.929 -0.1359  0.2537 -0.1007
  169MOL0     C22689   4.906   1.562   2.068  0.1815 -0.1528  0.3057
  169MOL0     C22690   4.765   1.636   2.082 -0.0311  0.2426  0.1343
  169MOL0     C22691   4.646   1.607   1.986  0.6878  0.1096 -0.5524
  169MOL0     C22692   4.627   1.453   1.983 -0.3839  0.0896  0.3825
  169MOL0     C22693   4.504   1.396   1.906 -0.1303 -0.1593  0.4038
  169MOL0     C22694   4.526   1.245   1.901 -0.1644  0.2247 -0.4779
  169MOL0     C22695   4.405   1.171   1.838 -0.6983  0.2468  0.3422
  169MOL0     C22696   4.413   1.193   1.683 -0.0822 -0.4401 -0.0801
  169MOL0     N22697   4.296   1.138   1.603 -0.0065  0.4383 -0.5541
  169MOL0     C22698   4.255   1.009   1.631  0.7887 -1.0641  0.0153
  169MOL0     C22699   4.138   1.000   1.561  0.4558 -0.7541  0.2001
  169MOL0     C22700   4.063   0.869   1.538 -1.6468 -0.0782  0.5609
  169MOL0     C22701   3.908   0.884   1.550  1.4857 -0.9847 -0.5282
  169MOL0     C22702   3.832   0.769   1.488  0.7836  0.0065 -0.3317
  169MOL0     C22703   3.675   0.791   1.515 -0.6961 -0.4136  0.0706
  169MOL0     O22704   3.645   0.761   1.648 -0.8312  0.9935 -0.2671
  169MOL0     C22705   3.510   0.765   1.691 -0.4879 -1.2787  0.3677
  169MOL0     C22706   3.493   0.781   1.827 -0.4386  0.0189  0.4621
  169MOL0     C22707   3.365   0.763   1.888 -0.9949 -0.4309  0.6624
  169MOL0     C22708   3.370   0.776   2.036  0.4049 -0.0530  0.3617
  169MOL0     C22709   3.249   0.747   1.805  0.1362 -0.2300 -0.1570
  169MOL0     C22710   3.110   0.750   1.855  0.3554 -0.9266  0.8110
  169MOL0     O22711   3.088   0.711   1.980  0.0438  0.1917  0.3472
  169MOL0     C22712   2.971   0.740   2.043  0.4810 -0.8646  0.0123
  169MOL0     C22713   3.000   0.763   2.179  0.1917  0.0570 -1.2143
  169MOL0     C22714   2.893   0.788   2.263  0.1241 -0.0032 -0.2981
  169MOL0     C22715   2.759   0.778   2.213 -0.0484 -0.3534 -0.2793
  169MOL0     O22716   2.638   0.809   2.276  0.7491 -0.7705  0.4123
  169MOL0     C22717   2.632   0.735   2.397  0.3519  0.1698 -0.2259
  169MOL0     C22718   2.501   0.760   2.472 -0.2536 -0.7801 -0.3199
  169MOL0     C22719   2.378   0.718   2.394  0.4388  0.6718  0.5558
  169MOL0     C22720   2.244   0.732   2.474 -0.3590 -0.1897 -0.5976
  169MOL0     C22721   2.120   0.691   2.391  0.3771 -0.5708  0.2122
  169MOL0     C22722   1.995   0.674   2.476 -0.7635 -0.2466 -0.5190
  169MOL0     C22723   1.869   0.662   2.397 -0.0411  0.5493  1.2537
  169MOL0     C22724   1.747   0.676   2.491 -0.2662 -0.8822  0.3821
  169MOL0    Cl22725   1.737   0.833   2.558  0.0962 -0.3475  0.0200
  169MOL0     C22726   2.737   0.745   2.079 -0.5976  0.1907  0.7069
  169MOL0     C22727   2.840   0.729   1.996 -0.1906 -0.4547  0.4582
  169MOL0     O22728   3.021   0.767   1.770 -0.3092 -0.9078 -0.4408
  169MOL0     C22729   3.274   0.739   1.671  0.3538  0.7327  0.2982
  169MOL0     C22730   3.399   0.745   1.611 -1.1140 -0.6041 -0.0840
  169MOL0     N22731   4.114   1.122   1.496 -0.3233  0.3333 -0.2662
  169MOL0     N22732   4.211   1.205   1.521 -0.5352 -0.1839 -0.8018
  169MOL0     C22733   5.111   1.515   1.775  0.2540  0.5658  0.7059
  169MOL0     C22734   5.235   1.451   1.741 -0.1729  0.8280  0.6544
  169MOL0     C22735   5.571   1.127   1.778 -0.2839  0.1375 -0.5487
  169MOL0     C22736   5.682   1.212   1.776 -0.6449 -0.6518  1.3707
  169MOL0     C22737   5.813   1.173   1.752 -1.0054 -0.1620  0.4247
  169MOL0     C22738   5.831   1.044   1.707 -1.0481 -0.6740 -0.3817
  169MOL0     O22739   5.955   0.995   1.670  0.0622  0.6808 -0.9335
  169MOL0     C22740   6.022   0.932   1.776 -0.0791  0.0199  0.6091
  169MOL0     C22741   6.174   0.929   1.769 -0.2479  0.0660  0.4030
  169MOL0     C22742   6.236   1.060   1.734 -0.0234 -0.2037 -0.0995
  169MOL0     C22743   6.383   1.043   1.748  0.8159  0.6049  1.2914
  169MOL0     C22744   6.459   1.135   1.670 -0.1778  1.0979 -0.1809
  169MOL0     C22745   6.523   1.217   1.605  1.1167  0.2805 -0.5861
  169MOL0     C22746   5.723   0.948   1.712  0.1252 -0.0980 -0.3209
  169MOL0     C22747   5.593   0.988   1.747  0.3201 -0.6816  0.8051
  169MOL0     H22748   5.295   1.300   2.053 -0.8530  0.8833  1.7070
  169MOL0     H22749   5.097   1.391   2.103  0.8661 -1.5934  0.0141
  169MOL0     H22750   4.884   1.463   2.110  0.1900  0.2592  1.3246
  169MOL0     H22751   4.967   1.617   2.141 -2.0235 -0.9250  2.9130
  169MOL0     H22752   4.728   1.624   2.185  0.7434 -0.6200  0.3281
  169MOL0     H22753   4.790   1.741   2.069 -1.6314  0.4491 -1.7266
  169MOL0     H22754   4.553   1.652   2.022 -0.2546 -1.9285 -0.3202
  169MOL0     H22755   4.681   1.634   1.886  0.9950  0.1739 -0.4263
  169MOL0     H22756   4.712   1.401   1.937 -3.1570 -1.6444 -3.3272
  169MOL0     H22757   4.631   1.418   2.087 -0.6893  0.7053  0.6052
  169MOL0     H22758   4.413   1.421   1.961 -0.1688 -0.3914  0.4445
  169MOL0     H22759   4.499   1.443   1.807  0.8865  1.7280  1.1749
  169MOL0     H22760   4.614   1.231   1.839  1.8211 -0.0187  2.2257
  169MOL0     H22761   4.540   1.211   2.004  0.4258 -0.7128 -0.8593
  169MOL0     H22762   4.407   1.065   1.863  2.4634  0.5377  1.8308
  169MOL0     H22763   4.310   1.211   1.875 -0.6296 -1.3665  2.3995
  169MOL0     H22764   4.505   1.144   1.650 -0.7542 -1.6915 -0.1774
  169MOL0     H22765   4.409   1.296   1.648  3.1938 -0.1088  0.2289
  169MOL0     H22766   4.297   0.938   1.702  0.0259  1.0629  2.7755
  169MOL0     H22767   4.084   0.823   1.440  1.5821  1.8499  0.1991
  169MOL0     H22768   4.093   0.795   1.612  0.7936  1.2639  1.0152
  169MOL0     H22769   3.878   0.978   1.504  1.5524 -0.1433  1.0523
  169MOL0     H22770   3.899   0.881   1.659  1.1685 -1.8706 -0.5751
  169MOL0     H22771   3.853   0.678   1.545 -2.6521  1.0452  3.0561
  169MOL0     H22772   3.858   0.749   1.384  1.5423 -2.3159  0.2478
  169MOL0     H22773   3.621   0.727   1.444  0.6292 -0.2930 -1.0916
  169MOL0     H22774   3.653   0.895   1.491 -0.5711 -0.1418  1.1047
  169MOL0     H22775   3.585   0.788   1.884  0.7465  1.2727 -1.5078
  169MOL0     H22776   3.328   0.683   2.076 -0.3332  1.2532  2.8206
  169MOL0     H22777   3.473   0.791   2.069  1.1720  0.6622 -2.1290
  169MOL0     H22778   3.315   0.857   2.084 -1.3232 -1.6620  1.2337
  169MOL0     H22779   3.102   0.775   2.216  0.1612 -1.4771 -0.5272
  169MOL0     H22780   2.905   0.828   2.363  0.7883 -1.6916  0.3426
  169MOL0     H22781   2.635   0.626   2.387 -0.5673  0.1376 -0.2299
  169MOL0     H22782   2.712   0.765   2.465  0.4156  1.1305 -0.7052
  169MOL0     H22783   2.495   0.704   2.566 -0.5495  1.2532  0.9475
  169MOL0     H22784   2.508   0.866   2.499  1.5056  0.1000 -3.6897
  169MOL0     H22785   2.384   0.612   2.368 -0.6698 -0.0129  2.8904
  169MOL0     H22786   2.370   0.765   2.295  0.2029  0.1071  0.2997
  169MOL0     H22787   2.252   0.666   2.561  2.6445  0.7955  0.0077
  169MOL0     H22788   2.233   0.833   2.514 -2.6458 -0.3922 -0.5989
  169MOL0     H22789   2.134   0.592   2.347  0.3624 -0.7263  0.5539
  169MOL0     H22790   2.099   0.760   2.309 -2.7821 -0.8436  0.6938
  169MOL0     H22791   2.011   0.590   2.543 -2.0522  0.6292  0.9885
  169MOL0     H22792   1.993   0.758   2.547  0.6094  0.6074 -1.4384
  169MOL0     H22793   1.857   0.564   2.351  1.3552  0.8994  0.0688
  169MOL0     H22794   1.877   0.737   2.318  0.9181 -0.2384  0.5770
  169MOL0     H22795   1.747   0.611   2.579  0.1220 -0.3308  0.7914
  169MOL0     H22796   1.653   0.662   2.437 -1.6144  2.1848  1.6802
  169MOL0     H22797   2.634   0.743   2.045 -1.2123  3.4737  1.9918
  169MOL0     H22798   2.831   0.680   1.900 -0.8869  0.3905  0.0851
  169MOL0     H22799   3.188   0.728   1.606  0.7491 -3.2976  0.1738
  169MOL0     H22800   3.406   0.718   1.506  1.7164 -2.0778  0.3724
  169MOL0     H22801   5.060   1.566   1.693 -0.7978 -1.7071 -0.1493
  169MOL0     H22802   5.277   1.466   1.642 -3.1873  0.1010 -0.8718
  169MOL0     H22803   5.675   1.316   1.807 -2.1091 -0.5857  0.8901
  169MOL0     H22804   5.895   1.242   1.767  0.0553 -1.6523  1.8611
  169MOL0     H22805   5.995   0.976   1.873 -0.8962 -0.5948  0.6642
  169MOL0     H22806   5.990   0.828   1.772  0.5577 -0.2128  1.2742
  169MOL0     H22807   6.214   0.855   1.699 -2.2731  0.3681 -1.1753
  169MOL0     H22808   6.211   0.906   1.869 -2.1868  2.7456  1.8744
  169MOL0     H22809   6.203   1.131   1.811  0.7247  0.8576 -0.7443
  169MOL0     H22810   6.214   1.085   1.630  2.6514 -3.1181 -1.5412
  169MOL0     H22811   6.410   0.943   1.712 -2.4627  0.3779 -0.9628
  169MOL0     H22812   6.420   1.057   1.850  0.6769 -0.0536  1.4390
  169MOL0     H22813   6.561   1.291   1.537  1.0347  0.3059 -0.6036
  169MOL0     H22814   5.747   0.847   1.683  2.2923  0.6184 -1.2299
  169MOL0     H22815   5.510   0.919   1.757 -0.4013  0.3040  2.0279
  170MOL0     O22816   6.114   3.757   5.759  0.3758  0.0599  0.5472
  170MOL0     C22817   6.209   3.834   5.736  0.0717  0.2263  0.0609
  170MOL0     O22818   6.278   3.848   5.620  0.1520 -0.3208  0.1620
  170MOL0     C22819   6.253   3.750   5.522  1.0486  0.1651 -0.2800
  170MOL0     C22820   6.141   3.767   5.445 -0.1924 -0.1066  0.4097
  170MOL0     C22821   6.127   3.693   5.334  0.3430  0.8532  0.3148
  170MOL0     C22822   6.208   3.580   5.304 -1.1690 -0.5890  0.3110
  170MOL0     O22823   6.178   3.511   5.197  0.2195 -0.0874 -0.1139
  170MOL0     C22824   6.265   3.406   5.165 -0.5026 -0.1966 -0.7529
  170MOL0     C22825   6.208   3.333   5.046 -0.4044  0.2794  0.1904
  170MOL0     C22826   6.303   3.214   5.015 -0.6238 -0.4310  0.1068
  170MOL0     C22827   6.242   3.158   4.875  0.4458 -0.5049 -0.2173
  170MOL0     C22828   6.279   3.006   4.854 -0.4900 -0.1086 -0.5807
  170MOL0     C22829   6.214   2.916   4.958 -0.9591 -0.1351 -0.3476
  170MOL0     C22830   6.249   2.767   4.919  0.1754 -0.7774  0.3797
  170MOL0     C22831   6.181   2.679   5.015 -0.9493  0.4526 -0.0555
  170MOL0     N22832   6.043   2.656   4.980 -0.1768  0.1353 -0.1485
  170MOL0     C22833   5.991   2.608   4.862  0.4633  0.2329  0.3854
  170MOL0     C22834   5.866   2.601   4.881  0.4651 -0.5835  1.3313
  170MOL0     C22835   5.754   2.570   4.768 -0.1773 -0.6831  0.7119
  170MOL0     C22836   5.789   2.453   4.683  0.5043 -0.0864  0.5587
  170MOL0     C22837   5.681   2.409   4.591  0.7713  0.0078  0.3795
  170MOL0     C22838   5.658   2.506   4.475  0.0583  1.1480 -0.3486
  170MOL0     O22839   5.549   2.470   4.393 -0.1450 -0.4665 -0.7180
  170MOL0     C22840   5.480   2.571   4.330 -0.2893  0.5267  0.3054
  170MOL0     C22841   5.360   2.533   4.274  0.0212 -0.0197 -0.2449
  170MOL0     C22842   5.281   2.624   4.214  0.5451 -1.2366 -0.0028
  170MOL0     C22843   5.145   2.583   4.160  0.0640 -0.4414  0.3086
  170MOL0     C22844   5.315   2.767   4.216 -0.4011  0.9173  0.0668
  170MOL0     C22845   5.217   2.867   4.172  0.5558  0.0875  0.4970
  170MOL0     O22846   5.144   2.915   4.282  0.2614 -0.2136  0.5179
  170MOL0     C22847   5.056   3.016   4.284  0.6929  0.1173  0.5907
  170MOL0     C22848   5.008   3.088   4.177  0.6640  1.1050  0.2028
  170MOL0     C22849   4.913   3.182   4.195  0.4856 -0.8047 -0.0481
  170MOL0     C22850   4.858   3.202   4.318 -0.0076  1.0434 -0.7327
  170MOL0     O22851   4.758   3.295   4.347  0.3116  0.0464  0.5416
  170MOL0     C22852   4.638   3.276   4.268  0.2185 -0.7659 -0.1215
  170MOL0     C22853   4.537   3.390   4.318  0.4423  0.2776 -0.5097
  170MOL0     C22854   4.442   3.439   4.206  0.2173 -0.3245 -0.0910
  170MOL0     C22855   4.335   3.330   4.184 -0.3283 -0.0072  0.6511
  170MOL0     C22856   4.217   3.387   4.095  0.3711  0.0655 -0.1271
  170MOL0     C22857   4.269   3.420   3.952 -0.1179  0.7422 -0.6012
  170MOL0     C22858   4.142   3.436   3.864  0.2212 -0.0342 -0.3486
  170MOL0     C22859   4.182   3.536   3.751  0.9678  0.6617  0.4163
  170MOL0    Cl22860   4.026   3.587   3.693  0.0457  0.3995  0.4118
  170MOL0     C22861   4.900   3.124   4.427  0.2695 -0.9094  0.1531
  170MOL0     C22862   4.996   3.029   4.407 -0.8338  0.1038 -0.7308
  170MOL0     O22863   5.207   2.899   4.060 -0.0486  0.0201  0.9915
  170MOL0     C22864   5.430   2.804   4.277  0.3377 -0.0626 -0.5705
  170MOL0     C22865   5.519   2.713   4.326  0.0843  0.2638  0.1138
  170MOL0     N22866   5.833   2.645   5.012  0.4183  0.4243  0.1631
  170MOL0     N22867   5.943   2.679   5.067  0.3695  0.0323  0.2875
  170MOL0     C22868   6.323   3.561   5.387 -0.4986  0.4515 -0.2304
  170MOL0     C22869   6.350   3.650   5.490 -0.4306  0.3276 -0.5479
  170MOL0     C22870   6.224   3.947   5.834  0.4283 -0.0069 -0.4132
  170MOL0     C22871   6.171   3.936   5.968  0.1464  0.6946 -0.0029
  170MOL0     C22872   6.183   4.054   6.055 -0.3773  1.1632  0.7127
  170MOL0     C22873   6.246   4.165   6.019  0.0751 -0.5377  0.0413
  170MOL0     O22874   6.249   4.270   6.101  0.2508 -0.1768  0.4429
  170MOL0     C22875   6.324   4.390   6.076  1.2704  0.3844  0.2967
  170MOL0     C22876   6.467   4.364   6.105 -0.2287  0.8387 -0.3576
  170MOL0     C22877   6.549   4.492   6.080  0.4882  0.2592 -0.3844
  170MOL0     C22878   6.699   4.478   6.056 -0.0561 -0.1321 -0.0277
  170MOL0     C22879   6.729   4.399   5.933 -0.4289 -0.6889  0.3313
  170MOL0     C22880   6.745   4.342   5.829 -0.9342 -0.8720 -0.0594
  170MOL0     C22881   6.295   4.172   5.887  0.1728 -0.0090 -0.6201
  170MOL0     C22882   6.295   4.060   5.799 -0.1579  0.0777 -0.2276
  170MOL0     H22883   6.075   3.852   5.457  1.5632  1.4072 -0.1329
  170MOL0     H22884   6.038   3.705   5.273 -0.0506  4.9269  1.3716
  170MOL0     H22885   6.360   3.443   5.126 -0.4727 -3.3545 -4.1974
  170MOL0     H22886   6.283   3.338   5.248 -0.1765 -2.0163 -2.2570
  170MOL0     H22887   6.105   3.299   5.061 -0.6414  0.7557 -0.2844
  170MOL0     H22888   6.209   3.393   4.954 -2.3268 -0.4357 -0.3413
  170MOL0     H22889   6.411   3.228   5.006 -0.3688 -1.5385  1.3100
  170MOL0     H22890   6.286   3.136   5.089  2.1947 -4.0913 -2.6816
  170MOL0     H22891   6.133   3.164   4.879  0.3841 -1.9379  1.3471
  170MOL0     H22892   6.288   3.216   4.794 -1.1184  0.8182 -0.2117
  170MOL0     H22893   6.264   2.981   4.749 -0.9665  1.5772 -0.9574
  170MOL0     H22894   6.388   3.000   4.855 -0.3480 -1.3478 -4.8808
  170MOL0     H22895   6.256   2.930   5.058  0.1537 -0.8150 -0.6962
  170MOL0     H22896   6.106   2.934   4.963 -0.8168  0.6017  0.1598
  170MOL0     H22897   6.202   2.746   4.823  0.3367 -1.0537  0.3614
  170MOL0     H22898   6.357   2.755   4.906  0.0106 -0.3106 -1.7700
  170MOL0     H22899   6.198   2.722   5.114 -1.2564  3.3169 -1.1367
  170MOL0     H22900   6.240   2.587   5.015  1.8589  2.1180  1.2594
  170MOL0     H22901   6.032   2.578   4.766 -1.8089 -1.2745 -0.2051
  170MOL0     H22902   5.657   2.564   4.817 -2.6303  1.0933 -3.3940
  170MOL0     H22903   5.741   2.656   4.702 -3.9065 -0.1601  1.9287
  170MOL0     H22904   5.800   2.371   4.755 -0.5603  0.6550  1.6018
  170MOL0     H22905   5.875   2.482   4.622  0.5969 -1.3135  0.0759
  170MOL0     H22906   5.590   2.378   4.643  1.1472 -1.5238  0.1835
  170MOL0     H22907   5.703   2.310   4.551  1.1135 -0.8330  2.5323
  170MOL0     H22908   5.749   2.503   4.414  0.5348 -2.4120  0.3175
  170MOL0     H22909   5.647   2.608   4.514 -0.4061  1.7137 -1.8988
  170MOL0     H22910   5.328   2.431   4.295 -1.9065  0.9129  1.7257
  170MOL0     H22911   5.130   2.476   4.172 -2.7923 -0.0880  0.6842
  170MOL0     H22912   5.056   2.614   4.216  0.0652 -1.5492  0.9545
  170MOL0     H22913   5.123   2.601   4.054 -2.7069 -2.2988  0.4552
  170MOL0     H22914   5.049   3.079   4.076  3.7023 -1.8961  1.4934
  170MOL0     H22915   4.873   3.230   4.107 -1.0425  0.5849  1.3395
  170MOL0     H22916   4.658   3.278   4.161  2.1610 -2.8600  0.1263
  170MOL0     H22917   4.611   3.172   4.287  1.1501 -1.4619 -2.3465
  170MOL0     H22918   4.483   3.348   4.403 -0.3357  0.6237 -0.8277
  170MOL0     H22919   4.586   3.478   4.360 -1.0718 -0.3262  2.8079
  170MOL0     H22920   4.499   3.463   4.116 -0.3876  1.4235 -0.0312
  170MOL0     H22921   4.391   3.528   4.242 -1.8829 -1.5192  0.0775
  170MOL0     H22922   4.388   3.255   4.124  1.9890  1.3421  0.8788
  170MOL0     H22923   4.305   3.289   4.280 -0.9352 -0.6960  0.1837
  170MOL0     H22924   4.160   3.467   4.144  2.7851 -0.1164  3.3606
  170MOL0     H22925   4.142   3.307   4.090 -1.6487  1.9306 -1.4657
  170MOL0     H22926   4.321   3.516   3.954  2.3658 -0.5547  0.5597
  170MOL0     H22927   4.334   3.342   3.912  0.5691  1.6208 -1.2466
  170MOL0     H22928   4.056   3.477   3.918  1.3032  1.7063  0.1405
  170MOL0     H22929   4.113   3.343   3.815 -1.9683  0.4526 -0.0602
  170MOL0     H22930   4.236   3.473   3.680  1.1019 -1.2743  2.1369
  170MOL0     H22931   4.247   3.621   3.775  2.7048 -0.4934  0.0331
  170MOL0     H22932   4.846   3.131   4.521 -0.8502 -2.2091 -0.3486
  170MOL0     H22933   5.027   2.971   4.493  1.7005  1.5117 -0.5818
  170MOL0     H22934   5.465   2.905   4.301  0.5735 -0.2699 -0.0120
  170MOL0     H22935   5.614   2.750   4.363  0.0089  3.6622 -2.5926
  170MOL0     H22936   6.391   3.480   5.365 -2.0025 -0.9277  0.0766
  170MOL0     H22937   6.440   3.653   5.552 -0.8774  1.4978  0.0842
  170MOL0     H22938   6.123   3.843   5.997  2.6472 -0.5920  0.2874
  170MOL0     H22939   6.144   4.045   6.155  2.7593 -1.3005  1.8744
  170MOL0     H22940   6.301   4.441   5.981 -3.5829  0.2398  1.1142
  170MOL0     H22941   6.284   4.465   6.145 -2.6441 -0.7826 -0.4108
  170MOL0     H22942   6.515   4.286   6.046 -2.8576  0.1933 -1.8392
  170MOL0     H22943   6.473   4.328   6.208  2.6476 -1.5003 -1.2046
  170MOL0     H22944   6.527   4.547   6.172 -0.1492  1.1435 -1.0499
  170MOL0     H22945   6.515   4.550   5.994  1.6417 -0.4571 -1.3613
  170MOL0     H22946   6.753   4.438   6.142 -0.4375  1.6209  1.0748
  170MOL0     H22947   6.740   4.575   6.028 -1.7108  0.8069  0.6698
  170MOL0     H22948   6.779   4.306   5.734  0.6593 -0.7598  0.4480
  170MOL0     H22949   6.349   4.256   5.843 -1.3390  0.3565 -1.8335
  170MOL0     H22950   6.357   4.058   5.710  0.0156 -3.0048 -0.1374
  171MOL0     O22951   1.390   9.269   8.579  0.4373 -0.6792 -0.1313
  171MOL0     C22952   1.460   9.367   8.619  0.3410  0.4773 -0.5116
  171MOL0     O22953   1.416   9.483   8.686  0.5995 -0.2373  0.1706
  171MOL0     C22954   1.277   9.471   8.715 -0.0046  0.5581  0.4278
  171MOL0     C22955   1.252   9.431   8.846  0.2105  0.8682 -1.2289
  171MOL0     C22956   1.124   9.410   8.883 -0.5456 -0.7797 -0.3898
  171MOL0     C22957   1.018   9.438   8.797  0.0493 -0.0388  0.2616
  171MOL0     O22958   0.886   9.408   8.809  0.0173  0.2790  0.0420
  171MOL0     C22959   0.841   9.372   8.943 -0.1670 -0.3287 -0.5098
  171MOL0     C22960   0.695   9.331   8.945 -0.1866  0.5564 -0.2612
  171MOL0     C22961   0.605   9.453   8.938  0.3289 -0.1179 -1.0158
  171MOL0     C22962   0.463   9.409   8.956  0.2511  0.6245  0.4495
  171MOL0     C22963   0.360   9.524   8.958 -0.0610 -0.2985 -0.4536
  171MOL0     C22964   0.323   9.600   9.098  0.2289 -0.1210 -0.1105
  171MOL0     C22965   0.233   9.520   9.196  0.3149 -0.0200 -0.1997
  171MOL0     C22966   0.177   9.599   9.314  0.1052 -0.3388 -0.0303
  171MOL0     N22967   0.284   9.642   9.408 -0.3413 -0.2531  0.7882
  171MOL0     C22968   0.329   9.770   9.438  0.2487 -0.3657 -0.9135
  171MOL0     C22969   0.440   9.747   9.520  1.0469 -0.3544 -0.2495
  171MOL0     C22970   0.535   9.848   9.580  0.1826  0.3221 -1.1800
  171MOL0     C22971   0.673   9.834   9.531 -0.4747  0.3636  1.0149
  171MOL0     C22972   0.777   9.931   9.587  0.1519 -0.4318 -1.2372
  171MOL0     C22973   0.908   9.940   9.522 -0.4043  0.1543 -0.1423
  171MOL0     O22974   0.894  10.005   9.390  0.6487  0.2860 -0.0720
  171MOL0     C22975   1.008  10.035   9.322 -0.9876 -0.3041  0.7673
  171MOL0     C22976   1.011  10.137   9.225  0.4072  0.6375 -0.0475
  171MOL0     C22977   1.128  10.182   9.167  0.5514  0.3035 -0.5347
  171MOL0     C22978   1.117  10.282   9.057  0.6238 -1.5030  0.6250
  171MOL0     C22979   1.257  10.139   9.206  0.0344 -0.0206 -0.3652
  171MOL0     C22980   1.379  10.193   9.151 -0.5583  0.4079  0.3073
  171MOL0     O22981   1.483  10.104   9.162  0.1682  0.9957  0.2900
  171MOL0     C22982   1.616  10.151   9.159  0.2750  0.3140 -0.1402
  171MOL0     C22983   1.675  10.194   9.043  0.6977  0.2596 -0.4528
  171MOL0     C22984   1.803  10.250   9.038  0.3898 -0.0776  0.1745
  171MOL0     C22985   1.886  10.260   9.155 -0.0290 -0.0449  1.5532
  171MOL0     O22986   2.018  10.303   9.138  0.1133 -0.1250  0.9500
  171MOL0     C22987   2.091  10.338   9.257  0.2210 -1.1511 -0.6252
  171MOL0     C22988   2.206  10.436   9.221 -0.6825  0.1806 -0.0052
  171MOL0     C22989   2.329  10.360   9.167  0.7941  0.1116 -0.3306
  171MOL0     C22990   2.321  10.306   9.020 -0.9540 -1.1703  0.0183
  171MOL0     C22991   2.432  10.196   8.985 -0.9068  0.1628 -0.3074
  171MOL0     C22992   2.396  10.106   8.871  0.1818 -0.4590 -0.0421
  171MOL0     C22993   2.488   9.996   8.849 -1.0543 -0.6992  0.1933
  171MOL0     C22994   2.504   9.889   8.956  0.3728  0.3379 -0.2370
  171MOL0    Cl22995   2.552   9.721   8.897 -0.0092  0.3704  0.2667
  171MOL0     C22996   1.836  10.202   9.266 -0.1544  0.6558 -0.4948
  171MOL0     C22997   1.703  10.154   9.275  0.7313  0.2332 -0.5085
  171MOL0     O22998   1.399  10.313   9.125  0.4736 -0.5147  0.1219
  171MOL0     C22999   1.255  10.031   9.303 -0.0593 -0.3141  0.0778
  171MOL0     C23000   1.137   9.984   9.357  0.2404 -1.3139  0.5653
  171MOL0     N23001   0.457   9.617   9.531 -0.1931  0.6938  0.9309
  171MOL0     N23002   0.373   9.558   9.455  0.1384  0.2935 -0.4391
  171MOL0     C23003   1.043   9.480   8.666 -0.6624  0.3347 -0.2786
  171MOL0     C23004   1.173   9.503   8.624 -0.4706  0.2448  0.3867
  171MOL0     C23005   1.609   9.354   8.590 -0.2699  0.6533  0.2782
  171MOL0     C23006   1.704   9.432   8.659  0.2486  0.1316  0.4665
  171MOL0     C23007   1.841   9.416   8.631 -0.1174 -1.1142  0.0340
  171MOL0     C23008   1.884   9.326   8.532  0.1123  0.4841  0.7368
  171MOL0     O23009   2.018   9.316   8.501 -0.5295 -0.4389 -0.7378
  171MOL0     C23010   2.046   9.376   8.371  0.3016 -0.5287  0.5856
  171MOL0     C23011   2.192   9.379   8.341 -0.8050  0.7883 -0.0932
  171MOL0     C23012   2.274   9.442   8.457  1.1041  0.1130  1.2648
  171MOL0     C23013   2.416   9.429   8.419 -0.1257  0.5079  0.2746
  171MOL0     C23014   2.499   9.529   8.489  0.3931 -0.7080 -0.2302
  171MOL0     C23015   2.562   9.613   8.552  0.1106 -0.5361 -0.6367
  171MOL0     C23016   1.783   9.261   8.464  0.5379  0.3337  0.3610
  171MOL0     C23017   1.644   9.266   8.491 -0.5813 -0.1372 -0.5996
  171MOL0     H23018   1.342   9.432   8.906  1.5324 -0.6554 -3.0817
  171MOL0     H23019   1.118   9.354   8.976  3.2395  0.3564  0.6886
  171MOL0     H23020   0.904   9.291   8.982 -0.2230  0.6291  1.7653
  171MOL0     H23021   0.843   9.454   9.016 -1.3818  0.4107 -1.2719
  171MOL0     H23022   0.688   9.269   8.855  0.7537  1.7289 -1.1681
  171MOL0     H23023   0.675   9.268   9.033 -1.2001  1.4222  0.1454
  171MOL0     H23024   0.616   9.520   9.024 -0.0421  1.1530 -1.9392
  171MOL0     H23025   0.628   9.513   8.850 -0.5464  3.2620  0.8790
  171MOL0     H23026   0.450   9.355   8.862  3.0132  1.7583 -0.6695
  171MOL0     H23027   0.441   9.356   9.049  3.2339  1.5734  1.8111
  171MOL0     H23028   0.392   9.592   8.879 -0.8111 -1.9685 -2.2647
  171MOL0     H23029   0.271   9.474   8.919  1.0460 -1.9422 -0.9823
  171MOL0     H23030   0.415   9.630   9.149 -0.0452  0.0533  0.2753
  171MOL0     H23031   0.273   9.689   9.058  0.6525 -0.3009 -1.0699
  171MOL0     H23032   0.154   9.479   9.133  0.8342 -1.3490  0.0027
  171MOL0     H23033   0.286   9.434   9.237 -1.6272 -0.2414  2.1457
  171MOL0     H23034   0.106   9.543   9.376  2.1310 -2.0075  0.9410
  171MOL0     H23035   0.133   9.695   9.287 -0.2170 -0.7003 -0.8001
  171MOL0     H23036   0.272   9.858   9.411 -1.4118 -0.9859  0.4235
  171MOL0     H23037   0.510   9.954   9.575  1.9773  0.9609  1.4619
  171MOL0     H23038   0.551   9.828   9.687  4.4980  0.8449 -1.5393
  171MOL0     H23039   0.664   9.861   9.426 -0.4654 -0.4223  0.8098
  171MOL0     H23040   0.701   9.729   9.528 -1.6653  0.0487 -0.0153
  171MOL0     H23041   0.805   9.897   9.688  0.8117 -1.6097 -1.7977
  171MOL0     H23042   0.735  10.032   9.589 -0.5836 -0.7100  1.7226
  171MOL0     H23043   0.953   9.841   9.517 -2.1771 -0.6503 -1.0782
  171MOL0     H23044   0.968   9.996   9.593  0.2182 -1.5468  0.7176
  171MOL0     H23045   0.915  10.172   9.188 -0.0062  1.1350  1.3936
  171MOL0     H23046   1.190  10.261   8.979 -0.6301 -2.7611 -0.2458
  171MOL0     H23047   1.024  10.288   9.001  0.5230 -0.4223  0.8865
  171MOL0     H23048   1.152  10.377   9.099  1.9747 -1.1897 -1.0988
  171MOL0     H23049   1.615  10.208   8.954 -0.1853  0.3069  0.1318
  171MOL0     H23050   1.839  10.301   8.950  3.6893  1.6970  2.3347
  171MOL0     H23051   2.016  10.400   9.308 -0.3376  0.7679 -3.5059
  171MOL0     H23052   2.112  10.254   9.324  1.6138  2.2704  3.7243
  171MOL0     H23053   2.180  10.518   9.154 -0.5452 -0.0977 -0.4013
  171MOL0     H23054   2.238  10.480   9.316 -0.1919 -0.3459  0.0753
  171MOL0     H23055   2.342  10.279   9.239 -1.4425  0.8011  0.9723
  171MOL0     H23056   2.420  10.420   9.181 -0.8199  2.6734 -0.0677
  171MOL0     H23057   2.220  10.267   9.002 -0.2909 -5.1772  3.3243
  171MOL0     H23058   2.322  10.396   8.959  0.1490  0.1576  1.8982
  171MOL0     H23059   2.443  10.134   9.075 -1.8226  0.7125  0.1921
  171MOL0     H23060   2.533  10.233   8.964  1.0122 -4.6524 -0.8883
  171MOL0     H23061   2.292  10.075   8.884 -0.6331  1.1171 -2.3163
  171MOL0     H23062   2.409  10.156   8.775 -1.9412 -1.6511 -1.0029
  171MOL0     H23063   2.581  10.051   8.832 -2.2570  1.8474  1.2492
  171MOL0     H23064   2.446   9.942   8.763  1.1911 -0.0897 -1.3836
  171MOL0     H23065   2.413   9.883   9.015  1.1996  0.0296  1.0574
  171MOL0     H23066   2.569   9.920   9.039  0.8194  1.6302 -1.0470
  171MOL0     H23067   1.901  10.206   9.353 -0.4104  0.7885 -0.3073
  171MOL0     H23068   1.652  10.103   9.356 -0.5249 -0.5831 -1.7609
  171MOL0     H23069   1.352   9.992   9.331  2.0461  3.3127 -1.4495
  171MOL0     H23070   1.143   9.897   9.422  1.3901 -0.8175  1.1494
  171MOL0     H23071   0.960   9.510   8.603  0.3374  0.3582 -1.6264
  171MOL0     H23072   1.207   9.544   8.529  2.0104 -2.1787  0.0897
  171MOL0     H23073   1.665   9.502   8.731 -1.7560  0.3975 -0.7963
  171MOL0     H23074   1.913   9.480   8.681  2.5821 -3.0111 -1.2248
  171MOL0     H23075   1.995   9.324   8.290 -0.6755  1.5199 -0.1806
  171MOL0     H23076   1.994   9.472   8.364 -3.3148 -2.3470  0.1150
  171MOL0     H23077   2.204   9.430   8.245 -1.7227 -1.3442 -1.4085
  171MOL0     H23078   2.233   9.280   8.321 -0.3260  0.7480  1.0578
  171MOL0     H23079   2.258   9.410   8.560  0.0079  3.8556  2.4233
  171MOL0     H23080   2.251   9.549   8.455  2.4421  0.4162  1.4586
  171MOL0     H23081   2.415   9.453   8.312 -3.0725 -0.5503 -0.0371
  171MOL0     H23082   2.469   9.334   8.435  1.6644  1.6660  1.5393
  171MOL0     H23083   2.598   9.704   8.595 -1.3816  0.4503 -1.3718
  171MOL0     H23084   1.817   9.206   8.377  1.5488  1.1313  0.2347
  171MOL0     H23085   1.569   9.211   8.436  1.0364 -2.4237 -0.6692
  172MOL0     O23086   0.311   4.636   8.082  0.2514 -0.6647 -1.0442
  172MOL0     C23087   0.321   4.532   8.143 -0.3746 -1.0127  0.8802
  172MOL0     O23088   0.219   4.471   8.211  0.4956  0.0435  0.5394
  172MOL0     C23089   0.099   4.538   8.222  0.7881 -0.1582  0.8362
  172MOL0     C23090   0.072   4.628   8.320 -0.4035  0.5982 -0.5883
  172MOL0     C23091  -0.055   4.678   8.348  0.1277  0.2783 -0.3690
  172MOL0     C23092  -0.161   4.648   8.265  0.1383 -0.8620  0.1753
  172MOL0     O23093  -0.288   4.693   8.276  0.3418  0.0822  0.3345
  172MOL0     C23094  -0.323   4.797   8.366 -0.3469  0.5408  0.8738
  172MOL0     C23095  -0.476   4.805   8.382 -0.3745 -0.0442  0.0977
  172MOL0     C23096  -0.523   4.929   8.458  0.0074  0.7264  0.0366
  172MOL0     C23097  -0.677   4.953   8.450  0.2736 -0.3584  0.4071
  172MOL0     C23098  -0.705   5.077   8.531  1.0332  0.2847 -0.3214
  172MOL0     C23099  -0.858   5.118   8.529 -0.0610  0.3991 -0.5240
  172MOL0     C23100  -0.911   5.166   8.396  0.8647  0.7526  0.3435
  172MOL0     C23101  -1.058   5.125   8.387  0.7803 -0.1877  0.1397
  172MOL0     N23102  -1.138   5.183   8.282 -1.0716  0.9594  0.5549
  172MOL0     C23103  -1.141   5.320   8.256  0.0484  0.2757  0.0722
  172MOL0     C23104  -1.215   5.328   8.146 -0.3711 -0.0003  0.3054
  172MOL0     C23105  -1.253   5.451   8.061 -0.9505  1.1687  0.5832
  172MOL0     C23106  -1.368   5.532   8.125 -0.0800  0.2109 -0.0042
  172MOL0     C23107  -1.427   5.640   8.035  0.4765 -0.4812 -0.6066
  172MOL0     C23108  -1.479   5.758   8.128 -0.1102 -0.7417  0.6491
  172MOL0     O23109  -1.576   5.838   8.057  0.9123  0.4270 -0.0509
  172MOL0     C23110  -1.692   5.773   8.015  0.2155  0.5353 -0.1113
  172MOL0     C23111  -1.740   5.656   8.059  0.4672  0.6671 -0.1131
  172MOL0     C23112  -1.856   5.595   8.008 -0.1601 -0.9989 -0.5975
  172MOL0     C23113  -1.893   5.462   8.065 -0.0860 -0.1373  0.4078
  172MOL0     C23114  -1.942   5.676   7.932 -0.1374 -0.2850 -0.0473
  172MOL0     C23115  -2.087   5.644   7.917  0.4812 -1.3300 -0.5364
  172MOL0     O23116  -2.155   5.679   7.798 -0.4994 -0.2401 -0.4098
  172MOL0     C23117  -2.286   5.622   7.779 -0.0120 -0.3931  0.5375
  172MOL0     C23118  -2.284   5.506   7.713 -0.8256 -0.3369  0.3612
  172MOL0     C23119  -2.409   5.449   7.673  0.8991  0.1879 -0.3766
  172MOL0     C23120  -2.535   5.513   7.705  0.0047 -0.1736  0.7418
  172MOL0     O23121  -2.653   5.453   7.677  0.3251 -0.1890 -0.3103
  172MOL0     C23122  -2.658   5.311   7.673  0.5538  1.1690 -0.1444
  172MOL0     C23123  -2.795   5.243   7.675  0.5387 -0.1568 -0.2071
  172MOL0     C23124  -2.871   5.292   7.800 -0.1317  0.0860  0.0802
  172MOL0     C23125  -3.025   5.255   7.789  0.1774 -0.2187 -0.0217
  172MOL0     C23126  -3.113   5.314   7.906  0.2477 -0.9122  0.6014
  172MOL0     C23127  -3.250   5.265   7.892  0.5120 -0.2665 -0.6606
  172MOL0     C23128  -3.328   5.301   8.023 -0.4997 -0.2105 -0.6163
  172MOL0     C23129  -3.457   5.222   8.022 -0.9452  0.4222 -0.2122
  172MOL0    Cl23130  -3.553   5.312   8.151  0.0949  0.0030  0.2481
  172MOL0     C23131  -2.530   5.644   7.761 -0.4030  0.6496 -0.7538
  172MOL0     C23132  -2.404   5.701   7.793 -0.7345  0.2657  0.7284
  172MOL0     O23133  -2.149   5.586   8.009 -0.3846 -0.5310  0.6004
  172MOL0     C23134  -1.886   5.803   7.893 -0.0414  1.6197  0.2532
  172MOL0     C23135  -1.756   5.847   7.922  0.3897  0.3442  0.0408
  172MOL0     N23136  -1.254   5.198   8.116  0.5395 -1.3810  0.0793
  172MOL0     N23137  -1.204   5.110   8.191 -0.3886 -0.2909 -0.0628
  172MOL0     C23138  -0.137   4.554   8.155  0.2387  0.4120 -0.6167
  172MOL0     C23139  -0.012   4.497   8.139 -0.9998  0.1088  0.0166
  172MOL0     C23140   0.450   4.465   8.106 -0.1932 -0.3955  0.7578
  172MOL0     C23141   0.560   4.521   8.042 -0.3984  0.2929  1.1668
  172MOL0     C23142   0.673   4.448   8.008 -0.3075  0.1462 -1.1813
  172MOL0     C23143   0.686   4.317   8.056 -0.3943 -0.1335  0.0687
  172MOL0     O23144   0.806   4.253   8.024 -0.2487  0.3003 -0.3726
  172MOL0     C23145   0.816   4.225   7.887 -0.2442 -0.3508 -0.0747
  172MOL0     C23146   0.896   4.096   7.870  0.4057  0.0504 -0.4062
  172MOL0     C23147   1.051   4.128   7.858  0.4650  0.0000 -0.1907
  172MOL0     C23148   1.130   4.010   7.895 -0.5708 -0.6454 -0.5278
  172MOL0     C23149   1.272   4.041   7.860  1.0420 -0.7072 -0.0692
  172MOL0     C23150   1.391   4.053   7.837  0.2236 -0.4305  0.0060
  172MOL0     C23151   0.580   4.258   8.126 -0.8479 -1.1038  0.5917
  172MOL0     C23152   0.468   4.333   8.142  0.7831 -0.3917 -0.2432
  172MOL0     H23153   0.150   4.659   8.389  0.7198  0.4383 -1.7621
  172MOL0     H23154  -0.064   4.747   8.431 -1.1683 -1.4969  1.0316
  172MOL0     H23155  -0.286   4.785   8.468 -1.5965  2.5562  1.6415
  172MOL0     H23156  -0.280   4.894   8.337  0.6113 -0.5197 -1.4341
  172MOL0     H23157  -0.522   4.830   8.286  1.1744  1.8409 -0.2191
  172MOL0     H23158  -0.520   4.708   8.409 -1.6186 -0.3508 -2.7403
  172MOL0     H23159  -0.501   4.914   8.564 -0.7271 -2.5677 -0.1511
  172MOL0     H23160  -0.478   5.013   8.406 -0.4778 -1.0652 -3.6028
  172MOL0     H23161  -0.710   4.964   8.346 -3.0602  0.6727  1.4531
  172MOL0     H23162  -0.740   4.871   8.484 -0.5934 -0.5547 -1.5128
  172MOL0     H23163  -0.668   5.059   8.633 -0.5948  0.2594  0.2860
  172MOL0     H23164  -0.637   5.155   8.494  0.7960 -0.5784 -2.7136
  172MOL0     H23165  -0.913   5.029   8.561  0.0411  0.4482 -0.2034
  172MOL0     H23166  -0.859   5.196   8.606 -0.8225 -1.7141  1.7695
  172MOL0     H23167  -0.898   5.271   8.369  0.5234  0.2698 -1.8956
  172MOL0     H23168  -0.851   5.121   8.316  1.8012 -0.0960  1.4711
  172MOL0     H23169  -1.114   5.137   8.480 -0.9828  2.1840 -1.1216
  172MOL0     H23170  -1.061   5.018   8.363 -1.7463 -0.4651  1.3657
  172MOL0     H23171  -1.084   5.395   8.310  1.1223 -0.4886  0.0396
  172MOL0     H23172  -1.171   5.517   8.031 -0.1867  0.2555  0.6281
  172MOL0     H23173  -1.281   5.427   7.958  0.5655  0.8677  0.2158
  172MOL0     H23174  -1.328   5.592   8.207 -1.2150  0.7465  0.1675
  172MOL0     H23175  -1.451   5.468   8.156  0.5386 -0.5208  0.1639
  172MOL0     H23176  -1.511   5.596   7.981 -0.4331 -0.6303  0.8689
  172MOL0     H23177  -1.352   5.691   7.973  1.5006 -1.4019 -0.1602
  172MOL0     H23178  -1.388   5.814   8.152 -0.6035 -0.1087  1.0880
  172MOL0     H23179  -1.520   5.728   8.224 -1.7671  0.4659  0.3780
  172MOL0     H23180  -1.689   5.611   8.143 -0.2926  0.9020  0.4906
  172MOL0     H23181  -1.940   5.470   8.163  0.6142  0.0093  0.7402
  172MOL0     H23182  -1.963   5.411   7.998 -1.0850 -0.8401  1.9487
  172MOL0     H23183  -1.807   5.397   8.078  0.5927 -0.0896 -2.9584
  172MOL0     H23184  -2.197   5.443   7.693  0.4152  0.3060  3.2625
  172MOL0     H23185  -2.405   5.353   7.623 -1.0541  0.2137 -0.6556
  172MOL0     H23186  -2.608   5.279   7.582  0.1993  1.0346 -0.2923
  172MOL0     H23187  -2.601   5.278   7.760 -1.3891 -2.8733 -0.1800
  172MOL0     H23188  -2.856   5.256   7.586 -1.5611 -4.5845  0.3305
  172MOL0     H23189  -2.787   5.134   7.682  0.8071 -0.0892  0.7474
  172MOL0     H23190  -2.872   5.400   7.818 -2.2384  0.6532 -2.8143
  172MOL0     H23191  -2.827   5.243   7.887 -1.8372  0.2689  1.0874
  172MOL0     H23192  -3.056   5.285   7.689  0.6398  3.9467  0.8913
  172MOL0     H23193  -3.019   5.148   7.806 -0.8380 -0.0908  1.2195
  172MOL0     H23194  -3.115   5.423   7.900 -3.4549 -0.9500 -1.4174
  172MOL0     H23195  -3.070   5.277   7.999 -0.6029 -2.0135  0.5749
  172MOL0     H23196  -3.298   5.312   7.806 -3.9914 -0.3645  1.5596
  172MOL0     H23197  -3.246   5.157   7.875 -1.5345 -0.7067  1.2771
  172MOL0     H23198  -3.346   5.408   8.013  0.8399 -0.0598 -1.7201
  172MOL0     H23199  -3.270   5.286   8.114 -1.2773 -0.5577 -0.1653
  172MOL0     H23200  -3.447   5.115   8.038 -0.1322  0.3785 -0.8977
  172MOL0     H23201  -3.500   5.230   7.921 -2.4373  2.0317  0.5009
  172MOL0     H23202  -2.618   5.707   7.765 -0.0360  1.1129  0.5291
  172MOL0     H23203  -2.398   5.801   7.834  0.6492 -0.5010  2.5898
  172MOL0     H23204  -1.944   5.866   7.825  0.8361  0.8866 -1.2196
  172MOL0     H23205  -1.728   5.948   7.892  1.9212 -0.0740 -0.0188
  172MOL0     H23206  -0.217   4.531   8.086  1.7625  0.1477 -2.3980
  172MOL0     H23207   0.011   4.416   8.070 -0.0943  0.3660  0.0092
  172MOL0     H23208   0.544   4.624   8.012  0.6248 -0.4372 -2.3950
  172MOL0     H23209   0.758   4.495   7.959 -0.2558  0.8615 -0.4393
  172MOL0     H23210   0.719   4.212   7.839  0.5459 -4.2528 -0.9804
  172MOL0     H23211   0.873   4.304   7.838  0.4119 -0.8598 -0.1443
  172MOL0     H23212   0.856   4.052   7.778 -0.2672  0.4217 -0.2973
  172MOL0     H23213   0.883   4.033   7.959 -2.2228  1.5982  0.4121
  172MOL0     H23214   1.070   4.209   7.929  0.8596 -2.2430  2.4314
  172MOL0     H23215   1.073   4.150   7.753 -0.1522 -0.3707 -0.4002
  172MOL0     H23216   1.101   3.914   7.852 -1.5135 -1.4169  1.6949
  172MOL0     H23217   1.116   3.990   8.002  0.7162 -1.2160 -0.4450
  172MOL0     H23218   1.497   4.061   7.829  0.2329 -0.9706 -0.4964
  172MOL0     H23219   0.595   4.153   8.147  0.0781 -1.1617 -0.2887
  172MOL0     H23220   0.378   4.284   8.179  0.3229  1.0386  0.6114
  173MOL0     O23221   1.700   5.640   3.586 -0.9764  0.1147  0.0028
  173MOL0     C23222   1.745   5.703   3.491  0.2803 -0.4648  0.6080
  173MOL0     O23223   1.677   5.729   3.375  0.0288  0.1966 -0.1359
  173MOL0     C23224   1.543   5.713   3.380 -0.3605  0.3257  0.7188
  173MOL0     C23225   1.485   5.591   3.353 -0.3584 -0.0097 -0.7833
  173MOL0     C23226   1.346   5.566   3.378  0.0776  0.4091 -0.2840
  173MOL0     C23227   1.265   5.670   3.427  0.4612 -1.1800  0.3473
  173MOL0     O23228   1.128   5.679   3.431  0.1073 -0.2572  0.8087
  173MOL0     C23229   1.048   5.598   3.344 -0.2934 -0.4856 -0.1061
  173MOL0     C23230   0.928   5.555   3.429  0.5132  0.6670  1.0252
  173MOL0     C23231   0.837   5.672   3.468  0.0814 -0.0427  0.0040
  173MOL0     C23232   0.742   5.642   3.580  0.5328  0.1127 -0.0275
  173MOL0     C23233   0.630   5.553   3.528  0.6434 -0.3456 -0.2715
  173MOL0     C23234   0.553   5.464   3.620 -0.4019  0.1751 -0.3310
  173MOL0     C23235   0.637   5.358   3.699 -0.1801 -0.0405 -0.4129
  173MOL0     C23236   0.556   5.283   3.806 -0.2690  0.5539 -0.2288
  173MOL0     N23237   0.461   5.191   3.744 -0.2327 -0.3104  0.2457
  173MOL0     C23238   0.334   5.225   3.707 -0.0054 -0.4560 -0.2940
  173MOL0     C23239   0.274   5.112   3.674  0.8257  1.0169  0.1146
  173MOL0     C23240   0.133   5.092   3.627  0.2959  0.1446 -0.1315
  173MOL0     C23241   0.093   5.170   3.501 -0.9486 -0.2260  0.7040
  173MOL0     C23242   0.199   5.149   3.381  0.6105 -0.7125 -0.9889
  173MOL0     C23243   0.143   5.089   3.250 -0.4664  0.9893 -0.3245
  173MOL0     O23244   0.039   5.179   3.201 -0.1118 -0.1451 -0.1339
  173MOL0     C23245  -0.051   5.126   3.107  0.5393  0.1699 -0.7573
  173MOL0     C23246  -0.171   5.197   3.114  0.3672  0.7256 -0.6083
  173MOL0     C23247  -0.285   5.142   3.046  1.3380  0.7797 -0.4764
  173MOL0     C23248  -0.426   5.210   3.063  0.5848  0.3758  0.3406
  173MOL0     C23249  -0.266   5.034   2.942 -0.6589 -0.4537  0.5970
  173MOL0     C23250  -0.377   4.974   2.850  0.5070 -0.1232  0.3091
  173MOL0     O23251  -0.335   4.911   2.746  0.1117  0.0297 -0.1175
  173MOL0     C23252  -0.413   4.848   2.660  0.3852 -0.1424  0.2831
  173MOL0     C23253  -0.392   4.865   2.523 -0.1108  0.6162 -0.2989
  173MOL0     C23254  -0.453   4.788   2.428  0.1023 -0.3278  0.3539
  173MOL0     C23255  -0.563   4.701   2.469 -0.7651 -0.8477 -0.6657
  173MOL0     O23256  -0.632   4.638   2.374 -0.1031  0.8003  0.0324
  173MOL0     C23257  -0.679   4.501   2.402  0.7215  0.5524  0.7481
  173MOL0     C23258  -0.681   4.428   2.260  0.3416  0.6651 -0.6398
  173MOL0     C23259  -0.717   4.278   2.274  0.2623 -0.1337 -0.2852
  173MOL0     C23260  -0.851   4.246   2.202 -0.2113  0.2252 -0.1693
  173MOL0     C23261  -0.925   4.113   2.236  0.4339  0.2500 -0.7098
  173MOL0     C23262  -1.037   4.085   2.142  0.1140  0.1091  0.8922
  173MOL0     C23263  -1.162   4.179   2.155 -0.5047 -0.0940  0.2250
  173MOL0     C23264  -1.289   4.130   2.078  0.6371  0.5236  0.3692
  173MOL0    Cl23265  -1.340   3.966   2.136  0.3005 -0.1152  0.2524
  173MOL0     C23266  -0.596   4.687   2.604  0.2478  0.0086 -0.7114
  173MOL0     C23267  -0.517   4.751   2.703  0.0425  0.1344 -0.3967
  173MOL0     O23268  -0.495   4.982   2.886  0.3644  0.9495 -0.1426
  173MOL0     C23269  -0.132   4.979   2.939  0.0577 -0.4820  0.3383
  173MOL0     C23270  -0.028   5.013   3.026  0.2211  0.7057 -0.3401
  173MOL0     N23271   0.369   5.005   3.694  0.7567 -0.1593  0.2182
  173MOL0     N23272   0.479   5.055   3.736  0.2888 -0.9953 -0.3046
  173MOL0     C23273   1.334   5.787   3.465  0.6365 -0.5830  0.0721
  173MOL0     C23274   1.468   5.814   3.437 -0.8798 -0.5477 -0.1424
  173MOL0     C23275   1.891   5.734   3.486  0.3230 -0.6262 -0.0045
  173MOL0     C23276   1.942   5.840   3.409  0.2617 -0.0456  1.1849
  173MOL0     C23277   2.070   5.863   3.413 -0.0151 -0.2352 -0.1030
  173MOL0     C23278   2.159   5.812   3.499  0.7140  0.0188 -0.3792
  173MOL0     O23279   2.287   5.846   3.517 -0.2709 -1.0437  0.0100
  173MOL0     C23280   2.325   5.965   3.452 -0.4872  0.0849  0.4527
  173MOL0     C23281   2.457   6.022   3.508 -0.5701  0.0534  0.1371
  173MOL0     C23282   2.488   6.163   3.448  0.3260 -0.2584  0.2847
  173MOL0     C23283   2.589   6.240   3.526  0.5889  0.0532  0.0412
  173MOL0     C23284   2.550   6.276   3.664 -0.0867 -0.0810 -0.4265
  173MOL0     C23285   2.526   6.314   3.776 -0.3203 -0.2645  0.2191
  173MOL0     C23286   2.117   5.703   3.584 -0.6927  0.4750  0.0601
  173MOL0     C23287   1.976   5.674   3.581 -0.0995  0.8242 -0.1274
  173MOL0     H23288   1.537   5.515   3.296 -2.0258 -1.0948 -0.9241
  173MOL0     H23289   1.313   5.466   3.351  1.4866 -1.0545  2.9207
  173MOL0     H23290   1.022   5.657   3.256  1.1478 -2.6243 -2.0660
  173MOL0     H23291   1.096   5.508   3.303 -0.1470 -0.1400 -0.6952
  173MOL0     H23292   0.876   5.485   3.362  1.8394 -0.4802  1.1569
  173MOL0     H23293   0.967   5.498   3.514 -1.6396 -1.9398  0.4291
  173MOL0     H23294   0.900   5.752   3.507 -0.0318  0.0701 -0.0452
  173MOL0     H23295   0.780   5.716   3.387  0.2516  0.2453  0.0397
  173MOL0     H23296   0.800   5.592   3.658  1.0760 -0.4171 -0.7598
  173MOL0     H23297   0.691   5.720   3.638 -3.8048 -1.4632 -1.3867
  173MOL0     H23298   0.559   5.611   3.469 -1.3590 -0.3363  2.0082
  173MOL0     H23299   0.673   5.483   3.456  1.1353  0.7849 -1.1142
  173MOL0     H23300   0.490   5.523   3.687 -4.6590 -2.2820 -1.7951
  173MOL0     H23301   0.477   5.414   3.559 -0.8899 -0.3416  0.6824
  173MOL0     H23302   0.692   5.292   3.631  0.2238 -1.3001  1.0926
  173MOL0     H23303   0.722   5.412   3.742 -1.2094  1.4053 -0.0940
  173MOL0     H23304   0.522   5.362   3.873 -1.7719 -0.4703  0.2528
  173MOL0     H23305   0.628   5.223   3.862  1.2234 -0.8235 -3.3651
  173MOL0     H23306   0.308   5.330   3.707 -0.6014 -0.5635  1.7671
  173MOL0     H23307   0.122   4.986   3.601 -1.4752  1.0996 -3.9976
  173MOL0     H23308   0.062   5.126   3.704  1.0604 -0.0677  0.6931
  173MOL0     H23309   0.098   5.275   3.531  0.7974 -0.3334  0.9011
  173MOL0     H23310  -0.011   5.153   3.474 -1.6636  2.3432  1.5973
  173MOL0     H23311   0.293   5.099   3.406  1.5169  1.2334 -0.3701
  173MOL0     H23312   0.230   5.252   3.363  4.4127 -1.6392 -0.5865
  173MOL0     H23313   0.116   4.986   3.273  0.5912  0.9899  1.0751
  173MOL0     H23314   0.210   5.086   3.163  2.0970  1.9973  1.4758
  173MOL0     H23315  -0.187   5.283   3.178  0.8918  0.9181 -0.7287
  173MOL0     H23316  -0.427   5.314   3.097 -0.9270  0.9668 -1.3492
  173MOL0     H23317  -0.478   5.206   2.967  1.3808  1.5423 -0.1545
  173MOL0     H23318  -0.485   5.154   3.136  2.4468 -1.7960  0.2660
  173MOL0     H23319  -0.315   4.937   2.497  0.4009  0.2988  0.2877
  173MOL0     H23320  -0.429   4.790   2.322 -0.0579  0.8202  0.3335
  173MOL0     H23321  -0.602   4.455   2.465 -0.2842 -0.0664  1.5476
  173MOL0     H23322  -0.779   4.493   2.444  0.2144  3.2790  0.2141
  173MOL0     H23323  -0.747   4.489   2.197 -1.7364 -0.3743  0.4312
  173MOL0     H23324  -0.578   4.435   2.226  0.6377  0.6310  0.2120
  173MOL0     H23325  -0.737   4.247   2.377 -2.4766 -4.2453 -1.8103
  173MOL0     H23326  -0.639   4.213   2.232  2.4756  1.8652  0.5396
  173MOL0     H23327  -0.930   4.319   2.220 -0.5886  0.2896 -1.8623
  173MOL0     H23328  -0.837   4.256   2.094 -1.0621  3.1029 -0.1040
  173MOL0     H23329  -0.962   4.111   2.339  1.8967 -0.3829 -0.1657
  173MOL0     H23330  -0.854   4.030   2.228  0.8573  0.2484  2.0252
  173MOL0     H23331  -1.001   4.079   2.039  2.2309  2.0529  1.4191
  173MOL0     H23332  -1.071   3.986   2.171  3.2360 -0.7235  2.1252
  173MOL0     H23333  -1.147   4.282   2.120 -1.7903 -0.6615 -2.2611
  173MOL0     H23334  -1.180   4.169   2.263  0.9900  1.0565  0.6214
  173MOL0     H23335  -1.256   4.128   1.974  3.3003 -1.7302  1.1104
  173MOL0     H23336  -1.372   4.199   2.090  0.6766  1.0810 -2.0321
  173MOL0     H23337  -0.677   4.620   2.634 -1.2813  2.5945  1.4145
  173MOL0     H23338  -0.529   4.733   2.809  0.3002 -1.5065 -0.6176
  173MOL0     H23339  -0.119   4.898   2.869 -1.2162  0.0089 -0.5016
  173MOL0     H23340   0.064   4.954   3.022 -0.9493 -1.2990  0.6114
  173MOL0     H23341   1.280   5.868   3.512  2.2426  0.2097  0.6144
  173MOL0     H23342   1.515   5.911   3.454  1.6229 -1.8713  1.1089
  173MOL0     H23343   1.873   5.883   3.337 -1.4065 -4.2548 -0.0693
  173MOL0     H23344   2.113   5.932   3.341  1.9421 -2.0016 -0.7197
  173MOL0     H23345   2.334   5.945   3.345  2.3253  1.3982  0.3648
  173MOL0     H23346   2.255   6.048   3.463  0.6377  1.2873 -1.0868
  173MOL0     H23347   2.538   5.950   3.499 -1.4339 -1.8267  4.8888
  173MOL0     H23348   2.430   6.038   3.612  3.7481  0.8783  1.3355
  173MOL0     H23349   2.396   6.220   3.431  1.7461  2.3141  0.7169
  173MOL0     H23350   2.530   6.143   3.349 -0.9390  0.3600 -0.3969
  173MOL0     H23351   2.614   6.337   3.483 -0.5454  0.5405  0.4431
  173MOL0     H23352   2.680   6.180   3.529 -0.0142 -1.2377 -3.4133
  173MOL0     H23353   2.527   6.360   3.873  2.8726  1.6801 -0.5812
  173MOL0     H23354   2.187   5.653   3.651  0.9743  0.8774 -1.2926
  173MOL0     H23355   1.934   5.603   3.651  0.3454  0.9517  0.2791
  174MOL0     O23356  10.540   4.977   0.743  0.1774  0.9728 -0.4657
  174MOL0     C23357  10.651   4.969   0.796 -0.8771 -0.9320 -0.7167
  174MOL0     O23358  10.665   4.955   0.936 -0.5571 -0.6417  0.3623
  174MOL0     C23359  10.556   4.958   1.029  0.8062 -0.4158  0.6890
  174MOL0     C23360  10.523   4.852   1.120 -0.8843 -1.0063 -0.8581
  174MOL0     C23361  10.424   4.868   1.213  0.4960 -0.8096  0.1869
  174MOL0     C23362  10.353   4.993   1.228 -0.3663 -0.6993 -0.4489
  174MOL0     O23363  10.249   5.008   1.313  0.3553  0.9250  0.1823
  174MOL0     C23364  10.123   4.979   1.258 -0.4157 -0.2011 -0.6337
  174MOL0     C23365  10.056   5.116   1.229 -0.3159  0.6121 -0.2974
  174MOL0     C23366   9.906   5.120   1.255  0.2764  0.2047  0.1164
  174MOL0     C23367   9.814   5.053   1.160 -0.4167 -0.0381 -0.0360
  174MOL0     C23368   9.672   5.054   1.203  1.5471 -0.2489 -0.4974
  174MOL0     C23369   9.574   4.989   1.098  0.0935 -0.3969  0.3304
  174MOL0     C23370   9.422   5.026   1.133 -0.0379 -0.8453 -0.6132
  174MOL0     C23371   9.375   5.173   1.107 -0.2946 -0.5876  0.4795
  174MOL0     N23372   9.303   5.199   0.978  0.4846  0.6782  0.8873
  174MOL0     C23373   9.200   5.121   0.924  0.0770  0.1215 -1.0390
  174MOL0     C23374   9.192   5.167   0.795 -0.1549 -0.0018 -0.3984
  174MOL0     C23375   9.104   5.109   0.690  0.6771 -0.0217 -0.8237
  174MOL0     C23376   9.023   4.988   0.740  0.9474 -0.2084  0.5871
  174MOL0     C23377   8.909   5.010   0.844  0.2501 -0.3052  0.5592
  174MOL0     C23378   8.815   5.131   0.811  0.6251  0.0514 -0.5151
  174MOL0     O23379   8.752   5.121   0.682 -0.0386  0.5927  0.1438
  174MOL0     C23380   8.650   5.206   0.654  0.2839 -0.0073 -0.0923
  174MOL0     C23381   8.623   5.331   0.717  0.1667  0.0578  0.2575
  174MOL0     C23382   8.522   5.421   0.672  0.1915 -0.5257 -0.2110
  174MOL0     C23383   8.495   5.544   0.757 -0.4506 -0.0157  0.2337
  174MOL0     C23384   8.442   5.387   0.561 -0.2043 -0.1323  0.0965
  174MOL0     C23385   8.321   5.447   0.514  0.3459 -1.1896 -0.3892
  174MOL0     O23386   8.226   5.484   0.602 -0.7194  0.3030  0.2253
  174MOL0     C23387   8.103   5.507   0.557  0.1095 -0.0883 -0.9562
  174MOL0     C23388   8.004   5.412   0.581 -0.1004  0.5519 -0.6693
  174MOL0     C23389   7.870   5.429   0.529  0.0029  0.6989 -0.0914
  174MOL0     C23390   7.841   5.546   0.467  0.5529 -0.2729 -0.4984
  174MOL0     O23391   7.715   5.577   0.432 -0.4588  0.6950  0.8386
  174MOL0     C23392   7.711   5.612   0.291  0.1217 -0.6288 -0.7491
  174MOL0     C23393   7.567   5.673   0.263 -0.9476  0.6312 -0.3697
  174MOL0     C23394   7.556   5.725   0.121 -0.1955 -0.0081  0.2119
  174MOL0     C23395   7.404   5.755   0.100  0.2815  0.2647  0.0255
  174MOL0     C23396   7.374   5.866  -0.001  0.0049 -0.2160  0.1822
  174MOL0     C23397   7.402   5.833  -0.147 -0.1995 -0.3975  0.2733
  174MOL0     C23398   7.357   5.944  -0.234  0.1499  0.1278  0.2677
  174MOL0     C23399   7.203   5.939  -0.243  0.2396  0.1743  0.1066
  174MOL0    Cl23400   7.144   6.010  -0.398  0.2135  0.4627  0.0745
  174MOL0     C23401   7.932   5.650   0.455 -0.6191  0.0361 -0.4945
  174MOL0     C23402   8.063   5.622   0.493 -0.5128 -0.2085  0.3491
  174MOL0     O23403   8.305   5.448   0.394  0.0696  0.5396 -0.9859
  174MOL0     C23404   8.479   5.266   0.498  0.8356 -0.7440 -0.8404
  174MOL0     C23405   8.584   5.177   0.536  0.7140  0.4946 -0.1222
  174MOL0     N23406   9.275   5.272   0.771  0.3182  1.0094 -0.1965
  174MOL0     N23407   9.339   5.286   0.883 -0.6534  0.0734  0.0455
  174MOL0     C23408  10.391   5.093   1.142 -0.0949 -0.2209  0.7746
  174MOL0     C23409  10.489   5.080   1.042  0.3374  0.8390  0.4156
  174MOL0     C23410  10.784   4.985   0.723 -0.1558  1.1661  0.0268
  174MOL0     C23411  10.785   5.046   0.597  0.7238  0.3350 -0.4519
  174MOL0     C23412  10.907   5.052   0.530 -0.2265 -0.3512 -0.3165
  174MOL0     C23413  11.028   5.002   0.591 -0.0235 -0.4339  0.6250
  174MOL0     O23414  11.142   5.015   0.509  0.2217  0.0759  0.4443
  174MOL0     C23415  11.269   5.002   0.577 -0.5659 -0.4516 -0.7317
  174MOL0     C23416  11.381   5.083   0.508 -0.1455 -0.4254 -0.1512
  174MOL0     C23417  11.396   5.053   0.359  0.8313  0.7114 -0.3944
  174MOL0     C23418  11.470   5.173   0.296  1.0511 -0.1684  1.0624
  174MOL0     C23419  11.604   5.206   0.352 -0.7826 -0.0678 -0.1495
  174MOL0     C23420  11.712   5.231   0.399 -0.7543  0.3163  0.8058
  174MOL0     C23421  11.026   4.938   0.714  0.0941  1.0520  0.5117
  174MOL0     C23422  10.902   4.920   0.777  0.6933 -0.3589  0.5649
  174MOL0     H23423  10.585   4.764   1.132 -0.4838 -0.7879 -1.3177
  174MOL0     H23424  10.407   4.792   1.288  1.6843 -0.7655  0.5274
  174MOL0     H23425  10.131   4.915   1.170 -2.7260 -0.6992 -0.5610
  174MOL0     H23426  10.068   4.926   1.337  0.3509  0.3934  0.3192
  174MOL0     H23427  10.107   5.191   1.290 -0.2052  1.2586 -1.1543
  174MOL0     H23428  10.071   5.148   1.125 -0.1340  2.6911  0.3151
  174MOL0     H23429   9.895   5.079   1.356  0.9864 -1.6098 -0.4944
  174MOL0     H23430   9.878   5.225   1.267 -0.2738  0.1117 -0.3031
  174MOL0     H23431   9.812   5.111   1.067 -0.2923  0.7689  0.4578
  174MOL0     H23432   9.849   4.950   1.146  2.9222  1.0871 -1.0598
  174MOL0     H23433   9.660   5.005   1.300  2.6683 -3.0898 -1.7041
  174MOL0     H23434   9.629   5.155   1.198  2.7214  0.2505 -0.7739
  174MOL0     H23435   9.609   5.019   0.999  2.3487  0.1128  1.2104
  174MOL0     H23436   9.569   4.880   1.101  0.3363 -0.4351  4.1089
  174MOL0     H23437   9.357   4.956   1.079  0.4842 -1.2524 -0.7310
  174MOL0     H23438   9.407   5.008   1.240  1.5609  0.1626 -0.1941
  174MOL0     H23439   9.457   5.238   1.139 -1.1362 -0.6782  2.9988
  174MOL0     H23440   9.301   5.200   1.182 -2.4560  0.4248 -1.8647
  174MOL0     H23441   9.156   5.034   0.970 -1.5947  1.2670 -0.3778
  174MOL0     H23442   9.047   5.188   0.640  2.8503  3.1579  1.3646
  174MOL0     H23443   9.166   5.074   0.606  2.1943 -0.3647  0.3980
  174MOL0     H23444   9.090   4.916   0.787 -0.3963 -1.2508  0.9396
  174MOL0     H23445   8.984   4.938   0.651  0.7459  0.8424  0.0652
  174MOL0     H23446   8.948   5.027   0.945  1.6090 -0.1701  0.0382
  174MOL0     H23447   8.850   4.918   0.844  0.3099 -0.4312 -2.3335
  174MOL0     H23448   8.881   5.218   0.800  0.4863 -0.0785 -2.6699
  174MOL0     H23449   8.748   5.148   0.895  0.3528 -0.9216 -0.5254
  174MOL0     H23450   8.684   5.362   0.801  1.3080 -2.3579  0.4124
  174MOL0     H23451   8.539   5.539   0.857 -1.1410 -1.8699  0.4849
  174MOL0     H23452   8.526   5.636   0.706  2.1994 -1.9526 -1.9032
  174MOL0     H23453   8.388   5.564   0.770 -0.4069  0.3664  0.0395
  174MOL0     H23454   8.032   5.314   0.620  0.0509 -0.2003 -2.5560
  174MOL0     H23455   7.791   5.355   0.544 -0.1324  1.2602  2.4531
  174MOL0     H23456   7.786   5.687   0.265  0.7591 -0.1905  2.1043
  174MOL0     H23457   7.726   5.532   0.218 -0.5063  1.5255 -3.4401
  174MOL0     H23458   7.501   5.589   0.284 -1.3692  1.3280  1.2665
  174MOL0     H23459   7.548   5.760   0.327 -0.9710  1.1062 -1.0077
  174MOL0     H23460   7.595   5.657   0.045 -1.7189 -0.6091 -0.0624
  174MOL0     H23461   7.612   5.818   0.109  0.3259 -0.5759 -2.1357
  174MOL0     H23462   7.355   5.662   0.071  1.6003 -0.4810  0.1097
  174MOL0     H23463   7.361   5.786   0.195 -1.4859  2.7340 -1.4720
  174MOL0     H23464   7.438   5.948   0.033  1.0942 -1.3720  1.0320
  174MOL0     H23465   7.271   5.899   0.014 -0.4719 -0.8979 -1.4172
  174MOL0     H23466   7.509   5.827  -0.166 -0.1535  0.5763  0.1718
  174MOL0     H23467   7.353   5.745  -0.190 -1.0695 -0.0594  0.5514
  174MOL0     H23468   7.410   5.920  -0.327  1.8452  0.7708  1.0173
  174MOL0     H23469   7.400   6.040  -0.204  0.3238  0.7562 -1.8286
  174MOL0     H23470   7.161   6.003  -0.164  1.9016  0.4099  0.8325
  174MOL0     H23471   7.167   5.840  -0.214 -0.0707 -0.0361 -0.9554
  174MOL0     H23472   7.920   5.752   0.420 -0.7454  0.6576  1.2657
  174MOL0     H23473   8.138   5.701   0.491  1.1615 -1.7471 -0.2796
  174MOL0     H23474   8.406   5.251   0.420 -2.5847  3.5616  1.0998
  174MOL0     H23475   8.595   5.078   0.494  0.8133  1.6234 -2.9682
  174MOL0     H23476  10.334   5.185   1.146 -4.3077 -2.1618 -3.6687
  174MOL0     H23477  10.518   5.165   0.982  0.1922  0.0306 -0.8179
  174MOL0     H23478  10.696   5.097   0.562  1.2009 -0.0688 -2.3722
  174MOL0     H23479  10.916   5.105   0.435 -0.8518 -0.2756 -0.3383
  174MOL0     H23480  11.263   5.039   0.680  0.4897  1.0527 -1.1757
  174MOL0     H23481  11.301   4.897   0.572  1.4025  0.0965 -0.1930
  174MOL0     H23482  11.477   5.058   0.552 -0.3179 -1.0235 -0.1116
  174MOL0     H23483  11.359   5.189   0.524  3.4191  0.4862 -0.4415
  174MOL0     H23484  11.298   5.029   0.318  2.2668 -2.0908 -2.5603
  174MOL0     H23485  11.460   4.965   0.341 -0.1755 -0.1029 -0.0957
  174MOL0     H23486  11.407   5.261   0.279  2.1022  0.5184  0.6451
  174MOL0     H23487  11.482   5.146   0.191 -0.3297  0.9201  0.5959
  174MOL0     H23488  11.802   5.238   0.456 -0.9379 -2.8772  1.6719
  174MOL0     H23489  11.106   4.891   0.771  1.8288 -0.0797 -2.5954
  174MOL0     H23490  10.880   4.865   0.868 -2.6165  0.6073  0.4428
  175MOL0     O23491   6.039   8.571   9.582  0.0665  0.5402 -0.6765
  175MOL0     C23492   6.036   8.591   9.464 -0.0104 -0.4666  0.3445
  175MOL0     O23493   5.929   8.586   9.381  0.6474  0.4400 -0.3369
  175MOL0     C23494   5.803   8.558   9.430 -0.0186 -0.0379  0.0568
  175MOL0     C23495   5.756   8.628   9.538 -0.0452  0.2408  0.5346
  175MOL0     C23496   5.621   8.618   9.578  0.1146 -0.5313  0.1231
  175MOL0     C23497   5.530   8.537   9.509 -0.1067  0.2606 -0.1673
  175MOL0     O23498   5.402   8.523   9.561  0.2490 -0.1789 -0.0412
  175MOL0     C23499   5.293   8.499   9.467  0.9984  0.7375 -0.5979
  175MOL0     C23500   5.171   8.457   9.552  0.9779 -0.6572  0.1626
  175MOL0     C23501   5.059   8.420   9.448 -0.3443 -0.1142  0.0973
  175MOL0     C23502   4.935   8.413   9.525 -0.1555  0.6379 -0.9218
  175MOL0     C23503   4.867   8.551   9.543 -0.5882 -0.0955 -0.7057
  175MOL0     C23504   4.742   8.527   9.634  0.2858 -0.5080 -0.2841
  175MOL0     C23505   4.675   8.656   9.679  0.3764 -0.7297  0.1503
  175MOL0     C23506   4.555   8.646   9.769  0.5938 -0.4346 -0.6726
  175MOL0     N23507   4.499   8.783   9.796 -0.6485  0.4588 -0.3090
  175MOL0     C23508   4.553   8.883   9.867 -0.4529  0.6061 -0.0694
  175MOL0     C23509   4.469   8.985   9.872 -0.8318 -0.5872 -0.1693
  175MOL0     C23510   4.483   9.121   9.954 -0.5044 -0.0915  0.5392
  175MOL0     C23511   4.415   9.126  10.090  0.7945  0.1597 -0.3434
  175MOL0     C23512   4.267   9.127  10.074  1.1011 -0.5354 -0.7679
  175MOL0     C23513   4.202   9.141  10.210  0.1422 -0.2728 -0.0099
  175MOL0     O23514   4.059   9.122  10.200 -0.2198 -0.0651  0.9833
  175MOL0     C23515   3.981   9.159  10.303 -0.3995  0.4981  0.0558
  175MOL0     C23516   3.841   9.175  10.282 -0.3095  0.4106 -1.0533
  175MOL0     C23517   3.746   9.204  10.379 -0.0814 -0.3681  0.8627
  175MOL0     C23518   3.603   9.212  10.324  0.1029  0.6841  0.4855
  175MOL0     C23519   3.793   9.217  10.511  0.3220  0.1103 -0.1995
  175MOL0     C23520   3.707   9.259  10.630  1.0911 -0.3405 -0.7077
  175MOL0     O23521   3.759   9.247  10.762  0.1790 -0.1282 -0.1943
  175MOL0     C23522   3.668   9.270  10.859 -0.3682  0.7821 -0.6601
  175MOL0     C23523   3.611   9.168  10.923  0.4171  0.1711  0.3630
  175MOL0     C23524   3.506   9.186  11.016  0.1501  0.1447 -0.3922
  175MOL0     C23525   3.460   9.305  11.048 -0.5752 -0.2239 -0.3687
  175MOL0     O23526   3.363   9.319  11.142  0.0883  0.3254  0.1239
  175MOL0     C23527   3.268   9.425  11.127 -0.3947  0.2092 -0.0579
  175MOL0     C23528   3.140   9.397  11.207  0.1369  0.6147  0.0484
  175MOL0     C23529   3.175   9.404  11.358 -0.6386  0.4340 -0.8562
  175MOL0     C23530   3.046   9.379  11.426  0.4971 -0.3274 -0.2909
  175MOL0     C23531   3.059   9.425  11.571 -0.7366  0.1310  0.4111
  175MOL0     C23532   2.932   9.389  11.651 -0.0582  1.2922  0.0431
  175MOL0     C23533   2.917   9.468  11.780 -0.2395  0.2741 -0.3857
  175MOL0     C23534   2.775   9.443  11.841 -0.4712 -0.0738  1.2768
  175MOL0    Cl23535   2.642   9.541  11.742 -0.5711 -0.5691 -0.5446
  175MOL0     C23536   3.518   9.416  10.984 -0.4570  0.5528  0.8033
  175MOL0     C23537   3.625   9.397  10.893  0.4200 -0.2838  0.4643
  175MOL0     O23538   3.593   9.305  10.601 -0.1651  0.1103 -0.0849
  175MOL0     C23539   3.933   9.200  10.535  0.3346  0.1099 -0.1314
  175MOL0     C23540   4.026   9.172  10.435 -0.3943  0.1458 -0.7520
  175MOL0     N23541   4.351   8.943   9.819 -0.0294  0.1680 -0.7773
  175MOL0     N23542   4.367   8.814   9.777 -0.4070  0.6760 -0.9827
  175MOL0     C23543   5.579   8.474   9.393  0.3682 -1.5449  0.7889
  175MOL0     C23544   5.713   8.483   9.353  0.2194  0.7690  0.0400
  175MOL0     C23545   6.166   8.622   9.395  0.0596  0.4394 -0.4481
  175MOL0     C23546   6.171   8.662   9.263 -0.7974  0.0283 -0.3004
  175MOL0     C23547   6.298   8.680   9.198 -0.1643 -1.3343  0.2644
  175MOL0     C23548   6.419   8.671   9.282  0.6015  0.9111 -0.3463
  175MOL0     O23549   6.545   8.689   9.242  0.2489  0.7556  0.2081
  175MOL0     C23550   6.567   8.763   9.119 -0.0914 -0.8711 -0.0144
  175MOL0     C23551   6.559   8.690   8.991  0.0964  0.4008 -0.2817
  175MOL0     C23552   6.662   8.753   8.891 -0.5718  0.1403  0.2930
  175MOL0     C23553   6.637   8.906   8.867  0.0361  0.0306 -0.1719
  175MOL0     C23554   6.495   8.937   8.848 -0.2577 -0.4444  0.6995
  175MOL0     C23555   6.379   8.963   8.838  0.8684  0.2740  0.1959
  175MOL0     C23556   6.406   8.630   9.413 -0.5341 -1.1753 -0.0599
  175MOL0     C23557   6.287   8.607   9.471  0.3542  0.9486  0.4289
  175MOL0     H23558   5.822   8.689   9.598  1.9141 -0.7830 -0.4840
  175MOL0     H23559   5.585   8.676   9.663  0.8529  0.0689  0.0389
  175MOL0     H23560   5.269   8.590   9.412  2.4449  0.9066 -0.9670
  175MOL0     H23561   5.318   8.426   9.390  2.6138  0.1760  0.4132
  175MOL0     H23562   5.187   8.375   9.622 -0.8139 -0.0836  1.3297
  175MOL0     H23563   5.136   8.546   9.606 -2.5314 -1.7037 -0.1115
  175MOL0     H23564   5.056   8.492   9.366  2.9423 -1.0430 -1.0032
  175MOL0     H23565   5.086   8.329   9.395  1.0300  1.0888 -1.3801
  175MOL0     H23566   4.866   8.349   9.470  0.2572 -2.7757  2.1854
  175MOL0     H23567   4.948   8.369   9.624 -1.6509  3.0053  0.4281
  175MOL0     H23568   4.933   8.623   9.592  0.2776  0.4002 -2.5151
  175MOL0     H23569   4.844   8.599   9.448 -0.7846  2.9823  0.7717
  175MOL0     H23570   4.681   8.461   9.572  0.6570 -2.7596  1.6040
  175MOL0     H23571   4.766   8.467   9.723 -2.7392 -1.2666  0.1530
  175MOL0     H23572   4.753   8.721   9.720 -0.0455 -0.3257  0.3230
  175MOL0     H23573   4.649   8.708   9.586  1.4009  0.1759  0.3465
  175MOL0     H23574   4.579   8.596   9.864  3.2190 -0.9459 -1.5204
  175MOL0     H23575   4.482   8.578   9.725  0.0224 -1.0741  1.1725
  175MOL0     H23576   4.654   8.883   9.909 -1.2602  1.2929  2.0341
  175MOL0     H23577   4.589   9.143   9.971 -0.0076 -1.3177 -0.7572
  175MOL0     H23578   4.438   9.192   9.884  2.1077 -1.6654 -3.0714
  175MOL0     H23579   4.443   9.213  10.150 -0.9791 -0.1644  1.0374
  175MOL0     H23580   4.452   9.034  10.136  0.0525  0.9368  1.9722
  175MOL0     H23581   4.228   9.033  10.033  0.7991 -0.8795  0.2543
  175MOL0     H23582   4.239   9.214  10.015 -0.3693 -1.4697 -1.4795
  175MOL0     H23583   4.213   9.243  10.250  2.1328 -0.8236  0.9645
  175MOL0     H23584   4.257   9.076  10.279  5.0055  0.8743 -2.3832
  175MOL0     H23585   3.804   9.172  10.180 -1.3686  0.5070 -0.6825
  175MOL0     H23586   3.591   9.116  10.273  3.5174 -0.1894  1.0709
  175MOL0     H23587   3.536   9.213  10.410  1.2584 -1.1850  1.4568
  175MOL0     H23588   3.586   9.293  10.253  1.0047  2.1063  1.8180
  175MOL0     H23589   3.635   9.065  10.900  0.5755  0.5150 -1.1118
  175MOL0     H23590   3.459   9.103  11.068  1.6485 -0.2300  0.4375
  175MOL0     H23591   3.315   9.518  11.159  3.4295 -2.0546  1.5112
  175MOL0     H23592   3.241   9.443  11.022  1.5180 -0.3026 -0.6786
  175MOL0     H23593   3.054   9.459  11.183 -0.1694  1.0722  2.2055
  175MOL0     H23594   3.106   9.296  11.181  0.1616  1.1266 -2.1728
  175MOL0     H23595   3.217   9.504  11.370  0.3999 -0.0685 -0.1703
  175MOL0     H23596   3.245   9.324  11.383 -2.4469 -1.6787 -2.1918
  175MOL0     H23597   2.963   9.434  11.381  1.1186  0.3741 -0.6101
  175MOL0     H23598   3.028   9.271  11.427  0.4079 -0.3323  2.1671
  175MOL0     H23599   3.079   9.532  11.579  0.5440 -0.1825  1.9330
  175MOL0     H23600   3.148   9.391  11.625  2.5777  3.7888 -2.1804
  175MOL0     H23601   2.841   9.400  11.591  0.4585 -3.1837 -1.9802
  175MOL0     H23602   2.934   9.284  11.682  2.8712  0.2306 -3.1149
  175MOL0     H23603   2.916   9.577  11.763 -1.1396  0.4539  0.6693
  175MOL0     H23604   2.994   9.452  11.856 -0.7584  1.5857  0.4543
  175MOL0     H23605   2.763   9.483  11.942 -1.5455  1.7090  0.4925
  175MOL0     H23606   2.759   9.336  11.851  0.1656  0.0158  3.9916
  175MOL0     H23607   3.473   9.515  10.994 -0.8226  0.8559 -2.6734
  175MOL0     H23608   3.667   9.488  10.851  1.9182 -1.1143  0.0842
  175MOL0     H23609   3.957   9.222  10.638 -1.1600 -1.3849  0.5753
  175MOL0     H23610   4.129   9.172  10.471 -0.2753  0.8669 -1.0829
  175MOL0     H23611   5.518   8.410   9.330  2.9836 -3.1309 -0.3210
  175MOL0     H23612   5.750   8.437   9.262  0.4543  1.3036 -0.1399
  175MOL0     H23613   6.084   8.655   9.199 -0.5338 -1.7227 -0.5362
  175MOL0     H23614   6.311   8.707   9.094 -0.5970  0.3086  0.6080
  175MOL0     H23615   6.497   8.847   9.125 -0.7876 -1.5367  3.5457
  175MOL0     H23616   6.671   8.793   9.134  0.0969 -2.5192  2.4409
  175MOL0     H23617   6.458   8.682   8.948 -1.1742  1.4551  2.2423
  175MOL0     H23618   6.579   8.584   9.009 -2.6587 -0.4984 -1.8401
  175MOL0     H23619   6.658   8.696   8.797  3.4495  2.0252 -1.2585
  175MOL0     H23620   6.766   8.750   8.925  0.7238 -0.9129 -3.2470
  175MOL0     H23621   6.692   8.944   8.780 -1.4776  3.6866  0.2687
  175MOL0     H23622   6.678   8.957   8.955  1.6280  0.3558 -1.0639
  175MOL0     H23623   6.275   8.982   8.820  0.0917 -1.1736  2.6730
  175MOL0     H23624   6.501   8.614   9.464 -0.0806  0.3317 -0.3862
  175MOL0     H23625   6.296   8.560   9.569  2.0742 -0.2877 -0.2813
  176MOL0     O23626   6.066  11.181   5.369 -0.0887 -0.0202  0.3944
  176MOL0     C23627   6.085  11.291   5.421  1.1586  0.7511  0.0271
  176MOL0     O23628   5.983  11.382   5.447  0.1551 -0.2321  0.1936
  176MOL0     C23629   5.855  11.345   5.425  0.7069 -0.5708 -0.0555
  176MOL0     C23630   5.807  11.286   5.308  0.0148 -0.4536 -0.8165
  176MOL0     C23631   5.663  11.258   5.295 -0.4841 -0.6319  0.3377
  176MOL0     C23632   5.579  11.287   5.400 -0.8060 -0.2651  0.8065
  176MOL0     O23633   5.442  11.266   5.408 -0.0844 -0.3442  0.8784
  176MOL0     C23634   5.368  11.269   5.281  0.2866 -1.2709  0.5934
  176MOL0     C23635   5.221  11.231   5.292  0.6975 -0.4566 -0.7779
  176MOL0     C23636   5.146  11.253   5.154 -0.6202  0.8073 -0.4099
  176MOL0     C23637   5.003  11.210   5.157 -0.0307  0.2711 -0.1595
  176MOL0     C23638   4.922  11.277   5.042  0.4815 -0.0419  0.4408
  176MOL0     C23639   4.773  11.286   5.068  0.4901  0.8349 -0.3139
  176MOL0     C23640   4.689  11.351   4.942  0.6359  0.3017  0.6868
  176MOL0     C23641   4.667  11.265   4.825  1.6247 -0.2296 -0.2763
  176MOL0     N23642   4.629  11.345   4.710  0.4579  0.7889 -0.0729
  176MOL0     C23643   4.670  11.325   4.578  0.0634  0.3585 -0.1786
  176MOL0     C23644   4.584  11.394   4.506  0.0982 -0.1591  0.1559
  176MOL0     C23645   4.610  11.402   4.359  0.6389 -0.7634 -0.2479
  176MOL0     C23646   4.600  11.260   4.295  0.0777 -0.1511  0.6767
  176MOL0     C23647   4.460  11.231   4.229 -0.8127  0.3338 -0.8169
  176MOL0     C23648   4.419  11.302   4.096 -0.4413  0.7910 -0.2272
  176MOL0     O23649   4.286  11.254   4.058 -0.1567 -0.1151 -0.0214
  176MOL0     C23650   4.178  11.327   4.097 -0.2774 -0.1865 -0.4115
  176MOL0     C23651   4.061  11.275   4.045 -0.9540 -0.1462  0.1259
  176MOL0     C23652   3.943  11.328   4.089 -0.3589  0.1008  0.1576
  176MOL0     C23653   3.825  11.249   4.051  0.5586 -0.4322  0.1630
  176MOL0     C23654   3.939  11.446   4.174 -1.0900  0.0285  0.2896
  176MOL0     C23655   3.818  11.511   4.216  1.4118  0.3760 -0.0490
  176MOL0     O23656   3.713  11.490   4.138  0.6074  0.3082 -0.5589
  176MOL0     C23657   3.588  11.518   4.186 -0.3080 -0.1813  0.0896
  176MOL0     C23658   3.483  11.414   4.168 -0.3013 -0.2146  0.1840
  176MOL0     C23659   3.355  11.441   4.209 -1.1423 -0.2912 -0.0311
  176MOL0     C23660   3.328  11.554   4.284  0.4641  1.2377 -0.3284
  176MOL0     O23661   3.196  11.575   4.323 -0.7065 -0.2892  0.3766
  176MOL0     C23662   3.161  11.710   4.368 -0.2960  0.2390 -0.0210
  176MOL0     C23663   3.016  11.707   4.393 -0.5248  0.5173  0.1994
  176MOL0     C23664   2.978  11.603   4.506 -0.6676 -0.3915 -0.2965
  176MOL0     C23665   2.836  11.625   4.553 -0.3418 -0.3258 -0.1926
  176MOL0     C23666   2.840  11.750   4.639  1.1052  0.3622 -0.2644
  176MOL0     C23667   2.708  11.776   4.713 -0.3014  0.7946 -0.8431
  176MOL0     C23668   2.581  11.783   4.629 -0.5485  0.0380  0.2789
  176MOL0     C23669   2.449  11.770   4.715 -0.4516  0.0765  0.0576
  176MOL0    Cl23670   2.411  11.921   4.801 -0.2255 -0.2912 -0.2165
  176MOL0     C23671   3.425  11.642   4.306  0.0068 -0.2560  0.4119
  176MOL0     C23672   3.551  11.630   4.264  0.7182 -0.0440  0.6390
  176MOL0     O23673   3.813  11.568   4.325 -0.2422  0.3722  0.1515
  176MOL0     C23674   4.057  11.499   4.218  0.1666  0.2134  0.3652
  176MOL0     C23675   4.178  11.445   4.176 -1.1574 -1.0888 -0.6039
  176MOL0     N23676   4.493  11.460   4.575 -0.0403 -0.9347 -0.1837
  176MOL0     N23677   4.512  11.417   4.702  0.4323 -0.1387  1.0893
  176MOL0     C23678   5.631  11.332   5.519  0.8455 -0.8334  0.0813
  176MOL0     C23679   5.764  11.360   5.527 -1.4720  0.3587 -0.7006
  176MOL0     C23680   6.223  11.327   5.449 -0.0840 -1.0674  0.9215
  176MOL0     C23681   6.259  11.452   5.502  0.2609 -0.3377  0.2129
  176MOL0     C23682   6.391  11.478   5.549 -0.0003 -0.3274 -0.5150
  176MOL0     C23683   6.481  11.380   5.512  0.3692  0.4822 -1.0322
  176MOL0     O23684   6.619  11.401   5.543  0.1740  0.3000 -0.3349
  176MOL0     C23685   6.684  11.502   5.469  0.5419 -0.2012 -0.1977
  176MOL0     C23686   6.837  11.484   5.470 -0.4276  0.6429  0.0959
  176MOL0     C23687   6.893  11.371   5.384  0.3134  1.1064  0.3573
  176MOL0     C23688   7.037  11.352   5.412 -0.4642  0.7315 -0.3036
  176MOL0     C23689   7.077  11.227   5.348  0.3503 -0.3529 -0.8404
  176MOL0     C23690   7.122  11.127   5.289 -0.0451  0.8616  0.4240
  176MOL0     C23691   6.451  11.271   5.439  0.3726  0.4547  0.3066
  176MOL0     C23692   6.325  11.238   5.418  0.3480 -0.0624  0.8584
  176MOL0     H23693   5.881  11.264   5.233 -0.4926 -2.0489 -0.8908
  176MOL0     H23694   5.623  11.206   5.208 -1.2340 -2.2380  1.5788
  176MOL0     H23695   5.370  11.373   5.250  0.1544 -1.9685 -1.9673
  176MOL0     H23696   5.420  11.209   5.206  0.1784 -1.3536  0.5829
  176MOL0     H23697   5.225  11.129   5.332 -0.0518  1.1153  3.9983
  176MOL0     H23698   5.174  11.295   5.367  0.2894  0.8515 -2.1244
  176MOL0     H23699   5.159  11.356   5.118  1.7923  0.4639 -0.7101
  176MOL0     H23700   5.192  11.187   5.079 -1.2076  1.4410 -1.3503
  176MOL0     H23701   5.000  11.101   5.150 -0.3516  0.1864  0.9503
  176MOL0     H23702   4.966  11.231   5.258 -0.1253  0.6064 -0.2599
  176MOL0     H23703   4.962  11.378   5.030 -2.1217  1.1260  0.9807
  176MOL0     H23704   4.943  11.219   4.951  1.2868 -2.7516  2.2372
  176MOL0     H23705   4.736  11.185   5.087  3.1669 -0.3253 -0.8662
  176MOL0     H23706   4.750  11.347   5.156 -0.0079  0.3088 -0.0769
  176MOL0     H23707   4.588  11.375   4.975 -0.5166 -0.9333 -1.7125
  176MOL0     H23708   4.747  11.442   4.926  1.2433 -0.0200  0.9930
  176MOL0     H23709   4.585  11.193   4.840  1.2525  0.4768  1.3218
  176MOL0     H23710   4.740  11.187   4.802 -1.1994 -2.2552 -3.4863
  176MOL0     H23711   4.753  11.267   4.538 -0.1019  0.4051 -0.5904
  176MOL0     H23712   4.532  11.462   4.310 -0.9771 -1.7886  1.0007
  176MOL0     H23713   4.708  11.450   4.344  0.3432 -0.5955 -1.8350
  176MOL0     H23714   4.612  11.180   4.369 -1.7523 -1.6132 -0.4925
  176MOL0     H23715   4.682  11.253   4.223 -1.6251  0.6248 -1.4531
  176MOL0     H23716   4.384  11.252   4.305  0.6376  0.9604  0.5141
  176MOL0     H23717   4.458  11.122   4.222  1.2123 -0.3587  4.6735
  176MOL0     H23718   4.484  11.274   4.012 -0.6462  1.4168 -0.6026
  176MOL0     H23719   4.428  11.411   4.095 -2.0723  0.9692 -2.3038
  176MOL0     H23720   4.061  11.183   3.987 -2.1884 -2.0057  2.8640
  176MOL0     H23721   3.765  11.231   4.141 -2.0698 -1.1857 -1.6282
  176MOL0     H23722   3.768  11.308   3.979  1.3775  0.2436  0.0555
  176MOL0     H23723   3.845  11.147   4.015  1.3389  0.1114 -1.0218
  176MOL0     H23724   3.505  11.322   4.115 -1.9494  0.3278 -1.5697
  176MOL0     H23725   3.272  11.372   4.195 -1.5750  0.2170 -0.0209
  176MOL0     H23726   3.215  11.730   4.461  0.8209  1.8570 -0.9673
  176MOL0     H23727   3.186  11.799   4.308 -4.0878  2.4390  1.2875
  176MOL0     H23728   2.984  11.809   4.415  1.8597  1.1206  1.1987
  176MOL0     H23729   2.959  11.665   4.309  0.7874 -0.9881 -0.0038
  176MOL0     H23730   3.048  11.614   4.589 -2.9950 -1.8278  2.0114
  176MOL0     H23731   2.992  11.502   4.468  1.4534 -0.9200  1.6065
  176MOL0     H23732   2.766  11.638   4.470 -1.4352 -1.3249  0.5411
  176MOL0     H23733   2.802  11.535   4.606  0.1286 -1.0887 -1.1380
  176MOL0     H23734   2.867  11.840   4.581 -0.6604 -0.7018 -2.9401
  176MOL0     H23735   2.916  11.739   4.717  2.9283  3.5941 -1.3592
  176MOL0     H23736   2.692  11.685   4.772  2.9755  0.5342 -0.1484
  176MOL0     H23737   2.710  11.861   4.782 -0.4613  0.2146 -0.1110
  176MOL0     H23738   2.578  11.702   4.555 -0.6343 -0.1071  0.4405
  176MOL0     H23739   2.597  11.874   4.571  1.0245 -0.2431  0.2377
  176MOL0     H23740   2.467  11.689   4.786 -2.0341 -1.0519 -0.7463
  176MOL0     H23741   2.365  11.736   4.653 -0.7683 -1.3876  1.2402
  176MOL0     H23742   3.396  11.730   4.363  0.6966 -1.6352  3.0763
  176MOL0     H23743   3.624  11.709   4.279  0.8501  0.1467 -0.8790
  176MOL0     H23744   4.052  11.576   4.295 -3.4746  1.1151 -0.5649
  176MOL0     H23745   4.265  11.498   4.213 -2.5975  0.8295  0.2375
  176MOL0     H23746   5.564  11.352   5.602  1.6542 -0.7722  0.7312
  176MOL0     H23747   5.795  11.411   5.618  0.2436 -1.2918 -0.2854
  176MOL0     H23748   6.195  11.539   5.512  1.1301  0.5033 -1.2593
  176MOL0     H23749   6.429  11.568   5.596  1.2805 -1.4217  0.6484
  176MOL0     H23750   6.655  11.500   5.364 -0.6955 -4.4763  0.0301
  176MOL0     H23751   6.658  11.594   5.523 -2.5793 -0.8229 -0.4120
  176MOL0     H23752   6.862  11.476   5.576 -0.1552 -0.0174 -0.0142
  176MOL0     H23753   6.885  11.579   5.446  0.8716  0.3417  1.3635
  176MOL0     H23754   6.872  11.382   5.277 -1.1264  1.1360  0.6233
  176MOL0     H23755   6.847  11.279   5.420  2.9635 -1.5566 -2.5010
  176MOL0     H23756   7.050  11.305   5.510  2.3362 -0.2379 -1.0608
  176MOL0     H23757   7.099  11.438   5.388  0.2388 -0.0669 -1.4250
  176MOL0     H23758   7.158  11.046   5.229  0.8440  1.1480  0.5512
  176MOL0     H23759   6.527  11.203   5.401 -1.8254 -1.2604 -1.2329
  176MOL0     H23760   6.313  11.138   5.378 -0.6900 -1.0163  3.3414
  177MOL0     O23761   0.830   2.085   3.157  0.5119  0.5184 -0.1840
  177MOL0     C23762   0.865   2.039   3.051  0.1034  1.5406  0.4994
  177MOL0     O23763   0.814   1.927   2.989  0.1098 -0.3390  0.1136
  177MOL0     C23764   0.697   1.868   3.037 -0.4212 -0.3123  0.3910
  177MOL0     C23765   0.673   1.746   2.973  0.1225 -0.7125 -0.1135
  177MOL0     C23766   0.567   1.666   3.013 -0.7212 -0.1796 -0.5724
  177MOL0     C23767   0.476   1.707   3.099 -1.1539 -1.0129 -0.5384
  177MOL0     O23768   0.378   1.613   3.125  0.3628 -0.1337  0.6610
  177MOL0     C23769   0.259   1.661   3.180  0.2270 -0.5269 -0.4500
  177MOL0     C23770   0.156   1.552   3.184 -0.0417  1.2153  0.3218
  177MOL0     C23771   0.012   1.583   3.169  0.8469 -0.4741 -0.7317
  177MOL0     C23772  -0.082   1.456   3.186  0.3618 -0.8656 -0.3146
  177MOL0     C23773  -0.233   1.495   3.154  0.3472 -0.3942  0.6856
  177MOL0     C23774  -0.309   1.370   3.107 -0.0126  0.3032  0.0900
  177MOL0     C23775  -0.328   1.267   3.223 -0.7331  0.3797  0.4184
  177MOL0     C23776  -0.382   1.320   3.353 -0.5552 -0.3149 -0.4302
  177MOL0     N23777  -0.516   1.366   3.354  0.0142  1.4678 -1.0347
  177MOL0     C23778  -0.617   1.316   3.434  0.4100 -0.5697 -0.2096
  177MOL0     C23779  -0.722   1.390   3.394  1.1296 -0.4763 -0.1267
  177MOL0     C23780  -0.857   1.381   3.459 -0.4081 -0.0970 -0.1624
  177MOL0     C23781  -0.942   1.280   3.379 -0.7064 -0.2510  0.0881
  177MOL0     C23782  -1.084   1.273   3.441 -0.0301  0.1536  0.4700
  177MOL0     C23783  -1.187   1.196   3.357 -0.1832 -0.6962 -0.6713
  177MOL0     O23784  -1.312   1.180   3.435 -0.6065  0.3546  0.3160
  177MOL0     C23785  -1.426   1.219   3.365 -0.2526  0.0740  0.3692
  177MOL0     C23786  -1.527   1.130   3.336 -0.2438 -0.1185 -0.9481
  177MOL0     C23787  -1.647   1.168   3.271  0.8416 -0.3322 -0.5929
  177MOL0     C23788  -1.752   1.073   3.220 -0.1465 -0.9620 -0.9275
  177MOL0     C23789  -1.662   1.309   3.235  1.0200  0.3030 -0.5995
  177MOL0     C23790  -1.791   1.375   3.178  0.5114  0.3864 -0.4628
  177MOL0     O23791  -1.883   1.295   3.111 -0.1993  0.0974  0.2499
  177MOL0     C23792  -2.001   1.349   3.073 -0.3383  0.2287  0.3194
  177MOL0     C23793  -2.008   1.462   2.991  0.4175 -0.3652  0.4400
  177MOL0     C23794  -2.125   1.515   2.936  0.2479  0.1075 -0.9163
  177MOL0     C23795  -2.239   1.443   2.966  0.4471  0.2858  0.1688
  177MOL0     O23796  -2.351   1.468   2.889  0.5733 -0.1994 -0.3975
  177MOL0     C23797  -2.445   1.564   2.936  0.7581 -0.6566  0.0167
  177MOL0     C23798  -2.591   1.513   2.949  0.5008 -0.0113 -0.0001
  177MOL0     C23799  -2.608   1.430   3.076 -0.3146 -1.4764 -0.6776
  177MOL0     C23800  -2.760   1.409   3.096 -0.3908  0.3802 -0.1318
  177MOL0     C23801  -2.817   1.266   3.058 -0.8815 -0.6774  0.5446
  177MOL0     C23802  -2.763   1.147   3.151  0.4952 -0.5607  0.5766
  177MOL0     C23803  -2.785   1.163   3.299  0.1478 -0.3098  0.0675
  177MOL0     C23804  -2.912   1.203   3.364  0.3693  0.0814 -0.0958
  177MOL0    Cl23805  -3.067   1.130   3.308  0.2565  0.1066  0.2669
  177MOL0     C23806  -2.232   1.321   3.051  0.7549 -0.5389 -0.6749
  177MOL0     C23807  -2.112   1.281   3.105  0.0249  0.1201  1.1016
  177MOL0     O23808  -1.796   1.495   3.187  0.0272 -0.2168 -1.0001
  177MOL0     C23809  -1.561   1.400   3.268 -0.8463 -0.6042  0.1968
  177MOL0     C23810  -1.448   1.356   3.335  0.0973  0.3623 -1.1480
  177MOL0     N23811  -0.688   1.488   3.301 -0.1810  0.3970  0.2764
  177MOL0     N23812  -0.565   1.471   3.274 -0.0865  0.3515 -0.5431
  177MOL0     C23813   0.493   1.830   3.161  0.3361  0.1287  0.1553
  177MOL0     C23814   0.607   1.911   3.134 -0.7720 -0.1392  0.2579
  177MOL0     C23815   0.973   2.128   2.992  0.3537 -0.3951  0.6683
  177MOL0     C23816   0.993   2.122   2.852 -0.7705 -0.6640 -0.0061
  177MOL0     C23817   1.103   2.190   2.790  0.8472 -0.2926  0.0017
  177MOL0     C23818   1.189   2.273   2.862 -0.0810  0.3114 -0.0002
  177MOL0     O23819   1.293   2.344   2.809  0.3590  0.2148  0.5710
  177MOL0     C23820   1.252   2.470   2.739  0.1226  0.4987  0.2043
  177MOL0     C23821   1.204   2.441   2.591 -0.4647  0.0217 -0.0011
  177MOL0     C23822   1.317   2.376   2.517 -0.6800  0.6091 -0.0288
  177MOL0     C23823   1.297   2.337   2.371 -0.1857  0.1918  0.2912
  177MOL0     C23824   1.428   2.280   2.325 -0.0462  0.9140 -0.6354
  177MOL0     C23825   1.537   2.225   2.304  0.0803  1.0395  0.5884
  177MOL0     C23826   1.161   2.284   3.003  0.1079 -0.4298  0.1944
  177MOL0     C23827   1.062   2.209   3.069 -0.0754 -0.8845 -0.0503
  177MOL0     H23828   0.728   1.698   2.893  0.2927  0.5799 -0.8015
  177MOL0     H23829   0.550   1.570   2.966 -2.8384 -0.3392  0.3752
  177MOL0     H23830   0.283   1.700   3.279 -1.3798 -2.9555  1.0198
  177MOL0     H23831   0.218   1.743   3.121 -1.2905 -1.3950 -0.6551
  177MOL0     H23832   0.184   1.478   3.108 -0.8807  1.4654 -0.2486
  177MOL0     H23833   0.174   1.511   3.284 -0.1401 -1.6174 -0.7095
  177MOL0     H23834  -0.009   1.661   3.242  4.5355  3.2877 -3.2403
  177MOL0     H23835  -0.013   1.629   3.074 -0.9046  1.2877  0.4990
  177MOL0     H23836  -0.047   1.395   3.101  3.1020  0.4542 -0.2476
  177MOL0     H23837  -0.073   1.401   3.280 -0.3433 -1.3020 -0.4993
  177MOL0     H23838  -0.271   1.557   3.236  0.7059  3.0483 -1.5460
  177MOL0     H23839  -0.241   1.557   3.064  2.5995 -0.2768  0.4960
  177MOL0     H23840  -0.407   1.405   3.074 -0.5804  0.0349  1.4364
  177MOL0     H23841  -0.262   1.320   3.022 -1.0744 -3.0561  1.3443
  177MOL0     H23842  -0.391   1.186   3.185  1.0186 -0.3777 -1.0180
  177MOL0     H23843  -0.231   1.225   3.251 -0.6434  1.5327  1.9765
  177MOL0     H23844  -0.320   1.400   3.394  1.0073 -2.4399  1.6625
  177MOL0     H23845  -0.364   1.228   3.409  0.6962 -2.4648 -4.0370
  177MOL0     H23846  -0.610   1.232   3.502 -1.1367 -0.8243 -0.3388
  177MOL0     H23847  -0.844   1.355   3.565 -2.5157 -0.4958  0.0538
  177MOL0     H23848  -0.890   1.484   3.470  2.6040  1.0306 -0.8465
  177MOL0     H23849  -0.894   1.182   3.385  2.2607  1.1388  0.8390
  177MOL0     H23850  -0.939   1.313   3.275 -1.2137  1.7454  0.6614
  177MOL0     H23851  -1.125   1.372   3.467 -0.0463  0.5067 -0.8197
  177MOL0     H23852  -1.082   1.217   3.534 -0.0766  1.3975  1.2456
  177MOL0     H23853  -1.144   1.096   3.343 -1.1654 -1.2498  0.0754
  177MOL0     H23854  -1.211   1.242   3.261 -1.1495  1.9212  0.7325
  177MOL0     H23855  -1.531   1.026   3.366 -2.2924 -0.3423 -1.8469
  177MOL0     H23856  -1.853   1.107   3.246  0.8051  2.5962 -1.3293
  177MOL0     H23857  -1.765   1.065   3.112 -0.7315  0.3411 -0.9722
  177MOL0     H23858  -1.736   0.973   3.261 -0.5574 -0.5072  0.3981
  177MOL0     H23859  -1.918   1.512   2.959 -0.5942 -0.5790 -3.2011
  177MOL0     H23860  -2.117   1.592   2.860  0.6733  0.7770 -0.2053
  177MOL0     H23861  -2.419   1.608   3.033 -0.3359 -0.1923  0.1143
  177MOL0     H23862  -2.463   1.644   2.864 -2.5882  0.0529  1.4031
  177MOL0     H23863  -2.660   1.597   2.946  1.4558  0.8647  1.5248
  177MOL0     H23864  -2.608   1.448   2.862  0.7226 -2.3528  1.6209
  177MOL0     H23865  -2.567   1.475   3.167  4.7339 -4.4008 -1.1249
  177MOL0     H23866  -2.562   1.333   3.051 -1.2788 -3.0391  2.9946
  177MOL0     H23867  -2.787   1.417   3.202  0.5273 -1.7365  0.3190
  177MOL0     H23868  -2.817   1.487   3.045  0.2602  1.4236  0.6848
  177MOL0     H23869  -2.805   1.247   2.950 -3.8398 -1.6776  0.3109
  177MOL0     H23870  -2.925   1.277   3.072 -0.6732  1.4342  0.7801
  177MOL0     H23871  -2.812   1.056   3.116 -1.2030  0.0334  1.2716
  177MOL0     H23872  -2.656   1.131   3.139  0.4178 -1.2315  0.7407
  177MOL0     H23873  -2.709   1.227   3.345  0.6911 -1.9594  1.5726
  177MOL0     H23874  -2.770   1.062   3.338 -0.2847 -0.7145 -0.7901
  177MOL0     H23875  -2.918   1.311   3.355  1.3084  0.3992  2.2942
  177MOL0     H23876  -2.904   1.182   3.471 -3.5100  3.9468  1.1919
  177MOL0     H23877  -2.324   1.267   3.074 -0.5238  0.7954 -2.3945
  177MOL0     H23878  -2.099   1.183   3.150 -1.2920 -0.4944  0.1971
  177MOL0     H23879  -1.569   1.508   3.258 -1.5563 -0.2093  3.7936
  177MOL0     H23880  -1.382   1.422   3.390  0.1839 -2.1583  2.0544
  177MOL0     H23881   0.418   1.867   3.229  0.7617  0.8685  0.2285
  177MOL0     H23882   0.615   1.998   3.198 -3.1175  0.3059  0.0389
  177MOL0     H23883   0.933   2.058   2.787 -3.6671  1.7738  0.0396
  177MOL0     H23884   1.128   2.179   2.685 -0.3296  1.8237 -0.5649
  177MOL0     H23885   1.175   2.513   2.804  1.0152 -0.4917  2.0023
  177MOL0     H23886   1.340   2.535   2.735 -0.9073  1.9059 -0.6187
  177MOL0     H23887   1.168   2.531   2.541 -0.5691 -1.1005 -2.0565
  177MOL0     H23888   1.117   2.374   2.589  0.1513 -0.7822 -2.4338
  177MOL0     H23889   1.348   2.286   2.570  0.0379  2.0316  2.1259
  177MOL0     H23890   1.395   2.453   2.512 -1.0226  1.1148  1.7514
  177MOL0     H23891   1.276   2.429   2.316  2.5783  2.4932  2.7086
  177MOL0     H23892   1.217   2.262   2.367  1.1260 -1.2947  0.7371
  177MOL0     H23893   1.627   2.175   2.274 -0.4222  0.0903  0.6398
  177MOL0     H23894   1.221   2.347   3.068 -2.6103  1.8613  0.6840
  177MOL0     H23895   1.065   2.215   3.177  0.8517  1.9665 -0.1414
  178MOL0     O23896   4.467   5.792   1.495  0.3141 -0.4401  0.8832
  178MOL0     C23897   4.522   5.878   1.564 -0.0173  0.5247 -0.6175
  178MOL0     O23898   4.469   6.002   1.590  0.2599  0.3222  0.8881
  178MOL0     C23899   4.334   6.019   1.551 -0.3038  0.1662 -0.2662
  178MOL0     C23900   4.237   6.015   1.654  0.2773  0.2915  0.2091
  178MOL0     C23901   4.100   6.028   1.625 -0.2226  1.4592  0.3830
  178MOL0     C23902   4.058   6.044   1.491  0.2061  0.8919 -1.1124
  178MOL0     O23903   3.926   6.036   1.475 -0.0334 -0.6207  0.3058
  178MOL0     C23904   3.880   6.010   1.343  0.4828 -0.8172 -0.3756
  178MOL0     C23905   3.727   6.007   1.362  0.9628 -0.0995  0.4032
  178MOL0     C23906   3.671   6.142   1.397  0.6107  0.2137 -0.9687
  178MOL0     C23907   3.531   6.121   1.456  0.2222 -1.6406 -0.9808
  178MOL0     C23908   3.468   6.253   1.502 -0.3949  0.1819 -0.9287
  178MOL0     C23909   3.394   6.324   1.387 -0.7087  0.3136 -0.4253
  178MOL0     C23910   3.343   6.458   1.424 -0.8690  0.4570  0.5073
  178MOL0     C23911   3.234   6.460   1.532  0.2730 -0.3492 -0.3296
  178MOL0     N23912   3.123   6.543   1.486 -0.0222 -0.1409 -0.0941
  178MOL0     C23913   2.997   6.493   1.495 -0.1347 -0.4500 -0.0814
  178MOL0     C23914   2.918   6.578   1.414  0.5115  0.2618 -0.1597
  178MOL0     C23915   2.771   6.571   1.384 -0.2281  0.0465  1.1517
  178MOL0     C23916   2.676   6.522   1.505 -0.0472 -0.3170  0.5606
  178MOL0     C23917   2.534   6.511   1.463 -0.5180  0.1525  1.0967
  178MOL0     C23918   2.512   6.404   1.349  0.7092 -0.2585  0.0087
  178MOL0     O23919   2.567   6.286   1.402  0.1433  0.2613 -0.3117
  178MOL0     C23920   2.493   6.180   1.435  0.2711 -0.3225 -0.2898
  178MOL0     C23921   2.559   6.066   1.454  0.0108  0.0267 -0.2742
  178MOL0     C23922   2.503   5.955   1.513  0.2313 -0.3790 -0.3634
  178MOL0     C23923   2.600   5.845   1.533 -0.3030  0.0031  0.9218
  178MOL0     C23924   2.367   5.966   1.559 -0.7075 -0.3400  0.8068
  178MOL0     C23925   2.294   5.855   1.634 -0.6858 -0.3156 -0.3925
  178MOL0     O23926   2.364   5.739   1.659 -0.0242  0.1906  0.1539
  178MOL0     C23927   2.305   5.634   1.712  0.5599  1.3430 -0.5205
  178MOL0     C23928   2.333   5.509   1.665  0.5560  0.1088 -0.1370
  178MOL0     C23929   2.283   5.394   1.729 -0.0245 -0.4518 -0.2140
  178MOL0     C23930   2.204   5.389   1.835 -0.1606 -0.3277  0.3524
  178MOL0     O23931   2.148   5.273   1.878 -0.5703  0.8708 -0.1101
  178MOL0     C23932   2.016   5.276   1.900 -0.3339  1.6211 -0.3340
  178MOL0     C23933   1.967   5.140   1.853  0.8008  0.2269  0.6631
  178MOL0     C23934   2.004   5.105   1.717 -0.3213  0.4138  0.0386
  178MOL0     C23935   1.956   4.973   1.674  0.0258  0.1788 -0.2786
  178MOL0     C23936   1.803   4.941   1.699 -0.5706  0.0842 -0.2787
  178MOL0     C23937   1.707   5.031   1.627  0.1397  0.3110  0.4585
  178MOL0     C23938   1.576   4.968   1.591 -0.4723  0.6149 -0.5181
  178MOL0     C23939   1.584   4.867   1.472  0.0401  0.7397  0.8672
  178MOL0    Cl23940   1.695   4.923   1.339  0.1904 -0.3803 -0.0477
  178MOL0     C23941   2.187   5.521   1.893  0.2879  0.4379 -0.4840
  178MOL0     C23942   2.241   5.637   1.832 -0.2277  0.4516 -0.2274
  178MOL0     O23943   2.175   5.869   1.644  0.9101  0.6886 -0.0196
  178MOL0     C23944   2.295   6.086   1.534 -0.0288  1.4471 -0.2556
  178MOL0     C23945   2.360   6.194   1.476  0.3089 -0.0883 -0.1988
  178MOL0     N23946   3.005   6.670   1.362  0.0097 -0.4577 -0.3243
  178MOL0     N23947   3.124   6.653   1.410 -0.1923  0.4354  0.2826
  178MOL0     C23948   4.160   6.057   1.387  0.4796 -0.6511 -0.8473
  178MOL0     C23949   4.293   6.043   1.417 -0.2404  1.1701  0.2540
  178MOL0     C23950   4.661   5.844   1.603 -1.0245 -0.1553 -1.2266
  178MOL0     C23951   4.748   5.942   1.646  0.0046 -0.2711 -0.5988
  178MOL0     C23952   4.876   5.914   1.679 -0.2826 -0.1806 -0.0580
  178MOL0     C23953   4.931   5.788   1.663 -0.3435  0.2730  0.0455
  178MOL0     O23954   5.064   5.762   1.683  0.1909  0.8799  0.1488
  178MOL0     C23955   5.093   5.687   1.802  0.5203 -0.3501  0.1194
  178MOL0     C23956   5.128   5.774   1.918 -0.6947  0.3780  0.2316
  178MOL0     C23957   5.233   5.886   1.881  0.5147  0.4971  0.1700
  178MOL0     C23958   5.350   5.845   1.796  0.2430 -0.3630  0.5787
  178MOL0     C23959   5.434   5.759   1.881 -0.2636  0.5886 -0.0741
  178MOL0     C23960   5.489   5.670   1.944 -0.7173 -0.6129  0.1357
  178MOL0     C23961   4.851   5.682   1.609 -0.1584 -0.4553 -0.0852
  178MOL0     C23962   4.714   5.716   1.582  0.5141  0.7260  0.1012
  178MOL0     H23963   4.271   5.993   1.754 -1.8897 -2.4863  0.4736
  178MOL0     H23964   4.027   6.006   1.701 -3.2075 -1.3426 -2.9606
  178MOL0     H23965   3.908   6.088   1.272  0.5156 -0.0915  0.4155
  178MOL0     H23966   3.912   5.912   1.307 -1.0770 -1.5034  0.0227
  178MOL0     H23967   3.690   5.973   1.264  0.1832 -1.3757  1.1160
  178MOL0     H23968   3.710   5.934   1.441  2.4080  1.1715  1.9498
  178MOL0     H23969   3.725   6.190   1.479 -0.8720 -1.4498  1.0818
  178MOL0     H23970   3.672   6.206   1.308  3.0470  0.4687 -0.8258
  178MOL0     H23971   3.471   6.077   1.376  1.4360 -0.8054 -2.4170
  178MOL0     H23972   3.538   6.051   1.540 -1.1489  1.2230  1.7007
  178MOL0     H23973   3.406   6.228   1.588  1.2415  0.9580  0.5198
  178MOL0     H23974   3.553   6.305   1.545 -0.4922  1.7326 -2.5077
  178MOL0     H23975   3.455   6.326   1.296 -1.1127 -1.4602 -0.7593
  178MOL0     H23976   3.301   6.267   1.377 -1.0629  1.0027 -1.1951
  178MOL0     H23977   3.428   6.518   1.458  1.6097 -2.2504 -0.4631
  178MOL0     H23978   3.309   6.509   1.333  0.1607  1.9276  0.9112
  178MOL0     H23979   3.270   6.511   1.622  0.0266 -1.6563  0.5415
  178MOL0     H23980   3.194   6.362   1.557  0.7164 -0.4365  0.0526
  178MOL0     H23981   2.978   6.402   1.550 -1.0389  0.2525  0.8023
  178MOL0     H23982   2.733   6.669   1.355 -2.2433 -1.2210 -0.8100
  178MOL0     H23983   2.769   6.504   1.298 -0.7965  2.0975 -0.5213
  178MOL0     H23984   2.688   6.591   1.589  0.5519  1.8816 -1.2600
  178MOL0     H23985   2.722   6.429   1.539  1.5505  0.0195 -0.6020
  178MOL0     H23986   2.503   6.612   1.431  2.0783  0.7837  0.3760
  178MOL0     H23987   2.471   6.486   1.549  1.0328 -1.2217  1.8900
  178MOL0     H23988   2.559   6.439   1.256  1.8826 -2.0839 -0.1577
  178MOL0     H23989   2.408   6.386   1.321  0.8748 -4.0953  1.2212
  178MOL0     H23990   2.665   6.070   1.432  0.0798 -2.4982 -0.6192
  178MOL0     H23991   2.630   5.839   1.638 -0.0666  0.2801  0.8726
  178MOL0     H23992   2.554   5.755   1.492 -1.4204  1.1687 -0.4972
  178MOL0     H23993   2.697   5.854   1.481 -0.1713 -3.3907  0.3430
  178MOL0     H23994   2.387   5.496   1.572 -0.6022  0.7088 -0.9061
  178MOL0     H23995   2.300   5.296   1.685  1.1645 -1.0980  1.5546
  178MOL0     H23996   2.005   5.271   2.009  1.9750  2.3435 -0.0070
  178MOL0     H23997   1.954   5.357   1.861  0.1731  2.5017  0.6297
  178MOL0     H23998   1.998   5.063   1.925  1.6091  0.5216  0.6485
  178MOL0     H23999   1.859   5.140   1.838  1.1533  0.9454 -2.7561
  178MOL0     H24000   2.114   5.100   1.714 -0.3867 -1.5821 -0.4821
  178MOL0     H24001   1.972   5.176   1.640  0.1112  0.5755  0.0054
  178MOL0     H24002   1.982   4.971   1.568 -0.2023  0.1450 -0.3334
  178MOL0     H24003   2.023   4.894   1.711 -2.0481 -0.9820  1.2126
  178MOL0     H24004   1.786   4.948   1.807  0.7119  1.2844 -0.1199
  178MOL0     H24005   1.784   4.834   1.684 -1.2268 -0.3903  3.0749
  178MOL0     H24006   1.704   5.127   1.680  2.7334  2.9605 -3.6664
  178MOL0     H24007   1.757   5.056   1.533 -0.4995 -0.3249 -0.0622
  178MOL0     H24008   1.513   5.051   1.558  0.7752  2.3337  1.2275
  178MOL0     H24009   1.536   4.919   1.680 -2.7201 -0.3322 -1.9431
  178MOL0     H24010   1.484   4.846   1.433  0.9351 -2.5746 -0.0144
  178MOL0     H24011   1.622   4.778   1.524 -0.6219  1.5646  2.8781
  178MOL0     H24012   2.130   5.534   1.985  2.4232 -0.9337  1.1174
  178MOL0     H24013   2.212   5.735   1.868  1.1292 -0.3719  3.4689
  178MOL0     H24014   2.192   6.111   1.558 -0.4905  0.1265 -0.7875
  178MOL0     H24015   2.301   6.285   1.475  0.7789  0.3446  2.8259
  178MOL0     H24016   4.124   6.072   1.286 -1.3742 -1.8525 -0.4188
  178MOL0     H24017   4.365   6.023   1.339  0.5739 -0.9770  1.4910
  178MOL0     H24018   4.712   6.043   1.661  0.7661 -0.1899  0.8576
  178MOL0     H24019   4.942   5.997   1.699 -1.7647  0.4415  2.9255
  178MOL0     H24020   5.008   5.625   1.831  0.1292  0.1456  0.0443
  178MOL0     H24021   5.180   5.622   1.786 -0.6774 -2.0155  0.1366
  178MOL0     H24022   5.169   5.705   1.992 -1.9686 -2.5705 -1.6454
  178MOL0     H24023   5.039   5.827   1.952 -2.3874 -1.7188 -0.7272
  178MOL0     H24024   5.271   5.935   1.971  0.6256  0.0588  0.3656
  178MOL0     H24025   5.180   5.967   1.830  0.1498  0.1801  0.0334
  178MOL0     H24026   5.399   5.937   1.764  1.8417 -2.0623 -2.2625
  178MOL0     H24027   5.320   5.793   1.705 -0.5391 -0.0192  0.6385
  178MOL0     H24028   5.530   5.589   2.001 -1.5987 -1.6433 -0.6427
  178MOL0     H24029   4.901   5.587   1.594  1.5469  0.4253 -0.2113
  178MOL0     H24030   4.663   5.637   1.528  3.3508 -0.2800 -1.2588
  179MOL0     O24031   8.731   9.224   3.675 -0.7627  0.5770 -0.2066
  179MOL0     C24032   8.798   9.151   3.738 -0.8297 -0.5505 -1.4232
  179MOL0     O24033   8.754   9.058   3.835  0.1884 -0.7546  0.3414
  179MOL0     C24034   8.620   9.061   3.857  0.4953 -0.9485  0.8841
  179MOL0     C24035   8.571   9.127   3.970 -0.0911 -0.0969  0.1430
  179MOL0     C24036   8.436   9.143   3.998  0.8147 -0.8472 -0.1899
  179MOL0     C24037   8.347   9.102   3.899 -0.3177  0.5012 -0.0441
  179MOL0     O24038   8.215   9.134   3.899  0.3106  0.4157 -0.5326
  179MOL0     C24039   8.181   9.274   3.897  0.0350  0.0981 -0.2423
  179MOL0     C24040   8.030   9.290   3.885  0.3492 -0.4702 -0.4477
  179MOL0     C24041   7.985   9.430   3.920  0.3530  0.1516  1.0159
  179MOL0     C24042   7.934   9.454   4.072 -0.7419  0.4792  0.3529
  179MOL0     C24043   7.887   9.591   4.100  0.5201  0.0713  0.4294
  179MOL0     C24044   7.802   9.601   4.221 -0.0294 -0.7587 -0.5146
  179MOL0     C24045   7.895   9.650   4.336 -0.2859  0.0304 -1.1036
  179MOL0     C24046   7.802   9.670   4.462 -0.2083 -0.0049 -0.1423
  179MOL0     N24047   7.693   9.783   4.445 -0.4332  0.2747  0.6261
  179MOL0     C24048   7.722   9.911   4.442  0.1969  0.8852 -0.1754
  179MOL0     C24049   7.601   9.977   4.434  0.5578  0.4265  0.2242
  179MOL0     C24050   7.570  10.123   4.441  0.4352 -0.0352 -0.8998
  179MOL0     C24051   7.469  10.155   4.327 -0.6057 -0.0372  0.5124
  179MOL0     C24052   7.466  10.310   4.313  1.1155  0.5207  0.3588
  179MOL0     C24053   7.369  10.340   4.198  0.7293 -0.1721 -0.9894
  179MOL0     O24054   7.230  10.309   4.241  0.5278 -0.9383 -0.5258
  179MOL0     C24055   7.134  10.314   4.138 -0.3692  0.0560  0.2004
  179MOL0     C24056   7.150  10.285   4.001  0.4553  0.2576 -0.1869
  179MOL0     C24057   7.045  10.286   3.910 -1.2510  0.1465 -0.8330
  179MOL0     C24058   7.087  10.265   3.766 -0.4454  0.4105  0.9691
  179MOL0     C24059   6.917  10.309   3.954  0.0576  0.1750  0.1840
  179MOL0     C24060   6.793  10.310   3.864 -0.2403 -0.1811 -0.2703
  179MOL0     O24061   6.699  10.403   3.896  0.0512  0.5641 -0.7012
  179MOL0     C24062   6.580  10.399   3.829 -0.5079  0.6220  0.3041
  179MOL0     C24063   6.584  10.403   3.689  0.3243  0.2390  0.3993
  179MOL0     C24064   6.466  10.387   3.625 -0.0182  0.0876  0.7103
  179MOL0     C24065   6.347  10.368   3.692 -0.2981  0.6459 -0.0475
  179MOL0     O24066   6.230  10.342   3.633 -0.0001  0.2734 -0.1248
  179MOL0     C24067   6.209  10.387   3.498  1.0790 -0.3327 -0.4805
  179MOL0     C24068   6.052  10.390   3.476 -0.1228 -0.8506 -0.1014
  179MOL0     C24069   6.024  10.446   3.330  0.2187 -1.0770 -0.1507
  179MOL0     C24070   6.023  10.596   3.328 -0.6180  0.3374 -0.5832
  179MOL0     C24071   5.983  10.638   3.178  0.4677  1.1688  1.3586
  179MOL0     C24072   5.847  10.590   3.112 -0.3146 -0.1222 -0.4985
  179MOL0     C24073   5.847  10.640   2.967  0.5528 -0.4220 -0.0144
  179MOL0     C24074   5.708  10.618   2.900  0.4086  0.4714 -0.4559
  179MOL0    Cl24075   5.604  10.750   2.963  0.4143 -0.5054 -0.1103
  179MOL0     C24076   6.343  10.355   3.828  0.3271  0.2727  0.0785
  179MOL0     C24077   6.463  10.370   3.901 -0.3177  0.0172  0.2571
  179MOL0     O24078   6.786  10.222   3.781  0.4603  0.3781  0.3040
  179MOL0     C24079   6.903  10.355   4.085  0.7051  0.2070 -0.4103
  179MOL0     C24080   7.008  10.362   4.171  0.4031 -0.2195  0.0624
  179MOL0     N24081   7.503   9.877   4.438  0.0188  0.4011  0.4295
  179MOL0     N24082   7.557   9.759   4.445  1.3536 -0.5299  0.1937
  179MOL0     C24083   8.395   9.028   3.787 -0.2924  0.0648 -0.0660
  179MOL0     C24084   8.534   8.998   3.768 -0.1504  0.7340 -0.9236
  179MOL0     C24085   8.948   9.162   3.720  0.0056  0.3470  0.3588
  179MOL0     C24086   9.008   9.261   3.639  0.0845 -0.5623  0.8139
  179MOL0     C24087   9.147   9.273   3.627 -0.6122 -0.8316 -0.1961
  179MOL0     C24088   9.234   9.190   3.706 -0.8673 -0.4035  0.2622
  179MOL0     O24089   9.373   9.199   3.709 -0.0087  0.0432 -0.0560
  179MOL0     C24090   9.440   9.292   3.620  0.3695 -0.1637 -0.3943
  179MOL0     C24091   9.450   9.254   3.473  0.3909  0.1750  0.3823
  179MOL0     C24092   9.552   9.145   3.454 -0.6443  0.7877  0.5162
  179MOL0     C24093   9.690   9.204   3.446  0.2525 -1.5206  0.2837
  179MOL0     C24094   9.786   9.097   3.425  0.5389 -0.0291 -0.8681
  179MOL0     C24095   9.872   9.011   3.422  0.0610 -0.4276  0.1342
  179MOL0     C24096   9.179   9.093   3.788 -0.0648 -0.1287  0.0566
  179MOL0     C24097   9.037   9.081   3.796 -0.7221 -0.1952 -0.5098
  179MOL0     H24098   8.646   9.176   4.031 -0.2446  2.3230 -1.4666
  179MOL0     H24099   8.409   9.188   4.093 -3.3481 -1.0124 -1.1311
  179MOL0     H24100   8.214   9.318   3.991 -1.2366  0.3747  0.0837
  179MOL0     H24101   8.224   9.334   3.815  0.9466  0.7268  0.6692
  179MOL0     H24102   7.991   9.261   3.787 -0.1313 -2.1745  0.1997
  179MOL0     H24103   7.990   9.220   3.959  3.2790 -1.4147  0.3905
  179MOL0     H24104   8.059   9.504   3.888  1.7683 -1.3241  0.7999
  179MOL0     H24105   7.892   9.448   3.864  0.7774 -2.4154 -0.6571
  179MOL0     H24106   7.856   9.378   4.084  0.3616 -0.6332  0.7035
  179MOL0     H24107   8.010   9.421   4.143  0.6477 -1.0527 -1.6931
  179MOL0     H24108   7.960   9.672   4.109 -1.4147  1.9385  0.1213
  179MOL0     H24109   7.823   9.613   4.014 -2.4371 -1.1360  2.1501
  179MOL0     H24110   7.741   9.689   4.198  0.6344 -0.4468 -1.1122
  179MOL0     H24111   7.750   9.508   4.245  0.5110 -0.8454  0.3812
  179MOL0     H24112   7.973   9.575   4.351  0.0818  0.8469  1.5690
  179MOL0     H24113   7.937   9.750   4.325 -2.5295  0.9216 -2.3371
  179MOL0     H24114   7.849   9.699   4.556  0.9245  0.3556 -0.7998
  179MOL0     H24115   7.749   9.577   4.487  1.3203 -1.0153 -0.5269
  179MOL0     H24116   7.822   9.951   4.431  0.0640  0.5352 -4.2663
  179MOL0     H24117   7.529  10.153   4.538  0.0868 -1.6387 -0.5166
  179MOL0     H24118   7.662  10.180   4.425  0.0673  0.6011 -0.7823
  179MOL0     H24119   7.370  10.123   4.359 -0.7465  0.9667  1.0987
  179MOL0     H24120   7.516  10.111   4.238 -1.4327 -0.8169  0.4471
  179MOL0     H24121   7.564  10.354   4.293  0.3770  2.6210  1.0965
  179MOL0     H24122   7.425  10.342   4.409  0.2734 -1.2822  0.6415
  179MOL0     H24123   7.401  10.285   4.109  1.5541 -0.3299 -0.6068
  179MOL0     H24124   7.369  10.448   4.187 -1.8857 -0.2418 -2.3538
  179MOL0     H24125   7.249  10.256   3.967  0.1057  0.8221 -1.7608
  179MOL0     H24126   7.050  10.176   3.716  0.6589  1.3551 -1.7900
  179MOL0     H24127   7.058  10.356   3.712 -0.8950 -0.5788 -0.5214
  179MOL0     H24128   7.195  10.247   3.759 -0.3892  0.4799  1.6254
  179MOL0     H24129   6.661  10.419   3.613 -0.1386 -0.9310 -0.3492
  179MOL0     H24130   6.463  10.377   3.517  2.5832  1.0740  0.4776
  179MOL0     H24131   6.252  10.487   3.489 -1.8786  1.0086 -1.0300
  179MOL0     H24132   6.248  10.306   3.436  1.1763 -0.6130 -0.0575
  179MOL0     H24133   6.015  10.287   3.483  0.3782 -1.0384 -0.2041
  179MOL0     H24134   6.009  10.454   3.553  1.0145  1.4633 -1.3138
  179MOL0     H24135   5.922  10.414   3.309 -0.1842 -1.7098  2.4620
  179MOL0     H24136   6.104  10.412   3.263  0.4267  0.3647 -0.6816
  179MOL0     H24137   5.954  10.637   3.401  0.6909  1.5052  0.0255
  179MOL0     H24138   6.118  10.642   3.353  0.3881 -2.2628  0.7709
  179MOL0     H24139   6.067  10.611   3.112 -1.9711  1.2277 -2.0280
  179MOL0     H24140   5.979  10.747   3.170  2.8536  1.1831 -3.2045
  179MOL0     H24141   5.833  10.482   3.113  0.3446 -0.2146 -0.2524
  179MOL0     H24142   5.765  10.641   3.163 -0.7009 -0.0828 -1.1599
  179MOL0     H24143   5.927  10.597   2.905  0.7706  0.2993 -0.2420
  179MOL0     H24144   5.861  10.748   2.961 -3.0259  0.1800  0.5784
  179MOL0     H24145   5.664  10.521   2.925 -2.5716  2.2561  1.7663
  179MOL0     H24146   5.730  10.633   2.793  0.9555 -0.9503 -0.5675
  179MOL0     H24147   6.242  10.343   3.865 -0.2620  2.2741 -0.7762
  179MOL0     H24148   6.456  10.353   4.008  0.4933  0.0074  0.3140
  179MOL0     H24149   6.807  10.363   4.134  1.5076 -2.3925  1.7760
  179MOL0     H24150   6.987  10.381   4.276  0.4851 -1.3835  0.3041
  179MOL0     H24151   8.319   8.994   3.717 -1.7273 -1.5244  2.1450
  179MOL0     H24152   8.573   8.934   3.690 -1.2559 -0.5978 -0.4171
  179MOL0     H24153   8.948   9.323   3.574  0.1246 -2.1757 -0.8210
  179MOL0     H24154   9.191   9.344   3.558  0.5103  2.1372  3.2553
  179MOL0     H24155   9.383   9.384   3.617 -2.0262 -1.5807 -2.3915
  179MOL0     H24156   9.543   9.310   3.654 -0.7490 -0.1138  3.4378
  179MOL0     H24157   9.481   9.340   3.413 -1.3011  0.5091 -0.0670
  179MOL0     H24158   9.354   9.211   3.442 -0.5244  1.2321  1.5829
  179MOL0     H24159   9.536   9.098   3.357 -0.1720  1.0827  0.2923
  179MOL0     H24160   9.546   9.075   3.538 -2.6839 -2.1717 -1.8574
  179MOL0     H24161   9.711   9.268   3.533 -1.6393 -0.2797 -0.1003
  179MOL0     H24162   9.706   9.269   3.359  0.4472  0.0129  1.4099
  179MOL0     H24163   9.957   8.948   3.439 -0.0648 -0.7562 -0.4363
  179MOL0     H24164   9.244   9.051   3.863  1.2044 -0.5478 -1.2369
  179MOL0     H24165   9.004   9.004   3.865 -0.6724 -0.7014 -1.0504
  180MOL0     O24166   2.055   9.250   7.258 -0.6552 -0.5215  0.7619
  180MOL0     C24167   1.980   9.340   7.294 -0.2431  0.4732  0.1522
  180MOL0     O24168   2.011   9.457   7.352  0.2320  0.2238 -0.3110
  180MOL0     C24169   2.139   9.504   7.338  0.3597  0.4374  0.2526
  180MOL0     C24170   2.196   9.553   7.449  0.9972  0.8317 -0.3823
  180MOL0     C24171   2.327   9.598   7.455  0.4126 -0.1312 -0.2519
  180MOL0     C24172   2.402   9.593   7.341  0.5037  0.2788 -0.0476
  180MOL0     O24173   2.531   9.636   7.347  0.1861 -0.4315 -0.7069
  180MOL0     C24174   2.612   9.634   7.227  0.4017  0.4925 -0.7928
  180MOL0     C24175   2.757   9.667   7.273  0.5402 -0.6700 -0.2083
  180MOL0     C24176   2.860   9.654   7.161  0.2695 -0.1344 -0.9223
  180MOL0     C24177   2.846   9.759   7.047  0.0314 -0.1281  0.2225
  180MOL0     C24178   2.954   9.724   6.950 -0.4147 -0.2774  0.0797
  180MOL0     C24179   2.942   9.834   6.840  0.0864  0.3979 -0.1353
  180MOL0     C24180   3.035   9.787   6.722  1.0410 -0.0815  0.0200
  180MOL0     C24181   3.013   9.878   6.596 -0.2045 -0.1752 -0.8040
  180MOL0     N24182   3.119   9.847   6.501 -0.1696  0.2752 -0.6853
  180MOL0     C24183   3.087   9.802   6.374 -0.4655 -0.0038 -0.1846
  180MOL0     C24184   3.204   9.808   6.300  0.3473  0.1682 -0.8437
  180MOL0     C24185   3.229   9.776   6.162  0.0859 -0.1432 -0.2866
  180MOL0     C24186   3.320   9.877   6.090 -0.6042  0.3934 -0.4629
  180MOL0     C24187   3.306   9.860   5.941  0.9057 -0.2149 -0.1999
  180MOL0     C24188   3.401   9.750   5.898 -0.7770 -0.0275  0.6388
  180MOL0     O24189   3.370   9.706   5.767  0.4943  1.0732 -0.4250
  180MOL0     C24190   3.424   9.582   5.716 -0.3101 -0.6920  0.4152
  180MOL0     C24191   3.379   9.544   5.589 -0.7671 -0.1977 -0.2532
  180MOL0     C24192   3.421   9.429   5.516  0.0673 -0.1262  0.9124
  180MOL0     C24193   3.371   9.429   5.376  0.0329  0.5914 -1.0855
  180MOL0     C24194   3.509   9.338   5.579 -0.3849 -0.3580  0.4533
  180MOL0     C24195   3.553   9.206   5.528 -0.0380  0.3274  0.7119
  180MOL0     O24196   3.615   9.113   5.610  0.2759 -0.0576 -0.3907
  180MOL0     C24197   3.683   9.011   5.561 -0.9411  0.7316 -0.6426
  180MOL0     C24198   3.678   8.890   5.638 -0.4299  0.3880 -0.2521
  180MOL0     C24199   3.756   8.790   5.606  0.2399  0.7780  0.7773
  180MOL0     C24200   3.841   8.797   5.484  0.2869  0.3679  0.0351
  180MOL0     O24201   3.924   8.685   5.464 -1.0382 -0.5566  0.0787
  180MOL0     C24202   4.040   8.697   5.379 -0.8984  0.1840 -0.3494
  180MOL0     C24203   4.009   8.689   5.228 -0.4796 -0.1894  0.7294
  180MOL0     C24204   4.099   8.788   5.144  0.5814  0.8634  0.6895
  180MOL0     C24205   4.013   8.889   5.065 -0.7430  0.6831 -0.1284
  180MOL0     C24206   4.086   9.020   5.043  0.0642 -0.4707  0.8981
  180MOL0     C24207   4.084   9.119   5.158  0.0787  0.1787 -0.9325
  180MOL0     C24208   4.147   9.256   5.132  0.7829 -0.1473 -0.0362
  180MOL0     C24209   4.069   9.334   5.031 -0.8075 -0.8038 -0.3163
  180MOL0    Cl24210   4.160   9.476   4.977  0.1956 -0.1839  0.7067
  180MOL0     C24211   3.843   8.913   5.409  0.2383  0.5281 -0.0320
  180MOL0     C24212   3.767   9.015   5.449  0.7201  0.1470  1.2682
  180MOL0     O24213   3.530   9.186   5.413 -0.4306 -0.0346  1.1772
  180MOL0     C24214   3.552   9.372   5.711  0.6882 -0.5163 -0.7920
  180MOL0     C24215   3.511   9.492   5.777 -0.6659  0.2983  0.9183
  180MOL0     N24216   3.305   9.846   6.390  0.2200  0.2681  0.7151
  180MOL0     N24217   3.254   9.875   6.505  0.5538 -0.2015  0.0490
  180MOL0     C24218   2.340   9.546   7.223  0.2477  0.4991  0.0483
  180MOL0     C24219   2.212   9.497   7.225  0.3813 -0.1396  0.9450
  180MOL0     C24220   1.836   9.305   7.269  0.8952 -0.9621 -0.4701
  180MOL0     C24221   1.796   9.181   7.211  0.3818 -0.6677 -0.7587
  180MOL0     C24222   1.666   9.154   7.171 -0.5482 -1.7074 -0.0650
  180MOL0     C24223   1.572   9.256   7.187 -0.3246 -0.3193 -0.8838
  180MOL0     O24224   1.435   9.249   7.166  0.6182  0.5448  0.7937
  180MOL0     C24225   1.378   9.136   7.101  0.1956  0.4815 -1.0834
  180MOL0     C24226   1.226   9.151   7.093  0.0290 -0.3086 -0.3598
  180MOL0     C24227   1.188   9.269   7.001 -0.2538 -0.8109  0.0905
  180MOL0     C24228   1.036   9.292   6.984 -0.2300 -1.3862 -0.4956
  180MOL0     C24229   1.038   9.374   6.866 -0.4516 -0.1977 -0.0807
  180MOL0     C24230   1.039   9.435   6.759 -0.9981  0.3997  0.0876
  180MOL0     C24231   1.610   9.375   7.245 -0.1130 -0.2905  0.1826
  180MOL0     C24232   1.738   9.403   7.286  0.5237 -0.0701  0.5344
  180MOL0     H24233   2.140   9.586   7.536  1.8490  5.1905 -1.2541
  180MOL0     H24234   2.376   9.652   7.536 -0.4412 -2.6750  2.1363
  180MOL0     H24235   2.607   9.534   7.184 -0.9964  0.2603 -0.1434
  180MOL0     H24236   2.576   9.714   7.162  0.1736  0.1407 -1.1057
  180MOL0     H24237   2.770   9.764   7.321  3.4700  0.3619 -2.7500
  180MOL0     H24238   2.777   9.586   7.344 -0.3725 -2.6534 -2.0824
  180MOL0     H24239   2.963   9.647   7.199  0.6403  0.7772 -1.6927
  180MOL0     H24240   2.845   9.550   7.129 -0.9151  0.1201 -1.2370
  180MOL0     H24241   2.745   9.759   7.007  0.1574  0.2038 -0.1033
  180MOL0     H24242   2.859   9.864   7.076 -0.0338  0.2805 -1.1725
  180MOL0     H24243   3.053   9.726   6.995 -1.1499 -2.1888  1.9415
  180MOL0     H24244   2.931   9.628   6.903  1.2751  0.2052 -1.8648
  180MOL0     H24245   2.839   9.842   6.805  0.8466  0.9019 -2.4329
  180MOL0     H24246   2.972   9.932   6.880 -2.9723  1.4153 -0.0557
  180MOL0     H24247   3.142   9.802   6.740  0.5711  0.6753  2.6344
  180MOL0     H24248   3.014   9.682   6.700 -2.9830  0.7732 -1.0579
  180MOL0     H24249   3.011   9.978   6.640 -3.8323 -0.8917  1.0548
  180MOL0     H24250   2.913   9.876   6.553 -0.1548 -1.1291 -0.9146
  180MOL0     H24251   2.984   9.780   6.347  0.3643 -1.6727 -2.3185
  180MOL0     H24252   3.273   9.676   6.151 -1.0521 -0.7147  0.1833
  180MOL0     H24253   3.131   9.766   6.113  0.4313 -1.6692 -0.7250
  180MOL0     H24254   3.421   9.863   6.129 -0.8369 -0.6155 -0.1740
  180MOL0     H24255   3.294   9.978   6.120  3.3797  1.0875  1.3094
  180MOL0     H24256   3.334   9.956   5.895 -1.5688  1.1545  0.9251
  180MOL0     H24257   3.213   9.827   5.893  2.4153 -0.7023 -2.9994
  180MOL0     H24258   3.398   9.673   5.976 -1.8315 -2.0262 -1.2796
  180MOL0     H24259   3.499   9.800   5.893 -0.7254 -0.2144 -0.4815
  180MOL0     H24260   3.304   9.612   5.549 -2.3015 -0.0944  2.5524
  180MOL0     H24261   3.308   9.341   5.361 -2.1925  0.3153  6.1043
  180MOL0     H24262   3.331   9.529   5.359 -0.1889  1.4956  3.4820
  180MOL0     H24263   3.461   9.419   5.315  0.9012 -1.1742  0.3594
  180MOL0     H24264   3.634   8.889   5.737  0.6949  0.5144  0.2631
  180MOL0     H24265   3.758   8.699   5.665 -0.3941 -1.1882 -1.9697
  180MOL0     H24266   4.093   8.790   5.397  1.4085 -0.2975 -3.6220
  180MOL0     H24267   4.110   8.614   5.395  2.1900  2.0567 -2.9133
  180MOL0     H24268   4.032   8.589   5.191 -1.7983  0.3510 -1.7730
  180MOL0     H24269   3.903   8.708   5.209 -1.0469 -0.4753  3.2332
  180MOL0     H24270   4.147   8.726   5.068 -0.6190  0.2354  0.4255
  180MOL0     H24271   4.168   8.844   5.207  0.0743  0.8484  1.2749
  180MOL0     H24272   4.001   8.841   4.968  1.6949 -0.1875 -0.0706
  180MOL0     H24273   3.917   8.921   5.107  0.4808  2.2194  1.6921
  180MOL0     H24274   4.047   9.060   4.949 -0.5060 -1.1710  0.8304
  180MOL0     H24275   4.190   8.996   5.019  0.5386  0.9093  1.5126
  180MOL0     H24276   3.982   9.145   5.189  1.0587  1.1652  1.7681
  180MOL0     H24277   4.121   9.083   5.255 -0.9654 -0.4669 -0.7498
  180MOL0     H24278   4.250   9.244   5.096  0.8176  2.6723 -1.1449
  180MOL0     H24279   4.146   9.314   5.224 -0.1485 -1.0771  0.5595
  180MOL0     H24280   3.981   9.368   5.086  0.0677 -0.3468  0.8556
  180MOL0     H24281   4.040   9.275   4.944 -0.0136 -0.9948 -0.4622
  180MOL0     H24282   3.913   8.931   5.328  1.8018 -1.6690  0.7346
  180MOL0     H24283   3.760   9.102   5.385 -3.5354 -0.0421  1.1765
  180MOL0     H24284   3.619   9.300   5.758 -0.0084  0.2144  1.4868
  180MOL0     H24285   3.547   9.514   5.877  1.6638 -0.0276  0.2208
  180MOL0     H24286   2.384   9.549   7.124 -0.0877 -2.5107 -0.2601
  180MOL0     H24287   2.174   9.460   7.131  1.6974 -0.4847  0.5409
  180MOL0     H24288   1.874   9.106   7.210  0.6065 -0.4683  0.3449
  180MOL0     H24289   1.641   9.059   7.126 -3.0319 -0.7740 -0.7987
  180MOL0     H24290   1.437   9.125   7.009  3.7407 -1.3116  1.1586
  180MOL0     H24291   1.402   9.052   7.167  1.3391  1.7509  0.1852
  180MOL0     H24292   1.188   9.168   7.195  2.2143  2.7035  0.0877
  180MOL0     H24293   1.182   9.057   7.057  2.6158 -1.3589 -0.9644
  180MOL0     H24294   1.230   9.251   6.902 -0.2489  2.0326 -0.5243
  180MOL0     H24295   1.231   9.365   7.031 -1.2205 -0.2857 -0.1563
  180MOL0     H24296   0.988   9.349   7.064 -1.0979  1.5863 -2.9663
  180MOL0     H24297   0.977   9.200   6.971 -0.3040 -1.2977 -0.7874
  180MOL0     H24298   1.012   9.496   6.676 -0.6074  2.7914  1.6076
  180MOL0     H24299   1.531   9.447   7.264 -0.3451  0.3593 -2.6449
  180MOL0     H24300   1.762   9.497   7.335  1.7832 -0.2923  0.3869
  181MOL0     O24301   0.828   1.251   6.338 -1.0317  0.0254 -0.2131
  181MOL0     C24302   0.879   1.139   6.351  0.0195 -0.8080 -0.8968
  181MOL0     O24303   0.812   1.024   6.346 -0.5877 -0.3318  0.8981
  181MOL0     C24304   0.677   1.016   6.370 -0.3584 -0.1140  0.7490
  181MOL0     C24305   0.600   1.103   6.453 -0.6110  0.4218  0.5360
  181MOL0     C24306   0.463   1.094   6.466  0.4679 -0.0952 -0.1115
  181MOL0     C24307   0.397   0.985   6.399  0.1700  0.0617 -0.1396
  181MOL0     O24308   0.272   0.948   6.435  0.0541 -0.2632  0.5471
  181MOL0     C24309   0.169   1.013   6.352 -0.7236 -0.1292 -0.7292
  181MOL0     C24310   0.041   0.999   6.410  0.9048  0.0278  0.6985
  181MOL0     C24311  -0.066   1.007   6.311  0.3498  1.1910  1.0267
  181MOL0     C24312  -0.208   1.017   6.372 -0.1043 -0.9871 -0.1640
  181MOL0     C24313  -0.309   0.985   6.271  0.7543 -0.5158  0.1205
  181MOL0     C24314  -0.442   0.981   6.341  0.3838  0.6394 -0.4277
  181MOL0     C24315  -0.553   0.951   6.246  0.6254  0.6016  0.0948
  181MOL0     C24316  -0.673   0.960   6.340  0.6796 -0.2391 -0.1894
  181MOL0     N24317  -0.800   0.958   6.257 -0.2767  0.5756 -0.2717
  181MOL0     C24318  -0.869   1.067   6.208  0.1939 -0.6556  0.1021
  181MOL0     C24319  -0.981   1.006   6.157  0.5362  0.2908  0.3496
  181MOL0     C24320  -1.101   1.088   6.126  0.0704  0.1099  0.1798
  181MOL0     C24321  -1.168   1.150   6.251  0.5084  0.6829 -0.6899
  181MOL0     C24322  -1.280   1.249   6.224  0.6737 -0.0882 -1.1624
  181MOL0     C24323  -1.345   1.284   6.352 -0.2614 -0.0971 -0.2696
  181MOL0     O24324  -1.414   1.183   6.422  0.0340  0.3641 -0.2531
  181MOL0     C24325  -1.541   1.153   6.391  0.1792  0.5897 -0.0242
  181MOL0     C24326  -1.614   1.189   6.282  0.6044 -0.1391  0.2050
  181MOL0     C24327  -1.751   1.166   6.269 -0.0626  0.6367  0.6655
  181MOL0     C24328  -1.814   1.190   6.134  0.4833 -0.5883 -0.4673
  181MOL0     C24329  -1.825   1.101   6.372  0.2924  0.1683  0.8739
  181MOL0     C24330  -1.975   1.075   6.378  1.1582  0.3355  0.5086
  181MOL0     O24331  -2.027   1.046   6.505  0.3848 -0.5705  0.2150
  181MOL0     C24332  -2.159   1.068   6.532 -0.6570 -0.3984 -0.2889
  181MOL0     C24333  -2.184   1.053   6.671 -0.1523 -0.0543  0.6360
  181MOL0     C24334  -2.311   1.067   6.720  0.0731  0.5419 -0.8045
  181MOL0     C24335  -2.420   1.099   6.636  0.1890 -0.1151 -0.1197
  181MOL0     O24336  -2.548   1.122   6.684  0.0156  0.8597  0.6218
  181MOL0     C24337  -2.557   1.176   6.807 -0.0070 -0.6811 -0.0533
  181MOL0     C24338  -2.688   1.245   6.828  0.3965 -1.0302 -0.1884
  181MOL0     C24339  -2.813   1.163   6.807  0.5319 -0.0932 -0.3152
  181MOL0     C24340  -2.941   1.243   6.838 -0.0699 -0.1485  0.2256
  181MOL0     C24341  -2.987   1.256   6.984 -0.3010  0.8663 -0.5288
  181MOL0     C24342  -3.115   1.336   7.007 -0.2642  1.0007  0.0329
  181MOL0     C24343  -3.107   1.414   7.137 -0.2783  0.3652  0.0453
  181MOL0     C24344  -3.214   1.524   7.147 -0.0230  0.2480 -0.8006
  181MOL0    Cl24345  -3.373   1.450   7.112 -0.1463 -0.2431 -0.3186
  181MOL0     C24346  -2.391   1.123   6.507  0.6606 -0.7506 -0.0199
  181MOL0     C24347  -2.269   1.111   6.451  0.0017  0.3336  1.2644
  181MOL0     O24348  -2.040   1.081   6.272 -0.3564  0.2430  0.4944
  181MOL0     C24349  -1.754   1.065   6.483 -0.0645  0.2761  0.4548
  181MOL0     C24350  -1.611   1.088   6.491 -0.3605 -0.7838  0.1774
  181MOL0     N24351  -0.972   0.870   6.150 -0.4947  0.0133 -0.0324
  181MOL0     N24352  -0.856   0.844   6.208 -0.2506 -0.4489 -0.5706
  181MOL0     C24353   0.472   0.893   6.328 -0.5967  0.5076 -0.4858
  181MOL0     C24354   0.615   0.907   6.306  0.1396 -0.0670  0.3036
  181MOL0     C24355   1.016   1.130   6.317  0.5166  0.0100  0.4126
  181MOL0     C24356   1.077   1.002   6.300  0.1914 -0.2903  1.1565
  181MOL0     C24357   1.205   0.990   6.264  0.3204 -0.3663  0.6215
  181MOL0     C24358   1.291   1.096   6.268 -0.4202  0.0604  0.9804
  181MOL0     O24359   1.419   1.062   6.241 -0.5337  0.1150 -0.0861
  181MOL0     C24360   1.517   1.160   6.243 -1.2340 -0.2985 -0.0604
  181MOL0     C24361   1.533   1.218   6.099  0.2362 -0.6179  0.8410
  181MOL0     C24362   1.561   1.104   5.996  0.1572  0.4616  0.7323
  181MOL0     C24363   1.519   1.140   5.848 -0.4259  0.5471  0.0646
  181MOL0     C24364   1.554   1.031   5.758 -1.2765  0.0984  0.4385
  181MOL0     C24365   1.588   0.951   5.674  0.4715  0.6782  0.1621
  181MOL0     C24366   1.246   1.225   6.303  0.0046 -0.2939 -0.3931
  181MOL0     C24367   1.104   1.243   6.322  0.5213 -0.7686  0.3206
  181MOL0     H24368   0.648   1.190   6.496  3.9471 -1.0135 -1.0618
  181MOL0     H24369   0.408   1.160   6.533 -3.5638 -1.2065 -2.0582
  181MOL0     H24370   0.206   1.114   6.329 -0.8699 -0.3551 -2.0428
  181MOL0     H24371   0.172   0.954   6.260  1.6895 -1.6128  0.1912
  181MOL0     H24372   0.025   0.903   6.460  0.6211 -0.9158 -1.1175
  181MOL0     H24373   0.028   1.080   6.482 -1.0542  0.6140 -0.2241
  181MOL0     H24374  -0.055   1.079   6.229  2.2421 -2.8136 -2.6628
  181MOL0     H24375  -0.055   0.912   6.259 -0.0005  1.6871  0.0287
  181MOL0     H24376  -0.214   0.941   6.451  0.1416  0.3815  1.2142
  181MOL0     H24377  -0.214   1.112   6.425  1.2999  0.0622 -1.7795
  181MOL0     H24378  -0.304   1.047   6.181 -1.8250 -1.2081 -0.5613
  181MOL0     H24379  -0.287   0.886   6.232 -1.1156  0.6525 -4.5075
  181MOL0     H24380  -0.428   0.907   6.421  0.5364  2.6808  1.5326
  181MOL0     H24381  -0.454   1.076   6.392  0.9170  0.4052  0.1550
  181MOL0     H24382  -0.564   1.030   6.171 -0.3005 -2.5306 -3.4018
  181MOL0     H24383  -0.545   0.851   6.202  0.4404  0.4451  0.4180
  181MOL0     H24384  -0.683   1.055   6.393 -0.2341 -0.1362 -0.5129
  181MOL0     H24385  -0.677   0.877   6.412 -3.3212  0.8888  1.1557
  181MOL0     H24386  -0.835   1.168   6.229  1.3758 -0.6583 -1.5775
  181MOL0     H24387  -1.084   1.168   6.053 -0.0748  0.6008  0.6813
  181MOL0     H24388  -1.178   1.018   6.092 -1.0310  0.8856  0.9863
  181MOL0     H24389  -1.092   1.207   6.305  2.7674 -2.6349 -0.0806
  181MOL0     H24390  -1.202   1.065   6.310 -2.1887  0.4643 -2.3427
  181MOL0     H24391  -1.360   1.203   6.165  1.5055 -0.7574 -1.7946
  181MOL0     H24392  -1.241   1.341   6.181  0.5959  1.1727  1.2989
  181MOL0     H24393  -1.411   1.369   6.335  1.4304  1.3262 -0.0323
  181MOL0     H24394  -1.260   1.311   6.416  0.2373  1.8219 -1.6689
  181MOL0     H24395  -1.568   1.239   6.197 -1.1552  0.5437 -0.3810
  181MOL0     H24396  -1.866   1.105   6.090 -0.6022 -0.0336 -0.2860
  181MOL0     H24397  -1.876   1.278   6.155  1.3523  0.3644 -1.6898
  181MOL0     H24398  -1.748   1.219   6.052 -1.8006 -0.3598 -2.3315
  181MOL0     H24399  -2.095   1.026   6.725  4.6755 -0.6159 -6.2370
  181MOL0     H24400  -2.323   1.045   6.826 -0.2762 -1.4612 -1.2335
  181MOL0     H24401  -2.545   1.099   6.884 -3.5544  2.2358  3.8921
  181MOL0     H24402  -2.487   1.258   6.826 -1.7133  0.7768  0.2149
  181MOL0     H24403  -2.689   1.273   6.934 -2.3824  0.1915 -0.4427
  181MOL0     H24404  -2.693   1.333   6.763 -2.3124 -0.8166  0.1930
  181MOL0     H24405  -2.813   1.070   6.865  3.9319  0.0100  0.0268
  181MOL0     H24406  -2.825   1.129   6.704 -0.0903  0.6653 -0.4992
  181MOL0     H24407  -2.938   1.346   6.802 -0.0416 -0.0290  0.5583
  181MOL0     H24408  -3.023   1.196   6.783  2.2073 -2.6369 -1.2890
  181MOL0     H24409  -2.904   1.293   7.045  0.1974 -0.3439 -0.4450
  181MOL0     H24410  -2.995   1.157   7.029  2.4497  0.6588 -0.3088
  181MOL0     H24411  -3.129   1.404   6.923  0.8437  0.0375 -0.9595
  181MOL0     H24412  -3.198   1.264   7.001  0.5741  0.0036 -0.0176
  181MOL0     H24413  -3.007   1.459   7.142 -0.3777  0.7949 -1.2951
  181MOL0     H24414  -3.115   1.345   7.221  1.4409 -1.5253 -1.2413
  181MOL0     H24415  -3.200   1.602   7.071 -2.1417 -0.2789 -1.8192
  181MOL0     H24416  -3.226   1.575   7.243 -2.2600  1.9037 -1.8723
  181MOL0     H24417  -2.479   1.160   6.455  0.1432 -1.5094  0.2989
  181MOL0     H24418  -2.250   1.131   6.347 -0.6999 -0.9991  0.8530
  181MOL0     H24419  -1.793   1.019   6.573  1.3041 -0.5868  0.6344
  181MOL0     H24420  -1.566   1.055   6.584 -0.6966 -0.6421  0.3932
  181MOL0     H24421   0.412   0.816   6.281  1.3309 -0.6372 -1.1667
  181MOL0     H24422   0.668   0.829   6.253 -0.6499 -1.2040  1.1481
  181MOL0     H24423   1.009   0.918   6.294 -1.8678  1.3722 -0.7314
  181MOL0     H24424   1.251   0.898   6.230 -1.4503 -0.1604 -2.6467
  181MOL0     H24425   1.521   1.242   6.314 -1.2640  0.5992 -1.0761
  181MOL0     H24426   1.609   1.104   6.261 -1.2465 -0.0200  0.8766
  181MOL0     H24427   1.613   1.291   6.088  0.6323 -1.2927 -1.2873
  181MOL0     H24428   1.447   1.282   6.075  1.7261  2.0176  2.0534
  181MOL0     H24429   1.517   1.008   6.024  1.8494  0.2341  2.8918
  181MOL0     H24430   1.668   1.081   5.995  0.4586  1.6732  1.8471
  181MOL0     H24431   1.557   1.236   5.815  0.7408  0.2252  0.4378
  181MOL0     H24432   1.410   1.152   5.848 -0.7186 -1.5618 -0.4422
  181MOL0     H24433   1.617   0.891   5.591 -2.3970 -1.6691  0.7052
  181MOL0     H24434   1.309   1.312   6.320  0.3327 -0.3527 -1.2746
  181MOL0     H24435   1.068   1.341   6.353  3.4995  1.0063 -1.3223
  182MOL0     O24436   8.953   7.415   0.306  0.4260 -0.1873  0.2858
  182MOL0     C24437   8.860   7.471   0.240 -0.7393  0.1698 -0.1500
  182MOL0     O24438   8.866   7.496   0.102  0.1206  0.3977  0.2096
  182MOL0     C24439   8.982   7.486   0.036 -0.6536 -1.5125 -0.1204
  182MOL0     C24440   9.109   7.526   0.084  0.6037  0.0611 -0.9188
  182MOL0     C24441   9.224   7.518   0.015  0.0843  0.3963  0.8440
  182MOL0     C24442   9.225   7.490  -0.125  0.1141  0.1638 -0.3335
  182MOL0     O24443   9.324   7.495  -0.210  0.3894 -0.1247 -0.0332
  182MOL0     C24444   9.459   7.514  -0.170 -0.2491 -0.5512  0.6828
  182MOL0     C24445   9.545   7.418  -0.250  0.3730  0.0354 -0.7557
  182MOL0     C24446   9.698   7.441  -0.216  0.3439 -0.3053  0.8456
  182MOL0     C24447   9.781   7.427  -0.345 -0.1321 -0.1835  0.4232
  182MOL0     C24448   9.929   7.450  -0.322  0.1155 -0.2725  0.3277
  182MOL0     C24449  10.010   7.439  -0.446  0.7905 -0.0478 -0.5245
  182MOL0     C24450  10.147   7.506  -0.434 -0.2426  0.3147  0.6767
  182MOL0     C24451  10.249   7.431  -0.343 -0.1501  0.2129  0.7575
  182MOL0     N24452  10.216   7.441  -0.194 -0.5611  0.0136  0.8513
  182MOL0     C24453  10.211   7.549  -0.118  0.0738  0.6437 -0.5295
  182MOL0     C24454  10.160   7.503   0.004 -0.1236  0.5546  0.1513
  182MOL0     C24455  10.160   7.597   0.125 -0.1640 -0.3254 -1.0143
  182MOL0     C24456  10.018   7.628   0.176 -0.2960 -0.0246  0.1718
  182MOL0     C24457   9.918   7.658   0.070 -0.5470  0.3939 -0.2064
  182MOL0     C24458   9.786   7.691   0.142  0.2452  0.1416  0.5295
  182MOL0     O24459   9.687   7.727   0.041  0.5388  0.1821 -0.3699
  182MOL0     C24460   9.561   7.771   0.085 -0.7297  0.4986  0.6575
  182MOL0     C24461   9.473   7.810  -0.004 -1.0740  0.1595 -0.3966
  182MOL0     C24462   9.343   7.863   0.019 -0.6585  0.4903  1.0546
  182MOL0     C24463   9.263   7.889  -0.112  0.0082 -0.0268 -0.4043
  182MOL0     C24464   9.294   7.846   0.154  0.0861 -0.6068 -0.4357
  182MOL0     C24465   9.158   7.866   0.200  0.8242 -0.0616 -0.1990
  182MOL0     O24466   9.079   7.954   0.136  0.0130  0.0295 -0.1414
  182MOL0     C24467   8.941   7.942   0.144 -0.4425 -0.6085 -0.2889
  182MOL0     C24468   8.870   7.849   0.061  0.4646 -1.0986 -0.4510
  182MOL0     C24469   8.729   7.838   0.080 -1.1817 -0.5793 -0.1651
  182MOL0     C24470   8.656   7.920   0.162  0.0353 -0.2371  0.0646
  182MOL0     O24471   8.523   7.920   0.153  0.4712 -0.0663 -0.2496
  182MOL0     C24472   8.443   7.946   0.273  0.2458 -1.1269 -0.4664
  182MOL0     C24473   8.295   7.940   0.230  0.5430  0.4311  0.2744
  182MOL0     C24474   8.257   8.032   0.118  1.1553 -0.1978  0.6030
  182MOL0     C24475   8.108   8.012   0.088  0.7053 -0.4902  0.0798
  182MOL0     C24476   8.046   8.098  -0.015 -0.2605  0.3342  0.2326
  182MOL0     C24477   8.031   8.249   0.030  0.0262  0.3810 -0.1021
  182MOL0     C24478   7.979   8.345  -0.079 -0.0556  1.2016 -0.3627
  182MOL0     C24479   7.830   8.320  -0.111 -0.4101 -0.5115 -0.1692
  182MOL0    Cl24480   7.769   8.176  -0.207 -0.2633 -0.0117 -0.2698
  182MOL0     C24481   8.723   8.013   0.244  0.1572 -0.0168  0.8349
  182MOL0     C24482   8.863   8.016   0.237 -0.6949  0.0296 -0.4848
  182MOL0     O24483   9.117   7.813   0.303 -0.4997  0.1365 -0.3382
  182MOL0     C24484   9.393   7.809   0.251  0.4021 -0.1450  0.4051
  182MOL0     C24485   9.530   7.790   0.222  0.1786  0.8506  0.2040
  182MOL0     N24486  10.148   7.366   0.000 -0.3269 -0.5918  0.2795
  182MOL0     N24487  10.179   7.334  -0.126  0.8001  0.4928 -0.4245
  182MOL0     C24488   9.102   7.460  -0.181 -0.5300 -0.1286  0.3059
  182MOL0     C24489   8.983   7.453  -0.099  0.1113 -0.0081  0.5310
  182MOL0     C24490   8.740   7.509   0.314  0.2053  1.0097  0.7461
  182MOL0     C24491   8.625   7.537   0.244  0.0712  0.5251 -0.0854
  182MOL0     C24492   8.506   7.560   0.316  0.4460 -0.4985  0.2646
  182MOL0     C24493   8.502   7.551   0.457 -0.5211 -0.0800  0.0591
  182MOL0     O24494   8.387   7.584   0.520  0.0156 -0.4211  0.2863
  182MOL0     C24495   8.385   7.626   0.654  0.3351 -0.5840 -0.5369
  182MOL0     C24496   8.249   7.697   0.685 -0.3977  0.2148 -0.8254
  182MOL0     C24497   8.128   7.598   0.668 -0.2489  0.1772 -0.6944
  182MOL0     C24498   7.996   7.681   0.650  0.7237 -0.3706  0.4305
  182MOL0     C24499   7.969   7.713   0.502 -0.1702 -0.4711 -0.2558
  182MOL0     C24500   7.938   7.740   0.387 -0.3481 -0.2000  0.1626
  182MOL0     C24501   8.621   7.510   0.521  1.0772 -1.1008 -1.2586
  182MOL0     C24502   8.735   7.493   0.452 -0.0566 -0.8570  0.0931
  182MOL0     H24503   9.126   7.554   0.188  1.5314 -0.1147 -1.0106
  182MOL0     H24504   9.313   7.546   0.071  1.7395 -2.6537 -0.0264
  182MOL0     H24505   9.490   7.614  -0.203  1.5991 -1.2155  0.3414
  182MOL0     H24506   9.467   7.498  -0.062 -1.2722  1.4503  1.1134
  182MOL0     H24507   9.516   7.319  -0.212 -2.7450  0.1161 -2.5731
  182MOL0     H24508   9.534   7.431  -0.358  1.8089  0.3435 -0.8848
  182MOL0     H24509   9.713   7.540  -0.173  3.5402 -0.2539 -0.1211
  182MOL0     H24510   9.742   7.365  -0.151 -1.6623 -0.9065  1.5531
  182MOL0     H24511   9.759   7.342  -0.412 -0.0535 -1.9210  2.4794
  182MOL0     H24512   9.758   7.511  -0.411  2.1971  2.0794  2.2928
  182MOL0     H24513   9.945   7.543  -0.266 -0.9459 -0.1884  0.5016
  182MOL0     H24514   9.966   7.364  -0.267  1.4027 -2.0480 -2.9989
  182MOL0     H24515  10.025   7.336  -0.477  2.5086 -0.2012  0.6319
  182MOL0     H24516   9.948   7.493  -0.518 -2.1794 -1.9547  0.4231
  182MOL0     H24517  10.195   7.513  -0.532  0.1857  1.4198  0.9577
  182MOL0     H24518  10.129   7.607  -0.398  0.9728  1.2100 -1.0906
  182MOL0     H24519  10.340   7.490  -0.357 -1.2463  1.5167 -1.2168
  182MOL0     H24520  10.261   7.335  -0.394  1.1726  0.5517  0.3791
  182MOL0     H24521  10.243   7.647  -0.151  0.3878  0.9951  0.7711
  182MOL0     H24522  10.218   7.547   0.204 -0.6122  0.5820 -0.0906
  182MOL0     H24523  10.214   7.690   0.103 -1.8073  1.4746  1.9355
  182MOL0     H24524  10.028   7.725   0.226  2.6035 -0.5587  0.8085
  182MOL0     H24525   9.973   7.559   0.248 -0.6742  1.8859  1.8897
  182MOL0     H24526   9.904   7.569   0.008 -0.2566  0.8022 -0.8709
  182MOL0     H24527   9.946   7.745   0.010  2.5022  0.6355  1.3986
  182MOL0     H24528   9.799   7.767   0.220  1.1294  0.4680  0.0801
  182MOL0     H24529   9.759   7.598   0.193 -1.4011  0.3279  0.0286
  182MOL0     H24530   9.517   7.815  -0.103  3.9817 -2.4113  1.4008
  182MOL0     H24531   9.160   7.851  -0.101  0.2809 -0.2382  1.9646
  182MOL0     H24532   9.258   7.992  -0.148 -2.1074 -1.3261 -4.4886
  182MOL0     H24533   9.313   7.835  -0.193 -1.0287 -0.1331 -0.9909
  182MOL0     H24534   8.908   7.777  -0.011  1.6614 -0.1397 -0.8033
  182MOL0     H24535   8.676   7.751   0.043  0.6137 -0.1247 -4.4920
  182MOL0     H24536   8.471   7.877   0.353  0.4200 -0.5338 -0.0074
  182MOL0     H24537   8.465   8.046   0.311 -0.6069 -0.5443 -1.4572
  182MOL0     H24538   8.276   7.839   0.193  3.8252 -1.1482  2.4841
  182MOL0     H24539   8.232   7.965   0.316  1.6845 -0.7313  1.4982
  182MOL0     H24540   8.307   8.017   0.022  2.8276  1.2105  1.2065
  182MOL0     H24541   8.261   8.137   0.148 -0.2339 -0.1066  0.5302
  182MOL0     H24542   8.085   7.910   0.056  2.8741 -0.4829 -1.7614
  182MOL0     H24543   8.062   8.031   0.185  0.5254 -1.4753  0.1911
  182MOL0     H24544   7.948   8.050  -0.030  0.5153 -2.2145  2.4515
  182MOL0     H24545   8.095   8.086  -0.112  2.0317 -4.9750  1.6831
  182MOL0     H24546   7.981   8.258   0.127  2.2172 -1.1083  1.2867
  182MOL0     H24547   8.135   8.275   0.054 -0.0898 -0.1149  0.9841
  182MOL0     H24548   8.034   8.340  -0.173  0.8441  1.9968  0.1019
  182MOL0     H24549   8.000   8.447  -0.044  0.6903  0.7915  0.4156
  182MOL0     H24550   7.790   8.412  -0.154 -2.5764 -2.0310 -1.6033
  182MOL0     H24551   7.782   8.320  -0.012  1.0618 -1.7618  0.6048
  182MOL0     H24552   8.669   8.073   0.317 -3.1501 -1.1680 -0.4839
  182MOL0     H24553   8.909   8.090   0.303 -2.1462  1.5132 -1.0704
  182MOL0     H24554   9.365   7.813   0.356 -1.7791  3.2968 -0.1532
  182MOL0     H24555   9.596   7.760   0.303  0.1727  0.0073 -0.0875
  182MOL0     H24556   9.105   7.439  -0.287  1.5067  1.3128  0.0178
  182MOL0     H24557   8.887   7.430  -0.144  0.5056 -1.0807  0.2154
  182MOL0     H24558   8.618   7.543   0.136 -1.1489  0.0009 -0.0493
  182MOL0     H24559   8.414   7.578   0.261  0.7345  2.3818  0.5354
  182MOL0     H24560   8.380   7.541   0.722  0.3296  0.6687  1.1054
  182MOL0     H24561   8.465   7.697   0.675 -1.3231  1.0880  0.4921
  182MOL0     H24562   8.230   7.774   0.609  2.1194 -0.9382 -2.7579
  182MOL0     H24563   8.244   7.754   0.778 -4.0113  1.0614 -1.3816
  182MOL0     H24564   8.133   7.529   0.752 -2.6405  0.0802 -0.5703
  182MOL0     H24565   8.145   7.536   0.580 -0.6205 -0.4021 -0.3647
  182MOL0     H24566   7.994   7.763   0.721 -0.6984 -0.5449  0.6207
  182MOL0     H24567   7.917   7.612   0.681 -0.5093  0.3022 -1.0762
  182MOL0     H24568   7.901   7.796   0.304  0.0918  0.8763  0.6678
  182MOL0     H24569   8.602   7.496   0.627 -3.5401 -0.6178 -1.7780
  182MOL0     H24570   8.822   7.467   0.511  0.2494  0.4698  0.2599
  183MOL0     O24571   8.808   0.693   3.698  0.3704  0.2129  0.4216
  183MOL0     C24572   8.856   0.722   3.807 -0.6636 -0.3840 -0.7988
  183MOL0     O24573   8.832   0.829   3.871  0.2071 -0.4425  0.0093
  183MOL0     C24574   8.765   0.931   3.812 -0.0871  0.1360 -1.1139
  183MOL0     C24575   8.780   0.982   3.688 -0.3878 -0.4420 -0.1172
  183MOL0     C24576   8.729   1.101   3.641  0.4280 -0.2490  0.3400
  183MOL0     C24577   8.637   1.173   3.727 -0.8682  1.0058 -0.3859
  183MOL0     O24578   8.572   1.289   3.689  0.2225  0.1765 -0.1966
  183MOL0     C24579   8.663   1.389   3.656  0.0074  0.0086 -0.7056
  183MOL0     C24580   8.587   1.509   3.630  0.5099 -1.0187  0.1964
  183MOL0     C24581   8.659   1.612   3.536 -0.1083  0.3388 -0.7039
  183MOL0     C24582   8.559   1.724   3.496 -0.4246  0.2223  0.3964
  183MOL0     C24583   8.464   1.672   3.379  0.3160 -1.3418 -0.2608
  183MOL0     C24584   8.324   1.735   3.387  0.5136  0.4878  0.5030
  183MOL0     C24585   8.219   1.675   3.288  0.3280  0.1889  0.7463
  183MOL0     C24586   8.174   1.539   3.328 -0.8717  0.2007 -0.1623
  183MOL0     N24587   8.084   1.479   3.223 -0.4310  0.1265 -0.3577
  183MOL0     C24588   7.951   1.509   3.213  0.0779  0.8699 -0.2499
  183MOL0     C24589   7.913   1.448   3.099  0.7260 -0.1583  0.3251
  183MOL0     C24590   7.763   1.423   3.053 -0.2134  0.8374  0.7084
  183MOL0     C24591   7.675   1.546   3.013 -0.2140  0.6358  0.1432
  183MOL0     C24592   7.667   1.652   3.128  0.3050 -0.2897 -0.0182
  183MOL0     C24593   7.578   1.627   3.253  0.5604  0.1321 -0.3813
  183MOL0     O24594   7.449   1.572   3.207 -0.2890  0.9179  0.4368
  183MOL0     C24595   7.347   1.663   3.220  0.3193 -0.1654  0.1872
  183MOL0     C24596   7.345   1.797   3.179  0.6963  1.1081 -0.1075
  183MOL0     C24597   7.229   1.870   3.182 -0.0281  0.2340  0.0287
  183MOL0     C24598   7.216   2.015   3.147 -0.6166 -0.1789  0.1097
  183MOL0     C24599   7.118   1.809   3.248 -0.1407  0.4422  0.4192
  183MOL0     C24600   6.982   1.865   3.235  0.2247 -0.1622  0.2453
  183MOL0     O24601   6.896   1.823   3.335 -0.7553  0.5838 -0.2351
  183MOL0     C24602   6.765   1.859   3.343  0.0425 -0.3040  0.5145
  183MOL0     C24603   6.663   1.787   3.279 -0.9965  0.0942 -0.1882
  183MOL0     C24604   6.526   1.820   3.281 -0.1759 -0.9134  0.9461
  183MOL0     C24605   6.483   1.933   3.346 -0.0836 -0.4849 -0.0399
  183MOL0     O24606   6.351   1.957   3.343  0.1433 -0.0674  0.1716
  183MOL0     C24607   6.302   2.071   3.415 -0.1624  0.0954 -0.7260
  183MOL0     C24608   6.158   2.096   3.380 -0.1976  0.3466 -0.0887
  183MOL0     C24609   6.052   2.013   3.438  0.0770  0.3028  0.2466
  183MOL0     C24610   5.926   2.001   3.335 -0.2420 -1.3214 -0.5098
  183MOL0     C24611   5.818   1.896   3.373  0.3779  0.6123  0.1750
  183MOL0     C24612   5.706   1.941   3.466 -0.3931  0.8384  0.1589
  183MOL0     C24613   5.583   1.858   3.444 -0.6875 -0.1128  1.0201
  183MOL0     C24614   5.473   1.879   3.542 -0.1555  0.3712 -0.4933
  183MOL0    Cl24615   5.345   1.752   3.518  0.1950 -0.1663 -0.1013
  183MOL0     C24616   6.581   2.007   3.424 -0.7055  0.0012  0.5008
  183MOL0     C24617   6.722   1.976   3.408  0.0762  0.4373 -0.0428
  183MOL0     O24618   6.954   1.950   3.151  0.2139 -0.6072  0.5461
  183MOL0     C24619   7.122   1.682   3.310 -0.5884 -0.1316  0.4144
  183MOL0     C24620   7.238   1.607   3.282 -0.1391  0.2135  0.5287
  183MOL0     N24621   8.021   1.387   3.040  0.4113  0.1307  0.1637
  183MOL0     N24622   8.124   1.406   3.120 -0.1864  0.1666  0.3083
  183MOL0     C24623   8.613   1.115   3.855  0.6631  0.2997  0.0724
  183MOL0     C24624   8.674   0.999   3.898 -0.5061 -0.5499 -0.5618
  183MOL0     C24625   8.945   0.618   3.863 -0.3083  0.3508 -0.5451
  183MOL0     C24626   8.954   0.491   3.810  1.1865  0.8366  0.7111
  183MOL0     C24627   9.046   0.393   3.852 -0.2429  0.1633 -0.6535
  183MOL0     C24628   9.139   0.412   3.956  0.2781 -0.4048  0.3611
  183MOL0     O24629   9.231   0.311   3.970  0.3820 -0.0433 -0.5641
  183MOL0     C24630   9.331   0.315   4.068 -0.5727  0.2047 -0.4725
  183MOL0     C24631   9.284   0.315   4.210 -0.4087 -0.2235 -0.3125
  183MOL0     C24632   9.391   0.378   4.303 -0.8933  0.3176  0.2168
  183MOL0     C24633   9.382   0.317   4.446  0.1784 -0.8621 -0.2188
  183MOL0     C24634   9.383   0.173   4.437 -0.0326  0.2085 -0.2249
  183MOL0     C24635   9.387   0.056   4.446  0.9871  0.4451 -0.6410
  183MOL0     C24636   9.138   0.539   4.011  0.2311 -0.2644  0.6750
  183MOL0     C24637   9.033   0.638   3.976 -0.4358  0.4057  0.3348
  183MOL0     H24638   8.846   0.929   3.620 -1.2247 -0.5174 -0.8884
  183MOL0     H24639   8.756   1.148   3.547 -1.3191 -2.1094 -1.1597
  183MOL0     H24640   8.741   1.406   3.731  0.5486 -0.9737 -1.0276
  183MOL0     H24641   8.710   1.363   3.560  0.0862 -0.6228 -0.4953
  183MOL0     H24642   8.490   1.488   3.583 -0.4883 -0.3156  1.8526
  183MOL0     H24643   8.580   1.567   3.722 -1.3078 -0.1575 -0.4470
  183MOL0     H24644   8.747   1.648   3.591  0.0892 -0.4988 -0.4621
  183MOL0     H24645   8.701   1.555   3.452  0.2951  1.0224 -0.9741
  183MOL0     H24646   8.512   1.765   3.586 -1.2623  0.7980 -0.2908
  183MOL0     H24647   8.615   1.808   3.452  0.5678 -0.9511 -0.6724
  183MOL0     H24648   8.509   1.683   3.280 -0.3188 -0.3842 -0.4663
  183MOL0     H24649   8.451   1.564   3.386 -2.2269 -1.1481 -1.1546
  183MOL0     H24650   8.287   1.727   3.490  1.3398  0.9012  0.8428
  183MOL0     H24651   8.330   1.840   3.358  1.2919  0.7099  1.4134
  183MOL0     H24652   8.134   1.742   3.270 -0.3342 -0.6431  0.7353
  183MOL0     H24653   8.266   1.666   3.190 -0.3954  4.0610 -0.1237
  183MOL0     H24654   8.125   1.530   3.425 -1.7526 -0.0513 -0.6134
  183MOL0     H24655   8.267   1.482   3.323 -1.2672 -0.4217 -0.6135
  183MOL0     H24656   7.886   1.546   3.292 -2.1935  0.4215 -1.7968
  183MOL0     H24657   7.770   1.352   2.971 -0.7904  2.7724 -1.0920
  183MOL0     H24658   7.712   1.386   3.143 -1.1697  3.4363  1.3304
  183MOL0     H24659   7.573   1.508   3.005  0.4996 -1.1783 -0.8867
  183MOL0     H24660   7.708   1.601   2.925  1.1346  3.3076  2.1633
  183MOL0     H24661   7.629   1.744   3.081 -0.9968 -0.2328  1.0761
  183MOL0     H24662   7.766   1.674   3.167 -0.2429  0.2386  1.1196
  183MOL0     H24663   7.568   1.718   3.312 -0.7909 -0.5096  0.4401
  183MOL0     H24664   7.627   1.555   3.319 -0.9267  0.2389  0.9122
  183MOL0     H24665   7.430   1.856   3.146  2.0452  0.4260  1.9586
  183MOL0     H24666   7.317   2.056   3.137 -0.6948 -0.3142 -1.4140
  183MOL0     H24667   7.158   2.038   3.057  0.7050  0.7368 -0.5405
  183MOL0     H24668   7.169   2.073   3.227 -2.0874 -2.0788  0.6867
  183MOL0     H24669   6.684   1.690   3.236 -0.7576 -0.9807  2.1747
  183MOL0     H24670   6.450   1.752   3.246 -0.9871  0.2832  0.3265
  183MOL0     H24671   6.306   2.049   3.522 -0.5642  2.2111 -0.2359
  183MOL0     H24672   6.361   2.158   3.383  0.2235 -0.8642 -2.7732
  183MOL0     H24673   6.133   2.200   3.405 -1.1528 -0.3587  2.1521
  183MOL0     H24674   6.151   2.090   3.271  1.0807  1.2007 -0.2436
  183MOL0     H24675   6.019   2.060   3.531  2.2200  1.8652  0.2984
  183MOL0     H24676   6.076   1.914   3.480  0.3095 -0.0404 -0.6757
  183MOL0     H24677   5.879   2.098   3.313  1.6198 -0.2795 -0.1146
  183MOL0     H24678   5.963   1.982   3.234 -0.1053  0.9701 -0.9515
  183MOL0     H24679   5.864   1.802   3.404 -0.2811  0.3299  0.2991
  183MOL0     H24680   5.763   1.895   3.278 -2.0856  2.5715  1.4648
  183MOL0     H24681   5.744   1.952   3.568  0.1370  1.1921 -0.0718
  183MOL0     H24682   5.663   2.039   3.443 -3.8903 -0.2328  1.4823
  183MOL0     H24683   5.605   1.751   3.449  1.0180  0.2299  1.4823
  183MOL0     H24684   5.542   1.900   3.352  1.8384  2.4722  0.9175
  183MOL0     H24685   5.437   1.982   3.533  0.7622  0.7644  0.1305
  183MOL0     H24686   5.521   1.868   3.640  1.2779  0.9392 -1.0958
  183MOL0     H24687   6.558   2.096   3.483 -0.5306 -0.2327  0.9242
  183MOL0     H24688   6.794   2.041   3.457 -1.5492  2.0988  0.2633
  183MOL0     H24689   7.049   1.633   3.372 -0.5315 -0.2590  0.3811
  183MOL0     H24690   7.268   1.510   3.320  1.7632  0.1211 -1.0256
  183MOL0     H24691   8.543   1.164   3.922 -0.8955 -0.1984 -1.1382
  183MOL0     H24692   8.664   0.982   4.005 -1.4438  2.0569 -0.1680
  183MOL0     H24693   8.889   0.468   3.726 -0.4280  0.0465  2.1031
  183MOL0     H24694   9.044   0.302   3.794 -0.2193  0.7235 -1.5430
  183MOL0     H24695   9.389   0.226   4.040  2.2015  1.8339 -0.2747
  183MOL0     H24696   9.389   0.406   4.050 -1.9082  1.7153  2.2930
  183MOL0     H24697   9.250   0.215   4.238 -2.3421  0.8443  1.3892
  183MOL0     H24698   9.196   0.377   4.224 -0.8066 -0.9050  0.2620
  183MOL0     H24699   9.377   0.485   4.289  0.0732  0.5810  1.1951
  183MOL0     H24700   9.490   0.355   4.261 -0.2464  1.8861  0.8221
  183MOL0     H24701   9.291   0.358   4.491 -0.7603  2.8985 -4.7255
  183MOL0     H24702   9.459   0.357   4.513 -1.6946  2.6758  0.0635
  183MOL0     H24703   9.379  -0.051   4.449 -1.4888  0.5886 -0.1349
  183MOL0     H24704   9.205   0.564   4.092  0.1754 -2.9052  1.6281
  183MOL0     H24705   9.030   0.738   4.017  0.9389  0.7143 -0.2548
  184MOL0     O24706   5.137  10.019   8.213 -0.8828  0.7611 -0.0009
  184MOL0     C24707   5.200  10.006   8.110  0.1511  0.2135  0.2874
  184MOL0     O24708   5.146   9.991   7.979 -0.0683  0.0290 -0.0802
  184MOL0     C24709   5.010   9.990   7.972 -0.2094 -0.2927 -0.2814
  184MOL0     C24710   4.942   9.884   8.025 -0.5307  0.0057 -1.2981
  184MOL0     C24711   4.802   9.888   8.026 -1.0778  0.6805 -1.0814
  184MOL0     C24712   4.736  10.004   7.979 -0.0499  0.3675  0.0353
  184MOL0     O24713   4.602  10.009   7.977 -0.4241 -0.1209 -0.1939
  184MOL0     C24714   4.551  10.112   8.066 -0.0547 -0.2916 -0.3023
  184MOL0     C24715   4.472  10.049   8.184 -0.1816  0.8624  1.0795
  184MOL0     C24716   4.406  10.165   8.257 -0.3801 -0.0598 -0.0584
  184MOL0     C24717   4.359  10.136   8.396 -0.2921 -0.4687  0.8921
  184MOL0     C24718   4.263  10.232   8.461  0.6648  0.1806  0.1389
  184MOL0     C24719   4.329  10.354   8.511 -0.0817 -0.6296 -0.8719
  184MOL0     C24720   4.233  10.438   8.583 -0.5311  0.3355  0.4917
  184MOL0     C24721   4.155  10.538   8.488 -0.4361  0.1102  0.4389
  184MOL0     N24722   4.049  10.613   8.569 -0.4371  0.4424  1.0678
  184MOL0     C24723   4.069  10.743   8.592  0.5051  0.3028  1.1916
  184MOL0     C24724   3.970  10.782   8.679 -0.2648  0.6510 -0.2675
  184MOL0     C24725   3.961  10.925   8.717  0.3289 -1.1381 -0.4335
  184MOL0     C24726   3.907  10.941   8.860  0.1801  0.4341  0.1762
  184MOL0     C24727   3.760  10.906   8.876 -0.4397 -0.5706  0.2031
  184MOL0     C24728   3.716  10.872   9.015  0.2192  0.0078 -0.1678
  184MOL0     O24729   3.572  10.890   9.032 -0.3601 -0.0335 -0.6589
  184MOL0     C24730   3.511  10.830   9.140 -0.5625  0.6157  0.2492
  184MOL0     C24731   3.376  10.850   9.147 -0.1040  0.7739  0.8389
  184MOL0     C24732   3.298  10.794   9.250 -0.2082 -0.4946 -0.7202
  184MOL0     C24733   3.151  10.829   9.251  0.1863  0.3124  0.5683
  184MOL0     C24734   3.368  10.726   9.351  0.1309  0.3896 -0.4250
  184MOL0     C24735   3.303  10.655   9.463 -0.8229 -0.3712  0.0649
  184MOL0     O24736   3.369  10.538   9.494  0.3413  0.5437  0.1763
  184MOL0     C24737   3.351  10.465   9.614  0.2674 -0.5091  0.6169
  184MOL0     C24738   3.283  10.507   9.730 -0.7560 -0.7339 -0.1933
  184MOL0     C24739   3.266  10.418   9.842  0.3404  0.3637  0.2296
  184MOL0     C24740   3.325  10.294   9.845  0.4042 -0.1379  0.3234
  184MOL0     O24741   3.296  10.196   9.942 -0.4551 -0.7892  0.0811
  184MOL0     C24742   3.274  10.235  10.081  0.3929 -0.3017  0.1099
  184MOL0     C24743   3.395  10.315  10.131  0.1610  0.1382  0.2297
  184MOL0     C24744   3.529  10.238  10.095  0.4167 -0.4762  0.0856
  184MOL0     C24745   3.647  10.335  10.133 -0.6592  0.4645 -0.4685
  184MOL0     C24746   3.777  10.254  10.155  0.0316  0.1764 -0.0387
  184MOL0     C24747   3.822  10.197  10.016 -0.1904  0.0831  0.0531
  184MOL0     C24748   3.970  10.154  10.019  0.3368 -0.3186 -0.5529
  184MOL0     C24749   4.007  10.057   9.908 -0.2472 -0.1956  0.2311
  184MOL0    Cl24750   4.174  10.025   9.915  0.0260  0.1751 -0.0599
  184MOL0     C24751   3.411  10.262   9.737  0.0229 -0.2824  0.1214
  184MOL0     C24752   3.421  10.343   9.625  0.7354 -0.6795  1.7128
  184MOL0     O24753   3.196  10.694   9.512 -0.6022  0.3045  0.2899
  184MOL0     C24754   3.503  10.709   9.343  0.0786 -0.4390 -0.5858
  184MOL0     C24755   3.580  10.761   9.243 -0.8382  0.9089  0.0409
  184MOL0     N24756   3.885  10.671   8.697 -0.1919  0.6738  0.1210
  184MOL0     N24757   3.935  10.568   8.630  0.3318 -1.2851 -0.5754
  184MOL0     C24758   4.800  10.107   7.916 -0.3599  0.0960  0.2924
  184MOL0     C24759   4.938  10.100   7.913  0.4144  1.1866  0.6748
  184MOL0     C24760   5.345   9.976   8.122  0.1180  0.5179  0.0802
  184MOL0     C24761   5.424   9.985   8.000 -0.6465  0.3559 -0.1344
  184MOL0     C24762   5.557   9.965   8.009 -0.2902 -0.3717 -0.1559
  184MOL0     C24763   5.618   9.943   8.126  0.3927 -0.0070 -0.4569
  184MOL0     O24764   5.748   9.924   8.111  0.4033  0.5524  0.0795
  184MOL0     C24765   5.826   9.868   8.222  0.5926  0.2862  0.8722
  184MOL0     C24766   5.974   9.852   8.184  0.2349 -0.1487 -0.1980
  184MOL0     C24767   6.056   9.989   8.196 -0.8160  0.1481 -0.8877
  184MOL0     C24768   6.070  10.039   8.343  0.3383 -0.2560 -0.4095
  184MOL0     C24769   6.142  10.158   8.338 -0.1776 -0.3900  0.6530
  184MOL0     C24770   6.206  10.260   8.331  0.9826  0.5657  0.3547
  184MOL0     C24771   5.552   9.936   8.253  1.3046  1.0254 -0.7169
  184MOL0     C24772   5.411   9.959   8.246 -0.4355  0.6380  0.7265
  184MOL0     H24773   4.984   9.798   8.077 -1.7398 -0.2404 -0.6985
  184MOL0     H24774   4.751   9.808   8.078 -2.0099  1.7739 -0.2784
  184MOL0     H24775   4.635  10.163   8.115 -0.5868  1.2586 -0.9509
  184MOL0     H24776   4.486  10.183   8.013 -1.2816 -0.7755  0.5139
  184MOL0     H24777   4.389   9.989   8.146  1.4675 -1.0663  0.3494
  184MOL0     H24778   4.540   9.991   8.247 -0.0467 -0.3129 -0.1150
  184MOL0     H24779   4.477  10.247   8.273 -2.3303  1.5173  0.9685
  184MOL0     H24780   4.328  10.210   8.195  0.0124 -0.9276 -1.2146
  184MOL0     H24781   4.311  10.038   8.394  2.1559 -1.7765  1.8120
  184MOL0     H24782   4.449  10.125   8.458  1.8922  2.9808 -1.3342
  184MOL0     H24783   4.189  10.258   8.385 -0.7740 -0.3783  1.2912
  184MOL0     H24784   4.211  10.173   8.538 -1.0857  0.1980 -0.9760
  184MOL0     H24785   4.410  10.332   8.582  0.8716  0.8092 -1.4676
  184MOL0     H24786   4.367  10.413   8.428  2.4015 -0.6912  0.1371
  184MOL0     H24787   4.161  10.385   8.647 -0.5995  0.3716  0.4455
  184MOL0     H24788   4.286  10.502   8.655  1.1898  0.2066 -0.6151
  184MOL0     H24789   4.103  10.480   8.411 -1.5488  1.8855 -0.2148
  184MOL0     H24790   4.232  10.603   8.445 -0.3293 -2.7202 -4.3056
  184MOL0     H24791   4.155  10.800   8.557  0.0707 -0.2470 -0.9384
  184MOL0     H24792   4.061  10.967   8.720  0.0877 -0.5798 -0.0932
  184MOL0     H24793   3.896  10.972   8.642 -1.0091 -2.1277  0.0622
  184MOL0     H24794   3.937  11.040   8.897  2.2306  0.5022 -1.5539
  184MOL0     H24795   3.965  10.877   8.927 -0.1179 -0.0232 -0.0004
  184MOL0     H24796   3.736  10.825   8.807  0.5036 -0.7854  0.1105
  184MOL0     H24797   3.707  10.995   8.841  0.4558 -0.7290 -1.6897
  184MOL0     H24798   3.766  10.948   9.075 -1.4660  2.1029 -1.2948
  184MOL0     H24799   3.741  10.773   9.055 -2.5490  0.7043  3.8205
  184MOL0     H24800   3.333  10.906   9.064 -0.2481 -1.0009 -0.3491
  184MOL0     H24801   3.086  10.741   9.252 -1.0709  1.1905 -0.4825
  184MOL0     H24802   3.123  10.892   9.337  2.8694  1.7734  0.4595
  184MOL0     H24803   3.130  10.887   9.161 -0.4891 -1.3986 -0.4212
  184MOL0     H24804   3.231  10.602   9.741  1.3896  0.4761 -0.1081
  184MOL0     H24805   3.208  10.451   9.927  0.1874  2.4863 -0.6556
  184MOL0     H24806   3.181  10.293  10.093  0.1884 -0.6307  0.1181
  184MOL0     H24807   3.255  10.144  10.138  0.6575  1.8441  3.9518
  184MOL0     H24808   3.408  10.404  10.069  1.4330 -2.3680 -3.3960
  184MOL0     H24809   3.369  10.334  10.236 -1.8663 -0.8098 -0.0447
  184MOL0     H24810   3.535  10.206   9.991 -2.6554  0.5357 -0.5223
  184MOL0     H24811   3.541  10.149  10.157  0.9292  2.1540  4.1671
  184MOL0     H24812   3.659  10.411  10.055 -1.0330 -0.3231 -1.3144
  184MOL0     H24813   3.618  10.392  10.222 -1.4390 -1.4339  0.5494
  184MOL0     H24814   3.750  10.173  10.223  2.6862 -1.1371 -0.3916
  184MOL0     H24815   3.861  10.315  10.190  1.9741 -2.8645  1.0505
  184MOL0     H24816   3.758  10.117   9.977  0.5466  0.4203 -1.9592
  184MOL0     H24817   3.830  10.274   9.939  3.2886  0.0126  0.1831
  184MOL0     H24818   3.992  10.118  10.121 -3.9827  0.9091  1.0184
  184MOL0     H24819   4.029  10.246  10.024 -2.8179  1.8757 -0.9775
  184MOL0     H24820   3.992  10.105   9.811 -1.1804  0.1075  0.5226
  184MOL0     H24821   3.953   9.962   9.903  1.7222 -1.3595 -0.1846
  184MOL0     H24822   3.479  10.177   9.733 -0.4088 -1.0001  4.0546
  184MOL0     H24823   3.478  10.297   9.545 -0.5593 -1.1296  1.0367
  184MOL0     H24824   3.548  10.654   9.425 -0.7703  0.0240  0.2032
  184MOL0     H24825   3.687  10.745   9.250 -0.4036  3.8031  1.4278
  184MOL0     H24826   4.752  10.186   7.860 -0.5439 -2.1734 -3.0988
  184MOL0     H24827   4.984  10.188   7.868  3.5260 -0.0477  1.1567
  184MOL0     H24828   5.390  10.026   7.906  0.3253  3.3758  0.7373
  184MOL0     H24829   5.622   9.981   7.924 -0.8455 -2.3543 -1.0019
  184MOL0     H24830   5.826   9.927   8.314 -1.1532 -1.1259  1.8389
  184MOL0     H24831   5.790   9.765   8.236 -2.5063  0.4640 -3.5344
  184MOL0     H24832   5.989   9.798   8.090 -0.9892 -1.0176  0.0835
  184MOL0     H24833   6.020   9.784   8.256  0.6210 -2.0199 -2.0986
  184MOL0     H24834   6.001  10.062   8.136  2.3436  1.5060 -2.3569
  184MOL0     H24835   6.156   9.974   8.154 -0.4412  1.4731 -0.5023
  184MOL0     H24836   6.131   9.967   8.399 -3.5203 -2.6381  1.1123
  184MOL0     H24837   5.975  10.059   8.393 -0.5501 -3.3792 -0.6436
  184MOL0     H24838   6.253  10.357   8.332 -0.0115  1.0679 -0.1592
  184MOL0     H24839   5.602   9.922   8.349  1.2297  0.8384 -0.7063
  184MOL0     H24840   5.357   9.953   8.341 -0.1666 -3.0430  0.8265
  185MOL0     O24841   1.749   1.072  11.260 -0.4472  0.8990 -0.5794
  185MOL0     C24842   1.858   1.016  11.260 -0.0611  1.2248 -0.5637
  185MOL0     O24843   1.904   0.924  11.357 -0.4516 -0.2511  0.0597
  185MOL0     C24844   1.811   0.897  11.454  0.4560  0.1219  0.4118
  185MOL0     C24845   1.846   0.926  11.583  0.6467  0.3654  0.1455
  185MOL0     C24846   1.758   0.911  11.686  0.6484  0.5655  0.0050
  185MOL0     C24847   1.631   0.863  11.660 -0.1789  0.2864  1.2247
  185MOL0     O24848   1.551   0.865  11.773 -0.0056  0.6702 -0.3048
  185MOL0     C24849   1.408   0.828  11.762 -0.1267  0.1298  0.6557
  185MOL0     C24850   1.343   0.891  11.886 -0.4021 -0.3812  0.2386
  185MOL0     C24851   1.186   0.872  11.881 -0.2129 -0.9611 -0.5597
  185MOL0     C24852   1.122   0.943  12.000  0.6610 -0.5511 -0.2015
  185MOL0     C24853   0.978   0.928  12.005 -0.7715  0.3020  0.1772
  185MOL0     C24854   0.935   0.781  12.039  0.6661  0.5072  0.8126
  185MOL0     C24855   0.782   0.774  11.994  0.0739  0.3618 -0.6234
  185MOL0     C24856   0.684   0.847  12.083  0.0415  0.3405  0.4189
  185MOL0     N24857   0.549   0.809  12.054 -0.0436 -0.0743  0.5109
  185MOL0     C24858   0.454   0.898  12.006 -0.1818 -0.2535  0.6681
  185MOL0     C24859   0.337   0.829  12.000  0.8962 -0.5523 -0.6982
  185MOL0     C24860   0.213   0.872  11.927  0.0350  0.1934  0.7678
  185MOL0     C24861   0.091   0.882  12.015  0.0488 -0.2790 -0.3299
  185MOL0     C24862   0.033   0.765  12.092  0.9053  1.1483 -0.9579
  185MOL0     C24863  -0.110   0.776  12.135 -0.8874 -0.3870  0.0927
  185MOL0     O24864  -0.196   0.788  12.023 -0.5804 -0.0845  0.0709
  185MOL0     C24865  -0.327   0.807  12.045 -0.4404 -0.1655 -0.0104
  185MOL0     C24866  -0.387   0.880  12.156 -0.3089  0.3936  0.5490
  185MOL0     C24867  -0.523   0.876  12.167 -0.0946 -0.5601 -0.1365
  185MOL0     C24868  -0.566   0.970  12.279 -0.0630  0.5236 -0.4160
  185MOL0     C24869  -0.611   0.800  12.085 -1.2414  0.7852 -0.6583
  185MOL0     C24870  -0.763   0.806  12.091  0.2192 -0.4538  0.3496
  185MOL0     O24871  -0.828   0.705  12.041 -0.4720 -0.0808  0.4395
  185MOL0     C24872  -0.960   0.689  12.059 -0.1108  0.2191  0.7344
  185MOL0     C24873  -1.029   0.730  12.182  0.0660  0.3894  0.5313
  185MOL0     C24874  -1.160   0.700  12.201  0.7092 -0.0277  0.2796
  185MOL0     C24875  -1.232   0.627  12.099  0.5434  0.0490  0.3915
  185MOL0     O24876  -1.359   0.578  12.105  0.0057 -0.9917 -0.7709
  185MOL0     C24877  -1.443   0.647  12.198 -1.4022 -0.2093 -0.5889
  185MOL0     C24878  -1.578   0.616  12.133  0.3196  0.3529 -0.5469
  185MOL0     C24879  -1.692   0.692  12.200  0.7830 -0.5026 -0.9156
  185MOL0     C24880  -1.828   0.637  12.161  0.2712 -0.4638 -0.3260
  185MOL0     C24881  -1.934   0.718  12.241 -0.5259  0.5572  0.3863
  185MOL0     C24882  -2.062   0.729  12.152  0.0076 -0.9447 -0.8422
  185MOL0     C24883  -2.123   0.868  12.173  0.4913 -0.7430 -1.1747
  185MOL0     C24884  -2.235   0.884  12.071  0.8098 -1.1970  0.8231
  185MOL0    Cl24885  -2.360   0.774  12.123  0.3689  0.2280  0.2020
  185MOL0     C24886  -1.164   0.592  11.979  0.0143 -0.6356 -0.5573
  185MOL0     C24887  -1.033   0.631  11.959 -0.3265 -0.5752 -0.1332
  185MOL0     O24888  -0.819   0.911  12.136  0.7740 -0.1936  0.4991
  185MOL0     C24889  -0.545   0.721  11.988  0.3193 -0.5288  0.1913
  185MOL0     C24890  -0.409   0.730  11.968 -0.6564  0.0107 -0.8186
  185MOL0     N24891   0.366   0.698  12.041 -0.1528 -0.4002  0.0306
  185MOL0     N24892   0.495   0.683  12.060 -0.1672  0.3691 -0.4283
  185MOL0     C24893   1.596   0.825  11.527  1.0728 -1.1708 -1.0936
  185MOL0     C24894   1.683   0.841  11.423 -0.8172 -0.0859  0.3355
  185MOL0     C24895   1.943   1.053  11.144 -0.0668 -0.3929 -0.0991
  185MOL0     C24896   1.902   1.107  11.020 -0.5935 -0.1644  0.0358
  185MOL0     C24897   1.996   1.127  10.920  0.6659 -0.0579  0.2866
  185MOL0     C24898   2.130   1.107  10.930  0.1057 -0.3841 -0.1889
  185MOL0     O24899   2.224   1.132  10.838 -0.1401 -0.9646 -0.1296
  185MOL0     C24900   2.212   1.267  10.778  0.3089  0.3066  0.5797
  185MOL0     C24901   2.182   1.390  10.861  0.3169 -0.0957 -0.5816
  185MOL0     C24902   2.276   1.407  10.984  0.0620  0.0990 -0.0057
  185MOL0     C24903   2.235   1.520  11.077 -0.3187 -0.3527 -0.0728
  185MOL0     C24904   2.299   1.516  11.207  0.0344 -0.6794  0.1495
  185MOL0     C24905   2.339   1.518  11.321 -0.5570 -0.8291 -0.6604
  185MOL0     C24906   2.173   1.067  11.059  0.5036  0.2969 -0.4993
  185MOL0     C24907   2.083   1.019  11.161 -0.1190 -0.9738  0.4098
  185MOL0     H24908   1.943   0.969  11.604  1.2724 -0.0859 -1.6140
  185MOL0     H24909   1.788   0.945  11.785 -0.9864  1.3056  0.2728
  185MOL0     H24910   1.365   0.873  11.672  2.7361  1.0962 -0.3472
  185MOL0     H24911   1.393   0.720  11.752  0.8653  0.0790 -0.6483
  185MOL0     H24912   1.398   0.854  11.973  4.4003  4.8471 -0.0005
  185MOL0     H24913   1.357   0.999  11.892 -0.8647 -0.2653 -0.5251
  185MOL0     H24914   1.149   0.922  11.791 -1.6314  1.8458  1.4103
  185MOL0     H24915   1.151   0.768  11.880 -0.6590 -0.9163  2.1943
  185MOL0     H24916   1.167   0.927  12.099  0.5333 -0.5635 -0.1455
  185MOL0     H24917   1.132   1.049  11.972 -1.7590 -0.7460 -2.1523
  185MOL0     H24918   0.945   0.993  12.086  1.6958  1.1284  0.6080
  185MOL0     H24919   0.950   0.964  11.906  1.8543  2.2775  0.0306
  185MOL0     H24920   0.981   0.699  11.983  0.1852  0.6507  0.2021
  185MOL0     H24921   0.943   0.758  12.145 -0.6285 -1.1955  0.5734
  185MOL0     H24922   0.778   0.804  11.889  1.0645  3.4451  0.1160
  185MOL0     H24923   0.754   0.668  11.996 -0.7908  0.5995  0.5027
  185MOL0     H24924   0.699   0.955  12.078  1.3800  0.1363 -0.3750
  185MOL0     H24925   0.703   0.825  12.189 -0.3304  3.5778  1.2532
  185MOL0     H24926   0.468   0.996  11.962  1.6778 -0.0327  1.6535
  185MOL0     H24927   0.234   0.968  11.879  0.9912  1.1686  2.9793
  185MOL0     H24928   0.194   0.793  11.853  2.4080  0.3139 -0.0269
  185MOL0     H24929   0.014   0.922  11.948 -2.0267 -4.2125 -0.6449
  185MOL0     H24930   0.116   0.955  12.092 -0.1112  1.2016 -1.6441
  185MOL0     H24931   0.090   0.759  12.185 -3.1106  0.9980  1.7352
  185MOL0     H24932   0.050   0.674  12.033 -0.5521  0.1763  0.0563
  185MOL0     H24933  -0.135   0.853  12.208  1.5458 -1.8877  2.7108
  185MOL0     H24934  -0.125   0.684  12.192  2.2153 -0.5098  0.9068
  185MOL0     H24935  -0.324   0.951  12.208  1.1198  0.4084 -1.1199
  185MOL0     H24936  -0.626   1.051  12.238  0.9655  1.5816  0.1272
  185MOL0     H24937  -0.625   0.908  12.347 -1.8998  0.6792 -1.7953
  185MOL0     H24938  -0.487   1.015  12.340  0.0347 -0.2441  0.0432
  185MOL0     H24939  -0.970   0.769  12.264 -2.4141  1.4632  1.8952
  185MOL0     H24940  -1.213   0.716  12.294  1.6997  4.0914  0.3195
  185MOL0     H24941  -1.437   0.602  12.298  1.0296  2.5414  0.6607
  185MOL0     H24942  -1.417   0.753  12.188  1.8351 -1.0246 -2.2966
  185MOL0     H24943  -1.569   0.651  12.029 -0.1755  0.4141 -0.5706
  185MOL0     H24944  -1.608   0.511  12.134  2.2411 -0.2510 -1.2229
  185MOL0     H24945  -1.681   0.799  12.179  1.1699 -0.8605 -2.7188
  185MOL0     H24946  -1.687   0.684  12.309 -3.2019 -2.5845 -0.7250
  185MOL0     H24947  -1.839   0.642  12.052 -1.7849  0.2071 -0.1393
  185MOL0     H24948  -1.842   0.532  12.189  3.1339 -1.4818 -2.3148
  185MOL0     H24949  -1.900   0.817  12.272 -0.0439  0.5933 -0.2340
  185MOL0     H24950  -1.960   0.655  12.327 -0.8277  0.4400  0.2105
  185MOL0     H24951  -2.043   0.714  12.045  1.9697 -3.6219 -0.2297
  185MOL0     H24952  -2.127   0.649  12.187  0.6510  0.4678  4.3665
  185MOL0     H24953  -2.049   0.947  12.156  1.0213 -0.5578  1.5342
  185MOL0     H24954  -2.171   0.889  12.269  0.8267 -1.1766 -0.9082
  185MOL0     H24955  -2.211   0.863  11.967 -1.4295  0.3814 -0.0981
  185MOL0     H24956  -2.270   0.987  12.071  2.6401 -0.5285  2.3488
  185MOL0     H24957  -1.227   0.548  11.903 -1.9232  2.4696 -0.9272
  185MOL0     H24958  -0.987   0.587  11.871 -0.7987  0.8055 -1.1107
  185MOL0     H24959  -0.596   0.651  11.922 -3.1567  3.3432 -1.6864
  185MOL0     H24960  -0.366   0.665  11.893  2.1567  0.3487  0.3864
  185MOL0     H24961   1.491   0.801  11.508  0.6009 -0.3999  0.4354
  185MOL0     H24962   1.673   0.793  11.326  1.4122  0.7736 -0.3909
  185MOL0     H24963   1.801   1.115  10.980  0.6107 -2.1443 -3.8994
  185MOL0     H24964   1.966   1.162  10.822 -0.3184  0.2202  0.6795
  185MOL0     H24965   2.313   1.292  10.743  0.2266 -2.5325 -2.1244
  185MOL0     H24966   2.155   1.272  10.684 -2.3134  0.7828  2.0884
  185MOL0     H24967   2.078   1.389  10.895 -0.2069  1.8657 -1.9700
  185MOL0     H24968   2.192   1.478  10.797 -0.4428 -1.0453 -2.0689
  185MOL0     H24969   2.376   1.409  10.942 -0.2554  1.7196 -0.7528
  185MOL0     H24970   2.270   1.318  11.047 -0.2839  1.0017  1.3031
  185MOL0     H24971   2.128   1.534  11.093 -0.4270  1.0899 -1.7429
  185MOL0     H24972   2.273   1.615  11.038 -2.4533  1.2491  1.5374
  185MOL0     H24973   2.353   1.494  11.424 -4.4287 -0.6866  0.0727
  185MOL0     H24974   2.278   1.053  11.080  0.5652  0.2784 -0.8115
  185MOL0     H24975   2.117   0.979  11.256  0.6791 -0.6965  0.2487
  186MOL0     O24976   9.404   3.641   1.948 -0.0844 -0.4934  0.4200
  186MOL0     C24977   9.365   3.675   1.837  0.1755  0.3420 -0.3665
  186MOL0     O24978   9.234   3.658   1.791 -0.9281 -0.2887 -0.5131
  186MOL0     C24979   9.155   3.573   1.863  0.3172 -0.3918 -1.0246
  186MOL0     C24980   9.145   3.437   1.831 -0.3149 -0.7800 -0.4272
  186MOL0     C24981   9.049   3.359   1.892  0.6498 -0.9648 -0.3789
  186MOL0     C24982   8.953   3.407   1.987 -0.4151 -0.5299  0.7685
  186MOL0     O24983   8.846   3.336   2.046  0.8116  0.5439 -0.5248
  186MOL0     C24984   8.836   3.200   1.994  0.5411 -1.1520 -0.3532
  186MOL0     C24985   8.737   3.118   2.083 -0.6158 -0.5005 -0.7752
  186MOL0     C24986   8.588   3.150   2.064  0.3347 -0.4084 -0.0231
  186MOL0     C24987   8.497   3.056   2.133  0.1241 -0.2736  0.0266
  186MOL0     C24988   8.350   3.065   2.124  0.0245 -0.3867  0.6006
  186MOL0     C24989   8.285   3.180   2.213 -0.6230 -0.1392  0.3280
  186MOL0     C24990   8.124   3.163   2.197  0.3439 -0.5252  0.4333
  186MOL0     C24991   8.045   3.283   2.243 -0.6795 -0.2950  0.1858
  186MOL0     N24992   7.909   3.304   2.214  0.0153 -0.6377  0.9126
  186MOL0     C24993   7.813   3.232   2.264 -0.0050  0.6945 -0.4395
  186MOL0     C24994   7.699   3.296   2.260 -0.9615 -0.2819  0.2659
  186MOL0     C24995   7.565   3.259   2.318 -0.3296 -0.7911 -0.2114
  186MOL0     C24996   7.502   3.133   2.263 -0.2617 -0.2317  0.2867
  186MOL0     C24997   7.469   3.127   2.115  0.5350 -0.8734  0.2198
  186MOL0     C24998   7.453   2.981   2.056  0.5596 -0.7943 -1.2048
  186MOL0     O24999   7.355   2.908   2.127 -0.1498 -0.4587  0.1985
  186MOL0     C25000   7.229   2.956   2.136  0.0361 -0.0162 -0.5141
  186MOL0     C25001   7.161   3.012   2.025  0.1310 -0.6276 -0.2730
  186MOL0     C25002   7.036   3.066   2.033 -0.3430 -0.1935 -0.0072
  186MOL0     C25003   6.973   3.126   1.911 -0.5095 -1.0649  0.1189
  186MOL0     C25004   6.965   3.052   2.160  0.2178 -1.0651 -0.6762
  186MOL0     C25005   6.824   3.105   2.168 -0.6215 -0.3906 -1.1969
  186MOL0     O25006   6.804   3.226   2.107  0.1508 -0.9497 -0.1606
  186MOL0     C25007   6.668   3.246   2.101 -0.1008 -0.5153  0.4614
  186MOL0     C25008   6.612   3.338   2.195 -0.4587  0.3753 -0.9345
  186MOL0     C25009   6.476   3.364   2.197  0.3649  0.0832  0.9010
  186MOL0     C25010   6.395   3.304   2.100  0.0157 -0.7921  0.5700
  186MOL0     O25011   6.263   3.331   2.106  0.0504 -0.5438 -0.1754
  186MOL0     C25012   6.178   3.345   1.992  0.4120  0.4535 -0.4185
  186MOL0     C25013   6.060   3.438   2.030  1.3359  0.3172  0.3595
  186MOL0     C25014   5.925   3.420   1.944 -0.3730  0.0098 -0.9313
  186MOL0     C25015   5.943   3.467   1.796  0.3215  0.5110  0.1205
  186MOL0     C25016   5.948   3.620   1.762  0.0680  0.3617 -0.8533
  186MOL0     C25017   5.812   3.694   1.799  0.0930 -0.6184  0.7694
  186MOL0     C25018   5.815   3.843   1.756 -0.1673  0.1602 -0.9438
  186MOL0     C25019   5.833   3.866   1.606  0.0266 -0.4969 -0.7500
  186MOL0    Cl25020   5.677   3.844   1.536  0.4293 -0.4334 -0.3582
  186MOL0     C25021   6.451   3.226   1.993  0.0716  0.6209 -1.4600
  186MOL0     C25022   6.590   3.198   1.989  0.6265  0.2082  0.9011
  186MOL0     O25023   6.740   3.035   2.227  0.5420 -0.1459  0.2588
  186MOL0     C25024   7.032   2.983   2.256  0.5054  0.4784 -1.1026
  186MOL0     C25025   7.168   2.939   2.255  0.1096 -0.5265  0.2498
  186MOL0     N25026   7.729   3.413   2.192 -0.2894 -0.3711 -0.2388
  186MOL0     N25027   7.854   3.425   2.186  0.0879 -0.4432 -0.6668
  186MOL0     C25028   8.978   3.540   2.026  0.9614 -0.1215  0.1842
  186MOL0     C25029   9.074   3.618   1.964 -0.1899 -0.8590  0.1848
  186MOL0     C25030   9.459   3.715   1.737  0.3210 -0.4592  0.3064
  186MOL0     C25031   9.413   3.755   1.606 -0.5567  0.8834  0.5170
  186MOL0     C25032   9.499   3.817   1.518  0.7585 -0.1021  0.0023
  186MOL0     C25033   9.637   3.815   1.534 -0.4351 -0.2021 -0.3507
  186MOL0     O25034   9.735   3.867   1.449 -0.3267  0.0225 -0.5579
  186MOL0     C25035   9.725   3.865   1.308 -0.0729  1.4057  0.7172
  186MOL0     C25036   9.856   3.922   1.235 -0.0746 -0.3776 -0.1243
  186MOL0     C25037   9.899   4.056   1.301  0.3204  0.0371 -0.2483
  186MOL0     C25038   9.897   4.186   1.221  0.7729  0.0296 -0.4421
  186MOL0     C25039   9.753   4.220   1.200  0.1588  0.4998 -0.3562
  186MOL0     C25040   9.638   4.261   1.191  0.1303 -0.3284  0.1319
  186MOL0     C25041   9.680   3.762   1.656 -0.1207 -0.0774  0.6507
  186MOL0     C25042   9.597   3.719   1.760 -0.9348  0.2448  0.5486
  186MOL0     H25043   9.198   3.397   1.745 -0.1613 -4.5511  1.2463
  186MOL0     H25044   9.042   3.260   1.849 -1.8182 -1.1648  0.2868
  186MOL0     H25045   8.804   3.212   1.890 -0.2896  0.6949  0.0841
  186MOL0     H25046   8.933   3.148   1.995 -0.1492 -2.5886  2.7650
  186MOL0     H25047   8.762   3.012   2.090 -0.9039 -0.7585 -2.8112
  186MOL0     H25048   8.762   3.156   2.182  0.5855 -1.1432 -0.8116
  186MOL0     H25049   8.574   3.253   2.100  2.1956 -0.4888  1.0617
  186MOL0     H25050   8.558   3.150   1.959 -4.1293  2.0480  1.0110
  186MOL0     H25051   8.534   2.955   2.111 -0.2547 -0.9523  2.1725
  186MOL0     H25052   8.521   3.068   2.240 -0.4461 -0.0570  0.1316
  186MOL0     H25053   8.330   3.089   2.020 -0.8381  3.0092  1.4307
  186MOL0     H25054   8.310   2.967   2.151  1.4719 -1.0948  0.3177
  186MOL0     H25055   8.321   3.157   2.314  2.6850 -3.4049 -1.3378
  186MOL0     H25056   8.322   3.279   2.183  2.9680 -0.6515  2.4373
  186MOL0     H25057   8.088   3.160   2.094 -2.8128  4.4801  1.0138
  186MOL0     H25058   8.098   3.068   2.244  1.1580 -1.1416 -0.3513
  186MOL0     H25059   8.100   3.367   2.198  0.0758 -1.2592 -0.7564
  186MOL0     H25060   8.071   3.287   2.349  1.7613 -1.3047 -0.2886
  186MOL0     H25061   7.819   3.138   2.318 -2.2562 -0.4137 -1.9315
  186MOL0     H25062   7.563   3.264   2.427 -0.4555  1.4391 -0.2733
  186MOL0     H25063   7.490   3.332   2.287  0.3478  0.5581  1.2122
  186MOL0     H25064   7.416   3.117   2.328 -1.3904  2.6707 -0.3317
  186MOL0     H25065   7.547   3.039   2.293 -2.1997 -0.0014  4.5520
  186MOL0     H25066   7.562   3.158   2.067  0.2240 -2.8649 -1.8401
  186MOL0     H25067   7.384   3.192   2.094  0.6455 -0.6460  0.4656
  186MOL0     H25068   7.550   2.931   2.064  0.0146 -1.9282 -1.4658
  186MOL0     H25069   7.434   2.992   1.949  0.1115 -0.0443 -1.0511
  186MOL0     H25070   7.210   3.014   1.927  0.9888 -2.6532  0.0594
  186MOL0     H25071   7.019   3.096   1.817  0.7419 -1.8190  0.9505
  186MOL0     H25072   6.867   3.098   1.901 -0.6656 -0.9305  1.3157
  186MOL0     H25073   6.983   3.235   1.914 -0.2948 -0.8573 -3.3632
  186MOL0     H25074   6.682   3.370   2.272 -1.6802 -1.0971  0.8555
  186MOL0     H25075   6.425   3.422   2.273 -0.4322 -0.1949  0.5898
  186MOL0     H25076   6.231   3.371   1.900  1.8061  0.6686  0.4029
  186MOL0     H25077   6.132   3.247   1.977 -1.0907  0.4747  3.0706
  186MOL0     H25078   6.025   3.415   2.131  0.5865 -1.6981 -0.3117
  186MOL0     H25079   6.092   3.542   2.018  0.4334  0.3005 -3.7918
  186MOL0     H25080   5.833   3.458   1.991 -0.5724 -2.1537  0.6022
  186MOL0     H25081   5.913   3.312   1.937  1.1676 -0.2194 -0.3871
  186MOL0     H25082   6.027   3.411   1.753  0.3891  0.0660  0.8166
  186MOL0     H25083   5.862   3.419   1.740 -1.7276  1.4619  2.1464
  186MOL0     H25084   5.967   3.628   1.655  0.8863  0.8623 -0.6750
  186MOL0     H25085   6.033   3.664   1.814 -0.1618  0.8408 -0.8733
  186MOL0     H25086   5.735   3.650   1.736  0.4805  1.3528 -1.2013
  186MOL0     H25087   5.800   3.686   1.908 -1.3873 -0.6951  0.6251
  186MOL0     H25088   5.904   3.890   1.799 -0.6242  1.9741 -1.8719
  186MOL0     H25089   5.731   3.898   1.800  2.2208  1.6381  2.1253
  186MOL0     H25090   5.905   3.810   1.546  0.4357  0.0922 -0.8194
  186MOL0     H25091   5.858   3.972   1.599  0.0349 -0.3253  1.2902
  186MOL0     H25092   6.390   3.180   1.916 -0.2710 -0.1959 -0.7185
  186MOL0     H25093   6.633   3.144   1.905 -0.1292  1.4522 -0.3442
  186MOL0     H25094   6.967   2.976   2.343  1.0331  0.9199 -0.6655
  186MOL0     H25095   7.221   2.910   2.345  0.3131  3.5807  1.6534
  186MOL0     H25096   8.907   3.583   2.096  1.0112  0.8342 -0.3444
  186MOL0     H25097   9.069   3.720   1.999 -1.9079 -0.6895 -0.4628
  186MOL0     H25098   9.312   3.759   1.567 -0.1700 -0.7615 -0.7603
  186MOL0     H25099   9.462   3.866   1.429 -2.3037 -1.6249  0.3249
  186MOL0     H25100   9.715   3.760   1.278  0.8253  1.4240  0.3395
  186MOL0     H25101   9.639   3.925   1.276 -0.7300 -0.1617 -0.5903
  186MOL0     H25102   9.843   3.928   1.127  0.3795 -0.4485 -0.1839
  186MOL0     H25103   9.937   3.854   1.263 -1.0586 -0.6965  2.1801
  186MOL0     H25104   9.998   4.052   1.347  1.1747  3.0038 -1.6207
  186MOL0     H25105   9.830   4.067   1.385 -1.8010  0.7350 -1.9703
  186MOL0     H25106   9.950   4.190   1.125  0.7096  0.3537 -0.4650
  186MOL0     H25107   9.936   4.265   1.286  1.6880  0.2693 -1.2577
  186MOL0     H25108   9.538   4.298   1.191  0.5624  0.9296 -0.9737
  186MOL0     H25109   9.782   3.743   1.687 -0.3843  1.5112  2.6820
  186MOL0     H25110   9.634   3.678   1.853  2.1191  0.0477 -0.6365
  187MOL0     O25111   2.646   2.790   9.901  0.0627 -0.3726  0.3903
  187MOL0     C25112   2.715   2.824   9.993 -1.1112  0.6510  0.2191
  187MOL0     O25113   2.665   2.863  10.112  0.5436 -0.0933  0.2396
  187MOL0     C25114   2.532   2.840  10.138  0.6364  0.1376 -0.4148
  187MOL0     C25115   2.442   2.737  10.095 -0.0663 -0.2295 -0.3280
  187MOL0     C25116   2.309   2.756  10.102  0.3564  0.2296 -0.1938
  187MOL0     C25117   2.252   2.878  10.141 -0.3605 -0.3855  0.1783
  187MOL0     O25118   2.122   2.906  10.151  0.2611  0.4465  0.0687
  187MOL0     C25119   2.031   2.797  10.138 -0.3320  0.7241 -0.6584
  187MOL0     C25120   1.890   2.851  10.161  0.7161  0.2092 -0.1955
  187MOL0     C25121   1.780   2.752  10.116  0.0132  0.7539  0.2097
  187MOL0     C25122   1.651   2.777  10.201  0.1265 -0.3533 -0.0162
  187MOL0     C25123   1.544   2.688  10.133 -0.1498  0.3444  0.1483
  187MOL0     C25124   1.406   2.689  10.208 -0.4975 -0.8076  0.9782
  187MOL0     C25125   1.392   2.592  10.318 -0.1939 -0.2815 -0.6026
  187MOL0     C25126   1.236   2.566  10.343  0.5789 -0.0377  0.1855
  187MOL0     N25127   1.177   2.697  10.364 -0.0295 -0.7548  0.6183
  187MOL0     C25128   1.206   2.769  10.482 -0.1134 -0.0195 -0.0622
  187MOL0     C25129   1.146   2.888  10.461 -0.0248 -0.0069 -0.2063
  187MOL0     C25130   1.150   2.999  10.567  0.2910  0.0272  0.2348
  187MOL0     C25131   1.291   3.069  10.534 -0.9200  0.2946 -0.3514
  187MOL0     C25132   1.317   3.168  10.643  0.4306 -0.3912 -0.2255
  187MOL0     C25133   1.245   3.295  10.601  0.0439  0.1717  0.3079
  187MOL0     O25134   1.273   3.405  10.668  0.0871 -0.4477 -0.2295
  187MOL0     C25135   1.171   3.501  10.663  0.7603  0.0796 -0.6103
  187MOL0     C25136   1.099   3.525  10.783 -1.3736  0.1334  0.1236
  187MOL0     C25137   0.981   3.608  10.785  0.4929 -0.3133  0.4519
  187MOL0     C25138   0.905   3.625  10.914 -0.2723  0.3299 -0.7398
  187MOL0     C25139   0.934   3.656  10.656 -0.8237  0.0048  0.6633
  187MOL0     C25140   0.807   3.726  10.635 -0.9131  0.9708  0.4146
  187MOL0     O25141   0.773   3.750  10.491 -0.0603 -0.7833 -0.6364
  187MOL0     C25142   0.653   3.796  10.452  0.2873  0.8441 -0.1675
  187MOL0     C25143   0.586   3.894  10.523  0.3651  0.3142  0.6864
  187MOL0     C25144   0.476   3.960  10.471 -0.3017  0.0410 -0.6161
  187MOL0     C25145   0.408   3.908  10.352 -0.0352 -0.2725 -0.0726
  187MOL0     O25146   0.294   3.971  10.304 -0.2975 -0.0679  0.4834
  187MOL0     C25147   0.288   3.979  10.157  0.3981  0.0114 -0.0999
  187MOL0     C25148   0.156   4.043  10.112  0.6874 -0.0141 -0.9179
  187MOL0     C25149   0.041   3.954  10.176  0.1252  0.4047 -0.0249
  187MOL0     C25150  -0.089   3.982  10.097  0.4193 -0.3242 -0.3139
  187MOL0     C25151  -0.207   3.926  10.177  0.1080 -0.9358 -0.5243
  187MOL0     C25152  -0.218   3.773  10.199 -1.0326 -0.3967  0.0812
  187MOL0     C25153  -0.254   3.712  10.062  0.3859 -0.1524  0.1940
  187MOL0     C25154  -0.293   3.564  10.056 -0.0257  0.6903 -0.8959
  187MOL0    Cl25155  -0.198   3.458  10.154  0.4236  0.1213  0.1617
  187MOL0     C25156   0.468   3.793  10.287  0.0302 -0.4558 -0.0701
  187MOL0     C25157   0.590   3.741  10.342 -0.0816  0.3550 -0.0409
  187MOL0     O25158   0.740   3.754  10.727 -0.2790 -0.1465 -0.7427
  187MOL0     C25159   1.016   3.630  10.541  0.4946  0.1122  0.2279
  187MOL0     C25160   1.131   3.558  10.538 -0.6771  0.3949 -0.6483
  187MOL0     N25161   1.078   2.891  10.343 -0.0896  0.8209 -0.6991
  187MOL0     N25162   1.091   2.773  10.292  0.4165 -0.1542  0.1624
  187MOL0     C25163   2.331   2.974  10.185 -0.9717 -0.1165 -0.7505
  187MOL0     C25164   2.474   2.953  10.187 -0.1980  0.1251  0.6425
  187MOL0     C25165   2.861   2.818   9.969 -0.2450 -0.9314 -0.0581
  187MOL0     C25166   2.955   2.841  10.074 -0.6475  0.2989 -0.3036
  187MOL0     C25167   3.096   2.830  10.061  0.1619 -0.9700 -0.2252
  187MOL0     C25168   3.153   2.805   9.938 -0.5303 -0.8942  0.7756
  187MOL0     O25169   3.289   2.790   9.904 -0.6437 -0.1262  0.4339
  187MOL0     C25170   3.390   2.790  10.004  0.4722 -0.1487  0.4455
  187MOL0     C25171   3.423   2.933  10.040 -1.0589  1.0087 -0.6175
  187MOL0     C25172   3.537   2.929  10.132  0.0896 -0.1789  0.5901
  187MOL0     C25173   3.560   3.066  10.189  0.1663  0.2417 -0.3123
  187MOL0     C25174   3.582   3.181  10.099  0.1146  0.6683  0.3698
  187MOL0     C25175   3.594   3.281  10.034 -0.0673 -0.2212 -0.4695
  187MOL0     C25176   3.059   2.781   9.829  0.3392  0.2386  0.0151
  187MOL0     C25177   2.918   2.789   9.842  0.3484  1.1351 -0.5299
  187MOL0     H25178   2.499   2.650  10.063  2.1318  0.6541  1.0125
  187MOL0     H25179   2.249   2.670  10.073  0.9587 -0.6102  0.9748
  187MOL0     H25180   2.060   2.761  10.039  1.7149  0.8779 -0.1566
  187MOL0     H25181   2.062   2.710  10.196 -2.3366  0.2688 -0.2076
  187MOL0     H25182   1.872   2.865  10.268 -0.7688  1.4651 -0.5860
  187MOL0     H25183   1.876   2.944  10.106  1.2181 -0.5293 -1.6331
  187MOL0     H25184   1.754   2.773  10.012 -0.7142  1.0008  0.4344
  187MOL0     H25185   1.815   2.650  10.132  0.2178  0.3059 -2.6402
  187MOL0     H25186   1.659   2.746  10.306 -0.9933  1.0591  0.5238
  187MOL0     H25187   1.621   2.882  10.194  1.1062 -0.1291 -1.2373
  187MOL0     H25188   1.532   2.723  10.030 -1.0610  2.0915  0.7981
  187MOL0     H25189   1.580   2.585  10.127  1.0105  0.7942 -1.1640
  187MOL0     H25190   1.397   2.794  10.238 -2.5001 -0.5108 -0.4520
  187MOL0     H25191   1.334   2.654  10.134  0.7777  0.8997 -1.2138
  187MOL0     H25192   1.431   2.492  10.297 -0.9280 -1.4268  2.8517
  187MOL0     H25193   1.450   2.627  10.404 -0.0917  2.1475 -1.5811
  187MOL0     H25194   1.236   2.502  10.432  2.2442 -1.6636 -0.9116
  187MOL0     H25195   1.184   2.516  10.261 -2.1299 -1.5109  2.6002
  187MOL0     H25196   1.253   2.728  10.570  1.2013  2.3434  0.4189
  187MOL0     H25197   1.063   3.063  10.548  0.8881  0.9827  0.6550
  187MOL0     H25198   1.131   2.959  10.667 -1.6106  1.4997  0.5249
  187MOL0     H25199   1.293   3.115  10.435 -0.3078 -0.1309 -0.5426
  187MOL0     H25200   1.373   2.997  10.532 -1.5691 -0.4869  0.3740
  187MOL0     H25201   1.424   3.189  10.647 -0.1221  3.3674 -1.3050
  187MOL0     H25202   1.274   3.130  10.735 -4.6196 -1.0190 -2.5188
  187MOL0     H25203   1.138   3.273  10.611 -0.1516  0.9748  0.1037
  187MOL0     H25204   1.271   3.313  10.496 -1.8136 -3.8362 -1.0293
  187MOL0     H25205   1.134   3.487  10.878  1.2448  0.3733 -0.6749
  187MOL0     H25206   0.875   3.729  10.930  0.7243  0.4985  0.2502
  187MOL0     H25207   0.818   3.559  10.919  0.0067 -0.0697 -1.1818
  187MOL0     H25208   0.963   3.604  11.005 -0.4876  2.4600 -0.0427
  187MOL0     H25209   0.631   3.940  10.610  2.3715 -0.5672  0.1580
  187MOL0     H25210   0.449   4.048  10.529 -1.3102  0.5317 -1.7692
  187MOL0     H25211   0.361   4.048  10.116 -1.6412  1.3264 -1.7010
  187MOL0     H25212   0.297   3.883  10.106 -1.7622  0.8386 -2.2217
  187MOL0     H25213   0.138   4.141  10.158 -0.2116 -2.0169  3.4969
  187MOL0     H25214   0.154   4.050  10.003  1.2491  1.6433 -0.8427
  187MOL0     H25215   0.024   3.996  10.275  0.7944 -0.3988  0.4401
  187MOL0     H25216   0.069   3.848  10.182 -5.2700 -1.4550 -2.0031
  187MOL0     H25217  -0.087   4.091  10.087  3.8079 -0.1565  0.9094
  187MOL0     H25218  -0.083   3.944   9.995 -3.1652  0.7842 -1.0884
  187MOL0     H25219  -0.296   3.967  10.129  0.0647  0.9208  1.0487
  187MOL0     H25220  -0.207   3.964  10.280  3.0751 -0.7024 -0.5181
  187MOL0     H25221  -0.123   3.734  10.235 -1.5400 -0.3713  1.4859
  187MOL0     H25222  -0.292   3.761  10.278 -2.6891  1.9788 -1.0022
  187MOL0     H25223  -0.169   3.725   9.995 -0.5954  1.0341 -0.8980
  187MOL0     H25224  -0.332   3.772  10.014  0.9519  1.3832  1.1227
  187MOL0     H25225  -0.291   3.527   9.953  0.1205 -1.6003 -0.1181
  187MOL0     H25226  -0.396   3.559  10.093 -0.1356  0.2324 -1.2592
  187MOL0     H25227   0.426   3.736  10.204 -0.5500 -1.3048  0.7898
  187MOL0     H25228   0.646   3.673  10.279 -2.2273  0.1122 -1.7908
  187MOL0     H25229   0.983   3.660  10.442 -0.5142 -0.0572  0.4930
  187MOL0     H25230   1.188   3.536  10.448  0.9098  4.4193 -0.8087
  187MOL0     H25231   2.287   3.064  10.226 -0.7619 -1.2337  2.2115
  187MOL0     H25232   2.549   3.021  10.225  3.0533 -2.0470 -1.3968
  187MOL0     H25233   2.924   2.864  10.175 -1.3291  0.0434 -0.4479
  187MOL0     H25234   3.158   2.846  10.149 -1.0391  3.4659  0.0709
  187MOL0     H25235   3.352   2.739  10.093  0.2975  1.8613  1.5676
  187MOL0     H25236   3.480   2.742   9.964  1.2736  2.6373 -1.4030
  187MOL0     H25237   3.338   2.983  10.086 -1.6434 -2.0181  1.8712
  187MOL0     H25238   3.446   2.985   9.946  1.6907 -0.9238 -1.1405
  187MOL0     H25239   3.629   2.885  10.093  0.2808 -1.4075  2.3551
  187MOL0     H25240   3.510   2.866  10.217  1.2114 -1.7353 -0.1619
  187MOL0     H25241   3.648   3.059  10.253 -1.1222 -0.5634  1.4610
  187MOL0     H25242   3.465   3.094  10.236  0.0567 -0.1350 -0.3041
  187MOL0     H25243   3.632   3.369   9.987  1.1650 -0.6445 -0.3124
  187MOL0     H25244   3.098   2.743   9.736 -1.8046 -1.4840 -0.2632
  187MOL0     H25245   2.861   2.756   9.756  1.2279  0.8152 -1.0004
  188MOL0     O25246  10.425   7.816   3.272  0.3168  0.1235 -0.3766
  188MOL0     C25247  10.489   7.733   3.335  0.2525 -0.4047  0.0494
  188MOL0     O25248  10.597   7.761   3.411  0.1054 -0.0811  0.5196
  188MOL0     C25249  10.654   7.878   3.438 -0.5882  0.1044 -0.0820
  188MOL0     C25250  10.790   7.872   3.460  0.3168 -0.9895 -0.6584
  188MOL0     C25251  10.861   7.985   3.487 -1.0908  0.1506  0.2341
  188MOL0     C25252  10.809   8.116   3.470  0.0921 -0.4878  0.0140
  188MOL0     O25253  10.874   8.235   3.476 -0.1593  0.3950 -0.8357
  188MOL0     C25254  11.026   8.247   3.497  0.1987 -0.1248  0.2885
  188MOL0     C25255  11.059   8.399   3.491 -0.6912 -0.0185 -0.2126
  188MOL0     C25256  10.946   8.493   3.519  0.2027 -0.5053 -0.4644
  188MOL0     C25257  10.995   8.638   3.482 -0.1245  0.7308  0.5500
  188MOL0     C25258  10.992   8.663   3.328  0.0258  0.1456 -0.7196
  188MOL0     C25259  11.021   8.810   3.302  0.3804  0.1948  0.5103
  188MOL0     C25260  11.163   8.844   3.338  0.1259 -0.4066  0.2129
  188MOL0     C25261  11.181   8.937   3.449  0.6102  0.7452  0.5563
  188MOL0     N25262  11.313   8.915   3.495 -0.8651 -0.0458  0.1199
  188MOL0     C25263  11.437   8.934   3.427  0.2529  0.1262 -0.4656
  188MOL0     C25264  11.527   8.849   3.486 -0.1398 -0.8483 -0.0572
  188MOL0     C25265  11.670   8.824   3.447 -0.7475 -1.0800 -0.4958
  188MOL0     C25266  11.693   8.721   3.341  0.1450 -0.3426 -0.4686
  188MOL0     C25267  11.627   8.586   3.365  0.3199 -0.6419 -0.5949
  188MOL0     C25268  11.661   8.489   3.252 -0.0500  0.0472  0.1108
  188MOL0     O25269  11.654   8.538   3.111 -0.1017  0.0394  0.2930
  188MOL0     C25270  11.540   8.569   3.046 -0.5668 -0.3911 -0.0195
  188MOL0     C25271  11.542   8.592   2.908  0.2066 -1.0965  0.0009
  188MOL0     C25272  11.429   8.641   2.833  0.7234  0.3812 -0.8458
  188MOL0     C25273  11.441   8.665   2.683  0.1365 -0.1891 -0.5074
  188MOL0     C25274  11.304   8.644   2.907 -0.7999 -0.5953 -1.0746
  188MOL0     C25275  11.177   8.670   2.841 -1.0198  0.1616 -0.9385
  188MOL0     O25276  11.090   8.751   2.903  0.3403  0.2494  0.7692
  188MOL0     C25277  11.006   8.827   2.825 -0.5601 -0.1627 -0.0330
  188MOL0     C25278  10.888   8.872   2.884 -1.0960  0.1982 -1.1164
  188MOL0     C25279  10.800   8.960   2.823 -0.2185 -0.0994  0.7791
  188MOL0     C25280  10.827   9.005   2.689 -0.3009  0.0918 -0.4405
  188MOL0     O25281  10.728   9.054   2.608 -0.6052 -0.0193  0.3720
  188MOL0     C25282  10.598   9.075   2.664 -0.1328  0.5404 -0.4183
  188MOL0     C25283  10.513   9.141   2.559  0.8795 -0.0600 -0.3021
  188MOL0     C25284  10.362   9.125   2.593  0.4044 -0.2336 -0.3003
  188MOL0     C25285  10.267   9.241   2.554 -0.9594  0.1739 -0.5693
  188MOL0     C25286  10.267   9.349   2.661  0.7971  0.6103  0.6399
  188MOL0     C25287  10.154   9.458   2.630  0.0364 -0.8819 -0.1968
  188MOL0     C25288  10.207   9.570   2.555 -1.0325 -0.6000  0.4896
  188MOL0     C25289  10.094   9.641   2.478 -0.0054 -0.3727  0.8511
  188MOL0    Cl25290   9.976   9.702   2.588 -0.3468  0.2174  0.1769
  188MOL0     C25291  10.945   8.963   2.631  0.2752  0.3590 -0.1200
  188MOL0     C25292  11.038   8.880   2.700  0.0730 -0.7313  0.0737
  188MOL0     O25293  11.160   8.612   2.731  0.4326 -0.2935  0.2050
  188MOL0     C25294  11.300   8.624   3.043 -0.9448  0.7865  0.7922
  188MOL0     C25295  11.416   8.585   3.110  0.3180  1.0760 -0.0839
  188MOL0     N25296  11.464   8.785   3.591 -0.2423  0.1074  0.1749
  188MOL0     N25297  11.337   8.819   3.586  0.2553 -0.2138  1.3793
  188MOL0     C25298  10.671   8.116   3.441  0.3559 -0.5969 -0.5493
  188MOL0     C25299  10.594   8.002   3.426 -0.9668  0.1879 -0.8183
  188MOL0     C25300  10.425   7.602   3.344  0.4990 -0.2251  0.5864
  188MOL0     C25301  10.441   7.529   3.463 -0.2003  0.0516  0.2357
  188MOL0     C25302  10.387   7.402   3.479 -0.4036 -0.3078 -0.4778
  188MOL0     C25303  10.313   7.345   3.373 -0.3680  0.4428  0.4441
  188MOL0     O25304  10.268   7.218   3.391  0.3990 -0.1389  0.2305
  188MOL0     C25305  10.162   7.179   3.298 -0.5185 -0.7069 -0.7261
  188MOL0     C25306  10.125   7.033   3.330 -0.2110  0.3671 -0.0474
  188MOL0     C25307  10.254   6.945   3.358  1.2629  0.1730  0.7054
  188MOL0     C25308  10.298   6.951   3.501 -1.0327  0.7223 -0.5874
  188MOL0     C25309  10.246   6.831   3.571 -0.5845 -0.5149 -0.0498
  188MOL0     C25310  10.189   6.734   3.614  0.8161 -0.8219  0.7015
  188MOL0     C25311  10.289   7.417   3.262  0.2126 -0.6814  0.1970
  188MOL0     C25312  10.346   7.548   3.245 -0.1596 -0.5478  0.9264
  188MOL0     H25313  10.845   7.779   3.459  0.7136 -0.7571 -2.1322
  188MOL0     H25314  10.963   7.990   3.524  0.1324  3.6685 -2.9079
  188MOL0     H25315  11.050   8.210   3.597 -0.2695  2.9589  1.6561
  188MOL0     H25316  11.070   8.190   3.416 -1.3762  0.0350 -0.7191
  188MOL0     H25317  11.144   8.406   3.560 -0.0939  2.1329 -1.0971
  188MOL0     H25318  11.100   8.428   3.394  0.2757  0.7722  0.4086
  188MOL0     H25319  10.859   8.476   3.456  0.9417 -2.7288 -0.9721
  188MOL0     H25320  10.910   8.487   3.622 -3.2311  2.5701 -1.2635
  188MOL0     H25321  10.918   8.706   3.520  2.1194  2.9747  1.3784
  188MOL0     H25322  11.090   8.656   3.532 -0.3059  0.1614  1.1054
  188MOL0     H25323  11.071   8.606   3.277 -1.1775 -0.5744 -1.8304
  188MOL0     H25324  10.896   8.635   3.285 -1.3176 -0.2332  2.2754
  188MOL0     H25325  10.999   8.845   3.201 -0.9754  1.0288  1.0749
  188MOL0     H25326  10.955   8.868   3.367 -1.9043  0.6467 -2.0697
  188MOL0     H25327  11.218   8.750   3.351 -0.6525 -1.4525 -3.1729
  188MOL0     H25328  11.211   8.886   3.249  1.6620 -1.3757  0.5298
  188MOL0     H25329  11.112   8.930   3.533  1.3643 -1.1298  1.0664
  188MOL0     H25330  11.165   9.038   3.408 -0.0682  2.2753  4.2343
  188MOL0     H25331  11.454   8.996   3.340 -1.1322 -0.9947 -1.5834
  188MOL0     H25332  11.702   8.924   3.418 -0.7837 -1.1492 -0.7795
  188MOL0     H25333  11.721   8.804   3.542 -1.7714  0.3100  0.3765
  188MOL0     H25334  11.800   8.701   3.333  0.5048 -0.2399  2.6793
  188MOL0     H25335  11.661   8.767   3.247  4.5915  2.2227 -1.0232
  188MOL0     H25336  11.518   8.598   3.371  0.0889 -1.0934 -2.8530
  188MOL0     H25337  11.660   8.550   3.463 -1.9127  0.4759  0.6395
  188MOL0     H25338  11.599   8.399   3.257  1.8640 -1.3042  1.0186
  188MOL0     H25339  11.765   8.462   3.274  0.1829  2.5889  2.6395
  188MOL0     H25340  11.637   8.584   2.858  0.9890  0.4871  1.1360
  188MOL0     H25341  11.451   8.568   2.634 -5.2152 -0.7399 -1.0487
  188MOL0     H25342  11.353   8.721   2.650 -0.4408 -2.7184 -3.7196
  188MOL0     H25343  11.531   8.725   2.668 -1.0857  1.9838  0.2881
  188MOL0     H25344  10.876   8.851   2.990  3.8455  1.4247 -0.0597
  188MOL0     H25345  10.714   8.989   2.882 -0.6527 -0.2464  0.2372
  188MOL0     H25346  10.562   8.978   2.701  4.1959 -1.3728 -0.5391
  188MOL0     H25347  10.599   9.137   2.754 -0.0369 -1.3338  0.9557
  188MOL0     H25348  10.542   9.246   2.555  0.1253  0.3496  2.3865
  188MOL0     H25349  10.526   9.103   2.458 -2.0088 -1.1866 -0.3635
  188MOL0     H25350  10.365   9.120   2.702  3.1859  2.4680 -0.0883
  188MOL0     H25351  10.323   9.036   2.542 -4.5768  0.3389  1.9295
  188MOL0     H25352  10.298   9.291   2.462 -2.0691 -0.3261 -1.2225
  188MOL0     H25353  10.169   9.195   2.539 -1.1885  0.2783  0.4894
  188MOL0     H25354  10.367   9.393   2.659  0.9933  0.2546  1.8691
  188MOL0     H25355  10.246   9.312   2.762 -2.0072 -1.8065 -0.6735
  188MOL0     H25356  10.067   9.420   2.576 -0.1497  0.1341 -0.6378
  188MOL0     H25357  10.111   9.490   2.725  0.0707 -3.3088  0.7202
  188MOL0     H25358  10.283   9.532   2.486 -1.3429 -0.2964 -0.0270
  188MOL0     H25359  10.242   9.633   2.637 -2.5823  0.1618  0.6057
  188MOL0     H25360  10.046   9.571   2.409  1.0531  0.1317 -0.4632
  188MOL0     H25361  10.142   9.715   2.413  0.8742 -1.4884  0.1833
  188MOL0     H25362  10.964   8.991   2.528  0.6840  1.8744  0.3365
  188MOL0     H25363  11.119   8.846   2.636 -1.0838 -1.2221 -1.1851
  188MOL0     H25364  11.203   8.625   3.091 -1.4022  1.8514 -0.1195
  188MOL0     H25365  11.409   8.565   3.216  1.1690 -2.2570 -0.5391
  188MOL0     H25366  10.621   8.211   3.427  2.5819  0.6702 -0.4253
  188MOL0     H25367  10.489   8.003   3.398 -0.2163 -2.0974 -4.3546
  188MOL0     H25368  10.506   7.568   3.541  0.7395 -1.1709  0.0997
  188MOL0     H25369  10.401   7.346   3.571 -1.4253 -0.1692 -0.2310
  188MOL0     H25370  10.072   7.240   3.302  0.7782  1.2413  3.4466
  188MOL0     H25371  10.204   7.183   3.197  1.2283  3.1404 -0.0180
  188MOL0     H25372  10.072   7.000   3.240 -0.6728  0.9650  0.0029
  188MOL0     H25373  10.056   7.030   3.414  0.8675 -2.9582  0.8746
  188MOL0     H25374  10.342   6.990   3.310  1.2860  0.1736  0.7469
  188MOL0     H25375  10.241   6.844   3.317  0.5186  0.7097 -0.4278
  188MOL0     H25376  10.266   7.045   3.545 -1.2408  0.6016 -0.4796
  188MOL0     H25377  10.407   6.953   3.502 -0.9824 -0.4486  1.8613
  188MOL0     H25378  10.127   6.655   3.651 -1.7201  0.3967 -0.6356
  188MOL0     H25379  10.211   7.395   3.191  0.4900 -1.0191 -0.0027
  188MOL0     H25380  10.319   7.596   3.151 -1.3943 -0.7263  1.1757
  189MOL0     O25381   3.591   0.845   9.914  0.2780  0.0356  0.6437
  189MOL0     C25382   3.634   0.922   9.825  0.3340  0.1645  0.2178
  189MOL0     O25383   3.560   1.009   9.751  0.4404 -0.5278 -0.1298
  189MOL0     C25384   3.426   1.008   9.776  0.7303 -0.1696 -0.1207
  189MOL0     C25385   3.364   1.118   9.825  0.1263 -0.2820  0.2342
  189MOL0     C25386   3.225   1.133   9.834  0.9565 -0.3888 -0.5284
  189MOL0     C25387   3.144   1.022   9.798 -0.1761  0.1834 -0.0522
  189MOL0     O25388   3.008   1.027   9.829 -0.4727 -0.1989  0.6180
  189MOL0     C25389   2.936   0.913   9.839 -0.3930 -0.2694  0.8333
  189MOL0     C25390   2.790   0.949   9.850  0.3095  0.6789 -0.2433
  189MOL0     C25391   2.755   0.962  10.001  0.5352 -0.4408 -0.1484
  189MOL0     C25392   2.600   0.960  10.018 -0.3291  0.3881  0.2467
  189MOL0     C25393   2.552   1.010  10.150 -0.8167  0.0421 -0.7027
  189MOL0     C25394   2.588   1.155  10.194 -0.7279  0.0946  0.3845
  189MOL0     C25395   2.481   1.229  10.275  0.1513  0.1010 -0.0788
  189MOL0     C25396   2.464   1.206  10.421  0.2076  0.1402  0.4105
  189MOL0     N25397   2.560   1.287  10.505  0.4527  1.1006  0.3809
  189MOL0     C25398   2.537   1.402  10.574 -0.6488 -0.5236  0.1539
  189MOL0     C25399   2.648   1.428  10.644 -0.3075 -0.2874  0.1088
  189MOL0     C25400   2.684   1.547  10.731 -0.1946  0.0456  0.4654
  189MOL0     C25401   2.709   1.679  10.657  0.3516  0.6355  0.0340
  189MOL0     C25402   2.778   1.770  10.752  0.1711 -0.2803 -0.7140
  189MOL0     C25403   2.671   1.853  10.827  0.0864 -0.2291  0.1156
  189MOL0     O25404   2.608   1.777  10.931  0.2187 -0.5096  0.5609
  189MOL0     C25405   2.547   1.837  11.032 -0.2250  1.0973  0.0481
  189MOL0     C25406   2.500   1.968  11.030 -0.1299 -0.1284 -0.5525
  189MOL0     C25407   2.436   2.032  11.135 -1.2925  0.7697  0.4035
  189MOL0     C25408   2.393   2.169  11.118  0.5285  0.4424  0.5284
  189MOL0     C25409   2.424   1.964  11.259  0.1006 -0.0064 -0.4276
  189MOL0     C25410   2.354   2.018  11.383 -0.6648  0.3955  0.0409
  189MOL0     O25411   2.361   2.151  11.409  0.1912 -0.6024  0.3518
  189MOL0     C25412   2.262   2.220  11.476  0.6450  0.4904  0.5210
  189MOL0     C25413   2.134   2.167  11.516 -0.3139  0.3292 -1.0878
  189MOL0     C25414   2.024   2.253  11.556 -0.3832  0.2687 -0.7711
  189MOL0     C25415   2.049   2.397  11.578 -0.0827  0.3344 -0.3116
  189MOL0     O25416   1.959   2.488  11.609  0.0293 -0.4942 -0.5402
  189MOL0     C25417   1.839   2.436  11.672  0.5854 -0.4649 -0.4519
  189MOL0     C25418   1.760   2.555  11.733  0.7382  0.4362  0.4746
  189MOL0     C25419   1.631   2.523  11.810 -0.3741  0.6323  0.1453
  189MOL0     C25420   1.564   2.644  11.868 -0.3941  0.4607 -1.3950
  189MOL0     C25421   1.667   2.733  11.944  0.3780  0.9633 -0.4574
  189MOL0     C25422   1.594   2.815  12.043 -0.3940 -0.4216 -0.2040
  189MOL0     C25423   1.464   2.870  12.004  0.6823  0.2382 -1.0016
  189MOL0     C25424   1.395   2.961  12.108 -0.4927  0.0982  1.2768
  189MOL0    Cl25425   1.381   2.865  12.266  0.6260  0.0512 -0.0182
  189MOL0     C25426   2.168   2.447  11.524 -0.1171  0.3127 -0.9300
  189MOL0     C25427   2.274   2.360  11.480  0.4718 -0.3463 -0.0261
  189MOL0     O25428   2.288   1.929  11.441  0.6194 -0.5670 -0.2816
  189MOL0     C25429   2.459   1.826  11.262  0.6232 -0.7920 -0.1445
  189MOL0     C25430   2.526   1.772  11.157  0.2080 -0.3713  0.5734
  189MOL0     N25431   2.734   1.326  10.614 -0.0430  0.2223  0.4141
  189MOL0     N25432   2.681   1.242  10.528 -0.1341 -0.5712  0.1988
  189MOL0     C25433   3.212   0.911   9.742  0.8775  0.0743 -0.1687
  189MOL0     C25434   3.344   0.911   9.722 -0.3916  0.3768  0.2194
  189MOL0     C25435   3.785   0.926   9.813 -0.7303  0.0262  0.0906
  189MOL0     C25436   3.857   0.835   9.890  0.0375  0.0948  0.3561
  189MOL0     C25437   4.000   0.845   9.873 -0.3778 -0.1733  0.0081
  189MOL0     C25438   4.068   0.933   9.782  0.0754 -0.2124 -0.3067
  189MOL0     O25439   4.203   0.924   9.758  0.5200 -0.5838 -0.5855
  189MOL0     C25440   4.282   0.970   9.864 -0.0867  0.2431  0.4897
  189MOL0     C25441   4.355   1.103   9.819  0.1932 -0.0489  0.6485
  189MOL0     C25442   4.464   1.093   9.712 -0.5857 -0.9946 -0.0272
  189MOL0     C25443   4.546   0.970   9.733 -0.4316 -0.4318  0.2457
  189MOL0     C25444   4.661   0.964   9.641 -0.5016 -0.7591  0.5546
  189MOL0     C25445   4.737   0.958   9.553 -0.2911  1.1870  0.3291
  189MOL0     C25446   3.982   1.008   9.701 -0.2707  1.1079  0.3756
  189MOL0     C25447   3.842   1.013   9.715  0.0535 -0.2681  0.2688
  189MOL0     H25448   3.414   1.207   9.861  0.4375 -0.1827 -0.4353
  189MOL0     H25449   3.183   1.223   9.878 -1.5731 -2.5637  1.9036
  189MOL0     H25450   2.939   0.847   9.752 -1.0632  2.0662 -1.0783
  189MOL0     H25451   2.973   0.859   9.927 -1.8690 -0.4060  1.4138
  189MOL0     H25452   2.753   1.032   9.790 -0.5000 -0.8610 -1.9864
  189MOL0     H25453   2.739   0.861   9.809  2.2400 -1.2316  1.2006
  189MOL0     H25454   2.798   0.882  10.061  2.2499 -0.5308 -1.4235
  189MOL0     H25455   2.796   1.057  10.036 -1.9584  2.3119 -3.9042
  189MOL0     H25456   2.556   1.036   9.953 -1.2542 -0.4613 -0.1451
  189MOL0     H25457   2.562   0.863   9.985  0.6453  0.7433 -2.0943
  189MOL0     H25458   2.443   1.001  10.145 -0.6085 -2.5799 -2.4893
  189MOL0     H25459   2.593   0.937  10.220 -1.4550  0.8130  0.5233
  189MOL0     H25460   2.679   1.152  10.255 -1.4814  0.7107  1.5751
  189MOL0     H25461   2.603   1.226  10.112 -1.4043 -0.3039 -0.0876
  189MOL0     H25462   2.485   1.336  10.254 -1.0837  0.1472 -0.1604
  189MOL0     H25463   2.390   1.206  10.220  0.3860  0.7131 -0.7469
  189MOL0     H25464   2.475   1.099  10.438  0.1658 -0.1251 -1.1153
  189MOL0     H25465   2.366   1.241  10.455  1.1604  2.8815  0.5782
  189MOL0     H25466   2.443   1.453  10.591  0.1851  0.8910  0.7310
  189MOL0     H25467   2.602   1.572  10.799  1.3850  2.7183  1.5859
  189MOL0     H25468   2.766   1.516  10.796 -1.3745  0.0316  2.0110
  189MOL0     H25469   2.618   1.725  10.617  0.1356 -1.1036 -1.6714
  189MOL0     H25470   2.770   1.651  10.571  3.3544 -4.6081  3.3266
  189MOL0     H25471   2.840   1.835  10.688 -1.2462  1.0062 -0.8274
  189MOL0     H25472   2.846   1.724  10.824 -1.9046  2.2168  3.2241
  189MOL0     H25473   2.600   1.905  10.763 -1.0435 -0.3168  1.2529
  189MOL0     H25474   2.735   1.930  10.871  0.7704 -2.5283  3.5879
  189MOL0     H25475   2.496   2.026  10.938 -4.7125 -0.6827 -0.9265
  189MOL0     H25476   2.293   2.175  11.163 -0.0770  0.4290 -0.7756
  189MOL0     H25477   2.453   2.239  11.176  0.5202  1.2533 -0.4186
  189MOL0     H25478   2.381   2.191  11.012 -0.1152  1.9184  0.8755
  189MOL0     H25479   2.110   2.062  11.523 -0.3414  0.4265  3.0409
  189MOL0     H25480   1.923   2.219  11.578  0.1907  0.9397  3.9941
  189MOL0     H25481   1.776   2.387  11.597 -1.8850 -0.8322  1.6901
  189MOL0     H25482   1.856   2.362  11.751  0.0385  0.6493  0.7390
  189MOL0     H25483   1.832   2.606  11.798  0.2171  0.1282  1.3027
  189MOL0     H25484   1.738   2.629  11.656 -0.8528  0.2195  0.6951
  189MOL0     H25485   1.653   2.452  11.891 -1.1415 -1.3312 -1.2932
  189MOL0     H25486   1.558   2.478  11.742 -1.1948  1.9817  0.0999
  189MOL0     H25487   1.518   2.704  11.788  0.9436  2.1207 -0.9604
  189MOL0     H25488   1.486   2.603  11.933  0.7367  3.1183  1.9207
  189MOL0     H25489   1.703   2.800  11.865  3.0223 -0.8765 -0.9448
  189MOL0     H25490   1.751   2.691  11.999  0.3157  2.6441  1.0062
  189MOL0     H25491   1.563   2.744  12.121 -2.8250 -0.1878 -0.8780
  189MOL0     H25492   1.655   2.894  12.088  0.0297 -1.4667  1.1466
  189MOL0     H25493   1.394   2.789  11.984 -0.1400  0.5499  0.4311
  189MOL0     H25494   1.474   2.939  11.920  1.8451 -0.5398 -1.5190
  189MOL0     H25495   1.300   2.995  12.064  0.5361  1.1080 -0.2565
  189MOL0     H25496   1.449   3.055  12.126 -1.8509  1.1097  0.3784
  189MOL0     H25497   2.189   2.553  11.526  2.5554 -0.1373  0.7933
  189MOL0     H25498   2.365   2.415  11.461  0.0376  1.7769  3.2015
  189MOL0     H25499   2.454   1.763  11.350  2.6347 -0.0375  0.5685
  189MOL0     H25500   2.562   1.672  11.177  1.7799 -0.4069 -1.9625
  189MOL0     H25501   3.161   0.823   9.705  0.8522  0.2264 -0.5071
  189MOL0     H25502   3.386   0.820   9.679  0.6305 -0.0967  2.0966
  189MOL0     H25503   3.809   0.767   9.960 -1.3925 -0.8314 -1.4181
  189MOL0     H25504   4.067   0.768   9.911  3.4503  1.0883 -3.4026
  189MOL0     H25505   4.215   0.987   9.949 -0.0610 -2.8609  1.2560
  189MOL0     H25506   4.352   0.892   9.896  1.2626  1.3523  0.3791
  189MOL0     H25507   4.397   1.132   9.916 -2.4619 -3.6182  3.1380
  189MOL0     H25508   4.278   1.174   9.791  0.1906 -0.0715  0.5971
  189MOL0     H25509   4.533   1.176   9.728 -0.1772 -1.7601  2.8489
  189MOL0     H25510   4.432   1.098   9.608  1.3254 -0.6460 -0.6410
  189MOL0     H25511   4.482   0.881   9.722  0.7081 -1.4302  1.3807
  189MOL0     H25512   4.581   0.960   9.836  1.4609 -2.2987 -0.5115
  189MOL0     H25513   4.808   0.961   9.472  1.4057  0.0722  1.6943
  189MOL0     H25514   4.033   1.085   9.644 -0.6746  1.3294  0.3113
  189MOL0     H25515   3.787   1.082   9.652 -0.9665 -1.5701 -0.3329
  190MOL0     O25516  11.188   3.578   4.255  0.3703  0.2731  0.2346
  190MOL0     C25517  11.301   3.556   4.210 -0.1848 -0.6062  0.0470
  190MOL0     O25518  11.362   3.431   4.203  0.5667 -0.5642  0.3953
  190MOL0     C25519  11.289   3.317   4.251  0.7463 -0.2033 -0.0836
  190MOL0     C25520  11.208   3.322   4.366 -0.3512  0.3734  0.4730
  190MOL0     C25521  11.142   3.209   4.414  0.1688  0.2376  0.3528
  190MOL0     C25522  11.147   3.086   4.344  0.3766  0.3557 -0.5160
  190MOL0     O25523  11.069   2.981   4.391 -0.0196  0.1711  0.4686
  190MOL0     C25524  10.933   3.004   4.445  0.9198 -0.1736 -0.7462
  190MOL0     C25525  10.840   2.899   4.385 -0.5523 -0.1028  0.2364
  190MOL0     C25526  10.692   2.918   4.435 -0.2489  1.0432 -0.2090
  190MOL0     C25527  10.590   2.881   4.322  0.0991 -1.2170 -0.5046
  190MOL0     C25528  10.450   2.882   4.385 -0.0374  0.1411 -0.5134
  190MOL0     C25529  10.350   2.869   4.275  0.3456  0.3048  0.0252
  190MOL0     C25530  10.205   2.878   4.328  0.3483 -0.0834 -0.5289
  190MOL0     C25531  10.167   3.030   4.351 -0.7773  0.4393 -0.6103
  190MOL0     N25532  10.020   3.029   4.359  0.1442 -0.0934  0.2958
  190MOL0     C25533   9.934   3.060   4.257 -0.4120 -0.6630  0.8534
  190MOL0     C25534   9.812   3.052   4.313  0.4391 -0.2554 -0.3660
  190MOL0     C25535   9.687   3.083   4.235  0.3230 -0.7414  0.3785
  190MOL0     C25536   9.581   2.970   4.236 -0.0602  0.8419  0.7688
  190MOL0     C25537   9.610   2.854   4.135 -0.7095 -0.1433  0.3962
  190MOL0     C25538   9.509   2.738   4.142  0.2248  0.4325  0.6769
  190MOL0     O25539   9.380   2.785   4.069 -0.7512  0.4342 -0.2817
  190MOL0     C25540   9.280   2.693   4.062 -0.4231  0.4655  1.0960
  190MOL0     C25541   9.179   2.736   3.977  0.0668  0.5353 -0.4321
  190MOL0     C25542   9.066   2.661   3.955  0.3512 -0.5630  0.6360
  190MOL0     C25543   8.967   2.716   3.856 -0.4942 -0.2965  0.2993
  190MOL0     C25544   9.050   2.539   4.025  0.5766  0.3698  0.2376
  190MOL0     C25545   8.919   2.462   4.043  0.2486  0.4301  0.9477
  190MOL0     O25546   8.920   2.327   4.059 -0.6583 -0.7112 -0.2838
  190MOL0     C25547   8.795   2.263   4.091 -1.1554  0.0848 -0.0241
  190MOL0     C25548   8.687   2.255   4.007 -0.1930  0.1536 -0.1171
  190MOL0     C25549   8.571   2.198   4.053 -0.0818  0.3748  0.1435
  190MOL0     C25550   8.553   2.170   4.187  0.7238  0.1236 -0.1625
  190MOL0     O25551   8.425   2.139   4.234 -0.4374  0.4404  0.4375
  190MOL0     C25552   8.411   2.119   4.372  0.5705  0.2996  0.3644
  190MOL0     C25553   8.273   2.086   4.411 -0.3577  0.0258 -0.8307
  190MOL0     C25554   8.221   1.959   4.353 -0.7858  0.4182 -0.5478
  190MOL0     C25555   8.099   1.899   4.429 -0.6723  0.6589 -0.2781
  190MOL0     C25556   7.978   1.998   4.464 -0.1878  0.1168  0.5129
  190MOL0     C25557   7.919   2.058   4.334  0.1770  0.7662 -1.0048
  190MOL0     C25558   7.797   2.142   4.375 -0.3891 -0.1486 -0.1658
  190MOL0     C25559   7.698   2.056   4.449 -0.7899  0.1153 -0.1655
  190MOL0    Cl25560   7.534   2.107   4.411 -0.3200  0.0629 -0.0015
  190MOL0     C25561   8.667   2.177   4.268  0.3324 -0.0073  0.4462
  190MOL0     C25562   8.789   2.227   4.228  0.5409 -0.4294  0.3530
  190MOL0     O25563   8.816   2.521   4.034  0.9275 -0.3654  0.1130
  190MOL0     C25564   9.155   2.488   4.109  0.0958  0.3818  0.3290
  190MOL0     C25565   9.273   2.564   4.119 -0.0698  0.5722  1.2429
  190MOL0     N25566   9.823   3.013   4.451  0.1861  0.0190 -0.2428
  190MOL0     N25567   9.950   2.998   4.472 -0.5254  0.9282  0.2957
  190MOL0     C25568  11.223   3.071   4.226 -0.4898  0.1078 -0.9075
  190MOL0     C25569  11.300   3.187   4.189 -0.1669 -0.5241  0.5048
  190MOL0     C25570  11.389   3.668   4.158 -0.0055  0.2589 -1.4395
  190MOL0     C25571  11.522   3.640   4.121  0.0010 -0.5362 -0.2000
  190MOL0     C25572  11.603   3.744   4.068  0.6941 -0.2912 -0.4337
  190MOL0     C25573  11.551   3.877   4.048  0.4971  0.2782 -0.1227
  190MOL0     O25574  11.635   3.961   3.993  0.2663  0.7353  0.0347
  190MOL0     C25575  11.595   4.095   3.950  0.6312  0.4867 -0.8407
  190MOL0     C25576  11.717   4.172   3.943 -1.2616  0.3173 -0.0754
  190MOL0     C25577  11.793   4.106   3.826 -0.2957 -0.4026  0.3457
  190MOL0     C25578  11.904   4.199   3.782 -0.3611 -0.9979  0.5253
  190MOL0     C25579  12.012   4.227   3.880 -0.5528 -0.1333  0.2953
  190MOL0     C25580  12.087   4.268   3.971 -0.2850  0.9464 -0.9209
  190MOL0     C25581  11.423   3.896   4.074  0.0476 -0.1131  0.3522
  190MOL0     C25582  11.340   3.800   4.128 -0.0964 -0.1677 -0.2703
  190MOL0     H25583  11.196   3.412   4.426 -0.7998 -1.4578  3.3142
  190MOL0     H25584  11.073   3.234   4.495 -1.6144 -0.3740 -0.9170
  190MOL0     H25585  10.927   3.007   4.555 -2.2955 -1.0953 -0.7793
  190MOL0     H25586  10.896   3.095   4.399  0.3851 -1.2321 -2.5092
  190MOL0     H25587  10.844   2.894   4.275 -0.1346  2.7726  0.0525
  190MOL0     H25588  10.881   2.803   4.419  1.5326  0.5112 -0.3655
  190MOL0     H25589  10.680   2.860   4.527  0.5995  0.3509 -0.5238
  190MOL0     H25590  10.673   3.020   4.467  2.5205  2.0224 -1.3636
  190MOL0     H25591  10.604   2.955   4.242 -1.7852  1.6527  1.6404
  190MOL0     H25592  10.613   2.778   4.293  0.3574 -1.2978 -0.0255
  190MOL0     H25593  10.450   2.796   4.452 -1.3294  2.2597  2.4814
  190MOL0     H25594  10.447   2.976   4.442  3.0513  0.5851 -0.9298
  190MOL0     H25595  10.370   2.946   4.200 -0.3882  1.0430  0.5650
  190MOL0     H25596  10.360   2.769   4.231 -0.3648 -0.4007  1.3899
  190MOL0     H25597  10.138   2.845   4.248  0.5562 -0.4253 -0.5674
  190MOL0     H25598  10.184   2.818   4.416  0.1565 -1.2083 -1.3141
  190MOL0     H25599  10.200   3.090   4.266 -0.2230  1.2446  0.1684
  190MOL0     H25600  10.217   3.056   4.445 -1.3383 -1.4596  0.2770
  190MOL0     H25601   9.957   3.081   4.153 -0.1325 -1.5091  0.7421
  190MOL0     H25602   9.636   3.169   4.279 -2.6575 -0.8646 -2.4480
  190MOL0     H25603   9.712   3.099   4.129 -0.1507  0.4462  0.4273
  190MOL0     H25604   9.483   3.011   4.210 -1.2388 -2.2827 -0.1423
  190MOL0     H25605   9.576   2.935   4.340  1.6017 -2.3641 -0.0918
  190MOL0     H25606   9.707   2.811   4.159 -1.1945 -1.2885  0.3342
  190MOL0     H25607   9.602   2.898   4.034 -2.3277  1.1947  1.0615
  190MOL0     H25608   9.489   2.696   4.241 -0.3580 -1.0253 -0.0311
  190MOL0     H25609   9.557   2.660   4.084  1.6053  0.1746  2.1094
  190MOL0     H25610   9.187   2.835   3.932 -2.6090  0.8314 -0.4121
  190MOL0     H25611   9.006   2.798   3.795  0.0355 -0.8177 -0.0753
  190MOL0     H25612   8.923   2.640   3.791 -0.0893  2.6201 -3.7914
  190MOL0     H25613   8.882   2.762   3.907  0.6305  2.0289  0.1981
  190MOL0     H25614   8.695   2.286   3.903 -0.0237 -1.6558 -0.6756
  190MOL0     H25615   8.487   2.186   3.986 -0.8462 -3.0224  1.5281
  190MOL0     H25616   8.473   2.034   4.404  0.3741 -0.4748 -1.2028
  190MOL0     H25617   8.443   2.210   4.424  2.4685  1.1662 -2.0767
  190MOL0     H25618   8.276   2.088   4.520 -0.1266 -1.6034 -0.7870
  190MOL0     H25619   8.205   2.165   4.377 -0.6612 -0.1414 -0.6187
  190MOL0     H25620   8.298   1.882   4.344 -0.1640  0.9760 -0.0815
  190MOL0     H25621   8.183   1.980   4.252  1.8946  2.1939 -1.3093
  190MOL0     H25622   8.061   1.819   4.366  2.0266 -1.4336  0.5699
  190MOL0     H25623   8.143   1.868   4.525 -0.7747  1.9287  0.1980
  190MOL0     H25624   8.018   2.090   4.508 -1.2872  2.0386 -2.2278
  190MOL0     H25625   7.912   1.952   4.537  2.0547 -1.1113  1.8670
  190MOL0     H25626   7.989   2.116   4.273 -0.4841  0.1541 -2.3863
  190MOL0     H25627   7.873   1.980   4.273  0.9678  1.7286 -2.9525
  190MOL0     H25628   7.747   2.193   4.292 -0.2637  1.0519  0.4633
  190MOL0     H25629   7.830   2.219   4.446  0.1632 -0.0076 -0.5656
  190MOL0     H25630   7.727   2.045   4.554  0.7045  0.3512 -0.5345
  190MOL0     H25631   7.722   1.957   4.412  1.6665  0.6606 -0.1647
  190MOL0     H25632   8.667   2.136   4.369  0.9573 -0.4852  0.2537
  190MOL0     H25633   8.872   2.215   4.298  0.2166 -3.5064  0.3425
  190MOL0     H25634   9.148   2.399   4.171  4.2243 -0.3281  0.0449
  190MOL0     H25635   9.362   2.525   4.167  2.7614 -1.6021 -4.6920
  190MOL0     H25636  11.219   2.978   4.171  0.7925  0.9139 -2.4609
  190MOL0     H25637  11.359   3.193   4.097 -4.3336 -0.3396 -2.4238
  190MOL0     H25638  11.564   3.542   4.139  2.3923  0.0986 -1.7686
  190MOL0     H25639  11.709   3.724   4.060  0.8363 -0.5288  1.6029
  190MOL0     H25640  11.532   4.099   3.860 -0.3269  0.4597 -0.1857
  190MOL0     H25641  11.533   4.147   4.024  2.7040  1.1855  0.4809
  190MOL0     H25642  11.758   4.178   4.045  0.4950  0.7000 -0.7652
  190MOL0     H25643  11.704   4.275   3.909 -0.2913  0.4681 -0.0123
  190MOL0     H25644  11.734   4.078   3.738  0.9118 -0.5266 -0.4396
  190MOL0     H25645  11.842   4.012   3.854  2.4545  0.7447 -0.2645
  190MOL0     H25646  11.857   4.295   3.760 -0.3309 -0.9240  0.7821
  190MOL0     H25647  11.952   4.166   3.689 -0.3676  0.8833 -0.1816
  190MOL0     H25648  12.149   4.277   4.058  1.9883 -1.1303 -2.1982
  190MOL0     H25649  11.368   3.987   4.052 -0.7635 -0.8189 -0.5953
  190MOL0     H25650  11.236   3.826   4.145 -0.0641 -0.8658  1.2118
  191MOL0     O25651   1.085   9.632   9.336 -0.3920  0.7573 -0.4523
  191MOL0     C25652   1.141   9.538   9.283  0.9506 -0.1378  0.0827
  191MOL0     O25653   1.083   9.415   9.268 -0.6105 -0.0794  0.8338
  191MOL0     C25654   0.956   9.384   9.311 -0.0246 -0.6468 -0.0433
  191MOL0     C25655   0.939   9.246   9.287  0.8572 -0.0982 -0.3310
  191MOL0     C25656   0.801   9.195   9.308 -1.1751 -0.0997  0.1203
  191MOL0     C25657   0.712   9.260   9.385 -0.1617 -0.0355  0.3652
  191MOL0     O25658   0.594   9.195   9.415  0.1438  0.4221  0.9541
  191MOL0     C25659   0.482   9.280   9.429  0.0073 -0.4976 -0.8400
  191MOL0     C25660   0.356   9.192   9.442 -0.0659  0.1684  0.5790
  191MOL0     C25661   0.325   9.133   9.304  0.1128 -0.1766 -0.3233
  191MOL0     C25662   0.210   9.030   9.312 -0.1496 -0.9236  0.9225
  191MOL0     C25663   0.069   9.085   9.358 -0.3245 -0.1675  0.0176
  191MOL0     C25664  -0.051   8.990   9.324  0.2975  0.7789  0.3167
  191MOL0     C25665  -0.182   9.067   9.318 -0.6151  0.3414  0.3790
  191MOL0     C25666  -0.190   9.153   9.180  0.3254 -0.6911 -0.1886
  191MOL0     N25667  -0.205   9.291   9.206  0.6250 -0.2896  0.0640
  191MOL0     C25668  -0.326   9.348   9.246  0.2808  0.0940 -0.6683
  191MOL0     C25669  -0.309   9.478   9.225 -0.6729  0.7292 -0.0172
  191MOL0     C25670  -0.409   9.591   9.262 -0.0767  0.7922 -0.9702
  191MOL0     C25671  -0.524   9.559   9.354  0.1251  0.3599 -0.3079
  191MOL0     C25672  -0.619   9.677   9.359  0.2895  0.3777  0.5367
  191MOL0     C25673  -0.765   9.638   9.369  0.7933 -0.0645 -0.1269
  191MOL0     O25674  -0.820   9.559   9.253  0.0370 -0.2141  0.0313
  191MOL0     C25675  -0.947   9.535   9.238 -0.0587  0.2992  0.3644
  191MOL0     C25676  -0.993   9.521   9.110  0.1091 -1.0793 -0.0246
  191MOL0     C25677  -1.129   9.501   9.078 -0.7450 -0.0172 -0.3708
  191MOL0     C25678  -1.175   9.484   8.933 -0.9159  1.2303 -0.4825
  191MOL0     C25679  -1.221   9.498   9.191  0.0843  0.0509 -0.1966
  191MOL0     C25680  -1.369   9.492   9.178  0.3470  0.4521 -0.1771
  191MOL0     O25681  -1.423   9.489   9.049 -0.1472 -0.3021 -0.5749
  191MOL0     C25682  -1.560   9.511   9.051 -1.2051 -0.3075  0.1723
  191MOL0     C25683  -1.635   9.615   9.113 -0.0530  0.2202 -0.0649
  191MOL0     C25684  -1.767   9.639   9.089 -0.1006 -0.1976 -1.0139
  191MOL0     C25685  -1.841   9.557   9.003  0.0745  0.4638 -0.3484
  191MOL0     O25686  -1.978   9.558   8.976  0.3528 -0.3139  0.7523
  191MOL0     C25687  -2.043   9.682   8.996 -0.2105 -0.1114  0.1348
  191MOL0     C25688  -2.099   9.744   8.871 -0.2919 -0.1719  1.1855
  191MOL0     C25689  -2.236   9.693   8.841  0.1133  0.5351  0.1475
  191MOL0     C25690  -2.245   9.583   8.742  0.4052  1.1287 -0.2655
  191MOL0     C25691  -2.393   9.561   8.704  0.3854  0.1778 -0.3011
  191MOL0     C25692  -2.432   9.643   8.575  0.4854  0.6529 -0.4688
  191MOL0     C25693  -2.570   9.607   8.527  0.1064 -0.6490 -0.0853
  191MOL0     C25694  -2.579   9.459   8.482  0.4851 -0.5832  0.5713
  191MOL0    Cl25695  -2.448   9.425   8.372 -0.2745 -0.6371 -0.1858
  191MOL0     C25696  -1.775   9.453   8.942  0.4018  0.6183 -0.1620
  191MOL0     C25697  -1.634   9.431   8.963 -0.3322  0.2655 -0.0917
  191MOL0     O25698  -1.426   9.478   9.290 -0.8525 -0.7005  0.6418
  191MOL0     C25699  -1.167   9.506   9.325 -0.7184  0.8778  1.0847
  191MOL0     C25700  -1.032   9.525   9.341 -0.4189  1.0645 -0.0944
  191MOL0     N25701  -0.184   9.495   9.166 -0.2583 -0.7609  0.2917
  191MOL0     N25702  -0.124   9.387   9.157  0.0453 -0.5051 -0.3139
  191MOL0     C25703   0.752   9.390   9.437  0.8624  0.2171 -0.4885
  191MOL0     C25704   0.870   9.452   9.399 -0.5075 -0.2612  0.0631
  191MOL0     C25705   1.283   9.544   9.254 -0.9394  0.8423 -0.3458
  191MOL0     C25706   1.343   9.421   9.199  0.8495  0.0602  0.2399
  191MOL0     C25707   1.484   9.413   9.174 -1.0486  0.1566 -0.0245
  191MOL0     C25708   1.569   9.525   9.188 -0.5751  0.0258  0.0496
  191MOL0     O25709   1.703   9.539   9.145  0.3726  0.4290  0.5760
  191MOL0     C25710   1.775   9.420   9.117 -0.0714  0.8974 -0.4008
  191MOL0     C25711   1.911   9.437   9.058 -1.2716  0.5745 -0.0820
  191MOL0     C25712   1.965   9.305   8.982  0.2395  0.2696  0.1610
  191MOL0     C25713   2.120   9.296   8.976  0.2168 -0.3755  0.0880
  191MOL0     C25714   2.176   9.401   8.889 -0.4153 -0.3725 -0.0359
  191MOL0     C25715   2.234   9.481   8.820 -0.6085 -0.7835 -0.2676
  191MOL0     C25716   1.515   9.644   9.236  0.6179  0.1349  0.0863
  191MOL0     C25717   1.377   9.647   9.280 -0.5386  0.0451  0.1614
  191MOL0     H25718   1.010   9.176   9.244 -1.2593 -1.8990 -1.0722
  191MOL0     H25719   0.791   9.097   9.262  2.5872 -0.2259 -0.8051
  191MOL0     H25720   0.495   9.322   9.529 -0.4091  3.4450 -2.2456
  191MOL0     H25721   0.471   9.355   9.349  1.1911 -0.1545 -0.6948
  191MOL0     H25722   0.366   9.112   9.515 -0.1561 -0.7284 -0.3665
  191MOL0     H25723   0.275   9.264   9.460  0.0252  0.1357  1.1435
  191MOL0     H25724   0.305   9.212   9.232 -0.0171  0.1262  0.0386
  191MOL0     H25725   0.415   9.077   9.276  0.0851  0.2766 -1.3601
  191MOL0     H25726   0.196   8.989   9.212  1.8358  2.5049 -0.9418
  191MOL0     H25727   0.227   8.946   9.380 -2.1778 -0.9772  1.4563
  191MOL0     H25728   0.061   9.111   9.464 -1.8616 -3.0793  0.7200
  191MOL0     H25729   0.049   9.173   9.296 -0.6609 -0.6372 -0.5381
  191MOL0     H25730  -0.032   8.945   9.226  0.8641 -0.9665  1.1870
  191MOL0     H25731  -0.054   8.904   9.391  1.2293 -1.3371 -2.1580
  191MOL0     H25732  -0.266   8.997   9.324 -0.7922  0.2165 -2.1446
  191MOL0     H25733  -0.210   9.135   9.399  0.6621 -0.4166  1.4854
  191MOL0     H25734  -0.280   9.141   9.120  1.0659  0.4853 -1.5976
  191MOL0     H25735  -0.103   9.133   9.116  1.4026  0.6312  0.7731
  191MOL0     H25736  -0.413   9.295   9.285  0.0229 -1.4869 -3.1789
  191MOL0     H25737  -0.353   9.674   9.307 -1.4901  0.8573  0.7319
  191MOL0     H25738  -0.450   9.627   9.167  0.9045 -0.6175 -1.9751
  191MOL0     H25739  -0.491   9.544   9.457  2.2473  2.3328 -0.6245
  191MOL0     H25740  -0.581   9.472   9.321  0.8994 -0.3236  0.1287
  191MOL0     H25741  -0.602   9.748   9.277  2.4167 -0.2905  0.3216
  191MOL0     H25742  -0.587   9.748   9.435  0.5899  0.3725  0.4198
  191MOL0     H25743  -0.835   9.720   9.389 -0.0279 -1.0277  1.1587
  191MOL0     H25744  -0.758   9.578   9.460  3.5858  2.4829  1.5352
  191MOL0     H25745  -0.915   9.522   9.033 -0.1540  0.6127 -0.2923
  191MOL0     H25746  -1.202   9.380   8.912 -3.7508  2.1255 -1.6261
  191MOL0     H25747  -1.259   9.548   8.904 -1.5519 -0.4232 -2.5888
  191MOL0     H25748  -1.089   9.505   8.868 -0.8110  1.6761 -0.1998
  191MOL0     H25749  -1.587   9.685   9.179 -1.9343  0.5332  1.0408
  191MOL0     H25750  -1.804   9.724   9.145 -0.2114 -0.4876 -0.6454
  191MOL0     H25751  -2.119   9.657   9.071 -0.7479 -0.5667 -0.5512
  191MOL0     H25752  -1.978   9.759   9.040  1.8813 -2.0269  0.5548
  191MOL0     H25753  -2.100   9.853   8.878 -1.1944  0.0123 -0.9218
  191MOL0     H25754  -2.032   9.705   8.793 -2.2317 -0.1953 -0.5571
  191MOL0     H25755  -2.285   9.775   8.787 -4.0104 -1.5140  0.4035
  191MOL0     H25756  -2.283   9.677   8.938  3.6687 -1.8722  1.6329
  191MOL0     H25757  -2.181   9.606   8.657  0.9215 -1.3912 -0.6486
  191MOL0     H25758  -2.219   9.487   8.788 -1.6772 -0.2511 -1.7777
  191MOL0     H25759  -2.456   9.596   8.786  0.1939 -0.7543 -0.0458
  191MOL0     H25760  -2.404   9.455   8.681  1.6959 -0.3624  1.4041
  191MOL0     H25761  -2.432   9.750   8.599 -0.8106 -0.1303  3.7539
  191MOL0     H25762  -2.363   9.628   8.491  0.0819  0.8649 -0.8442
  191MOL0     H25763  -2.598   9.669   8.442 -1.5538 -3.9565 -2.1743
  191MOL0     H25764  -2.638   9.634   8.608  0.8805  1.3146 -0.0359
  191MOL0     H25765  -2.684   9.446   8.454 -0.1866 -1.8363  3.3254
  191MOL0     H25766  -2.558   9.389   8.563 -0.2182 -1.1068  0.3132
  191MOL0     H25767  -1.836   9.400   8.869 -1.5665  0.9718  1.1586
  191MOL0     H25768  -1.586   9.355   8.902 -2.7430  0.4406 -2.4005
  191MOL0     H25769  -1.231   9.499   9.413  0.6361 -3.2753  1.9719
  191MOL0     H25770  -0.992   9.533   9.442  1.8117  2.4843 -0.9989
  191MOL0     H25771   0.676   9.443   9.492  3.5636  0.3877  3.5350
  191MOL0     H25772   0.884   9.553   9.437  0.1751 -0.3359  0.0363
  191MOL0     H25773   1.294   9.328   9.173  2.4200 -0.7003 -0.1611
  191MOL0     H25774   1.527   9.329   9.120 -2.1166 -1.5631  1.6835
  191MOL0     H25775   1.773   9.352   9.203 -0.4467  0.8701 -0.4279
  191MOL0     H25776   1.721   9.357   9.045  0.7249 -1.4576  0.9492
  191MOL0     H25777   1.983   9.460   9.137 -0.1498 -0.8034 -0.6612
  191MOL0     H25778   1.917   9.522   8.990 -0.1224  1.4723  1.0892
  191MOL0     H25779   1.919   9.293   8.883  0.0698  1.6846  0.0544
  191MOL0     H25780   1.934   9.215   9.037 -0.2246  0.5158  0.3055
  191MOL0     H25781   2.144   9.196   8.940 -0.8323 -0.4884 -0.3348
  191MOL0     H25782   2.158   9.315   9.077  1.0734  1.3778 -0.5134
  191MOL0     H25783   2.295   9.550   8.766  2.0557 -0.6443  2.5914
  191MOL0     H25784   1.588   9.724   9.246  1.9124 -0.9262 -0.5008
  191MOL0     H25785   1.345   9.741   9.325 -2.2382 -0.4457  0.0294
  192MOL0     O25786   4.268   4.055   2.467 -0.0518  0.0851  0.1722
  192MOL0     C25787   4.369   4.127   2.448 -0.0382  0.3678 -0.1012
  192MOL0     O25788   4.396   4.247   2.513  0.9889 -0.4131 -0.3874
  192MOL0     C25789   4.301   4.308   2.597  0.0212  1.0300  0.1914
  192MOL0     C25790   4.336   4.325   2.728 -0.7649 -0.2773 -1.2434
  192MOL0     C25791   4.249   4.388   2.820 -0.2570 -0.1667 -0.8108
  192MOL0     C25792   4.123   4.433   2.768 -0.1515 -0.3890 -0.7329
  192MOL0     O25793   4.025   4.480   2.851 -0.0837  0.0712  0.6828
  192MOL0     C25794   3.976   4.383   2.947 -0.7083 -0.5330 -0.6701
  192MOL0     C25795   3.847   4.420   3.020  0.3362 -0.2881  0.1310
  192MOL0     C25796   3.716   4.374   2.947 -0.2265  0.4032  0.3512
  192MOL0     C25797   3.588   4.421   3.024  0.5032  0.2458  0.2246
  192MOL0     C25798   3.460   4.362   2.961  0.9608 -0.6328 -0.4230
  192MOL0     C25799   3.345   4.355   3.059 -0.0830  0.3744 -0.6621
  192MOL0     C25800   3.227   4.301   2.981 -0.2900 -0.4952 -0.0962
  192MOL0     C25801   3.100   4.331   3.056  0.4398  0.0988 -0.2784
  192MOL0     N25802   3.070   4.235   3.164  0.4169  0.5418  0.0458
  192MOL0     C25803   3.101   4.263   3.295  0.9963  0.8312 -0.7754
  192MOL0     C25804   3.034   4.168   3.370 -0.5065  0.2948 -0.6924
  192MOL0     C25805   3.037   4.152   3.520  0.1912 -0.8407 -0.1745
  192MOL0     C25806   3.076   4.009   3.562 -0.3495 -0.3349 -0.0181
  192MOL0     C25807   2.994   3.967   3.678 -0.3499 -0.2553  0.6583
  192MOL0     C25808   2.854   3.929   3.627 -0.3305 -0.2588 -0.5886
  192MOL0     O25809   2.779   3.941   3.744  0.7228 -0.8884 -0.2079
  192MOL0     C25810   2.635   3.957   3.729  0.2040 -0.1751  0.3434
  192MOL0     C25811   2.572   3.980   3.844  0.5058  0.6262  0.0877
  192MOL0     C25812   2.433   3.980   3.856  0.1206  0.2234 -1.5032
  192MOL0     C25813   2.381   3.999   3.996  0.0157  0.2631  0.2590
  192MOL0     C25814   2.351   3.964   3.739  0.4177  1.1316 -0.2625
  192MOL0     C25815   2.201   3.970   3.738  0.5147 -0.6059 -0.8844
  192MOL0     O25816   2.138   3.925   3.619  0.7731  0.6285 -0.4694
  192MOL0     C25817   2.002   3.918   3.615  0.6228 -0.5658  0.1969
  192MOL0     C25818   1.941   3.795   3.604 -0.3813  0.3095  0.0802
  192MOL0     C25819   1.794   3.790   3.592 -0.9270 -0.3144 -1.2881
  192MOL0     C25820   1.719   3.901   3.592  0.9214  0.1015 -0.6982
  192MOL0     O25821   1.579   3.903   3.577 -0.2709 -0.1808  0.3301
  192MOL0     C25822   1.534   3.799   3.493 -0.5686  0.0731 -0.7284
  192MOL0     C25823   1.380   3.782   3.492  1.0397  0.5194 -0.0830
  192MOL0     C25824   1.322   3.652   3.425  0.2799 -0.6197  0.2193
  192MOL0     C25825   1.169   3.628   3.439  0.1792 -0.0138  0.7473
  192MOL0     C25826   1.129   3.480   3.435 -0.1830 -0.0488  0.2397
  192MOL0     C25827   0.991   3.464   3.504  0.0458 -0.9247  0.3482
  192MOL0     C25828   0.931   3.325   3.503  0.4269 -0.8130  0.6614
  192MOL0     C25829   0.800   3.334   3.574  0.6569  0.0479 -0.0617
  192MOL0    Cl25830   0.717   3.171   3.571 -0.4761 -0.3666  0.4983
  192MOL0     C25831   1.786   4.021   3.606 -0.1028 -0.1186 -0.2208
  192MOL0     C25832   1.922   4.031   3.618  0.3381  0.2107  0.5036
  192MOL0     O25833   2.140   4.012   3.836  0.1838  0.4579 -0.4524
  192MOL0     C25834   2.415   3.935   3.619 -0.2888 -0.1382 -0.0440
  192MOL0     C25835   2.554   3.938   3.616  0.2994  0.3043  0.7420
  192MOL0     N25836   2.969   4.085   3.280  0.3573 -0.2565 -0.2439
  192MOL0     N25837   2.981   4.127   3.161  0.0244 -0.1885  0.2790
  192MOL0     C25838   4.089   4.413   2.637  0.4832  0.7036  0.0558
  192MOL0     C25839   4.176   4.343   2.556 -0.3119  0.7140 -0.0225
  192MOL0     C25840   4.470   4.066   2.359  0.1228 -0.5731 -0.2668
  192MOL0     C25841   4.466   3.942   2.290 -0.3336 -0.2226  0.5300
  192MOL0     C25842   4.566   3.893   2.208  0.0268  0.0494  0.3386
  192MOL0     C25843   4.687   3.968   2.193  0.0489 -0.4010 -0.1688
  192MOL0     O25844   4.772   3.918   2.098 -0.8494  0.0065  0.4457
  192MOL0     C25845   4.859   4.007   2.033 -0.2101  0.7040  0.0469
  192MOL0     C25846   4.891   3.951   1.896 -0.0915 -0.2857 -0.3522
  192MOL0     C25847   4.776   3.908   1.814 -0.3871 -0.3703 -0.1727
  192MOL0     C25848   4.671   4.015   1.785 -0.3031  0.1236  0.0955
  192MOL0     C25849   4.723   4.121   1.698 -0.0230 -0.3014 -0.3486
  192MOL0     C25850   4.763   4.209   1.630  0.5627 -0.6049  0.0919
  192MOL0     C25851   4.694   4.092   2.256  0.7805  0.0613  0.7652
  192MOL0     C25852   4.592   4.136   2.341 -0.3373  0.0758 -1.0095
  192MOL0     H25853   4.425   4.282   2.774 -0.1271  1.1561 -1.0553
  192MOL0     H25854   4.278   4.392   2.924  2.3112 -0.9659 -1.4048
  192MOL0     H25855   3.949   4.294   2.890 -0.6372 -1.4135  0.6474
  192MOL0     H25856   4.054   4.366   3.022  0.4386  3.2197 -0.7885
  192MOL0     H25857   3.851   4.369   3.116 -0.1136  0.8538  0.7738
  192MOL0     H25858   3.837   4.528   3.033  1.5785  0.1963 -2.3440
  192MOL0     H25859   3.708   4.415   2.846  0.6248 -0.0945  0.0738
  192MOL0     H25860   3.720   4.264   2.946  2.0007  0.4377 -0.9706
  192MOL0     H25861   3.592   4.381   3.125  0.3421  2.1343  1.0266
  192MOL0     H25862   3.588   4.531   3.022 -1.5600  0.2876  0.0489
  192MOL0     H25863   3.432   4.434   2.883  1.2478  0.9851  0.9198
  192MOL0     H25864   3.483   4.264   2.918  1.5011 -1.6593  2.0791
  192MOL0     H25865   3.366   4.278   3.133 -1.7630 -0.8182 -1.3477
  192MOL0     H25866   3.316   4.454   3.094 -0.3584 -0.3305  1.1862
  192MOL0     H25867   3.236   4.353   2.885  0.9127  0.6868  0.6040
  192MOL0     H25868   3.231   4.194   2.960  1.1575 -0.2726 -1.0857
  192MOL0     H25869   3.018   4.317   2.984  1.1238  1.0958 -1.2857
  192MOL0     H25870   3.087   4.433   3.095 -1.6544  0.3189 -1.4007
  192MOL0     H25871   3.157   4.342   3.344 -0.8001  0.2870  2.4445
  192MOL0     H25872   3.106   4.224   3.566 -2.1458  0.4477  1.5651
  192MOL0     H25873   2.942   4.183   3.564  0.6386  2.7434 -1.3899
  192MOL0     H25874   3.183   4.003   3.581 -0.1805 -1.3795 -1.1549
  192MOL0     H25875   3.050   3.940   3.481 -2.5996 -0.5406  0.8192
  192MOL0     H25876   2.986   4.040   3.759  0.1088  1.9992 -1.2050
  192MOL0     H25877   3.044   3.883   3.727  0.8648  0.3880  0.5807
  192MOL0     H25878   2.859   3.829   3.582  0.2459  0.2262 -1.6623
  192MOL0     H25879   2.814   3.995   3.549 -0.5785  2.7257  1.8984
  192MOL0     H25880   2.635   3.988   3.932  0.5491 -0.3412  0.1524
  192MOL0     H25881   2.332   4.095   4.012 -0.7836  0.0454 -0.7727
  192MOL0     H25882   2.310   3.920   4.022  1.9989 -2.8159 -2.6821
  192MOL0     H25883   2.460   3.972   4.067  1.4892 -0.5690 -1.6031
  192MOL0     H25884   1.985   3.696   3.599 -0.8639  0.0210  1.1962
  192MOL0     H25885   1.765   3.686   3.584 -1.0388 -0.5738  1.5168
  192MOL0     H25886   1.558   3.822   3.389  0.7338  1.1229 -0.2242
  192MOL0     H25887   1.567   3.699   3.523 -2.0914  0.1599  1.4324
  192MOL0     H25888   1.355   3.770   3.598  2.1906  0.5005  0.1971
  192MOL0     H25889   1.338   3.875   3.452  0.9597  0.0558 -1.0845
  192MOL0     H25890   1.379   3.564   3.456  3.3017  0.9398 -0.5406
  192MOL0     H25891   1.338   3.672   3.319 -0.1072 -0.3047  0.2178
  192MOL0     H25892   1.133   3.673   3.532  1.1618  0.5525  0.8648
  192MOL0     H25893   1.112   3.679   3.360 -2.3044 -4.2130 -0.5105
  192MOL0     H25894   1.198   3.416   3.491 -0.0181  0.3754  0.5278
  192MOL0     H25895   1.124   3.448   3.330 -2.9029 -1.9401  0.8223
  192MOL0     H25896   0.987   3.494   3.609  1.0711 -1.1038  0.4481
  192MOL0     H25897   0.925   3.531   3.448 -0.9691  0.3538  2.8965
  192MOL0     H25898   0.999   3.250   3.543 -1.0919 -2.0672  0.9623
  192MOL0     H25899   0.904   3.291   3.403  0.4082 -1.4030  0.8659
  192MOL0     H25900   0.747   3.407   3.513  0.9820 -0.1776 -0.6287
  192MOL0     H25901   0.810   3.371   3.676 -0.1322 -1.8239  0.7355
  192MOL0     H25902   1.729   4.113   3.614  0.2598  0.1080 -0.2447
  192MOL0     H25903   1.975   4.125   3.609  0.8578  0.0214  1.4501
  192MOL0     H25904   2.361   3.927   3.525  2.0906  0.6424 -1.5729
  192MOL0     H25905   2.599   3.934   3.517 -0.6180 -0.4496  0.3445
  192MOL0     H25906   4.000   4.459   2.595 -0.5634 -0.0019  1.4283
  192MOL0     H25907   4.146   4.324   2.453 -4.1505  2.2358  0.6737
  192MOL0     H25908   4.378   3.882   2.312 -0.2038 -0.4117  0.5421
  192MOL0     H25909   4.558   3.797   2.157  1.6779 -0.0055  0.1559
  192MOL0     H25910   4.828   4.111   2.017 -5.4385 -0.4146  1.0182
  192MOL0     H25911   4.948   4.023   2.094  1.5165  2.6430 -2.7196
  192MOL0     H25912   4.959   3.866   1.905  1.6002  1.1555  1.6008
  192MOL0     H25913   4.950   4.030   1.848 -1.8784  2.7838  2.1170
  192MOL0     H25914   4.725   3.826   1.865 -3.1659 -0.3880 -2.7512
  192MOL0     H25915   4.806   3.869   1.716 -0.2093  0.7014 -0.5568
  192MOL0     H25916   4.626   4.065   1.872  1.1851 -1.3126  1.7731
  192MOL0     H25917   4.594   3.954   1.737  0.3360 -0.1395 -0.6099
  192MOL0     H25918   4.799   4.292   1.572 -4.1020  0.1921 -2.0924
  192MOL0     H25919   4.780   4.159   2.253  0.6533  0.3223  2.3242
  192MOL0     H25920   4.610   4.225   2.399 -2.5243  0.9663 -1.5884
  193MOL0     O25921   0.337   4.840   6.183 -0.4479 -0.1080 -0.5122
  193MOL0     C25922   0.333   4.849   6.061 -0.9870  0.4582  0.2227
  193MOL0     O25923   0.219   4.853   5.985  0.3686  0.4787  0.7333
  193MOL0     C25924   0.088   4.842   6.027 -0.0735 -0.4179 -0.2527
  193MOL0     C25925   0.039   4.811   6.156  0.4068  0.5012  0.2003
  193MOL0     C25926  -0.096   4.790   6.169 -0.4149 -0.4115  0.3573
  193MOL0     C25927  -0.187   4.819   6.066 -0.1883 -0.5613 -1.1802
  193MOL0     O25928  -0.317   4.792   6.097 -0.0345  0.4902 -0.2570
  193MOL0     C25929  -0.416   4.808   5.995  0.0936 -0.1862  0.4608
  193MOL0     C25930  -0.560   4.815   6.045 -0.6283 -0.1373 -0.3849
  193MOL0     C25931  -0.662   4.803   5.932  0.0115 -0.1739  0.7018
  193MOL0     C25932  -0.695   4.658   5.906  0.3706 -0.1946  0.4250
  193MOL0     C25933  -0.810   4.656   5.809 -0.2281 -0.2566 -0.1135
  193MOL0     C25934  -0.934   4.727   5.862  0.4799 -0.1250 -0.4757
  193MOL0     C25935  -1.058   4.679   5.789 -0.6425  0.4582  1.2473
  193MOL0     C25936  -1.068   4.737   5.651  0.6890  0.1118  0.2619
  193MOL0     N25937  -1.196   4.713   5.577  0.5992 -0.0173  0.7326
  193MOL0     C25938  -1.319   4.751   5.619  1.0318  0.2007  0.5698
  193MOL0     C25939  -1.412   4.705   5.522  0.1833  0.2136 -0.3372
  193MOL0     C25940  -1.562   4.720   5.505 -0.4925  0.3658 -0.3944
  193MOL0     C25941  -1.623   4.581   5.489  0.2957 -0.0795  1.2363
  193MOL0     C25942  -1.768   4.594   5.510 -0.2194  0.7542 -0.1129
  193MOL0     C25943  -1.844   4.453   5.499  0.7222  0.2729 -0.3682
  193MOL0     O25944  -1.907   4.442   5.371 -0.3434 -0.5454  0.2837
  193MOL0     C25945  -2.033   4.392   5.374 -0.2911  0.1226 -0.0255
  193MOL0     C25946  -2.083   4.281   5.447  0.4272 -0.4064 -0.4006
  193MOL0     C25947  -2.205   4.229   5.432  0.0755 -0.6879 -0.3447
  193MOL0     C25948  -2.224   4.099   5.508  0.0756  0.3000 -0.2833
  193MOL0     C25949  -2.296   4.286   5.347  0.3183  1.6335 -1.0900
  193MOL0     C25950  -2.431   4.242   5.337  0.4311  0.9296 -0.0345
  193MOL0     O25951  -2.489   4.253   5.217 -0.4608 -0.0975 -0.4525
  193MOL0     C25952  -2.610   4.194   5.198 -0.1989  0.4560 -0.1324
  193MOL0     C25953  -2.622   4.051   5.201 -1.0644 -0.8802 -0.6932
  193MOL0     C25954  -2.740   3.983   5.161  1.2359 -1.2825 -0.3505
  193MOL0     C25955  -2.846   4.052   5.110  0.5156  0.1092  1.1837
  193MOL0     O25956  -2.965   3.997   5.059 -0.6307  0.2092  0.0974
  193MOL0     C25957  -2.970   3.849   5.048 -0.0610 -0.0128  0.0637
  193MOL0     C25958  -3.082   3.800   4.950 -0.2646  0.5771  0.1191
  193MOL0     C25959  -3.068   3.646   4.940 -0.0532 -0.3281  0.4928
  193MOL0     C25960  -3.187   3.578   4.867 -0.0068  0.3802  0.5249
  193MOL0     C25961  -3.161   3.424   4.876 -0.4657  0.1753 -0.1079
  193MOL0     C25962  -3.281   3.347   4.819  0.6814  0.5304 -0.3598
  193MOL0     C25963  -3.403   3.344   4.907 -0.2953 -0.2123  0.0152
  193MOL0     C25964  -3.519   3.265   4.845  0.4328 -0.4401  0.1178
  193MOL0    Cl25965  -3.621   3.218   4.976 -0.4366 -0.4649  0.0729
  193MOL0     C25966  -2.829   4.193   5.108  0.4964  1.1244  0.3115
  193MOL0     C25967  -2.716   4.263   5.140 -0.6414  0.8521 -0.6036
  193MOL0     O25968  -2.483   4.188   5.435  0.1157  0.1057  0.3115
  193MOL0     C25969  -2.259   4.404   5.276 -1.2735 -0.0861 -0.3744
  193MOL0     C25970  -2.127   4.451   5.294 -0.0153 -0.3122 -0.4946
  193MOL0     N25971  -1.335   4.639   5.422 -0.3137 -0.2135 -0.5531
  193MOL0     N25972  -1.210   4.650   5.456 -0.3046 -0.5471 -0.5499
  193MOL0     C25973  -0.137   4.854   5.938 -0.8540  0.7974 -0.2760
  193MOL0     C25974   0.002   4.866   5.922 -0.4387 -0.5254 -0.2851
  193MOL0     C25975   0.458   4.864   5.982  0.0875 -0.0722 -0.2310
  193MOL0     C25976   0.464   4.903   5.850  0.4670 -0.0313 -0.6140
  193MOL0     C25977   0.579   4.901   5.784  0.5839  0.5195  0.5964
  193MOL0     C25978   0.693   4.860   5.844 -0.3188 -0.4478 -0.8706
  193MOL0     O25979   0.815   4.868   5.780 -0.3441  0.6584 -0.4959
  193MOL0     C25980   0.890   4.991   5.789 -0.4969 -0.3453  0.0378
  193MOL0     C25981   0.832   5.112   5.702 -0.1458 -0.3300  0.5369
  193MOL0     C25982   0.811   5.082   5.553  0.9258 -0.0858  1.0534
  193MOL0     C25983   0.736   5.198   5.477  1.0199 -0.4275 -0.2414
  193MOL0     C25984   0.597   5.225   5.524 -0.5725 -0.6953 -0.0614
  193MOL0     C25985   0.498   5.255   5.579 -0.2974 -0.3139 -0.1067
  193MOL0     C25986   0.694   4.813   5.978 -0.3305  0.0510 -0.0383
  193MOL0     C25987   0.573   4.819   6.043 -0.1604  0.6218 -0.5304
  193MOL0     H25988   0.106   4.792   6.240  1.9639  2.6097 -0.4877
  193MOL0     H25989  -0.134   4.757   6.265  0.5465 -1.8932  0.2669
  193MOL0     H25990  -0.402   4.904   5.946 -0.4668  0.1931  1.0278
  193MOL0     H25991  -0.404   4.725   5.925 -0.9192  0.6492 -0.7384
  193MOL0     H25992  -0.570   4.726   6.108  0.4560  1.3590  2.0718
  193MOL0     H25993  -0.573   4.905   6.106  3.4411  1.7501 -1.9358
  193MOL0     H25994  -0.751   4.856   5.967 -0.9993 -0.3949 -1.3661
  193MOL0     H25995  -0.628   4.850   5.840  1.4393  2.0213  2.2500
  193MOL0     H25996  -0.608   4.612   5.856 -0.1972 -1.4361  0.5334
  193MOL0     H25997  -0.738   4.600   5.988 -1.4037  1.1572  0.5118
  193MOL0     H25998  -0.795   4.709   5.714 -2.3823  1.4746  0.4300
  193MOL0     H25999  -0.833   4.551   5.788  0.7006 -0.2464 -1.2985
  193MOL0     H26000  -0.953   4.711   5.969  2.3381  0.3492 -0.0419
  193MOL0     H26001  -0.913   4.833   5.846 -0.0164  0.2564  1.2093
  193MOL0     H26002  -1.067   4.571   5.776  0.0503  0.3102  1.9074
  193MOL0     H26003  -1.141   4.717   5.849 -1.2671 -0.7942  1.1887
  193MOL0     H26004  -0.980   4.714   5.591 -1.2435 -0.4280 -2.5838
  193MOL0     H26005  -1.072   4.844   5.676 -0.2257 -0.2805  1.9792
  193MOL0     H26006  -1.336   4.798   5.716  0.8368 -1.0784  1.1714
  193MOL0     H26007  -1.612   4.765   5.591 -0.6043  0.4372 -0.4975
  193MOL0     H26008  -1.580   4.786   5.420 -0.4063 -0.3980 -1.0176
  193MOL0     H26009  -1.588   4.500   5.554 -1.4817  0.1569  2.5509
  193MOL0     H26010  -1.609   4.550   5.385  0.5530 -4.0020  2.2534
  193MOL0     H26011  -1.825   4.667   5.451 -0.8044 -0.6177 -1.3064
  193MOL0     H26012  -1.779   4.622   5.615 -2.4301  2.0251 -0.6094
  193MOL0     H26013  -1.907   4.434   5.586  2.7909 -1.3187  0.8681
  193MOL0     H26014  -1.771   4.372   5.511  0.5409  0.2287  0.4838
  193MOL0     H26015  -2.007   4.227   5.502  1.7787  2.6706  0.9689
  193MOL0     H26016  -2.293   4.101   5.592  0.6141 -1.9031  0.2827
  193MOL0     H26017  -2.252   4.019   5.439  0.0612  1.9678 -2.3136
  193MOL0     H26018  -2.134   4.073   5.565  0.9968 -0.7225 -2.1111
  193MOL0     H26019  -2.538   3.998   5.246 -2.6519 -1.1884  2.0997
  193MOL0     H26020  -2.747   3.875   5.171 -2.2365 -1.4283 -2.6193
  193MOL0     H26021  -2.874   3.800   5.035  0.3621  1.0377 -1.0761
  193MOL0     H26022  -3.015   3.820   5.143 -2.0792 -2.4419 -1.5057
  193MOL0     H26023  -3.184   3.830   4.973 -1.5414 -3.0218 -0.2222
  193MOL0     H26024  -3.059   3.851   4.856 -1.2451  1.2352  0.2270
  193MOL0     H26025  -3.047   3.603   5.039 -2.6691 -0.2422  1.1599
  193MOL0     H26026  -2.981   3.617   4.881  0.2596  2.0772 -0.3262
  193MOL0     H26027  -3.280   3.610   4.916 -0.5563  1.1913 -1.0085
  193MOL0     H26028  -3.196   3.601   4.761  1.2697 -3.0226 -0.4571
  193MOL0     H26029  -3.139   3.409   4.982 -1.3054  1.5008  0.2776
  193MOL0     H26030  -3.072   3.399   4.817  1.9046  1.6491  2.6006
  193MOL0     H26031  -3.302   3.399   4.725 -2.7617 -0.7590 -0.4391
  193MOL0     H26032  -3.245   3.248   4.791  0.9936  1.2035 -2.5530
  193MOL0     H26033  -3.432   3.448   4.923 -0.7433 -0.1309 -1.1725
  193MOL0     H26034  -3.377   3.296   5.001  0.5621  1.1558  0.5039
  193MOL0     H26035  -3.488   3.169   4.803  0.6156 -1.1494  1.7977
  193MOL0     H26036  -3.571   3.325   4.769 -1.2250  0.9656  2.2361
  193MOL0     H26037  -2.907   4.249   5.057  1.2226  4.0628  2.1334
  193MOL0     H26038  -2.696   4.369   5.129  2.0942  0.2897 -2.1065
  193MOL0     H26039  -2.328   4.454   5.209  1.3360 -1.3432 -4.3469
  193MOL0     H26040  -2.104   4.547   5.249  0.7930 -0.6579 -0.8531
  193MOL0     H26041  -0.200   4.865   5.851 -1.0098  0.8872 -0.1530
  193MOL0     H26042   0.045   4.888   5.825 -0.2484 -2.1603 -0.5952
  193MOL0     H26043   0.381   4.936   5.788  0.7006 -0.4708 -1.1785
  193MOL0     H26044   0.585   4.928   5.680  0.1005  0.4778  0.5552
  193MOL0     H26045   0.901   5.014   5.895 -2.9192 -0.8505  0.4381
  193MOL0     H26046   0.985   4.971   5.738 -0.5170  0.7085 -0.4473
  193MOL0     H26047   0.914   5.184   5.703  1.6070 -2.0082 -3.1530
  193MOL0     H26048   0.742   5.160   5.743  0.5451  2.3275 -0.8355
  193MOL0     H26049   0.749   4.992   5.553  0.7074  0.0660  1.4246
  193MOL0     H26050   0.902   5.075   5.492  0.9857  5.2337  0.0811
  193MOL0     H26051   0.726   5.176   5.370  2.0187  0.5718 -0.5643
  193MOL0     H26052   0.798   5.289   5.481  1.5483 -0.7017 -1.5962
  193MOL0     H26053   0.409   5.279   5.633 -0.1504  2.2675 -0.8536
  193MOL0     H26054   0.781   4.770   6.026 -0.4839 -0.5647 -0.2966
  193MOL0     H26055   0.569   4.779   6.144  2.4221  0.0099 -0.6048
  194MOL0     O26056   7.055   4.136   2.300  0.0529 -0.3239  0.0008
  194MOL0     C26057   7.133   4.076   2.222 -0.4491  0.8265 -0.5080
  194MOL0     O26058   7.145   4.097   2.084 -0.8145 -0.8793  0.5937
  194MOL0     C26059   7.072   4.194   2.026  0.2766  0.2557 -0.2902
  194MOL0     C26060   7.046   4.323   2.082 -0.1275 -0.8984  0.8204
  194MOL0     C26061   6.980   4.414   2.006 -0.0454 -0.3562  0.6623
  194MOL0     C26062   6.920   4.376   1.885 -0.7089 -0.1761 -0.0015
  194MOL0     O26063   6.854   4.461   1.801  0.1238 -0.0686  0.2143
  194MOL0     C26064   6.812   4.592   1.832 -0.7762  0.8795 -0.4422
  194MOL0     C26065   6.765   4.645   1.702  0.7985  0.7040  0.9307
  194MOL0     C26066   6.750   4.795   1.713 -0.8685 -0.0358 -1.3947
  194MOL0     C26067   6.671   4.845   1.589  0.2421  0.6803 -0.3205
  194MOL0     C26068   6.638   4.997   1.594 -0.2440 -0.3390 -0.9363
  194MOL0     C26069   6.593   5.034   1.451 -0.8126 -0.2123 -0.8279
  194MOL0     C26070   6.576   5.180   1.424  0.6258 -0.6663  0.3713
  194MOL0     C26071   6.472   5.247   1.513 -0.1380 -0.3672 -0.3552
  194MOL0     N26072   6.434   5.381   1.466  0.8828  0.0879 -0.0379
  194MOL0     C26073   6.360   5.401   1.352 -1.3781 -0.4714  0.6976
  194MOL0     C26074   6.352   5.535   1.348  0.5857 -0.4485 -0.7356
  194MOL0     C26075   6.260   5.614   1.262 -0.1866 -0.8168 -0.4398
  194MOL0     C26076   6.115   5.571   1.292 -0.5328  0.6678 -0.1908
  194MOL0     C26077   6.070   5.588   1.441 -0.0420 -0.5492  0.7193
  194MOL0     C26078   5.917   5.603   1.443 -0.2315 -0.5114  0.5824
  194MOL0     O26079   5.862   5.483   1.396  0.8877 -0.1168 -0.1722
  194MOL0     C26080   5.722   5.478   1.400  0.1303 -0.2630 -0.1972
  194MOL0     C26081   5.662   5.367   1.341  0.0460  0.5458  0.3807
  194MOL0     C26082   5.527   5.345   1.332 -0.3042  0.2607 -0.2622
  194MOL0     C26083   5.474   5.220   1.260 -0.5628 -0.9729 -0.0280
  194MOL0     C26084   5.441   5.442   1.388 -0.1346  0.0121  0.0450
  194MOL0     C26085   5.299   5.424   1.385 -0.1034  0.6514  0.3770
  194MOL0     O26086   5.241   5.384   1.270  0.0500 -0.0399 -0.0620
  194MOL0     C26087   5.102   5.352   1.275 -0.0039 -0.7772 -0.3622
  194MOL0     C26088   5.068   5.215   1.258 -0.2918  0.6108 -0.4996
  194MOL0     C26089   4.932   5.170   1.261  0.0491  0.7446  0.0999
  194MOL0     C26090   4.834   5.266   1.295 -0.8665 -0.3074 -0.4787
  194MOL0     O26091   4.705   5.216   1.304  0.0467  0.2532  1.0851
  194MOL0     C26092   4.592   5.303   1.325  0.5041  0.1571 -0.8442
  194MOL0     C26093   4.474   5.205   1.342  0.0936 -0.2711  1.3850
  194MOL0     C26094   4.414   5.154   1.204  0.1380  0.0913 -1.0815
  194MOL0     C26095   4.266   5.116   1.221 -0.8414 -0.1858  0.1805
  194MOL0     C26096   4.197   5.075   1.090  0.6804  0.0777  0.3823
  194MOL0     C26097   4.047   5.044   1.103  0.1788 -0.4060 -0.5618
  194MOL0     C26098   3.983   5.015   0.973  0.5568 -0.0519  0.6009
  194MOL0     C26099   3.836   4.987   1.002 -0.6239 -0.1484 -0.4633
  194MOL0    Cl26100   3.774   4.933   0.848 -0.0117 -0.1938 -0.1241
  194MOL0     C26101   4.869   5.402   1.306  0.2367  0.6126  0.0496
  194MOL0     C26102   4.997   5.442   1.288 -0.5033 -0.2118  0.4542
  194MOL0     O26103   5.241   5.451   1.495 -0.7025 -0.0045 -0.3719
  194MOL0     C26104   5.495   5.551   1.458 -0.5793 -0.5219  0.3525
  194MOL0     C26105   5.636   5.572   1.466  0.1464 -0.3439 -0.4262
  194MOL0     N26106   6.426   5.591   1.455  0.4713 -0.3231  0.1633
  194MOL0     N26107   6.481   5.493   1.520  0.3192  0.3244 -0.2493
  194MOL0     C26108   6.936   4.246   1.832 -0.1608 -0.0892 -0.0618
  194MOL0     C26109   7.017   4.161   1.908 -0.4699  0.1137  0.6771
  194MOL0     C26110   7.208   3.968   2.274  0.3465  0.9320  0.2441
  194MOL0     C26111   7.335   3.930   2.218 -0.2773 -0.4384  0.0555
  194MOL0     C26112   7.397   3.821   2.256  0.1833 -0.1597 -0.4472
  194MOL0     C26113   7.346   3.750   2.372 -0.7172 -1.3293 -0.8410
  194MOL0     O26114   7.415   3.644   2.423  0.2219 -0.2508  0.0198
  194MOL0     C26115   7.555   3.666   2.461  0.0942  0.1525  1.1264
  194MOL0     C26116   7.578   3.562   2.574 -0.0172  0.1733 -0.7403
  194MOL0     C26117   7.716   3.547   2.626 -0.4752 -0.7396 -0.1350
  194MOL0     C26118   7.782   3.685   2.670 -0.2062 -0.2254  0.2816
  194MOL0     C26119   7.706   3.762   2.765  0.4222 -0.4893 -0.3209
  194MOL0     C26120   7.647   3.830   2.844  0.2825 -0.1767  0.5186
  194MOL0     C26121   7.228   3.779   2.428  0.4032 -0.8171 -0.2023
  194MOL0     C26122   7.155   3.896   2.379  0.3475 -0.2748 -0.0634
  194MOL0     H26123   7.074   4.362   2.179 -1.9274 -0.6877  1.3055
  194MOL0     H26124   6.980   4.519   2.034  1.5854 -0.1095 -0.1692
  194MOL0     H26125   6.724   4.588   1.897 -1.8720  2.3514 -1.7503
  194MOL0     H26126   6.893   4.654   1.872 -1.7312  0.1673  2.9511
  194MOL0     H26127   6.840   4.620   1.626 -0.7629  0.8709 -0.7399
  194MOL0     H26128   6.671   4.601   1.669  2.5476 -2.2563 -0.6022
  194MOL0     H26129   6.692   4.820   1.802  1.4854  2.6915 -0.4708
  194MOL0     H26130   6.850   4.838   1.718 -0.0169 -1.8626  3.4305
  194MOL0     H26131   6.721   4.822   1.494  0.3917  0.7362 -0.2569
  194MOL0     H26132   6.579   4.787   1.595  0.2501  0.8639  2.5641
  194MOL0     H26133   6.566   5.021   1.673 -0.1715  0.8914 -1.2317
  194MOL0     H26134   6.723   5.055   1.631 -3.0693  1.0814  4.3406
  194MOL0     H26135   6.669   4.997   1.381 -3.0425  0.5470 -3.8439
  194MOL0     H26136   6.497   4.987   1.428 -0.1083 -1.0513 -2.1570
  194MOL0     H26137   6.670   5.235   1.434  0.2382 -0.1718  1.3969
  194MOL0     H26138   6.548   5.173   1.318  0.9251  0.3398  0.2177
  194MOL0     H26139   6.503   5.253   1.618  1.1760  0.8923 -0.7830
  194MOL0     H26140   6.376   5.194   1.518  0.0515 -0.7103 -0.3087
  194MOL0     H26141   6.295   5.335   1.294 -0.5425  1.6958 -3.0367
  194MOL0     H26142   6.267   5.721   1.284  1.8190 -1.0192  0.1322
  194MOL0     H26143   6.286   5.596   1.158  1.3504  0.7883 -0.3887
  194MOL0     H26144   6.103   5.466   1.264  2.0350 -0.1617  1.4721
  194MOL0     H26145   6.053   5.643   1.237 -2.5288  1.6505  3.0283
  194MOL0     H26146   6.109   5.685   1.472 -0.3617  0.4855 -1.8552
  194MOL0     H26147   6.102   5.505   1.504  0.3849 -0.5015  0.5672
  194MOL0     H26148   5.879   5.679   1.374 -2.1480 -5.0059 -3.9390
  194MOL0     H26149   5.878   5.615   1.544 -1.0079  2.3935  0.0249
  194MOL0     H26150   5.732   5.306   1.285 -0.3393  0.8124 -0.4156
  194MOL0     H26151   5.439   5.249   1.160  1.0181  1.3323  0.0163
  194MOL0     H26152   5.557   5.150   1.245  1.9795  1.3120  2.3479
  194MOL0     H26153   5.405   5.172   1.330  0.0923  1.9356  2.8562
  194MOL0     H26154   5.149   5.146   1.236 -1.6724 -1.0209 -0.6887
  194MOL0     H26155   4.902   5.066   1.249 -0.1095  0.4155  2.7650
  194MOL0     H26156   4.611   5.381   1.400  1.7239  2.8624 -3.6990
  194MOL0     H26157   4.565   5.374   1.246 -1.2105  1.3531  0.7272
  194MOL0     H26158   4.499   5.124   1.411  1.0428 -1.0099  0.2031
  194MOL0     H26159   4.395   5.270   1.380 -0.4385  1.3432 -2.0773
  194MOL0     H26160   4.466   5.064   1.168 -1.1626 -1.4321  0.6197
  194MOL0     H26161   4.409   5.241   1.139  0.8894  0.9533 -0.0104
  194MOL0     H26162   4.250   5.032   1.289 -2.4686  0.7475  1.0319
  194MOL0     H26163   4.209   5.199   1.265 -0.8043  0.2483 -0.5779
  194MOL0     H26164   4.244   4.982   1.059  0.8841 -0.6684  2.7213
  194MOL0     H26165   4.208   5.154   1.015  1.1682  1.1196  1.5089
  194MOL0     H26166   4.047   4.947   1.152  2.7321 -1.8816 -3.1910
  194MOL0     H26167   3.992   5.125   1.152 -0.8873  0.7018 -3.3363
  194MOL0     H26168   4.023   4.929   0.917  1.5847  1.1751 -0.6202
  194MOL0     H26169   3.986   5.097   0.901 -1.5191  0.1652  0.7282
  194MOL0     H26170   3.799   5.079   1.047 -0.9090  0.3825 -1.7280
  194MOL0     H26171   3.816   4.906   1.072 -1.2963  0.7308  0.3807
  194MOL0     H26172   4.786   5.470   1.320 -1.2472 -1.0994  0.0057
  194MOL0     H26173   5.020   5.548   1.281 -0.3902 -0.2777 -0.2071
  194MOL0     H26174   5.430   5.624   1.506 -0.4848  0.4471 -0.9471
  194MOL0     H26175   5.668   5.656   1.526  1.5833 -2.5974  2.2005
  194MOL0     H26176   6.888   4.209   1.742 -0.3593  0.3296 -0.1312
  194MOL0     H26177   7.037   4.058   1.883  1.4383  0.1104  1.9539
  194MOL0     H26178   7.377   3.990   2.137 -2.2896 -3.0498 -3.1491
  194MOL0     H26179   7.491   3.789   2.215  1.3913 -0.6929  2.4566
  194MOL0     H26180   7.608   3.633   2.371  0.4536  0.1009  1.3588
  194MOL0     H26181   7.576   3.770   2.487 -1.1157 -0.2233  3.8779
  194MOL0     H26182   7.561   3.460   2.537 -0.6805 -0.6804  1.7286
  194MOL0     H26183   7.504   3.582   2.652 -0.5748 -0.7848 -0.9988
  194MOL0     H26184   7.779   3.505   2.547  1.7215 -0.3315  1.3329
  194MOL0     H26185   7.711   3.467   2.701  1.5734 -3.6887 -2.8623
  194MOL0     H26186   7.809   3.752   2.588  1.1933  0.2045  1.0707
  194MOL0     H26187   7.884   3.659   2.700  0.6669 -0.2539 -2.3987
  194MOL0     H26188   7.589   3.897   2.903  0.1818  1.5365 -1.4270
  194MOL0     H26189   7.201   3.712   2.509  2.0043 -3.3971 -1.6715
  194MOL0     H26190   7.063   3.927   2.427  1.6289  2.1614  1.0380
  195MOL0     O26191  10.666   0.855   3.638 -0.9228  0.7713  0.2105
  195MOL0     C26192  10.710   0.906   3.535  0.5242  0.4379  0.9676
  195MOL0     O26193  10.640   0.922   3.421 -0.0235  0.7524 -0.8199
  195MOL0     C26194  10.506   0.876   3.420  0.7240 -0.6851 -0.5235
  195MOL0     C26195  10.470   0.757   3.356 -0.5874  0.5031 -0.5025
  195MOL0     C26196  10.345   0.694   3.366 -0.0116 -0.7600 -0.5116
  195MOL0     C26197  10.248   0.756   3.446  0.8305  0.0079  0.2566
  195MOL0     O26198  10.125   0.694   3.444  0.1421 -0.5229 -0.2341
  195MOL0     C26199  10.057   0.705   3.567 -0.4763  0.4659 -0.5874
  195MOL0     C26200   9.934   0.799   3.567 -0.4344  0.3729 -0.0944
  195MOL0     C26201   9.819   0.742   3.480 -0.1888  0.1261 -0.1275
  195MOL0     C26202   9.692   0.799   3.543 -0.4262  0.3589  0.6534
  195MOL0     C26203   9.567   0.761   3.466  0.2312 -0.3475 -0.1400
  195MOL0     C26204   9.441   0.814   3.534  0.0586 -0.4331  0.3238
  195MOL0     C26205   9.319   0.804   3.443  0.0007 -0.2642  0.0569
  195MOL0     C26206   9.192   0.840   3.520  0.2440 -0.3144 -0.4405
  195MOL0     N26207   9.068   0.845   3.436  0.0160 -0.0795  0.0524
  195MOL0     C26208   8.986   0.736   3.408 -0.1749 -0.4475 -0.5988
  195MOL0     C26209   8.888   0.796   3.339  0.9106 -0.5759 -0.0605
  195MOL0     C26210   8.772   0.726   3.259 -0.0869 -0.1628 -0.6101
  195MOL0     C26211   8.690   0.624   3.339 -0.4585 -0.0045 -0.3168
  195MOL0     C26212   8.599   0.696   3.439 -0.4013 -0.0176 -0.4195
  195MOL0     C26213   8.533   0.594   3.536  0.5241 -0.0640  0.2748
  195MOL0     O26214   8.477   0.488   3.462  0.5159 -1.1458 -0.2332
  195MOL0     C26215   8.336   0.491   3.437  0.2693  0.7603  0.6536
  195MOL0     C26216   8.286   0.389   3.350  0.5485  0.3917  0.0188
  195MOL0     C26217   8.153   0.378   3.307 -0.4260 -0.1851  0.0095
  195MOL0     C26218   8.112   0.261   3.221  0.3135  0.4886 -0.1691
  195MOL0     C26219   8.062   0.473   3.356  1.5129  0.4183  0.7327
  195MOL0     C26220   7.908   0.465   3.323 -1.1853  0.8909  0.2611
  195MOL0     O26221   7.842   0.369   3.250 -0.2072 -0.1946  0.4615
  195MOL0     C26222   7.705   0.359   3.244  0.4231 -0.0080 -0.3104
  195MOL0     C26223   7.619   0.395   3.349  0.6069 -0.2074  1.0824
  195MOL0     C26224   7.483   0.393   3.327  0.7879 -0.0588 -0.7427
  195MOL0     C26225   7.427   0.344   3.206  0.2793 -0.6630  0.1099
  195MOL0     O26226   7.294   0.334   3.173 -0.5679 -0.6189 -0.1134
  195MOL0     C26227   7.206   0.442   3.221 -0.3630 -0.8335 -0.0237
  195MOL0     C26228   7.058   0.425   3.174 -0.1245 -0.3065 -0.6590
  195MOL0     C26229   6.999   0.295   3.212  0.8824 -0.3727  0.4699
  195MOL0     C26230   6.850   0.281   3.186  0.8190  0.0761 -0.3267
  195MOL0     C26231   6.760   0.348   3.289 -0.4711 -0.8796  0.0432
  195MOL0     C26232   6.607   0.322   3.268 -0.9399  0.0648 -0.5932
  195MOL0     C26233   6.562   0.384   3.137 -0.9175  0.6468  0.2269
  195MOL0     C26234   6.414   0.382   3.112 -0.1450 -0.1023  0.1074
  195MOL0    Cl26235   6.333   0.484   3.221  0.1519 -0.0622  0.4764
  195MOL0     C26236   7.520   0.309   3.104  0.5280  0.7086 -1.5281
  195MOL0     C26237   7.654   0.311   3.129  0.1223 -0.0174  0.3035
  195MOL0     O26238   7.850   0.565   3.362  0.0459  0.5924 -1.2386
  195MOL0     C26239   8.111   0.567   3.443  0.3393  0.5647 -0.2454
  195MOL0     C26240   8.243   0.582   3.473  0.1406  0.5587 -0.5806
  195MOL0     N26241   8.905   0.934   3.341 -0.7211 -0.3724 -0.6166
  195MOL0     N26242   9.014   0.964   3.398  0.5577  0.0128  0.4661
  195MOL0     C26243  10.278   0.881   3.507 -0.2727 -1.1826 -0.1538
  195MOL0     C26244  10.405   0.940   3.488  0.3005  0.3859 -0.4406
  195MOL0     C26245  10.846   0.954   3.537 -0.5785 -0.5240 -0.3841
  195MOL0     C26246  10.899   1.030   3.640  0.2533  0.2637  0.0687
  195MOL0     C26247  11.037   1.065   3.640  0.2237 -0.3707 -0.4682
  195MOL0     C26248  11.114   1.049   3.528  0.1386  1.4081 -0.3492
  195MOL0     O26249  11.250   1.088   3.535 -0.0375  0.3817  0.1334
  195MOL0     C26250  11.277   1.204   3.618  0.7365 -0.2465  0.6261
  195MOL0     C26251  11.423   1.261   3.590  0.8600  0.3880 -0.2014
  195MOL0     C26252  11.464   1.355   3.707  1.0722 -0.2964 -0.3905
  195MOL0     C26253  11.595   1.428   3.671  0.2082  0.3234 -0.0402
  195MOL0     C26254  11.709   1.337   3.660 -0.3397 -0.3749 -0.4252
  195MOL0     C26255  11.803   1.258   3.670  0.2251 -0.3996 -0.2407
  195MOL0     C26256  11.062   0.986   3.420  0.4936 -0.0423  0.7438
  195MOL0     C26257  10.925   0.932   3.426  0.1987 -0.0071 -0.3064
  195MOL0     H26258  10.557   0.715   3.304 -0.1229  0.3275  0.3957
  195MOL0     H26259  10.322   0.602   3.314 -0.2248  1.1306 -4.1095
  195MOL0     H26260  10.026   0.602   3.586  1.2406  0.3193  1.8551
  195MOL0     H26261  10.128   0.728   3.647 -0.1426 -1.1120 -0.3969
  195MOL0     H26262   9.912   0.812   3.674 -0.7455 -0.3193 -0.0685
  195MOL0     H26263   9.970   0.895   3.531  0.5884  0.4801  1.1628
  195MOL0     H26264   9.814   0.769   3.375 -0.0617 -3.0267 -1.0327
  195MOL0     H26265   9.820   0.633   3.483  0.8525  0.1368  1.0519
  195MOL0     H26266   9.670   0.747   3.637 -1.8119  1.5578  1.0275
  195MOL0     H26267   9.700   0.905   3.566 -2.2298  0.8139 -0.6016
  195MOL0     H26268   9.579   0.782   3.359  0.9480 -2.3688 -0.4964
  195MOL0     H26269   9.542   0.654   3.463  1.3288 -0.6046 -0.7366
  195MOL0     H26270   9.430   0.747   3.620 -1.1675 -2.6632 -1.4367
  195MOL0     H26271   9.460   0.920   3.551 -0.3084  0.0926 -2.1529
  195MOL0     H26272   9.335   0.866   3.355  0.2073 -0.7292 -0.2398
  195MOL0     H26273   9.297   0.701   3.412 -0.4768  0.1592 -1.0562
  195MOL0     H26274   9.206   0.935   3.573 -1.6304 -0.1756 -0.1194
  195MOL0     H26275   9.183   0.771   3.605 -0.3865  0.9825  0.5950
  195MOL0     H26276   9.008   0.631   3.427  0.2636 -0.3688 -0.6515
  195MOL0     H26277   8.704   0.801   3.218 -0.6734 -0.5179 -0.2845
  195MOL0     H26278   8.816   0.672   3.175 -0.7240  0.5642 -1.4265
  195MOL0     H26279   8.757   0.560   3.397  0.1481  0.2884 -0.6763
  195MOL0     H26280   8.637   0.559   3.270 -0.5992  0.2161 -0.4171
  195MOL0     H26281   8.511   0.736   3.387  0.4801  1.2948 -0.9488
  195MOL0     H26282   8.639   0.786   3.488  2.1468 -1.6121  0.5942
  195MOL0     H26283   8.458   0.634   3.604  0.9300  0.5072  0.3879
  195MOL0     H26284   8.610   0.557   3.604 -2.5748 -2.5141  2.7856
  195MOL0     H26285   8.362   0.318   3.318  0.2223  0.5766 -1.2219
  195MOL0     H26286   8.194   0.198   3.186  0.3125 -2.5150  4.4187
  195MOL0     H26287   8.049   0.191   3.275  1.0048  1.0904  1.5036
  195MOL0     H26288   8.062   0.293   3.129  0.1141 -0.0789 -0.2633
  195MOL0     H26289   7.655   0.431   3.445 -0.9290  0.2592  1.5023
  195MOL0     H26290   7.418   0.430   3.405 -0.7497  1.2296 -2.5437
  195MOL0     H26291   7.204   0.455   3.330  0.5812  1.3741 -0.2236
  195MOL0     H26292   7.247   0.536   3.182  0.0205 -1.2390 -0.6247
  195MOL0     H26293   6.994   0.504   3.214  0.8906  0.9308 -1.4145
  195MOL0     H26294   7.036   0.436   3.068  0.0002  1.6734 -0.5165
  195MOL0     H26295   7.015   0.281   3.319 -0.2241  2.6141  1.1005
  195MOL0     H26296   7.053   0.219   3.153  2.2273  0.9488 -0.0626
  195MOL0     H26297   6.824   0.322   3.089  0.0199  1.6171  0.4998
  195MOL0     H26298   6.822   0.176   3.200 -0.7503  0.1720 -2.2768
  195MOL0     H26299   6.777   0.456   3.294  0.4870 -1.0416  0.3971
  195MOL0     H26300   6.779   0.311   3.390 -3.4056  0.1991  1.0925
  195MOL0     H26301   6.584   0.215   3.267  0.2756 -0.2108 -0.4281
  195MOL0     H26302   6.559   0.368   3.355  3.1404  1.6967  1.0433
  195MOL0     H26303   6.603   0.310   3.067 -0.8197 -2.5814  3.3914
  195MOL0     H26304   6.603   0.484   3.118 -1.0208  0.9130  1.3642
  195MOL0     H26305   6.386   0.280   3.140  1.9040 -0.8404 -0.3604
  195MOL0     H26306   6.392   0.394   3.006  3.2665 -2.3865 -1.0273
  195MOL0     H26307   7.493   0.278   3.004  0.5587 -2.7051 -0.6204
  195MOL0     H26308   7.736   0.287   3.062 -0.3561  2.3138 -1.2736
  195MOL0     H26309   8.042   0.640   3.484 -0.7883 -0.7553  0.2891
  195MOL0     H26310   8.257   0.674   3.529 -0.1703  1.2797 -1.6561
  195MOL0     H26311  10.204   0.934   3.566 -0.1367  0.4760 -1.3945
  195MOL0     H26312  10.437   1.029   3.541  0.0001  1.9169 -2.6959
  195MOL0     H26313  10.837   1.051   3.726  1.7126  1.8976  0.7767
  195MOL0     H26314  11.079   1.097   3.735 -0.4487 -0.2782 -0.2013
  195MOL0     H26315  11.207   1.284   3.593  0.2961 -0.7246  0.3190
  195MOL0     H26316  11.265   1.171   3.722 -0.2959 -1.4153  0.1626
  195MOL0     H26317  11.426   1.317   3.496 -2.8250  0.8032 -0.2430
  195MOL0     H26318  11.493   1.178   3.600  0.2335  0.0572  1.6864
  195MOL0     H26319  11.486   1.298   3.799 -0.0302  1.3064  0.9246
  195MOL0     H26320  11.386   1.427   3.731  1.0650 -0.2662 -0.5052
  195MOL0     H26321  11.618   1.499   3.752  0.7130 -1.1509  1.1693
  195MOL0     H26322  11.576   1.494   3.586  1.9618  2.1072  0.8785
  195MOL0     H26323  11.885   1.190   3.671  0.4732 -0.1144  1.3547
  195MOL0     H26324  11.124   0.967   3.333  1.5279 -2.3195  1.8994
  195MOL0     H26325  10.884   0.875   3.343 -2.5788  3.0758 -1.2932
  196MOL0     O26326   2.592  10.112   1.976  0.0089 -0.0886  0.2450
  196MOL0     C26327   2.643  10.091   2.088 -0.5356  0.8221  0.4455
  196MOL0     O26328   2.579  10.079   2.199 -0.2477  0.3256  0.2705
  196MOL0     C26329   2.439  10.082   2.196  0.6080  0.0164  0.4751
  196MOL0     C26330   2.373  10.207   2.171 -0.2488  0.2327  0.0669
  196MOL0     C26331   2.239  10.218   2.154  0.1428  0.7726  0.2452
  196MOL0     C26332   2.150  10.107   2.159 -0.4520  0.0317  0.4403
  196MOL0     O26333   2.016  10.112   2.152  0.2347 -0.1351  0.3244
  196MOL0     C26334   1.971  10.080   2.283  1.0128 -0.6073  0.0525
  196MOL0     C26335   1.825  10.052   2.274 -0.3508  0.1314 -0.4679
  196MOL0     C26336   1.760  10.042   2.411 -0.1516  0.4875  0.0612
  196MOL0     C26337   1.623   9.971   2.408  1.3953 -0.0242  0.3645
  196MOL0     C26338   1.544   9.971   2.544 -0.6072  0.1680  0.2771
  196MOL0     C26339   1.490  10.108   2.565 -0.7786  0.3509 -0.0890
  196MOL0     C26340   1.397  10.083   2.688 -0.4896 -1.0092  0.3844
  196MOL0     C26341   1.324  10.203   2.730 -0.0965 -0.1957 -0.1454
  196MOL0     N26342   1.184  10.200   2.680  0.1252 -0.8799  1.1155
  196MOL0     C26343   1.133  10.221   2.553  0.2187 -0.2632 -0.6124
  196MOL0     C26344   1.003  10.227   2.565 -0.0395 -0.0764 -0.4222
  196MOL0     C26345   0.908  10.251   2.456 -1.0385 -0.7449  0.7101
  196MOL0     C26346   0.869  10.393   2.435  1.2802 -0.8017 -0.4322
  196MOL0     C26347   0.967  10.508   2.469 -0.1189  0.1841  0.2250
  196MOL0     C26348   0.903  10.647   2.499 -0.1796  0.9418 -1.2178
  196MOL0     O26349   0.864  10.666   2.633 -0.2669 -0.0710  0.4059
  196MOL0     C26350   0.764  10.750   2.652  0.1539 -0.7112 -0.5669
  196MOL0     C26351   0.661  10.711   2.741 -0.2263  0.2762 -0.0577
  196MOL0     C26352   0.553  10.797   2.768  1.0063 -0.1218 -0.1168
  196MOL0     C26353   0.463  10.766   2.887  0.4095  0.3564 -0.4663
  196MOL0     C26354   0.545  10.926   2.699 -0.0581  0.5286 -1.0203
  196MOL0     C26355   0.419  11.012   2.716 -0.7195  0.0284  0.5377
  196MOL0     O26356   0.407  11.101   2.618 -0.0363 -0.3497 -0.3517
  196MOL0     C26357   0.276  11.148   2.605  0.0389  0.1844 -0.4224
  196MOL0     C26358   0.197  11.098   2.511 -0.8650 -0.3212  0.6048
  196MOL0     C26359   0.064  11.135   2.493  0.2687 -0.8045  0.0175
  196MOL0     C26360   0.006  11.243   2.563  0.2002  0.3603 -0.6948
  196MOL0     O26361  -0.125  11.281   2.558 -0.5022 -0.5829  0.4458
  196MOL0     C26362  -0.198  11.267   2.438 -0.6024  1.1796 -0.0227
  196MOL0     C26363  -0.342  11.329   2.439  0.0122 -0.6023 -0.1971
  196MOL0     C26364  -0.436  11.256   2.536 -0.2701 -0.0446  0.0046
  196MOL0     C26365  -0.537  11.360   2.600 -0.0796 -0.1432 -0.1794
  196MOL0     C26366  -0.646  11.277   2.675  0.4042 -0.2281 -0.0286
  196MOL0     C26367  -0.754  11.374   2.720 -0.1553 -0.4779 -0.2457
  196MOL0     C26368  -0.875  11.297   2.779  0.4883  0.9763 -0.6240
  196MOL0     C26369  -0.975  11.399   2.834 -0.0847  0.4739 -0.0096
  196MOL0    Cl26370  -1.019  11.559   2.747  0.0226 -0.5846  0.3808
  196MOL0     C26371   0.091  11.302   2.659  0.2112 -0.0430 -0.7516
  196MOL0     C26372   0.220  11.246   2.688  0.2701  0.3384  0.5076
  196MOL0     O26373   0.340  11.008   2.810  0.4456  0.9762 -0.0634
  196MOL0     C26374   0.652  10.958   2.611 -0.1194 -0.0262  0.4474
  196MOL0     C26375   0.758  10.875   2.587 -0.1431 -0.4040 -0.2626
  196MOL0     N26376   0.961  10.195   2.692 -0.3180 -0.3125 -0.9404
  196MOL0     N26377   1.074  10.184   2.759  0.1401  0.1043 -0.2942
  196MOL0     C26378   2.217   9.987   2.191  0.4713 -0.1239 -0.2916
  196MOL0     C26379   2.354   9.971   2.204  1.3808  1.2179 -0.4771
  196MOL0     C26380   2.795  10.095   2.078  0.2713  0.4767 -0.6825
  196MOL0     C26381   2.882  10.094   2.189 -0.1645 -0.2582 -0.0412
  196MOL0     C26382   3.019  10.067   2.172  0.5240  0.2039  0.1099
  196MOL0     C26383   3.078  10.061   2.046 -0.5687 -0.7839  0.0011
  196MOL0     O26384   3.216  10.040   2.042  0.2258  0.5133  0.2685
  196MOL0     C26385   3.298  10.039   1.925  0.3381 -0.0592  0.2554
  196MOL0     C26386   3.449  10.049   1.949  0.1939 -0.0745 -0.0961
  196MOL0     C26387   3.519   9.913   1.981  0.1794 -0.1066  0.3828
  196MOL0     C26388   3.664   9.938   2.023 -1.0874  0.0876  0.3769
  196MOL0     C26389   3.749   9.968   1.907 -1.4031 -0.2342 -0.1719
  196MOL0     C26390   3.813   9.994   1.799  0.0737  0.2751 -0.0881
  196MOL0     C26391   2.997  10.065   1.931 -0.2107  0.2071 -1.0060
  196MOL0     C26392   2.858  10.072   1.949  0.6705  0.0817  0.7728
  196MOL0     H26393   2.427  10.300   2.166  0.0257  0.0284 -0.9615
  196MOL0     H26394   2.207  10.316   2.119 -1.1788  0.0002 -0.8215
  196MOL0     H26395   2.019   9.994   2.331 -1.3768 -0.6757  2.5501
  196MOL0     H26396   1.973  10.171   2.345 -0.7354  1.5463 -2.8295
  196MOL0     H26397   1.782  10.134   2.215  0.1264 -0.3125 -1.4516
  196MOL0     H26398   1.801   9.965   2.212 -0.6878  1.7230 -2.7079
  196MOL0     H26399   1.826   9.978   2.470  0.6326 -1.5792 -2.8179
  196MOL0     H26400   1.759  10.142   2.455  0.9455  1.1479 -1.3449
  196MOL0     H26401   1.561  10.021   2.334 -0.9919 -0.4325  1.9631
  196MOL0     H26402   1.638   9.865   2.385  1.1194 -0.8708  3.6427
  196MOL0     H26403   1.453   9.910   2.543 -1.1060  0.8615  1.7048
  196MOL0     H26404   1.610   9.940   2.626 -1.2069  1.6344  1.3547
  196MOL0     H26405   1.568  10.182   2.585  1.2496 -2.1675  2.0160
  196MOL0     H26406   1.431  10.144   2.479 -1.0093 -0.9659 -0.4999
  196MOL0     H26407   1.320  10.009   2.667 -4.4106  2.4244  1.4564
  196MOL0     H26408   1.471  10.050   2.762  3.2630  1.6314 -1.8150
  196MOL0     H26409   1.387  10.291   2.709 -1.5903  0.8515 -0.4295
  196MOL0     H26410   1.332  10.215   2.839 -0.3311  2.5603 -0.3527
  196MOL0     H26411   1.186  10.241   2.461 -1.2122  2.5574 -0.9122
  196MOL0     H26412   0.955  10.221   2.362 -2.9394 -1.6486 -0.0083
  196MOL0     H26413   0.825  10.183   2.480  1.4369 -2.9250  4.0696
  196MOL0     H26414   0.783  10.401   2.502  2.7782 -4.7770  2.3363
  196MOL0     H26415   0.832  10.408   2.333  0.3033 -0.2797 -0.0160
  196MOL0     H26416   1.030  10.517   2.379  0.1533 -2.2105  0.0987
  196MOL0     H26417   1.027  10.485   2.557  1.2285  1.8148 -0.2203
  196MOL0     H26418   0.816  10.663   2.435  0.5589  1.1555 -2.1993
  196MOL0     H26419   0.981  10.723   2.482 -1.8220  2.9003 -0.4150
  196MOL0     H26420   0.664  10.613   2.788  0.7840  0.9180  1.2721
  196MOL0     H26421   0.355  10.761   2.869  0.7798 -0.0790 -2.8378
  196MOL0     H26422   0.488  10.667   2.926  2.3210  1.5214  1.4625
  196MOL0     H26423   0.476  10.842   2.965  0.9019  1.4581 -1.5936
  196MOL0     H26424   0.230  11.020   2.443  2.5386  2.2762 -0.9974
  196MOL0     H26425   0.003  11.085   2.418 -0.5396  0.6937 -0.3807
  196MOL0     H26426  -0.147  11.311   2.352 -0.5773 -1.7917 -1.6603
  196MOL0     H26427  -0.204  11.162   2.408 -0.1695  1.6667 -1.9652
  196MOL0     H26428  -0.324  11.434   2.463  1.4889 -1.3583  2.4275
  196MOL0     H26429  -0.375  11.331   2.335  2.2765 -1.2727 -0.9866
  196MOL0     H26430  -0.388  11.206   2.621 -0.9222  0.8584  0.9307
  196MOL0     H26431  -0.497  11.186   2.477 -0.9720  0.4030  0.1798
  196MOL0     H26432  -0.488  11.433   2.665 -2.1048  0.8412  0.3089
  196MOL0     H26433  -0.582  11.423   2.523  0.5070  0.3905 -0.0982
  196MOL0     H26434  -0.611  11.222   2.763 -1.2594 -1.0522  0.1597
  196MOL0     H26435  -0.684  11.199   2.609 -0.0553  2.2702 -2.8891
  196MOL0     H26436  -0.715  11.440   2.798  1.2722 -2.4841  0.8153
  196MOL0     H26437  -0.784  11.430   2.631 -0.6825 -1.8949 -0.9904
  196MOL0     H26438  -0.843  11.226   2.856  2.4167 -0.6505 -2.7810
  196MOL0     H26439  -0.927  11.240   2.702 -2.6311 -0.0444  1.9923
  196MOL0     H26440  -0.937  11.419   2.934 -1.6053  0.2966  0.6293
  196MOL0     H26441  -1.063  11.339   2.858  0.6983 -1.7021 -2.1760
  196MOL0     H26442   0.037  11.381   2.712  0.6436 -0.5443  0.4800
  196MOL0     H26443   0.277  11.274   2.776 -1.6366  0.2009  1.8414
  196MOL0     H26444   0.646  11.049   2.552 -3.1092  0.1369  0.8441
  196MOL0     H26445   0.829  10.915   2.516 -1.0970 -0.0437 -1.0332
  196MOL0     H26446   2.159   9.895   2.183 -1.4275  0.8320  1.3625
  196MOL0     H26447   2.399   9.872   2.214  1.9800  1.6336  1.2179
  196MOL0     H26448   2.851  10.104   2.293 -1.5307 -0.6028 -0.3934
  196MOL0     H26449   3.088  10.068   2.255 -0.2643  2.7762  0.8384
  196MOL0     H26450   3.277   9.961   1.852  2.1724  0.1420 -0.5542
  196MOL0     H26451   3.289  10.134   1.871  0.0412 -0.9792 -1.3755
  196MOL0     H26452   3.459  10.121   2.031  0.1203 -1.1961  0.9315
  196MOL0     H26453   3.497  10.096   1.862 -0.7745  1.1119 -0.0177
  196MOL0     H26454   3.510   9.863   1.884  2.1254 -0.7155  0.4715
  196MOL0     H26455   3.462   9.859   2.057  1.4264 -3.0633 -0.6394
  196MOL0     H26456   3.693   9.844   2.072 -1.5822 -0.2142  0.0963
  196MOL0     H26457   3.673  10.026   2.087 -0.7802  0.4042 -0.0946
  196MOL0     H26458   3.877  10.006   1.714 -0.7874 -2.3919 -1.2164
  196MOL0     H26459   3.040  10.069   1.832 -2.7948 -1.5778 -2.3187
  196MOL0     H26460   2.793  10.073   1.862  1.2437  0.9006  0.3355
  197MOL0     O26461  10.815   4.665   7.647 -0.0364 -0.0743 -0.7740
  197MOL0     C26462  10.857   4.595   7.555  0.5391 -0.0656 -0.8443
  197MOL0     O26463  10.792   4.565   7.441 -0.1746  0.4891 -0.1047
  197MOL0     C26464  10.664   4.608   7.426 -0.6627 -0.5408  0.3402
  197MOL0     C26465  10.559   4.545   7.495  0.4089  0.6280  1.0360
  197MOL0     C26466  10.429   4.588   7.476 -0.2146  0.3010  0.0350
  197MOL0     C26467  10.404   4.704   7.410 -0.9670 -0.4999  1.0016
  197MOL0     O26468  10.274   4.747   7.409  0.4570 -0.0191 -0.1494
  197MOL0     C26469  10.220   4.820   7.295 -0.0678 -0.2678 -0.9893
  197MOL0     C26470  10.090   4.894   7.337 -0.6554  0.4006  0.6703
  197MOL0     C26471   9.993   4.890   7.215 -0.1935 -0.1956 -0.2965
  197MOL0     C26472   9.852   4.925   7.260 -0.2342 -0.5135  0.3335
  197MOL0     C26473   9.748   4.910   7.151  0.7104  0.3248  0.2584
  197MOL0     C26474   9.620   4.940   7.220  0.0736  0.1353  0.9177
  197MOL0     C26475   9.498   4.848   7.162 -0.3986  0.4613  0.2305
  197MOL0     C26476   9.377   4.935   7.147 -0.5437  0.2536  0.8200
  197MOL0     N26477   9.258   4.861   7.121  0.1004 -0.1457  0.9036
  197MOL0     C26478   9.255   4.745   7.038 -0.3156 -0.6495  0.8518
  197MOL0     C26479   9.136   4.682   7.066 -0.5834 -0.1447  0.2461
  197MOL0     C26480   9.092   4.548   6.999  0.9869 -0.7502 -0.6410
  197MOL0     C26481   8.995   4.560   6.875  0.2167 -0.4388 -0.3789
  197MOL0     C26482   8.861   4.628   6.911  0.0658 -0.5747 -0.1319
  197MOL0     C26483   8.803   4.560   7.041  0.0555 -0.7864 -0.2985
  197MOL0     O26484   8.665   4.597   7.032 -0.7455 -0.1450  0.9660
  197MOL0     C26485   8.580   4.489   7.029  0.1379 -0.4460 -0.3150
  197MOL0     C26486   8.561   4.421   7.142 -0.1906  0.6596  0.0269
  197MOL0     C26487   8.478   4.310   7.140 -0.3591  0.1814  0.0524
  197MOL0     C26488   8.457   4.239   7.273  0.0479  0.0488 -0.1041
  197MOL0     C26489   8.404   4.271   7.029  0.4029  0.4779 -0.3758
  197MOL0     C26490   8.304   4.157   7.034  0.3442  0.2597  0.2755
  197MOL0     O26491   8.194   4.171   6.955  0.4631  0.3069 -0.0396
  197MOL0     C26492   8.093   4.084   6.970  0.1567 -1.0476  0.0106
  197MOL0     C26493   8.079   3.956   6.903 -0.1441  0.2061  0.2733
  197MOL0     C26494   7.961   3.880   6.930  0.1441 -0.3115  0.0734
  197MOL0     C26495   7.866   3.918   7.036 -0.5230 -0.2753  0.2425
  197MOL0     O26496   7.762   3.839   7.076  0.0709 -0.2583 -0.0809
  197MOL0     C26497   7.654   3.841   6.994  0.3091  0.9947 -0.0247
  197MOL0     C26498   7.551   3.753   7.071  0.1098 -0.0470 -0.0355
  197MOL0     C26499   7.434   3.706   6.988  0.2199  0.2875  0.1468
  197MOL0     C26500   7.317   3.646   7.081 -0.1180  0.4435 -0.3343
  197MOL0     C26501   7.225   3.555   6.997 -0.1414 -0.3692  0.2407
  197MOL0     C26502   7.091   3.525   7.058  0.4558  0.7516 -0.1485
  197MOL0     C26503   7.004   3.452   6.953 -0.8057 -0.5235 -0.2213
  197MOL0     C26504   6.856   3.458   6.987  0.3671 -0.5442  0.2936
  197MOL0    Cl26505   6.775   3.361   6.862  0.6889  0.4340  0.2660
  197MOL0     C26506   7.882   4.042   7.083  0.4909 -0.1761 -0.0743
  197MOL0     C26507   7.988   4.117   7.053  0.3160 -0.2380 -0.5018
  197MOL0     O26508   8.322   4.063   7.111  0.5825  0.9720 -1.4828
  197MOL0     C26509   8.419   4.356   6.915  0.7546  0.1534 -0.0465
  197MOL0     C26510   8.507   4.466   6.920  0.5351 -0.1592  0.4950
  197MOL0     N26511   9.068   4.765   7.153 -0.1034 -0.5311  0.3936
  197MOL0     N26512   9.145   4.860   7.193 -0.2752 -0.1329  0.3041
  197MOL0     C26513  10.500   4.758   7.329 -0.9979 -0.3668 -1.5376
  197MOL0     C26514  10.636   4.711   7.341  0.1223  0.1533 -0.0595
  197MOL0     C26515  11.000   4.552   7.577  0.2439 -0.1928 -0.5759
  197MOL0     C26516  11.066   4.591   7.696  0.3817  0.5676 -0.8623
  197MOL0     C26517  11.192   4.537   7.720  0.1640  0.3642 -0.0799
  197MOL0     C26518  11.261   4.446   7.637  0.1284 -0.2315 -0.3070
  197MOL0     O26519  11.382   4.387   7.659 -0.0688  0.2478  0.2110
  197MOL0     C26520  11.436   4.382   7.790 -0.1923 -0.6609 -0.3094
  197MOL0     C26521  11.583   4.342   7.780 -0.1473  0.0349  0.9576
  197MOL0     C26522  11.687   4.435   7.718 -0.4000  0.3275 -0.6152
  197MOL0     C26523  11.822   4.388   7.695  0.1742 -0.1115  0.0481
  197MOL0     C26524  11.830   4.329   7.566  0.0545  0.4973  0.7623
  197MOL0     C26525  11.834   4.295   7.447 -0.5577  0.5248 -0.2779
  197MOL0     C26526  11.203   4.436   7.514  0.2456 -0.4078  0.2619
  197MOL0     C26527  11.077   4.482   7.487 -0.2888  0.5347  0.0652
  197MOL0     H26528  10.589   4.461   7.557 -3.8169 -2.1324 -0.2093
  197MOL0     H26529  10.347   4.539   7.527 -0.2329 -2.1500 -2.1374
  197MOL0     H26530  10.283   4.897   7.251 -2.0335  1.9379 -0.1901
  197MOL0     H26531  10.198   4.749   7.216  0.6039 -0.1928 -1.2495
  197MOL0     H26532  10.056   4.832   7.419 -0.7084  1.4806  1.4860
  197MOL0     H26533  10.107   4.996   7.374 -0.7446  0.7214 -0.1399
  197MOL0     H26534  10.045   4.952   7.142 -0.4558 -0.8660 -1.0671
  197MOL0     H26535   9.974   4.791   7.172 -2.9605  1.0282 -2.1467
  197MOL0     H26536   9.823   4.845   7.328 -2.8560 -1.0703 -1.2983
  197MOL0     H26537   9.840   5.024   7.304 -1.1455 -0.6213  0.3450
  197MOL0     H26538   9.756   4.961   7.054 -1.7631 -1.0685 -0.7689
  197MOL0     H26539   9.738   4.803   7.130  3.5629 -0.2686  1.4567
  197MOL0     H26540   9.616   4.905   7.324 -2.8657 -0.7303  0.5873
  197MOL0     H26541   9.596   5.046   7.204 -2.9877 -0.5831  0.2549
  197MOL0     H26542   9.517   4.808   7.062 -1.3115  0.7206 -0.0577
  197MOL0     H26543   9.473   4.759   7.219 -0.6051  0.7273  0.5620
  197MOL0     H26544   9.397   5.000   7.062 -0.9146 -1.9935 -1.0979
  197MOL0     H26545   9.361   4.996   7.237 -0.6887  0.7105  0.4868
  197MOL0     H26546   9.327   4.693   6.977 -1.7878 -2.7490  0.7954
  197MOL0     H26547   9.184   4.490   6.986  0.7930 -1.9832  2.5239
  197MOL0     H26548   9.036   4.488   7.071 -0.9359  0.9640 -0.6099
  197MOL0     H26549   8.979   4.459   6.833  2.5217 -0.3990 -1.4971
  197MOL0     H26550   9.043   4.621   6.798  0.9465  3.2470  2.7140
  197MOL0     H26551   8.799   4.605   6.824  1.2029  0.5884 -1.3120
  197MOL0     H26552   8.878   4.736   6.921 -1.3297 -0.3552  0.0320
  197MOL0     H26553   8.853   4.602   7.129  1.8740  0.6705 -1.9421
  197MOL0     H26554   8.809   4.450   7.036 -2.1192 -1.1136  2.3141
  197MOL0     H26555   8.627   4.435   7.227 -0.9992 -1.7393  1.1202
  197MOL0     H26556   8.353   4.213   7.296  0.4844 -2.3677 -0.5872
  197MOL0     H26557   8.523   4.152   7.275  0.6926  0.5410  0.1815
  197MOL0     H26558   8.494   4.290   7.362  1.1097 -1.6327  0.4609
  197MOL0     H26559   8.159   3.931   6.834  1.2030  4.2082  0.1162
  197MOL0     H26560   7.954   3.784   6.879 -1.2095 -1.6080  2.5263
  197MOL0     H26561   7.607   3.940   6.980  0.3606  0.8729 -1.2007
  197MOL0     H26562   7.675   3.792   6.898 -0.8295  1.5289 -0.5741
  197MOL0     H26563   7.608   3.664   7.100  3.9119  1.5813 -1.7184
  197MOL0     H26564   7.506   3.813   7.150 -1.7011 -2.3642  0.8152
  197MOL0     H26565   7.471   3.631   6.917 -1.5200  0.6977 -1.2826
  197MOL0     H26566   7.391   3.788   6.930  0.2228  0.5383  0.4948
  197MOL0     H26567   7.369   3.594   7.162  0.2002 -1.4975 -1.7311
  197MOL0     H26568   7.260   3.730   7.122 -0.8705  0.2508 -0.9671
  197MOL0     H26569   7.275   3.457   6.989  0.0543 -0.5377  2.6693
  197MOL0     H26570   7.208   3.602   6.900  0.9916 -2.3189 -0.9821
  197MOL0     H26571   7.098   3.457   7.143  2.1797 -1.2798 -1.7913
  197MOL0     H26572   7.034   3.613   7.088 -0.5001  0.3869 -0.8216
  197MOL0     H26573   7.036   3.347   6.947 -0.0084 -0.3264  0.4622
  197MOL0     H26574   7.017   3.500   6.856 -0.0374  2.0546  1.0605
  197MOL0     H26575   6.811   3.558   6.982 -0.3594 -0.9221 -2.0432
  197MOL0     H26576   6.843   3.422   7.089  1.7327 -0.8872  0.3708
  197MOL0     H26577   7.801   4.063   7.151 -1.2966 -2.0886 -1.4821
  197MOL0     H26578   7.980   4.214   7.101 -1.4977 -1.3117  1.5312
  197MOL0     H26579   8.342   4.340   6.840 -1.8425  1.3353  2.1982
  197MOL0     H26580   8.529   4.540   6.844  0.5256 -0.9648 -0.3189
  197MOL0     H26581  10.493   4.849   7.271 -1.8968 -0.0207 -0.9026
  197MOL0     H26582  10.713   4.752   7.275 -0.4535 -0.1172 -0.9163
  197MOL0     H26583  11.007   4.637   7.775  1.4559 -0.8553  0.8446
  197MOL0     H26584  11.232   4.559   7.819  2.2339 -0.0142 -0.7768
  197MOL0     H26585  11.439   4.476   7.846 -0.0614 -0.8596  0.0209
  197MOL0     H26586  11.385   4.306   7.850  0.2222  0.3157  1.3319
  197MOL0     H26587  11.585   4.246   7.728 -2.2777  0.2922  0.2736
  197MOL0     H26588  11.613   4.322   7.884 -0.5294 -0.2187  1.0243
  197MOL0     H26589  11.684   4.517   7.790 -1.4414 -0.8720  0.7460
  197MOL0     H26590  11.656   4.487   7.626 -0.6530  1.2786 -0.0070
  197MOL0     H26591  11.860   4.317   7.769  2.9548 -0.9915 -2.0337
  197MOL0     H26592  11.885   4.477   7.698 -0.8207  0.6681 -1.2922
  197MOL0     H26593  11.845   4.244   7.353 -0.1992 -0.8129  0.4524
  197MOL0     H26594  11.266   4.396   7.436  1.8821 -1.5633  2.0823
  197MOL0     H26595  11.049   4.476   7.382  0.7226  0.2955 -0.2005
  198MOL0     O26596   0.274   1.844   5.563  0.0707 -0.1897 -0.0656
  198MOL0     C26597   0.319   1.746   5.626 -0.1287  0.9142  0.2756
  198MOL0     O26598   0.245   1.652   5.690  0.8185  0.0358  0.2377
  198MOL0     C26599   0.108   1.643   5.692  0.5113 -0.5257 -0.6295
  198MOL0     C26600   0.009   1.679   5.598  0.3227 -0.4485 -0.0427
  198MOL0     C26601  -0.120   1.662   5.624  1.6414 -0.3806 -1.4012
  198MOL0     C26602  -0.168   1.609   5.752  0.7310  0.2169 -0.5482
  198MOL0     O26603  -0.298   1.557   5.772  0.2509  0.2541  0.6516
  198MOL0     C26604  -0.403   1.584   5.670 -0.0278 -0.9963 -0.2308
  198MOL0     C26605  -0.546   1.608   5.727 -0.8570  0.3717 -0.1115
  198MOL0     C26606  -0.640   1.679   5.621  1.1324  1.0900  0.5044
  198MOL0     C26607  -0.787   1.655   5.649  0.2777  0.2061 -0.0580
  198MOL0     C26608  -0.884   1.652   5.533 -0.0831 -0.0567 -0.0099
  198MOL0     C26609  -1.031   1.606   5.572 -0.5008  0.4193  0.1743
  198MOL0     C26610  -1.146   1.672   5.491  0.0587  0.1362  0.3505
  198MOL0     C26611  -1.199   1.792   5.558  0.2288  0.1276  0.5312
  198MOL0     N26612  -1.114   1.903   5.565  0.5486 -1.0194 -0.5494
  198MOL0     C26613  -1.034   1.955   5.468  0.0362 -0.2592  0.1624
  198MOL0     C26614  -0.977   2.069   5.522  0.4996 -0.2626 -0.4327
  198MOL0     C26615  -0.894   2.178   5.459 -0.2134  0.7955 -0.4512
  198MOL0     C26616  -0.765   2.228   5.536  0.6550 -0.3177 -0.1564
  198MOL0     C26617  -0.683   2.336   5.462  1.0026  0.4027  0.1339
  198MOL0     C26618  -0.571   2.368   5.554  0.2517  0.1622  0.5015
  198MOL0     O26619  -0.485   2.451   5.489 -0.3981  0.3923  0.3615
  198MOL0     C26620  -0.400   2.534   5.556 -0.0299 -0.2442 -0.9053
  198MOL0     C26621  -0.321   2.603   5.468 -0.1698 -0.3763 -0.5976
  198MOL0     C26622  -0.202   2.671   5.515 -0.0269 -0.2445 -0.4699
  198MOL0     C26623  -0.128   2.752   5.409  0.1605 -0.0350 -0.2494
  198MOL0     C26624  -0.173   2.670   5.652 -0.1463 -0.5472  0.3152
  198MOL0     C26625  -0.050   2.719   5.703 -0.2250 -0.4865 -0.0626
  198MOL0     O26626  -0.045   2.736   5.835 -0.5161  0.1631  0.4374
  198MOL0     C26627   0.081   2.732   5.890  0.2825  0.0159  0.7511
  198MOL0     C26628   0.164   2.843   5.871 -0.4725 -0.2505  0.3480
  198MOL0     C26629   0.290   2.854   5.927  0.1184 -0.0477 -1.0018
  198MOL0     C26630   0.337   2.747   6.007  0.9012  0.0051 -0.4010
  198MOL0     O26631   0.468   2.739   6.055 -0.5374 -0.4475 -0.1431
  198MOL0     C26632   0.518   2.850   6.122  0.4986 -0.3804 -0.0154
  198MOL0     C26633   0.652   2.808   6.190  0.2379  0.0083 -0.3188
  198MOL0     C26634   0.757   2.759   6.091  0.3032 -0.3272  1.2518
  198MOL0     C26635   0.772   2.862   5.977  0.0423  0.3500  0.8504
  198MOL0     C26636   0.881   2.834   5.885  0.0224  0.1280 -0.3833
  198MOL0     C26637   1.016   2.882   5.949 -0.6501  0.7620  0.5093
  198MOL0     C26638   1.133   2.903   5.850 -0.2677 -0.3121 -0.4645
  198MOL0     C26639   1.176   2.784   5.753 -0.5355 -0.1875 -0.3066
  198MOL0    Cl26640   1.070   2.765   5.609 -0.1605  0.3481  0.1828
  198MOL0     C26641   0.263   2.632   6.021 -0.2652  0.1987 -0.4969
  198MOL0     C26642   0.131   2.628   5.975 -0.2507  0.2623  0.3441
  198MOL0     O26643   0.048   2.710   5.631 -0.1021 -0.3091  0.4250
  198MOL0     C26644  -0.272   2.618   5.734  0.4757  0.2532  0.6778
  198MOL0     C26645  -0.391   2.554   5.692  0.2701 -0.2571 -0.5125
  198MOL0     N26646  -1.021   2.077   5.656 -0.4353 -0.6361 -0.0014
  198MOL0     N26647  -1.103   1.978   5.679 -0.0648 -0.0825 -1.0618
  198MOL0     C26648  -0.078   1.583   5.850 -0.6529 -0.3176 -0.3348
  198MOL0     C26649   0.061   1.583   5.822 -0.2443 -1.6478  1.1276
  198MOL0     C26650   0.465   1.716   5.643  0.3269 -0.6748  1.1462
  198MOL0     C26651   0.505   1.593   5.692 -0.0289  0.6176  0.2829
  198MOL0     C26652   0.640   1.561   5.718 -0.9168 -0.7720  0.2811
  198MOL0     C26653   0.742   1.656   5.689 -0.1692  0.2402 -0.1146
  198MOL0     O26654   0.877   1.639   5.707  0.0847 -0.3377 -1.0068
  198MOL0     C26655   0.937   1.524   5.770  0.2326  0.6096 -0.0689
  198MOL0     C26656   1.084   1.542   5.790  0.5751 -0.1861 -0.2673
  198MOL0     C26657   1.153   1.402   5.806 -0.1788 -0.1507 -0.7432
  198MOL0     C26658   1.254   1.364   5.700 -1.4486  0.4029 -0.0734
  198MOL0     C26659   1.382   1.438   5.709 -0.4641  0.6081  0.1442
  198MOL0     C26660   1.477   1.506   5.734 -0.0890 -0.5432 -0.4012
  198MOL0     C26661   0.698   1.776   5.636  1.0197  0.2702 -0.2560
  198MOL0     C26662   0.565   1.814   5.616  0.2778  0.0020 -1.2095
  198MOL0     H26663   0.056   1.727   5.512  0.3148 -0.8922 -0.2980
  198MOL0     H26664  -0.191   1.685   5.545 -0.2371 -1.1287 -0.0265
  198MOL0     H26665  -0.380   1.673   5.610  2.9615 -2.7763 -1.9363
  198MOL0     H26666  -0.415   1.499   5.603 -0.8554 -1.5668  0.6178
  198MOL0     H26667  -0.579   1.508   5.757  2.4360 -1.2951 -1.5481
  198MOL0     H26668  -0.543   1.655   5.826  1.4944 -1.1790  0.6418
  198MOL0     H26669  -0.621   1.786   5.630  1.0553  1.2206 -0.7380
  198MOL0     H26670  -0.630   1.644   5.518  0.0820 -2.4484  1.4685
  198MOL0     H26671  -0.813   1.559   5.694 -2.5126  0.5036 -0.8541
  198MOL0     H26672  -0.817   1.729   5.724  1.5960  1.3346 -0.5966
  198MOL0     H26673  -0.888   1.743   5.472  1.5863 -0.1439 -0.2918
  198MOL0     H26674  -0.844   1.570   5.472  3.7406 -0.4904  2.7411
  198MOL0     H26675  -1.030   1.502   5.539 -1.9254  0.8875 -1.5264
  198MOL0     H26676  -1.056   1.614   5.678 -0.0005  0.8207  0.2656
  198MOL0     H26677  -1.104   1.698   5.394 -0.0250  0.8841  0.5102
  198MOL0     H26678  -1.218   1.590   5.477  2.9771 -2.6016  0.2261
  198MOL0     H26679  -1.238   1.764   5.657 -3.3133 -0.7186 -0.9459
  198MOL0     H26680  -1.289   1.822   5.503  0.7099  0.4289 -0.0953
  198MOL0     H26681  -1.024   1.930   5.363  0.7133 -0.9766  0.3923
  198MOL0     H26682  -0.874   2.144   5.357 -4.2698  0.3053 -1.2473
  198MOL0     H26683  -0.963   2.261   5.442 -1.3611 -0.2727 -1.1607
  198MOL0     H26684  -0.701   2.147   5.572 -0.1645 -1.1533 -0.5420
  198MOL0     H26685  -0.807   2.275   5.626  1.5377 -1.2571  0.7750
  198MOL0     H26686  -0.747   2.421   5.440  1.1901  0.0327 -2.0499
  198MOL0     H26687  -0.640   2.294   5.371 -0.3982 -2.2887  0.5965
  198MOL0     H26688  -0.512   2.284   5.591 -2.7332 -1.0456  2.9739
  198MOL0     H26689  -0.605   2.418   5.645 -1.6703  0.5253 -0.3654
  198MOL0     H26690  -0.334   2.599   5.360  2.5423  1.1355 -1.0740
  198MOL0     H26691  -0.197   2.775   5.327  1.3123  1.0234 -0.9664
  198MOL0     H26692  -0.095   2.847   5.451  0.8000 -0.9318  1.3950
  198MOL0     H26693  -0.037   2.705   5.371 -0.0498 -1.5856  1.0697
  198MOL0     H26694   0.125   2.923   5.809  2.6299  1.4402  0.3737
  198MOL0     H26695   0.346   2.944   5.904  0.1537  0.4360  0.8631
  198MOL0     H26696   0.529   2.930   6.048  0.0982  0.6461  0.9982
  198MOL0     H26697   0.450   2.890   6.198  1.1828 -0.6430  0.7457
  198MOL0     H26698   0.692   2.896   6.241 -0.2865  0.6465 -0.9954
  198MOL0     H26699   0.634   2.727   6.261  1.1753 -0.1873 -0.2873
  198MOL0     H26700   0.719   2.659   6.067  3.1408 -1.5465  1.3391
  198MOL0     H26701   0.854   2.741   6.139  1.4623  1.8248 -0.1114
  198MOL0     H26702   0.685   2.855   5.911 -0.4793  1.1852  1.4245
  198MOL0     H26703   0.786   2.965   6.010  2.2954  0.9653 -1.6379
  198MOL0     H26704   0.857   2.895   5.797  0.3599  2.0913  0.8035
  198MOL0     H26705   0.885   2.731   5.849  1.0465  0.2774 -0.7412
  198MOL0     H26706   1.002   2.981   5.994 -0.4850  0.1041  2.0582
  198MOL0     H26707   1.037   2.818   6.035 -0.1692 -0.3633 -0.4049
  198MOL0     H26708   1.219   2.949   5.900  0.7870 -0.5525 -1.9897
  198MOL0     H26709   1.111   2.986   5.783 -4.3717 -1.2768 -0.5534
  198MOL0     H26710   1.183   2.692   5.812 -0.8069 -0.3511 -0.5247
  198MOL0     H26711   1.278   2.800   5.719 -1.0393  0.7793 -1.4480
  198MOL0     H26712   0.308   2.552   6.078  2.1148  1.7206 -0.1022
  198MOL0     H26713   0.070   2.542   6.000 -0.8425  0.9568  1.3777
  198MOL0     H26714  -0.247   2.608   5.839 -0.4659  0.9059  0.9715
  198MOL0     H26715  -0.449   2.498   5.764 -0.2215  0.4533 -0.3425
  198MOL0     H26716  -0.093   1.549   5.952  0.2222  1.0389  0.2812
  198MOL0     H26717   0.129   1.552   5.900  0.5987  1.0791  1.5835
  198MOL0     H26718   0.430   1.517   5.713  0.6832 -0.3761 -0.6660
  198MOL0     H26719   0.663   1.473   5.777  1.3240  0.1981  0.9437
  198MOL0     H26720   0.883   1.501   5.862 -0.4843 -2.6996 -1.1913
  198MOL0     H26721   0.912   1.439   5.705  0.2156  1.6921 -1.5267
  198MOL0     H26722   1.091   1.591   5.887 -1.4679  1.1039 -0.7147
  198MOL0     H26723   1.136   1.605   5.717  0.1201  0.2263 -0.2396
  198MOL0     H26724   1.072   1.329   5.808  1.2212 -1.7505 -0.4933
  198MOL0     H26725   1.200   1.394   5.905 -1.4842 -0.1673 -0.0957
  198MOL0     H26726   1.199   1.391   5.610 -1.3156  2.6951  0.4714
  198MOL0     H26727   1.281   1.258   5.708 -0.0892  0.8726  2.7401
  198MOL0     H26728   1.560   1.569   5.760  1.3077 -0.7229 -3.8599
  198MOL0     H26729   0.777   1.849   5.622 -0.8545  1.9696 -2.9056
  198MOL0     H26730   0.535   1.907   5.569 -3.0315 -1.2156 -1.7524
  199MOL0     O26731   7.438  11.102   4.315 -0.7885 -0.4042 -1.2235
  199MOL0     C26732   7.500  11.101   4.210  0.0398  0.6146  0.8338
  199MOL0     O26733   7.441  11.110   4.089 -0.1045  0.2745  1.2546
  199MOL0     C26734   7.311  11.152   4.079 -0.3313 -0.0456 -0.3824
  199MOL0     C26735   7.291  11.274   4.030 -0.4999 -0.2394  0.0070
  199MOL0     C26736   7.159  11.329   4.019  0.6834  0.3879 -0.1424
  199MOL0     C26737   7.047  11.261   4.079  0.4468  0.2674 -0.3783
  199MOL0     O26738   6.929  11.325   4.077  0.3321  0.0109  0.1501
  199MOL0     C26739   6.863  11.350   4.208 -0.5973 -0.0765  0.3414
  199MOL0     C26740   6.712  11.368   4.193 -0.1810 -0.2698 -0.5731
  199MOL0     C26741   6.644  11.247   4.117 -0.2179 -0.3986 -0.4633
  199MOL0     C26742   6.497  11.271   4.108  0.1201 -0.2062 -0.1232
  199MOL0     C26743   6.428  11.171   4.007 -0.7999  0.0453  0.9960
  199MOL0     C26744   6.275  11.183   4.001  0.1803  0.1588 -0.2813
  199MOL0     C26745   6.207  11.099   3.881  0.2740 -0.2204  0.5903
  199MOL0     C26746   6.113  11.180   3.797 -0.2153 -0.3350  0.8511
  199MOL0     N26747   5.999  11.231   3.878 -0.1441 -0.0211 -0.3507
  199MOL0     C26748   5.890  11.162   3.922  0.3567  1.2172 -0.0889
  199MOL0     C26749   5.834  11.238   4.009  0.1312 -0.3970  0.8246
  199MOL0     C26750   5.709  11.194   4.088 -0.4694 -1.1072 -0.7778
  199MOL0     C26751   5.580  11.238   4.034  0.0460 -0.4338 -0.2148
  199MOL0     C26752   5.572  11.392   4.005  0.1756 -0.0146  0.0873
  199MOL0     C26753   5.430  11.458   4.012  0.1225  0.2612  0.1610
  199MOL0     O26754   5.343  11.423   3.902  0.0267  0.1522 -0.4827
  199MOL0     C26755   5.205  11.442   3.914 -0.3004 -0.1888  0.2508
  199MOL0     C26756   5.147  11.501   4.022  0.7508 -0.6145  0.4408
  199MOL0     C26757   5.004  11.506   4.037 -0.6011 -0.1152  0.0675
  199MOL0     C26758   4.947  11.565   4.153  0.2338  0.8008  0.5477
  199MOL0     C26759   4.921  11.450   3.936  0.1207 -0.4596 -0.1514
  199MOL0     C26760   4.780  11.429   3.942  0.6446 -0.3066  0.0136
  199MOL0     O26761   4.721  11.351   3.850 -0.2509  0.6875  0.3032
  199MOL0     C26762   4.596  11.354   3.794  0.3116 -0.2836  0.5032
  199MOL0     C26763   4.532  11.235   3.748 -0.2790 -0.3493  0.2577
  199MOL0     C26764   4.401  11.246   3.695 -0.0315  0.3399  0.1795
  199MOL0     C26765   4.333  11.371   3.700  0.4669 -1.0442 -0.9360
  199MOL0     O26766   4.204  11.399   3.658  0.0777 -0.1070 -0.8722
  199MOL0     C26767   4.133  11.296   3.578  0.5013  0.3867 -0.5291
  199MOL0     C26768   4.050  11.188   3.659  0.2657  0.0896  0.4502
  199MOL0     C26769   3.981  11.089   3.560  0.1283 -0.3702  0.0630
  199MOL0     C26770   3.842  11.144   3.511 -0.1704  0.3255 -0.4197
  199MOL0     C26771   3.727  11.041   3.509  0.2436  0.6526 -0.5608
  199MOL0     C26772   3.606  11.108   3.476  0.2599 -1.1958  0.1521
  199MOL0     C26773   3.585  11.122   3.320  0.9155 -0.1257 -0.2738
  199MOL0     C26774   3.448  11.167   3.286  0.1998 -0.4195  0.8662
  199MOL0    Cl26775   3.326  11.046   3.352 -0.1746 -0.4295 -0.2230
  199MOL0     C26776   4.392  11.479   3.744  0.2177  0.4277  0.0567
  199MOL0     C26777   4.526  11.480   3.782 -0.7039  0.7005  0.1059
  199MOL0     O26778   4.718  11.473   4.040  0.7179 -0.5807  0.4032
  199MOL0     C26779   4.985  11.403   3.821 -0.1826  0.3336  0.6697
  199MOL0     C26780   5.123  11.394   3.808 -0.6932  0.0088 -0.2011
  199MOL0     N26781   5.889  11.363   4.011 -0.5771  0.5058  0.8043
  199MOL0     N26782   5.993  11.352   3.928  0.6265 -0.7730  0.0225
  199MOL0     C26783   7.076  11.130   4.127 -0.4366 -0.1779 -0.0716
  199MOL0     C26784   7.204  11.074   4.124 -0.1357 -0.0747 -0.7450
  199MOL0     C26785   7.647  11.058   4.210 -0.1334  0.7540  0.4659
  199MOL0     C26786   7.741  11.095   4.311  0.1146 -0.1401 -0.4409
  199MOL0     C26787   7.881  11.063   4.298  0.6686 -0.3241  0.3453
  199MOL0     C26788   7.920  10.981   4.190 -0.6662  1.0118  0.0063
  199MOL0     O26789   8.046  10.934   4.149  0.0037 -0.7103 -0.3830
  199MOL0     C26790   8.145  10.940   4.251  0.1381 -0.3934 -0.4735
  199MOL0     C26791   8.264  10.853   4.235  0.4268  0.0419 -0.3499
  199MOL0     C26792   8.222  10.705   4.196 -1.2155 -0.0320 -0.4677
  199MOL0     C26793   8.350  10.635   4.155 -0.4992  0.1571  0.3722
  199MOL0     C26794   8.332  10.489   4.132 -0.9907  0.1746 -0.0614
  199MOL0     C26795   8.321  10.373   4.105  1.4118  0.1913  0.4862
  199MOL0     C26796   7.823  10.945   4.096 -0.7068  1.5264  0.4561
  199MOL0     C26797   7.694  10.989   4.096  0.3937  1.1246  0.0052
  199MOL0     H26798   7.373  11.338   4.001 -1.7438  1.1472 -0.5688
  199MOL0     H26799   7.130  11.424   3.976  0.4079 -1.2558 -3.9905
  199MOL0     H26800   6.880  11.259   4.267 -1.1528 -0.2454  0.2533
  199MOL0     H26801   6.914  11.434   4.255  1.2471 -1.2522  0.5254
  199MOL0     H26802   6.668  11.373   4.293 -0.6228  0.5002 -0.7915
  199MOL0     H26803   6.686  11.465   4.149  0.9424 -0.9925 -2.9925
  199MOL0     H26804   6.694  11.226   4.022  0.1448 -0.9159 -0.1636
  199MOL0     H26805   6.657  11.152   4.171  0.6054  0.4739  0.9199
  199MOL0     H26806   6.444  11.261   4.203 -0.5315 -3.0933 -0.6732
  199MOL0     H26807   6.467  11.371   4.075  0.8426  0.8419  2.2201
  199MOL0     H26808   6.468  11.186   3.906 -2.2474 -0.4429  0.3141
  199MOL0     H26809   6.455  11.068   4.032  2.4710  0.3139 -0.8866
  199MOL0     H26810   6.233  11.152   4.097 -1.5251  1.2110 -0.6458
  199MOL0     H26811   6.254  11.290   3.998 -0.7839 -0.0455 -1.6173
  199MOL0     H26812   6.283  11.062   3.813 -1.8541 -0.8154 -1.5959
  199MOL0     H26813   6.147  11.013   3.912  0.1044 -0.9595 -1.6439
  199MOL0     H26814   6.071  11.132   3.708 -2.2397  1.9946  0.4157
  199MOL0     H26815   6.172  11.266   3.762  0.5466 -1.6224 -1.2220
  199MOL0     H26816   5.871  11.062   3.885  0.6868  1.2013 -0.2214
  199MOL0     H26817   5.724  11.085   4.087  0.8671 -1.0682  2.7095
  199MOL0     H26818   5.709  11.219   4.194 -0.3778  1.2683 -1.2841
  199MOL0     H26819   5.510  11.213   4.114 -0.1815  0.3401 -0.1576
  199MOL0     H26820   5.550  11.189   3.941 -3.2919 -1.0237  1.0332
  199MOL0     H26821   5.615  11.417   3.907  2.2412  1.0314  1.1923
  199MOL0     H26822   5.640  11.450   4.069 -1.1990  3.2652 -1.1868
  199MOL0     H26823   5.447  11.566   4.006  0.0593  0.1989 -1.7449
  199MOL0     H26824   5.391  11.439   4.112  0.6651  4.1780  1.2919
  199MOL0     H26825   5.219  11.554   4.083  0.5119 -0.3696  0.5092
  199MOL0     H26826   4.924  11.483   4.221  0.2392 -0.3275 -0.7849
  199MOL0     H26827   5.024  11.627   4.199  1.4026  0.5546 -1.0033
  199MOL0     H26828   4.857  11.625   4.136 -2.8418 -2.8398  2.4155
  199MOL0     H26829   4.579  11.137   3.744  1.4859  0.5128 -2.4621
  199MOL0     H26830   4.339  11.164   3.659 -3.4857  2.1850  1.4365
  199MOL0     H26831   4.050  11.344   3.527 -0.4676 -0.4069  0.2520
  199MOL0     H26832   4.205  11.248   3.511 -1.7293 -0.2310 -2.6193
  199MOL0     H26833   4.119  11.130   3.722 -1.4263  0.5410  2.8471
  199MOL0     H26834   3.983  11.234   3.733  1.3133 -0.4040  1.7562
  199MOL0     H26835   3.980  10.989   3.603  0.3244 -0.5644 -0.3803
  199MOL0     H26836   4.044  11.088   3.470 -0.6639  2.7492 -0.6629
  199MOL0     H26837   3.819  11.214   3.592  2.6663  0.6598  0.2211
  199MOL0     H26838   3.847  11.189   3.412 -1.6042  0.4799 -0.4349
  199MOL0     H26839   3.728  10.991   3.606 -0.9148 -0.8158 -1.2701
  199MOL0     H26840   3.757  10.966   3.435  2.2734 -0.4458  1.2471
  199MOL0     H26841   3.521  11.056   3.523  0.0518 -1.4858 -0.5357
  199MOL0     H26842   3.612  11.207   3.521  5.0419 -0.0884 -2.2703
  199MOL0     H26843   3.606  11.027   3.270  0.0295  0.9449 -2.8260
  199MOL0     H26844   3.644  11.206   3.282 -1.8334  1.0029 -2.3992
  199MOL0     H26845   3.446  11.173   3.177  2.0223 -2.7665  0.6478
  199MOL0     H26846   3.426  11.266   3.329  2.5484 -0.6573  2.8058
  199MOL0     H26847   4.329  11.565   3.764 -4.2926 -2.3733 -0.5712
  199MOL0     H26848   4.560  11.575   3.821  0.0658  0.8401 -0.8696
  199MOL0     H26849   4.928  11.356   3.742 -0.6696  3.1491 -0.7722
  199MOL0     H26850   5.171  11.334   3.732 -1.8794 -1.9077  0.5013
  199MOL0     H26851   7.001  11.058   4.159  0.2288 -0.5173  0.7724
  199MOL0     H26852   7.225  10.978   4.170 -0.5233  0.9548  1.7652
  199MOL0     H26853   7.701  11.152   4.395  0.2015 -0.3297 -0.2713
  199MOL0     H26854   7.955  11.101   4.367 -2.1025  1.7756  2.3846
  199MOL0     H26855   8.173  11.045   4.254 -1.1897 -0.0003  2.6926
  199MOL0     H26856   8.091  10.906   4.340  0.7025 -1.6647 -0.5951
  199MOL0     H26857   8.324  10.847   4.327  2.4702 -2.4666 -1.7324
  199MOL0     H26858   8.326  10.892   4.154 -0.5838  1.1554 -0.6262
  199MOL0     H26859   8.141  10.700   4.123 -1.6141 -0.7066  0.0136
  199MOL0     H26860   8.181  10.649   4.280 -1.1789  2.9876  1.7437
  199MOL0     H26861   8.420  10.654   4.237 -3.0861  3.6800  2.0207
  199MOL0     H26862   8.389  10.670   4.059  0.1705  1.6549  1.1404
  199MOL0     H26863   8.304  10.273   4.070  1.8557  0.2930 -0.0258
  199MOL0     H26864   7.842  10.880   4.011 -0.6735  0.5098  1.2109
  199MOL0     H26865   7.629  10.982   4.010  1.2398 -0.5130 -0.5540
  200MOL0     O26866   8.270   0.154   2.573 -0.0045  0.9937  0.0098
  200MOL0     C26867   8.275   0.271   2.555 -0.4629 -0.3731 -0.4336
  200MOL0     O26868   8.161   0.346   2.549 -0.1136 -0.6609 -0.1106
  200MOL0     C26869   8.040   0.294   2.586 -0.8671  0.9863 -0.5563
  200MOL0     C26870   8.001   0.309   2.725  0.2559  1.0103 -0.0774
  200MOL0     C26871   7.874   0.279   2.765  0.0109 -0.9544  0.0183
  200MOL0     C26872   7.793   0.209   2.677 -0.3308  0.7537  0.5901
  200MOL0     O26873   7.682   0.166   2.740 -0.6058  0.2720  0.0747
  200MOL0     C26874   7.628   0.035   2.710 -0.1527 -0.4682 -0.2682
  200MOL0     C26875   7.512   0.007   2.808  0.2851 -0.3129  0.8514
  200MOL0     C26876   7.456  -0.130   2.816 -0.7683  0.1822  0.4651
  200MOL0     C26877   7.338  -0.136   2.906 -1.0888  0.3275 -0.0469
  200MOL0     C26878   7.203  -0.078   2.851  0.0264  0.5233 -0.2735
  200MOL0     C26879   7.103  -0.073   2.957 -0.7678 -0.3347 -0.2373
  200MOL0     C26880   6.955  -0.064   2.911  0.3763  0.2861 -0.2302
  200MOL0     C26881   6.860  -0.066   3.031  0.4483  0.8305  0.2990
  200MOL0     N26882   6.723  -0.057   2.978  0.5433 -0.6812  0.2357
  200MOL0     C26883   6.679   0.055   2.923 -0.5638  0.6297  0.7500
  200MOL0     C26884   6.551   0.037   2.890  0.8107 -0.3540 -0.4106
  200MOL0     C26885   6.469   0.148   2.819 -0.2996 -0.2506  0.3862
  200MOL0     C26886   6.322   0.143   2.854  0.2746 -0.6995  0.7155
  200MOL0     C26887   6.246   0.237   2.760  0.2792 -0.2569 -0.1749
  200MOL0     C26888   6.100   0.257   2.816  0.5729  0.6618  0.1210
  200MOL0     O26889   6.084   0.309   2.953  0.4459 -0.4577  0.2854
  200MOL0     C26890   5.973   0.386   2.983  0.2516  0.9458 -0.6130
  200MOL0     C26891   5.862   0.396   2.903 -0.0773 -0.1164  0.1645
  200MOL0     C26892   5.746   0.461   2.936 -0.3100 -0.0485 -0.5335
  200MOL0     C26893   5.640   0.460   2.828  0.2906 -0.9244  0.4969
  200MOL0     C26894   5.740   0.531   3.056  0.4363  0.6280 -0.1268
  200MOL0     C26895   5.616   0.599   3.109 -0.3980  0.0429 -0.0447
  200MOL0     O26896   5.610   0.633   3.243 -0.8546  0.6540  0.4552
  200MOL0     C26897   5.510   0.685   3.319  0.0200 -0.5672  1.0201
  200MOL0     C26898   5.424   0.607   3.397  0.2424  0.1596 -0.3185
  200MOL0     C26899   5.323   0.671   3.472  0.0101 -1.0591 -0.8067
  200MOL0     C26900   5.320   0.804   3.480  0.6156  0.6467 -0.6238
  200MOL0     O26901   5.227   0.871   3.553  0.2222  0.1650 -0.2947
  200MOL0     C26902   5.132   0.806   3.643  0.1334  0.1052  0.7707
  200MOL0     C26903   5.034   0.912   3.693  0.4673  0.5646  0.4279
  200MOL0     C26904   4.929   0.841   3.782 -0.0673 -0.5069 -0.5663
  200MOL0     C26905   4.840   0.950   3.841  0.0409 -0.3575  0.6281
  200MOL0     C26906   4.742   0.904   3.949 -0.2608  0.4211 -0.1154
  200MOL0     C26907   4.674   1.026   4.010  0.3471 -0.6473  0.3223
  200MOL0     C26908   4.542   0.977   4.075  0.1713  0.0415  0.2553
  200MOL0     C26909   4.570   0.873   4.187 -0.8621  0.4927 -0.1462
  200MOL0    Cl26910   4.424   0.870   4.291 -0.2762  0.2707  0.5314
  200MOL0     C26911   5.411   0.884   3.425  0.1594 -0.4162 -0.3691
  200MOL0     C26912   5.504   0.824   3.332 -0.1190  0.3392 -0.3755
  200MOL0     O26913   5.529   0.621   3.026  0.0626 -0.1176 -0.1645
  200MOL0     C26914   5.846   0.515   3.147  0.2807  0.4255  0.0099
  200MOL0     C26915   5.966   0.438   3.115 -0.4918  0.2956  0.4797
  200MOL0     N26916   6.512  -0.084   2.947  0.3325 -0.1358 -0.7316
  200MOL0     N26917   6.614  -0.139   2.991 -1.0287 -0.1344 -0.3504
  200MOL0     C26918   7.822   0.194   2.541 -0.0348 -0.0117 -0.7000
  200MOL0     C26919   7.948   0.240   2.494  0.0802  0.4643  0.4051
  200MOL0     C26920   8.411   0.335   2.553  0.3803 -0.7107 -0.1013
  200MOL0     C26921   8.531   0.271   2.537 -0.7765  0.8539  0.3254
  200MOL0     C26922   8.653   0.343   2.539 -0.2050 -0.6996 -0.0412
  200MOL0     C26923   8.661   0.475   2.558  0.3624 -0.2928  0.2744
  200MOL0     O26924   8.784   0.554   2.544  0.1874  0.4699  0.3572
  200MOL0     C26925   8.908   0.490   2.506  0.5327 -0.1042  0.0910
  200MOL0     C26926   9.017   0.590   2.459  1.3851 -0.1811 -0.3644
  200MOL0     C26927   9.046   0.711   2.550 -1.1414  0.5047  0.3299
  200MOL0     C26928   9.103   0.669   2.686  0.7858  0.4212  0.2853
  200MOL0     C26929   9.237   0.607   2.665  0.8614 -0.0672  0.3344
  200MOL0     C26930   9.334   0.529   2.657  0.7454 -0.1605  0.7178
  200MOL0     C26931   8.533   0.548   2.565 -0.7152 -0.1402  0.4570
  200MOL0     C26932   8.416   0.471   2.571 -0.7409  0.2106  0.7701
  200MOL0     H26933   8.058   0.359   2.803 -0.6989  2.5503 -0.3383
  200MOL0     H26934   7.850   0.295   2.870 -2.2261 -2.0022 -0.2748
  200MOL0     H26935   7.587   0.025   2.609  2.3577  1.4767 -1.6021
  200MOL0     H26936   7.710  -0.037   2.720  0.0557 -0.5210 -1.9936
  200MOL0     H26937   7.551   0.030   2.907  1.7393 -0.0054  0.2381
  200MOL0     H26938   7.434   0.080   2.783  0.4092 -0.3148  0.4411
  200MOL0     H26939   7.424  -0.168   2.718  2.9793 -1.3634 -0.3133
  200MOL0     H26940   7.531  -0.194   2.862 -2.3421 -3.7198 -1.8646
  200MOL0     H26941   7.314  -0.241   2.925 -0.7189  0.7903  3.7532
  200MOL0     H26942   7.353  -0.084   3.001 -0.3420 -2.4949  1.4939
  200MOL0     H26943   7.225   0.017   2.804  0.0187 -0.0160 -1.3965
  200MOL0     H26944   7.156  -0.139   2.773  0.9361 -0.7078  0.0995
  200MOL0     H26945   7.120  -0.150   3.033  2.4582  1.9702  1.6032
  200MOL0     H26946   7.114   0.022   3.010 -3.4442 -0.8087  1.3519
  200MOL0     H26947   6.936   0.029   2.857 -1.8347 -0.5345 -0.9724
  200MOL0     H26948   6.932  -0.152   2.851 -0.3789  0.1399  0.2600
  200MOL0     H26949   6.897   0.011   3.100  2.0121 -0.2379  0.7129
  200MOL0     H26950   6.881  -0.162   3.081  1.5335  0.2660 -1.1633
  200MOL0     H26951   6.731   0.150   2.911 -1.0418  0.7147 -1.0215
  200MOL0     H26952   6.498   0.251   2.843 -3.2954  0.2897  2.1116
  200MOL0     H26953   6.480   0.146   2.710  0.8132  3.4196  0.2865
  200MOL0     H26954   6.308   0.168   2.959  0.2446  1.1473  0.2996
  200MOL0     H26955   6.297   0.037   2.840 -0.5978 -0.1863 -2.2728
  200MOL0     H26956   6.254   0.202   2.657  5.2095 -2.7988  0.7532
  200MOL0     H26957   6.297   0.334   2.761 -0.8674  0.3587  0.8285
  200MOL0     H26958   6.042   0.165   2.804  0.7199  0.4019  1.2963
  200MOL0     H26959   6.053   0.328   2.746 -0.3896 -1.4163 -1.4753
  200MOL0     H26960   5.870   0.343   2.809 -2.0956 -0.5681  0.1970
  200MOL0     H26961   5.614   0.561   2.794  2.3607 -0.3972  0.3659
  200MOL0     H26962   5.679   0.398   2.747 -1.7462 -0.7047 -0.7159
  200MOL0     H26963   5.547   0.411   2.858 -2.3007  2.9099 -0.5210
  200MOL0     H26964   5.423   0.499   3.385 -2.2434 -0.0740  1.2718
  200MOL0     H26965   5.250   0.610   3.524 -1.2439  0.0879 -1.1706
  200MOL0     H26966   5.075   0.728   3.592 -2.0279  2.5850 -0.8886
  200MOL0     H26967   5.179   0.769   3.735  1.1243  1.7299  0.9676
  200MOL0     H26968   5.095   0.988   3.742  1.9647  0.7550 -1.5971
  200MOL0     H26969   4.989   0.954   3.603  1.1162 -0.2799 -0.3007
  200MOL0     H26970   4.983   0.796   3.866  0.1375  2.1598  0.8503
  200MOL0     H26971   4.874   0.767   3.724  1.0152 -1.4268 -0.4440
  200MOL0     H26972   4.904   1.030   3.879  1.5800 -1.8887  1.4097
  200MOL0     H26973   4.778   0.987   3.759  0.6107  0.4484  0.5587
  200MOL0     H26974   4.783   0.827   4.015 -3.5835 -1.2015  0.2494
  200MOL0     H26975   4.660   0.843   3.910 -1.6199  3.4520 -2.4134
  200MOL0     H26976   4.736   1.084   4.079  0.1860 -0.0320 -0.0383
  200MOL0     H26977   4.646   1.080   3.919  0.3089 -0.4339  0.4570
  200MOL0     H26978   4.472   0.920   4.014  2.6632 -2.1747 -0.7285
  200MOL0     H26979   4.489   1.060   4.123 -2.6536 -1.2028 -0.4983
  200MOL0     H26980   4.662   0.888   4.244 -0.6104 -2.2730  0.3038
  200MOL0     H26981   4.563   0.772   4.146 -1.2414  0.4232  0.0893
  200MOL0     H26982   5.401   0.991   3.433 -1.0480 -0.4528 -1.2186
  200MOL0     H26983   5.572   0.881   3.269  0.1940  0.9602  0.5003
  200MOL0     H26984   5.826   0.565   3.241  0.2992  0.4596 -0.0040
  200MOL0     H26985   6.048   0.420   3.183  1.5269  0.3170 -1.8337
  200MOL0     H26986   7.750   0.141   2.480  1.5775 -1.2034 -1.6309
  200MOL0     H26987   7.978   0.228   2.391  0.0303  0.1436  0.4265
  200MOL0     H26988   8.539   0.163   2.530  3.2030  0.8658  2.3521
  200MOL0     H26989   8.746   0.287   2.543  0.5987  0.6330  0.8842
  200MOL0     H26990   8.933   0.445   2.602  1.5144  1.0764  0.4140
  200MOL0     H26991   8.900   0.410   2.431  1.8306  1.6655 -2.0829
  200MOL0     H26992   8.965   0.633   2.374  1.3136 -0.2548 -0.3583
  200MOL0     H26993   9.106   0.534   2.428  1.5987  1.0264 -2.0639
  200MOL0     H26994   8.953   0.766   2.565 -1.3309  0.1311  0.5344
  200MOL0     H26995   9.115   0.781   2.500 -0.4479 -1.9420 -2.4519
  200MOL0     H26996   9.045   0.591   2.737  1.0570 -0.3893 -0.6182
  200MOL0     H26997   9.102   0.760   2.747  0.1715  1.4995 -1.2713
  200MOL0     H26998   9.425   0.472   2.666  2.4716  1.9531 -1.7693
  200MOL0     H26999   8.526   0.656   2.568 -3.5228 -0.0308 -3.2642
  200MOL0     H27000   8.332   0.526   2.614  0.0781 -0.4181  3.3755
  201MOL0     O27001   3.878   1.412   9.002  0.1381  0.5369 -0.0703
  201MOL0     C27002   3.873   1.531   9.018 -0.2885 -0.6922  0.3341
  201MOL0     O27003   3.759   1.609   9.031 -0.0337  0.7127  0.3172
  201MOL0     C27004   3.641   1.565   9.063  0.9898  0.6655 -0.2167
  201MOL0     C27005   3.600   1.425   9.078 -0.9442 -0.5562  0.4902
  201MOL0     C27006   3.477   1.382   9.128  0.5396  0.8298  0.9098
  201MOL0     C27007   3.382   1.479   9.158  0.1716  0.3347  1.3564
  201MOL0     O27008   3.257   1.435   9.189 -0.3599 -0.0843  0.2190
  201MOL0     C27009   3.158   1.535   9.181 -0.7072 -0.0458  0.1253
  201MOL0     C27010   3.024   1.459   9.196 -0.1498 -0.3317 -0.6851
  201MOL0     C27011   2.903   1.541   9.164 -0.2025  0.3829  0.4527
  201MOL0     C27012   2.863   1.651   9.262  0.7014  0.7258 -0.5874
  201MOL0     C27013   2.735   1.716   9.215  0.9354  0.2847  1.0509
  201MOL0     C27014   2.612   1.621   9.218 -0.6303  0.1301 -0.1771
  201MOL0     C27015   2.486   1.677   9.155 -0.4349 -0.4395  0.2811
  201MOL0     C27016   2.355   1.597   9.189 -0.2256 -0.1481 -0.0342
  201MOL0     N27017   2.309   1.617   9.331 -0.0770  0.1930 -0.1333
  201MOL0     C27018   2.261   1.524   9.418  0.4631 -0.9054 -0.2612
  201MOL0     C27019   2.207   1.596   9.518  0.6330 -0.2133  0.3847
  201MOL0     C27020   2.125   1.530   9.629 -0.1121  0.2576  0.4433
  201MOL0     C27021   2.044   1.397   9.594  0.1609 -0.6239 -0.4348
  201MOL0     C27022   1.954   1.358   9.717 -0.3061 -0.3269 -0.1005
  201MOL0     C27023   2.034   1.343   9.844 -0.0993 -0.3582 -1.0693
  201MOL0     O27024   1.952   1.282   9.957 -0.3905 -0.2212 -0.0589
  201MOL0     C27025   1.818   1.323   9.982 -0.3418  1.0498 -0.0726
  201MOL0     C27026   1.714   1.231  10.019 -0.4061  0.0611 -0.3333
  201MOL0     C27027   1.583   1.273  10.036 -0.8136  0.0079 -0.5018
  201MOL0     C27028   1.483   1.158  10.057 -0.2845 -1.2880  0.0013
  201MOL0     C27029   1.548   1.413  10.041 -0.5839  0.4711  0.0092
  201MOL0     C27030   1.412   1.448  10.075  0.2575 -0.0112  0.3063
  201MOL0     O27031   1.373   1.567  10.004  0.1962 -0.1951  0.1839
  201MOL0     C27032   1.244   1.606  10.006  0.1892 -0.4635  0.9937
  201MOL0     C27033   1.145   1.519   9.970 -0.4953 -0.2036 -0.1365
  201MOL0     C27034   1.012   1.555   9.978 -0.7323  0.2011  0.8072
  201MOL0     C27035   0.969   1.683  10.017 -0.2113 -0.2253  0.4898
  201MOL0     O27036   0.839   1.730  10.028  0.4163 -0.5771  0.8080
  201MOL0     C27037   0.730   1.656   9.975 -0.5851 -1.3712  0.8978
  201MOL0     C27038   0.610   1.747   9.991  0.2239  0.4916  0.6799
  201MOL0     C27039   0.475   1.665   9.973 -0.2474 -0.4887 -0.9055
  201MOL0     C27040   0.358   1.753  10.011  0.6076  0.3840  0.0578
  201MOL0     C27041   0.231   1.671  10.002  0.4236 -0.1642 -0.1993
  201MOL0     C27042   0.175   1.633  10.141  0.3269  0.3050 -0.4049
  201MOL0     C27043   0.273   1.550  10.229 -0.2483 -1.2953 -0.5445
  201MOL0     C27044   0.220   1.485  10.357 -0.2455 -0.7329  0.4555
  201MOL0    Cl27045   0.195   1.310  10.347  0.4964 -0.2317 -0.1607
  201MOL0     C27046   1.068   1.778  10.050 -1.0957 -0.2294 -0.1931
  201MOL0     C27047   1.207   1.734  10.042  0.2457 -0.6559 -0.2807
  201MOL0     O27048   1.347   1.392  10.164 -0.2586 -0.0218 -0.8477
  201MOL0     C27049   1.645   1.507   9.999 -0.7482  0.2524 -0.1886
  201MOL0     C27050   1.780   1.460   9.968  0.2566 -0.7091  0.3857
  201MOL0     N27051   2.247   1.723   9.508 -0.4742 -0.6551  0.6752
  201MOL0     N27052   2.310   1.735   9.398  0.3110  0.1598  0.7972
  201MOL0     C27053   3.420   1.612   9.135 -1.0588 -0.0853 -0.6682
  201MOL0     C27054   3.548   1.657   9.091  0.6505 -0.1847 -0.1022
  201MOL0     C27055   4.002   1.607   9.003  0.0597 -0.3915  1.0811
  201MOL0     C27056   4.003   1.749   9.016  0.0871 -0.3922 -0.2373
  201MOL0     C27057   4.116   1.836   9.003 -0.2846  0.5482 -0.7077
  201MOL0     C27058   4.235   1.776   8.975  0.5005 -0.7750 -0.5481
  201MOL0     O27059   4.354   1.844   8.965  0.4862 -0.2637  0.8174
  201MOL0     C27060   4.336   1.985   8.972 -0.6155 -0.5095  0.1724
  201MOL0     C27061   4.477   2.045   8.961 -0.3549  0.0713  0.1733
  201MOL0     C27062   4.493   2.174   9.042  0.5998  0.1268  0.0016
  201MOL0     C27063   4.634   2.249   9.029  1.1216 -0.6252 -0.0700
  201MOL0     C27064   4.739   2.162   9.073  0.1864  0.3751 -0.1890
  201MOL0     C27065   4.829   2.092   9.118  0.6598 -0.2635  0.6422
  201MOL0     C27066   4.238   1.635   8.964  0.0643 -0.6999  0.5534
  201MOL0     C27067   4.129   1.552   8.971  0.9265  0.3661  0.3563
  201MOL0     H27068   3.675   1.348   9.064  1.7216  2.1302 -1.1124
  201MOL0     H27069   3.449   1.278   9.135  1.9051  0.0227 -3.2798
  201MOL0     H27070   3.173   1.607   9.263  1.1951 -0.8036  0.5028
  201MOL0     H27071   3.181   1.585   9.087  3.8899 -0.0289  1.0091
  201MOL0     H27072   3.022   1.371   9.132  1.9776  0.3091 -1.7507
  201MOL0     H27073   3.019   1.421   9.298  1.4417 -0.5069 -0.6422
  201MOL0     H27074   2.927   1.591   9.069 -1.8355 -0.1689 -0.2974
  201MOL0     H27075   2.823   1.470   9.140  1.2918 -0.8216 -1.2030
  201MOL0     H27076   2.863   1.621   9.368 -2.4273 -3.2751 -1.4941
  201MOL0     H27077   2.932   1.736   9.253 -0.0131  1.6851  1.9932
  201MOL0     H27078   2.722   1.804   9.279  1.1709  0.5314  0.7629
  201MOL0     H27079   2.752   1.762   9.118  1.0620  0.6922  1.2651
  201MOL0     H27080   2.641   1.535   9.156  0.5931 -0.3686  1.0349
  201MOL0     H27081   2.592   1.576   9.316  1.8814 -1.3910 -0.2693
  201MOL0     H27082   2.476   1.782   9.181 -2.1873 -1.1343  2.7576
  201MOL0     H27083   2.512   1.674   9.048 -0.2159 -0.2199  0.3292
  201MOL0     H27084   2.379   1.492   9.170  1.7223  0.2758 -0.0666
  201MOL0     H27085   2.274   1.635   9.126  1.7631  0.5432 -2.2849
  201MOL0     H27086   2.245   1.416   9.412 -1.2433 -0.6920 -0.0886
  201MOL0     H27087   2.203   1.507   9.703 -0.9964  1.2370  1.7183
  201MOL0     H27088   2.063   1.613   9.665 -1.1981 -0.2901 -0.1401
  201MOL0     H27089   2.120   1.320   9.583  0.1455 -0.4205 -2.2888
  201MOL0     H27090   1.973   1.402   9.510 -2.4624  1.0737  1.6854
  201MOL0     H27091   1.894   1.271   9.688 -2.3427  1.0655 -0.2764
  201MOL0     H27092   1.873   1.430   9.726  0.5346  0.3570  2.7731
  201MOL0     H27093   2.066   1.442   9.877 -4.5315  1.1678 -0.6827
  201MOL0     H27094   2.123   1.284   9.820  0.3108 -0.4102  0.4535
  201MOL0     H27095   1.742   1.126  10.018  0.0698  0.1800  0.0098
  201MOL0     H27096   1.534   1.061  10.052  2.3785 -0.0040  0.5599
  201MOL0     H27097   1.444   1.178  10.157 -2.1219  2.6540 -1.3160
  201MOL0     H27098   1.397   1.157   9.989 -0.6189 -2.5195  0.4071
  201MOL0     H27099   1.169   1.420   9.932  2.6356  0.4122 -0.0811
  201MOL0     H27100   0.949   1.469   9.961 -0.3945  0.0302  0.4031
  201MOL0     H27101   0.731   1.633   9.868  2.8250 -0.6758  0.6486
  201MOL0     H27102   0.717   1.560  10.025 -0.4151 -2.0358 -0.2989
  201MOL0     H27103   0.616   1.796  10.089  1.6312 -0.8869  1.3288
  201MOL0     H27104   0.613   1.813   9.904 -3.6168 -3.4023 -2.8191
  201MOL0     H27105   0.481   1.583  10.045 -0.7079 -1.1238 -1.5711
  201MOL0     H27106   0.466   1.622   9.873  0.6748 -1.2723 -0.6733
  201MOL0     H27107   0.365   1.803  10.108  0.1221  0.5662  0.0036
  201MOL0     H27108   0.356   1.823   9.927 -0.0997  0.7806  0.3985
  201MOL0     H27109   0.245   1.574   9.952  1.4337  0.1672 -0.5711
  201MOL0     H27110   0.162   1.739   9.951 -0.1768 -0.6578 -0.0530
  201MOL0     H27111   0.152   1.728  10.192 -2.7750 -0.5921  0.0509
  201MOL0     H27112   0.081   1.576  10.137 -0.1126  0.8059  1.6565
  201MOL0     H27113   0.354   1.615  10.262 -0.8677 -2.2411  3.2873
  201MOL0     H27114   0.325   1.473  10.171  2.0410  1.7463 -2.8406
  201MOL0     H27115   0.121   1.525  10.378 -0.7961 -1.6646 -0.3278
  201MOL0     H27116   0.276   1.500  10.450 -0.3258 -2.5663  0.8331
  201MOL0     H27117   1.062   1.884  10.074  1.9096  0.0790 -0.3472
  201MOL0     H27118   1.289   1.798  10.075  1.2927 -2.8078  1.5371
  201MOL0     H27119   1.618   1.611   9.982  0.4552  0.1533 -3.5688
  201MOL0     H27120   1.849   1.537   9.936 -4.2444  2.9742 -1.7358
  201MOL0     H27121   3.351   1.692   9.160 -0.7004  0.4525 -1.3712
  201MOL0     H27122   3.573   1.761   9.076  0.5932 -0.2631 -0.7786
  201MOL0     H27123   3.910   1.799   9.041 -0.9448 -2.6789  0.7303
  201MOL0     H27124   4.096   1.942   9.018 -1.1212  0.1093  1.9007
  201MOL0     H27125   4.275   2.028   8.892 -0.5716 -0.6153  0.0800
  201MOL0     H27126   4.298   2.020   9.068  5.1198  1.7876  2.0425
  201MOL0     H27127   4.503   2.044   8.855 -0.9612  0.3426  0.0208
  201MOL0     H27128   4.547   1.978   9.012  1.5355  0.4603 -1.7841
  201MOL0     H27129   4.461   2.162   9.146  1.1943  2.4272  0.5036
  201MOL0     H27130   4.414   2.241   9.007  1.1304  1.7730  1.8208
  201MOL0     H27131   4.637   2.344   9.082 -1.3833  1.3697 -3.1233
  201MOL0     H27132   4.655   2.280   8.926 -0.0283 -1.7878 -0.6852
  201MOL0     H27133   4.914   2.046   9.165 -0.1201 -2.6809 -0.1545
  201MOL0     H27134   4.332   1.585   8.946  0.7060  0.7199 -0.2311
  201MOL0     H27135   4.127   1.445   8.950 -3.3605  0.1786  0.6796
  202MOL0     O27136   9.044   8.647   2.409 -0.5427 -0.1221 -0.1734
  202MOL0     C27137   9.126   8.711   2.347 -0.5468 -0.6455  0.8586
  202MOL0     O27138   9.119   8.739   2.212  1.3937  0.5789 -0.6478
  202MOL0     C27139   8.992   8.733   2.157 -0.8981 -0.7482 -0.0380
  202MOL0     C27140   8.879   8.790   2.218 -0.8696  0.4238  0.3341
  202MOL0     C27141   8.754   8.779   2.163  0.7074  0.1261 -0.0050
  202MOL0     C27142   8.735   8.717   2.040  0.2986  0.3203 -0.8912
  202MOL0     O27143   8.602   8.711   1.997  0.3169 -0.0449 -0.3911
  202MOL0     C27144   8.557   8.583   1.949  0.4725  0.5476  0.3579
  202MOL0     C27145   8.403   8.571   1.917  0.2072 -0.7892 -0.1175
  202MOL0     C27146   8.329   8.595   2.043 -0.9287 -0.3843  0.7620
  202MOL0     C27147   8.195   8.679   2.013 -0.5754 -0.3703  0.6237
  202MOL0     C27148   8.134   8.723   2.142 -1.0756  0.4120  0.0470
  202MOL0     C27149   8.209   8.830   2.224  0.2473  0.7666  0.7435
  202MOL0     C27150   8.122   8.847   2.349 -0.3513  0.7054  0.5818
  202MOL0     C27151   8.156   8.966   2.435  0.5795 -0.5117  1.0704
  202MOL0     N27152   8.296   8.990   2.448  0.2980 -0.0785  0.4030
  202MOL0     C27153   8.361   8.963   2.569 -0.1023 -0.1503  0.5093
  202MOL0     C27154   8.470   9.044   2.564 -0.5281 -0.0267  0.0488
  202MOL0     C27155   8.579   9.062   2.670 -0.2711  0.3599 -0.2495
  202MOL0     C27156   8.520   9.111   2.808  0.0376 -0.0191 -0.4878
  202MOL0     C27157   8.632   9.124   2.908  0.8371 -0.2987 -0.0375
  202MOL0     C27158   8.571   9.146   3.043 -0.9394  0.4473  0.1117
  202MOL0     O27159   8.505   9.267   3.047 -0.3275  0.9755 -0.6384
  202MOL0     C27160   8.421   9.287   3.148  0.5917 -1.1738  0.1096
  202MOL0     C27161   8.458   9.287   3.282  0.5797  0.3786  0.1457
  202MOL0     C27162   8.370   9.319   3.382 -0.6820  1.1766 -0.9038
  202MOL0     C27163   8.421   9.312   3.528 -0.7108  0.6539  0.3233
  202MOL0     C27164   8.234   9.347   3.354 -0.7003  0.0358  0.2460
  202MOL0     C27165   8.136   9.387   3.457  0.3618  0.0229 -0.3761
  202MOL0     O27166   8.024   9.313   3.451 -0.1051  0.1084 -0.0177
  202MOL0     C27167   7.903   9.353   3.499  0.5079  0.7926 -0.2335
  202MOL0     C27168   7.808   9.255   3.527 -0.2343 -0.3015  0.5781
  202MOL0     C27169   7.698   9.279   3.601 -0.1046 -0.3837  0.0136
  202MOL0     C27170   7.657   9.404   3.627  1.0226  0.4885  0.0475
  202MOL0     O27171   7.529   9.422   3.679 -0.5846 -0.0710 -0.2302
  202MOL0     C27172   7.500   9.554   3.721  0.4048 -0.0851  0.5620
  202MOL0     C27173   7.366   9.536   3.801  0.3854 -0.0317 -0.2295
  202MOL0     C27174   7.309   9.664   3.855  0.8328  0.7276  0.1680
  202MOL0     C27175   7.181   9.647   3.939 -0.5163  0.0879 -0.0709
  202MOL0     C27176   7.124   9.782   3.970  0.7311 -0.2704 -0.5013
  202MOL0     C27177   6.966   9.777   3.977 -0.1191  0.2014  0.7724
  202MOL0     C27178   6.899   9.912   4.012 -0.1047 -0.3350 -0.1900
  202MOL0     C27179   6.741   9.910   3.993 -0.0565  0.1784 -0.2477
  202MOL0    Cl27180   6.663   9.801   4.109 -0.4314 -0.0779  0.4394
  202MOL0     C27181   7.751   9.507   3.607 -1.1813  0.0634 -0.3357
  202MOL0     C27182   7.876   9.479   3.547  0.2317  0.2529 -0.7198
  202MOL0     O27183   8.162   9.472   3.543  0.0197  0.5118 -0.4068
  202MOL0     C27184   8.197   9.354   3.219  0.6170 -0.4969 -0.0872
  202MOL0     C27185   8.290   9.334   3.113 -0.4057 -0.4109 -0.7758
  202MOL0     N27186   8.454   9.122   2.450  0.2504 -0.1135  0.2386
  202MOL0     N27187   8.359   9.084   2.381  0.4087  0.5606  0.3058
  202MOL0     C27188   8.854   8.670   1.975  0.5324 -0.2999  0.7255
  202MOL0     C27189   8.979   8.681   2.031 -0.2245 -0.1822 -0.3044
  202MOL0     C27190   9.264   8.751   2.399 -0.1374  0.1010 -1.0031
  202MOL0     C27191   9.287   8.777   2.535 -0.0988 -0.9729 -0.0518
  202MOL0     C27192   9.415   8.816   2.578  0.0115  0.6151 -0.6395
  202MOL0     C27193   9.525   8.824   2.492  0.3355 -0.1491 -0.2851
  202MOL0     O27194   9.640   8.881   2.548  0.4199  0.4749 -0.2682
  202MOL0     C27195   9.733   8.943   2.454 -0.3414  1.1423  0.6458
  202MOL0     C27196   9.726   9.093   2.469 -1.1368  1.1167 -0.3909
  202MOL0     C27197   9.847   9.159   2.408  0.3279 -0.0046 -0.3207
  202MOL0     C27198   9.826   9.308   2.356  0.5819 -0.6640 -0.0253
  202MOL0     C27199   9.784   9.393   2.473  0.1533  0.0816 -0.4189
  202MOL0     C27200   9.736   9.445   2.576  0.0070 -0.0311 -0.8040
  202MOL0     C27201   9.503   8.776   2.359 -0.0959 -0.1601 -0.8572
  202MOL0     C27202   9.372   8.749   2.314 -0.0241  0.1329  0.1646
  202MOL0     H27203   8.892   8.836   2.316  1.0641  2.1959 -0.6813
  202MOL0     H27204   8.671   8.831   2.211 -1.8874 -0.3446 -3.5495
  202MOL0     H27205   8.621   8.539   1.872  0.3148 -0.2024  0.6529
  202MOL0     H27206   8.568   8.510   2.030 -3.0268 -2.9647 -1.9718
  202MOL0     H27207   8.368   8.646   1.846 -1.1019 -0.5194  0.7800
  202MOL0     H27208   8.381   8.471   1.877  1.0014 -0.8553 -0.4147
  202MOL0     H27209   8.290   8.503   2.088 -1.2131  0.2550  1.8626
  202MOL0     H27210   8.392   8.642   2.119 -2.7664  1.1773  1.3977
  202MOL0     H27211   8.227   8.767   1.957 -0.3215  0.0846  1.4668
  202MOL0     H27212   8.133   8.619   1.946  0.6418  0.7324 -1.5831
  202MOL0     H27213   8.036   8.760   2.109 -1.4510 -1.3980 -1.0309
  202MOL0     H27214   8.113   8.637   2.207  0.8410 -0.2824 -0.1807
  202MOL0     H27215   8.308   8.787   2.241 -0.3087 -1.4995 -1.2412
  202MOL0     H27216   8.223   8.925   2.172 -1.3507  0.2901 -0.6394
  202MOL0     H27217   8.020   8.849   2.311  0.4935  2.0601 -1.8292
  202MOL0     H27218   8.132   8.758   2.411 -1.0087  0.1781 -0.0585
  202MOL0     H27219   8.110   8.956   2.534 -1.5297  0.9952  0.3170
  202MOL0     H27220   8.108   9.055   2.393  0.7971 -0.4094  1.0358
  202MOL0     H27221   8.343   8.905   2.659  1.6350  0.2900  1.1928
  202MOL0     H27222   8.622   8.964   2.690 -0.5429  0.4811  1.0260
  202MOL0     H27223   8.664   9.117   2.629 -0.7368  1.7711  0.6037
  202MOL0     H27224   8.442   9.045   2.846 -1.0125  0.6984 -1.3044
  202MOL0     H27225   8.477   9.211   2.795 -0.6037  0.0895  2.0200
  202MOL0     H27226   8.703   9.205   2.887 -0.4288  0.6941 -0.5814
  202MOL0     H27227   8.686   9.029   2.913  0.8269 -0.2375  2.0345
  202MOL0     H27228   8.654   9.161   3.113 -1.1885 -0.1106  0.5342
  202MOL0     H27229   8.506   9.060   3.060  0.4176 -0.9932 -1.6642
  202MOL0     H27230   8.563   9.282   3.309  0.7446 -1.0637 -0.6936
  202MOL0     H27231   8.513   9.252   3.540 -0.6215 -0.0546 -2.9731
  202MOL0     H27232   8.441   9.414   3.561  0.9407  0.7938 -0.9806
  202MOL0     H27233   8.346   9.263   3.591 -1.6299  0.5962 -0.7872
  202MOL0     H27234   7.836   9.153   3.502 -0.4069 -0.5942  1.5609
  202MOL0     H27235   7.643   9.198   3.648 -1.6118 -0.0025 -1.0173
  202MOL0     H27236   7.570   9.589   3.797 -2.2040 -0.4872  3.3363
  202MOL0     H27237   7.484   9.622   3.637 -1.4570  0.1803  1.0952
  202MOL0     H27238   7.298   9.489   3.729  2.0831 -1.5139 -0.9602
  202MOL0     H27239   7.393   9.472   3.885  3.5060 -0.3711 -1.3525
  202MOL0     H27240   7.284   9.728   3.770  0.5598  1.4681  0.7925
  202MOL0     H27241   7.383   9.709   3.921  0.4067 -1.2881  2.1645
  202MOL0     H27242   7.105   9.597   3.879 -0.2193  3.3246 -3.5534
  202MOL0     H27243   7.199   9.585   4.027 -0.6315  0.7665  0.4384
  202MOL0     H27244   7.147   9.854   3.890 -0.4704  2.0092  1.1047
  202MOL0     H27245   7.163   9.819   4.065  0.5983 -1.7424  0.1513
  202MOL0     H27246   6.933   9.744   3.878  0.7858 -1.8627  1.0887
  202MOL0     H27247   6.938   9.706   4.055 -2.3794 -0.2917 -0.4206
  202MOL0     H27248   6.934   9.989   3.943  0.4261  1.5765  2.1042
  202MOL0     H27249   6.923   9.950   4.112 -1.1899 -0.1877  0.0275
  202MOL0     H27250   6.714   9.891   3.889 -0.3501  2.3564 -0.6192
  202MOL0     H27251   6.710  10.011   4.023 -1.0705 -1.2957  4.4999
  202MOL0     H27252   7.735   9.613   3.623  1.5080  1.0082 -2.9999
  202MOL0     H27253   7.947   9.556   3.522  2.3492 -1.4550 -0.2374
  202MOL0     H27254   8.096   9.387   3.195  1.1703  0.5381 -1.0869
  202MOL0     H27255   8.261   9.333   3.008 -1.2308 -0.4830 -0.5562
  202MOL0     H27256   8.848   8.649   1.869 -0.1496  0.9478  0.4877
  202MOL0     H27257   9.063   8.645   1.972 -0.6994  0.4621 -1.4023
  202MOL0     H27258   9.207   8.764   2.607  0.1473 -1.2218  0.1729
  202MOL0     H27259   9.427   8.854   2.678 -2.3266 -0.7790  0.2720
  202MOL0     H27260   9.828   8.897   2.482 -1.5662 -1.6628  0.5145
  202MOL0     H27261   9.707   8.933   2.348 -1.7305  3.2898  0.7321
  202MOL0     H27262   9.728   9.104   2.578  0.7118 -3.4619  0.2625
  202MOL0     H27263   9.627   9.125   2.436 -1.3401  0.2156 -0.6892
  202MOL0     H27264   9.885   9.094   2.328 -0.9901 -3.0709  1.3670
  202MOL0     H27265   9.935   9.149   2.472  1.5357 -1.4669 -2.0758
  202MOL0     H27266   9.748   9.314   2.280 -0.1967 -0.0851  0.8063
  202MOL0     H27267   9.918   9.340   2.307 -0.2359  1.6906 -0.1425
  202MOL0     H27268   9.719   9.474   2.678 -0.2633 -1.3454 -0.4647
  202MOL0     H27269   9.584   8.770   2.287  1.8132  0.1929  1.1472
  202MOL0     H27270   9.342   8.724   2.213 -3.3445 -0.1496  1.0965
  203MOL0     O27271   1.108   1.235  10.553 -0.2209 -0.0657  0.6414
  203MOL0     C27272   1.184   1.227  10.649 -0.6622 -0.4700 -0.1068
  203MOL0     O27273   1.148   1.245  10.779 -0.4578 -0.0440  0.1195
  203MOL0     C27274   1.014   1.257  10.806 -0.2785  0.4793  0.8284
  203MOL0     C27275   0.949   1.377  10.826  0.0415  0.0681  0.8265
  203MOL0     C27276   0.813   1.372  10.846 -0.1989 -0.7409  0.3808
  203MOL0     C27277   0.742   1.253  10.865 -1.0994  0.0276 -0.1829
  203MOL0     O27278   0.608   1.238  10.871 -0.1289  1.0129  0.0783
  203MOL0     C27279   0.542   1.355  10.908  0.2190 -0.1114 -0.0960
  203MOL0     C27280   0.401   1.322  10.921  0.6982 -0.6344  0.5591
  203MOL0     C27281   0.341   1.298  10.784 -0.9020 -0.2779  0.3039
  203MOL0     C27282   0.231   1.191  10.780 -0.5864  0.4594 -0.4262
  203MOL0     C27283   0.292   1.046  10.801  0.0187 -0.2223 -0.0941
  203MOL0     C27284   0.356   0.997  10.672  0.4804  0.1496 -0.1228
  203MOL0     C27285   0.410   0.859  10.673 -0.4648  0.4382  0.4817
  203MOL0     C27286   0.524   0.849  10.784  0.0463 -0.4996 -0.1512
  203MOL0     N27287   0.628   0.744  10.767  0.2748 -0.4404 -0.0795
  203MOL0     C27288   0.601   0.616  10.731  0.1073  0.3502 -0.4136
  203MOL0     C27289   0.722   0.555  10.718 -0.3353  0.7740  0.4294
  203MOL0     C27290   0.744   0.402  10.690 -0.5583 -0.1331 -0.0549
  203MOL0     C27291   0.674   0.372  10.557 -0.1703 -0.0343 -0.1277
  203MOL0     C27292   0.705   0.238  10.491 -0.0532  0.0840 -0.1601
  203MOL0     C27293   0.650   0.114  10.567 -0.4185  0.3803  0.0594
  203MOL0     O27294   0.695   0.104  10.704  0.8502  0.1406  0.3047
  203MOL0     C27295   0.820   0.053  10.730 -1.3240 -0.5713  0.0115
  203MOL0     C27296   0.839   0.037  10.872  0.0496 -0.0649  0.5236
  203MOL0     C27297   0.959  -0.009  10.920  0.0837 -0.2655 -0.1029
  203MOL0     C27298   0.951  -0.023  11.070 -0.4950  0.1660 -1.0825
  203MOL0     C27299   1.065  -0.048  10.837  0.4719 -0.3657  0.1659
  203MOL0     C27300   1.212  -0.071  10.877 -0.0375  0.7838  0.4536
  203MOL0     O27301   1.304  -0.067  10.772 -0.3462  0.4585 -0.4245
  203MOL0     C27302   1.441  -0.055  10.798  0.0902 -0.5202 -0.1018
  203MOL0     C27303   1.508   0.006  10.912  0.6336 -0.6356 -0.1335
  203MOL0     C27304   1.645   0.028  10.915  0.7622  0.5321 -0.5663
  203MOL0     C27305   1.728  -0.028  10.813 -0.3987  0.5874 -0.2138
  203MOL0     O27306   1.861  -0.033  10.798 -0.5880 -0.5090 -0.7221
  203MOL0     C27307   1.942   0.070  10.869  0.1871  0.8131 -0.9650
  203MOL0     C27308   2.096   0.034  10.882  0.0309  0.3693  1.3843
  203MOL0     C27309   2.159   0.048  10.738  0.1055  0.3391  0.2658
  203MOL0     C27310   2.206   0.185  10.702  0.0065 -0.7179 -0.4668
  203MOL0     C27311   2.236   0.194  10.556 -0.2121  0.3438  0.6488
  203MOL0     C27312   2.348   0.091  10.513 -0.8098  0.0380  0.7362
  203MOL0     C27313   2.402   0.121  10.376  0.4686 -0.3964 -0.9750
  203MOL0     C27314   2.510   0.029  10.332 -0.2980 -0.6435 -0.4436
  203MOL0    Cl27315   2.453  -0.140  10.338  0.1187  0.5370 -0.5720
  203MOL0     C27316   1.665  -0.085  10.700 -0.5106 -0.0680 -0.6132
  203MOL0     C27317   1.529  -0.098  10.693  0.2433 -0.0392 -0.0037
  203MOL0     O27318   1.242  -0.087  10.997  0.2069  0.3519 -0.3916
  203MOL0     C27319   1.041  -0.041  10.698 -0.1224 -0.5969  0.2431
  203MOL0     C27320   0.919   0.006  10.647 -0.3572  0.2713 -0.3605
  203MOL0     N27321   0.818   0.650  10.762 -0.2017  0.3280 -0.1363
  203MOL0     N27322   0.762   0.757  10.794  0.1598 -0.3198 -0.2279
  203MOL0     C27323   0.817   1.138  10.855  0.4244  0.1885  0.9558
  203MOL0     C27324   0.949   1.139  10.831 -0.9113  0.2231  0.3595
  203MOL0     C27325   1.330   1.233  10.619 -0.2260  0.3088 -1.7925
  203MOL0     C27326   1.423   1.252  10.728  0.2030 -0.2043  0.4248
  203MOL0     C27327   1.562   1.248  10.708 -0.2163 -0.0331  0.3161
  203MOL0     C27328   1.612   1.225  10.582  0.9742 -0.0219 -0.1409
  203MOL0     O27329   1.753   1.217  10.578  0.2906  0.2583 -0.0371
  203MOL0     C27330   1.831   1.199  10.460 -0.9974 -0.8383 -0.6916
  203MOL0     C27331   1.859   1.053  10.429  0.3987 -0.4400 -0.1540
  203MOL0     C27332   1.930   0.981  10.545  0.3732  0.2444  0.5497
  203MOL0     C27333   2.069   1.033  10.558 -0.0126  0.0317 -0.3160
  203MOL0     C27334   2.152   0.977  10.453 -0.1540  0.6437 -0.4242
  203MOL0     C27335   2.219   0.914  10.380 -0.2364  0.1614 -0.5052
  203MOL0     C27336   1.525   1.211  10.474  0.0168  0.2506  0.7594
  203MOL0     C27337   1.391   1.208  10.495  0.3273 -0.7844  0.3133
  203MOL0     H27338   1.014   1.464  10.819  2.0726 -1.4523 -0.1598
  203MOL0     H27339   0.764   1.468  10.841 -1.3217 -1.3041  0.3040
  203MOL0     H27340   0.582   1.401  10.999 -0.9523 -0.7285  0.7553
  203MOL0     H27341   0.546   1.424  10.823 -1.2156 -1.2877 -1.1746
  203MOL0     H27342   0.386   1.237  10.989  0.1702 -1.1040 -0.1234
  203MOL0     H27343   0.351   1.408  10.965 -2.2644 -1.5955 -0.6398
  203MOL0     H27344   0.302   1.394  10.749  1.3662  0.6156  0.0939
  203MOL0     H27345   0.416   1.274  10.708  0.4357  3.4633  0.2263
  203MOL0     H27346   0.158   1.213  10.859 -0.7207 -1.9756  0.2058
  203MOL0     H27347   0.180   1.189  10.683 -0.5201  1.7697 -0.5141
  203MOL0     H27348   0.371   1.043  10.876 -0.9471  3.2063  1.2064
  203MOL0     H27349   0.209   0.977  10.822  0.4258 -0.4050  0.9590
  203MOL0     H27350   0.276   1.008  10.597  0.9085 -2.5582 -1.0865
  203MOL0     H27351   0.431   1.066  10.632 -0.8249  0.4604 -2.1848
  203MOL0     H27352   0.333   0.783  10.686  1.3018 -1.8225 -1.2630
  203MOL0     H27353   0.443   0.832  10.572 -3.5248  1.0319 -0.7921
  203MOL0     H27354   0.485   0.834  10.885  0.7462 -0.0754  0.1965
  203MOL0     H27355   0.572   0.947  10.783 -1.8720  0.4828  0.1198
  203MOL0     H27356   0.502   0.574  10.715  0.5274 -0.6042 -0.6058
  203MOL0     H27357   0.849   0.373  10.690  0.3334  2.7704  0.3789
  203MOL0     H27358   0.703   0.343  10.773  0.3335 -2.3189 -1.1027
  203MOL0     H27359   0.697   0.451  10.485 -0.3632  1.0553  0.9807
  203MOL0     H27360   0.567   0.372  10.579 -0.4780  2.1956 -1.3263
  203MOL0     H27361   0.811   0.224  10.466 -0.1862 -2.8421  0.6247
  203MOL0     H27362   0.647   0.235  10.399  0.3780 -2.4665 -0.4009
  203MOL0     H27363   0.666   0.019  10.516  0.2723  0.7970 -0.5168
  203MOL0     H27364   0.542   0.128  10.562 -0.7206 -1.8371 -0.5836
  203MOL0     H27365   0.753   0.062  10.933  0.1624 -1.7699  1.4433
  203MOL0     H27366   0.853  -0.045  11.113 -1.2721 -0.4026 -3.0270
  203MOL0     H27367   1.018  -0.103  11.103  1.8430  2.6273  0.6661
  203MOL0     H27368   0.984   0.067  11.123  2.5179 -2.0454  1.1640
  203MOL0     H27369   1.458   0.055  10.995 -0.1851 -1.2817 -0.2264
  203MOL0     H27370   1.693   0.075  11.000  1.7631 -0.2951 -0.6535
  203MOL0     H27371   1.922   0.161  10.812 -5.9122  0.9690  0.6664
  203MOL0     H27372   1.908   0.082  10.973  1.5027  1.9331 -0.6350
  203MOL0     H27373   2.149   0.100  10.951  0.0254  0.2527  1.4995
  203MOL0     H27374   2.111  -0.070  10.910 -0.2104 -0.2340 -0.5612
  203MOL0     H27375   2.096   0.010  10.657  1.1981 -3.3963  1.0011
  203MOL0     H27376   2.246  -0.018  10.746  0.0645  0.3969  1.3460
  203MOL0     H27377   2.132   0.254  10.744  1.1576 -1.7830  3.7898
  203MOL0     H27378   2.296   0.193  10.763 -0.0972  0.8751 -0.4925
  203MOL0     H27379   2.268   0.297  10.536 -0.3048  0.7242  2.3580
  203MOL0     H27380   2.147   0.186  10.493  0.3129  3.7216 -0.7883
  203MOL0     H27381   2.428   0.101  10.587 -0.1248 -0.3412  0.0714
  203MOL0     H27382   2.303  -0.008  10.523 -0.6578  0.1109  2.3813
  203MOL0     H27383   2.446   0.220  10.392  1.7264 -0.8618 -1.4178
  203MOL0     H27384   2.319   0.137  10.307 -2.4172  0.0382  2.2864
  203MOL0     H27385   2.603   0.044  10.386  1.0245 -0.0990 -2.7470
  203MOL0     H27386   2.534   0.039  10.226 -2.1026 -3.1710 -1.1746
  203MOL0     H27387   1.720  -0.105  10.609 -3.0032 -1.1896 -1.9525
  203MOL0     H27388   1.491  -0.132  10.597 -0.3965 -0.0612  0.2532
  203MOL0     H27389   1.106  -0.078  10.619 -0.2139 -1.2071  0.4488
  203MOL0     H27390   0.904   0.004  10.539 -0.5785 -0.3049 -0.3259
  203MOL0     H27391   0.758   1.047  10.860 -1.7253  0.8150 -5.0066
  203MOL0     H27392   1.005   1.046  10.840 -2.0688 -0.3918  1.4053
  203MOL0     H27393   1.387   1.267  10.829  2.1003  3.7874  0.6988
  203MOL0     H27394   1.631   1.262  10.790  1.0825  0.6864 -0.8559
  203MOL0     H27395   1.781   1.252  10.379 -0.5291 -0.7637 -0.9352
  203MOL0     H27396   1.918   1.263  10.475 -3.1629  1.5843  3.0730
  203MOL0     H27397   1.915   1.048  10.335 -2.1876  0.8029 -1.8649
  203MOL0     H27398   1.763   1.005  10.409 -0.3693  1.1070 -0.2696
  203MOL0     H27399   1.919   0.874  10.522  1.3086 -0.8285  4.3601
  203MOL0     H27400   1.870   0.994  10.635  0.0659  2.7563  0.0386
  203MOL0     H27401   2.103   1.008  10.659  1.5247  0.5688 -0.6700
  203MOL0     H27402   2.062   1.142  10.553 -0.4871  0.0135  0.0312
  203MOL0     H27403   2.277   0.845  10.322 -0.0955 -0.1536  0.0059
  203MOL0     H27404   1.570   1.195  10.376  0.9937  3.2996  0.5823
  203MOL0     H27405   1.330   1.193  10.406  1.6506 -2.2237 -0.3999
  204MOL0     O27406   6.016   9.566  10.251 -0.5216  0.1386 -0.0663
  204MOL0     C27407   6.048   9.452  10.264  0.2668  0.2853 -0.0219
  204MOL0     O27408   5.971   9.340  10.233  0.4118  0.5634 -0.1600
  204MOL0     C27409   5.847   9.367  10.178 -0.2469  0.6217  0.0524
  204MOL0     C27410   5.730   9.329  10.249 -0.1727 -0.6592 -0.2085
  204MOL0     C27411   5.610   9.349  10.188  0.0464 -0.4329 -0.5232
  204MOL0     C27412   5.601   9.410  10.061 -0.6769 -0.2188 -1.1462
  204MOL0     O27413   5.485   9.470  10.027 -0.0464  0.0076 -0.0275
  204MOL0     C27414   5.360   9.404  10.054  0.8546 -0.1305 -0.2158
  204MOL0     C27415   5.265   9.502   9.995 -0.0747 -0.2124  0.4194
  204MOL0     C27416   5.123   9.452  10.005  0.2954  0.7277  0.4884
  204MOL0     C27417   5.021   9.565   9.976 -0.5471 -0.3254  0.3972
  204MOL0     C27418   4.874   9.512   9.999  0.4523 -0.4841 -0.1067
  204MOL0     C27419   4.830   9.393   9.916  0.6221 -0.2106 -0.1746
  204MOL0     C27420   4.876   9.388   9.773  0.8971  0.6156 -0.4984
  204MOL0     C27421   4.825   9.268   9.696  0.4054 -0.8219  0.3270
  204MOL0     N27422   4.901   9.151   9.720  0.9933 -0.0059 -0.3468
  204MOL0     C27423   5.023   9.118   9.688  0.1314 -0.0608 -0.0182
  204MOL0     C27424   5.037   8.994   9.749  0.7358  0.5533  0.3245
  204MOL0     C27425   5.143   8.903   9.712 -0.6819  0.2216  0.0603
  204MOL0     C27426   5.266   8.902   9.792 -0.0524 -0.9668  0.6895
  204MOL0     C27427   5.336   9.041   9.798  0.0522  0.2156  0.9425
  204MOL0     C27428   5.461   9.032   9.887 -0.0043  0.0102  0.3841
  204MOL0     O27429   5.570   8.991   9.804  0.0925  0.3862 -0.1081
  204MOL0     C27430   5.697   9.007   9.852 -0.4322 -0.0547 -0.2936
  204MOL0     C27431   5.793   8.950   9.773  0.3447 -0.1046 -0.0414
  204MOL0     C27432   5.926   8.980   9.795  0.0395 -0.1903 -0.5363
  204MOL0     C27433   6.027   8.928   9.695  0.5836 -0.6475  0.2570
  204MOL0     C27434   5.967   9.041   9.916 -0.7469 -0.0115 -0.0203
  204MOL0     C27435   6.110   9.044   9.960  0.4094  0.3787  0.2232
  204MOL0     O27436   6.211   9.043   9.869  0.0884 -0.8932  0.0330
  204MOL0     C27437   6.329   9.087   9.927  0.5285  0.3956 -0.1624
  204MOL0     C27438   6.350   9.207   9.974  0.0862  0.7872 -0.2804
  204MOL0     C27439   6.478   9.254  10.023  0.6131  0.0436 -0.2184
  204MOL0     C27440   6.578   9.156  10.029  0.3351 -0.1421 -0.3229
  204MOL0     O27441   6.699   9.187  10.094  0.3196  0.5679 -0.1867
  204MOL0     C27442   6.812   9.183  10.010  0.7535 -0.1112 -0.9802
  204MOL0     C27443   6.948   9.206  10.078 -0.0068 -1.0175 -0.3132
  204MOL0     C27444   6.982   9.345  10.134  1.0449 -0.4766 -0.8309
  204MOL0     C27445   7.119   9.360  10.208  0.6793  0.4069 -0.5983
  204MOL0     C27446   7.154   9.500  10.256 -0.3937  0.5239  0.3591
  204MOL0     C27447   7.272   9.490  10.356  0.0491 -0.0901 -1.1792
  204MOL0     C27448   7.325   9.623  10.418 -0.3129  0.9380  0.7891
  204MOL0     C27449   7.475   9.590  10.467  0.4196 -1.4630 -0.4069
  204MOL0    Cl27450   7.484   9.442  10.573  0.4785 -0.3928  0.0211
  204MOL0     C27451   6.554   9.026   9.985  0.8643  0.2402 -0.3732
  204MOL0     C27452   6.429   8.989   9.931 -0.6842 -0.1491  0.1267
  204MOL0     O27453   6.124   9.029  10.079  0.1134  0.0061 -0.6666
  204MOL0     C27454   5.870   9.079  10.008 -0.0002  0.4725  1.1885
  204MOL0     C27455   5.740   9.076   9.972 -0.4484  1.5198 -0.3216
  204MOL0     N27456   4.924   8.949   9.816  0.4499  0.0569  1.0052
  204MOL0     N27457   4.839   9.046   9.785  0.2306 -0.7217  0.5260
  204MOL0     C27458   5.720   9.443   9.995 -0.2164 -0.4984 -0.1783
  204MOL0     C27459   5.846   9.411  10.046  0.3113 -0.8429 -0.4137
  204MOL0     C27460   6.189   9.420  10.304 -0.2422  0.0868 -0.2267
  204MOL0     C27461   6.271   9.518  10.365  0.2090  0.0527  0.3662
  204MOL0     C27462   6.400   9.490  10.413 -0.4022  0.5131 -0.2623
  204MOL0     C27463   6.448   9.358  10.408 -0.6598 -0.1960 -0.1454
  204MOL0     O27464   6.566   9.308  10.465 -0.1962 -1.3005 -0.2993
  204MOL0     C27465   6.658   9.414  10.510 -0.7006  0.1253  0.4211
  204MOL0     C27466   6.802   9.378  10.524  1.1038 -0.5238 -0.6694
  204MOL0     C27467   6.837   9.302  10.657 -1.3657 -0.2890  0.0735
  204MOL0     C27468   6.984   9.281  10.650  1.2717  0.5284 -0.5776
  204MOL0     C27469   7.048   9.405  10.667 -0.0260 -0.4766 -0.7526
  204MOL0     C27470   7.108   9.512  10.682  0.4817  0.7921  0.1293
  204MOL0     C27471   6.374   9.261  10.332  0.2894 -0.0881 -0.2158
  204MOL0     C27472   6.242   9.291  10.292 -0.0035  0.5222  0.0038
  204MOL0     H27473   5.742   9.274  10.342  3.0144 -0.4833 -0.4128
  204MOL0     H27474   5.522   9.327  10.248  0.3401 -1.0890 -0.3243
  204MOL0     H27475   5.360   9.306  10.004  1.9313  0.5209 -1.5552
  204MOL0     H27476   5.337   9.399  10.161 -2.2272 -0.3042 -0.7987
  204MOL0     H27477   5.290   9.599  10.041  0.8268 -0.6375  0.8504
  204MOL0     H27478   5.285   9.510   9.888  0.6454 -2.2995  0.3668
  204MOL0     H27479   5.101   9.363   9.946 -3.0957  0.1588  2.3478
  204MOL0     H27480   5.108   9.427  10.110 -0.7284  2.0629  0.6813
  204MOL0     H27481   5.041   9.653  10.038 -0.0864 -1.5154  2.0038
  204MOL0     H27482   5.034   9.607   9.876  0.6670 -1.6809 -0.0402
  204MOL0     H27483   4.850   9.488  10.103 -3.2046 -0.0503 -0.7336
  204MOL0     H27484   4.812   9.600   9.979  2.4734  1.0257 -0.1406
  204MOL0     H27485   4.862   9.305   9.972 -0.9151 -0.5321  0.2596
  204MOL0     H27486   4.721   9.398   9.912  0.5107  0.0185  1.9035
  204MOL0     H27487   4.838   9.478   9.725  0.4569  0.5096 -0.3502
  204MOL0     H27488   4.985   9.385   9.764  1.1392 -0.3807  1.8900
  204MOL0     H27489   4.822   9.299   9.591  1.3624 -0.1618  0.4876
  204MOL0     H27490   4.720   9.249   9.722 -0.0761 -1.2444 -1.7438
  204MOL0     H27491   5.098   9.176   9.634  0.8388  3.1278  3.9185
  204MOL0     H27492   5.104   8.801   9.707 -0.1413  0.0530 -1.0604
  204MOL0     H27493   5.181   8.920   9.610 -1.5824 -2.2800 -0.7681
  204MOL0     H27494   5.329   8.820   9.757 -0.2435 -0.6340 -0.4568
  204MOL0     H27495   5.248   8.872   9.896 -0.6448 -1.5703  0.4200
  204MOL0     H27496   5.263   9.113   9.834 -0.7369 -0.3862  0.5738
  204MOL0     H27497   5.370   9.070   9.698  0.0457 -0.8312  0.6185
  204MOL0     H27498   5.437   8.968   9.972 -1.5373 -2.0570 -1.5028
  204MOL0     H27499   5.494   9.130   9.922 -0.8046  0.6844 -0.6934
  204MOL0     H27500   5.770   8.885   9.690  1.2029  0.3922 -0.6788
  204MOL0     H27501   5.959   8.883   9.621 -1.7307  0.4456  1.6233
  204MOL0     H27502   6.078   9.014   9.652 -3.2729  0.8688 -1.8264
  204MOL0     H27503   6.099   8.854   9.732  0.4538  0.3819  2.7286
  204MOL0     H27504   6.270   9.280   9.964 -0.2564  0.2474 -1.6439
  204MOL0     H27505   6.486   9.356  10.058  3.7626  0.9602 -3.0839
  204MOL0     H27506   6.802   9.087   9.958 -1.5641 -1.2586  1.3508
  204MOL0     H27507   6.797   9.266   9.941  0.2573  2.3267  1.8571
  204MOL0     H27508   6.964   9.134  10.159  3.3511  1.7900  1.8011
  204MOL0     H27509   7.024   9.175  10.006 -1.4028  0.3440 -2.4782
  204MOL0     H27510   6.911   9.376  10.211  0.1930 -1.8906 -1.0046
  204MOL0     H27511   6.970   9.422  10.057 -0.6073  1.2945  1.1065
  204MOL0     H27512   7.120   9.309  10.305 -0.6151  3.4823  1.2030
  204MOL0     H27513   7.185   9.315  10.134 -2.6834  0.0785 -3.6401
  204MOL0     H27514   7.071   9.550  10.308  0.5835  0.6504  1.8684
  204MOL0     H27515   7.181   9.554  10.165 -0.3374 -1.3758 -0.7920
  204MOL0     H27516   7.235   9.425  10.435  0.6595  1.9806  0.9360
  204MOL0     H27517   7.358   9.436  10.317  0.4955  0.4994 -1.0318
  204MOL0     H27518   7.257   9.662  10.494 -1.3435  2.0124 -0.6211
  204MOL0     H27519   7.329   9.694  10.335  0.7968 -0.6316 -0.5691
  204MOL0     H27520   7.505   9.674  10.531 -2.6225 -0.7388  0.2587
  204MOL0     H27521   7.549   9.574  10.388  1.5104 -2.1682  0.7127
  204MOL0     H27522   6.628   8.947   9.988 -1.5789 -2.1803 -0.0352
  204MOL0     H27523   6.420   8.885   9.898 -1.2123 -0.9002  2.4681
  204MOL0     H27524   5.882   9.117  10.109  0.2712 -1.7497  2.0336
  204MOL0     H27525   5.668   9.104  10.048 -0.4348 -0.4634  0.4747
  204MOL0     H27526   5.689   9.486   9.900  2.5666  1.4366 -0.3393
  204MOL0     H27527   5.935   9.431   9.987 -0.5812 -1.4553 -2.0147
  204MOL0     H27528   6.232   9.618  10.374  1.4322  0.3763  3.5895
  204MOL0     H27529   6.448   9.563  10.477 -1.0391 -1.1748  2.3108
  204MOL0     H27530   6.652   9.495  10.437  1.8670  1.6926  1.8009
  204MOL0     H27531   6.611   9.449  10.602 -1.7332  1.6109 -0.6218
  204MOL0     H27532   6.841   9.478  10.544  1.0434 -0.5882 -0.2212
  204MOL0     H27533   6.847   9.322  10.442 -2.5869 -3.5946 -0.9027
  204MOL0     H27534   6.779   9.210  10.656 -3.1349  0.7742 -0.1870
  204MOL0     H27535   6.822   9.363  10.747  0.3463 -0.3546  0.4360
  204MOL0     H27536   7.001   9.232  10.553 -2.0824  2.5140 -2.3588
  204MOL0     H27537   7.017   9.208  10.725  0.4739 -1.6066 -2.1711
  204MOL0     H27538   7.149   9.608  10.705  3.4772 -0.5014  0.7172
  204MOL0     H27539   6.412   9.159  10.328  0.2281 -0.2863  2.4344
  204MOL0     H27540   6.181   9.220  10.237  2.1151 -0.3575 -1.3256
  205MOL0     O27541   3.390   0.462   2.701 -0.7841 -0.1328  0.5270
  205MOL0     C27542   3.426   0.364   2.627  0.9707 -0.6246  0.3740
  205MOL0     O27543   3.359   0.247   2.617  0.5172  0.3581 -0.2723
  205MOL0     C27544   3.231   0.213   2.670 -0.1390  0.5992 -0.6040
  205MOL0     C27545   3.213   0.073   2.677  0.5848  0.0731  0.2058
  205MOL0     C27546   3.091   0.021   2.728 -0.0151 -0.5207  0.1305
  205MOL0     C27547   2.989   0.109   2.765 -0.2137 -0.3243  0.7685
  205MOL0     O27548   2.876   0.047   2.814 -0.0763  0.0153 -0.3923
  205MOL0     C27549   2.749   0.122   2.796  0.4384  0.4341  0.2940
  205MOL0     C27550   2.631   0.031   2.825  0.5382 -0.3769  0.4024
  205MOL0     C27551   2.650  -0.086   2.916 -1.4486  0.5975 -0.9938
  205MOL0     C27552   2.523  -0.154   2.951 -0.1641  0.2730 -0.2262
  205MOL0     C27553   2.540  -0.265   3.054  0.1547 -0.7307  0.3028
  205MOL0     C27554   2.413  -0.264   3.137  0.5578  0.6437 -0.0005
  205MOL0     C27555   2.426  -0.387   3.240  0.5783 -0.3580 -0.2198
  205MOL0     C27556   2.300  -0.387   3.333  0.1654 -0.2924 -0.6253
  205MOL0     N27557   2.167  -0.392   3.264 -0.2978 -0.4280  0.5450
  205MOL0     C27558   2.066  -0.484   3.293  0.0267 -1.2221 -0.5541
  205MOL0     C27559   1.948  -0.415   3.283 -0.2311  0.5012  0.3608
  205MOL0     C27560   1.808  -0.471   3.309  0.1265  0.4598  0.1338
  205MOL0     C27561   1.694  -0.369   3.273  0.2651 -0.7003  0.0526
  205MOL0     C27562   1.564  -0.445   3.284 -0.3578 -0.2656 -0.0016
  205MOL0     C27563   1.443  -0.353   3.264 -0.5564  0.0788  1.7564
  205MOL0     O27564   1.357  -0.423   3.171  0.2153  0.5958 -0.4261
  205MOL0     C27565   1.221  -0.384   3.151  0.0813  0.0091  0.6696
  205MOL0     C27566   1.146  -0.454   3.058 -0.5008 -0.3391  0.1702
  205MOL0     C27567   1.004  -0.438   3.028 -0.3987  0.4389 -1.0906
  205MOL0     C27568   0.940  -0.537   2.934 -0.2470 -0.1613 -0.1956
  205MOL0     C27569   0.936  -0.336   3.102  0.1246 -0.2863  0.2922
  205MOL0     C27570   0.793  -0.300   3.078  0.1066  0.0149  0.4536
  205MOL0     O27571   0.762  -0.176   3.121 -0.2679 -0.1662 -0.1858
  205MOL0     C27572   0.659  -0.109   3.062 -0.4319  0.7093  0.4478
  205MOL0     C27573   0.575  -0.024   3.137  0.7009  0.0896  0.1250
  205MOL0     C27574   0.480   0.054   3.064 -0.0953  0.9354  0.1938
  205MOL0     C27575   0.465   0.055   2.925 -1.2378  0.1961  0.7144
  205MOL0     O27576   0.360   0.114   2.862  0.3234  0.0344  0.4732
  205MOL0     C27577   0.381   0.196   2.744 -0.1452  0.7058 -0.4637
  205MOL0     C27578   0.259   0.280   2.700 -0.6101  0.5024  1.0124
  205MOL0     C27579   0.242   0.279   2.541 -0.5527 -1.1024 -0.2490
  205MOL0     C27580   0.102   0.334   2.501 -0.3815 -0.0776  0.3728
  205MOL0     C27581   0.105   0.359   2.351 -0.5048 -0.5755 -0.8078
  205MOL0     C27582  -0.003   0.452   2.300 -0.4103  0.7474 -0.0317
  205MOL0     C27583  -0.142   0.391   2.311 -0.2730  0.4715  0.4002
  205MOL0     C27584  -0.237   0.442   2.197 -0.0026  0.3318 -0.4706
  205MOL0    Cl27585  -0.396   0.345   2.199  0.2418  0.2178  0.5114
  205MOL0     C27586   0.556  -0.024   2.855  0.5471 -0.0737  0.4144
  205MOL0     C27587   0.654  -0.105   2.917 -0.2314 -0.7831  0.3287
  205MOL0     O27588   0.719  -0.398   3.066 -0.1643 -0.7970 -0.4417
  205MOL0     C27589   1.013  -0.258   3.194 -0.7896  0.3486 -0.3318
  205MOL0     C27590   1.151  -0.284   3.219 -0.2226 -0.2450 -0.7066
  205MOL0     N27591   1.976  -0.285   3.243 -0.4067  0.1433 -0.7197
  205MOL0     N27592   2.104  -0.267   3.227  0.4749  0.1773 -0.2136
  205MOL0     C27593   3.016   0.249   2.772 -0.6541 -0.2350 -0.3044
  205MOL0     C27594   3.135   0.299   2.724 -0.1296  0.1527  0.7020
  205MOL0     C27595   3.556   0.374   2.569 -0.1029  0.1543 -0.0183
  205MOL0     C27596   3.627   0.260   2.534  0.4685  0.0997  0.4365
  205MOL0     C27597   3.755   0.268   2.472  0.3688 -0.4215  0.0710
  205MOL0     C27598   3.816   0.395   2.457 -1.1449  0.2202 -0.8013
  205MOL0     O27599   3.944   0.409   2.399  0.3873  0.1367  0.0975
  205MOL0     C27600   3.988   0.530   2.337  0.4225  0.1481 -0.8176
  205MOL0     C27601   4.136   0.526   2.340  0.3164 -0.1364  0.4950
  205MOL0     C27602   4.200   0.642   2.267  0.1789 -0.4666  0.3765
  205MOL0     C27603   4.350   0.637   2.232 -0.4999 -0.1880  0.3510
  205MOL0     C27604   4.430   0.626   2.355  1.0543  0.6100  0.5242
  205MOL0     C27605   4.478   0.622   2.463  1.3434  0.5950  0.0171
  205MOL0     C27606   3.749   0.506   2.509 -0.2539  0.2054 -0.0038
  205MOL0     C27607   3.622   0.498   2.562 -0.5335  0.1439 -0.2172
  205MOL0     H27608   3.293   0.000   2.662  1.0755  0.2459  1.8338
  205MOL0     H27609   3.076  -0.086   2.732 -1.2556 -0.3345  0.6733
  205MOL0     H27610   2.738   0.196   2.876 -0.8718 -2.5417  3.1119
  205MOL0     H27611   2.742   0.166   2.696 -0.6160 -0.1254  0.1081
  205MOL0     H27612   2.547   0.087   2.867 -1.3837 -0.5881 -2.7626
  205MOL0     H27613   2.611  -0.016   2.728  0.0395 -0.0877  0.3585
  205MOL0     H27614   2.709  -0.155   2.855  1.1733  2.4637 -0.7397
  205MOL0     H27615   2.713  -0.058   3.001  1.1956  3.7854 -3.7163
  205MOL0     H27616   2.450  -0.078   2.982  1.9977  2.0353  0.8453
  205MOL0     H27617   2.497  -0.197   2.854  2.1531  1.2993 -1.4045
  205MOL0     H27618   2.557  -0.360   3.003 -0.1972 -1.0150  0.7035
  205MOL0     H27619   2.626  -0.234   3.114  0.1114  1.9278 -0.8961
  205MOL0     H27620   2.408  -0.166   3.186  1.8067  1.6578 -1.7766
  205MOL0     H27621   2.324  -0.265   3.073  0.1809 -2.4949  0.4259
  205MOL0     H27622   2.418  -0.481   3.185  0.4088 -0.4440 -0.0484
  205MOL0     H27623   2.522  -0.380   3.291  0.0987 -1.0081  0.8015
  205MOL0     H27624   2.300  -0.298   3.397 -2.9871  0.4326 -1.4470
  205MOL0     H27625   2.309  -0.475   3.397  0.2670 -0.4464 -0.8503
  205MOL0     H27626   2.066  -0.586   3.331 -0.2518 -1.2091 -0.5149
  205MOL0     H27627   1.804  -0.556   3.240 -1.0783  2.4572 -2.3893
  205MOL0     H27628   1.799  -0.492   3.416  1.5265  4.2205  1.1574
  205MOL0     H27629   1.703  -0.335   3.170  2.0050  0.6840  0.6202
  205MOL0     H27630   1.712  -0.291   3.348 -2.7618  2.0047 -1.7782
  205MOL0     H27631   1.556  -0.485   3.385  1.8046 -2.1547 -0.4988
  205MOL0     H27632   1.555  -0.536   3.222 -0.5947  0.4677 -1.0849
  205MOL0     H27633   1.473  -0.258   3.219  3.3406 -1.9463 -0.4291
  205MOL0     H27634   1.383  -0.331   3.353 -1.7712  1.2808  0.6786
  205MOL0     H27635   1.197  -0.535   3.007  0.0980 -1.8134  2.9112
  205MOL0     H27636   0.855  -0.486   2.888 -2.2985 -1.3760  1.9945
  205MOL0     H27637   1.005  -0.561   2.850  0.0150  2.7408 -0.9335
  205MOL0     H27638   0.916  -0.634   2.979 -1.1480  0.6295  1.0935
  205MOL0     H27639   0.577  -0.019   3.245 -1.2920  2.6888  0.1232
  205MOL0     H27640   0.406   0.114   3.116 -1.4504 -1.4037  1.1296
  205MOL0     H27641   0.472   0.255   2.761 -1.8932  3.2504  0.6324
  205MOL0     H27642   0.404   0.128   2.661 -1.1603  1.9367 -1.8012
  205MOL0     H27643   0.165   0.242   2.739 -1.5775 -0.2155 -1.8141
  205MOL0     H27644   0.269   0.380   2.743  0.8253 -0.5386  3.2870
  205MOL0     H27645   0.253   0.177   2.502  1.9037 -1.1253  0.3219
  205MOL0     H27646   0.319   0.342   2.496 -1.5478 -0.6884 -1.4129
  205MOL0     H27647   0.030   0.253   2.521  0.4527 -0.8937  0.1728
  205MOL0     H27648   0.065   0.422   2.553 -0.5536  0.4120 -0.5631
  205MOL0     H27649   0.101   0.263   2.299 -3.1343 -1.0660  0.1027
  205MOL0     H27650   0.196   0.406   2.315  0.4717 -1.9515 -0.2448
  205MOL0     H27651   0.008   0.547   2.353  1.1022  0.3052  0.4946
  205MOL0     H27652   0.020   0.463   2.194  0.4247 -1.6948 -0.1707
  205MOL0     H27653  -0.181   0.414   2.411 -3.2863  0.9411 -0.7593
  205MOL0     H27654  -0.140   0.283   2.292 -2.2881  0.5188 -0.3670
  205MOL0     H27655  -0.183   0.420   2.104 -0.9131 -1.9122 -0.5369
  205MOL0     H27656  -0.262   0.548   2.204 -2.0932 -0.1051 -0.6115
  205MOL0     H27657   0.548  -0.030   2.747  1.3090 -1.2625  0.4100
  205MOL0     H27658   0.729  -0.165   2.866  0.6993 -0.0606  0.8069
  205MOL0     H27659   0.974  -0.182   3.261  2.0666 -0.3818  2.4209
  205MOL0     H27660   1.214  -0.235   3.293 -0.1152  1.4054 -1.8279
  205MOL0     H27661   2.946   0.314   2.823 -0.3751  0.2617 -0.5470
  205MOL0     H27662   3.137   0.408   2.724  2.0392  0.1618  1.2068
  205MOL0     H27663   3.578   0.164   2.542 -1.3522  1.1151  2.4926
  205MOL0     H27664   3.809   0.185   2.427  0.8423 -0.0147 -0.1249
  205MOL0     H27665   3.964   0.533   2.231 -0.5222 -4.1170 -0.8916
  205MOL0     H27666   3.961   0.619   2.396 -0.4048 -0.6584  0.0695
  205MOL0     H27667   4.183   0.441   2.291 -0.0753 -0.3858  0.5498
  205MOL0     H27668   4.163   0.522   2.446 -2.8850 -0.7884  1.3739
  205MOL0     H27669   4.186   0.730   2.330  2.0126 -2.3692  3.7668
  205MOL0     H27670   4.143   0.646   2.174 -0.5319  2.0891  0.8492
  205MOL0     H27671   4.385   0.716   2.164 -1.0235  0.1935  0.5226
  205MOL0     H27672   4.379   0.542   2.186  0.2794  0.8305 -1.3751
  205MOL0     H27673   4.516   0.612   2.563 -0.7902 -1.5825  0.7207
  205MOL0     H27674   3.809   0.596   2.518  1.9214 -1.1560 -0.1900
  205MOL0     H27675   3.581   0.587   2.608  1.4766  0.7123  0.5659
  206MOL0     O27676   8.263   4.310   4.129  0.1519  0.6707  0.3431
  206MOL0     C27677   8.297   4.225   4.047  0.1949  0.5933 -0.0708
  206MOL0     O27678   8.211   4.169   3.959  0.0176 -0.0691  1.0683
  206MOL0     C27679   8.077   4.210   3.944 -0.3625 -0.1423 -0.5434
  206MOL0     C27680   8.025   4.345   3.968 -0.0571  0.1911  0.2522
  206MOL0     C27681   7.885   4.368   3.960  0.1991  1.0295  0.3552
  206MOL0     C27682   7.800   4.258   3.928 -0.2701  0.5606  0.2516
  206MOL0     O27683   7.664   4.274   3.917  0.4751  0.1769  0.5099
  206MOL0     C27684   7.602   4.388   3.865 -0.2059  0.7023  0.8643
  206MOL0     C27685   7.445   4.387   3.839  0.9915 -0.1962 -0.2260
  206MOL0     C27686   7.395   4.312   3.709 -0.7862 -0.1980 -0.5627
  206MOL0     C27687   7.244   4.347   3.678  0.2623 -0.1632  0.0152
  206MOL0     C27688   7.213   4.498   3.657 -0.8601 -0.0940  0.2225
  206MOL0     C27689   7.067   4.500   3.628 -0.3165  0.0962  0.3787
  206MOL0     C27690   7.028   4.635   3.565 -0.4937  0.8854  0.5727
  206MOL0     C27691   6.876   4.642   3.537  0.2031  0.2878 -0.0583
  206MOL0     N27692   6.833   4.552   3.430  0.3609 -0.1835 -0.0720
  206MOL0     C27693   6.824   4.567   3.299 -0.1719 -0.2917 -0.1194
  206MOL0     C27694   6.784   4.452   3.247 -0.0781 -0.1556 -0.1639
  206MOL0     C27695   6.778   4.422   3.101 -0.6872 -0.1649 -0.7894
  206MOL0     C27696   6.690   4.514   3.024  1.1568  0.0462 -0.9751
  206MOL0     C27697   6.629   4.439   2.895  0.0397 -0.0007 -0.1494
  206MOL0     C27698   6.537   4.528   2.812  0.7902 -0.1651 -0.4597
  206MOL0     O27699   6.479   4.442   2.709  0.5365 -0.1254 -0.2931
  206MOL0     C27700   6.379   4.494   2.626 -0.7355  0.5187 -0.0712
  206MOL0     C27701   6.284   4.404   2.578 -0.6417  0.5195  0.7393
  206MOL0     C27702   6.185   4.443   2.487 -0.3615 -0.9057 -0.2058
  206MOL0     C27703   6.073   4.345   2.439  0.1462 -0.6798 -0.5279
  206MOL0     C27704   6.190   4.582   2.451 -0.4226 -0.9618 -1.1838
  206MOL0     C27705   6.109   4.635   2.345  1.1465  0.7740  1.1441
  206MOL0     O27706   6.175   4.710   2.245  0.8196  0.2214 -0.3384
  206MOL0     C27707   6.082   4.777   2.161 -0.6518  0.4099  0.1063
  206MOL0     C27708   6.013   4.701   2.059 -0.3281 -0.5789 -0.3295
  206MOL0     C27709   5.917   4.764   1.974  0.0251 -0.8760  0.0597
  206MOL0     C27710   5.890   4.906   1.989  0.4498  0.7728  0.4480
  206MOL0     O27711   5.802   4.972   1.908 -0.3469  0.2784 -0.0236
  206MOL0     C27712   5.765   4.918   1.783 -0.8764  0.0431 -0.4496
  206MOL0     C27713   5.696   5.025   1.704 -0.2039  0.4133 -0.3929
  206MOL0     C27714   5.653   4.986   1.562 -0.4181 -0.5165 -0.1184
  206MOL0     C27715   5.521   4.916   1.553 -0.8092  0.0049  0.1657
  206MOL0     C27716   5.486   4.860   1.415  0.4200  1.5360 -0.0902
  206MOL0     C27717   5.608   4.803   1.331  0.1109 -0.1306  0.5433
  206MOL0     C27718   5.553   4.748   1.197 -0.3875  0.7787 -0.0656
  206MOL0     C27719   5.575   4.593   1.178 -1.3059  0.3257  0.0183
  206MOL0    Cl27720   5.454   4.484   1.261 -0.3063  0.3607 -0.2983
  206MOL0     C27721   5.957   4.980   2.091 -0.0214  0.4037 -1.2240
  206MOL0     C27722   6.058   4.916   2.175 -0.0976  0.3300  0.1463
  206MOL0     O27723   5.985   4.632   2.361 -0.6458  0.0618  0.6468
  206MOL0     C27724   6.273   4.671   2.512 -0.5802  0.1784  0.0693
  206MOL0     C27725   6.362   4.631   2.599 -0.4770 -0.7810  0.7316
  206MOL0     N27726   6.754   4.367   3.349  0.8016 -0.0812  0.3534
  206MOL0     N27727   6.773   4.433   3.457 -0.1410 -0.3865 -0.3952
  206MOL0     C27728   7.852   4.128   3.911 -0.9683  1.3527 -0.2764
  206MOL0     C27729   7.994   4.102   3.918 -0.1972 -0.2881 -0.1995
  206MOL0     C27730   8.445   4.193   4.034 -0.4524 -1.0529  0.2870
  206MOL0     C27731   8.542   4.265   4.109  0.5041 -0.6271 -0.4797
  206MOL0     C27732   8.678   4.238   4.102 -0.0792  0.6935 -0.2348
  206MOL0     C27733   8.719   4.132   4.021 -0.1858  0.1947 -0.0099
  206MOL0     O27734   8.847   4.078   4.008  0.2213 -0.2690  0.1280
  206MOL0     C27735   8.951   4.128   4.093 -0.3447 -1.1462  0.6191
  206MOL0     C27736   9.022   4.035   4.194  0.9135  0.0637  0.0079
  206MOL0     C27737   8.934   3.995   4.321 -0.1164  0.3797  0.2089
  206MOL0     C27738   8.909   4.115   4.411  0.0797  0.0438 -0.4725
  206MOL0     C27739   9.025   4.133   4.493  0.0325 -0.4858  0.2730
  206MOL0     C27740   9.127   4.171   4.552  0.7561  1.1440 -0.0020
  206MOL0     C27741   8.636   4.076   3.933  0.8086  0.3465 -0.3076
  206MOL0     C27742   8.495   4.102   3.941 -0.3862 -0.4223  0.5291
  206MOL0     H27743   8.090   4.429   3.988 -1.2271  0.7856  1.7377
  206MOL0     H27744   7.846   4.469   3.957  1.7895  1.7549  1.8496
  206MOL0     H27745   7.624   4.467   3.938 -0.7583  0.3611  1.4067
  206MOL0     H27746   7.658   4.415   3.775  1.4145  2.2381  2.2545
  206MOL0     H27747   7.387   4.344   3.922  0.1079 -0.8768 -1.1770
  206MOL0     H27748   7.427   4.495   3.832  2.7594  0.2976  1.8015
  206MOL0     H27749   7.453   4.349   3.624 -0.9418  2.5598  0.4380
  206MOL0     H27750   7.422   4.207   3.725 -1.7723 -0.3419  0.2977
  206MOL0     H27751   7.226   4.297   3.582  1.0565 -0.3452 -0.0491
  206MOL0     H27752   7.177   4.304   3.752  0.2646  0.2629  0.2673
  206MOL0     H27753   7.242   4.544   3.752  2.6707  0.0265 -0.7869
  206MOL0     H27754   7.274   4.548   3.582 -0.3146  0.4871  1.0419
  206MOL0     H27755   7.046   4.418   3.558  3.6847 -0.7115 -0.1374
  206MOL0     H27756   7.014   4.494   3.723  0.2764 -1.0982  0.6531
  206MOL0     H27757   7.059   4.711   3.636 -3.5014  2.7003  0.1501
  206MOL0     H27758   7.076   4.627   3.467 -1.4146  0.7788  0.1189
  206MOL0     H27759   6.845   4.740   3.500 -1.0420 -0.5672 -1.4271
  206MOL0     H27760   6.827   4.613   3.630  2.0078 -0.4312  0.7073
  206MOL0     H27761   6.866   4.656   3.255  0.4443  0.5240  2.0112
  206MOL0     H27762   6.882   4.433   3.067  1.5149 -0.7077  4.6409
  206MOL0     H27763   6.746   4.318   3.097  1.1334 -0.7837 -0.1305
  206MOL0     H27764   6.753   4.599   2.998  1.4184  0.5740  1.1977
  206MOL0     H27765   6.599   4.544   3.076 -0.6389 -0.3918 -3.6483
  206MOL0     H27766   6.568   4.352   2.923 -0.4468 -0.5241 -2.6107
  206MOL0     H27767   6.707   4.404   2.828  1.1096  2.0868 -0.0400
  206MOL0     H27768   6.584   4.616   2.767  3.2752  0.0443  2.1784
  206MOL0     H27769   6.457   4.565   2.876  1.2193  2.5971 -1.3813
  206MOL0     H27770   6.313   4.304   2.610  3.0626  0.9459 -0.7787
  206MOL0     H27771   5.992   4.369   2.509  2.1824  4.3048  0.5311
  206MOL0     H27772   6.041   4.367   2.336 -1.5416 -0.2592  0.0515
  206MOL0     H27773   6.110   4.243   2.456 -1.2262 -1.3507 -1.3401
  206MOL0     H27774   6.035   4.597   2.038  0.4482 -0.4971  0.0201
  206MOL0     H27775   5.872   4.703   1.896  1.4214  0.6510 -2.0621
  206MOL0     H27776   5.860   4.903   1.732  1.5538  1.9439  3.1260
  206MOL0     H27777   5.685   4.843   1.790 -2.1847  1.1971 -2.2078
  206MOL0     H27778   5.604   5.059   1.753 -1.1958 -2.1567 -0.2894
  206MOL0     H27779   5.768   5.107   1.707 -1.6189  1.7045  2.0698
  206MOL0     H27780   5.734   4.926   1.519  0.7770  0.5698  0.5556
  206MOL0     H27781   5.644   5.075   1.500  0.9987 -1.4477 -1.7636
  206MOL0     H27782   5.520   4.825   1.615 -1.1958 -0.1193 -0.0198
  206MOL0     H27783   5.443   4.983   1.589  0.0004  1.5776 -0.9077
  206MOL0     H27784   5.448   4.938   1.349 -1.0562 -1.2396 -2.7904
  206MOL0     H27785   5.412   4.780   1.424  1.9644 -0.2472 -2.1347
  206MOL0     H27786   5.671   4.889   1.310 -0.6172  0.0802 -0.9066
  206MOL0     H27787   5.651   4.727   1.396 -1.1887 -0.5147  1.0015
  206MOL0     H27788   5.590   4.816   1.120  3.6428  1.3347  2.1055
  206MOL0     H27789   5.444   4.753   1.207 -0.2707 -0.6402  3.6205
  206MOL0     H27790   5.669   4.562   1.226  0.0003  1.8470 -1.4608
  206MOL0     H27791   5.576   4.572   1.071  0.6002  0.1184  0.0330
  206MOL0     H27792   5.943   5.088   2.091  0.9271  0.5440 -1.8549
  206MOL0     H27793   6.114   4.969   2.251 -1.9100 -0.5756  2.2047
  206MOL0     H27794   6.274   4.776   2.487  0.9956  0.1835  0.0823
  206MOL0     H27795   6.427   4.702   2.648  1.7660 -2.2739  0.0885
  206MOL0     H27796   7.787   4.042   3.903  1.8210 -1.0792  1.1974
  206MOL0     H27797   8.038   4.006   3.894 -1.2344 -0.2991 -2.2289
  206MOL0     H27798   8.513   4.345   4.175  2.0845  0.4657 -1.0525
  206MOL0     H27799   8.742   4.298   4.166  0.1191  0.5522 -0.2988
  206MOL0     H27800   9.029   4.165   4.026  0.9003 -2.7563  1.1349
  206MOL0     H27801   8.920   4.219   4.146  1.0092  0.6852 -1.5677
  206MOL0     H27802   9.114   4.081   4.230  0.3433  0.5418  0.8936
  206MOL0     H27803   9.050   3.943   4.141 -2.3126 -1.5663  0.8853
  206MOL0     H27804   8.976   3.913   4.380 -1.6247  1.8819  3.6535
  206MOL0     H27805   8.835   3.958   4.293 -0.2170  1.3811 -0.8381
  206MOL0     H27806   8.828   4.093   4.482  1.4126  0.5431  1.2820
  206MOL0     H27807   8.878   4.211   4.367 -1.5317  0.7806  2.0360
  206MOL0     H27808   9.212   4.218   4.597 -0.5906  1.7490  2.0416
  206MOL0     H27809   8.669   4.001   3.861  1.6754 -0.5322  0.9542
  206MOL0     H27810   8.432   4.045   3.873  0.6059  0.2008 -0.9490
  207MOL0     O27811   4.848   8.589   8.598  0.4411  0.5548 -0.5443
  207MOL0     C27812   4.892   8.581   8.486  0.1098  0.0722  0.1401
  207MOL0     O27813   4.820   8.603   8.374 -0.1384 -0.0010  1.1411
  207MOL0     C27814   4.689   8.635   8.356 -0.4727 -0.9869  0.3079
  207MOL0     C27815   4.654   8.734   8.261 -0.7418 -0.1000 -0.5446
  207MOL0     C27816   4.522   8.778   8.251 -0.9429  0.3699 -0.7203
  207MOL0     C27817   4.426   8.711   8.327  0.0815  0.9954 -0.3872
  207MOL0     O27818   4.305   8.746   8.292  0.0387  0.3919  0.1644
  207MOL0     C27819   4.199   8.729   8.385 -0.1530 -0.7185 -0.1441
  207MOL0     C27820   4.216   8.807   8.512 -0.4715 -0.4120 -0.6836
  207MOL0     C27821   4.081   8.846   8.575  0.0600 -0.1953 -0.1665
  207MOL0     C27822   4.026   8.973   8.508 -0.0463 -0.2315  0.4659
  207MOL0     C27823   3.891   9.007   8.563  0.0332  0.4126 -0.0759
  207MOL0     C27824   3.855   9.134   8.487 -0.3860 -0.0840  0.4256
  207MOL0     C27825   3.723   9.200   8.539 -0.7195 -0.6469  0.8348
  207MOL0     C27826   3.610   9.106   8.594 -1.0747 -0.3359  0.3584
  207MOL0     N27827   3.512   9.190   8.662  0.4040 -0.3995  0.0679
  207MOL0     C27828   3.377   9.159   8.651 -0.9062 -0.0079  0.0043
  207MOL0     C27829   3.332   9.193   8.777  0.4172 -0.0840  0.2337
  207MOL0     C27830   3.185   9.169   8.826  0.2770 -0.3525 -0.3905
  207MOL0     C27831   3.155   9.198   8.972 -0.8513  0.2643  0.4415
  207MOL0     C27832   3.011   9.161   9.021 -0.1865 -0.8883 -0.0448
  207MOL0     C27833   2.993   9.162   9.168  0.3204 -0.3934  0.1797
  207MOL0     O27834   3.057   9.054   9.230 -0.1105  0.1816  0.1077
  207MOL0     C27835   2.994   8.927   9.230 -1.0658 -0.6187  0.3759
  207MOL0     C27836   3.082   8.821   9.255 -0.4025 -0.5460 -0.7441
  207MOL0     C27837   3.036   8.693   9.254  0.6622 -0.6973 -1.0601
  207MOL0     C27838   3.137   8.586   9.262 -0.5617  0.1086 -1.0087
  207MOL0     C27839   2.902   8.657   9.228  1.1224 -0.4851 -0.3729
  207MOL0     C27840   2.839   8.522   9.207  0.0941 -0.5209  0.4115
  207MOL0     O27841   2.707   8.503   9.242 -0.0170 -0.6009 -0.2282
  207MOL0     C27842   2.672   8.379   9.289  0.7342 -0.5074 -0.1169
  207MOL0     C27843   2.735   8.300   9.380  0.7283 -0.5946  0.2157
  207MOL0     C27844   2.673   8.188   9.431 -0.1672  1.2246  0.7193
  207MOL0     C27845   2.547   8.152   9.386  0.4649  0.0600  0.1470
  207MOL0     O27846   2.492   8.035   9.434 -0.4765  0.8878  0.3274
  207MOL0     C27847   2.361   7.991   9.379  0.3083  0.2700  0.7120
  207MOL0     C27848   2.305   7.863   9.444 -0.4048 -0.8550  0.0570
  207MOL0     C27849   2.264   7.895   9.587  0.3662 -0.3744 -0.7293
  207MOL0     C27850   2.195   7.772   9.649 -1.0089  0.6024 -0.1467
  207MOL0     C27851   2.169   7.771   9.800  0.7004 -0.1780 -0.8456
  207MOL0     C27852   2.122   7.898   9.847 -0.4082  0.0512 -0.5581
  207MOL0     C27853   2.071   7.901   9.994  0.2762  0.0046 -0.3159
  207MOL0     C27854   2.021   8.038  10.043  0.2735  0.4200  0.7251
  207MOL0    Cl27855   1.853   8.071   9.989 -0.1202  0.4438  0.0054
  207MOL0     C27856   2.481   8.236   9.292 -0.2698 -0.3367 -1.2270
  207MOL0     C27857   2.541   8.352   9.250  0.1141  0.4622  0.8589
  207MOL0     O27858   2.917   8.437   9.165 -0.3045 -0.1441 -0.1138
  207MOL0     C27859   2.811   8.758   9.207 -0.1134  0.6290 -0.7839
  207MOL0     C27860   2.863   8.893   9.210  0.4192  0.0655 -0.2339
  207MOL0     N27861   3.438   9.250   8.849  1.1951  0.4547 -1.2201
  207MOL0     N27862   3.535   9.263   8.768 -0.2235  0.0160 -0.3731
  207MOL0     C27863   4.459   8.604   8.414  0.2295 -0.3097 -0.2639
  207MOL0     C27864   4.592   8.568   8.431 -0.0861 -0.1408  0.0094
  207MOL0     C27865   5.032   8.560   8.475  0.4951  0.9006 -0.3977
  207MOL0     C27866   5.106   8.488   8.574 -0.2038  0.3969 -0.3642
  207MOL0     C27867   5.247   8.503   8.579 -0.2522  0.2523  0.0053
  207MOL0     C27868   5.316   8.558   8.474  0.6108  0.0176  0.1939
  207MOL0     O27869   5.454   8.572   8.466  0.1804 -0.4170 -0.3787
  207MOL0     C27870   5.551   8.552   8.570  0.0020 -0.4980  0.2350
  207MOL0     C27871   5.585   8.404   8.575  0.9201 -0.2275 -0.9705
  207MOL0     C27872   5.733   8.377   8.514  0.8231  0.8028  0.0642
  207MOL0     C27873   5.782   8.233   8.525  0.8802 -0.1157  0.3967
  207MOL0     C27874   5.911   8.210   8.452  0.3841 -0.1482 -0.1140
  207MOL0     C27875   6.017   8.190   8.390  0.0146 -0.5514  0.0108
  207MOL0     C27876   5.249   8.611   8.366 -0.4519  0.1407 -0.6181
  207MOL0     C27877   5.111   8.618   8.374  0.3760 -0.5366 -1.0387
  207MOL0     H27878   4.732   8.773   8.197  1.4064 -1.6660  0.9781
  207MOL0     H27879   4.479   8.848   8.181 -4.5689 -1.1934 -0.3154
  207MOL0     H27880   4.108   8.763   8.334 -1.4104 -1.9733  1.1788
  207MOL0     H27881   4.194   8.623   8.412 -1.6807 -0.1278  2.2394
  207MOL0     H27882   4.272   8.739   8.577  0.9577  1.1522 -0.2037
  207MOL0     H27883   4.275   8.895   8.484  1.0654 -1.1430  0.1332
  207MOL0     H27884   3.999   8.773   8.568 -1.4229  1.3670  0.0412
  207MOL0     H27885   4.100   8.862   8.681  2.9069 -0.8496 -0.5040
  207MOL0     H27886   4.094   9.058   8.522 -0.3545 -0.1259  1.3597
  207MOL0     H27887   4.020   8.959   8.399 -1.1815  1.1911  0.3114
  207MOL0     H27888   3.824   8.921   8.554 -3.3061  2.3434  3.3551
  207MOL0     H27889   3.892   9.031   8.669 -1.9180 -0.3294  0.1662
  207MOL0     H27890   3.938   9.205   8.488 -1.8928  1.7938 -0.5834
  207MOL0     H27891   3.830   9.107   8.383 -1.3553  0.3691  0.5302
  207MOL0     H27892   3.758   9.265   8.619 -0.1113 -2.0302  1.7511
  207MOL0     H27893   3.686   9.257   8.453  3.8094  0.1260 -0.8702
  207MOL0     H27894   3.658   9.045   8.671 -0.0622  1.3358  1.1183
  207MOL0     H27895   3.567   9.050   8.511 -0.2130  1.0386 -1.0728
  207MOL0     H27896   3.315   9.112   8.576 -0.3009 -2.5602  1.0122
  207MOL0     H27897   3.131   9.239   8.762 -2.0969 -2.4442 -0.8142
  207MOL0     H27898   3.148   9.073   8.789  2.2387 -0.1062 -3.3690
  207MOL0     H27899   3.175   9.304   8.993 -1.9457  0.5287  0.1762
  207MOL0     H27900   3.227   9.146   9.037 -2.1420  1.0234  2.6012
  207MOL0     H27901   3.001   9.056   8.991 -0.3678 -1.2542  1.2007
  207MOL0     H27902   2.930   9.220   8.978 -1.0498 -0.4800  1.9885
  207MOL0     H27903   2.885   9.172   9.184 -0.1888 -0.6795 -2.6945
  207MOL0     H27904   3.038   9.253   9.208  2.0834 -1.3383  0.4261
  207MOL0     H27905   3.190   8.837   9.262 -0.2025 -2.3795  1.7546
  207MOL0     H27906   3.147   8.530   9.169 -0.1234 -2.1361  0.3233
  207MOL0     H27907   3.236   8.629   9.278 -1.1497  0.7270  1.4608
  207MOL0     H27908   3.141   8.516   9.346 -1.0011 -0.4729 -1.4585
  207MOL0     H27909   2.820   8.342   9.433  1.0868  0.6123 -1.2434
  207MOL0     H27910   2.709   8.115   9.503 -2.2406  1.3017  1.9105
  207MOL0     H27911   2.311   8.084   9.408  3.2520  1.4657  2.3703
  207MOL0     H27912   2.355   7.975   9.271  0.2489 -1.9704  1.0017
  207MOL0     H27913   2.209   7.840   9.397  0.3034  0.3581 -2.1390
  207MOL0     H27914   2.379   7.783   9.449  0.6100  0.0632  0.1552
  207MOL0     H27915   2.209   7.989   9.598  1.6633  0.1619  2.0738
  207MOL0     H27916   2.362   7.907   9.634  0.6339 -0.3388 -1.2936
  207MOL0     H27917   2.100   7.759   9.597 -0.0373 -1.2733 -1.5777
  207MOL0     H27918   2.270   7.694   9.631 -0.2734  1.3424 -0.3644
  207MOL0     H27919   2.259   7.762   9.861  0.1730  0.1054 -0.0082
  207MOL0     H27920   2.095   7.699   9.836  1.0390  1.0849  2.8770
  207MOL0     H27921   2.201   7.971   9.829  0.2027 -1.1107 -3.0143
  207MOL0     H27922   2.030   7.917   9.790 -0.1157  1.1324 -0.6953
  207MOL0     H27923   2.156   7.879  10.061 -0.4748  3.0114  1.8234
  207MOL0     H27924   1.994   7.824   9.993  1.3587 -1.2101 -3.7785
  207MOL0     H27925   2.094   8.114  10.012  2.8626 -3.1915 -3.2458
  207MOL0     H27926   2.017   8.031  10.152  1.7611 -0.3198  0.7643
  207MOL0     H27927   2.380   8.216   9.259 -0.7087  1.4214 -1.0533
  207MOL0     H27928   2.498   8.428   9.186  0.0547 -1.3228 -1.3474
  207MOL0     H27929   2.706   8.746   9.184  0.3706  1.4945 -3.8466
  207MOL0     H27930   2.795   8.977   9.196  1.0897  0.3894 -1.8941
  207MOL0     H27931   4.385   8.548   8.470 -0.5552 -0.0086 -0.9810
  207MOL0     H27932   4.617   8.492   8.505 -1.5780  1.8916  2.7595
  207MOL0     H27933   5.047   8.437   8.649  1.2375  0.7637  1.0560
  207MOL0     H27934   5.302   8.469   8.666 -2.5731 -0.5233  1.2481
  207MOL0     H27935   5.642   8.600   8.533 -0.3078 -0.2814 -0.2587
  207MOL0     H27936   5.505   8.601   8.657 -1.3910  1.4942 -1.5147
  207MOL0     H27937   5.514   8.347   8.514 -0.8043  1.1496 -0.3206
  207MOL0     H27938   5.575   8.374   8.680  0.4196  2.0915 -0.3029
  207MOL0     H27939   5.807   8.439   8.566  0.5816  0.4913  0.8012
  207MOL0     H27940   5.722   8.420   8.414 -2.5672  1.9160  0.7991
  207MOL0     H27941   5.711   8.161   8.484  1.6435  0.7198 -2.6222
  207MOL0     H27942   5.798   8.204   8.629 -0.4459  1.3503  1.0331
  207MOL0     H27943   6.105   8.182   8.330 -0.4363 -2.7063 -0.4409
  207MOL0     H27944   5.298   8.674   8.294  0.8666 -0.9755 -0.7329
  207MOL0     H27945   5.058   8.671   8.295 -1.1735 -0.7313 -0.1816
  208MOL0     O27946   9.114   6.023   6.075  0.3987  0.0451  0.1640
  208MOL0     C27947   9.078   5.916   6.116  1.0428 -0.4262 -0.5555
  208MOL0     O27948   9.154   5.822   6.187  0.8900  0.4263  0.1166
  208MOL0     C27949   9.293   5.844   6.200  0.2144  0.2953 -0.3580
  208MOL0     C27950   9.382   5.826   6.094  0.0775  0.4278  0.4664
  208MOL0     C27951   9.511   5.871   6.101  0.0475 -0.0652  0.6310
  208MOL0     C27952   9.569   5.916   6.219  0.4241  0.0365  0.5479
  208MOL0     O27953   9.706   5.947   6.231  0.0385 -0.6741  0.0638
  208MOL0     C27954   9.717   6.058   6.323  0.4239 -0.0812  0.3536
  208MOL0     C27955   9.853   6.120   6.298 -0.9872 -0.9424  1.0385
  208MOL0     C27956   9.870   6.200   6.176  0.1517  1.1383 -0.1898
  208MOL0     C27957  10.014   6.265   6.151 -0.2850  0.8999  0.3612
  208MOL0     C27958  10.067   6.342   6.274  1.1162  0.5164  0.1216
  208MOL0     C27959  10.210   6.402   6.252 -0.1652 -0.1511 -0.2493
  208MOL0     C27960  10.208   6.538   6.176 -0.1651  0.2421  0.0264
  208MOL0     C27961  10.342   6.601   6.160  0.2263  0.3949  0.7141
  208MOL0     N27962  10.444   6.519   6.079  0.0914  0.1586 -0.4758
  208MOL0     C27963  10.427   6.456   5.959  0.3461 -0.0954 -0.3631
  208MOL0     C27964  10.540   6.383   5.933 -0.2517 -0.3220 -0.0546
  208MOL0     C27965  10.564   6.291   5.811 -0.6998  0.4853  0.0819
  208MOL0     C27966  10.565   6.146   5.845 -0.5008  1.0551  0.0387
  208MOL0     C27967  10.449   6.087   5.919  0.4880 -0.1380 -0.5483
  208MOL0     C27968  10.328   6.064   5.823 -0.7835 -1.1472  0.3530
  208MOL0     O27969  10.209   6.033   5.902 -0.0456  0.1219  0.1600
  208MOL0     C27970  10.094   6.008   5.832  0.7393  0.4038 -0.2009
  208MOL0     C27971  10.067   6.033   5.696  0.2147 -0.2111  0.3283
  208MOL0     C27972   9.936   6.015   5.642 -0.2418  0.4637 -0.2677
  208MOL0     C27973   9.929   6.032   5.493  0.7490  1.1199 -0.3573
  208MOL0     C27974   9.832   5.976   5.726 -0.2230 -0.0702  0.3866
  208MOL0     C27975   9.701   5.927   5.683  0.1334  0.0032  0.1286
  208MOL0     O27976   9.638   5.980   5.571 -0.3152 -0.1747 -0.1376
  208MOL0     C27977   9.547   5.911   5.501 -0.5437 -0.3720  0.7836
  208MOL0     C27978   9.442   5.861   5.571  0.0687  0.7868 -0.0359
  208MOL0     C27979   9.335   5.789   5.508  0.0246  0.6769  1.0351
  208MOL0     C27980   9.333   5.781   5.372 -0.5046 -0.3444 -0.1073
  208MOL0     O27981   9.239   5.720   5.295  0.4941  0.1020 -0.1213
  208MOL0     C27982   9.128   5.651   5.358  0.0409 -0.1619  0.3553
  208MOL0     C27983   9.042   5.611   5.238 -0.6861  0.9564 -0.2156
  208MOL0     C27984   8.889   5.586   5.274 -0.0593 -0.2001  0.2199
  208MOL0     C27985   8.800   5.525   5.156  0.7549 -0.3688  0.2981
  208MOL0     C27986   8.660   5.507   5.199  0.5413  0.4706 -0.6885
  208MOL0     C27987   8.563   5.461   5.092  0.0574 -0.0358  0.3929
  208MOL0     C27988   8.544   5.566   4.990  0.3502  0.0247  0.5778
  208MOL0     C27989   8.436   5.529   4.888  0.3328 -0.1421  0.2097
  208MOL0    Cl27990   8.270   5.534   4.964 -0.1353 -0.0777 -0.1533
  208MOL0     C27991   9.425   5.857   5.297  0.2571 -0.6389  1.0635
  208MOL0     C27992   9.528   5.924   5.364 -0.3794 -0.1878 -0.0752
  208MOL0     O27993   9.664   5.828   5.743 -0.5232  0.0608 -0.1844
  208MOL0     C27994   9.856   5.961   5.866 -0.3805  0.1648 -0.3216
  208MOL0     C27995   9.985   5.970   5.910 -0.0956 -0.6396  0.1220
  208MOL0     N27996  10.625   6.406   6.041  0.1433 -0.3226  0.2591
  208MOL0     N27997  10.566   6.491   6.122 -0.5715  0.3442  1.6294
  208MOL0     C27998   9.471   5.920   6.327  0.3035  0.6002  0.2845
  208MOL0     C27999   9.331   5.889   6.322 -0.2717 -0.4047 -1.1954
  208MOL0     C28000   8.940   5.872   6.083 -0.1194 -0.3043  0.2619
  208MOL0     C28001   8.874   5.928   5.970  0.3771 -0.0800 -1.2709
  208MOL0     C28002   8.750   5.887   5.948  0.3971  0.2018 -0.0338
  208MOL0     C28003   8.673   5.803   6.033  0.2592  0.9847 -0.4665
  208MOL0     O28004   8.538   5.773   6.010 -0.1354 -0.5764  0.3704
  208MOL0     C28005   8.457   5.694   6.098  0.6848  0.8679  0.4177
  208MOL0     C28006   8.482   5.543   6.078  0.3839  0.5516  0.1934
  208MOL0     C28007   8.485   5.494   5.931 -0.2803  0.6343 -0.5809
  208MOL0     C28008   8.495   5.339   5.921 -0.4249 -0.6627  0.1791
  208MOL0     C28009   8.437   5.302   5.787  0.1717  0.2136 -0.2472
  208MOL0     C28010   8.404   5.282   5.673  0.5915 -0.0803  0.2050
  208MOL0     C28011   8.738   5.752   6.148  0.6073 -0.0787  0.6145
  208MOL0     C28012   8.874   5.785   6.170 -0.5907  0.3926 -0.6460
  208MOL0     H28013   9.349   5.806   5.992 -4.1359 -0.1752  1.7652
  208MOL0     H28014   9.574   5.848   6.015  1.4639 -0.7594  1.8122
  208MOL0     H28015   9.640   6.134   6.310 -0.7011 -1.4463 -1.4511
  208MOL0     H28016   9.720   6.024   6.427 -3.8436 -1.1238  0.3493
  208MOL0     H28017   9.879   6.182   6.385  0.3446  0.3318 -0.2166
  208MOL0     H28018   9.928   6.040   6.297  0.5041  0.3211 -2.2059
  208MOL0     H28019   9.835   6.152   6.085 -0.9212  2.2082 -0.3709
  208MOL0     H28020   9.790   6.275   6.183 -4.2512 -2.8697 -2.3252
  208MOL0     H28021  10.094   6.192   6.138 -0.0020  1.1582  0.6366
  208MOL0     H28022  10.013   6.321   6.057  3.6425 -1.3915 -1.2677
  208MOL0     H28023   9.989   6.415   6.297 -1.0489 -1.1554 -1.4762
  208MOL0     H28024  10.078   6.268   6.353 -0.5223 -0.6485 -0.6779
  208MOL0     H28025  10.249   6.431   6.351 -1.1789  1.4714 -0.2784
  208MOL0     H28026  10.280   6.334   6.203 -0.2525 -0.6552  0.3150
  208MOL0     H28027  10.192   6.523   6.069  1.6365 -0.7601 -0.1291
  208MOL0     H28028  10.133   6.610   6.211 -5.0095 -3.0316 -2.4982
  208MOL0     H28029  10.375   6.619   6.262  2.0671 -2.0058  0.6385
  208MOL0     H28030  10.344   6.692   6.100 -0.7691  0.5290  0.8766
  208MOL0     H28031  10.344   6.460   5.889 -0.0702  2.0490  0.1727
  208MOL0     H28032  10.485   6.310   5.738  1.4804 -1.3707 -3.0236
  208MOL0     H28033  10.655   6.319   5.759  0.9713 -0.5716  2.2862
  208MOL0     H28034  10.654   6.141   5.908 -0.2897  1.4192 -0.2272
  208MOL0     H28035  10.587   6.082   5.759  4.0290  2.1400  0.1329
  208MOL0     H28036  10.420   6.153   6.002  1.2375  1.2252 -1.3339
  208MOL0     H28037  10.473   5.995   5.973 -1.0845  1.1829  2.7064
  208MOL0     H28038  10.350   5.994   5.742  1.2274 -0.6130  0.3768
  208MOL0     H28039  10.300   6.161   5.780 -0.0085 -0.9013  0.3790
  208MOL0     H28040  10.159   6.047   5.639  0.0987 -0.7948 -0.0155
  208MOL0     H28041   9.855   6.109   5.469  1.4468  2.0573  0.4534
  208MOL0     H28042  10.024   6.045   5.441  1.5161  1.8409  1.1804
  208MOL0     H28043   9.887   5.944   5.443  1.8075  1.3485 -1.7033
  208MOL0     H28044   9.436   5.849   5.679  1.8533  0.0838  0.0291
  208MOL0     H28045   9.261   5.748   5.576 -0.0727  0.4337  0.7828
  208MOL0     H28046   9.151   5.558   5.410 -0.6830 -0.0308  0.9269
  208MOL0     H28047   9.079   5.727   5.420 -1.0016  1.7720 -2.5846
  208MOL0     H28048   9.048   5.681   5.155 -0.4878  0.5635 -0.5386
  208MOL0     H28049   9.088   5.518   5.201  0.2147  0.9345  0.8950
  208MOL0     H28050   8.840   5.680   5.302  2.3928  1.3388 -0.3641
  208MOL0     H28051   8.890   5.521   5.362  0.4860  1.9305  1.8786
  208MOL0     H28052   8.799   5.586   5.065 -0.2174 -0.1618  0.4279
  208MOL0     H28053   8.834   5.427   5.122 -2.2635 -1.2813 -0.4518
  208MOL0     H28054   8.620   5.602   5.236 -1.6778 -0.7408  0.2169
  208MOL0     H28055   8.656   5.431   5.278  0.4389 -2.3447 -3.2053
  208MOL0     H28056   8.601   5.373   5.039  1.2815 -0.2544  1.5700
  208MOL0     H28057   8.470   5.438   5.145 -1.0886  1.4399 -0.8712
  208MOL0     H28058   8.635   5.589   4.933 -0.5557 -1.7618 -1.7403
  208MOL0     H28059   8.506   5.655   5.042  0.6801 -0.5744  1.9015
  208MOL0     H28060   8.459   5.432   4.843  0.9110  0.7576 -1.5131
  208MOL0     H28061   8.437   5.610   4.815  2.6810  2.1606  2.5245
  208MOL0     H28062   9.420   5.858   5.189 -0.5564 -3.1135  1.0149
  208MOL0     H28063   9.610   5.978   5.318  1.6999 -1.6367  1.8008
  208MOL0     H28064   9.776   5.948   5.939  0.5164  0.6555  0.7642
  208MOL0     H28065   9.994   5.966   6.018 -2.3563 -0.0234  0.3857
  208MOL0     H28066   9.491   5.964   6.424 -0.8804 -1.2548  1.4347
  208MOL0     H28067   9.273   5.902   6.413  2.2082  1.1988  0.2779
  208MOL0     H28068   8.919   6.010   5.914  0.4567  0.8991  0.1596
  208MOL0     H28069   8.691   5.936   5.871 -3.0131 -1.5428  1.2631
  208MOL0     H28070   8.479   5.724   6.200 -0.0087  0.2321  0.7666
  208MOL0     H28071   8.352   5.720   6.079  0.2772  0.0238  1.3840
  208MOL0     H28072   8.404   5.480   6.122  0.8940 -0.9498 -0.9855
  208MOL0     H28073   8.580   5.529   6.124  0.9747  0.2309 -1.1323
  208MOL0     H28074   8.574   5.545   5.893  1.4748 -1.4830  0.4639
  208MOL0     H28075   8.398   5.528   5.875  0.0937  0.3167 -1.3674
  208MOL0     H28076   8.437   5.296   6.003 -0.8901 -0.0753  0.1631
  208MOL0     H28077   8.597   5.301   5.926 -0.0627  0.0258 -1.4208
  208MOL0     H28078   8.384   5.242   5.576  0.1684  0.9262 -0.1291
  208MOL0     H28079   8.687   5.690   6.222 -2.7019 -0.3719 -1.6722
  208MOL0     H28080   8.922   5.749   6.260  4.4634 -2.0500 -3.8458
  209MOL0     O28081   6.590   2.661  10.756  0.2111  0.2940 -0.3723
  209MOL0     C28082   6.620   2.596  10.657  0.7546 -0.7547  0.6777
  209MOL0     O28083   6.542   2.571  10.547  0.1556  0.1720  0.0149
  209MOL0     C28084   6.407   2.599  10.554 -1.1492  0.5492 -0.1686
  209MOL0     C28085   6.354   2.703  10.482 -0.0203  0.1705  0.0530
  209MOL0     C28086   6.212   2.720  10.489 -0.1749  1.5950 -0.1746
  209MOL0     C28087   6.127   2.648  10.573  0.6078  0.1168  0.6489
  209MOL0     O28088   5.990   2.675  10.582 -0.1263  0.5042 -0.2719
  209MOL0     C28089   5.890   2.574  10.610 -0.7137  0.0426  0.0646
  209MOL0     C28090   5.747   2.604  10.567 -0.2076 -0.2939  0.2286
  209MOL0     C28091   5.719   2.760  10.549  0.5449 -0.7632  0.4514
  209MOL0     C28092   5.572   2.792  10.541 -0.0005 -0.6399  0.4254
  209MOL0     C28093   5.540   2.929  10.479  0.2373  0.4623 -0.4444
  209MOL0     C28094   5.384   2.960  10.470  0.6583 -0.6950  0.1720
  209MOL0     C28095   5.357   3.109  10.498  0.8824 -0.1181 -0.1038
  209MOL0     C28096   5.198   3.145  10.476  0.0312  0.3854 -0.5016
  209MOL0     N28097   5.189   3.290  10.457 -0.1523  0.3954  0.7092
  209MOL0     C28098   5.214   3.347  10.335 -0.2365  0.0626 -0.6823
  209MOL0     C28099   5.246   3.476  10.364 -0.5651 -0.4233 -0.5007
  209MOL0     C28100   5.262   3.587  10.263  0.0388  0.0556 -0.4979
  209MOL0     C28101   5.126   3.663  10.255 -0.4179  0.1663 -0.2384
  209MOL0     C28102   5.108   3.718  10.116 -0.2872 -0.5394 -0.8033
  209MOL0     C28103   4.964   3.778  10.100  0.2512  1.0381  0.1176
  209MOL0     O28104   4.879   3.667  10.068  0.9862 -0.3357 -0.3044
  209MOL0     C28105   4.743   3.681  10.049 -0.3920 -0.2470  1.0705
  209MOL0     C28106   4.669   3.559  10.032 -0.0510  0.8258 -0.0679
  209MOL0     C28107   4.533   3.561   9.996 -0.1536 -0.1871  0.3692
  209MOL0     C28108   4.448   3.431   9.994 -0.6943 -0.1533  0.3219
  209MOL0     C28109   4.471   3.692   9.961 -0.7765 -0.1742 -0.2982
  209MOL0     C28110   4.331   3.714   9.941  0.4140  0.1955  0.4584
  209MOL0     O28111   4.242   3.609   9.948 -0.7010  0.3832  0.0191
  209MOL0     C28112   4.108   3.617   9.940 -0.7197  0.8425 -0.7968
  209MOL0     C28113   4.024   3.708  10.003 -0.7507  0.3769 -0.3984
  209MOL0     C28114   3.882   3.705   9.976  0.5445 -1.4564  0.0720
  209MOL0     C28115   3.822   3.606   9.899 -0.6623 -0.2039  0.0931
  209MOL0     O28116   3.692   3.610   9.892  0.4378 -0.6536  0.5817
  209MOL0     C28117   3.627   3.544   9.785  0.1841  0.5805 -0.4171
  209MOL0     C28118   3.474   3.565   9.783  0.0838  0.8806  0.9475
  209MOL0     C28119   3.437   3.702   9.734  0.1538  0.4459 -0.6418
  209MOL0     C28120   3.287   3.725   9.757  0.6084  0.7082  0.1916
  209MOL0     C28121   3.234   3.863   9.729 -0.0783 -0.1116  0.0657
  209MOL0     C28122   3.091   3.885   9.784  0.4193 -0.2827  0.7424
  209MOL0     C28123   3.045   4.033   9.773  0.9793 -1.0047  0.6068
  209MOL0     C28124   2.925   4.054   9.868  0.5261 -0.6465 -0.4416
  209MOL0    Cl28125   2.786   3.965   9.794  0.2501  0.3873 -0.1292
  209MOL0     C28126   3.909   3.514   9.833 -0.1691 -1.2749  0.7349
  209MOL0     C28127   4.045   3.518   9.860 -0.6917  0.4211 -0.5806
  209MOL0     O28128   4.300   3.823   9.893  0.0421  0.0954 -0.0213
  209MOL0     C28129   4.553   3.809   9.966 -0.0429 -0.8120  0.8139
  209MOL0     C28130   4.681   3.801  10.013 -0.4812 -0.3722  0.1980
  209MOL0     N28131   5.235   3.493  10.504  0.3140  0.4351  0.2707
  209MOL0     N28132   5.209   3.378  10.557 -0.2716  0.5230 -0.0595
  209MOL0     C28133   6.193   2.542  10.638 -0.2505 -0.5558 -0.4410
  209MOL0     C28134   6.329   2.515  10.630  0.5598  0.4171  0.5912
  209MOL0     C28135   6.763   2.559  10.645 -0.4547 -0.0545 -0.0851
  209MOL0     C28136   6.819   2.510  10.527 -0.3474  0.1812 -1.0217
  209MOL0     C28137   6.961   2.474  10.525  0.2727  0.0585  0.2678
  209MOL0     C28138   7.041   2.472  10.642 -0.2609 -1.0125  0.2869
  209MOL0     O28139   7.175   2.447  10.624  0.2065  0.0498 -0.1553
  209MOL0     C28140   7.272   2.444  10.739  0.7207  0.5761  0.2904
  209MOL0     C28141   7.262   2.301  10.803  0.7251  0.4875 -1.2625
  209MOL0     C28142   7.313   2.185  10.710  0.0921 -0.5369  0.8856
  209MOL0     C28143   7.316   2.048  10.768  0.2120 -0.7859  0.0494
  209MOL0     C28144   7.181   2.000  10.785 -0.1688  0.4916 -0.3806
  209MOL0     C28145   7.069   1.962  10.805  0.2548 -0.8612  0.2070
  209MOL0     C28146   6.985   2.514  10.763  0.2688  0.4723 -0.3594
  209MOL0     C28147   6.845   2.553  10.760 -0.3515  0.1718 -0.2007
  209MOL0     H28148   6.414   2.772  10.425  0.4997  2.2128  2.8832
  209MOL0     H28149   6.158   2.797  10.435 -1.0126  1.0575 -0.1148
  209MOL0     H28150   5.932   2.480  10.573 -1.0917 -0.1396  0.0973
  209MOL0     H28151   5.876   2.567  10.718  0.2290 -1.4352  0.1242
  209MOL0     H28152   5.722   2.544  10.479 -2.1231 -1.2745  1.3862
  209MOL0     H28153   5.681   2.570  10.646 -0.6862  0.3223  0.1070
  209MOL0     H28154   5.752   2.808  10.641 -1.2096  0.7906  0.3109
  209MOL0     H28155   5.776   2.805  10.467  3.1784 -1.7417  1.6165
  209MOL0     H28156   5.536   2.713  10.475  4.1673 -1.0671 -1.6433
  209MOL0     H28157   5.520   2.778  10.636 -1.3254  2.5109  0.3068
  209MOL0     H28158   5.593   3.000  10.543  1.4196 -0.7346 -0.0428
  209MOL0     H28159   5.588   2.939  10.382  2.6759  0.9734  0.7407
  209MOL0     H28160   5.336   2.924  10.378 -0.2847  0.4377  0.2069
  209MOL0     H28161   5.333   2.907  10.551 -1.6829  0.0121 -0.7374
  209MOL0     H28162   5.384   3.130  10.602 -2.0877 -0.1621  0.7682
  209MOL0     H28163   5.412   3.175  10.431 -0.2516  0.6811 -0.2620
  209MOL0     H28164   5.140   3.128  10.568  1.6674  1.1320  0.7244
  209MOL0     H28165   5.158   3.084  10.395 -2.8195  1.9372 -0.3585
  209MOL0     H28166   5.201   3.306  10.235 -0.1081 -1.9010  0.0699
  209MOL0     H28167   5.337   3.657  10.302 -0.4752  1.3239 -1.6854
  209MOL0     H28168   5.271   3.538  10.166 -3.8635 -2.6382  0.2603
  209MOL0     H28169   5.125   3.748  10.325  0.8882  1.0546 -1.2476
  209MOL0     H28170   5.040   3.603  10.286 -0.1213 -1.0899 -1.7358
  209MOL0     H28171   5.115   3.640  10.039  0.8668 -0.2090 -1.0579
  209MOL0     H28172   5.178   3.800  10.096 -0.4821  0.2014  1.3260
  209MOL0     H28173   4.966   3.854  10.022 -0.0849  1.1944  0.2594
  209MOL0     H28174   4.931   3.825  10.193  1.7152  1.5888  0.3859
  209MOL0     H28175   4.726   3.467  10.041 -0.3416  0.5994 -0.4784
  209MOL0     H28176   4.513   3.344  10.007  0.6194  0.6612 -0.6010
  209MOL0     H28177   4.371   3.431  10.072 -4.1460  0.7585 -2.8446
  209MOL0     H28178   4.390   3.420   9.903 -0.9583 -2.3703  0.7012
  209MOL0     H28179   4.083   3.773  10.066  0.8554 -1.1092 -0.2954
  209MOL0     H28180   3.826   3.782  10.027  0.6310 -1.6475  0.4575
  209MOL0     H28181   3.664   3.581   9.689 -2.1760 -0.0665 -1.6553
  209MOL0     H28182   3.639   3.435   9.789  0.6977  0.6336  3.8382
  209MOL0     H28183   3.438   3.487   9.715 -1.3263  1.3534  1.1109
  209MOL0     H28184   3.431   3.551   9.882 -1.4178 -0.9927  0.1035
  209MOL0     H28185   3.474   3.732   9.636  4.7832  0.9465  1.0299
  209MOL0     H28186   3.497   3.774   9.791  3.2829 -0.4258 -2.6639
  209MOL0     H28187   3.234   3.657   9.690  1.0653  0.2678  0.2656
  209MOL0     H28188   3.261   3.697   9.860 -0.1183 -3.2700 -0.9224
  209MOL0     H28189   3.237   3.877   9.620  3.3791 -1.1015 -0.0870
  209MOL0     H28190   3.301   3.934   9.779 -0.0942 -0.2141  0.2309
  209MOL0     H28191   3.024   3.824   9.722 -0.3593 -0.0984  1.3868
  209MOL0     H28192   3.092   3.848   9.887 -1.6981 -2.6827  0.0113
  209MOL0     H28193   3.024   4.069   9.672 -1.3496 -0.0541  1.3616
  209MOL0     H28194   3.124   4.096   9.814  0.1156 -0.6502  1.8064
  209MOL0     H28195   2.903   4.161   9.872  1.0920 -0.5454  0.0409
  209MOL0     H28196   2.960   4.012   9.963  1.1472  1.6300  0.4128
  209MOL0     H28197   3.879   3.451   9.751  0.8624  0.8013 -1.3401
  209MOL0     H28198   4.109   3.444   9.813 -1.4240 -1.2043  0.8856
  209MOL0     H28199   4.521   3.910   9.941  0.6619 -0.0053  2.9398
  209MOL0     H28200   4.727   3.899  10.020  1.1268 -0.9554 -1.4593
  209MOL0     H28201   6.135   2.474  10.700 -2.0790 -1.3379 -2.8279
  209MOL0     H28202   6.371   2.435  10.691 -3.1029 -1.3096  1.1187
  209MOL0     H28203   6.763   2.507  10.434  2.1434 -3.1581 -2.6323
  209MOL0     H28204   7.005   2.452  10.428  1.0419 -2.7295  1.1760
  209MOL0     H28205   7.374   2.460  10.700  1.0620 -0.3047  0.7912
  209MOL0     H28206   7.254   2.515  10.820 -0.0575 -0.1058  0.7246
  209MOL0     H28207   7.157   2.285  10.832  0.9047  2.0333  0.4462
  209MOL0     H28208   7.325   2.300  10.893 -0.5466  0.1149 -0.3416
  209MOL0     H28209   7.413   2.211  10.674 -1.6554  4.3674 -1.2619
  209MOL0     H28210   7.254   2.196  10.618  1.0133  1.0709  0.4509
  209MOL0     H28211   7.366   2.053  10.866  0.8255  1.3855 -0.3288
  209MOL0     H28212   7.381   1.982  10.710  1.1656 -0.4777  0.7277
  209MOL0     H28213   6.968   1.927  10.813 -0.9619  1.8124 -1.7817
  209MOL0     H28214   7.038   2.511  10.857 -1.2653  2.2409  0.6321
  209MOL0     H28215   6.796   2.578  10.854 -1.4478 -0.9995 -0.4349
  210MOL0     O28216  10.897  10.320   2.925 -0.5232 -1.2160  0.0066
  210MOL0     C28217  10.934  10.395   3.015 -0.1980  0.5542 -0.0017
  210MOL0     O28218  10.898  10.526   3.025 -0.3121 -0.7390 -0.7192
  210MOL0     C28219  10.795  10.571   2.942 -0.2628  0.3747 -0.0328
  210MOL0     C28220  10.818  10.697   2.881  0.2176 -0.8642 -0.7116
  210MOL0     C28221  10.726  10.745   2.784 -0.4081 -0.3226  0.5739
  210MOL0     C28222  10.604  10.681   2.754  0.4095 -0.0393 -1.0605
  210MOL0     O28223  10.535  10.739   2.649  0.2020 -0.1259  0.0863
  210MOL0     C28224  10.419  10.674   2.592 -0.7156  0.1782  0.8503
  210MOL0     C28225  10.462  10.568   2.493  1.0881 -0.7306  0.3246
  210MOL0     C28226  10.345  10.492   2.430  0.0093  1.2237 -0.2520
  210MOL0     C28227  10.267  10.569   2.320  0.0673  0.1384 -0.2457
  210MOL0     C28228  10.167  10.493   2.230  0.3837 -0.1520  0.7975
  210MOL0     C28229  10.019  10.501   2.267  1.2481 -0.0913  0.2466
  210MOL0     C28230   9.915  10.439   2.164  0.2381  0.5225 -0.4785
  210MOL0     C28231   9.949  10.298   2.124 -0.0293 -0.2761  0.3036
  210MOL0     N28232   9.816  10.237   2.082 -0.8398 -0.4822 -0.0972
  210MOL0     C28233   9.738  10.291   1.981  0.2028  0.6634  0.1994
  210MOL0     C28234   9.622  10.217   1.982 -0.2218  0.1819 -0.0175
  210MOL0     C28235   9.510  10.209   1.883  0.6192 -0.1246 -0.9516
  210MOL0     C28236   9.500  10.088   1.792 -0.9347 -0.5779  0.1255
  210MOL0     C28237   9.642  10.027   1.749  0.2723 -0.6017  0.2474
  210MOL0     C28238   9.613   9.897   1.659 -0.0671  0.4176  0.2515
  210MOL0     O28239   9.547   9.925   1.532  0.2495  0.4780  0.1959
  210MOL0     C28240   9.499   9.821   1.452 -1.4695  0.0249  0.0966
  210MOL0     C28241   9.406   9.848   1.353 -0.3766 -0.8815 -0.5685
  210MOL0     C28242   9.341   9.743   1.285 -0.8873  0.9241  0.0116
  210MOL0     C28243   9.268   9.777   1.159  0.0252  0.5558 -0.9154
  210MOL0     C28244   9.369   9.603   1.314  0.4955 -0.3596 -0.2056
  210MOL0     C28245   9.296   9.485   1.256  0.1781 -0.4518  0.2340
  210MOL0     O28246   9.370   9.368   1.252 -0.3284 -0.3483  0.0757
  210MOL0     C28247   9.306   9.252   1.234 -1.1552  0.1871 -0.2745
  210MOL0     C28248   9.231   9.195   1.337 -0.6152 -0.0922  0.0533
  210MOL0     C28249   9.174   9.074   1.318  0.5945  0.5175  0.7981
  210MOL0     C28250   9.184   9.004   1.191 -0.0936 -0.7469 -0.5959
  210MOL0     O28251   9.113   8.883   1.182  0.5239  0.3558  0.0266
  210MOL0     C28252   9.077   8.848   1.048  0.4618 -0.7927  0.7225
  210MOL0     C28253   8.988   8.722   1.053  0.0063 -0.6986  0.3679
  210MOL0     C28254   8.847   8.743   1.123 -0.1385 -0.2624  0.4649
  210MOL0     C28255   8.754   8.639   1.067 -0.3360 -0.3904 -0.3264
  210MOL0     C28256   8.606   8.658   1.089  0.5976 -0.7739 -1.0226
  210MOL0     C28257   8.537   8.529   1.114  0.3649  0.8075  0.4639
  210MOL0     C28258   8.395   8.541   1.157 -0.3274  0.9750 -0.9625
  210MOL0     C28259   8.338   8.404   1.204  0.2648 -0.1655 -0.3637
  210MOL0    Cl28260   8.343   8.269   1.086 -0.0980  0.2066 -0.4664
  210MOL0     C28261   9.269   9.059   1.097 -0.0540  0.4633 -0.1904
  210MOL0     C28262   9.325   9.187   1.112  1.3204  0.5840 -0.0485
  210MOL0     O28263   9.175   9.493   1.220  1.1474  0.4482  0.0598
  210MOL0     C28264   9.476   9.576   1.403 -0.3192  0.4204 -0.0107
  210MOL0     C28265   9.537   9.684   1.479 -0.1790 -0.4511 -0.1138
  210MOL0     N28266   9.636  10.120   2.078 -0.2072  0.4301 -0.0054
  210MOL0     N28267   9.752  10.123   2.135  0.5256 -1.4260 -0.1642
  210MOL0     C28268  10.575  10.559   2.818 -0.5844  0.3264 -0.3634
  210MOL0     C28269  10.672  10.506   2.904 -0.0531  0.5593 -0.3837
  210MOL0     C28270  11.035  10.344   3.120  0.2153  0.4065  0.7503
  210MOL0     C28271  11.065  10.213   3.139 -0.0824 -0.0408 -0.0243
  210MOL0     C28272  11.161  10.172   3.235 -0.5749  0.3187  0.2413
  210MOL0     C28273  11.236  10.267   3.303  0.4151 -0.2902 -1.5482
  210MOL0     O28274  11.311  10.235   3.417  0.6348  0.4864  0.4212
  210MOL0     C28275  11.438  10.305   3.425 -0.4358 -0.4921 -0.3605
  210MOL0     C28276  11.516  10.260   3.553  0.2360  0.1490 -0.4196
  210MOL0     C28277  11.664  10.265   3.525  0.6438 -0.2874  0.2945
  210MOL0     C28278  11.739  10.219   3.651 -0.6334 -0.9761  0.0770
  210MOL0     C28279  11.886  10.190   3.639 -0.0679  0.4780 -0.5020
  210MOL0     C28280  12.004  10.178   3.624 -0.0915 -0.0114  0.7306
  210MOL0     C28281  11.210  10.402   3.278 -0.1066  0.1456 -0.7342
  210MOL0     C28282  11.112  10.437   3.185  1.0659 -0.4270 -0.2378
  210MOL0     H28283  10.911  10.746   2.904  0.7167 -0.6824 -2.8792
  210MOL0     H28284  10.744  10.843   2.740  1.3986 -0.8670  0.0083
  210MOL0     H28285  10.358  10.635   2.674  1.6423  2.0225  3.6814
  210MOL0     H28286  10.354  10.741   2.535  0.1223  0.9484  0.7828
  210MOL0     H28287  10.522  10.613   2.413  0.9761 -0.1745  0.5456
  210MOL0     H28288  10.526  10.494   2.542  3.0419  0.1102 -0.8593
  210MOL0     H28289  10.371  10.394   2.391 -0.0861  0.3956  1.6480
  210MOL0     H28290  10.272  10.471   2.508 -0.9818  1.3485 -1.1223
  210MOL0     H28291  10.211  10.649   2.367 -1.2913 -0.9582  0.0789
  210MOL0     H28292  10.330  10.619   2.246 -1.8055  0.2263 -1.8688
  210MOL0     H28293  10.176  10.532   2.129 -0.1048  0.1036  0.8494
  210MOL0     H28294  10.196  10.389   2.214 -1.4990 -0.3640 -1.7264
  210MOL0     H28295   9.996  10.447   2.359 -2.3304 -2.8941 -2.0234
  210MOL0     H28296   9.997  10.606   2.288 -0.0008 -0.4207  0.6519
  210MOL0     H28297   9.822  10.448   2.222  0.5804 -0.0977  0.1793
  210MOL0     H28298   9.888  10.505   2.081 -0.7675 -1.3158 -1.6821
  210MOL0     H28299   9.993  10.246   2.210  1.1468  4.0577  2.6087
  210MOL0     H28300  10.022  10.300   2.042 -0.9301  1.5937 -0.5217
  210MOL0     H28301   9.767  10.370   1.912 -1.5471  0.5587 -0.6918
  210MOL0     H28302   9.420  10.210   1.944  2.0574  0.4805  1.2838
  210MOL0     H28303   9.510  10.309   1.838  0.8431  0.2770 -0.0880
  210MOL0     H28304   9.455  10.123   1.700  0.8672  0.7404 -0.3133
  210MOL0     H28305   9.451  10.002   1.840 -2.1835  0.4227  0.6906
  210MOL0     H28306   9.700  10.003   1.839 -0.3397  3.2103  1.8540
  210MOL0     H28307   9.713  10.092   1.699  1.5964 -0.8771  1.6884
  210MOL0     H28308   9.551   9.828   1.717  0.3339  0.5274  0.8206
  210MOL0     H28309   9.707   9.844   1.639 -0.6004 -1.2339  1.8094
  210MOL0     H28310   9.396   9.954   1.331  0.8628 -0.6397  0.0034
  210MOL0     H28311   9.329   9.805   1.073 -1.2138  5.0912 -0.5450
  210MOL0     H28312   9.200   9.698   1.124 -0.3642  1.6574 -2.7997
  210MOL0     H28313   9.205   9.864   1.179  1.0589  0.9433  0.8143
  210MOL0     H28314   9.218   9.234   1.437 -0.4922  0.9699 -0.3275
  210MOL0     H28315   9.104   9.035   1.391 -1.6116  2.7633  0.0047
  210MOL0     H28316   9.022   8.926   0.995  1.7023  0.7960  1.6899
  210MOL0     H28317   9.171   8.835   0.993  0.6184  1.9614  0.2258
  210MOL0     H28318   8.971   8.684   0.952 -2.2415 -2.2315  1.2481
  210MOL0     H28319   9.045   8.643   1.102 -0.5026 -1.2350  0.1070
  210MOL0     H28320   8.804   8.842   1.105 -0.7898 -0.3081  1.6446
  210MOL0     H28321   8.854   8.729   1.231 -1.2860  2.0312  0.8957
  210MOL0     H28322   8.770   8.630   0.959 -2.4362  0.4023 -0.7610
  210MOL0     H28323   8.789   8.545   1.110  0.7143 -0.7039 -1.7658
  210MOL0     H28324   8.547   8.705   1.010 -1.7589 -2.1316 -0.1902
  210MOL0     H28325   8.590   8.723   1.175  0.9434 -2.7869  0.6495
  210MOL0     H28326   8.552   8.478   1.018  1.7299  1.4371  0.3259
  210MOL0     H28327   8.594   8.488   1.198 -1.8796 -0.1157  1.6311
  210MOL0     H28328   8.339   8.578   1.070  2.9727  1.4808 -3.0455
  210MOL0     H28329   8.381   8.602   1.246 -2.5617 -1.0181  0.1919
  210MOL0     H28330   8.234   8.417   1.235  0.3434  0.3329 -0.3051
  210MOL0     H28331   8.387   8.369   1.296 -1.4950 -1.3277  0.1903
  210MOL0     H28332   9.286   9.003   1.005 -0.7404 -0.2490  0.1094
  210MOL0     H28333   9.386   9.229   1.033  0.4813  0.0684 -1.0075
  210MOL0     H28334   9.500   9.475   1.432 -1.0530  0.9822  2.8972
  210MOL0     H28335   9.601   9.666   1.565 -0.5895 -0.7580  0.1296
  210MOL0     H28336  10.481  10.507   2.806 -0.7653  0.2955  0.9965
  210MOL0     H28337  10.628  10.422   2.957  0.7899  0.3787  0.0496
  210MOL0     H28338  11.012  10.136   3.083 -0.1176 -1.5769  1.9709
  210MOL0     H28339  11.173  10.068   3.265  0.6758  0.3025 -0.2698
  210MOL0     H28340  11.497  10.280   3.337  0.2426 -1.6141  0.3980
  210MOL0     H28341  11.432  10.414   3.440 -2.0673 -0.7417  1.1346
  210MOL0     H28342  11.492  10.161   3.593  0.5503  1.0220  2.1146
  210MOL0     H28343  11.494  10.323   3.640 -2.2243  0.1955 -1.0044
  210MOL0     H28344  11.695  10.362   3.485 -0.6947  0.6528  1.4170
  210MOL0     H28345  11.686  10.206   3.436  2.5831  0.4067  0.2756
  210MOL0     H28346  11.692  10.127   3.686 -0.7146 -0.8924  0.1878
  210MOL0     H28347  11.727  10.286   3.737  0.3389 -0.9063  0.1691
  210MOL0     H28348  12.110  10.174   3.607 -0.0028  0.2811  1.1990
  210MOL0     H28349  11.260  10.482   3.332 -0.8061 -1.3026  2.2783
  210MOL0     H28350  11.084  10.542   3.188  1.3967 -0.3170  3.7366
  211MOL0     O28351   6.802   9.858   0.738 -0.0354 -0.2107  0.0884
  211MOL0     C28352   6.854   9.807   0.836 -0.7871  0.0140 -0.2837
  211MOL0     O28353   6.788   9.770   0.951 -0.3423 -0.0770  0.1507
  211MOL0     C28354   6.649   9.738   0.939 -0.1141 -0.2812 -0.5505
  211MOL0     C28355   6.582   9.661   0.854  0.0306 -0.8197 -0.7998
  211MOL0     C28356   6.440   9.645   0.867 -0.4134  0.4571 -0.0398
  211MOL0     C28357   6.367   9.721   0.957  0.1983 -0.0827 -0.7012
  211MOL0     O28358   6.232   9.728   0.967 -0.1141  0.1808  0.4559
  211MOL0     C28359   6.154   9.625   0.899 -0.0848 -0.2942  0.2800
  211MOL0     C28360   6.009   9.635   0.932  0.2935  0.2365  0.3514
  211MOL0     C28361   5.919   9.533   0.860  0.4627  0.2151  0.0903
  211MOL0     C28362   5.778   9.536   0.913 -0.6363 -0.1529 -0.7868
  211MOL0     C28363   5.710   9.672   0.875  0.1315 -0.6454  0.6675
  211MOL0     C28364   5.556   9.674   0.908  1.1630 -0.3203 -0.5295
  211MOL0     C28365   5.473   9.779   0.842  0.1808 -0.2457 -0.3044
  211MOL0     C28366   5.513   9.925   0.891  0.4680  0.9049  0.1840
  211MOL0     N28367   5.518  10.019   0.778 -0.9064 -0.7619 -1.3124
  211MOL0     C28368   5.627  10.049   0.695  0.1000 -0.2302 -0.1010
  211MOL0     C28369   5.583  10.129   0.596  0.5651  0.0393 -0.5437
  211MOL0     C28370   5.672  10.153   0.477 -0.0107  0.7142 -0.7986
  211MOL0     C28371   5.580  10.157   0.347  0.4179 -1.2822 -0.1250
  211MOL0     C28372   5.664  10.198   0.227 -0.0522  0.1640 -0.4711
  211MOL0     C28373   5.754  10.083   0.173 -0.5478 -0.3032 -1.1180
  211MOL0     O28374   5.832  10.134   0.061 -0.7756 -0.0129  0.1956
  211MOL0     C28375   5.945  10.065   0.023  0.3698  0.2479 -1.0021
  211MOL0     C28376   5.946   9.927   0.042  0.2661 -0.1720  0.3011
  211MOL0     C28377   6.061   9.841   0.014  0.2332 -0.7002  0.2700
  211MOL0     C28378   6.062   9.701   0.055 -0.1572  0.8637 -0.9011
  211MOL0     C28379   6.172   9.913  -0.047 -0.4668 -1.2735  0.1586
  211MOL0     C28380   6.297   9.851  -0.097 -0.7378 -0.2379  0.5040
  211MOL0     O28381   6.371   9.915  -0.194 -0.1430  0.4477  0.6685
  211MOL0     C28382   6.492   9.864  -0.241  0.1413 -0.9947  1.0095
  211MOL0     C28383   6.521   9.732  -0.271 -0.8935 -0.0545  0.4017
  211MOL0     C28384   6.653   9.690  -0.318  0.0534 -0.5901  0.1119
  211MOL0     C28385   6.753   9.786  -0.324  1.0018 -0.0733 -0.0736
  211MOL0     O28386   6.864   9.728  -0.382  1.0209 -0.7949 -0.8283
  211MOL0     C28387   6.986   9.800  -0.398 -0.7907 -0.1201 -0.2176
  211MOL0     C28388   7.118   9.721  -0.371  0.7353  0.6379 -0.0641
  211MOL0     C28389   7.232   9.804  -0.410  0.9302 -0.2601 -0.5193
  211MOL0     C28390   7.351   9.723  -0.444  0.0263 -0.0123  0.7106
  211MOL0     C28391   7.463   9.819  -0.487  0.0929  0.6623  0.5388
  211MOL0     C28392   7.593   9.742  -0.517 -0.1679 -0.5726 -0.6830
  211MOL0     C28393   7.697   9.833  -0.572  0.2286  0.2938  0.5713
  211MOL0     C28394   7.831   9.767  -0.576 -0.5997 -0.7821 -0.2915
  211MOL0    Cl28395   7.838   9.624  -0.679  0.4713 -0.1044 -0.4799
  211MOL0     C28396   6.724   9.920  -0.288  0.2210 -0.0966 -0.1326
  211MOL0     C28397   6.593   9.953  -0.247  0.2476  0.5980  0.9126
  211MOL0     O28398   6.339   9.757  -0.040 -0.8795 -0.2630 -0.2784
  211MOL0     C28399   6.167  10.053  -0.064 -0.0879 -0.0196 -0.5790
  211MOL0     C28400   6.057  10.125  -0.015 -0.4920  0.2088  0.0585
  211MOL0     N28401   5.447  10.158   0.628 -0.7716  0.6249 -0.3698
  211MOL0     N28402   5.422  10.094   0.738  0.2369 -0.6393 -0.5649
  211MOL0     C28403   6.438   9.814   1.036  0.2883 -0.1516  0.8564
  211MOL0     C28404   6.572   9.823   1.017  0.4569  0.9181  0.5487
  211MOL0     C28405   7.004   9.787   0.835 -0.2938 -0.1792 -0.2397
  211MOL0     C28406   7.077   9.805   0.714 -0.1647  0.7255 -0.4193
  211MOL0     C28407   7.219   9.778   0.720  0.1881  0.5426 -0.0920
  211MOL0     C28408   7.278   9.734   0.836 -0.3684  0.8253 -0.3807
  211MOL0     O28409   7.411   9.698   0.849 -0.3471  0.0170  0.7952
  211MOL0     C28410   7.483   9.681   0.727 -0.3839  0.0023  0.1097
  211MOL0     C28411   7.623   9.619   0.753 -0.6899 -0.1503 -0.8389
  211MOL0     C28412   7.618   9.485   0.842  0.3709  0.5068 -0.3646
  211MOL0     C28413   7.574   9.367   0.767  0.0743  0.0564  0.2021
  211MOL0     C28414   7.604   9.236   0.838 -0.7453 -0.6742 -0.3252
  211MOL0     C28415   7.649   9.140   0.899  0.0388 -0.0600  0.0945
  211MOL0     C28416   7.202   9.726   0.948 -0.1372 -0.0210  0.1551
  211MOL0     C28417   7.069   9.749   0.951  0.4032 -0.6624 -0.2779
  211MOL0     H28418   6.640   9.606   0.780  1.2566 -0.0962 -0.4186
  211MOL0     H28419   6.375   9.584   0.805 -2.1859  1.1545  1.0289
  211MOL0     H28420   6.170   9.634   0.791  2.7611  1.3986  0.7300
  211MOL0     H28421   6.192   9.526   0.925  2.6063  1.2667  3.0000
  211MOL0     H28422   6.009   9.628   1.041  0.9402  2.6819  0.5579
  211MOL0     H28423   5.973   9.731   0.894 -1.3979 -1.0072 -1.3674
  211MOL0     H28424   5.908   9.545   0.752 -2.8895  2.7269  0.5308
  211MOL0     H28425   5.961   9.433   0.872 -3.1625 -1.4692  0.2570
  211MOL0     H28426   5.729   9.453   0.862  2.2849 -1.7549 -1.2107
  211MOL0     H28427   5.767   9.510   1.018 -2.8098 -0.6333 -1.0722
  211MOL0     H28428   5.757   9.760   0.920 -1.0633 -0.1656  1.0347
  211MOL0     H28429   5.705   9.688   0.767 -3.2452 -2.7641  0.3612
  211MOL0     H28430   5.506   9.581   0.882 -0.1249  0.5571 -1.2487
  211MOL0     H28431   5.535   9.682   1.015  0.5283 -3.3361 -0.3518
  211MOL0     H28432   5.498   9.783   0.735  2.5085  0.4406  0.2026
  211MOL0     H28433   5.367   9.757   0.858 -0.6705  0.7927 -3.5951
  211MOL0     H28434   5.610   9.931   0.941  0.7328  1.9991 -0.4268
  211MOL0     H28435   5.438   9.949   0.967 -0.9678  0.9145 -1.1922
  211MOL0     H28436   5.727  10.008   0.704  0.3684 -0.2107 -2.3403
  211MOL0     H28437   5.744  10.233   0.495 -1.0195  1.4034  0.2608
  211MOL0     H28438   5.736  10.065   0.466 -1.8754 -1.0378  1.4301
  211MOL0     H28439   5.508  10.239   0.358  0.1059 -1.8764  3.5668
  211MOL0     H28440   5.526  10.066   0.319 -2.5093  0.3075  0.0091
  211MOL0     H28441   5.739  10.269   0.264  0.6510 -1.2347  0.9582
  211MOL0     H28442   5.601  10.243   0.151  1.1270  2.0203 -0.4216
  211MOL0     H28443   5.697   9.992   0.153 -0.4470 -0.9412  1.2152
  211MOL0     H28444   5.826  10.054   0.250  1.3581  2.7258 -1.5910
  211MOL0     H28445   5.858   9.872   0.073 -0.0418  1.3299  2.2909
  211MOL0     H28446   6.101   9.708   0.156 -2.8247  0.2794  0.2539
  211MOL0     H28447   5.964   9.653   0.049  0.0243  0.6412 -4.6954
  211MOL0     H28448   6.131   9.629   0.010  0.1499 -0.7763  1.9722
  211MOL0     H28449   6.451   9.650  -0.259 -0.0547 -0.6517  1.3234
  211MOL0     H28450   6.679   9.585  -0.326 -0.2761 -0.6352 -0.3610
  211MOL0     H28451   7.001   9.843  -0.497  0.0323  2.6627  1.0064
  211MOL0     H28452   7.004   9.879  -0.325  0.7839  0.5174 -1.2412
  211MOL0     H28453   7.120   9.702  -0.263  2.4214 -1.7963 -0.4589
  211MOL0     H28454   7.115   9.623  -0.419 -1.0793  1.3767 -1.5740
  211MOL0     H28455   7.262   9.878  -0.334 -1.5846 -0.7690  1.0746
  211MOL0     H28456   7.197   9.850  -0.502 -0.0270 -2.4412 -1.2963
  211MOL0     H28457   7.390   9.661  -0.362  0.1172 -0.4313  0.3552
  211MOL0     H28458   7.327   9.653  -0.525 -0.3185 -0.5036  1.2239
  211MOL0     H28459   7.478   9.892  -0.407  0.1934  1.3521 -0.1057
  211MOL0     H28460   7.434   9.888  -0.566  0.5710  1.1292  0.7721
  211MOL0     H28461   7.630   9.712  -0.419 -2.5197  3.9237  1.8995
  211MOL0     H28462   7.566   9.660  -0.585 -3.9233  0.7870 -1.0655
  211MOL0     H28463   7.702   9.929  -0.520 -1.7225  1.6106 -1.4844
  211MOL0     H28464   7.675   9.857  -0.677  2.4651  1.2081  0.2488
  211MOL0     H28465   7.857   9.743  -0.473 -1.6373  0.6577  0.3277
  211MOL0     H28466   7.898   9.846  -0.610  0.3221 -0.3843  2.2601
  211MOL0     H28467   6.801   9.997  -0.295  1.6951 -1.5132 -0.1237
  211MOL0     H28468   6.568  10.057  -0.229 -0.3833  0.7499 -0.6596
  211MOL0     H28469   6.245  10.110  -0.114 -0.8478  0.4173 -1.3104
  211MOL0     H28470   6.050  10.233  -0.018  0.1635  0.2410 -2.3839
  211MOL0     H28471   6.385   9.887   1.096 -2.4338  1.4298 -3.0202
  211MOL0     H28472   6.624   9.907   1.061  2.9090 -0.0479 -0.3505
  211MOL0     H28473   7.043   9.834   0.616 -0.8053  3.2084  0.4823
  211MOL0     H28474   7.269   9.796   0.625 -1.2779 -0.5600 -1.1232
  211MOL0     H28475   7.432   9.619   0.653  0.5882  1.0675 -1.5336
  211MOL0     H28476   7.489   9.775   0.671  3.6384  0.2473  0.6336
  211MOL0     H28477   7.668   9.697   0.816 -1.3993 -0.6828  0.3505
  211MOL0     H28478   7.687   9.598   0.667 -1.3654 -2.3800 -0.8371
  211MOL0     H28479   7.563   9.486   0.936  0.9373 -0.9855  0.0023
  211MOL0     H28480   7.720   9.465   0.875 -0.0187 -0.5681  0.2140
  211MOL0     H28481   7.630   9.372   0.674  0.3948  0.4226  0.4122
  211MOL0     H28482   7.465   9.360   0.758  0.1342 -0.9394  0.1064
  211MOL0     H28483   7.687   9.046   0.933  0.1708  0.2116  0.7176
  211MOL0     H28484   7.252   9.690   1.037  0.3202  0.9329  0.2933
  211MOL0     H28485   7.013   9.732   1.042  1.9126  2.7212  1.4674
  212MOL0     O28486   9.225   9.658   3.369  0.4051  0.2515 -0.8720
  212MOL0     C28487   9.305   9.668   3.461 -1.4758  0.7789  0.5907
  212MOL0     O28488   9.280   9.730   3.579  0.1292 -0.4348  0.5860
  212MOL0     C28489   9.144   9.751   3.617  0.6847 -0.1082  0.0382
  212MOL0     C28490   9.104   9.880   3.642 -1.4926  0.6269 -0.3131
  212MOL0     C28491   8.979   9.919   3.670  0.6555 -0.2248 -0.4448
  212MOL0     C28492   8.871   9.826   3.663 -0.3905 -0.2140  0.5427
  212MOL0     O28493   8.741   9.863   3.685 -0.4528  0.9398  0.0353
  212MOL0     C28494   8.684   9.936   3.571  0.6951 -1.1731  0.4248
  212MOL0     C28495   8.572  10.027   3.616 -0.0722 -0.7130 -1.0153
  212MOL0     C28496   8.499  10.122   3.518  0.0605  0.3385  1.1581
  212MOL0     C28497   8.435  10.041   3.409 -0.3665  0.1055  0.0745
  212MOL0     C28498   8.390  10.110   3.281 -0.0454 -0.1899  0.5090
  212MOL0     C28499   8.309  10.235   3.306 -0.3493 -0.3770  0.3157
  212MOL0     C28500   8.255  10.293   3.170  0.3895  0.0541  0.7538
  212MOL0     C28501   8.153  10.408   3.204 -0.6613  0.4022 -0.6467
  212MOL0     N28502   8.033  10.367   3.271  0.5048 -0.4250 -0.1632
  212MOL0     C28503   7.919  10.311   3.212  0.6097 -0.3172  0.3280
  212MOL0     C28504   7.836  10.282   3.319  0.3431 -0.1539  0.2336
  212MOL0     C28505   7.693  10.224   3.307 -0.3007  0.9415 -0.2767
  212MOL0     C28506   7.580  10.331   3.306  0.0297  0.1904 -0.8989
  212MOL0     C28507   7.606  10.429   3.197 -0.1508  0.1675 -0.2297
  212MOL0     C28508   7.471  10.489   3.147 -0.8432  1.0965  0.4746
  212MOL0     O28509   7.397  10.537   3.259  0.7096  0.0915 -0.1830
  212MOL0     C28510   7.263  10.535   3.258  0.3237 -1.2078  0.0993
  212MOL0     C28511   7.197  10.560   3.377  0.0563 -1.1301 -0.7196
  212MOL0     C28512   7.057  10.573   3.381 -0.4792 -0.4255 -0.2590
  212MOL0     C28513   7.004  10.617   3.520 -0.3561  0.3471 -0.1474
  212MOL0     C28514   6.976  10.570   3.272  0.1995 -0.5625  0.0864
  212MOL0     C28515   6.826  10.583   3.264  0.1217 -0.9645 -0.3602
  212MOL0     O28516   6.765  10.545   3.149  1.0029 -0.3004  0.2810
  212MOL0     C28517   6.648  10.612   3.131  0.6119  0.6642 -0.4573
  212MOL0     C28518   6.637  10.760   3.126 -0.6787  0.6854  0.5631
  212MOL0     C28519   6.519  10.829   3.117  0.8977 -0.2041  0.2685
  212MOL0     C28520   6.399  10.761   3.089  0.7419 -0.8322 -0.4226
  212MOL0     O28521   6.282  10.825   3.059 -0.3818  0.1959  0.2911
  212MOL0     C28522   6.285  10.918   2.951 -0.7028 -0.2974 -0.1677
  212MOL0     C28523   6.225  11.052   3.005  0.4825  0.1913 -0.0468
  212MOL0     C28524   6.072  11.044   3.025 -0.4332 -0.8554  0.1505
  212MOL0     C28525   6.003  11.035   2.894  0.0006 -0.0517 -0.1387
  212MOL0     C28526   5.850  11.063   2.912  0.0728 -0.8044 -0.5571
  212MOL0     C28527   5.780  11.015   2.784  0.4250  0.2863  0.2046
  212MOL0     C28528   5.636  11.079   2.776  0.7769  0.1534  0.2236
  212MOL0     C28529   5.555  11.005   2.668 -0.8032  0.5299  0.4375
  212MOL0    Cl28530   5.419  11.115   2.656  0.1937  0.5354 -0.3807
  212MOL0     C28531   6.409  10.618   3.084  0.4037 -0.7329 -0.2132
  212MOL0     C28532   6.527  10.547   3.113  0.1879  0.5292  0.0534
  212MOL0     O28533   6.776  10.640   3.357  0.2229 -0.4224  0.1360
  212MOL0     C28534   7.043  10.548   3.152 -0.4191 -0.1761  0.1145
  212MOL0     C28535   7.179  10.539   3.141  0.1778 -0.3105 -0.1334
  212MOL0     N28536   7.890  10.340   3.430  0.1443  0.6173  0.1442
  212MOL0     N28537   8.012  10.379   3.406  0.0775 -0.2158  0.8593
  212MOL0     C28538   8.904   9.690   3.645  0.0152  0.6557  0.4666
  212MOL0     C28539   9.038   9.654   3.623 -0.4250 -0.4712 -0.5280
  212MOL0     C28540   9.443   9.633   3.409  0.3204 -0.0676 -0.1849
  212MOL0     C28541   9.468   9.589   3.282 -0.1709  1.1086 -0.4457
  212MOL0     C28542   9.598   9.555   3.250 -0.2704  0.3108 -0.0320
  212MOL0     C28543   9.703   9.549   3.334  0.2785 -0.0903  0.2283
  212MOL0     O28544   9.813   9.510   3.269 -0.2250  0.2679 -0.1597
  212MOL0     C28545   9.941   9.553   3.325  0.2852 -0.6602  0.2873
  212MOL0     C28546   9.990   9.425   3.397  0.2995  0.1369 -0.4023
  212MOL0     C28547  10.094   9.462   3.508 -0.6633  0.1879  0.1837
  212MOL0     C28548  10.146   9.343   3.582  0.1480  1.3305 -0.1749
  212MOL0     C28549  10.043   9.292   3.669 -0.0942  0.3850  0.3670
  212MOL0     C28550   9.948   9.258   3.731 -0.1426 -0.2006  0.5606
  212MOL0     C28551   9.683   9.575   3.468  0.2694 -0.4841 -0.6169
  212MOL0     C28552   9.551   9.620   3.503 -0.4563 -0.0495  0.0684
  212MOL0     H28553   9.178   9.959   3.638  0.0422 -0.7197 -0.0298
  212MOL0     H28554   8.944  10.021   3.687 -3.3156 -0.9647 -2.8155
  212MOL0     H28555   8.755   9.999   3.517 -0.8710 -0.1565 -0.5237
  212MOL0     H28556   8.648   9.851   3.513 -0.4462 -1.6351  1.7270
  212MOL0     H28557   8.502   9.970   3.678 -1.0500  1.0450 -0.4521
  212MOL0     H28558   8.625  10.101   3.676 -1.5901  0.0117 -0.5178
  212MOL0     H28559   8.420  10.180   3.566 -0.7407  0.8019 -0.6292
  212MOL0     H28560   8.570  10.196   3.479  0.8716 -1.2159 -0.4359
  212MOL0     H28561   8.507   9.966   3.375 -0.7755  0.2116 -1.0924
  212MOL0     H28562   8.351   9.995   3.461  0.8078  1.1446  3.1051
  212MOL0     H28563   8.485  10.144   3.238 -0.4735  1.0788  0.5456
  212MOL0     H28564   8.343  10.046   3.206 -1.1436  0.6586  0.4433
  212MOL0     H28565   8.226  10.215   3.374  0.7143  0.9300  2.0719
  212MOL0     H28566   8.365  10.309   3.363 -0.0613  1.6531 -2.3793
  212MOL0     H28567   8.334  10.338   3.110 -2.4658  0.1488 -3.2704
  212MOL0     H28568   8.216  10.205   3.119  2.0168 -0.1340 -0.2536
  212MOL0     H28569   8.129  10.458   3.110 -3.9928 -0.7601 -0.5365
  212MOL0     H28570   8.206  10.476   3.272  1.9134 -1.7891 -0.2755
  212MOL0     H28571   7.899  10.299   3.106 -0.9770  1.9186  0.3099
  212MOL0     H28572   7.691  10.157   3.221  1.0324 -0.2921  0.6076
  212MOL0     H28573   7.685  10.157   3.393  0.1585 -0.9618 -1.6558
  212MOL0     H28574   7.577  10.371   3.408 -1.2942 -1.1921 -0.3482
  212MOL0     H28575   7.487  10.276   3.292  0.2382 -0.7300  0.9772
  212MOL0     H28576   7.649  10.370   3.116  2.3560  1.6937 -0.1310
  212MOL0     H28577   7.675  10.511   3.219  0.5908 -0.0532 -1.6233
  212MOL0     H28578   7.419  10.408   3.095  1.3099 -0.7934  1.0926
  212MOL0     H28579   7.485  10.569   3.074 -1.0580 -0.9899 -1.9745
  212MOL0     H28580   7.256  10.570   3.468  1.8360  0.1051 -1.9575
  212MOL0     H28581   6.932  10.540   3.547  0.3985 -0.3172 -0.0135
  212MOL0     H28582   7.084  10.618   3.594  3.6804  3.8661 -3.9719
  212MOL0     H28583   6.953  10.715   3.520 -0.4525  0.3448  1.8856
  212MOL0     H28584   6.733  10.811   3.134 -0.8662  0.9393  1.2568
  212MOL0     H28585   6.526  10.937   3.128  1.5189  0.0820 -2.2605
  212MOL0     H28586   6.388  10.936   2.921  0.1458  1.0795  3.1628
  212MOL0     H28587   6.225  10.870   2.873 -0.7408 -2.9868  1.3771
  212MOL0     H28588   6.286  11.078   3.092  0.5139  1.5874 -0.4646
  212MOL0     H28589   6.246  11.138   2.941  3.2199  0.9724  1.7392
  212MOL0     H28590   6.043  11.140   3.070  0.5524 -0.9116  0.9288
  212MOL0     H28591   6.047  10.952   3.078 -0.5863 -1.1741 -0.4702
  212MOL0     H28592   6.050  11.109   2.829  0.1083  1.6689  1.8078
  212MOL0     H28593   6.019  10.930   2.866  3.0942  0.3924 -0.4687
  212MOL0     H28594   5.833  11.171   2.922  2.5678 -0.2976 -1.1727
  212MOL0     H28595   5.818  11.012   3.003 -0.1923  1.7851  0.9128
  212MOL0     H28596   5.842  11.037   2.696  1.8415  0.1285  1.1301
  212MOL0     H28597   5.777  10.906   2.777  0.3027  0.3833 -2.0490
  212MOL0     H28598   5.646  11.186   2.754 -0.4146 -0.1411 -2.0202
  212MOL0     H28599   5.578  11.051   2.865  1.2219 -0.0081  0.4642
  212MOL0     H28600   5.538  10.902   2.701 -0.0803  0.5193  0.8159
  212MOL0     H28601   5.616  11.007   2.577 -1.2359  0.4527  0.1445
  212MOL0     H28602   6.326  10.558   3.048 -0.5469  0.2703  0.2504
  212MOL0     H28603   6.523  10.439   3.117  0.5959  0.5081 -0.0136
  212MOL0     H28604   6.996  10.532   3.055  3.1693 -1.6212 -1.5497
  212MOL0     H28605   7.219  10.526   3.041 -1.6880  1.3967 -1.1760
  212MOL0     H28606   8.830   9.612   3.633 -0.8921  1.5584  0.0674
  212MOL0     H28607   9.050   9.550   3.594 -1.5073 -1.1748  1.3571
  212MOL0     H28608   9.384   9.566   3.217 -1.1791  2.3456  0.3846
  212MOL0     H28609   9.608   9.515   3.149 -1.9509 -5.3592  1.6821
  212MOL0     H28610  10.008   9.596   3.250 -1.0380  1.4665  0.2733
  212MOL0     H28611   9.917   9.634   3.394 -1.3799 -0.1408 -0.8436
  212MOL0     H28612  10.026   9.352   3.324  0.7895  0.6826 -0.7111
  212MOL0     H28613   9.904   9.392   3.456  1.3854 -1.6888  0.2510
  212MOL0     H28614  10.052   9.539   3.573 -2.3116 -1.0205  0.6283
  212MOL0     H28615  10.185   9.492   3.454  0.9831 -2.8806  1.0072
  212MOL0     H28616  10.233   9.358   3.647  0.0445 -2.1290  0.9361
  212MOL0     H28617  10.182   9.277   3.503 -1.7627  0.3217 -0.2622
  212MOL0     H28618   9.860   9.229   3.783 -1.8569 -0.7530 -2.3983
  212MOL0     H28619   9.761   9.575   3.543 -2.1799  1.5750  2.1550
  212MOL0     H28620   9.542   9.644   3.608  1.9743  3.1349 -0.2889
  213MOL0     O28621   9.150   4.439   9.583 -0.2908 -0.7380  0.3735
  213MOL0     C28622   9.242   4.491   9.530 -0.2238 -0.0691 -0.2184
  213MOL0     O28623   9.239   4.536   9.400 -0.5472  0.1015  0.0371
  213MOL0     C28624   9.149   4.481   9.313 -0.0165  0.3928 -0.5535
  213MOL0     C28625   9.177   4.355   9.250  0.7197 -0.2393  0.6646
  213MOL0     C28626   9.084   4.296   9.170  0.2488  0.0543 -0.2229
  213MOL0     C28627   8.957   4.349   9.157  0.1442  0.5977 -0.1077
  213MOL0     O28628   8.857   4.303   9.071 -0.0908  0.2359  0.2588
  213MOL0     C28629   8.856   4.167   9.037  0.3323 -0.8574 -0.0546
  213MOL0     C28630   8.764   4.094   9.132  1.0184  0.4533  0.3686
  213MOL0     C28631   8.617   4.137   9.115 -0.3969 -0.5471  0.1000
  213MOL0     C28632   8.524   4.039   9.182 -0.6514 -0.1805 -0.6612
  213MOL0     C28633   8.377   4.064   9.160 -0.0460  0.3198 -0.5182
  213MOL0     C28634   8.319   4.178   9.251  0.7232  0.5433 -0.2759
  213MOL0     C28635   8.160   4.168   9.251  0.4434 -0.2278  0.6963
  213MOL0     C28636   8.099   4.049   9.329 -0.0831  0.6804 -0.1470
  213MOL0     N28637   7.968   4.088   9.382 -0.6865  0.4335  0.5679
  213MOL0     C28638   7.866   4.142   9.303  0.7816  0.8085  0.4357
  213MOL0     C28639   7.750   4.138   9.381 -0.2884 -0.0236 -0.4347
  213MOL0     C28640   7.612   4.185   9.341 -0.0019  0.5675 -0.3224
  213MOL0     C28641   7.525   4.260   9.445  0.0505  0.7139 -0.3503
  213MOL0     C28642   7.388   4.270   9.384  1.0901  0.0390 -0.6554
  213MOL0     C28643   7.288   4.343   9.472 -0.5171 -0.8845  0.2426
  213MOL0     O28644   7.190   4.419   9.396 -0.3082  0.5190  0.2105
  213MOL0     C28645   7.063   4.373   9.397  0.0173 -0.4928  0.0087
  213MOL0     C28646   6.996   4.331   9.514  0.2139  0.1555  0.1896
  213MOL0     C28647   6.858   4.313   9.523  0.2042 -0.0016 -0.2294
  213MOL0     C28648   6.795   4.251   9.647  0.6944 -0.2615 -0.0464
  213MOL0     C28649   6.787   4.360   9.409  0.0329  0.4366  1.0217
  213MOL0     C28650   6.638   4.376   9.400  0.3153  0.5980  0.0178
  213MOL0     O28651   6.584   4.380   9.269  0.1079  0.0796 -0.6219
  213MOL0     C28652   6.451   4.360   9.248  0.2862  0.1484  0.4625
  213MOL0     C28653   6.361   4.452   9.196  0.8072  0.3901  0.4247
  213MOL0     C28654   6.226   4.413   9.180  0.0908 -0.4356  0.5485
  213MOL0     C28655   6.179   4.288   9.214 -0.1757  0.7422  0.9201
  213MOL0     O28656   6.050   4.244   9.218 -0.2793 -0.1464  0.2584
  213MOL0     C28657   5.956   4.351   9.219  0.0297  0.2893  0.5290
  213MOL0     C28658   5.822   4.279   9.228 -1.4587  0.2910 -0.4157
  213MOL0     C28659   5.797   4.176   9.341 -0.0127  0.0665  0.1912
  213MOL0     C28660   5.808   4.222   9.485 -0.3232  0.1386 -0.4929
  213MOL0     C28661   5.690   4.307   9.540  0.5568  0.2045  0.0829
  213MOL0     C28662   5.728   4.397   9.655 -0.1962 -0.3868  0.5110
  213MOL0     C28663   5.595   4.465   9.708 -0.6156 -0.0403  0.1057
  213MOL0     C28664   5.615   4.511   9.855 -0.4111  0.2252  0.3282
  213MOL0    Cl28665   5.522   4.664   9.879  0.6647 -0.3701 -0.1993
  213MOL0     C28666   6.274   4.191   9.252 -0.5963 -0.2117  0.0294
  213MOL0     C28667   6.405   4.229   9.264 -0.4689 -0.6054 -0.8870
  213MOL0     O28668   6.572   4.382   9.505 -0.0836  0.3521  0.4305
  213MOL0     C28669   6.856   4.394   9.295  0.0183  0.3886  0.1307
  213MOL0     C28670   6.994   4.399   9.286  0.2702  0.1253  0.2726
  213MOL0     N28671   7.797   4.098   9.509  0.1293 -0.1344  0.1992
  213MOL0     N28672   7.925   4.072   9.511 -0.5021  0.4718  0.5728
  213MOL0     C28673   8.931   4.461   9.223  0.3027 -1.1867  0.4294
  213MOL0     C28674   9.024   4.533   9.299  0.2193 -0.0818 -0.5250
  213MOL0     C28675   9.363   4.522   9.601 -0.3678 -0.1682  0.6818
  213MOL0     C28676   9.367   4.501   9.738 -0.5750 -0.2263 -1.0969
  213MOL0     C28677   9.466   4.558   9.815  0.1212  0.2167  0.1507
  213MOL0     C28678   9.561   4.647   9.757 -0.2671  1.0773  0.1682
  213MOL0     O28679   9.652   4.706   9.846  0.7580  0.0623  0.0756
  213MOL0     C28680   9.779   4.747   9.806 -0.8428 -0.7157  0.0478
  213MOL0     C28681   9.859   4.627   9.753  0.4884 -0.6502 -0.7598
  213MOL0     C28682   9.856   4.518   9.867 -0.7624 -0.9143 -0.5459
  213MOL0     C28683   9.956   4.405   9.874  0.3913 -0.1759 -0.0358
  213MOL0     C28684  10.094   4.456   9.853  0.1249 -0.2121 -0.3244
  213MOL0     C28685  10.202   4.508   9.823 -0.9677 -0.7762 -0.0473
  213MOL0     C28686   9.559   4.666   9.613 -0.5274  0.1847  0.0923
  213MOL0     C28687   9.457   4.607   9.541 -0.8870 -0.5833 -0.1671
  213MOL0     H28688   9.277   4.316   9.270 -0.2357 -1.2371  4.2386
  213MOL0     H28689   9.128   4.212   9.116  2.6062  0.2397  1.2907
  213MOL0     H28690   8.817   4.170   8.935 -0.9194 -0.5416  0.4074
  213MOL0     H28691   8.955   4.120   9.036  1.5149  1.3525  2.1416
  213MOL0     H28692   8.778   3.988   9.108  0.7097 -0.1166  2.4778
  213MOL0     H28693   8.806   4.113   9.232  2.0752 -0.4478  0.1113
  213MOL0     H28694   8.614   4.234   9.165 -0.1458 -0.4728 -0.0255
  213MOL0     H28695   8.587   4.136   9.010 -1.5651 -1.7314  0.4141
  213MOL0     H28696   8.548   3.938   9.148  1.0676  0.0463 -0.2189
  213MOL0     H28697   8.553   4.044   9.287 -0.8833 -0.6060 -0.5780
  213MOL0     H28698   8.361   4.081   9.053 -0.0284 -2.4459 -1.0360
  213MOL0     H28699   8.320   3.973   9.183  2.7066 -1.1476  1.1175
  213MOL0     H28700   8.365   4.175   9.351 -2.2377 -2.8538  1.1892
  213MOL0     H28701   8.333   4.278   9.211 -2.6905  0.4090 -2.1076
  213MOL0     H28702   8.127   4.264   9.292 -1.6081  0.6814 -2.6857
  213MOL0     H28703   8.125   4.166   9.148 -0.0072  1.0813  0.8078
  213MOL0     H28704   8.174   4.038   9.408  0.6810  0.4724 -0.8917
  213MOL0     H28705   8.090   3.960   9.266 -3.0457  0.6219  0.2192
  213MOL0     H28706   7.860   4.180   9.202 -2.8664  2.3263  1.0908
  213MOL0     H28707   7.623   4.252   9.255  0.7557 -2.9071 -3.1635
  213MOL0     H28708   7.555   4.100   9.305 -1.3930  0.9297  0.9356
  213MOL0     H28709   7.555   4.361   9.474  2.9763 -0.1802  0.0510
  213MOL0     H28710   7.516   4.198   9.535  1.2763  0.4573 -0.3836
  213MOL0     H28711   7.346   4.171   9.362  0.8866 -0.0810  0.2459
  213MOL0     H28712   7.382   4.319   9.286 -4.1977  0.0578 -0.6300
  213MOL0     H28713   7.336   4.417   9.537 -3.1537  2.9571 -1.7776
  213MOL0     H28714   7.246   4.267   9.539 -1.8259  0.6497  1.2443
  213MOL0     H28715   7.066   4.293   9.588  1.9788 -1.2385 -2.0394
  213MOL0     H28716   6.740   4.327   9.702 -0.2091 -1.4842  0.7926
  213MOL0     H28717   6.719   4.178   9.617 -0.7626  1.9705 -2.1301
  213MOL0     H28718   6.861   4.196   9.716  1.2469 -2.4354 -2.1789
  213MOL0     H28719   6.396   4.552   9.173 -0.3772  0.8585  0.6002
  213MOL0     H28720   6.169   4.497   9.142  0.2134 -0.7886 -0.4494
  213MOL0     H28721   5.961   4.422   9.301 -1.8754  1.0869  0.0224
  213MOL0     H28722   5.975   4.410   9.128  4.5567  0.5812  1.4600
  213MOL0     H28723   5.751   4.361   9.242 -2.7262 -0.6705 -0.9587
  213MOL0     H28724   5.824   4.228   9.132 -1.2002 -0.7280  0.1096
  213MOL0     H28725   5.875   4.101   9.330 -0.0903  0.0537 -0.2853
  213MOL0     H28726   5.697   4.135   9.323 -0.7489  2.1796 -0.8637
  213MOL0     H28727   5.818   4.132   9.547 -0.3247  2.7280  3.6912
  213MOL0     H28728   5.900   4.279   9.502  0.4690 -1.9927  3.8890
  213MOL0     H28729   5.605   4.247   9.575  1.6087 -0.9814  0.6910
  213MOL0     H28730   5.647   4.371   9.462  0.9766 -2.5147 -2.6016
  213MOL0     H28731   5.778   4.345   9.736 -2.1227 -2.5871  0.4005
  213MOL0     H28732   5.790   4.477   9.613 -2.1386  1.5845  1.1783
  213MOL0     H28733   5.513   4.393   9.711  1.4008 -2.4730  2.4713
  213MOL0     H28734   5.571   4.551   9.645  2.2204 -0.2235 -1.3524
  213MOL0     H28735   5.720   4.522   9.884  0.2208 -1.4430 -1.1721
  213MOL0     H28736   5.576   4.436   9.923  0.4189  1.9119  2.7903
  213MOL0     H28737   6.238   4.094   9.284  3.4463 -1.0016  3.1420
  213MOL0     H28738   6.480   4.153   9.285  0.9147  1.3199  1.5941
  213MOL0     H28739   6.799   4.436   9.213  0.3248 -0.5165 -0.5588
  213MOL0     H28740   7.041   4.429   9.193  1.0219  0.8434  0.8772
  213MOL0     H28741   8.829   4.498   9.228  0.9540  0.6053  1.1245
  213MOL0     H28742   8.992   4.622   9.352  1.6096  1.0848 -1.5561
  213MOL0     H28743   9.282   4.450   9.784 -0.7265 -0.1805 -1.3280
  213MOL0     H28744   9.463   4.560   9.924  0.7569 -2.4952  0.2833
  213MOL0     H28745   9.775   4.842   9.752  0.1183 -0.0588  1.0800
  213MOL0     H28746   9.838   4.770   9.895  3.0993 -2.2509 -1.8784
  213MOL0     H28747   9.966   4.653   9.748  0.3610 -0.4108 -3.0148
  213MOL0     H28748   9.825   4.588   9.657  3.1574 -1.4004 -1.4822
  213MOL0     H28749   9.762   4.463   9.862 -0.8130 -0.8929  0.0957
  213MOL0     H28750   9.866   4.572   9.962 -0.5147 -1.0074 -0.5190
  213MOL0     H28751   9.929   4.323   9.807  2.5827 -0.1331 -1.0513
  213MOL0     H28752   9.945   4.369   9.977  0.1161  3.3302  1.3171
  213MOL0     H28753  10.276   4.572   9.780 -3.1482  1.6816 -0.4242
  213MOL0     H28754   9.626   4.736   9.565 -0.6470 -0.1662 -0.5945
  213MOL0     H28755   9.447   4.620   9.434 -2.4959 -1.0378 -0.0966
  214MOL0     O28756   2.011   2.825   6.871 -0.2769  0.0650 -0.3370
  214MOL0     C28757   2.114   2.864   6.819 -0.3302  0.6880  0.2347
  214MOL0     O28758   2.120   2.949   6.717  0.7417  0.0806  0.7191
  214MOL0     C28759   2.016   3.018   6.662  0.1257  0.1320 -0.4434
  214MOL0     C28760   1.883   3.018   6.699 -0.5368  0.1847  0.5884
  214MOL0     C28761   1.802   3.110   6.633 -0.3350 -0.1963 -1.1396
  214MOL0     C28762   1.844   3.197   6.544  0.4677  0.0913  0.5474
  214MOL0     O28763   1.745   3.269   6.477 -0.4902 -0.1554  0.1300
  214MOL0     C28764   1.787   3.378   6.380  0.1838  0.1131  0.4820
  214MOL0     C28765   1.830   3.499   6.455 -0.5790 -0.2740 -0.1328
  214MOL0     C28766   1.789   3.642   6.397 -0.4120  0.3865  0.2876
  214MOL0     C28767   1.790   3.749   6.513 -0.9093  0.3490 -1.4420
  214MOL0     C28768   1.721   3.884   6.485 -0.2115  1.2399  0.0888
  214MOL0     C28769   1.574   3.856   6.470  0.2540  0.3926  0.4328
  214MOL0     C28770   1.496   3.990   6.427  0.3975  0.6113 -0.5082
  214MOL0     C28771   1.442   3.999   6.280 -0.5060 -0.0926  0.1763
  214MOL0     N28772   1.361   3.876   6.256  0.0908  0.2964 -0.7392
  214MOL0     C28773   1.373   3.805   6.142  0.1948  0.0326  0.2827
  214MOL0     C28774   1.260   3.734   6.131 -0.4986  0.5648 -0.5066
  214MOL0     C28775   1.224   3.650   6.019 -0.4373  0.2219 -0.4289
  214MOL0     C28776   1.149   3.729   5.910 -0.6545 -0.2346  0.8173
  214MOL0     C28777   1.130   3.653   5.772 -0.0013  0.7942 -0.2346
  214MOL0     C28778   1.011   3.557   5.782 -0.1874  0.4890  0.9765
  214MOL0     O28779   0.904   3.636   5.742  0.1388  0.4593 -0.6756
  214MOL0     C28780   0.777   3.577   5.735 -0.3966  0.0219 -0.6740
  214MOL0     C28781   0.756   3.440   5.735 -0.8363  0.4290  0.1845
  214MOL0     C28782   0.631   3.379   5.703 -0.9765 -0.5905 -0.5871
  214MOL0     C28783   0.626   3.225   5.703  0.3297 -0.3277  0.1594
  214MOL0     C28784   0.523   3.467   5.685 -0.4826 -0.0770 -0.5283
  214MOL0     C28785   0.380   3.425   5.652 -0.6643  0.3740 -0.6605
  214MOL0     O28786   0.337   3.303   5.693  0.3753  0.2456  0.8811
  214MOL0     C28787   0.204   3.270   5.680 -0.5390  0.0167 -0.2379
  214MOL0     C28788   0.097   3.356   5.704 -0.2465 -0.3210  0.1873
  214MOL0     C28789  -0.031   3.309   5.689  0.2135 -0.6168 -0.3059
  214MOL0     C28790  -0.060   3.179   5.653  1.1126  0.0935  0.9445
  214MOL0     O28791  -0.186   3.121   5.654  0.2316  1.0723  0.0270
  214MOL0     C28792  -0.303   3.171   5.724 -0.8062 -0.3938  0.3043
  214MOL0     C28793  -0.364   3.060   5.807  0.0772 -0.3596  0.1195
  214MOL0     C28794  -0.439   2.973   5.718  0.1081  1.1105  0.6242
  214MOL0     C28795  -0.526   2.869   5.794  0.5946  0.4310  0.3184
  214MOL0     C28796  -0.650   2.945   5.862 -0.7925  0.1510  0.2873
  214MOL0     C28797  -0.748   2.843   5.915 -0.7252  0.8278  0.4739
  214MOL0     C28798  -0.831   2.790   5.799 -0.6849  0.8094  0.2357
  214MOL0     C28799  -0.908   2.660   5.834 -0.8573  0.4912  0.5376
  214MOL0    Cl28800  -0.805   2.525   5.779 -0.0544  0.1703 -0.2012
  214MOL0     C28801   0.054   3.102   5.611  0.2548  1.0139 -0.3963
  214MOL0     C28802   0.182   3.144   5.626  1.0845 -0.6514 -0.4623
  214MOL0     O28803   0.313   3.512   5.592  0.2357 -0.3353  0.7460
  214MOL0     C28804   0.544   3.608   5.686  0.4901 -0.3667 -0.9444
  214MOL0     C28805   0.665   3.657   5.723 -0.0267  0.3300 -0.5950
  214MOL0     N28806   1.180   3.772   6.241  0.0450  0.0625  0.4097
  214MOL0     N28807   1.242   3.850   6.322  0.7939  0.2764  0.0586
  214MOL0     C28808   1.982   3.211   6.515 -0.3180  0.5243 -0.0666
  214MOL0     C28809   2.069   3.114   6.568  0.4522 -0.1887 -0.8545
  214MOL0     C28810   2.247   2.816   6.871 -0.6668  0.1324  0.0851
  214MOL0     C28811   2.369   2.855   6.812  0.1965 -0.4756 -0.2828
  214MOL0     C28812   2.498   2.830   6.869 -0.1554 -0.4430  0.7562
  214MOL0     C28813   2.501   2.750   6.982  0.2139 -0.8371 -0.0840
  214MOL0     O28814   2.613   2.711   7.045 -0.5218 -0.5839 -0.3589
  214MOL0     C28815   2.739   2.733   6.974 -0.9288 -0.1970  0.1760
  214MOL0     C28816   2.847   2.677   7.059  0.1458 -0.0833  0.1566
  214MOL0     C28817   2.973   2.664   6.974  0.5376  0.5279 -0.9957
  214MOL0     C28818   3.084   2.611   7.072 -0.2383 -0.6343 -0.5035
  214MOL0     C28819   3.212   2.623   6.999  0.1718 -0.9942 -0.4711
  214MOL0     C28820   3.317   2.638   6.940  0.4238 -0.0963  0.2932
  214MOL0     C28821   2.380   2.697   7.036 -0.0498 -0.4300  0.6994
  214MOL0     C28822   2.256   2.743   6.983  0.9783  0.1664  0.2726
  214MOL0     H28823   1.827   2.954   6.766 -0.0715  0.4227  1.2162
  214MOL0     H28824   1.696   3.113   6.656 -0.1553 -2.6610  0.4747
  214MOL0     H28825   1.868   3.359   6.309  0.2986  0.9150  0.3912
  214MOL0     H28826   1.697   3.393   6.320 -1.2328 -0.4493  2.3800
  214MOL0     H28827   1.790   3.496   6.557  1.5401  1.6414  0.8614
  214MOL0     H28828   1.938   3.505   6.473 -0.2211  2.8659 -2.3582
  214MOL0     H28829   1.855   3.682   6.319 -2.0541 -1.4619 -2.1890
  214MOL0     H28830   1.686   3.640   6.360 -0.5098 -1.4294  0.5959
  214MOL0     H28831   1.748   3.715   6.608  1.6739  0.0248 -0.3410
  214MOL0     H28832   1.895   3.769   6.538 -1.1792 -0.1775  0.2541
  214MOL0     H28833   1.743   3.955   6.565  2.3992  0.0430  0.5762
  214MOL0     H28834   1.752   3.933   6.393 -1.9145  0.4803 -0.9451
  214MOL0     H28835   1.547   3.780   6.395 -3.4409 -0.4343  2.3663
  214MOL0     H28836   1.530   3.826   6.565  1.1223 -1.2900  0.3480
  214MOL0     H28837   1.403   3.991   6.485  0.5219 -0.2378 -0.2726
  214MOL0     H28838   1.541   4.089   6.439 -1.7502  1.5741  0.2450
  214MOL0     H28839   1.529   3.990   6.214 -1.5970  2.5874 -1.8057
  214MOL0     H28840   1.382   4.089   6.263 -3.0780 -1.9981 -1.5122
  214MOL0     H28841   1.456   3.797   6.072 -1.4346  0.2678 -1.7912
  214MOL0     H28842   1.314   3.599   5.983 -0.2065 -1.1235  1.8715
  214MOL0     H28843   1.162   3.569   6.059  2.1351 -0.5826  2.2643
  214MOL0     H28844   1.203   3.823   5.891 -2.3529 -0.0191 -4.3567
  214MOL0     H28845   1.052   3.759   5.950 -0.8063 -0.9299  0.9699
  214MOL0     H28846   1.220   3.594   5.749 -0.7746  0.2965 -2.1425
  214MOL0     H28847   1.121   3.730   5.695 -4.0551 -1.0320 -1.8822
  214MOL0     H28848   0.997   3.515   5.882 -0.2999  0.4530  0.9462
  214MOL0     H28849   1.031   3.480   5.706 -1.3435 -0.8656  1.9921
  214MOL0     H28850   0.840   3.373   5.753 -2.5058 -1.1019  3.0590
  214MOL0     H28851   0.555   3.187   5.629 -0.4386  0.6369  0.3791
  214MOL0     H28852   0.726   3.183   5.688  0.3121  0.1598 -1.4371
  214MOL0     H28853   0.587   3.193   5.801  1.3580  0.2492  0.7790
  214MOL0     H28854   0.127   3.447   5.755  1.5438 -0.8424  0.1146
  214MOL0     H28855  -0.112   3.381   5.697  2.0218  1.4403  0.4602
  214MOL0     H28856  -0.274   3.247   5.797 -2.9948  0.4750  0.3402
  214MOL0     H28857  -0.379   3.220   5.663 -1.1831 -2.8749 -1.3321
  214MOL0     H28858  -0.284   3.012   5.863 -0.3077 -0.0019  1.0086
  214MOL0     H28859  -0.431   3.111   5.878 -1.8184 -2.0112 -0.3885
  214MOL0     H28860  -0.371   2.909   5.661  0.8225  0.9409  1.6439
  214MOL0     H28861  -0.513   3.019   5.651 -0.1255  0.9852  0.7953
  214MOL0     H28862  -0.541   2.786   5.724 -0.4350  0.2129  0.7836
  214MOL0     H28863  -0.475   2.819   5.877  0.6220  0.2265  0.1780
  214MOL0     H28864  -0.694   3.019   5.794  0.9782 -0.8179 -2.0535
  214MOL0     H28865  -0.607   2.993   5.950 -2.0735 -1.3436  1.7954
  214MOL0     H28866  -0.677   2.770   5.955  1.7819  2.8166 -0.0212
  214MOL0     H28867  -0.800   2.885   6.001  0.2807 -1.1995  2.1626
  214MOL0     H28868  -0.767   2.765   5.714 -0.4022  0.2297  0.6161
  214MOL0     H28869  -0.909   2.858   5.764 -1.1400  0.6683  0.9351
  214MOL0     H28870  -1.005   2.653   5.785  0.8695 -0.9045 -3.0631
  214MOL0     H28871  -0.905   2.656   5.943 -3.1202  1.7711  0.7220
  214MOL0     H28872   0.040   3.003   5.570 -0.5397  0.7257  0.5398
  214MOL0     H28873   0.258   3.075   5.591  0.7214 -2.0425  1.3628
  214MOL0     H28874   0.473   3.684   5.655  0.8165  1.2698  2.0226
  214MOL0     H28875   0.668   3.766   5.727  1.3628  0.3009 -0.0213
  214MOL0     H28876   2.017   3.288   6.446 -0.8875  0.5584 -0.3199
  214MOL0     H28877   2.175   3.129   6.554  0.4843  0.4786  0.0604
  214MOL0     H28878   2.368   2.913   6.720 -1.3505  0.4313  0.2755
  214MOL0     H28879   2.580   2.869   6.809 -3.1865  0.7359 -2.9886
  214MOL0     H28880   2.733   2.677   6.880  0.0392  1.0235 -0.6373
  214MOL0     H28881   2.753   2.838   6.948 -1.3839 -0.2814 -0.4493
  214MOL0     H28882   2.822   2.573   7.084  0.6652 -0.1289  0.4940
  214MOL0     H28883   2.868   2.730   7.152 -0.0106 -1.3518  0.9377
  214MOL0     H28884   3.009   2.760   6.936  0.0359  0.3989 -1.8150
  214MOL0     H28885   2.963   2.591   6.893  0.7375  0.7482 -1.2194
  214MOL0     H28886   3.070   2.504   7.087  0.2819 -0.5615  0.6048
  214MOL0     H28887   3.092   2.659   7.170  2.2761  0.2139 -1.0368
  214MOL0     H28888   3.414   2.655   6.897 -0.1967  1.2501 -0.6458
  214MOL0     H28889   2.378   2.650   7.134 -1.6849 -3.1472 -0.5003
  214MOL0     H28890   2.171   2.694   7.028  1.3043 -1.6642 -0.9882
  215MOL0     O28891   3.354  10.232   7.115  0.1536  0.0105 -0.1579
  215MOL0     C28892   3.308  10.196   7.005  0.4988 -0.2191  0.6191
  215MOL0     O28893   3.174  10.173   6.980 -1.1351 -0.5015  0.8645
  215MOL0     C28894   3.086  10.177   7.088 -0.7179 -0.3483  0.4545
  215MOL0     C28895   2.991  10.277   7.103 -0.4847 -0.5510 -0.1122
  215MOL0     C28896   2.892  10.265   7.203 -0.2777  0.0711  0.2861
  215MOL0     C28897   2.893  10.156   7.287 -0.2532 -0.3355 -1.0613
  215MOL0     O28898   2.803  10.158   7.386 -0.0409 -0.1841  0.1153
  215MOL0     C28899   2.779  10.050   7.471 -1.0854  0.3577 -0.5230
  215MOL0     C28900   2.670  10.101   7.573  0.9854  0.1757  0.5394
  215MOL0     C28901   2.708  10.221   7.661  0.3053 -0.0366  0.6285
  215MOL0     C28902   2.586  10.287   7.735 -0.8971  0.2055 -0.0112
  215MOL0     C28903   2.532  10.199   7.846 -0.6397 -0.3701  0.2101
  215MOL0     C28904   2.450  10.278   7.945 -0.5985  0.2722 -0.0034
  215MOL0     C28905   2.384  10.201   8.064 -0.1130  0.9311 -0.4774
  215MOL0     C28906   2.483  10.110   8.138 -0.2540  0.1457  0.5624
  215MOL0     N28907   2.424  10.079   8.267  0.2971 -0.1613 -0.2034
  215MOL0     C28908   2.398   9.952   8.324 -0.1883 -1.0277  0.3440
  215MOL0     C28909   2.346   9.981   8.442  0.6808  0.1082 -0.8630
  215MOL0     C28910   2.276   9.890   8.539 -0.3624 -1.1225  0.2454
  215MOL0     C28911   2.161   9.815   8.485 -0.2471 -1.1695 -0.2166
  215MOL0     C28912   2.059   9.921   8.433  0.4343  0.5287 -0.1563
  215MOL0     C28913   1.920   9.859   8.430 -0.3287  0.4319  0.6448
  215MOL0     O28914   1.916   9.761   8.323  0.1848 -0.2820 -0.4309
  215MOL0     C28915   1.790   9.717   8.301 -0.0014  0.1250 -0.8703
  215MOL0     C28916   1.792   9.618   8.200 -0.4366 -0.2554  0.6639
  215MOL0     C28917   1.678   9.547   8.173 -0.0480 -0.1374 -0.8149
  215MOL0     C28918   1.695   9.421   8.093 -1.3158  0.2330  0.1760
  215MOL0     C28919   1.558   9.591   8.232  0.6275 -0.2944 -0.4802
  215MOL0     C28920   1.432   9.521   8.216  0.1389 -0.1963  1.2962
  215MOL0     O28921   1.341   9.540   8.316  0.4854 -0.0755  0.4877
  215MOL0     C28922   1.219   9.497   8.287 -0.8747  0.6952 -0.4469
  215MOL0     C28923   1.122   9.579   8.222 -0.2529 -0.3186  0.2955
  215MOL0     C28924   0.995   9.532   8.190 -0.0142  0.5865  0.5134
  215MOL0     C28925   0.964   9.395   8.206 -0.4540  0.0313 -0.0199
  215MOL0     O28926   0.842   9.338   8.178 -0.2387 -0.1791 -0.2864
  215MOL0     C28927   0.805   9.204   8.217  0.0715  0.3847  0.0823
  215MOL0     C28928   0.661   9.163   8.169 -0.2109  0.8736  0.3916
  215MOL0     C28929   0.553   9.255   8.238  0.7070  0.6222 -0.5333
  215MOL0     C28930   0.419   9.239   8.173  0.5426 -0.3105  0.1441
  215MOL0     C28931   0.304   9.301   8.253 -0.1682  0.7122  0.4064
  215MOL0     C28932   0.166   9.268   8.191 -0.3073  0.1936 -0.6531
  215MOL0     C28933   0.060   9.367   8.242  0.3842 -0.0709  0.4663
  215MOL0     C28934  -0.019   9.417   8.125  0.7285  0.8321  0.2175
  215MOL0    Cl28935   0.068   9.548   8.061 -0.1944  0.1635  0.6125
  215MOL0     C28936   1.064   9.310   8.267 -0.1814 -0.3158  0.5979
  215MOL0     C28937   1.187   9.359   8.311 -0.0591 -0.7559 -0.4773
  215MOL0     O28938   1.404   9.476   8.110 -0.6111 -0.1700 -0.3641
  215MOL0     C28939   1.558   9.695   8.326  0.2294  0.0412  0.6495
  215MOL0     C28940   1.669   9.764   8.361 -0.2504 -0.4617 -0.0944
  215MOL0     N28941   2.367  10.116   8.471 -0.1656 -0.1331  0.4359
  215MOL0     N28942   2.412  10.175   8.364  1.4086  0.5818 -0.0087
  215MOL0     C28943   2.987  10.048   7.263 -1.1932  0.5490  0.0498
  215MOL0     C28944   3.075  10.058   7.159  0.1318 -0.5985  0.8104
  215MOL0     C28945   3.412  10.175   6.899  0.1891 -0.9358 -0.3811
  215MOL0     C28946   3.408  10.086   6.787 -0.1413 -0.1207 -0.8773
  215MOL0     C28947   3.520  10.061   6.701 -0.0478 -0.0217  0.1333
  215MOL0     C28948   3.637  10.113   6.735 -0.0498 -1.1147 -0.3494
  215MOL0     O28949   3.744  10.061   6.657  0.4622  1.1037  0.1180
  215MOL0     C28950   3.882  10.109   6.686 -0.1473  0.3381  0.0470
  215MOL0     C28951   3.981  10.045   6.589  0.0564  0.7934  0.0624
  215MOL0     C28952   4.129  10.032   6.633 -0.2915  0.6716 -0.2687
  215MOL0     C28953   4.207   9.973   6.515 -1.1753  0.2476  0.1396
  215MOL0     C28954   4.347   9.949   6.559 -0.6962  0.0141 -0.0239
  215MOL0     C28955   4.458   9.933   6.612 -0.2460 -0.1334 -0.8168
  215MOL0     C28956   3.643  10.203   6.846  0.1394  0.7140  0.0006
  215MOL0     C28957   3.537  10.238   6.921  0.6487 -0.7119 -0.4150
  215MOL0     H28958   2.994  10.364   7.038  0.1571 -0.2919  0.2603
  215MOL0     H28959   2.809  10.333   7.217 -0.9220 -0.4379 -0.9311
  215MOL0     H28960   2.747   9.962   7.416 -3.3883 -0.8757  2.4692
  215MOL0     H28961   2.872  10.019   7.519 -0.6346 -2.2222 -2.8810
  215MOL0     H28962   2.590  10.136   7.506  1.9096 -3.3270 -2.7514
  215MOL0     H28963   2.625  10.020   7.631 -1.0614  0.8165 -0.0770
  215MOL0     H28964   2.784  10.195   7.735 -1.3830 -0.4181  2.2941
  215MOL0     H28965   2.747  10.290   7.585 -0.4913 -0.3559 -0.0806
  215MOL0     H28966   2.626  10.381   7.774  1.5392 -0.7063 -0.1570
  215MOL0     H28967   2.507  10.318   7.667 -1.3379 -2.1667 -0.6825
  215MOL0     H28968   2.468  10.121   7.804  0.3820 -0.5400 -1.0926
  215MOL0     H28969   2.620  10.145   7.881  0.0209 -0.3456 -1.3419
  215MOL0     H28970   2.510  10.355   7.995  1.2786 -1.8269  1.1001
  215MOL0     H28971   2.369  10.318   7.882  0.3038  1.1452 -0.6291
  215MOL0     H28972   2.340  10.265   8.141  3.9153  1.4281  1.6570
  215MOL0     H28973   2.307  10.136   8.022 -0.0516  0.3579  0.2625
  215MOL0     H28974   2.574  10.166   8.161  0.5541 -1.2755  0.9197
  215MOL0     H28975   2.521  10.026   8.081  0.5231  1.1256 -0.3951
  215MOL0     H28976   2.408   9.856   8.275  1.2546  0.3896 -2.3761
  215MOL0     H28977   2.345   9.821   8.590 -1.2416  0.0851  3.2512
  215MOL0     H28978   2.242   9.950   8.623  0.2545 -1.2513  0.5990
  215MOL0     H28979   2.133   9.743   8.562 -0.3806  0.5061  1.3503
  215MOL0     H28980   2.196   9.766   8.393 -1.1632  0.6113 -1.5751
  215MOL0     H28981   2.089   9.979   8.346 -1.2786  0.5024 -0.8067
  215MOL0     H28982   2.056  10.000   8.509 -1.1754 -0.0616  0.4350
  215MOL0     H28983   1.854   9.943   8.408 -0.1275 -0.2903 -3.5020
  215MOL0     H28984   1.891   9.799   8.517 -2.3715  0.0399 -0.2620
  215MOL0     H28985   1.892   9.588   8.168  0.3369  0.2875  2.4259
  215MOL0     H28986   1.651   9.429   7.993 -0.2359  1.2926 -0.2410
  215MOL0     H28987   1.796   9.380   8.082 -0.8010  1.3444  0.5718
  215MOL0     H28988   1.639   9.340   8.141  0.4500 -0.2926  1.4784
  215MOL0     H28989   1.136   9.683   8.194 -0.7001  0.1141  1.5775
  215MOL0     H28990   0.913   9.587   8.145  1.2155 -0.2783 -3.1613
  215MOL0     H28991   0.881   9.141   8.169 -0.6606  0.7295 -1.6197
  215MOL0     H28992   0.810   9.186   8.325  0.2184 -0.7864 -0.1105
  215MOL0     H28993   0.657   9.165   8.059 -4.1423  4.8660  0.3133
  215MOL0     H28994   0.635   9.059   8.189 -0.2450  0.8419  0.1942
  215MOL0     H28995   0.577   9.361   8.250  0.0474  0.6291  0.9636
  215MOL0     H28996   0.548   9.226   8.343 -2.6103 -2.3222 -1.3120
  215MOL0     H28997   0.423   9.284   8.073  0.5587 -0.2837  0.1558
  215MOL0     H28998   0.397   9.135   8.150 -0.7935  0.3528 -1.8530
  215MOL0     H28999   0.315   9.410   8.251  0.2877  0.6798  1.0219
  215MOL0     H29000   0.299   9.255   8.352 -0.1088 -1.2504 -0.4603
  215MOL0     H29001   0.179   9.267   8.082  0.1193 -0.2935 -0.5961
  215MOL0     H29002   0.139   9.166   8.222  4.6104 -0.9559  0.6192
  215MOL0     H29003   0.102   9.453   8.295 -2.4769  2.8988 -1.7261
  215MOL0     H29004  -0.011   9.318   8.309  0.9347 -0.0493  1.0736
  215MOL0     H29005  -0.117   9.454   8.157 -0.3636  0.8671 -2.8095
  215MOL0     H29006  -0.034   9.342   8.047 -0.9093  1.2125  0.1228
  215MOL0     H29007   1.049   9.206   8.295 -0.8336 -0.3301  0.2153
  215MOL0     H29008   1.264   9.301   8.362 -0.0203 -0.5206 -0.2652
  215MOL0     H29009   1.462   9.737   8.352  0.7406  1.2902  0.5703
  215MOL0     H29010   1.658   9.851   8.425  1.4390  0.4319 -0.9454
  215MOL0     H29011   3.009   9.953   7.311  1.6048  1.3806  0.5780
  215MOL0     H29012   3.145   9.981   7.129 -2.2007 -1.8823 -1.8096
  215MOL0     H29013   3.314  10.036   6.767  0.1682 -2.0854  2.0424
  215MOL0     H29014   3.498   9.999   6.615 -1.9608  1.3063 -0.3974
  215MOL0     H29015   3.893  10.218   6.688 -4.0375  0.9709 -2.3038
  215MOL0     H29016   3.909  10.076   6.786 -2.1740 -1.8539 -0.0369
  215MOL0     H29017   3.978  10.106   6.499 -1.7175 -2.4082 -2.2436
  215MOL0     H29018   3.939   9.945   6.575  0.3380  0.1571  3.0173
  215MOL0     H29019   4.138   9.969   6.722  1.6473  1.5774  0.2198
  215MOL0     H29020   4.173  10.129   6.657  0.4431 -0.4197  3.5290
  215MOL0     H29021   4.214  10.032   6.423  2.6720 -0.5226 -0.2439
  215MOL0     H29022   4.166   9.876   6.485  1.4650 -0.7634 -0.4522
  215MOL0     H29023   4.548   9.932   6.671 -0.9811 -1.2038  0.3298
  215MOL0     H29024   3.739  10.250   6.865  0.7477 -0.5092  0.1151
  215MOL0     H29025   3.557  10.310   6.999  0.7379 -0.4555 -0.6729
  216MOL0     O29026   3.625   5.621   3.453 -0.1567 -0.2893 -0.5557
  216MOL0     C29027   3.538   5.630   3.374 -0.3141  0.6111  0.8200
  216MOL0     O29028   3.415   5.569   3.381  0.1400  0.4329 -0.4457
  216MOL0     C29029   3.404   5.472   3.471  0.4534  0.3867 -0.1677
  216MOL0     C29030   3.412   5.342   3.426 -1.3700  0.1398  1.3276
  216MOL0     C29031   3.410   5.231   3.509 -0.3817 -0.5474 -1.0174
  216MOL0     C29032   3.413   5.257   3.649 -0.2257  0.2084  0.5994
  216MOL0     O29033   3.435   5.157   3.744  0.2752  1.0190  0.4033
  216MOL0     C29034   3.382   5.026   3.719  0.2710 -0.1365  0.5554
  216MOL0     C29035   3.225   5.027   3.686  0.3386  0.3729  0.1046
  216MOL0     C29036   3.138   4.991   3.815 -0.4615 -0.8627  0.8042
  216MOL0     C29037   3.124   5.115   3.907 -0.1646 -0.9179 -0.2790
  216MOL0     C29038   3.047   5.080   4.036 -0.4702  0.2283 -0.3947
  216MOL0     C29039   3.055   5.192   4.150  0.0483  0.1343  0.2789
  216MOL0     C29040   3.019   5.340   4.107  0.6523  0.7870  0.0931
  216MOL0     C29041   2.881   5.352   4.029  0.1778 -0.5109 -0.2031
  216MOL0     N29042   2.774   5.308   4.108 -0.1832  0.2126 -0.2269
  216MOL0     C29043   2.689   5.387   4.184 -0.9878  0.3459 -0.5399
  216MOL0     C29044   2.616   5.300   4.251  0.3405  0.4407 -0.0155
  216MOL0     C29045   2.516   5.358   4.354  0.1167  0.2452  1.0687
  216MOL0     C29046   2.393   5.268   4.383 -0.1058 -0.7754 -0.2920
  216MOL0     C29047   2.303   5.259   4.254  0.1134  0.2298 -0.8461
  216MOL0     C29048   2.175   5.173   4.287 -0.2276 -0.9860  0.0960
  216MOL0     O29049   2.175   5.045   4.227  0.1234  0.5463  0.2029
  216MOL0     C29050   2.192   4.941   4.311  0.4207  0.2600  0.3731
  216MOL0     C29051   2.316   4.887   4.343  0.6456  0.0459  0.3717
  216MOL0     C29052   2.320   4.777   4.440 -0.0164 -0.6047 -0.8279
  216MOL0     C29053   2.462   4.729   4.469  0.0179  0.2474  0.5669
  216MOL0     C29054   2.204   4.724   4.493  0.4885  0.0590  1.0444
  216MOL0     C29055   2.197   4.621   4.594  0.3168  0.2779 -0.0184
  216MOL0     O29056   2.068   4.576   4.622  0.7435 -0.6149 -0.2924
  216MOL0     C29057   2.048   4.481   4.721  0.0840 -0.2568 -0.1452
  216MOL0     C29058   1.961   4.499   4.824  0.0907  0.2713 -0.1989
  216MOL0     C29059   1.940   4.400   4.923 -0.9044  0.2173 -0.0859
  216MOL0     C29060   1.997   4.270   4.914 -0.4946 -0.2438  0.3521
  216MOL0     O29061   1.977   4.181   5.011  0.1102 -0.0416 -0.0937
  216MOL0     C29062   1.964   4.043   4.966 -0.9391  0.4963  0.4926
  216MOL0     C29063   1.865   3.958   5.052  0.0437 -0.4189 -0.5096
  216MOL0     C29064   1.908   3.967   5.205  0.2914  0.6097  0.3813
  216MOL0     C29065   1.826   3.862   5.295  0.1004  0.3711 -0.6717
  216MOL0     C29066   1.670   3.890   5.305 -0.4186  0.8141  0.6023
  216MOL0     C29067   1.649   4.000   5.406  0.0228 -0.9289 -0.4847
  216MOL0     C29068   1.504   4.054   5.392  0.5850  0.3439 -0.2321
  216MOL0     C29069   1.502   4.176   5.299  0.1052  0.9749  0.3275
  216MOL0    Cl29070   1.345   4.207   5.216  0.4383 -0.4960  0.1366
  216MOL0     C29071   2.076   4.251   4.800  0.6145 -0.0975  0.0234
  216MOL0     C29072   2.102   4.351   4.705  0.3648  0.7793  0.1383
  216MOL0     O29073   2.303   4.571   4.634  0.1066  0.0884 -0.5404
  216MOL0     C29074   2.083   4.791   4.457  0.2824  0.9600  0.0314
  216MOL0     C29075   2.080   4.891   4.369  0.4126  0.6052 -0.1380
  216MOL0     N29076   2.657   5.170   4.225  0.4938  0.5205 -0.2356
  216MOL0     N29077   2.734   5.175   4.118 -0.3412 -0.3734  0.1332
  216MOL0     C29078   3.434   5.392   3.691 -1.0027 -0.7558 -0.6137
  216MOL0     C29079   3.414   5.503   3.606  0.1940  0.1037 -0.8190
  216MOL0     C29080   3.554   5.714   3.250 -0.4107  0.6628  0.2408
  216MOL0     C29081   3.450   5.735   3.155 -0.0209 -0.1370 -0.0931
  216MOL0     C29082   3.477   5.806   3.039 -0.7965 -0.9566 -0.4834
  216MOL0     C29083   3.608   5.856   3.016  0.4835 -0.3818 -0.5071
  216MOL0     O29084   3.627   5.925   2.898  0.5476 -0.5874 -0.6313
  216MOL0     C29085   3.743   5.993   2.860  0.4542 -0.5870  0.0976
  216MOL0     C29086   3.823   5.931   2.743 -0.5044 -0.5923  1.0019
  216MOL0     C29087   3.887   5.806   2.798  0.5414  0.6457 -0.2532
  216MOL0     C29088   3.991   5.734   2.715 -0.5629 -0.5183  0.1674
  216MOL0     C29089   3.920   5.656   2.621  0.2882  0.5688  0.3729
  216MOL0     C29090   3.861   5.591   2.543 -0.8252  0.3861  0.0165
  216MOL0     C29091   3.721   5.820   3.098  0.0046  0.3368  1.1191
  216MOL0     C29092   3.687   5.750   3.212 -0.6093  0.7358  1.0751
  216MOL0     H29093   3.407   5.318   3.320  1.1859 -0.0956  1.2056
  216MOL0     H29094   3.420   5.127   3.477  1.6695 -0.2223 -1.6027
  216MOL0     H29095   3.436   4.983   3.634 -1.2999 -0.9358 -0.0866
  216MOL0     H29096   3.398   4.962   3.807 -1.1610 -1.2859  0.0228
  216MOL0     H29097   3.186   5.118   3.641 -2.6189 -1.3819 -1.1913
  216MOL0     H29098   3.194   4.947   3.619  2.1753 -0.7898  0.5495
  216MOL0     H29099   3.035   4.967   3.787 -0.7928 -0.8286  1.9569
  216MOL0     H29100   3.169   4.897   3.862 -0.2277 -1.5396 -0.6345
  216MOL0     H29101   3.220   5.164   3.924 -0.3960 -0.5960  0.1290
  216MOL0     H29102   3.059   5.183   3.850 -1.9041 -0.2748  2.2900
  216MOL0     H29103   2.943   5.051   4.013 -0.4909  0.7312 -0.9590
  216MOL0     H29104   3.112   4.997   4.067  0.0924 -1.4055 -5.1486
  216MOL0     H29105   2.987   5.161   4.230 -1.5662  0.8908 -0.7540
  216MOL0     H29106   3.155   5.191   4.194 -0.8466  0.6408  2.4704
  216MOL0     H29107   3.011   5.405   4.194 -2.4291  1.0029 -0.2320
  216MOL0     H29108   3.100   5.371   4.041  1.6781 -0.8471  0.5224
  216MOL0     H29109   2.889   5.284   3.943  2.7148 -0.8273  0.2192
  216MOL0     H29110   2.869   5.457   4.003 -0.4106 -1.0124 -2.1486
  216MOL0     H29111   2.684   5.496   4.185 -1.9543  0.3418 -2.0883
  216MOL0     H29112   2.566   5.375   4.450 -2.2711  0.4596  2.3377
  216MOL0     H29113   2.480   5.457   4.326 -1.5512 -0.2965  1.1962
  216MOL0     H29114   2.343   5.306   4.473  1.8427  1.0226  0.1221
  216MOL0     H29115   2.430   5.165   4.390  4.0367  0.3684 -2.1619
  216MOL0     H29116   2.362   5.212   4.175 -0.2620  1.5010 -1.9030
  216MOL0     H29117   2.270   5.357   4.219 -2.7085 -0.6685 -0.9074
  216MOL0     H29118   2.090   5.230   4.248  1.4373  2.1138  0.6898
  216MOL0     H29119   2.158   5.159   4.394 -2.9538 -2.0051 -0.3841
  216MOL0     H29120   2.404   4.933   4.299  0.3661 -0.2267 -0.4908
  216MOL0     H29121   2.492   4.756   4.570  1.0792 -1.1583  0.6556
  216MOL0     H29122   2.456   4.620   4.461 -1.5569  0.3816 -0.4939
  216MOL0     H29123   2.537   4.761   4.396  0.6128  0.1982  1.1450
  216MOL0     H29124   1.909   4.594   4.828 -0.5016  0.0535 -1.8501
  216MOL0     H29125   1.873   4.414   5.006  0.1595  1.3833  0.6162
  216MOL0     H29126   1.911   4.035   4.871  1.4297 -3.9869 -0.7421
  216MOL0     H29127   2.065   4.005   4.949  0.0851  2.4171  1.8599
  216MOL0     H29128   1.763   3.996   5.048  0.1603  0.3727  2.0535
  216MOL0     H29129   1.877   3.859   5.007  1.0563 -1.1625  1.2894
  216MOL0     H29130   1.878   4.067   5.240  0.6582  0.6432  0.6137
  216MOL0     H29131   2.017   3.968   5.220  0.6474  2.2493 -1.7877
  216MOL0     H29132   1.826   3.761   5.254 -2.1866  0.5293 -1.1410
  216MOL0     H29133   1.864   3.862   5.398  1.0780 -0.8580 -1.0088
  216MOL0     H29134   1.615   3.800   5.333  1.7001 -2.2824 -4.0309
  216MOL0     H29135   1.628   3.941   5.218 -2.8078  0.3343  1.4053
  216MOL0     H29136   1.655   3.947   5.501 -2.6625 -1.6101 -0.6127
  216MOL0     H29137   1.719   4.083   5.403 -1.9980  0.8348 -1.8242
  216MOL0     H29138   1.469   4.089   5.490 -3.2795 -0.3305 -1.1993
  216MOL0     H29139   1.438   3.973   5.359  0.9322 -0.8596  1.8069
  216MOL0     H29140   1.561   4.155   5.210 -0.2206  1.9633 -0.1300
  216MOL0     H29141   1.536   4.269   5.344 -0.1753  1.0747  0.3365
  216MOL0     H29142   2.111   4.152   4.773  1.6030  0.7940 -2.2430
  216MOL0     H29143   2.169   4.335   4.621  1.8689 -1.1439  1.6039
  216MOL0     H29144   1.994   4.755   4.509  0.5374 -3.0923 -1.9136
  216MOL0     H29145   1.983   4.932   4.342  0.2989 -1.7919 -4.3028
  216MOL0     H29146   3.458   5.423   3.792  0.6176  1.6983 -1.6474
  216MOL0     H29147   3.415   5.607   3.635  0.5988 -0.0510 -0.2639
  216MOL0     H29148   3.355   5.690   3.183  0.8196 -0.4061  2.5339
  216MOL0     H29149   3.398   5.830   2.968  0.1019  2.5484 -0.4535
  216MOL0     H29150   3.716   6.093   2.827 -1.5140 -1.0416  0.2420
  216MOL0     H29151   3.805   6.016   2.948  0.8133  1.9304 -0.7536
  216MOL0     H29152   3.903   5.998   2.709 -0.4306 -1.1935 -0.0690
  216MOL0     H29153   3.766   5.904   2.653  0.5031 -2.1531  0.7936
  216MOL0     H29154   3.807   5.735   2.822 -0.3886  2.1211  1.2041
  216MOL0     H29155   3.943   5.834   2.888  0.6153 -0.4239  0.0435
  216MOL0     H29156   4.042   5.668   2.785 -1.9687  0.1366  1.8900
  216MOL0     H29157   4.057   5.802   2.660  0.7066  0.8402  3.1361
  216MOL0     H29158   3.793   5.533   2.484 -1.9998  1.4834  0.2476
  216MOL0     H29159   3.825   5.836   3.068 -0.5327  0.1610 -1.0358
  216MOL0     H29160   3.767   5.721   3.279 -0.7610 -0.0549  0.9290
  217MOL0     O29161  11.094   1.937   5.360  0.1784  0.5469  0.1813
  217MOL0     C29162  11.073   2.047   5.410  0.0032 -0.5679  0.8653
  217MOL0     O29163  10.958   2.113   5.404  0.0246  0.5344  0.4440
  217MOL0     C29164  10.857   2.063   5.322  0.0720 -0.7096  0.7254
  217MOL0     C29165  10.868   2.098   5.184  0.3423 -0.2230 -0.3882
  217MOL0     C29166  10.771   2.060   5.095  0.4164  0.3502  0.1829
  217MOL0     C29167  10.665   1.969   5.138 -0.3675 -0.0984  0.4519
  217MOL0     O29168  10.580   1.919   5.047  0.5519 -0.2683 -0.6938
  217MOL0     C29169  10.479   1.827   5.095  0.3923  0.2294  0.0369
  217MOL0     C29170  10.397   1.761   4.981  0.3054 -0.0935 -0.7373
  217MOL0     C29171  10.251   1.741   5.009 -0.5902  0.7880  0.5991
  217MOL0     C29172  10.186   1.697   4.880  0.2335 -0.2106  0.2944
  217MOL0     C29173  10.033   1.683   4.883  1.0023  0.1154  0.3904
  217MOL0     C29174   9.956   1.827   4.887  0.0327 -0.1530 -0.9849
  217MOL0     C29175   9.818   1.797   4.906 -0.4516  0.1528  0.2238
  217MOL0     C29176   9.743   1.715   4.801  0.6107  0.3356 -0.5300
  217MOL0     N29177   9.599   1.737   4.813  0.6718  0.2971  0.0940
  217MOL0     C29178   9.516   1.745   4.707  0.9820  0.0597  0.4353
  217MOL0     C29179   9.388   1.755   4.756  0.3413 -0.7597  0.5255
  217MOL0     C29180   9.267   1.778   4.673  0.2626 -0.9977 -0.2281
  217MOL0     C29181   9.174   1.661   4.675 -0.2601  0.0745  0.4429
  217MOL0     C29182   9.054   1.663   4.768 -1.1060  0.4596 -0.9417
  217MOL0     C29183   8.928   1.711   4.709  0.2854 -0.1865  0.0112
  217MOL0     O29184   8.857   1.639   4.614  0.1264  0.0584 -0.4626
  217MOL0     C29185   8.770   1.534   4.656 -0.1648 -0.5094 -0.0671
  217MOL0     C29186   8.778   1.474   4.786  0.3421  0.3309  0.1266
  217MOL0     C29187   8.697   1.354   4.818  0.3239 -0.2683  0.1227
  217MOL0     C29188   8.690   1.309   4.960 -0.3610  0.1354  0.4141
  217MOL0     C29189   8.609   1.314   4.719 -0.1401  0.1572  0.2508
  217MOL0     C29190   8.497   1.204   4.727 -0.7178  0.7444 -0.1973
  217MOL0     O29191   8.424   1.173   4.621 -0.4125  0.6370  0.5331
  217MOL0     C29192   8.322   1.084   4.650 -0.4424 -0.6234  0.4416
  217MOL0     C29193   8.338   0.940   4.622 -0.1179 -1.2594 -0.6562
  217MOL0     C29194   8.240   0.847   4.651  0.6698  0.2465 -0.7098
  217MOL0     C29195   8.116   0.892   4.704 -0.1666  0.1993  0.3582
  217MOL0     O29196   8.008   0.817   4.720 -0.2182 -0.2542  0.2004
  217MOL0     C29197   8.015   0.674   4.712 -0.1152  0.6372  0.5239
  217MOL0     C29198   7.889   0.608   4.778 -0.0596 -0.4019  0.2802
  217MOL0     C29199   7.763   0.660   4.704  1.1444 -0.0534  0.3745
  217MOL0     C29200   7.741   0.619   4.556  0.3805 -0.1271 -0.6379
  217MOL0     C29201   7.607   0.666   4.506 -0.7268  0.2250  0.8532
  217MOL0     C29202   7.578   0.607   4.366 -0.6514 -0.1614 -0.5934
  217MOL0     C29203   7.449   0.641   4.307  0.1351  0.5697 -0.3186
  217MOL0     C29204   7.430   0.787   4.266  1.0045 -0.0425 -0.3861
  217MOL0    Cl29205   7.510   0.817   4.108  0.3555 -0.4675 -0.2044
  217MOL0     C29206   8.098   1.029   4.722 -0.4565 -0.9868 -0.2060
  217MOL0     C29207   8.202   1.120   4.701 -0.4084  0.3644  0.3843
  217MOL0     O29208   8.493   1.138   4.829 -0.8880  0.0125  0.2230
  217MOL0     C29209   8.621   1.360   4.590  0.4844  1.0409  0.1322
  217MOL0     C29210   8.693   1.475   4.562  0.5578 -0.3790 -0.1232
  217MOL0     N29211   9.407   1.752   4.892 -0.3548  0.0452 -0.0574
  217MOL0     N29212   9.524   1.733   4.930  0.0209  0.0367  0.8524
  217MOL0     C29213  10.667   1.919   5.273 -0.6011  0.2980  0.3172
  217MOL0     C29214  10.765   1.962   5.363 -0.4540  0.6777  0.5554
  217MOL0     C29215  11.190   2.111   5.476 -0.2232 -0.3336 -0.2148
  217MOL0     C29216  11.311   2.039   5.479  0.1010 -0.9383  0.1061
  217MOL0     C29217  11.420   2.093   5.536 -0.0521  0.6208  0.5660
  217MOL0     C29218  11.420   2.220   5.600  0.2996 -0.0282 -0.2787
  217MOL0     O29219  11.537   2.275   5.630 -0.1000 -0.1752 -0.0782
  217MOL0     C29220  11.534   2.401   5.683  0.6030  0.1332  0.7288
  217MOL0     C29221  11.681   2.442   5.715 -0.5849 -0.0652  1.2065
  217MOL0     C29222  11.747   2.343   5.816 -0.2886  0.8913  0.5169
  217MOL0     C29223  11.876   2.401   5.870  0.2626 -0.4677  0.0939
  217MOL0     C29224  11.937   2.309   5.970 -0.6865  0.5296  0.2099
  217MOL0     C29225  11.975   2.234   6.058 -0.7668 -0.2884 -0.0618
  217MOL0     C29226  11.291   2.284   5.611 -0.1114  0.0055 -0.0244
  217MOL0     C29227  11.180   2.237   5.546 -0.7634  0.3067  1.2218
  217MOL0     H29228  10.955   2.160   5.165 -1.5672  2.8438  0.2418
  217MOL0     H29229  10.774   2.086   4.990  2.1698 -1.4368 -0.2771
  217MOL0     H29230  10.509   1.743   5.159 -1.6778 -2.3830 -2.1675
  217MOL0     H29231  10.421   1.893   5.160 -0.4439 -2.0631  1.7863
  217MOL0     H29232  10.406   1.823   4.891  0.5223  1.4635  0.3021
  217MOL0     H29233  10.444   1.664   4.966  2.7029  0.8521  0.1295
  217MOL0     H29234  10.228   1.678   5.095 -2.1445  3.5928  2.4081
  217MOL0     H29235  10.212   1.839   5.040  1.7169  1.5203  1.4146
  217MOL0     H29236  10.205   1.768   4.798 -2.2085 -0.3842 -0.5282
  217MOL0     H29237  10.226   1.600   4.847  1.2329  0.4453 -0.5018
  217MOL0     H29238  10.016   1.625   4.791 -0.2974 -2.5593  2.1801
  217MOL0     H29239   9.999   1.621   4.967  1.0374 -3.6431 -2.0912
  217MOL0     H29240   9.991   1.884   4.974 -1.1815 -2.7269  1.3485
  217MOL0     H29241   9.973   1.897   4.806  0.0410 -1.9330 -2.5933
  217MOL0     H29242   9.808   1.751   5.005  0.9990  1.2918  0.9357
  217MOL0     H29243   9.767   1.893   4.907  0.6698  0.8351 -1.6505
  217MOL0     H29244   9.770   1.610   4.806  2.1383  0.6928 -0.7740
  217MOL0     H29245   9.774   1.753   4.703 -1.8611 -2.2512 -2.4897
  217MOL0     H29246   9.548   1.747   4.603 -2.8174  1.8715 -0.8519
  217MOL0     H29247   9.204   1.859   4.709 -1.5936 -1.5921 -1.9270
  217MOL0     H29248   9.298   1.800   4.570  1.2932 -0.1391  0.2421
  217MOL0     H29249   9.230   1.570   4.699  0.9685 -0.0817 -2.5270
  217MOL0     H29250   9.142   1.653   4.570 -1.2121  4.4263  0.2125
  217MOL0     H29251   9.083   1.731   4.849  0.2147 -1.3088  0.1590
  217MOL0     H29252   9.048   1.562   4.810 -1.2817  2.2706  4.0579
  217MOL0     H29253   8.961   1.804   4.662  1.2069  0.0003  0.9852
  217MOL0     H29254   8.866   1.735   4.797  0.4751  0.8689 -0.1291
  217MOL0     H29255   8.834   1.514   4.870  1.4894 -0.7444 -0.0898
  217MOL0     H29256   8.591   1.327   5.002 -0.8054 -1.1280 -0.0424
  217MOL0     H29257   8.717   1.203   4.974  2.0813  0.5053 -0.8438
  217MOL0     H29258   8.763   1.359   5.024 -1.9677  1.9790  0.8988
  217MOL0     H29259   8.433   0.912   4.577  0.4143 -0.5537 -0.0047
  217MOL0     H29260   8.277   0.745   4.647 -0.7280 -0.2601 -1.3337
  217MOL0     H29261   8.025   0.655   4.605 -1.1978 -0.6662  0.6262
  217MOL0     H29262   8.101   0.630   4.763  0.4595  2.0580  0.8421
  217MOL0     H29263   7.894   0.499   4.782  0.5245 -0.3594  0.8013
  217MOL0     H29264   7.889   0.653   4.878  2.0942  3.9119 -1.3989
  217MOL0     H29265   7.758   0.767   4.723  2.0300 -0.2430  1.8835
  217MOL0     H29266   7.669   0.617   4.739  2.4421 -3.1661  0.4323
  217MOL0     H29267   7.822   0.668   4.501  0.4348 -0.6750 -1.0558
  217MOL0     H29268   7.760   0.512   4.551  0.7604 -0.1579  0.9291
  217MOL0     H29269   7.616   0.774   4.498  1.2399  0.0395  0.0684
  217MOL0     H29270   7.527   0.636   4.575 -1.0085 -3.1537 -0.7340
  217MOL0     H29271   7.651   0.636   4.290 -0.5420 -2.0850 -1.2912
  217MOL0     H29272   7.581   0.498   4.374  0.7867  0.0257  3.2370
  217MOL0     H29273   7.372   0.617   4.381  1.3830 -2.8965  0.0290
  217MOL0     H29274   7.429   0.576   4.221 -0.5460 -1.5275  1.3396
  217MOL0     H29275   7.473   0.862   4.334 -3.0345  2.5260 -0.3398
  217MOL0     H29276   7.324   0.812   4.265  0.4263 -2.0763  1.3525
  217MOL0     H29277   7.996   1.061   4.740 -0.4618 -1.1142 -0.0080
  217MOL0     H29278   8.183   1.226   4.714  0.3440  0.8051 -1.7269
  217MOL0     H29279   8.573   1.311   4.506 -0.5435 -0.4971  1.5246
  217MOL0     H29280   8.697   1.514   4.461 -2.8522  0.5482 -0.0171
  217MOL0     H29281  10.597   1.843   5.306 -0.5994  0.7811  1.4969
  217MOL0     H29282  10.761   1.930   5.467 -2.5627 -2.3230 -0.3211
  217MOL0     H29283  11.318   1.943   5.430  1.1551 -0.4420 -0.7551
  217MOL0     H29284  11.514   2.039   5.529  0.7473  2.0751 -0.6072
  217MOL0     H29285  11.499   2.467   5.603  1.5088  0.7878  0.8600
  217MOL0     H29286  11.479   2.403   5.778 -2.0272 -0.5577 -0.6781
  217MOL0     H29287  11.676   2.542   5.759  0.1915  0.3374  0.3919
  217MOL0     H29288  11.740   2.459   5.625 -1.2586  3.7576  1.3035
  217MOL0     H29289  11.766   2.248   5.766  3.1557  0.6118  2.0250
  217MOL0     H29290  11.689   2.324   5.907  0.5806  1.6182  1.2565
  217MOL0     H29291  11.864   2.499   5.916 -1.6726 -0.8900  0.5762
  217MOL0     H29292  11.940   2.414   5.782 -1.3067 -0.4722 -1.0815
  217MOL0     H29293  11.995   2.164   6.137 -0.6185 -1.0312 -0.7489
  217MOL0     H29294  11.273   2.377   5.664 -1.3273 -0.1566 -0.1247
  217MOL0     H29295  11.086   2.291   5.542  0.2355  2.0668 -2.0827
  218MOL0     O29296   4.566   7.025   9.227 -0.2480  0.1844  0.0521
  218MOL0     C29297   4.636   6.926   9.210  0.6022  0.5889  0.3029
  218MOL0     O29298   4.614   6.804   9.259 -0.2961 -0.2752 -0.1943
  218MOL0     C29299   4.498   6.788   9.329  0.4905  0.1883 -0.6847
  218MOL0     C29300   4.505   6.787   9.471 -0.5598  0.5409  0.6469
  218MOL0     C29301   4.392   6.771   9.554 -0.4475 -0.8794 -0.0815
  218MOL0     C29302   4.268   6.742   9.491 -0.2743  0.2505  0.2920
  218MOL0     O29303   4.167   6.713   9.570 -0.0536  0.3258  0.4673
  218MOL0     C29304   4.045   6.790   9.552 -0.1745 -0.7553  0.1820
  218MOL0     C29305   3.932   6.758   9.654  0.3236 -0.5843  0.9686
  218MOL0     C29306   3.954   6.818   9.792  0.8886 -0.5205 -0.3192
  218MOL0     C29307   3.885   6.723   9.889  0.3674  0.2485  0.2631
  218MOL0     C29308   3.896   6.768  10.033 -0.1821 -0.7367  0.4178
  218MOL0     C29309   4.042   6.749  10.085 -0.9212  0.3292 -0.2197
  218MOL0     C29310   4.033   6.742  10.237  0.3669 -0.4799 -0.3932
  218MOL0     C29311   4.171   6.711  10.295 -0.1354  0.1890 -0.1969
  218MOL0     N29312   4.187   6.756  10.432 -0.3192 -0.3175 -0.5008
  218MOL0     C29313   4.136   6.705  10.553 -0.0238 -0.6500  0.1402
  218MOL0     C29314   4.158   6.800  10.640 -0.3318 -0.4785  0.5445
  218MOL0     C29315   4.105   6.791  10.781 -0.2724 -0.4131  0.1001
  218MOL0     C29316   3.961   6.838  10.799 -0.2862  0.6664  0.2637
  218MOL0     C29317   3.858   6.728  10.754  1.2276 -0.2100 -0.1626
  218MOL0     C29318   3.717   6.794  10.756  0.2248  0.7492 -0.1289
  218MOL0     O29319   3.702   6.864  10.880  0.5448 -0.5085 -0.0573
  218MOL0     C29320   3.588   6.947  10.895  1.0115  0.4675  0.8360
  218MOL0     C29321   3.476   6.941  10.818  0.7181  0.4265  0.4086
  218MOL0     C29322   3.360   7.010  10.849 -0.8222 -0.2707  0.1443
  218MOL0     C29323   3.238   6.989  10.759  0.4933  0.1713 -0.8152
  218MOL0     C29324   3.366   7.090  10.967 -0.2677  0.3865 -0.5159
  218MOL0     C29325   3.253   7.189  11.005  0.0960  0.8210  1.1460
  218MOL0     O29326   3.258   7.242  11.125  0.3426  0.3108  0.5446
  218MOL0     C29327   3.141   7.278  11.188 -0.0527  0.0485 -0.0957
  218MOL0     C29328   3.051   7.382  11.135 -0.6356  0.0855 -0.6037
  218MOL0     C29329   2.951   7.431  11.210  2.2467  0.0437 -0.6868
  218MOL0     C29330   2.922   7.387  11.337  0.3806 -0.0987 -0.3267
  218MOL0     O29331   2.813   7.427  11.420 -0.1857 -0.4247  1.1127
  218MOL0     C29332   2.760   7.553  11.403 -0.4093  0.3043  0.7437
  218MOL0     C29333   2.637   7.570  11.492  0.0776  0.7352  0.7551
  218MOL0     C29334   2.585   7.710  11.488  0.8847 -0.4676  0.1367
  218MOL0     C29335   2.474   7.740  11.592 -0.0996  0.1843 -0.3224
  218MOL0     C29336   2.338   7.665  11.576 -0.8257 -0.3887 -0.8955
  218MOL0     C29337   2.260   7.702  11.452  0.4690  0.2383 -1.0155
  218MOL0     C29338   2.141   7.602  11.457 -0.0838  0.2150  0.2993
  218MOL0     C29339   2.037   7.617  11.346  0.4240 -0.2436 -0.3427
  218MOL0    Cl29340   2.124   7.619  11.175  0.4045 -0.2507  0.0610
  218MOL0     C29341   2.997   7.281  11.386 -0.3048 -0.7455  0.3714
  218MOL0     C29342   3.105   7.229  11.312 -0.4574  0.9494 -0.1072
  218MOL0     O29343   3.157   7.211  10.930 -0.2744 -0.7196 -0.1187
  218MOL0     C29344   3.482   7.086  11.051  0.3498 -0.1896  0.2115
  218MOL0     C29345   3.593   7.021  11.008 -0.3251 -1.5996  0.0001
  218MOL0     N29346   4.222   6.910  10.583 -0.5024  0.7530 -0.1358
  218MOL0     N29347   4.240   6.885  10.459 -0.1489  0.1957  0.0594
  218MOL0     C29348   4.258   6.738   9.349 -0.0239 -0.2476  0.3395
  218MOL0     C29349   4.367   6.759   9.270  0.4777  0.0033  0.4140
  218MOL0     C29350   4.775   6.945   9.157 -0.4146 -0.4591  0.0156
  218MOL0     C29351   4.868   6.840   9.172 -0.2108 -0.0398  0.8450
  218MOL0     C29352   4.998   6.865   9.144 -0.6266 -0.1857 -0.3065
  218MOL0     C29353   5.048   6.995   9.105 -0.8621 -0.0741  0.5091
  218MOL0     O29354   5.175   7.003   9.090 -1.0507  0.0290  0.0761
  218MOL0     C29355   5.237   7.108   9.008  0.2047 -0.7270  0.3909
  218MOL0     C29356   5.374   7.121   9.075  0.5033  0.8198 -0.1171
  218MOL0     C29357   5.370   7.137   9.230 -0.3001 -0.7666 -0.7198
  218MOL0     C29358   5.517   7.148   9.278 -0.6194  0.0974  0.0368
  218MOL0     C29359   5.530   7.183   9.422  0.4259  0.7112 -0.4633
  218MOL0     C29360   5.536   7.213   9.538 -0.1900 -0.0563 -0.5110
  218MOL0     C29361   4.955   7.089   9.078  0.4896  0.2501  0.9702
  218MOL0     C29362   4.822   7.069   9.111  0.0694 -0.7766 -1.0669
  218MOL0     H29363   4.603   6.806   9.514 -0.1394 -1.3158  0.5952
  218MOL0     H29364   4.402   6.765   9.662 -2.6241 -1.4690  0.1398
  218MOL0     H29365   4.066   6.896   9.569 -0.3297 -1.0912  2.8572
  218MOL0     H29366   3.997   6.783   9.454 -0.1082 -0.5584  0.1355
  218MOL0     H29367   3.835   6.790   9.615  1.7488  2.9103 -0.1203
  218MOL0     H29368   3.923   6.649   9.655 -0.4527 -0.6937 -2.8684
  218MOL0     H29369   4.062   6.819   9.813  0.7271 -1.4416  0.6530
  218MOL0     H29370   3.910   6.918   9.799 -0.8152 -1.2000 -0.8132
  218MOL0     H29371   3.781   6.718   9.855  0.8401 -0.6303 -1.1452
  218MOL0     H29372   3.924   6.621   9.886 -0.3324 -0.0226  0.2199
  218MOL0     H29373   3.873   6.874  10.045  0.3666 -0.7047  1.2259
  218MOL0     H29374   3.828   6.708  10.094 -0.0255 -0.5718  0.7571
  218MOL0     H29375   4.074   6.649  10.054 -2.9345 -0.1914 -0.7196
  218MOL0     H29376   4.114   6.826  10.055  1.7144 -1.8376  0.1893
  218MOL0     H29377   3.988   6.834  10.277 -3.0820 -0.8589 -3.0018
  218MOL0     H29378   3.989   6.651  10.277 -0.3690  0.6937  1.6402
  218MOL0     H29379   4.242   6.760  10.228  2.2607  1.0980  2.8109
  218MOL0     H29380   4.202   6.606  10.293 -1.1454 -0.1529 -3.3816
  218MOL0     H29381   4.079   6.614  10.569 -1.6503  0.4556  0.8171
  218MOL0     H29382   4.113   6.684  10.804  0.5473 -0.1675  1.0446
  218MOL0     H29383   4.173   6.838  10.853 -1.4723  0.7531  0.5178
  218MOL0     H29384   3.940   6.929  10.741 -0.8230 -0.8842 -2.1105
  218MOL0     H29385   3.951   6.870  10.904  0.2990  1.2372  0.1501
  218MOL0     H29386   3.855   6.640  10.819  0.8813  0.3433  0.5828
  218MOL0     H29387   3.877   6.693  10.652  0.0925  0.6626 -0.7049
  218MOL0     H29388   3.641   6.717  10.738  0.6069  0.1794  0.6237
  218MOL0     H29389   3.714   6.876  10.683 -1.7187  1.3963  0.6066
  218MOL0     H29390   3.473   6.880  10.727  0.4059 -2.0660  1.9965
  218MOL0     H29391   3.190   7.077  10.716 -1.8591 -1.4661 -1.7085
  218MOL0     H29392   3.272   6.930  10.673 -0.4416 -0.2240 -0.9248
  218MOL0     H29393   3.160   6.930  10.807 -1.8417  1.6299 -2.6192
  218MOL0     H29394   3.064   7.423  11.035 -5.2672  1.3791 -0.9000
  218MOL0     H29395   2.899   7.516  11.167 -0.2060 -0.9863  0.0719
  218MOL0     H29396   2.832   7.623  11.446  1.8190 -2.4008  1.7239
  218MOL0     H29397   2.728   7.580  11.302 -0.1425 -0.1116  0.5442
  218MOL0     H29398   2.562   7.496  11.464 -0.2226  1.0403  0.7525
  218MOL0     H29399   2.672   7.552  11.594 -0.0031  2.0568  1.0330
  218MOL0     H29400   2.549   7.736  11.388  0.5771 -0.6781  0.1927
  218MOL0     H29401   2.668   7.773  11.522  0.9476 -1.3813  1.7378
  218MOL0     H29402   2.504   7.714  11.694 -3.0516  0.6303  0.7666
  218MOL0     H29403   2.456   7.848  11.596 -2.0521 -0.0765 -1.2395
  218MOL0     H29404   2.280   7.685  11.667 -2.7443 -1.9236 -1.7021
  218MOL0     H29405   2.360   7.558  11.581  0.8144 -0.0146  2.3478
  218MOL0     H29406   2.225   7.806  11.451 -0.8812 -0.0799  2.0898
  218MOL0     H29407   2.315   7.665  11.364  0.1309 -3.8926  0.3206
  218MOL0     H29408   2.085   7.616  11.549 -2.7510  1.5687 -1.3951
  218MOL0     H29409   2.169   7.497  11.454 -0.1950  0.1812  0.4637
  218MOL0     H29410   1.984   7.713  11.345 -0.5070 -0.7394 -0.0290
  218MOL0     H29411   1.962   7.537  11.348 -2.2477  2.1063  1.0018
  218MOL0     H29412   2.988   7.248  11.489  0.3528 -0.7062  0.4426
  218MOL0     H29413   3.173   7.156  11.355  0.5440  1.8742 -0.0983
  218MOL0     H29414   3.494   7.145  11.141 -2.2961 -0.0269  0.5541
  218MOL0     H29415   3.693   7.045  11.044 -0.4790 -1.3098  0.2432
  218MOL0     H29416   4.167   6.723   9.292  0.6703 -1.5205 -0.4666
  218MOL0     H29417   4.357   6.743   9.163 -0.9466  3.7785 -0.1912
  218MOL0     H29418   4.822   6.741   9.175 -2.5215  0.9428  0.1526
  218MOL0     H29419   5.060   6.781   9.174  0.3473  0.9065  0.8512
  218MOL0     H29420   5.243   7.076   8.903 -1.8705 -0.2135  0.0748
  218MOL0     H29421   5.193   7.208   9.010 -0.2387 -0.7409 -2.7656
  218MOL0     H29422   5.437   7.202   9.036 -0.8009  1.1008 -1.6978
  218MOL0     H29423   5.420   7.028   9.040 -3.9174 -1.2238 -1.0644
  218MOL0     H29424   5.324   7.047   9.271 -3.0779  0.4334 -0.9890
  218MOL0     H29425   5.314   7.227   9.258  0.3356 -1.1196  2.0196
  218MOL0     H29426   5.573   7.230   9.231  1.8237 -2.0923 -1.1058
  218MOL0     H29427   5.569   7.056   9.252  1.6499  0.5611  2.4376
  218MOL0     H29428   5.538   7.233   9.643  4.2436  2.2511 -0.8114
  218MOL0     H29429   4.978   7.186   9.035 -1.6025  0.0257 -0.8369
  218MOL0     H29430   4.763   7.160   9.120  3.8876  1.8173  0.5464
  219MOL0     O29431   5.352   9.323   9.626 -0.9515  0.4902 -0.0499
  219MOL0     C29432   5.426   9.384   9.544  0.7356 -0.4078  0.0189
  219MOL0     O29433   5.379   9.466   9.438 -0.0422  0.4858 -0.2135
  219MOL0     C29434   5.242   9.467   9.421 -0.1467  0.7466  0.3588
  219MOL0     C29435   5.169   9.347   9.416  0.6994 -0.4421 -0.0921
  219MOL0     C29436   5.024   9.351   9.402 -0.6871 -0.1473  1.0740
  219MOL0     C29437   4.956   9.472   9.399  0.0772 -0.5695 -0.1667
  219MOL0     O29438   4.811   9.473   9.387 -0.6024  0.0722  0.0872
  219MOL0     C29439   4.748   9.600   9.370  0.1720 -0.1702  0.5561
  219MOL0     C29440   4.601   9.588   9.418  0.5315 -0.5812  0.9820
  219MOL0     C29441   4.582   9.563   9.567 -0.1370 -0.6153 -0.5086
  219MOL0     C29442   4.435   9.563   9.606  0.6026  0.3403  0.2446
  219MOL0     C29443   4.367   9.425   9.616 -0.4212  0.9714 -0.2377
  219MOL0     C29444   4.214   9.431   9.645  0.5683  0.8449  0.1381
  219MOL0     C29445   4.172   9.280   9.678  0.1959  0.3346  0.0731
  219MOL0     C29446   4.067   9.268   9.782 -0.1349  0.6870  0.1901
  219MOL0     N29447   3.933   9.307   9.750  0.0473  0.4036 -0.1451
  219MOL0     C29448   3.823   9.223   9.732  0.3041  0.1008 -0.7197
  219MOL0     C29449   3.718   9.307   9.734 -0.4554  0.9387  0.1071
  219MOL0     C29450   3.575   9.263   9.723  0.2693  0.3116  0.1282
  219MOL0     C29451   3.530   9.183   9.841 -0.4406 -0.1261 -0.4598
  219MOL0     C29452   3.517   9.264   9.973  0.2169 -0.0882 -0.2520
  219MOL0     C29453   3.379   9.310  10.004 -0.7836 -0.4488 -0.4905
  219MOL0     O29454   3.329   9.397   9.902 -0.2890  0.3888 -0.4579
  219MOL0     C29455   3.195   9.426   9.904  0.2888 -0.3293  0.1862
  219MOL0     C29456   3.146   9.471   9.785 -1.0836  0.3081 -0.1519
  219MOL0     C29457   3.012   9.492   9.759 -0.3852 -0.5683  0.4793
  219MOL0     C29458   2.971   9.528   9.619  0.0876  0.6169  0.0921
  219MOL0     C29459   2.924   9.466   9.861  0.3891  0.3235 -0.4386
  219MOL0     C29460   2.778   9.459   9.851 -0.0725  0.4799  0.1819
  219MOL0     O29461   2.700   9.490   9.961 -0.3503  0.5227  0.6958
  219MOL0     C29462   2.569   9.474   9.962  0.7759 -0.2859  0.6245
  219MOL0     C29463   2.508   9.348   9.927 -0.9989 -0.5381 -0.2868
  219MOL0     C29464   2.375   9.349   9.906  0.0871 -0.0329 -0.6670
  219MOL0     C29465   2.293   9.460   9.925  0.7303  0.0580  0.3740
  219MOL0     O29466   2.159   9.471   9.901  0.0078 -0.3170  0.1867
  219MOL0     C29467   2.078   9.380   9.982  0.6053 -0.0966 -0.1626
  219MOL0     C29468   1.926   9.387   9.935 -0.0565  0.5337 -0.1850
  219MOL0     C29469   1.846   9.298  10.024  0.1608  0.2211  0.1480
  219MOL0     C29470   1.696   9.319   9.994 -0.2938  1.0338  0.1252
  219MOL0     C29471   1.606   9.198  10.038 -0.6326 -1.0692  0.6075
  219MOL0     C29472   1.454   9.218  10.022  0.2414 -0.5594 -0.4498
  219MOL0     C29473   1.397   9.328  10.118 -0.4992  0.0500 -0.8074
  219MOL0     C29474   1.325   9.448  10.051 -0.1088 -0.1581 -0.0822
  219MOL0    Cl29475   1.259   9.549  10.189 -0.0705 -0.4853  0.5238
  219MOL0     C29476   2.353   9.578   9.976 -0.4420  1.3466  0.1565
  219MOL0     C29477   2.488   9.581   9.996 -0.1552  0.0823 -0.5212
  219MOL0     O29478   2.738   9.404   9.749 -0.7859 -0.6576  0.1899
  219MOL0     C29479   2.969   9.412   9.985 -0.5572  0.3624  0.3696
  219MOL0     C29480   3.108   9.388  10.009 -0.2086 -0.3776  0.1161
  219MOL0     N29481   3.766   9.441   9.733 -0.6874  0.2973 -0.5118
  219MOL0     N29482   3.890   9.437   9.750 -0.4070 -0.7164  0.2332
  219MOL0     C29483   5.037   9.592   9.406 -0.5096  0.2334 -0.6067
  219MOL0     C29484   5.174   9.588   9.401 -0.7882  0.2690  0.2194
  219MOL0     C29485   5.578   9.363   9.559  0.4759 -0.2585  0.1328
  219MOL0     C29486   5.638   9.283   9.658  0.2553 -0.1576 -0.1746
  219MOL0     C29487   5.778   9.286   9.670 -0.2926  0.1075 -0.3329
  219MOL0     C29488   5.863   9.338   9.570 -0.1045 -0.3174  0.0910
  219MOL0     O29489   5.999   9.334   9.566 -0.0515 -0.4067 -0.2609
  219MOL0     C29490   6.068   9.371   9.682 -0.2742 -0.0906 -0.1027
  219MOL0     C29491   6.217   9.390   9.652  0.7105 -0.6837  0.8986
  219MOL0     C29492   6.236   9.521   9.583  0.7413 -0.8864  0.1338
  219MOL0     C29493   6.377   9.544   9.547  0.5145 -0.2139 -0.4583
  219MOL0     C29494   6.469   9.526   9.660 -0.2213  0.1303  0.6091
  219MOL0     C29495   6.543   9.493   9.751 -0.5721  1.4611  0.8005
  219MOL0     C29496   5.799   9.409   9.470  0.4408 -0.1278 -0.0905
  219MOL0     C29497   5.668   9.427   9.471 -0.2085  1.4420  0.8037
  219MOL0     H29498   5.209   9.247   9.425  1.0713 -0.2916 -0.0694
  219MOL0     H29499   4.965   9.265   9.371 -1.6661  0.7039  0.5111
  219MOL0     H29500   4.787   9.681   9.431  0.0542  0.9823 -0.8415
  219MOL0     H29501   4.751   9.630   9.265  0.0822 -0.3544  0.4991
  219MOL0     H29502   4.548   9.680   9.393 -0.7487 -1.7231 -0.7388
  219MOL0     H29503   4.562   9.500   9.365  0.4620 -1.0170  1.7469
  219MOL0     H29504   4.618   9.461   9.581 -0.1409 -0.3830  1.4346
  219MOL0     H29505   4.636   9.635   9.630  1.1989 -0.5011 -1.7382
  219MOL0     H29506   4.419   9.613   9.702  2.4487  3.1988 -0.8030
  219MOL0     H29507   4.377   9.620   9.532 -1.7609 -3.5154 -1.1842
  219MOL0     H29508   4.386   9.377   9.520 -0.4183 -0.2235  0.3439
  219MOL0     H29509   4.432   9.367   9.683  3.6443  1.5494 -3.2702
  219MOL0     H29510   4.188   9.497   9.728 -0.7596  3.9600 -2.5476
  219MOL0     H29511   4.166   9.479   9.559 -0.9075  1.7972  1.4391
  219MOL0     H29512   4.147   9.230   9.584  0.1944  0.8653 -0.2132
  219MOL0     H29513   4.258   9.221   9.710 -0.4098 -3.0019 -3.6304
  219MOL0     H29514   4.096   9.327   9.870  0.2563  0.1867  0.3979
  219MOL0     H29515   4.063   9.163   9.814  0.0543  0.8084  0.6258
  219MOL0     H29516   3.826   9.116   9.712  0.2014 -0.2390  0.9239
  219MOL0     H29517   3.516   9.355   9.723  1.8532  1.3527  0.7169
  219MOL0     H29518   3.555   9.202   9.634 -0.1667 -2.3486  1.9348
  219MOL0     H29519   3.599   9.100   9.855  2.1248  1.4234 -2.8608
  219MOL0     H29520   3.433   9.136   9.827  0.1729 -1.3881 -0.6167
  219MOL0     H29521   3.593   9.342   9.959  2.0223 -1.6571  0.2770
  219MOL0     H29522   3.557   9.215  10.062 -0.5278  2.6015  1.7178
  219MOL0     H29523   3.392   9.359  10.101  1.6894 -2.2836  0.2121
  219MOL0     H29524   3.314   9.224  10.021 -0.4495 -0.0920  3.5770
  219MOL0     H29525   3.224   9.512   9.722  0.7289 -0.2695  1.5775
  219MOL0     H29526   2.868   9.563   9.607 -0.3965 -1.5240 -3.4876
  219MOL0     H29527   3.034   9.608   9.577 -0.0622  1.5801  1.6278
  219MOL0     H29528   2.984   9.440   9.555 -3.8875  0.8992 -1.3452
  219MOL0     H29529   2.574   9.263   9.913  0.2408  0.4967 -0.9396
  219MOL0     H29530   2.323   9.258   9.878  0.0605 -0.1618 -0.1930
  219MOL0     H29531   2.109   9.279   9.950 -1.8742 -0.8919 -0.2304
  219MOL0     H29532   2.074   9.394  10.090 -2.0936 -1.2322 -0.0406
  219MOL0     H29533   1.896   9.492   9.935 -2.3071 -0.0639 -0.4335
  219MOL0     H29534   1.906   9.366   9.829 -1.5421  1.9727 -0.2208
  219MOL0     H29535   1.874   9.309  10.129  0.6142 -1.3804  0.2240
  219MOL0     H29536   1.871   9.193  10.003  0.7109  0.0333  1.6515
  219MOL0     H29537   1.672   9.418  10.034  1.0131 -0.0625  4.0825
  219MOL0     H29538   1.670   9.319   9.888 -1.5899 -4.0006  0.1817
  219MOL0     H29539   1.611   9.182  10.146 -1.9948 -1.4351  0.6405
  219MOL0     H29540   1.636   9.117   9.971  0.6073  1.1224 -1.6593
  219MOL0     H29541   1.430   9.249   9.920 -3.2365  0.0296  0.3911
  219MOL0     H29542   1.402   9.123  10.041  2.3190 -1.4707  1.0245
  219MOL0     H29543   1.477   9.363  10.184 -1.6634 -1.1149  1.3159
  219MOL0     H29544   1.333   9.284  10.194 -0.6846  1.5147 -0.0865
  219MOL0     H29545   1.256   9.418   9.972  0.3923 -1.3743 -0.0837
  219MOL0     H29546   1.403   9.507  10.003 -1.6746  2.1426  0.0821
  219MOL0     H29547   2.299   9.668  10.002  0.0196  1.1618  1.9110
  219MOL0     H29548   2.539   9.676  10.013 -0.9633  0.0107  3.1543
  219MOL0     H29549   2.896   9.391  10.063  0.1292  1.1830  1.2786
  219MOL0     H29550   3.149   9.340  10.097  1.9810  2.2755  0.6553
  219MOL0     H29551   4.995   9.692   9.396 -0.4578  0.5509  1.7394
  219MOL0     H29552   5.230   9.681   9.400  2.8206 -1.7041 -1.2498
  219MOL0     H29553   5.568   9.242   9.730 -1.4868  0.9381 -1.1940
  219MOL0     H29554   5.834   9.230   9.745  2.0595 -1.2976 -2.9539
  219MOL0     H29555   6.022   9.454   9.735  0.5831  1.0528 -1.0902
  219MOL0     H29556   6.075   9.280   9.743  0.6159  0.4985  0.7014
  219MOL0     H29557   6.251   9.310   9.586  0.7851 -0.1906  0.3261
  219MOL0     H29558   6.268   9.372   9.747  0.3143  1.3754  1.5577
  219MOL0     H29559   6.201   9.613   9.632 -0.8201 -1.1371 -0.4658
  219MOL0     H29560   6.174   9.516   9.493  1.2148  1.8732 -0.4294
  219MOL0     H29561   6.385   9.647   9.510 -0.3844 -0.4332 -1.2972
  219MOL0     H29562   6.409   9.480   9.464  3.2559 -0.8948  0.9908
  219MOL0     H29563   6.614   9.444   9.815  1.2315 -2.3579 -3.5422
  219MOL0     H29564   5.858   9.463   9.397 -1.7350  0.5551 -1.4095
  219MOL0     H29565   5.622   9.486   9.392 -1.7999 -0.0387  0.5796
  220MOL0     O29566   1.737   2.966   8.717  0.5159  0.0430 -0.0235
  220MOL0     C29567   1.821   3.008   8.638  0.0211  0.1789  0.0858
  220MOL0     O29568   1.890   2.925   8.547  0.0118  0.0917  0.3090
  220MOL0     C29569   1.849   2.797   8.520 -0.4468  0.5684 -0.1044
  220MOL0     C29570   1.714   2.766   8.477 -0.5403 -0.6383  0.5510
  220MOL0     C29571   1.665   2.639   8.448  0.3454  0.4752 -0.1824
  220MOL0     C29572   1.758   2.537   8.448 -1.2861 -0.0284 -0.8415
  220MOL0     O29573   1.723   2.409   8.406  0.8156 -0.0399  0.2675
  220MOL0     C29574   1.652   2.414   8.275 -0.3059 -0.7869 -1.4251
  220MOL0     C29575   1.638   2.277   8.215  0.1720  0.2927  0.0481
  220MOL0     C29576   1.766   2.188   8.205  0.3730 -0.2681  0.7764
  220MOL0     C29577   1.734   2.043   8.158 -0.0420 -0.0307 -0.6333
  220MOL0     C29578   1.863   1.969   8.181  0.1617 -0.2564  0.5752
  220MOL0     C29579   1.863   1.845   8.087 -0.7088 -0.5950 -0.0451
  220MOL0     C29580   1.989   1.766   8.109 -0.5573  0.8080  1.0132
  220MOL0     C29581   2.009   1.638   8.036  0.6452  0.1506 -0.0563
  220MOL0     N29582   2.011   1.666   7.895 -0.1339 -0.9496 -0.4690
  220MOL0     C29583   2.131   1.702   7.830  0.0483 -0.2152 -0.6933
  220MOL0     C29584   2.088   1.756   7.711  0.6430 -0.5599 -0.3240
  220MOL0     C29585   2.155   1.814   7.596 -0.3870  0.4605 -1.0813
  220MOL0     C29586   2.299   1.854   7.637  0.3804  0.4931  0.5517
  220MOL0     C29587   2.378   1.724   7.621  0.2040 -0.1666 -0.1296
  220MOL0     C29588   2.495   1.725   7.722  0.4044  0.1722 -0.3553
  220MOL0     O29589   2.588   1.817   7.675 -0.5136 -0.1364 -0.0605
  220MOL0     C29590   2.689   1.857   7.763 -0.0201  0.0556 -0.4607
  220MOL0     C29591   2.716   1.813   7.890  0.0827  0.2706 -0.6932
  220MOL0     C29592   2.822   1.859   7.966  0.6439 -0.4803 -0.3027
  220MOL0     C29593   2.839   1.794   8.097  0.6400  0.3080  0.0337
  220MOL0     C29594   2.911   1.961   7.915  0.6445  0.8513  0.8280
  220MOL0     C29595   3.027   2.016   7.988  0.1341 -0.1225  0.1749
  220MOL0     O29596   3.118   2.077   7.914 -0.3936 -0.3070  1.1624
  220MOL0     C29597   3.254   2.062   7.944  0.1991  0.2783  0.4775
  220MOL0     C29598   3.338   2.180   7.944  0.2244 -0.4780  0.6472
  220MOL0     C29599   3.477   2.180   7.957  0.0057 -0.4358 -0.1228
  220MOL0     C29600   3.537   2.056   7.979 -0.8145 -0.7270  0.4156
  220MOL0     O29601   3.676   2.056   7.971  0.1707 -0.2147  0.4503
  220MOL0     C29602   3.742   1.967   7.886  0.2516  0.1511  0.0048
  220MOL0     C29603   3.878   2.019   7.847  0.2349 -0.2478 -0.4615
  220MOL0     C29604   3.971   2.091   7.952 -0.0409 -0.6022 -0.3492
  220MOL0     C29605   4.088   2.007   8.002  0.9051 -0.1901 -0.1899
  220MOL0     C29606   4.217   2.087   8.029  0.0879  0.5423  0.3739
  220MOL0     C29607   4.193   2.175   8.151  0.1029 -0.3105  1.0602
  220MOL0     C29608   4.319   2.261   8.174 -0.1242  0.0981 -0.0582
  220MOL0     C29609   4.315   2.312   8.314 -0.5393 -0.0224 -0.5572
  220MOL0    Cl29610   4.483   2.367   8.347 -0.1452  0.1218 -0.3808
  220MOL0     C29611   3.460   1.934   7.972  0.2422 -0.5461 -0.5979
  220MOL0     C29612   3.319   1.939   7.967  0.2649  0.2609 -0.8659
  220MOL0     O29613   3.045   1.984   8.108  0.4209  0.3563 -0.0178
  220MOL0     C29614   2.877   2.004   7.787 -0.7644 -0.7726 -1.2326
  220MOL0     C29615   2.777   1.947   7.709 -0.2020 -0.5090  0.5445
  220MOL0     N29616   1.943   1.748   7.710 -0.1439 -0.1947  0.2636
  220MOL0     N29617   1.907   1.696   7.818  0.0219  0.2168  0.0599
  220MOL0     C29618   1.894   2.563   8.477 -0.5199  0.7346  0.0534
  220MOL0     C29619   1.936   2.692   8.519 -0.1240 -0.1462 -0.5644
  220MOL0     C29620   1.837   3.159   8.630  0.2684  0.2631 -1.2008
  220MOL0     C29621   1.805   3.237   8.744  1.2357 -0.6812  0.0266
  220MOL0     C29622   1.824   3.373   8.731  0.6097 -0.5302 -0.0818
  220MOL0     C29623   1.881   3.434   8.617 -0.6806 -0.3273  0.1951
  220MOL0     O29624   1.910   3.562   8.597  0.1398  0.0049 -0.1106
  220MOL0     C29625   1.876   3.669   8.685  0.1055 -0.0825 -0.3008
  220MOL0     C29626   1.991   3.723   8.767 -0.8346  0.6882 -0.5708
  220MOL0     C29627   2.048   3.625   8.858 -0.1609 -0.5061 -0.3479
  220MOL0     C29628   2.147   3.688   8.953 -0.1028  0.0786 -0.1739
  220MOL0     C29629   2.178   3.592   9.059 -0.5671 -0.0934  0.3666
  220MOL0     C29630   2.186   3.513   9.146 -0.5531  0.2868 -0.2752
  220MOL0     C29631   1.909   3.352   8.502 -0.7124  0.3272 -0.4178
  220MOL0     C29632   1.889   3.217   8.512  0.5793  0.0812  0.4701
  220MOL0     H29633   1.645   2.851   8.478  0.0332 -0.1356  2.6519
  220MOL0     H29634   1.560   2.623   8.430  0.2059 -1.1156  1.7107
  220MOL0     H29635   1.551   2.451   8.292  0.1911 -0.7601  2.3732
  220MOL0     H29636   1.704   2.490   8.217 -1.6764  1.5761  0.2563
  220MOL0     H29637   1.566   2.224   8.279  1.1967  1.0060  1.8458
  220MOL0     H29638   1.598   2.290   8.114  0.7872  0.6429 -0.1571
  220MOL0     H29639   1.831   2.235   8.131 -1.2437  0.2564 -0.3653
  220MOL0     H29640   1.823   2.187   8.299  0.3564  1.3950  0.8354
  220MOL0     H29641   1.662   2.009   8.233  2.6926 -2.0811  1.2875
  220MOL0     H29642   1.699   2.050   8.054 -0.6796 -4.0995 -0.8651
  220MOL0     H29643   1.949   2.036   8.171  0.6148 -0.9098  0.0597
  220MOL0     H29644   1.856   1.933   8.285 -0.1188 -3.8489 -0.5644
  220MOL0     H29645   1.778   1.777   8.103 -1.1988 -0.0416 -0.2592
  220MOL0     H29646   1.852   1.880   7.984 -0.5291 -0.1905  0.0711
  220MOL0     H29647   2.078   1.827   8.091 -0.7936  0.5654 -1.2664
  220MOL0     H29648   1.984   1.740   8.215 -2.3061 -0.6302  0.6211
  220MOL0     H29649   1.929   1.568   8.060  1.0159  0.0470  0.9117
  220MOL0     H29650   2.104   1.608   8.080  0.3296  2.7252  2.6875
  220MOL0     H29651   2.230   1.690   7.873 -0.7563 -0.9877  1.0586
  220MOL0     H29652   2.161   1.744   7.513  2.4577 -0.0539 -0.5566
  220MOL0     H29653   2.113   1.909   7.562  1.1853  1.4311 -0.4236
  220MOL0     H29654   2.312   1.905   7.733  2.6178  1.5641 -0.2418
  220MOL0     H29655   2.340   1.925   7.564 -0.0262 -0.5643 -0.7398
  220MOL0     H29656   2.425   1.710   7.523 -1.3210 -3.5791 -0.5159
  220MOL0     H29657   2.322   1.636   7.653  1.5413 -0.6698  0.8908
  220MOL0     H29658   2.547   1.629   7.721  1.1725  0.5735 -0.0614
  220MOL0     H29659   2.453   1.743   7.821  0.5299  3.3341 -0.7677
  220MOL0     H29660   2.664   1.729   7.936  1.9831 -1.3142 -1.3354
  220MOL0     H29661   2.797   1.861   8.173  1.1244 -0.8469  1.3810
  220MOL0     H29662   2.796   1.694   8.106  1.1602  0.1792  1.5437
  220MOL0     H29663   2.947   1.781   8.106  0.9178  3.2416  3.6169
  220MOL0     H29664   3.279   2.268   7.917  1.2062 -0.1133 -0.4130
  220MOL0     H29665   3.539   2.268   7.940  1.6766 -1.9532 -2.3581
  220MOL0     H29666   3.747   1.865   7.926  0.8536 -0.8096 -2.3708
  220MOL0     H29667   3.683   1.941   7.798  0.5890 -0.6801  0.0134
  220MOL0     H29668   3.944   1.951   7.791  1.0817  1.4238 -1.5876
  220MOL0     H29669   3.838   2.090   7.775  0.5407  2.8395  2.1897
  220MOL0     H29670   3.912   2.128   8.036  2.8307 -1.3299  2.1694
  220MOL0     H29671   4.010   2.182   7.904  1.1007 -0.3351  1.0056
  220MOL0     H29672   4.067   1.957   8.097 -0.0802  2.0216  0.8493
  220MOL0     H29673   4.111   1.926   7.933 -0.1106  1.1514 -2.2142
  220MOL0     H29674   4.236   2.138   7.934 -1.4896  1.0347  0.3013
  220MOL0     H29675   4.300   2.017   8.043  0.4915  1.5877  4.1082
  220MOL0     H29676   4.108   2.241   8.130 -0.3646 -0.6178  1.9169
  220MOL0     H29677   4.170   2.111   8.236 -0.8034 -2.2497 -0.5372
  220MOL0     H29678   4.323   2.346   8.105  0.9909 -0.7723 -1.1136
  220MOL0     H29679   4.406   2.200   8.149 -2.3262 -3.3934  0.1554
  220MOL0     H29680   4.278   2.236   8.384 -0.7801  0.6993  0.1242
  220MOL0     H29681   4.249   2.398   8.322  0.7396  0.9004  0.5828
  220MOL0     H29682   3.508   1.837   7.964 -1.5316 -1.3085 -2.9439
  220MOL0     H29683   3.260   1.850   7.986  0.1908  0.5218  0.1466
  220MOL0     H29684   2.938   2.079   7.738 -1.2353  0.1843 -0.3893
  220MOL0     H29685   2.756   1.982   7.608  2.9874 -0.3239 -0.1549
  220MOL0     H29686   1.971   2.486   8.476 -2.0388 -0.8730  1.1188
  220MOL0     H29687   2.042   2.707   8.536 -0.3733  0.4253  0.5898
  220MOL0     H29688   1.775   3.193   8.838 -0.4842 -0.8681 -0.5595
  220MOL0     H29689   1.803   3.434   8.818  1.6793  0.2618 -0.3508
  220MOL0     H29690   1.831   3.742   8.617 -1.7455 -1.9733 -1.1892
  220MOL0     H29691   1.801   3.635   8.757 -0.0558  1.1672  0.1528
  220MOL0     H29692   1.953   3.803   8.831 -3.0786 -1.4563  0.9710
  220MOL0     H29693   2.069   3.765   8.702 -1.6421  2.0496 -0.7009
  220MOL0     H29694   2.095   3.545   8.800  1.8297  1.2546 -1.2871
  220MOL0     H29695   1.982   3.566   8.922  1.0560 -1.5832 -0.0278
  220MOL0     H29696   2.097   3.773   9.000 -0.6968 -0.9937  1.1996
  220MOL0     H29697   2.237   3.720   8.899  0.3831  0.4255  0.8326
  220MOL0     H29698   2.174   3.429   9.211  1.3736 -0.7435 -1.1354
  220MOL0     H29699   1.955   3.391   8.412 -0.6475 -0.5706 -0.7945
  220MOL0     H29700   1.901   3.163   8.419  1.4510 -1.7840  1.6036
  221MOL0     O29701   5.424  11.092   9.714  0.1080  0.9653  0.8954
  221MOL0     C29702   5.502  11.128   9.627 -0.7546  0.3123 -0.0135
  221MOL0     O29703   5.462  11.188   9.507  0.1548 -0.0829  0.4173
  221MOL0     C29704   5.327  11.215   9.476  0.0169 -0.4461 -0.0794
  221MOL0     C29705   5.282  11.211   9.343 -0.7287 -0.2695 -0.0017
  221MOL0     C29706   5.151  11.236   9.302  0.3741  0.3465 -0.1173
  221MOL0     C29707   5.056  11.251   9.400  0.2217  0.1362  0.3413
  221MOL0     O29708   4.928  11.263   9.351 -0.4816  0.1543  0.1134
  221MOL0     C29709   4.821  11.309   9.434 -1.2938 -0.4422 -0.2697
  221MOL0     C29710   4.692  11.318   9.350 -1.1580 -0.1290  0.0175
  221MOL0     C29711   4.603  11.418   9.419 -0.6759 -0.8360  0.5120
  221MOL0     C29712   4.466  11.427   9.368 -0.1685  0.2468  0.2606
  221MOL0     C29713   4.365  11.504   9.460 -0.0035  0.0262  0.3380
  221MOL0     C29714   4.238  11.546   9.402  0.8251 -0.4432  0.1818
  221MOL0     C29715   4.159  11.435   9.331  0.0144  1.2467  0.0545
  221MOL0     C29716   4.024  11.495   9.300 -0.1046  0.3535 -0.1421
  221MOL0     N29717   3.935  11.393   9.243 -0.7766 -0.4920 -0.0250
  221MOL0     C29718   3.803  11.392   9.269 -0.5702 -0.3876 -0.1569
  221MOL0     C29719   3.754  11.290   9.195 -0.0834 -0.6616 -0.6119
  221MOL0     C29720   3.621  11.225   9.188  0.9740 -0.3231 -0.4223
  221MOL0     C29721   3.521  11.320   9.111  0.2094 -0.4365  0.2670
  221MOL0     C29722   3.399  11.255   9.056  0.4340 -0.6808 -0.4063
  221MOL0     C29723   3.313  11.181   9.166  0.3565  0.5096  0.1066
  221MOL0     O29724   3.225  11.252   9.257  0.1824 -0.5757  0.5295
  221MOL0     C29725   3.087  11.228   9.239  0.5558  0.0011 -0.5109
  221MOL0     C29726   2.995  11.219   9.343  0.2913 -0.5146  0.4978
  221MOL0     C29727   2.863  11.189   9.322 -0.5411  0.1616 -0.2170
  221MOL0     C29728   2.787  11.176   9.450  0.8422 -0.1267 -1.2830
  221MOL0     C29729   2.810  11.182   9.187 -0.0296 -0.4866 -0.1220
  221MOL0     C29730   2.660  11.164   9.163  0.0104  0.1570 -0.3828
  221MOL0     O29731   2.612  11.182   9.038 -0.2552 -0.2424  0.2380
  221MOL0     C29732   2.476  11.176   9.013  0.0766  0.4020 -0.9867
  221MOL0     C29733   2.391  11.288   9.039 -0.0519  0.6534 -0.2559
  221MOL0     C29734   2.255  11.291   9.014 -0.3946  0.4200  0.4121
  221MOL0     C29735   2.204  11.178   8.962 -0.2189  0.0644  0.5889
  221MOL0     O29736   2.074  11.190   8.944 -0.4253 -0.3229 -0.3787
  221MOL0     C29737   2.004  11.102   9.014 -0.7502 -0.2823  0.7150
  221MOL0     C29738   1.869  11.113   8.950 -0.0052  0.5775  0.3036
  221MOL0     C29739   1.769  11.011   9.012 -0.9938  0.6207 -0.1896
  221MOL0     C29740   1.626  11.065   9.016  0.4760 -0.5815  0.2756
  221MOL0     C29741   1.570  11.093   8.867  0.0645  0.7821  0.0252
  221MOL0     C29742   1.623  11.234   8.803 -0.4729 -0.6869  0.2326
  221MOL0     C29743   1.544  11.281   8.681 -0.4732  0.5732  0.4510
  221MOL0     C29744   1.542  11.437   8.649 -0.0803 -0.2299 -0.2071
  221MOL0    Cl29745   1.480  11.507   8.797 -0.3516  0.4244 -0.2617
  221MOL0     C29746   2.286  11.064   8.918 -0.2476 -0.0754 -0.5217
  221MOL0     C29747   2.423  11.062   8.945 -0.0331 -0.1534  0.7902
  221MOL0     O29748   2.599  11.128   9.260 -0.5329 -0.5990  0.3475
  221MOL0     C29749   2.905  11.202   9.083  1.1172  0.1276 -0.3503
  221MOL0     C29750   3.034  11.241   9.113 -0.0642  0.5928  1.1165
  221MOL0     N29751   3.867  11.228   9.137  0.8866 -0.3567  0.6886
  221MOL0     N29752   3.970  11.296   9.157  0.2227  0.0030 -0.1072
  221MOL0     C29753   5.094  11.267   9.536  0.1480  0.5503  0.7266
  221MOL0     C29754   5.223  11.238   9.570 -0.1937 -0.1653 -0.2208
  221MOL0     C29755   5.641  11.091   9.640 -0.2121  0.3350  0.4657
  221MOL0     C29756   5.730  11.102   9.525 -0.4288 -0.3292 -0.3828
  221MOL0     C29757   5.857  11.057   9.533  0.1021  0.6313  0.5176
  221MOL0     C29758   5.909  10.997   9.651 -0.2818  0.5071  0.4757
  221MOL0     O29759   6.039  10.947   9.658  0.7718  0.0753  0.8224
  221MOL0     C29760   6.117  10.931   9.545 -0.2637 -0.2534 -0.3375
  221MOL0     C29761   6.232  10.835   9.558  0.3407  0.0310  0.4106
  221MOL0     C29762   6.333  10.881   9.651 -0.6175  0.9208  0.8825
  221MOL0     C29763   6.470  10.795   9.651  0.8705 -0.4636 -0.1112
  221MOL0     C29764   6.560  10.838   9.763  0.3222  0.1597 -0.6218
  221MOL0     C29765   6.631  10.872   9.867  0.4321  0.6728 -0.4842
  221MOL0     C29766   5.827  10.993   9.765 -0.4540  0.5161  0.2812
  221MOL0     C29767   5.694  11.031   9.749 -0.1158  0.0068 -0.2339
  221MOL0     H29768   5.361  11.180   9.275 -2.1323 -0.6222 -1.5530
  221MOL0     H29769   5.118  11.220   9.200 -3.1570  0.2726  0.9039
  221MOL0     H29770   4.810  11.247   9.524  0.0860 -1.1589 -0.5736
  221MOL0     H29771   4.861  11.406   9.465  1.5445 -1.0455 -1.7217
  221MOL0     H29772   4.708  11.353   9.248 -0.6948  2.7857  0.9837
  221MOL0     H29773   4.644  11.220   9.342  1.1118 -1.3325  0.2859
  221MOL0     H29774   4.594  11.386   9.523  1.3899 -1.2289  0.6051
  221MOL0     H29775   4.644  11.518   9.432 -3.7086  0.8275 -1.5898
  221MOL0     H29776   4.477  11.482   9.274 -1.1546  0.0938  0.0490
  221MOL0     H29777   4.422  11.330   9.342 -0.3076  0.0683  1.1466
  221MOL0     H29778   4.341  11.439   9.545 -1.9440 -2.6071 -2.0112
  221MOL0     H29779   4.415  11.593   9.500 -1.9743  1.2084  0.3283
  221MOL0     H29780   4.178  11.563   9.492 -0.1953 -1.3797 -0.2940
  221MOL0     H29781   4.259  11.632   9.338  0.3966 -1.8788 -2.0117
  221MOL0     H29782   4.215  11.413   9.239 -0.0146  1.6952 -0.0748
  221MOL0     H29783   4.153  11.342   9.389  0.9153 -0.2804 -2.1596
  221MOL0     H29784   4.040  11.562   9.215  2.0570  0.1649  0.0652
  221MOL0     H29785   3.973  11.542   9.385 -0.6700 -2.0271  0.9251
  221MOL0     H29786   3.743  11.450   9.337 -1.5392  0.1458 -1.4337
  221MOL0     H29787   3.631  11.142   9.117  1.8201  0.0832 -0.8004
  221MOL0     H29788   3.589  11.191   9.286 -1.0735 -2.9238 -1.8767
  221MOL0     H29789   3.566  11.369   9.024 -1.4948  0.1952 -0.2935
  221MOL0     H29790   3.492  11.397   9.183  1.5881 -1.6388  2.2131
  221MOL0     H29791   3.424  11.182   8.979  1.8108 -0.3669 -0.2799
  221MOL0     H29792   3.333  11.330   9.012  1.1461  1.7561  2.3660
  221MOL0     H29793   3.374  11.135   9.244  1.6026 -0.3732 -1.3293
  221MOL0     H29794   3.267  11.102   9.107  2.2670 -0.4543 -0.1806
  221MOL0     H29795   3.045  11.222   9.439  1.1950 -2.6929  0.1676
  221MOL0     H29796   2.728  11.264   9.472  1.7130  0.2922 -0.5586
  221MOL0     H29797   2.721  11.089   9.455 -0.5690  0.8780 -1.9157
  221MOL0     H29798   2.853  11.164   9.537 -0.3636 -0.8371 -0.4396
  221MOL0     H29799   2.438  11.374   9.084  0.2067  0.6020 -0.4270
  221MOL0     H29800   2.199  11.381   9.040  1.1408  0.9117  2.2683
  221MOL0     H29801   2.046  11.003   8.995 -0.4517 -0.8390  3.7831
  221MOL0     H29802   2.007  11.125   9.121  0.5395  0.8302  0.4565
  221MOL0     H29803   1.824  11.212   8.966 -4.1514 -1.2027  0.8325
  221MOL0     H29804   1.880  11.085   8.845 -5.0876 -0.3802 -0.2386
  221MOL0     H29805   1.799  11.003   9.117 -2.6953 -1.6534  0.1904
  221MOL0     H29806   1.775  10.915   8.960  1.0416  0.0001  1.0879
  221MOL0     H29807   1.563  11.001   9.077  0.9473 -1.4326 -0.1127
  221MOL0     H29808   1.621  11.164   9.062 -0.3379 -1.2059  1.5779
  221MOL0     H29809   1.461  11.094   8.866 -0.0554 -1.2101 -3.1917
  221MOL0     H29810   1.591  11.008   8.802  0.4027 -0.1536  1.3331
  221MOL0     H29811   1.611  11.307   8.883  0.0638 -1.1281  0.7226
  221MOL0     H29812   1.730  11.240   8.784 -0.6184 -0.7581 -0.6512
  221MOL0     H29813   1.440  11.249   8.694 -1.0229  1.6572 -1.0187
  221MOL0     H29814   1.571  11.218   8.596 -2.3629  0.3614 -0.0497
  221MOL0     H29815   1.467  11.463   8.573  0.2867  1.2673 -0.0754
  221MOL0     H29816   1.637  11.480   8.616  0.2198 -2.9368 -3.3816
  221MOL0     H29817   2.231  10.984   8.868 -1.4157  0.3152  0.0966
  221MOL0     H29818   2.488  10.982   8.912 -0.5241  0.5411 -2.0695
  221MOL0     H29819   2.874  11.196   8.979 -3.4277 -2.9276  0.8899
  221MOL0     H29820   3.090  11.297   9.039 -0.4083  0.6734  0.9123
  221MOL0     H29821   5.015  11.291   9.608 -0.8574 -2.0707  0.6069
  221MOL0     H29822   5.261  11.260   9.669  3.1637  2.0242 -1.7834
  221MOL0     H29823   5.698  11.157   9.436 -0.8901  0.5762  0.3276
  221MOL0     H29824   5.921  11.063   9.445  0.3898  1.6472  0.7724
  221MOL0     H29825   6.057  10.898   9.459 -2.6522  2.1769  0.2811
  221MOL0     H29826   6.151  11.031   9.517  1.1703 -0.8031 -0.6465
  221MOL0     H29827   6.272  10.817   9.458 -1.4296 -4.2732  0.2471
  221MOL0     H29828   6.183  10.739   9.578  1.7888 -1.1511 -1.4546
  221MOL0     H29829   6.286  10.872   9.749 -1.2697  0.2951  0.5195
  221MOL0     H29830   6.358  10.983   9.621  0.5992  0.3701 -0.0885
  221MOL0     H29831   6.520  10.819   9.557  3.3967 -0.4407  1.1642
  221MOL0     H29832   6.444  10.690   9.667 -0.5518  0.2188  2.5521
  221MOL0     H29833   6.684  10.874   9.960  0.6719 -1.4682 -0.5417
  221MOL0     H29834   5.846  10.948   9.861  0.2605 -1.4784 -0.7399
  221MOL0     H29835   5.620  11.021   9.827 -1.8306  0.9781 -1.6627
  222MOL0     O29836  10.324   6.101   0.196  0.3149 -0.1408 -0.2107
  222MOL0     C29837  10.274   6.200   0.149  0.2984 -0.6681  0.6759
  222MOL0     O29838  10.192   6.207   0.041  0.0551  0.4737 -0.3963
  222MOL0     C29839  10.179   6.104  -0.043  0.5166  0.3816  0.3771
  222MOL0     C29840  10.291   6.066  -0.115 -0.0409  0.1857  0.6946
  222MOL0     C29841  10.285   5.949  -0.193 -0.4233 -0.8802 -0.7780
  222MOL0     C29842  10.172   5.868  -0.202 -0.0819  0.1741 -0.0669
  222MOL0     O29843  10.179   5.765  -0.293 -0.5212 -0.5052  0.4182
  222MOL0     C29844  10.050   5.717  -0.320  0.1756  0.0661  0.2783
  222MOL0     C29845  10.056   5.610  -0.429  0.3768  0.0725  0.2713
  222MOL0     C29846  10.130   5.479  -0.381 -0.5026 -0.9233 -0.4553
  222MOL0     C29847  10.165   5.389  -0.497 -0.3804 -0.9892  1.1215
  222MOL0     C29848  10.186   5.250  -0.445  0.6646  0.4883 -0.2855
  222MOL0     C29849  10.313   5.229  -0.357  0.5398  0.1589  0.7184
  222MOL0     C29850  10.445   5.269  -0.419 -0.0923 -0.4113 -0.0019
  222MOL0     C29851  10.487   5.172  -0.528 -0.0409  0.5999  0.7098
  222MOL0     N29852  10.624   5.206  -0.569 -0.3641  0.3816 -0.0105
  222MOL0     C29853  10.722   5.250  -0.490 -0.8268  0.4809 -0.1078
  222MOL0     C29854  10.827   5.277  -0.566 -0.7328 -0.0840  0.4498
  222MOL0     C29855  10.962   5.315  -0.512  0.8403  0.2797  0.2984
  222MOL0     C29856  11.077   5.221  -0.576  0.3340  1.0852  0.7223
  222MOL0     C29857  11.072   5.078  -0.521 -0.2061  0.3874  0.1651
  222MOL0     C29858  11.163   4.981  -0.600  0.6945  0.6630  0.6451
  222MOL0     O29859  11.129   4.843  -0.560  0.1356  0.3928 -0.3616
  222MOL0     C29860  11.020   4.775  -0.613 -0.0749  0.1534 -0.1757
  222MOL0     C29861  10.988   4.641  -0.595 -0.1530  0.6549 -0.3331
  222MOL0     C29862  10.884   4.570  -0.652  0.6068 -0.2293  0.3321
  222MOL0     C29863  10.889   4.423  -0.631 -0.0923 -0.4459 -0.8510
  222MOL0     C29864  10.799   4.634  -0.737  0.9519  0.0065 -0.4574
  222MOL0     C29865  10.680   4.575  -0.802  0.4349 -0.6183 -0.3051
  222MOL0     O29866  10.644   4.455  -0.754 -0.0670  0.7102 -0.3256
  222MOL0     C29867  10.534   4.385  -0.814 -0.0370 -0.5853 -0.7135
  222MOL0     C29868  10.563   4.258  -0.869  0.3088 -0.5190 -0.3360
  222MOL0     C29869  10.471   4.187  -0.945  0.0141 -0.6178  0.8597
  222MOL0     C29870  10.341   4.235  -0.960 -0.6194  0.4136  0.6569
  222MOL0     O29871  10.254   4.163  -1.032 -0.0043  0.8745  0.9982
  222MOL0     C29872  10.157   4.113  -0.947  0.0147  0.5197 -0.8339
  222MOL0     C29873  10.058   4.030  -1.032 -0.3795 -0.5798 -0.3827
  222MOL0     C29874   9.984   4.114  -1.140 -0.6965 -0.2563  0.1346
  222MOL0     C29875   9.899   4.024  -1.210  1.1927  0.5975  0.0722
  222MOL0     C29876   9.830   4.093  -1.334 -0.0675 -0.0972  0.1717
  222MOL0     C29877   9.730   4.005  -1.407 -0.5102  0.4771 -0.1067
  222MOL0     C29878   9.669   4.097  -1.518  0.0714 -0.4065 -0.2349
  222MOL0     C29879   9.594   4.002  -1.609 -0.1978  0.6924 -0.2054
  222MOL0    Cl29880   9.450   3.925  -1.526  0.2361 -0.2175  0.0106
  222MOL0     C29881  10.310   4.361  -0.911 -0.1475 -0.1391 -0.7016
  222MOL0     C29882  10.400   4.433  -0.826 -0.3489  0.6610 -0.0302
  222MOL0     O29883  10.635   4.644  -0.897  0.4216 -0.0493 -0.6236
  222MOL0     C29884  10.818   4.774  -0.751 -0.4588 -0.3563  0.0713
  222MOL0     C29885  10.928   4.845  -0.697 -0.8022 -0.1627 -0.3398
  222MOL0     N29886  10.792   5.236  -0.696  0.1016  0.4418 -0.2294
  222MOL0     N29887  10.669   5.197  -0.698 -0.4749  0.2866  0.4127
  222MOL0     C29888  10.063   5.909  -0.128  0.0675  0.9059  0.1644
  222MOL0     C29889  10.067   6.024  -0.041 -0.5760  0.3004 -0.2610
  222MOL0     C29890  10.310   6.328   0.216 -0.1762 -0.5460  0.4162
  222MOL0     C29891  10.374   6.330   0.342  0.9741  0.2307  0.6240
  222MOL0     C29892  10.412   6.447   0.405  0.1714 -0.1607 -0.6683
  222MOL0     C29893  10.397   6.576   0.340  0.3518  0.1475 -0.4036
  222MOL0     O29894  10.430   6.697   0.397 -0.0706  0.0958 -0.2508
  222MOL0     C29895  10.499   6.694   0.527  0.8473 -0.7611 -0.1910
  222MOL0     C29896  10.565   6.835   0.552  0.8956  0.8967 -0.0817
  222MOL0     C29897  10.644   6.843   0.687  0.3228 -0.1792 -0.3238
  222MOL0     C29898  10.561   6.821   0.808  0.3669  0.4204 -0.1668
  222MOL0     C29899  10.464   6.938   0.821  0.0905  0.3319  0.0496
  222MOL0     C29900  10.392   7.031   0.848 -1.0487 -0.1651 -0.4018
  222MOL0     C29901  10.338   6.577   0.208  0.7160 -0.6809  0.6279
  222MOL0     C29902  10.299   6.449   0.143 -0.8191  0.1366  0.5425
  222MOL0     H29903  10.381   6.126  -0.105  0.3346 -0.0288 -1.0766
  222MOL0     H29904  10.368   5.942  -0.262 -0.1939  3.1231 -1.1397
  222MOL0     H29905  10.013   5.663  -0.231 -0.2490 -1.9593 -1.0551
  222MOL0     H29906   9.976   5.794  -0.346  0.0720 -1.1911 -3.8553
  222MOL0     H29907   9.953   5.585  -0.456 -0.0195 -1.4814  2.8288
  222MOL0     H29908  10.113   5.654  -0.511 -1.0722 -2.6309 -2.4072
  222MOL0     H29909  10.221   5.493  -0.323 -2.2416  1.5714  1.9272
  222MOL0     H29910  10.064   5.425  -0.313 -1.7603 -0.9450 -1.6325
  222MOL0     H29911  10.085   5.386  -0.572  0.9893  2.8888 -0.7665
  222MOL0     H29912  10.252   5.418  -0.557 -0.7081 -1.7566  0.2499
  222MOL0     H29913  10.099   5.230  -0.381  0.0401  3.9410  0.1379
  222MOL0     H29914  10.182   5.179  -0.529 -0.3730  0.6891 -0.4301
  222MOL0     H29915  10.293   5.287  -0.267 -1.6334  3.1594 -1.5108
  222MOL0     H29916  10.327   5.123  -0.335  2.7818  0.8947  3.3561
  222MOL0     H29917  10.447   5.373  -0.454 -3.2024 -0.3420 -0.2301
  222MOL0     H29918  10.516   5.266  -0.335 -1.7818  0.7978  1.5449
  222MOL0     H29919  10.410   5.169  -0.606 -0.8701  0.8907  1.4886
  222MOL0     H29920  10.494   5.072  -0.485  0.3346 -0.5100 -1.7628
  222MOL0     H29921  10.717   5.230  -0.383  1.7830 -0.8442 -0.1691
  222MOL0     H29922  10.992   5.413  -0.550  1.1473  0.6276  1.4074
  222MOL0     H29923  10.957   5.322  -0.403  3.0067  1.9518  0.3456
  222MOL0     H29924  11.173   5.269  -0.559  0.9788  0.4763 -0.9910
  222MOL0     H29925  11.055   5.216  -0.683  0.3659 -3.2031  0.7312
  222MOL0     H29926  10.972   5.038  -0.505 -0.6900  0.3712 -2.4230
  222MOL0     H29927  11.116   5.083  -0.421 -0.3862 -0.8020  0.3233
  222MOL0     H29928  11.266   5.014  -0.580  0.0936  2.7168  0.6303
  222MOL0     H29929  11.156   4.997  -0.708 -2.3117  0.6874  0.7612
  222MOL0     H29930  11.058   4.581  -0.538 -0.2569  0.5317 -0.3337
  222MOL0     H29931  10.971   4.403  -0.561 -0.4239  0.4101 -0.2191
  222MOL0     H29932  10.798   4.388  -0.582 -0.4474 -2.5241 -2.8205
  222MOL0     H29933  10.907   4.363  -0.721 -1.3729 -3.9236  0.9856
  222MOL0     H29934  10.660   4.215  -0.847  0.4119  0.0966  0.4669
  222MOL0     H29935  10.498   4.090  -0.987 -0.6018 -1.0281  1.3878
  222MOL0     H29936  10.196   4.045  -0.871  0.1619  2.2126  0.6919
  222MOL0     H29937  10.096   4.195  -0.907  1.2404  0.5114  1.1968
  222MOL0     H29938  10.117   3.947  -1.072  1.2810 -0.6511  2.0521
  222MOL0     H29939   9.982   3.979  -0.973 -0.8265 -0.7665 -1.1097
  222MOL0     H29940  10.056   4.158  -1.210  2.3555 -3.0059  1.2965
  222MOL0     H29941   9.941   4.200  -1.089  3.3453  1.6833  0.6247
  222MOL0     H29942   9.955   3.938  -1.246  0.1748  0.2560 -0.7479
  222MOL0     H29943   9.824   3.971  -1.150  1.9281 -0.8291 -0.2223
  222MOL0     H29944   9.910   4.112  -1.407  1.2353  0.7117  1.7350
  222MOL0     H29945   9.785   4.188  -1.304  2.7260  1.2021  0.6309
  222MOL0     H29946   9.793   3.928  -1.454  0.6204  2.1704 -1.5445
  222MOL0     H29947   9.658   3.963  -1.337 -1.0727  1.1982 -0.2398
  222MOL0     H29948   9.744   4.153  -1.575 -0.4003  2.5709  1.8711
  222MOL0     H29949   9.598   4.169  -1.477  2.7178  1.9604  0.4366
  222MOL0     H29950   9.664   3.920  -1.632 -0.9919 -0.3725  1.0246
  222MOL0     H29951   9.564   4.054  -1.701 -0.7011 -0.6087 -0.8077
  222MOL0     H29952  10.213   4.407  -0.926  1.0293  2.0858 -1.9982
  222MOL0     H29953  10.359   4.528  -0.794 -1.9065 -0.0892  0.2932
  222MOL0     H29954  10.742   4.840  -0.793  0.4928  0.8084  0.1145
  222MOL0     H29955  10.946   4.950  -0.718 -0.2934  0.6630  3.5545
  222MOL0     H29956   9.967   5.858  -0.126  0.2400  0.5707  1.7453
  222MOL0     H29957   9.987   6.043   0.030 -0.7061 -1.2251  0.0297
  222MOL0     H29958  10.403   6.246   0.404 -0.9914 -0.8031  0.2224
  222MOL0     H29959  10.444   6.437   0.508 -2.4455  1.8928  0.4709
  222MOL0     H29960  10.427   6.661   0.603  1.6866 -2.5958 -0.1533
  222MOL0     H29961  10.571   6.612   0.527 -1.9295 -3.3858  0.9030
  222MOL0     H29962  10.488   6.912   0.559  0.7937  0.6734  1.5566
  222MOL0     H29963  10.630   6.861   0.467  1.2003  2.9630  0.7103
  222MOL0     H29964  10.693   6.941   0.695 -3.8011  2.0848  0.1009
  222MOL0     H29965  10.711   6.757   0.695 -1.3737 -1.6634 -1.4345
  222MOL0     H29966  10.623   6.808   0.897 -0.4915 -0.7874  0.2755
  222MOL0     H29967  10.504   6.728   0.801  1.9558 -0.7646  1.5842
  222MOL0     H29968  10.321   7.110   0.864  1.0044  1.7681 -0.3114
  222MOL0     H29969  10.327   6.675   0.162  0.7950 -0.8817  0.1712
  222MOL0     H29970  10.259   6.450   0.042  0.7807  0.3911 -0.1164
  223MOL0     O29971  10.793   9.131   6.653  0.1486 -0.2664  0.1576
  223MOL0     C29972  10.877   9.032   6.654  1.0735 -0.5887  0.3214
  223MOL0     O29973  10.871   8.916   6.581  0.3233  0.2986 -0.4764
  223MOL0     C29974  10.757   8.884   6.513 -0.6215  0.0092  0.1607
  223MOL0     C29975  10.688   8.767   6.539  0.4793  0.3263  0.1227
  223MOL0     C29976  10.559   8.749   6.490 -0.6028  0.4192  0.5691
  223MOL0     C29977  10.502   8.837   6.411  0.6682 -0.0963  0.4391
  223MOL0     O29978  10.381   8.796   6.357 -0.3202 -0.8118  0.5244
  223MOL0     C29979  10.324   8.866   6.245 -0.1457  0.2853  0.4252
  223MOL0     C29980  10.194   8.803   6.191  0.6905 -1.0998  0.7505
  223MOL0     C29981  10.121   8.875   6.073 -0.1232  0.1007  0.6042
  223MOL0     C29982   9.992   8.798   6.031  0.5589 -0.0538 -0.1752
  223MOL0     C29983   9.919   8.833   5.900 -0.0651  0.7492 -0.8039
  223MOL0     C29984   9.779   8.770   5.905  0.4718 -0.4310 -0.0878
  223MOL0     C29985   9.676   8.820   5.794 -0.5418 -0.4887 -0.8844
  223MOL0     C29986   9.523   8.792   5.840 -0.5408 -0.1380  0.1290
  223MOL0     N29987   9.511   8.658   5.882  1.3016  0.8900 -0.2048
  223MOL0     C29988   9.478   8.547   5.799  0.2406  0.0663 -0.0031
  223MOL0     C29989   9.481   8.432   5.877  0.0069 -0.5761  0.4960
  223MOL0     C29990   9.481   8.284   5.841 -0.2203 -0.0662 -0.3313
  223MOL0     C29991   9.334   8.233   5.838 -0.4699  0.8699  0.2427
  223MOL0     C29992   9.262   8.253   5.971 -0.4427 -0.7401 -0.2036
  223MOL0     C29993   9.129   8.175   5.974  0.1709  0.1316  0.0369
  223MOL0     O29994   9.049   8.243   5.874 -0.0085  0.5622 -0.1161
  223MOL0     C29995   8.975   8.159   5.796 -0.0632  0.0995  0.5158
  223MOL0     C29996   9.022   8.131   5.667 -0.2501  0.1872 -0.0160
  223MOL0     C29997   8.950   8.063   5.575  0.0289 -1.3101  0.1199
  223MOL0     C29998   9.015   8.056   5.441  0.3217 -0.4329 -0.1047
  223MOL0     C29999   8.816   8.026   5.601  0.4409 -0.3813 -0.1164
  223MOL0     C30000   8.724   7.969   5.499 -0.3081  0.0444 -0.7550
  223MOL0     O30001   8.602   7.936   5.551  0.2298 -0.0772  0.0017
  223MOL0     C30002   8.499   7.903   5.465  0.5962 -0.1659  0.2658
  223MOL0     C30003   8.420   7.789   5.502  0.5993 -0.0051 -0.1484
  223MOL0     C30004   8.308   7.751   5.422 -0.8530 -0.0087 -0.5097
  223MOL0     C30005   8.272   7.823   5.307 -0.9235  0.6311  0.6300
  223MOL0     O30006   8.168   7.801   5.224 -0.2894  0.2018 -0.4048
  223MOL0     C30007   8.062   7.716   5.273  0.9047  0.8397 -0.1443
  223MOL0     C30008   7.924   7.766   5.232 -0.6252  0.5539 -0.3571
  223MOL0     C30009   7.910   7.763   5.081  0.4085 -0.4530  0.3848
  223MOL0     C30010   7.752   7.795   5.043 -1.4902  0.2049 -0.4706
  223MOL0     C30011   7.730   7.821   4.894  0.0367  0.4943 -0.6209
  223MOL0     C30012   7.585   7.845   4.866  0.5513 -0.1105  0.6593
  223MOL0     C30013   7.517   7.705   4.857  0.8560  0.3159  0.2552
  223MOL0     C30014   7.371   7.728   4.797 -0.2057 -0.8097  0.1797
  223MOL0    Cl30015   7.291   7.569   4.774  0.0605  0.0118 -0.7101
  223MOL0     C30016   8.354   7.934   5.266  0.2224  0.5749  0.2712
  223MOL0     C30017   8.465   7.975   5.345 -0.3078 -0.5116  0.0303
  223MOL0     O30018   8.753   7.961   5.379  0.2702  0.0647 -0.0689
  223MOL0     C30019   8.760   8.067   5.725 -0.0508  0.6622  0.2322
  223MOL0     C30020   8.844   8.121   5.826  0.1016 -0.2352 -0.3332
  223MOL0     N30021   9.505   8.479   6.008 -0.5435  0.3131 -0.2832
  223MOL0     N30022   9.516   8.609   6.007 -0.3060 -0.1895 -0.2104
  223MOL0     C30023  10.561   8.958   6.385  1.3144 -0.0199  0.5996
  223MOL0     C30024  10.701   8.974   6.422  0.4659  0.6502  0.2391
  223MOL0     C30025  10.995   9.068   6.719  0.4343  0.0681  0.3790
  223MOL0     C30026  10.999   9.144   6.837 -0.6200  1.3638  0.1171
  223MOL0     C30027  11.125   9.181   6.893  0.2741 -0.0243 -0.1225
  223MOL0     C30028  11.245   9.136   6.828 -0.6570 -0.7177  0.3311
  223MOL0     O30029  11.367   9.180   6.869  0.0727  0.3683  0.3724
  223MOL0     C30030  11.380   9.245   6.994 -0.8666 -0.2777 -0.2387
  223MOL0     C30031  11.522   9.245   7.060 -0.0433 -0.7493  0.0504
  223MOL0     C30032  11.631   9.260   6.961  0.1725  0.3428  0.6382
  223MOL0     C30033  11.621   9.383   6.873 -0.4863 -0.6199 -0.1685
  223MOL0     C30034  11.741   9.372   6.788 -0.6415  0.0588 -0.0091
  223MOL0     C30035  11.831   9.362   6.708  1.3011  0.7729  0.1353
  223MOL0     C30036  11.236   9.060   6.712  0.2476  0.2486  0.1744
  223MOL0     C30037  11.115   9.024   6.660  0.5068 -0.0651  0.4278
  223MOL0     H30038  10.737   8.688   6.596  1.7887  1.1867  0.2417
  223MOL0     H30039  10.509   8.654   6.509  0.0039  0.2990  1.6346
  223MOL0     H30040  10.307   8.969   6.277 -0.8056  1.3746 -3.0254
  223MOL0     H30041  10.397   8.866   6.164  0.1452  1.2418  0.6717
  223MOL0     H30042  10.204   8.695   6.174 -0.6745 -1.9230  4.2902
  223MOL0     H30043  10.130   8.801   6.279 -0.0107 -0.7896  0.2493
  223MOL0     H30044  10.091   8.978   6.094 -3.1753 -0.3445 -1.0486
  223MOL0     H30045  10.183   8.879   5.983 -0.4336 -3.0332  0.1197
  223MOL0     H30046  10.032   8.696   6.024 -0.1968 -0.3291 -0.6885
  223MOL0     H30047   9.919   8.787   6.112  1.2636 -3.7502  0.1652
  223MOL0     H30048   9.903   8.941   5.891 -1.1199  0.7479  0.6091
  223MOL0     H30049   9.981   8.785   5.825 -0.3698 -1.6968  0.3865
  223MOL0     H30050   9.791   8.662   5.900  0.5143 -0.5644  2.0628
  223MOL0     H30051   9.731   8.796   6.000 -2.8857  2.9077 -2.4423
  223MOL0     H30052   9.684   8.929   5.793 -3.0035 -0.1502  2.1738
  223MOL0     H30053   9.697   8.782   5.694  0.4778  1.1444 -1.3251
  223MOL0     H30054   9.455   8.810   5.757  0.3883 -0.6772 -0.7679
  223MOL0     H30055   9.498   8.859   5.923  1.0356  2.3624 -1.2786
  223MOL0     H30056   9.459   8.552   5.692 -0.5217 -4.3200 -0.2890
  223MOL0     H30057   9.527   8.268   5.743  0.5814 -3.6133  0.4681
  223MOL0     H30058   9.539   8.225   5.913 -3.3526 -2.5811  0.3254
  223MOL0     H30059   9.325   8.129   5.805 -2.3933  1.2499 -0.6121
  223MOL0     H30060   9.275   8.292   5.766  1.2913  2.8116  0.2924
  223MOL0     H30061   9.256   8.354   6.014  2.1101 -1.2976  1.7254
  223MOL0     H30062   9.321   8.208   6.052 -0.0075 -0.4319 -0.3431
  223MOL0     H30063   9.081   8.171   6.073  1.6489  0.6231  0.8005
  223MOL0     H30064   9.140   8.072   5.938 -2.1302  0.2820 -1.2978
  223MOL0     H30065   9.128   8.150   5.651  0.2572 -2.0777  0.1857
  223MOL0     H30066   9.110   8.111   5.436  1.1938 -1.9862 -1.3082
  223MOL0     H30067   9.037   7.953   5.413  0.6340 -0.6169  0.7849
  223MOL0     H30068   8.947   8.111   5.375  1.1078  1.6639  0.7300
  223MOL0     H30069   8.442   7.742   5.597  2.0257 -0.4868 -0.6780
  223MOL0     H30070   8.248   7.666   5.451  2.1694 -2.1267 -0.0586
  223MOL0     H30071   8.069   7.616   5.229  2.4739 -0.1692  2.1984
  223MOL0     H30072   8.055   7.698   5.381  2.2852  0.8273 -0.0389
  223MOL0     H30073   7.858   7.698   5.286  2.0740 -0.0298  2.5071
  223MOL0     H30074   7.907   7.864   5.279  0.6213  0.5384  0.1551
  223MOL0     H30075   7.947   7.671   5.036  0.6032  0.0065 -0.4229
  223MOL0     H30076   7.966   7.847   5.037  2.4395 -1.3947  1.0334
  223MOL0     H30077   7.704   7.706   5.085  1.8476 -2.6065 -2.0508
  223MOL0     H30078   7.714   7.884   5.092 -0.9697 -0.2500  0.7917
  223MOL0     H30079   7.771   7.743   4.829  0.3958 -1.0443  1.3405
  223MOL0     H30080   7.789   7.907   4.860 -0.0531  1.3631  1.2844
  223MOL0     H30081   7.537   7.914   4.936  1.3258  0.6983  0.4117
  223MOL0     H30082   7.572   7.894   4.770 -2.9204 -1.5225  0.2782
  223MOL0     H30083   7.508   7.658   4.955  0.0955 -0.0119  0.0448
  223MOL0     H30084   7.566   7.635   4.788  0.3234 -0.0196  0.2062
  223MOL0     H30085   7.397   7.774   4.701  1.5505 -2.8092 -0.3984
  223MOL0     H30086   7.323   7.786   4.876  0.4377 -1.0919  0.7872
  223MOL0     H30087   8.326   7.988   5.177  1.8024  1.8435  0.5134
  223MOL0     H30088   8.517   8.061   5.305  1.1912 -2.0448 -1.4373
  223MOL0     H30089   8.660   8.035   5.753  0.8737 -2.0317  0.7316
  223MOL0     H30090   8.799   8.149   5.921  1.3894  1.2222 -0.1109
  223MOL0     H30091  10.509   9.041   6.341 -1.8503 -1.4627  1.3550
  223MOL0     H30092  10.757   9.064   6.397  1.1840  0.0849 -0.2059
  223MOL0     H30093  10.908   9.184   6.882 -0.2075  1.1896  1.1383
  223MOL0     H30094  11.133   9.250   6.976  3.1912 -2.4209  1.8244
  223MOL0     H30095  11.337   9.346   6.986  1.1416  0.4810 -2.6854
  223MOL0     H30096  11.334   9.196   7.081 -0.1748  1.4130  1.1469
  223MOL0     H30097  11.533   9.158   7.126  2.2676 -0.3580  0.2835
  223MOL0     H30098  11.531   9.331   7.127  3.3482 -1.4523  0.7041
  223MOL0     H30099  11.628   9.178   6.888  2.2477 -0.2986  1.1963
  223MOL0     H30100  11.726   9.245   7.013  0.2362 -1.5939  0.0562
  223MOL0     H30101  11.627   9.468   6.941 -0.0478 -0.4644 -0.3978
  223MOL0     H30102  11.533   9.390   6.809 -0.8207 -3.5525 -0.2010
  223MOL0     H30103  11.919   9.370   6.647  1.1950 -0.0433 -0.1331
  223MOL0     H30104  11.328   9.041   6.658 -0.3672  0.2396 -0.8822
  223MOL0     H30105  11.120   8.959   6.573 -1.3064 -1.0993  1.0251
  224MOL0     O30106   7.343   5.748   8.423  0.3017  0.9440  0.2295
  224MOL0     C30107   7.333   5.747   8.302  0.2162 -0.7357 -0.4431
  224MOL0     O30108   7.215   5.784   8.236  0.1413 -0.1839 -0.1522
  224MOL0     C30109   7.086   5.776   8.284 -0.3713 -0.3987 -0.7886
  224MOL0     C30110   7.041   5.806   8.421 -0.4097 -0.6318 -0.1436
  224MOL0     C30111   6.908   5.813   8.460 -0.2769 -0.1043  0.5948
  224MOL0     C30112   6.809   5.784   8.367 -0.7125 -0.3874 -0.7222
  224MOL0     O30113   6.678   5.779   8.410  0.1557  0.6955  0.4068
  224MOL0     C30114   6.580   5.686   8.346  0.4808  0.8155 -1.0860
  224MOL0     C30115   6.441   5.748   8.368  0.3746 -0.1182  0.2023
  224MOL0     C30116   6.333   5.640   8.392  0.4503 -0.2005 -0.5731
  224MOL0     C30117   6.188   5.680   8.381  0.2886  0.0238  0.3439
  224MOL0     C30118   6.097   5.555   8.410  0.1633  0.4268  0.2849
  224MOL0     C30119   6.082   5.519   8.566  0.9627 -0.7374  0.0914
  224MOL0     C30120   5.994   5.616   8.639  0.1178 -0.0419  0.7617
  224MOL0     C30121   5.857   5.644   8.568  0.2867 -0.1871  0.4930
  224MOL0     N30122   5.787   5.517   8.563  0.4917 -0.8355  0.3077
  224MOL0     C30123   5.677   5.478   8.638 -0.2778 -0.5951 -0.3244
  224MOL0     C30124   5.661   5.349   8.610  0.3726 -0.5769 -0.2492
  224MOL0     C30125   5.572   5.256   8.683  0.5243  0.2153  0.2735
  224MOL0     C30126   5.426   5.303   8.712  1.0625  0.4151 -0.4883
  224MOL0     C30127   5.411   5.382   8.844 -0.1694  0.0624 -0.9634
  224MOL0     C30128   5.267   5.417   8.869  0.5300  0.0369 -0.7826
  224MOL0     O30129   5.182   5.423   8.750 -0.9709 -0.8881 -0.1086
  224MOL0     C30130   5.041   5.420   8.770 -0.2386 -0.7475 -0.4914
  224MOL0     C30131   4.970   5.508   8.857 -0.2609 -0.1921 -0.5754
  224MOL0     C30132   4.838   5.486   8.886  0.5369 -0.4894  0.2146
  224MOL0     C30133   4.771   5.576   8.988  0.7585  0.0885 -1.0353
  224MOL0     C30134   4.771   5.372   8.821  1.0271 -0.0028  0.1587
  224MOL0     C30135   4.618   5.340   8.843 -0.6911  0.4949 -0.0951
  224MOL0     O30136   4.538   5.450   8.845  0.6117  0.2184 -0.4529
  224MOL0     C30137   4.405   5.440   8.865 -0.1428 -0.4114 -1.0055
  224MOL0     C30138   4.338   5.526   8.967  0.9147 -0.1873 -0.1785
  224MOL0     C30139   4.198   5.515   8.987 -0.4369 -0.0508  0.2860
  224MOL0     C30140   4.131   5.411   8.917  0.4102 -0.9654  0.0604
  224MOL0     O30141   3.998   5.388   8.927 -0.2598 -0.0317 -0.0066
  224MOL0     C30142   3.917   5.507   8.914 -0.1524  0.2435 -0.2319
  224MOL0     C30143   3.777   5.460   8.931 -0.5456  0.2977 -0.1742
  224MOL0     C30144   3.762   5.379   9.062  0.9239  0.1785  0.9661
  224MOL0     C30145   3.618   5.394   9.113  0.4675  0.7053 -0.6799
  224MOL0     C30146   3.590   5.298   9.230  0.0384 -0.2696  0.3517
  224MOL0     C30147   3.440   5.296   9.264  0.0317 -0.0051 -0.5402
  224MOL0     C30148   3.388   5.157   9.330 -0.8230 -0.3122  0.2592
  224MOL0     C30149   3.454   5.140   9.471 -0.0161  0.6932 -0.4983
  224MOL0    Cl30150   3.404   5.254   9.595 -0.5347 -0.2744  0.0982
  224MOL0     C30151   4.193   5.330   8.815 -0.4108 -0.3131  0.2794
  224MOL0     C30152   4.329   5.350   8.794 -0.2702  0.5420  0.7908
  224MOL0     O30153   4.588   5.221   8.845 -0.6483 -0.0430  0.2880
  224MOL0     C30154   4.839   5.294   8.721 -0.5031 -0.2326 -0.1951
  224MOL0     C30155   4.968   5.328   8.695 -0.8897 -0.0373  0.2366
  224MOL0     N30156   5.739   5.312   8.504  1.0362 -0.3178  0.3756
  224MOL0     N30157   5.828   5.406   8.488  0.0984 -0.6301 -0.3351
  224MOL0     C30158   6.844   5.769   8.237 -0.1817  0.8800  0.0269
  224MOL0     C30159   6.976   5.754   8.194 -0.3126 -0.7485 -0.4517
  224MOL0     C30160   7.441   5.729   8.209  0.6395 -1.4571 -0.6909
  224MOL0     C30161   7.567   5.705   8.254  0.0924  0.3264 -0.0467
  224MOL0     C30162   7.677   5.698   8.171 -1.0152 -0.3859 -0.0432
  224MOL0     C30163   7.652   5.715   8.033  0.1252  1.0043 -0.0250
  224MOL0     O30164   7.754   5.722   7.938  0.4472  0.0200 -1.1338
  224MOL0     C30165   7.882   5.653   7.937 -0.0264 -0.4390 -0.2499
  224MOL0     C30166   7.978   5.722   7.847  0.2142  0.1395  0.0680
  224MOL0     C30167   8.128   5.721   7.885 -0.2228  0.4948  0.4146
  224MOL0     C30168   8.216   5.730   7.755 -0.1081 -0.5635 -0.2453
  224MOL0     C30169   8.349   5.750   7.803  0.5558  0.1074 -0.4296
  224MOL0     C30170   8.454   5.747   7.858 -0.2444  0.6853 -0.7851
  224MOL0     C30171   7.519   5.731   7.984 -0.5805  0.8746  1.2518
  224MOL0     C30172   7.417   5.739   8.072  0.3021  0.3320  0.0346
  224MOL0     H30173   7.116   5.811   8.500  1.1317 -1.6966 -1.4826
  224MOL0     H30174   6.882   5.837   8.563 -4.1688  0.3835 -0.3492
  224MOL0     H30175   6.598   5.673   8.239  2.7891 -0.5037 -0.6013
  224MOL0     H30176   6.587   5.592   8.402 -0.8393  0.1831 -1.9123
  224MOL0     H30177   6.449   5.812   8.456  2.4987 -0.7628  0.5362
  224MOL0     H30178   6.409   5.802   8.279  1.0391 -1.4483 -0.8921
  224MOL0     H30179   6.359   5.557   8.325  1.7443 -1.8198  1.8002
  224MOL0     H30180   6.362   5.612   8.494  1.7763 -0.7357 -1.0735
  224MOL0     H30181   6.156   5.759   8.450 -1.6494 -0.9347  0.6065
  224MOL0     H30182   6.160   5.705   8.279  0.2576 -2.8348 -0.4415
  224MOL0     H30183   6.005   5.566   8.351  1.4582  1.7351 -1.5917
  224MOL0     H30184   6.138   5.469   8.357 -2.1648  0.0671 -1.1111
  224MOL0     H30185   6.042   5.417   8.575  0.6960 -0.4872  2.3563
  224MOL0     H30186   6.179   5.527   8.615  1.0673  0.4130 -0.2819
  224MOL0     H30187   5.979   5.578   8.740 -0.5927  0.8938  1.0207
  224MOL0     H30188   6.047   5.710   8.652  0.0813 -0.1956  2.2111
  224MOL0     H30189   5.881   5.687   8.471 -0.7751  0.2065  0.3905
  224MOL0     H30190   5.791   5.720   8.611 -0.3097  0.8182 -2.0128
  224MOL0     H30191   5.638   5.527   8.726  1.9929 -2.7228  2.0199
  224MOL0     H30192   5.580   5.156   8.640  1.5211  0.2218  0.4364
  224MOL0     H30193   5.622   5.251   8.780  2.5718  0.3090 -0.7189
  224MOL0     H30194   5.368   5.211   8.723  2.5134 -0.7029 -1.6915
  224MOL0     H30195   5.384   5.365   8.632  3.2149  0.6851 -1.4850
  224MOL0     H30196   5.473   5.472   8.831  0.4749 -0.4191 -1.2716
  224MOL0     H30197   5.452   5.317   8.922  0.4477  0.6443 -0.7838
  224MOL0     H30198   5.268   5.513   8.922 -1.1836 -1.0601  1.3888
  224MOL0     H30199   5.224   5.343   8.938 -1.7504  1.0303 -1.0491
  224MOL0     H30200   5.024   5.587   8.908  1.4560 -0.5777 -1.6779
  224MOL0     H30201   4.702   5.525   9.056  1.4627  1.6689  0.9735
  224MOL0     H30202   4.841   5.628   9.054 -0.4154 -1.8419  1.9797
  224MOL0     H30203   4.708   5.646   8.932  1.6069  1.5504 -0.2284
  224MOL0     H30204   4.393   5.608   9.014  0.6176  0.5793 -1.1401
  224MOL0     H30205   4.153   5.582   9.060  0.4414 -0.5682  1.3354
  224MOL0     H30206   3.943   5.576   8.995  4.2894 -0.5623 -0.7509
  224MOL0     H30207   3.931   5.557   8.817  2.0314 -1.1461 -0.7061
  224MOL0     H30208   3.713   5.549   8.934 -0.4521  0.3662 -0.2243
  224MOL0     H30209   3.746   5.397   8.846  0.5545 -0.6228  0.0776
  224MOL0     H30210   3.832   5.411   9.139  2.2871  0.0396 -0.1807
  224MOL0     H30211   3.790   5.275   9.041  2.0589  0.6581 -0.0501
  224MOL0     H30212   3.613   5.499   9.140  0.5563  1.2585 -2.6528
  224MOL0     H30213   3.557   5.365   9.027  0.7534 -0.8977 -0.3846
  224MOL0     H30214   3.643   5.335   9.319  0.4038  0.6155 -0.2298
  224MOL0     H30215   3.615   5.197   9.195 -1.9097 -1.1430  1.3231
  224MOL0     H30216   3.423   5.378   9.334  2.2426 -0.4540  0.6416
  224MOL0     H30217   3.383   5.316   9.173 -1.5053 -0.2310  0.3474
  224MOL0     H30218   3.427   5.079   9.264  0.3599  0.8872 -0.5148
  224MOL0     H30219   3.279   5.162   9.334 -0.7502  2.1558  1.8891
  224MOL0     H30220   3.564   5.135   9.470  0.0038  1.0634 -0.3149
  224MOL0     H30221   3.416   5.039   9.489 -0.0958 -0.0247 -3.9335
  224MOL0     H30222   4.147   5.249   8.758  1.3103 -0.2546 -1.2933
  224MOL0     H30223   4.384   5.291   8.722 -0.6681  1.3417 -0.1806
  224MOL0     H30224   4.785   5.218   8.664 -1.5027  0.0481  0.3482
  224MOL0     H30225   5.041   5.276   8.635  2.1415  1.6796  2.1845
  224MOL0     H30226   6.769   5.757   8.159 -2.6085  0.0428  2.3030
  224MOL0     H30227   6.992   5.751   8.087 -2.3097  1.7347 -0.9246
  224MOL0     H30228   7.572   5.682   8.360 -1.0028 -1.0012 -0.2631
  224MOL0     H30229   7.779   5.687   8.206 -1.3369  1.5400  1.6396
  224MOL0     H30230   7.924   5.653   8.039  0.5994  1.7814 -0.4632
  224MOL0     H30231   7.865   5.550   7.904 -1.5172 -0.2052 -0.2788
  224MOL0     H30232   7.938   5.824   7.842 -1.1387 -0.4235 -1.0668
  224MOL0     H30233   7.967   5.671   7.751  0.5733 -2.4934  1.3412
  224MOL0     H30234   8.158   5.636   7.947  1.7066  0.0286 -1.0625
  224MOL0     H30235   8.152   5.811   7.943 -0.5646  0.8655 -0.0100
  224MOL0     H30236   8.186   5.811   7.688 -0.8377 -0.0443  0.6690
  224MOL0     H30237   8.220   5.635   7.702  1.3546 -0.6400 -0.0136
  224MOL0     H30238   8.550   5.743   7.906 -1.5833 -1.4018  2.0226
  224MOL0     H30239   7.511   5.727   7.876 -0.1696 -3.7394  1.1787
  224MOL0     H30240   7.318   5.750   8.030  0.4325 -2.6260 -1.2793
  225MOL0     O30241   4.465   6.286   0.821 -0.0262 -0.3881 -0.0523
  225MOL0     C30242   4.565   6.299   0.737  0.6142  1.0680 -1.0886
  225MOL0     O30243   4.564   6.383   0.636  0.3201 -0.3527  0.0598
  225MOL0     C30244   4.452   6.448   0.600  0.4429 -0.1220 -0.3166
  225MOL0     C30245   4.392   6.404   0.482  0.0110 -0.2664  0.6886
  225MOL0     C30246   4.283   6.470   0.421  0.2195 -0.9288  0.3691
  225MOL0     C30247   4.224   6.569   0.503 -0.3285  0.4930 -0.0374
  225MOL0     O30248   4.113   6.632   0.468  0.2636  0.2139 -0.1934
  225MOL0     C30249   4.113   6.679   0.333  0.6511  0.2250  0.2054
  225MOL0     C30250   3.970   6.660   0.287 -1.2080  0.0746 -0.3064
  225MOL0     C30251   3.948   6.714   0.145 -0.4015 -0.3525  0.0678
  225MOL0     C30252   3.992   6.860   0.100 -0.8407 -0.9922 -0.2555
  225MOL0     C30253   3.947   6.879  -0.044  0.1731  0.6349  0.1845
  225MOL0     C30254   3.802   6.862  -0.072 -0.5179 -0.2338  0.4406
  225MOL0     C30255   3.711   6.933   0.024 -0.2696  0.8766 -0.3068
  225MOL0     C30256   3.573   6.885   0.002  0.4474 -0.4000 -0.1324
  225MOL0     N30257   3.476   6.934   0.097  0.1088 -0.6095 -1.0113
  225MOL0     C30258   3.448   6.881   0.224 -0.1797 -0.3419  1.2370
  225MOL0     C30259   3.356   6.964   0.269  0.1456  0.0520  0.3870
  225MOL0     C30260   3.280   6.941   0.398 -0.3122 -0.0309 -0.9162
  225MOL0     C30261   3.184   6.827   0.390 -0.0328  0.3290 -0.2941
  225MOL0     C30262   3.079   6.825   0.276 -0.5284  0.3662 -0.5806
  225MOL0     C30263   2.980   6.939   0.268 -0.5885  0.0415 -0.2103
  225MOL0     O30264   2.875   6.915   0.366  0.7168 -0.2913  0.1872
  225MOL0     C30265   2.762   6.992   0.349 -1.0615 -0.1527 -0.2725
  225MOL0     C30266   2.641   6.947   0.392  0.5990 -0.8002  0.5058
  225MOL0     C30267   2.520   7.007   0.375 -0.3419 -0.1029 -0.4542
  225MOL0     C30268   2.400   6.938   0.444  0.3863 -0.0481 -0.8024
  225MOL0     C30269   2.515   7.134   0.305 -0.0664  0.8099 -0.6794
  225MOL0     C30270   2.392   7.204   0.276 -0.1482  0.2080  0.1415
  225MOL0     O30271   2.282   7.129   0.275 -0.8871  1.0922  0.4861
  225MOL0     C30272   2.161   7.182   0.247  1.0462 -0.1433  0.2449
  225MOL0     C30273   2.070   7.103   0.169  0.2509  0.0385  0.1364
  225MOL0     C30274   1.930   7.131   0.149 -0.1083 -0.3935 -0.2899
  225MOL0     C30275   1.882   7.248   0.215  0.4681  0.1165  0.1139
  225MOL0     O30276   1.747   7.288   0.221  0.4330  0.5772 -0.5365
  225MOL0     C30277   1.642   7.200   0.179  0.5331 -0.6536  0.1797
  225MOL0     C30278   1.549   7.277   0.079  0.5167 -0.4654 -0.0725
  225MOL0     C30279   1.625   7.348  -0.039 -0.6777 -0.0301  0.5303
  225MOL0     C30280   1.560   7.339  -0.182 -0.7976 -0.0587  0.4807
  225MOL0     C30281   1.611   7.438  -0.293  0.3729  0.2667  0.0885
  225MOL0     C30282   1.758   7.442  -0.312 -0.5845 -0.8794 -0.5102
  225MOL0     C30283   1.828   7.332  -0.380 -0.0297  0.7488 -1.4264
  225MOL0     C30284   1.942   7.357  -0.483  0.3302 -0.4247 -1.1735
  225MOL0    Cl30285   1.981   7.209  -0.583  0.5066 -0.2135 -0.0311
  225MOL0     C30286   1.966   7.332   0.282 -1.4684 -0.0311 -0.0648
  225MOL0     C30287   2.106   7.298   0.301 -0.1822  0.0315  0.7640
  225MOL0     O30288   2.396   7.321   0.250  0.3044 -0.1260  0.3692
  225MOL0     C30289   2.636   7.182   0.255 -1.3139 -0.2537 -0.4251
  225MOL0     C30290   2.755   7.111   0.274 -0.6578 -0.5483  0.1962
  225MOL0     N30291   3.311   7.060   0.177  0.2311 -0.0042  0.7458
  225MOL0     N30292   3.387   7.039   0.071 -0.4786  0.8922  0.2374
  225MOL0     C30293   4.281   6.609   0.621 -0.1562  1.1050  0.0505
  225MOL0     C30294   4.392   6.543   0.677 -0.0460 -0.1693 -0.6895
  225MOL0     C30295   4.691   6.233   0.763  0.1326  0.0268 -0.1997
  225MOL0     C30296   4.696   6.131   0.856 -0.3123 -0.1925 -0.7500
  225MOL0     C30297   4.827   6.075   0.891 -0.6112  0.5695  0.3375
  225MOL0     C30298   4.943   6.118   0.828  0.2329  0.2220 -0.3124
  225MOL0     O30299   5.065   6.065   0.841  0.2629 -0.3559  0.6461
  225MOL0     C30300   5.104   6.011   0.967  1.0599 -0.2560  0.5543
  225MOL0     C30301   5.247   6.005   0.981 -0.4903 -0.2611  0.0765
  225MOL0     C30302   5.320   6.142   0.986 -0.7194 -0.3356  0.3020
  225MOL0     C30303   5.468   6.128   1.032  0.5850 -0.4267 -0.0278
  225MOL0     C30304   5.542   6.079   0.912 -0.7275 -0.2605 -0.2268
  225MOL0     C30305   5.605   6.055   0.810  0.6898 -0.6334 -0.0217
  225MOL0     C30306   4.935   6.208   0.732 -0.5078 -0.0069  0.9660
  225MOL0     C30307   4.810   6.278   0.705 -0.0198  0.3336  0.2692
  225MOL0     H30308   4.424   6.318   0.426 -2.4509 -0.1696 -1.0298
  225MOL0     H30309   4.236   6.430   0.332  1.2624 -4.8261  1.3659
  225MOL0     H30310   4.137   6.786   0.343  2.3731  0.0720 -1.6756
  225MOL0     H30311   4.189   6.632   0.270  0.3807 -0.9374  0.7351
  225MOL0     H30312   3.944   6.554   0.291 -0.1021 -0.3313 -2.6075
  225MOL0     H30313   3.898   6.718   0.346 -1.9422 -1.9626  0.8763
  225MOL0     H30314   4.004   6.648   0.078  2.7001  0.5265  1.6161
  225MOL0     H30315   3.841   6.697   0.128 -0.0817 -2.7235  0.0622
  225MOL0     H30316   3.952   6.926   0.178 -0.6775 -0.8157 -0.3214
  225MOL0     H30317   4.100   6.876   0.108 -0.8861 -1.2847  1.2344
  225MOL0     H30318   3.962   6.984  -0.071  2.8370 -0.1937 -2.1334
  225MOL0     H30319   4.009   6.815  -0.108  0.0739  0.6928  0.0323
  225MOL0     H30320   3.790   6.907  -0.170 -1.3920 -0.9570  0.1990
  225MOL0     H30321   3.789   6.753  -0.075 -0.4762 -0.2682  1.2404
  225MOL0     H30322   3.729   6.907   0.129 -1.2360 -0.3962 -0.4246
  225MOL0     H30323   3.718   7.042   0.016 -1.1103  1.4757  4.1335
  225MOL0     H30324   3.573   6.776   0.001 -0.6859 -0.4045 -1.7488
  225MOL0     H30325   3.535   6.913  -0.096  0.9178  1.7764  0.2541
  225MOL0     H30326   3.485   6.790   0.269 -0.7618  0.3757  3.2987
  225MOL0     H30327   3.353   6.927   0.477 -2.0445  1.0080  0.9696
  225MOL0     H30328   3.217   7.024   0.433 -2.2722 -1.2566 -1.3377
  225MOL0     H30329   3.125   6.831   0.483  0.2742  0.7805 -0.1180
  225MOL0     H30330   3.240   6.733   0.396  2.9118  1.8976 -1.6318
  225MOL0     H30331   3.009   6.741   0.280 -0.9202  0.7436  1.3354
  225MOL0     H30332   3.134   6.817   0.182  0.2758  3.0887 -0.4183
  225MOL0     H30333   2.952   6.946   0.162  1.7243 -0.1800 -0.8806
  225MOL0     H30334   3.035   7.032   0.282 -0.0834  0.2207 -2.7800
  225MOL0     H30335   2.639   6.848   0.438  4.1693 -1.2413  0.0410
  225MOL0     H30336   2.333   6.912   0.361  0.1979 -0.9819 -0.3632
  225MOL0     H30337   2.434   6.844   0.487  0.8735 -0.4194 -1.9677
  225MOL0     H30338   2.346   6.994   0.521 -0.4871 -1.0694 -0.6563
  225MOL0     H30339   2.102   7.006   0.131  1.7155  0.3897  0.4305
  225MOL0     H30340   1.866   7.069   0.087 -2.0364  0.3516  0.8687
  225MOL0     H30341   1.677   7.107   0.133 -0.1810 -0.6282 -0.4373
  225MOL0     H30342   1.574   7.181   0.263 -0.7009  0.1505 -0.6102
  225MOL0     H30343   1.475   7.211   0.033  0.8143 -1.5809  0.9754
  225MOL0     H30344   1.494   7.354   0.134 -2.5481 -1.7345 -1.1219
  225MOL0     H30345   1.728   7.313  -0.035 -0.8015 -0.2736  3.1423
  225MOL0     H30346   1.637   7.454  -0.012  2.4234 -0.0537 -0.3876
  225MOL0     H30347   1.593   7.239  -0.212  1.5730  0.4575  1.2061
  225MOL0     H30348   1.451   7.338  -0.173 -0.9784 -0.0193 -1.3653
  225MOL0     H30349   1.584   7.538  -0.260  1.9899  1.7122 -2.5633
  225MOL0     H30350   1.568   7.412  -0.390  3.1142 -1.9400 -0.6818
  225MOL0     H30351   1.773   7.531  -0.375 -0.7194  0.5530  1.3891
  225MOL0     H30352   1.807   7.462  -0.216 -0.4528  1.8759 -1.0592
  225MOL0     H30353   1.752   7.295  -0.449 -2.5228 -3.7035  3.0651
  225MOL0     H30354   1.853   7.248  -0.315  0.5286  1.0664 -1.2127
  225MOL0     H30355   2.029   7.398  -0.432 -0.8145  1.7417 -0.8221
  225MOL0     H30356   1.913   7.433  -0.557  0.2482  0.0415 -0.6643
  225MOL0     H30357   1.930   7.427   0.320  1.5088  0.9738  0.5260
  225MOL0     H30358   2.164   7.362   0.367 -0.6072  2.2534 -0.8690
  225MOL0     H30359   2.639   7.270   0.193 -1.3164 -1.0201 -1.5374
  225MOL0     H30360   2.844   7.152   0.227 -0.2159 -1.8807 -0.1822
  225MOL0     H30361   4.228   6.683   0.681  2.2231  2.6262  0.4539
  225MOL0     H30362   4.429   6.578   0.773 -0.5298 -0.9334 -0.2102
  225MOL0     H30363   4.606   6.103   0.909  0.6829  0.8965  1.6748
  225MOL0     H30364   4.845   5.998   0.966  0.2533  0.8747  0.4622
  225MOL0     H30365   5.049   6.045   1.055 -4.6203  1.1533 -3.0605
  225MOL0     H30366   5.079   5.904   0.971  0.7287 -0.2480 -0.8387
  225MOL0     H30367   5.287   5.939   0.903 -0.2258 -2.2771  1.8356
  225MOL0     H30368   5.278   5.955   1.073 -0.4767 -1.1072 -0.3827
  225MOL0     H30369   5.261   6.202   1.057 -0.6024  1.3615 -0.9634
  225MOL0     H30370   5.313   6.186   0.886 -0.4328 -0.2934  0.2995
  225MOL0     H30371   5.471   6.058   1.115 -0.1166 -0.6463 -0.1816
  225MOL0     H30372   5.494   6.227   1.070 -1.8468  0.4712 -0.4923
  225MOL0     H30373   5.667   6.035   0.725  0.5358 -0.3830 -0.1895
  225MOL0     H30374   5.021   6.240   0.674 -0.5066 -1.3687  0.1794
  225MOL0     H30375   4.806   6.355   0.630 -0.2895 -0.1501 -0.2197
  226MOL0     O30376   2.485   1.826   7.237  0.2937  0.0050 -0.6362
  226MOL0     C30377   2.548   1.788   7.139 -0.9801  0.3110  1.2439
  226MOL0     O30378   2.503   1.771   7.016  0.2030 -1.2754  0.2359
  226MOL0     C30379   2.377   1.810   6.984  0.0006 -0.8543  0.7036
  226MOL0     C30380   2.324   1.938   7.015 -0.7978 -0.4180 -0.1826
  226MOL0     C30381   2.196   1.966   6.967 -0.8045  0.1282  0.6077
  226MOL0     C30382   2.117   1.873   6.902 -0.4716  0.3180  0.1197
  226MOL0     O30383   1.984   1.904   6.885  0.0264 -0.5353  0.0311
  226MOL0     C30384   1.910   1.860   6.766  0.3701 -0.6238 -1.3333
  226MOL0     C30385   1.785   1.943   6.756 -0.6204 -0.0180 -0.6993
  226MOL0     C30386   1.708   1.922   6.637 -0.7519 -0.0798 -0.5572
  226MOL0     C30387   1.604   1.809   6.649  0.5541  0.3768  0.4797
  226MOL0     C30388   1.496   1.817   6.751  0.4035  0.3602  0.6760
  226MOL0     C30389   1.390   1.926   6.751 -0.4996  0.2445  0.2610
  226MOL0     C30390   1.336   1.937   6.604  0.1707 -0.2817  0.4199
  226MOL0     C30391   1.203   2.029   6.603 -0.2708  0.5204 -0.8285
  226MOL0     N30392   1.084   1.959   6.662  0.0564 -0.6164 -0.6012
  226MOL0     C30393   1.041   1.825   6.646 -0.2659 -0.4451  0.2322
  226MOL0     C30394   0.920   1.823   6.709 -0.2588  0.2029  0.5756
  226MOL0     C30395   0.843   1.700   6.712  0.5159 -0.8181 -0.3388
  226MOL0     C30396   0.777   1.655   6.583 -0.5424 -0.1926  0.1467
  226MOL0     C30397   0.669   1.552   6.621  0.1556 -0.4945  0.2936
  226MOL0     C30398   0.574   1.517   6.497 -0.0198 -0.5442  0.5479
  226MOL0     O30399   0.456   1.442   6.535  0.4273  0.6201  0.2157
  226MOL0     C30400   0.348   1.504   6.601 -0.2752  0.1036  0.5244
  226MOL0     C30401   0.246   1.414   6.633  0.5082 -0.2680 -0.6820
  226MOL0     C30402   0.128   1.455   6.698 -0.1854 -0.3746 -0.5002
  226MOL0     C30403   0.024   1.353   6.728  0.2362 -0.3431 -0.9202
  226MOL0     C30404   0.127   1.592   6.740  0.0308  0.3133 -0.3553
  226MOL0     C30405   0.026   1.644   6.834  0.3365  1.2081 -0.8540
  226MOL0     O30406   0.074   1.722   6.930 -0.2268  0.2139 -0.6566
  226MOL0     C30407  -0.011   1.747   7.032 -1.1794  0.4846 -0.6072
  226MOL0     C30408  -0.066   1.652   7.106 -0.5584  0.2173  0.7193
  226MOL0     C30409  -0.168   1.669   7.203 -0.7758  0.0653 -0.2616
  226MOL0     C30410  -0.218   1.799   7.211 -0.3252  0.8722 -0.2154
  226MOL0     O30411  -0.312   1.849   7.299  0.2039 -0.5509  0.3118
  226MOL0     C30412  -0.349   1.756   7.403 -0.5361 -0.6523 -0.1179
  226MOL0     C30413  -0.440   1.820   7.505  0.7674  0.0707 -0.1352
  226MOL0     C30414  -0.578   1.844   7.449  0.2390  0.2585 -1.1843
  226MOL0     C30415  -0.669   1.891   7.563  0.3533 -0.1778  0.7857
  226MOL0     C30416  -0.798   1.925   7.499  0.4620  1.3930  0.6191
  226MOL0     C30417  -0.895   1.974   7.606 -0.0758 -0.1631 -0.5056
  226MOL0     C30418  -1.034   2.002   7.552  0.3088  0.4049  0.4309
  226MOL0     C30419  -1.126   2.020   7.675 -0.1249  0.4246 -0.2767
  226MOL0    Cl30420  -1.089   2.162   7.764  0.0498 -0.2635 -0.0214
  226MOL0     C30421  -0.167   1.897   7.128 -0.2189  0.0324 -0.4666
  226MOL0     C30422  -0.054   1.875   7.048 -0.2553 -0.6511 -0.1912
  226MOL0     O30423  -0.092   1.606   6.820 -0.3357 -0.6308  0.3097
  226MOL0     C30424   0.223   1.686   6.691 -0.1232  0.4118 -0.0270
  226MOL0     C30425   0.339   1.640   6.633 -0.5090 -0.1291  0.8112
  226MOL0     N30426   0.892   1.948   6.761  0.3140 -0.1837 -0.3047
  226MOL0     N30427   0.986   2.032   6.723  0.6115  0.5035 -0.3606
  226MOL0     C30428   2.176   1.751   6.864  0.1356 -0.7079 -0.4385
  226MOL0     C30429   2.304   1.719   6.911  0.4896 -1.0382  0.7004
  226MOL0     C30430   2.689   1.755   7.162 -0.4336 -0.1702  0.4076
  226MOL0     C30431   2.756   1.760   7.286 -1.0540  0.2954 -1.2079
  226MOL0     C30432   2.896   1.746   7.300 -1.0079  0.4624 -0.1911
  226MOL0     C30433   2.977   1.711   7.193  0.2900 -1.0933  0.9338
  226MOL0     O30434   3.108   1.671   7.199 -0.1422 -0.0245 -0.2351
  226MOL0     C30435   3.131   1.548   7.277 -0.3111  0.6543  0.5555
  226MOL0     C30436   3.273   1.532   7.331 -0.0262  0.2682 -0.2443
  226MOL0     C30437   3.376   1.486   7.228  0.2348 -0.2135  0.1596
  226MOL0     C30438   3.471   1.390   7.307  0.7264 -0.4082 -0.1268
  226MOL0     C30439   3.571   1.470   7.376  1.3216 -0.1329 -0.0325
  226MOL0     C30440   3.648   1.541   7.430 -0.2164  0.3733 -0.2866
  226MOL0     C30441   2.921   1.700   7.066  0.4482 -0.3575  0.5790
  226MOL0     C30442   2.779   1.722   7.050 -0.3992  0.7238 -0.0696
  226MOL0     H30443   2.397   2.002   7.063 -0.0758  0.2618 -2.0993
  226MOL0     H30444   2.162   2.069   6.971  1.3149  1.1135 -2.7085
  226MOL0     H30445   1.976   1.884   6.682  0.5539 -0.8802 -1.2607
  226MOL0     H30446   1.879   1.755   6.768  1.5544 -0.9747 -0.7613
  226MOL0     H30447   1.737   1.934   6.854 -0.5812 -4.7671 -0.8953
  226MOL0     H30448   1.830   2.043   6.758 -2.0161  0.6331 -0.5792
  226MOL0     H30449   1.659   2.017   6.617  0.2882  1.2739  2.6399
  226MOL0     H30450   1.776   1.911   6.552 -0.4435  1.9936 -0.6351
  226MOL0     H30451   1.552   1.804   6.553  1.0124 -1.8408  0.2936
  226MOL0     H30452   1.659   1.716   6.668  0.3601  0.6360  2.6533
  226MOL0     H30453   1.439   1.723   6.747  1.6575 -0.4414  0.8850
  226MOL0     H30454   1.538   1.809   6.852 -3.6412  0.3770  2.5256
  226MOL0     H30455   1.301   1.888   6.801 -1.9914  0.8735 -1.7844
  226MOL0     H30456   1.429   2.021   6.789 -0.5708 -0.8466  3.3656
  226MOL0     H30457   1.411   1.984   6.540  0.2480 -1.8761 -0.7227
  226MOL0     H30458   1.309   1.840   6.561 -4.8401 -0.6127  3.5097
  226MOL0     H30459   1.182   2.050   6.497  0.8836  1.0633 -0.9674
  226MOL0     H30460   1.218   2.127   6.648  0.6569  0.1540 -0.3022
  226MOL0     H30461   1.104   1.758   6.588  1.5896 -1.1189  2.8326
  226MOL0     H30462   0.909   1.618   6.741  1.8018 -0.1646 -1.2961
  226MOL0     H30463   0.753   1.718   6.772 -0.0854  0.8959 -1.6722
  226MOL0     H30464   0.859   1.620   6.519 -0.4358 -1.6959  1.0659
  226MOL0     H30465   0.724   1.741   6.541 -1.6011  0.2252  2.1992
  226MOL0     H30466   0.595   1.588   6.692  1.3103 -0.6961  1.6524
  226MOL0     H30467   0.708   1.459   6.663  0.7514 -0.3806  0.0150
  226MOL0     H30468   0.624   1.454   6.423 -1.8953 -3.4285  1.5410
  226MOL0     H30469   0.548   1.612   6.449 -2.3909 -0.5325  1.7277
  226MOL0     H30470   0.258   1.308   6.618  0.0746 -0.5542  0.7826
  226MOL0     H30471  -0.017   1.374   6.827 -2.2242 -2.7527 -1.3158
  226MOL0     H30472  -0.059   1.376   6.661 -0.0369  0.7468 -0.2429
  226MOL0     H30473   0.063   1.251   6.726 -0.7417 -0.7430 -0.3283
  226MOL0     H30474  -0.012   1.560   7.093 -0.7592 -0.2415  2.7104
  226MOL0     H30475  -0.200   1.589   7.269  1.1911 -0.3964  0.2129
  226MOL0     H30476  -0.401   1.665   7.370 -2.7709 -0.1083  1.6060
  226MOL0     H30477  -0.249   1.731   7.440  0.1363 -2.5188 -2.8851
  226MOL0     H30478  -0.442   1.765   7.599  0.7428  1.4288  0.6982
  226MOL0     H30479  -0.410   1.918   7.545 -3.9419  1.2936  1.1543
  226MOL0     H30480  -0.617   1.750   7.409  2.0372 -0.9968 -0.1192
  226MOL0     H30481  -0.564   1.908   7.361  0.3806 -0.4423 -1.6920
  226MOL0     H30482  -0.685   1.814   7.639 -1.6665  0.2789  0.8749
  226MOL0     H30483  -0.636   1.986   7.606  0.0187  0.5684 -0.5682
  226MOL0     H30484  -0.841   1.831   7.462  3.7630  0.0234 -0.1147
  226MOL0     H30485  -0.789   2.003   7.424  0.7019  0.6396 -0.1527
  226MOL0     H30486  -0.905   1.907   7.692 -2.0791  0.1640 -0.4455
  226MOL0     H30487  -0.859   2.060   7.663 -2.0710 -0.3876  1.2223
  226MOL0     H30488  -1.071   1.922   7.487  4.0467 -0.3699 -1.0071
  226MOL0     H30489  -1.025   2.094   7.493 -0.0954 -0.7506 -1.5235
  226MOL0     H30490  -1.115   1.929   7.735  1.6987 -0.7695 -2.2443
  226MOL0     H30491  -1.231   2.031   7.645 -1.0689  2.3696  3.2710
  226MOL0     H30492  -0.223   1.990   7.135 -3.2688 -1.7708  1.6015
  226MOL0     H30493  -0.005   1.948   6.985  0.9382 -0.1700  1.2165
  226MOL0     H30494   0.204   1.790   6.716 -2.4548  0.3256 -1.1635
  226MOL0     H30495   0.418   1.704   6.597  0.6020 -0.7264  2.1002
  226MOL0     H30496   2.114   1.677   6.814  2.2207 -0.7213 -3.3063
  226MOL0     H30497   2.349   1.621   6.897 -2.3218 -2.3329  0.1198
  226MOL0     H30498   2.706   1.800   7.373  1.6923  1.4564 -0.0592
  226MOL0     H30499   2.950   1.760   7.393  1.8877  2.2764 -1.9638
  226MOL0     H30500   3.076   1.565   7.370 -1.1939  0.6127  0.0493
  226MOL0     H30501   3.099   1.461   7.220 -0.7536  1.5018 -0.5361
  226MOL0     H30502   3.266   1.462   7.414  1.5755  0.6103  0.2070
  226MOL0     H30503   3.298   1.622   7.387  0.0460  0.3434 -0.3970
  226MOL0     H30504   3.442   1.565   7.189  0.1742 -0.5226 -0.5929
  226MOL0     H30505   3.343   1.446   7.132  2.6208 -0.5401 -0.5915
  226MOL0     H30506   3.524   1.325   7.236  1.4803 -1.9781  1.7581
  226MOL0     H30507   3.416   1.328   7.378 -0.9713  1.0723 -0.0934
  226MOL0     H30508   3.714   1.602   7.487  1.0247 -0.7656 -0.4593
  226MOL0     H30509   2.979   1.672   6.978  1.1049  0.9772  0.5524
  226MOL0     H30510   2.733   1.721   6.952 -0.2528  0.5985 -0.1374
  227MOL0     O30511   5.255   0.944   6.737 -0.6378 -0.2476 -0.2983
  227MOL0     C30512   5.330   1.028   6.788 -0.1736  0.4637 -0.7315
  227MOL0     O30513   5.282   1.140   6.852 -0.2923  0.5978 -0.3701
  227MOL0     C30514   5.145   1.144   6.887  0.5901 -0.1938 -0.4273
  227MOL0     C30515   5.088   1.269   6.900 -0.1208  0.4921  0.6885
  227MOL0     C30516   4.956   1.284   6.943  0.1134  1.0277  0.4393
  227MOL0     C30517   4.878   1.177   6.967 -0.7013 -0.2802  0.1253
  227MOL0     O30518   4.746   1.206   7.016 -0.5764  0.8684  0.0463
  227MOL0     C30519   4.665   1.108   7.089 -0.8012  0.5000 -0.1762
  227MOL0     C30520   4.530   1.162   7.089  0.9628  1.1443  0.2961
  227MOL0     C30521   4.440   1.061   7.161 -0.1887 -0.2839  0.1420
  227MOL0     C30522   4.303   1.127   7.173 -0.1386  0.1540 -0.7956
  227MOL0     C30523   4.192   1.018   7.160  0.0970 -0.8155  0.3724
  227MOL0     C30524   4.201   0.931   7.280 -0.3248 -0.1338 -0.2249
  227MOL0     C30525   4.091   0.820   7.283  0.2879 -0.5666 -0.0187
  227MOL0     C30526   4.130   0.705   7.369  0.3420 -0.1885 -0.5095
  227MOL0     N30527   4.019   0.610   7.360  0.4489 -0.3093  0.9388
  227MOL0     C30528   3.891   0.627   7.405 -0.3812 -0.2504 -0.5884
  227MOL0     C30529   3.817   0.537   7.327  0.4968 -0.4772 -0.3875
  227MOL0     C30530   3.669   0.526   7.336  0.4098 -0.8107 -0.6319
  227MOL0     C30531   3.596   0.634   7.251 -0.5173  0.2084 -0.4797
  227MOL0     C30532   3.638   0.647   7.107  0.2131  0.2735 -0.2703
  227MOL0     C30533   3.566   0.548   7.019 -0.2775 -0.5385  0.1107
  227MOL0     O30534   3.423   0.564   7.024 -0.2420 -0.3878 -0.5181
  227MOL0     C30535   3.348   0.644   6.938  0.8956  0.1319 -0.4716
  227MOL0     C30536   3.407   0.733   6.851  1.1750 -0.2309  0.7143
  227MOL0     C30537   3.320   0.814   6.773 -0.2565  0.3383  0.0067
  227MOL0     C30538   3.399   0.927   6.702 -0.7298 -0.2506 -0.0353
  227MOL0     C30539   3.179   0.806   6.785 -0.5880 -0.1401 -0.2990
  227MOL0     C30540   3.082   0.903   6.720 -0.1131 -1.6045  0.3343
  227MOL0     O30541   2.952   0.874   6.711  0.4636 -0.4737 -0.1394
  227MOL0     C30542   2.866   0.942   6.630  0.4614  0.2665 -0.8843
  227MOL0     C30543   2.894   0.973   6.492 -0.0732 -0.0313 -0.3178
  227MOL0     C30544   2.808   1.050   6.423  0.4668 -0.1502 -1.6092
  227MOL0     C30545   2.680   1.097   6.469  0.2092  0.2776 -0.0994
  227MOL0     O30546   2.596   1.178   6.399  0.2346  0.2399  0.0782
  227MOL0     C30547   2.463   1.205   6.448 -0.3388  0.3474 -0.1380
  227MOL0     C30548   2.381   1.291   6.345 -0.7820  0.3652  0.0391
  227MOL0     C30549   2.374   1.206   6.221 -0.5450  0.4553 -0.2086
  227MOL0     C30550   2.250   1.243   6.133  0.1309 -0.7882 -0.1621
  227MOL0     C30551   2.237   1.165   6.005 -0.0984  0.0012  0.5856
  227MOL0     C30552   2.141   1.207   5.911  0.5926  0.0665  0.4406
  227MOL0     C30553   1.994   1.159   5.947 -0.0222  0.1176  0.8692
  227MOL0     C30554   1.898   1.189   5.827 -0.6378  0.2768 -0.5265
  227MOL0    Cl30555   1.856   1.366   5.817 -1.0453 -0.1411 -0.0454
  227MOL0     C30556   2.656   1.059   6.606 -0.0829 -0.1691  0.8026
  227MOL0     C30557   2.741   0.977   6.679  0.6222 -0.6029  1.1563
  227MOL0     O30558   3.123   1.018   6.690 -0.1428 -0.8014 -0.1121
  227MOL0     C30559   3.123   0.701   6.866 -0.3771 -0.1568 -0.4412
  227MOL0     C30560   3.206   0.620   6.938  0.3356 -0.7650 -0.7360
  227MOL0     N30561   3.898   0.459   7.259 -0.1556  0.0028  0.0209
  227MOL0     N30562   4.018   0.499   7.283 -0.1789  0.5690 -0.3404
  227MOL0     C30563   4.936   1.054   6.966  0.1588  0.4108 -0.2738
  227MOL0     C30564   5.068   1.038   6.930  0.1366  0.0730 -0.3859
  227MOL0     C30565   5.474   0.993   6.783 -0.0631 -0.5340 -0.2696
  227MOL0     C30566   5.523   0.877   6.721 -1.5133 -0.0797  0.1378
  227MOL0     C30567   5.669   0.841   6.730 -0.1911 -0.1146  0.0484
  227MOL0     C30568   5.755   0.915   6.816  0.9745 -0.7121 -0.5439
  227MOL0     O30569   5.886   0.886   6.842 -0.0608  0.7404 -1.0203
  227MOL0     C30570   5.975   0.899   6.730 -0.5502  0.2413 -0.3448
  227MOL0     C30571   6.084   0.801   6.741 -0.1753  0.0350 -0.1356
  227MOL0     C30572   6.183   0.801   6.856 -0.4956  0.4215  0.1185
  227MOL0     C30573   6.333   0.772   6.812  0.1342  0.0752 -0.7155
  227MOL0     C30574   6.390   0.889   6.748  0.1941  1.5259 -0.1893
  227MOL0     C30575   6.455   0.993   6.716  1.0854 -0.2887  0.0046
  227MOL0     C30576   5.699   1.022   6.884  0.4450  0.8883 -0.0333
  227MOL0     C30577   5.570   1.068   6.856  0.4194 -1.2958 -0.4644
  227MOL0     H30578   5.146   1.359   6.881 -0.7244  1.0266  1.3384
  227MOL0     H30579   4.922   1.386   6.954  1.1156  1.4254 -0.0564
  227MOL0     H30580   4.659   1.015   7.032  1.6444  0.7341 -0.9167
  227MOL0     H30581   4.692   1.087   7.193 -1.0694  0.5338 -0.0997
  227MOL0     H30582   4.540   1.260   7.137  0.1705  1.3969 -0.0339
  227MOL0     H30583   4.491   1.184   6.989 -3.0603  1.1608  1.6900
  227MOL0     H30584   4.438   0.969   7.101 -3.4673  0.4067 -1.0191
  227MOL0     H30585   4.478   1.029   7.258 -3.3698 -2.8045  0.7456
  227MOL0     H30586   4.300   1.180   7.269 -1.4775  0.1474 -0.8186
  227MOL0     H30587   4.278   1.197   7.094 -0.5808 -0.2190 -0.9877
  227MOL0     H30588   4.101   1.077   7.168  1.5976  1.4966  1.4236
  227MOL0     H30589   4.183   0.968   7.063  0.4429 -0.7455  0.3046
  227MOL0     H30590   4.299   0.883   7.287 -0.2224 -0.0412 -1.0123
  227MOL0     H30591   4.210   0.979   7.378  3.6728 -0.9855 -0.0027
  227MOL0     H30592   3.993   0.854   7.317  0.7044  2.2616 -1.2828
  227MOL0     H30593   4.078   0.793   7.178 -1.9583 -1.9429  0.5459
  227MOL0     H30594   4.158   0.733   7.471  2.1701  1.5245 -1.3922
  227MOL0     H30595   4.214   0.647   7.329 -1.7732 -1.4139 -3.5602
  227MOL0     H30596   3.854   0.711   7.463 -0.8106 -0.2112 -0.9096
  227MOL0     H30597   3.630   0.430   7.301 -0.0286  0.1678 -3.0557
  227MOL0     H30598   3.636   0.528   7.440 -1.9355  0.2827 -1.3350
  227MOL0     H30599   3.611   0.734   7.293 -1.5781 -0.7243  2.3633
  227MOL0     H30600   3.489   0.613   7.260 -0.5128  0.4087  0.0501
  227MOL0     H30601   3.747   0.638   7.108  0.0737 -2.2813  1.6115
  227MOL0     H30602   3.608   0.743   7.066 -4.2478 -1.3713 -1.4442
  227MOL0     H30603   3.592   0.446   7.050 -0.4343 -1.3667 -2.2583
  227MOL0     H30604   3.611   0.563   6.920 -1.3651 -0.1525 -0.3396
  227MOL0     H30605   3.514   0.749   6.846  0.9099  1.4656 -1.4273
  227MOL0     H30606   3.393   0.913   6.594  0.2888  1.3100 -0.3403
  227MOL0     H30607   3.381   1.034   6.719 -0.3447 -0.3963  1.4401
  227MOL0     H30608   3.508   0.918   6.713 -0.2413  1.7523 -2.2810
  227MOL0     H30609   2.985   0.940   6.443 -1.3588 -1.8649 -1.6195
  227MOL0     H30610   2.840   1.079   6.324 -2.3377  0.1173 -2.5340
  227MOL0     H30611   2.404   1.116   6.472  0.0814  0.2706  0.6257
  227MOL0     H30612   2.472   1.260   6.542  1.8675 -1.2045  0.6488
  227MOL0     H30613   2.280   1.303   6.385 -0.8105  0.1378  0.0338
  227MOL0     H30614   2.425   1.390   6.331  0.9349 -0.4865 -0.8919
  227MOL0     H30615   2.362   1.100   6.245  2.3367 -0.4505 -2.1312
  227MOL0     H30616   2.465   1.206   6.160  0.4382  0.1975  1.2142
  227MOL0     H30617   2.168   1.226   6.203  0.8399  0.6065  1.0798
  227MOL0     H30618   2.241   1.347   6.101  2.1293 -0.7931 -0.8870
  227MOL0     H30619   2.241   1.059   6.034  1.3730 -0.9094 -2.4717
  227MOL0     H30620   2.331   1.180   5.951  0.0803  0.8594  1.1259
  227MOL0     H30621   2.124   1.314   5.896 -0.7103 -0.1257  0.4714
  227MOL0     H30622   2.167   1.157   5.817 -0.1686 -1.8557  1.1897
  227MOL0     H30623   1.961   1.212   6.037  1.2298  1.7467  0.4206
  227MOL0     H30624   1.979   1.054   5.973 -1.3746  0.4938  1.7108
  227MOL0     H30625   1.809   1.125   5.836  0.1775 -0.8039  0.1305
  227MOL0     H30626   1.940   1.154   5.733 -6.4867 -2.4904 -2.6258
  227MOL0     H30627   2.564   1.101   6.646 -2.5165 -1.4250 -2.9376
  227MOL0     H30628   2.706   0.946   6.777  0.2692 -1.5648  0.7397
  227MOL0     H30629   3.020   0.685   6.897  0.5855 -1.5758  2.3519
  227MOL0     H30630   3.160   0.546   7.003  0.4487  0.1565  0.4227
  227MOL0     H30631   4.882   0.963   6.989  1.1225  0.2376  1.4583
  227MOL0     H30632   5.111   0.938   6.930 -0.9728 -0.4708 -2.6097
  227MOL0     H30633   5.458   0.817   6.659  0.4431 -1.7636 -0.4259
  227MOL0     H30634   5.707   0.747   6.693 -0.1661 -0.6946  1.4584
  227MOL0     H30635   5.926   0.892   6.633 -1.2293 -2.3385  0.1029
  227MOL0     H30636   6.016   1.001   6.731  1.4042 -0.5079  0.3574
  227MOL0     H30637   6.146   0.822   6.654  2.1566  2.0631  1.8706
  227MOL0     H30638   6.034   0.704   6.729  3.4643 -1.9707 -0.6944
  227MOL0     H30639   6.150   0.727   6.929  2.4925 -3.0109 -1.6565
  227MOL0     H30640   6.190   0.901   6.901  2.9974  1.8321 -3.0105
  227MOL0     H30641   6.337   0.690   6.740  4.3806  1.2244 -2.0602
  227MOL0     H30642   6.399   0.741   6.893  0.7183  0.5696 -0.9971
  227MOL0     H30643   6.510   1.081   6.686 -1.0359  1.4517  0.9877
  227MOL0     H30644   5.757   1.084   6.952 -0.0653  1.7261 -0.3391
  227MOL0     H30645   5.551   1.165   6.901 -0.0098 -1.4617 -0.2911
  228MOL0     O30646   4.289   3.280   4.631 -0.1275  0.1173  0.2990
  228MOL0     C30647   4.329   3.211   4.729  0.6106  1.2021  0.2421
  228MOL0     O30648   4.250   3.142   4.813 -0.3039 -0.3693  0.2790
  228MOL0     C30649   4.120   3.131   4.785  0.5813  0.9222  0.2171
  228MOL0     C30650   4.023   3.192   4.859  0.1894 -0.6611  0.5126
  228MOL0     C30651   3.884   3.178   4.830  1.0558  0.5182 -0.1124
  228MOL0     C30652   3.848   3.105   4.718  0.8174  0.4547  0.4976
  228MOL0     O30653   3.715   3.074   4.676 -0.6678 -0.1297 -0.1472
  228MOL0     C30654   3.606   3.136   4.745  0.5146  0.7527 -0.1336
  228MOL0     C30655   3.582   3.275   4.691  0.1630 -1.0562  0.1537
  228MOL0     C30656   3.559   3.286   4.540 -0.1638 -0.7378 -0.7782
  228MOL0     C30657   3.546   3.433   4.482  0.3807  0.4288  0.3507
  228MOL0     C30658   3.676   3.483   4.408  0.0627 -0.6856 -0.8998
  228MOL0     C30659   3.800   3.467   4.500 -0.8682 -1.0540 -0.1488
  228MOL0     C30660   3.927   3.536   4.445  1.1578 -0.3815  0.5067
  228MOL0     C30661   4.041   3.521   4.540 -0.4398  0.4766 -0.1690
  228MOL0     N30662   4.160   3.594   4.501  0.2293 -0.3847  0.2866
  228MOL0     C30663   4.165   3.710   4.424 -0.0467 -0.0433  0.9705
  228MOL0     C30664   4.293   3.741   4.408 -0.6187 -0.2169  0.3064
  228MOL0     C30665   4.353   3.856   4.324  0.0063 -0.5000  0.4303
  228MOL0     C30666   4.357   3.998   4.391  0.5111  0.2054 -0.1101
  228MOL0     C30667   4.426   4.102   4.309 -0.8459 -0.0509  0.1882
  228MOL0     C30668   4.406   4.251   4.336 -0.1370 -0.8393  0.1915
  228MOL0     O30669   4.462   4.293   4.465  0.0683 -0.0505  0.6578
  228MOL0     C30670   4.386   4.271   4.581 -0.2255  0.2589 -0.1031
  228MOL0     C30671   4.452   4.265   4.697  0.7631  0.4805 -0.6944
  228MOL0     C30672   4.395   4.278   4.824  0.2203  0.2083 -0.6939
  228MOL0     C30673   4.477   4.261   4.951 -0.0612  0.7893 -0.5019
  228MOL0     C30674   4.251   4.282   4.831 -0.3333  0.5536 -0.0338
  228MOL0     C30675   4.174   4.286   4.958  1.1104 -0.4483  0.4555
  228MOL0     O30676   4.053   4.364   4.949  0.3213  0.7457 -0.1198
  228MOL0     C30677   3.979   4.402   5.058 -0.1524  0.1786 -0.3859
  228MOL0     C30678   3.994   4.378   5.199 -0.0338  0.4920  0.4996
  228MOL0     C30679   3.909   4.437   5.288  0.0345  0.1250 -0.7679
  228MOL0     C30680   3.798   4.514   5.245  1.1050 -0.1193  0.3684
  228MOL0     O30681   3.694   4.565   5.323 -0.5921 -0.7087  0.5733
  228MOL0     C30682   3.715   4.568   5.462 -0.4694  0.2718  0.2090
  228MOL0     C30683   3.598   4.642   5.530 -0.1431 -0.5018 -0.0741
  228MOL0     C30684   3.590   4.793   5.495 -0.2432  1.0427 -0.2741
  228MOL0     C30685   3.461   4.852   5.526 -0.2576  0.0303 -0.4455
  228MOL0     C30686   3.483   5.001   5.504 -0.0467 -0.1553 -0.6138
  228MOL0     C30687   3.354   5.062   5.539  0.0088  0.3964  0.0363
  228MOL0     C30688   3.363   5.209   5.540  0.5411 -0.1132  0.1615
  228MOL0     C30689   3.439   5.261   5.665 -0.0143 -0.1264  0.0561
  228MOL0    Cl30690   3.611   5.282   5.612  0.2106  0.1435  0.0367
  228MOL0     C30691   3.780   4.524   5.108 -1.0703 -0.3739  0.3313
  228MOL0     C30692   3.873   4.477   5.016  0.0715 -0.3441 -0.2772
  228MOL0     O30693   4.221   4.241   5.056  0.1188  0.2102  0.1010
  228MOL0     C30694   4.181   4.280   4.709  0.3437 -0.7424 -0.0173
  228MOL0     C30695   4.246   4.288   4.583 -0.0110  0.6356  0.7324
  228MOL0     N30696   4.369   3.647   4.468  0.4496  1.1989 -0.1480
  228MOL0     N30697   4.290   3.552   4.522  0.1993  0.1328  0.3308
  228MOL0     C30698   3.940   3.069   4.623 -0.0892 -0.1869  0.6745
  228MOL0     C30699   4.079   3.070   4.663 -0.7665 -0.0402  0.0051
  228MOL0     C30700   4.472   3.197   4.739 -0.1741  0.1946  0.6788
  228MOL0     C30701   4.547   3.295   4.671  0.2854 -0.1223  0.6270
  228MOL0     C30702   4.688   3.280   4.685 -0.1943 -0.3552 -0.7583
  228MOL0     C30703   4.751   3.185   4.760 -0.7007  0.0677  0.6113
  228MOL0     O30704   4.888   3.198   4.773  0.4843  0.0230  0.3371
  228MOL0     C30705   4.969   3.082   4.788 -0.4292 -1.3596 -0.3064
  228MOL0     C30706   5.111   3.120   4.762  0.7485  0.5565  0.8577
  228MOL0     C30707   5.171   3.240   4.829  0.7769 -0.6743 -0.2208
  228MOL0     C30708   5.321   3.242   4.807  0.1770 -0.5917 -0.2787
  228MOL0     C30709   5.391   3.156   4.903 -0.1265  0.2383  0.0386
  228MOL0     C30710   5.448   3.079   4.978  0.5036 -0.5950  0.0650
  228MOL0     C30711   4.670   3.087   4.819 -0.1861 -0.3395 -0.6000
  228MOL0     C30712   4.533   3.098   4.805 -0.8205 -0.2665 -0.1721
  228MOL0     H30713   4.045   3.255   4.945 -1.7629 -0.0017  0.5785
  228MOL0     H30714   3.802   3.215   4.890  0.4452 -1.2925  0.2422
  228MOL0     H30715   3.519   3.075   4.720  2.8062 -2.6315 -0.5659
  228MOL0     H30716   3.620   3.129   4.854 -0.3121  1.3026  0.0188
  228MOL0     H30717   3.504   3.322   4.751  1.6876  0.7385  0.8304
  228MOL0     H30718   3.673   3.331   4.712  1.7919 -2.9665 -1.4389
  228MOL0     H30719   3.635   3.231   4.484  1.4881 -0.3843  1.0250
  228MOL0     H30720   3.468   3.231   4.516  1.7311 -3.2085 -2.8451
  228MOL0     H30721   3.464   3.422   4.410 -0.3367  1.2550  1.0258
  228MOL0     H30722   3.515   3.509   4.554  0.2778  0.5885  0.1396
  228MOL0     H30723   3.691   3.438   4.309  1.0181 -1.0278 -0.6083
  228MOL0     H30724   3.661   3.590   4.393 -1.2916 -1.0137 -2.1479
  228MOL0     H30725   3.775   3.515   4.595 -0.1939 -1.2893  0.1515
  228MOL0     H30726   3.826   3.361   4.507 -2.7732 -1.7091 -1.9399
  228MOL0     H30727   3.946   3.482   4.352 -2.7647 -3.0766  1.0442
  228MOL0     H30728   3.891   3.638   4.432  0.8846 -0.5849 -0.4464
  228MOL0     H30729   4.068   3.417   4.560 -1.7082 -0.0800 -1.2571
  228MOL0     H30730   4.010   3.564   4.635  0.4238  0.1450  0.2783
  228MOL0     H30731   4.092   3.771   4.373  0.2658 -1.2212 -1.0033
  228MOL0     H30732   4.454   3.825   4.295 -0.3119 -0.9004 -0.2806
  228MOL0     H30733   4.301   3.860   4.228 -1.9514 -0.7727  1.4460
  228MOL0     H30734   4.407   3.977   4.486 -1.3815  1.1552  1.1480
  228MOL0     H30735   4.255   4.031   4.414  1.3530  2.3069  0.9058
  228MOL0     H30736   4.406   4.087   4.203  1.1364 -2.3213  0.0205
  228MOL0     H30737   4.534   4.095   4.328  0.2096  5.0030 -2.3814
  228MOL0     H30738   4.302   4.286   4.329  0.1630  0.2268  0.7212
  228MOL0     H30739   4.458   4.307   4.258 -0.4996  0.0439  0.5681
  228MOL0     H30740   4.559   4.251   4.685  0.9493  2.3136 -1.3982
  228MOL0     H30741   4.437   4.318   5.035 -0.5685 -0.3971  0.0792
  228MOL0     H30742   4.457   4.157   4.977  0.0013  1.1887  1.2601
  228MOL0     H30743   4.583   4.277   4.930 -0.0676  0.0320 -1.1536
  228MOL0     H30744   4.086   4.330   5.228 -0.8136 -1.2044  0.2758
  228MOL0     H30745   3.934   4.419   5.392 -0.6756 -1.6655 -0.8731
  228MOL0     H30746   3.719   4.471   5.513 -1.5142 -0.6093 -1.3220
  228MOL0     H30747   3.814   4.604   5.493  0.6975 -1.2369 -1.5391
  228MOL0     H30748   3.505   4.589   5.503 -0.4887  0.0089  0.0992
  228MOL0     H30749   3.608   4.621   5.636 -1.0534  0.3506  0.1964
  228MOL0     H30750   3.602   4.788   5.386  1.9781 -1.0044 -0.0238
  228MOL0     H30751   3.672   4.848   5.542  0.9140 -1.2441  0.5364
  228MOL0     H30752   3.383   4.803   5.467  1.2187 -1.1256 -1.5256
  228MOL0     H30753   3.457   4.842   5.635  4.1705  1.6859  0.0541
  228MOL0     H30754   3.499   5.019   5.397 -0.4243  0.0042 -0.6459
  228MOL0     H30755   3.568   5.043   5.558 -1.1384  0.3441  0.7654
  228MOL0     H30756   3.280   5.037   5.463 -0.9731 -1.2028  1.4400
  228MOL0     H30757   3.310   5.036   5.636  1.6510  2.1622  1.3414
  228MOL0     H30758   3.267   5.261   5.539  1.1351  1.0334 -0.6217
  228MOL0     H30759   3.416   5.246   5.451 -1.0172  2.0100  0.0225
  228MOL0     H30760   3.429   5.191   5.749  3.5929 -0.0424  0.6978
  228MOL0     H30761   3.406   5.362   5.688 -3.2143 -1.0812  0.1204
  228MOL0     H30762   3.697   4.582   5.069  1.2975  2.7416 -0.5582
  228MOL0     H30763   3.854   4.489   4.910  1.4624  1.0284 -0.4082
  228MOL0     H30764   4.073   4.287   4.705  0.3683 -1.0248 -2.5083
  228MOL0     H30765   4.186   4.305   4.494 -2.1359 -1.3011  1.7087
  228MOL0     H30766   3.903   3.026   4.531 -0.3504  0.4837  0.4589
  228MOL0     H30767   4.153   3.034   4.593  0.3786 -1.7085  1.9525
  228MOL0     H30768   4.496   3.380   4.628 -0.5371 -0.0802  1.6612
  228MOL0     H30769   4.744   3.362   4.641  2.6860 -1.5615  0.4087
  228MOL0     H30770   4.956   3.051   4.892 -0.7823  2.2209  0.8418
  228MOL0     H30771   4.947   2.997   4.722  0.4482 -0.0410 -2.4052
  228MOL0     H30772   5.115   3.136   4.654 -3.8303 -0.7822  0.2838
  228MOL0     H30773   5.161   3.026   4.786 -0.0002 -0.2982 -0.7788
  228MOL0     H30774   5.154   3.230   4.937  0.7149 -0.6571 -0.2295
  228MOL0     H30775   5.122   3.326   4.783 -0.0517 -1.1935 -0.3301
  228MOL0     H30776   5.354   3.346   4.817 -1.3450 -0.1273  0.1274
  228MOL0     H30777   5.348   3.208   4.707  2.6115  1.3875 -0.4130
  228MOL0     H30778   5.510   3.004   5.023  3.3077 -0.3140 -2.9372
  228MOL0     H30779   4.722   3.013   4.879 -1.4223  0.7874  2.0182
  228MOL0     H30780   4.484   3.016   4.856 -0.2441 -0.5282 -0.0254
  229MOL0     O30781   0.763   2.392  11.138  0.3057 -0.5069 -0.5148
  229MOL0     C30782   0.856   2.407  11.053 -0.0271 -0.2284 -0.3996
  229MOL0     O30783   0.989   2.406  11.093 -0.7157 -0.5541 -0.7269
  229MOL0     C30784   1.035   2.413  11.220 -0.6483  0.5249  0.0158
  229MOL0     C30785   0.962   2.392  11.342  0.6685 -0.3828 -0.5154
  229MOL0     C30786   1.032   2.404  11.465  0.5889  0.2592 -0.2540
  229MOL0     C30787   1.173   2.417  11.471  0.0721 -0.0147  0.3308
  229MOL0     O30788   1.247   2.450  11.584 -0.3562 -0.4481 -0.1500
  229MOL0     C30789   1.321   2.340  11.634  0.5494 -0.5303 -0.2259
  229MOL0     C30790   1.312   2.339  11.789 -0.6078 -0.7170 -0.0532
  229MOL0     C30791   1.207   2.437  11.844 -1.2609 -0.1293 -0.7764
  229MOL0     C30792   1.202   2.426  11.991 -0.3169 -0.5182  0.7658
  229MOL0     C30793   1.105   2.538  12.047  0.0831  0.3234  0.0806
  229MOL0     C30794   1.064   2.517  12.196  0.2240 -0.9381 -1.4209
  229MOL0     C30795   0.984   2.646  12.255 -0.1199 -0.4028  0.0231
  229MOL0     C30796   0.954   2.623  12.397  0.4910  0.4152  0.2724
  229MOL0     N30797   0.827   2.543  12.418 -0.0661 -0.5044  0.6366
  229MOL0     C30798   0.810   2.480  12.534  0.7221  0.1981 -0.5920
  229MOL0     C30799   0.676   2.445  12.535  0.6408 -0.5135  0.5171
  229MOL0     C30800   0.606   2.370  12.646 -0.3946  0.0360  0.1851
  229MOL0     C30801   0.455   2.360  12.635  0.4449  0.2901  0.2674
  229MOL0     C30802   0.404   2.259  12.732 -0.6391 -0.0065 -0.1478
  229MOL0     C30803   0.255   2.244  12.737 -0.6053  0.0841 -0.1540
  229MOL0     O30804   0.209   2.181  12.616 -0.5544  0.4255  0.1080
  229MOL0     C30805   0.137   2.067  12.645 -0.4224  0.6674  0.0577
  229MOL0     C30806  -0.005   2.060  12.649 -0.1999  0.0817 -0.1732
  229MOL0     C30807  -0.073   1.940  12.689 -0.8244  0.5450  0.0617
  229MOL0     C30808  -0.221   1.942  12.694  0.0559  0.3233  0.2055
  229MOL0     C30809   0.006   1.829  12.726  0.9215  0.0901  0.4931
  229MOL0     C30810  -0.057   1.701  12.780  0.1833 -0.5069  0.2962
  229MOL0     O30811  -0.184   1.716  12.833 -0.5854 -0.3446 -0.2228
  229MOL0     C30812  -0.246   1.610  12.902 -0.3330  0.6194  0.1381
  229MOL0     C30813  -0.187   1.531  12.998 -0.4308 -0.0788  0.1362
  229MOL0     C30814  -0.264   1.434  13.066  0.5555  0.1215  0.1094
  229MOL0     C30815  -0.401   1.413  13.031  0.1705  0.3968 -0.3532
  229MOL0     O30816  -0.462   1.321  13.112 -0.7950 -0.4010 -0.3516
  229MOL0     C30817  -0.563   1.248  13.049  0.6573  0.1920 -0.2438
  229MOL0     C30818  -0.617   1.146  13.156  0.9771  0.6056  0.2353
  229MOL0     C30819  -0.720   1.050  13.094 -0.1842  0.6253 -0.1526
  229MOL0     C30820  -0.802   0.979  13.202 -0.3574 -0.2824 -0.0153
  229MOL0     C30821  -0.867   0.856  13.148 -0.2711 -0.5309  0.0067
  229MOL0     C30822  -1.008   0.873  13.111  0.5161  0.0333 -0.5512
  229MOL0     C30823  -1.052   0.736  13.054  0.7011  0.2120 -0.7062
  229MOL0     C30824  -1.102   0.652  13.174 -0.3271  0.9051  0.2602
  229MOL0    Cl30825  -1.187   0.501  13.114  0.4094  0.2201 -0.1302
  229MOL0     C30826  -0.445   1.490  12.927  0.1366 -0.1206  0.5740
  229MOL0     C30827  -0.372   1.580  12.859  1.0707 -0.2719  0.8073
  229MOL0     O30828   0.015   1.597  12.786  0.7937  0.1894 -0.0448
  229MOL0     C30829   0.143   1.835  12.706 -0.3898  0.0315  0.9573
  229MOL0     C30830   0.208   1.947  12.665  0.0478 -0.6625  0.1913
  229MOL0     N30831   0.621   2.495  12.417  0.6919  1.1272 -0.0668
  229MOL0     N30832   0.717   2.544  12.343 -0.4392 -0.4316 -0.1472
  229MOL0     C30833   1.250   2.427  11.351  0.6708 -0.5760 -0.8290
  229MOL0     C30834   1.175   2.426  11.233 -0.6968  0.7450 -0.2939
  229MOL0     C30835   0.815   2.405  10.907 -0.7216  0.9053 -0.0643
  229MOL0     C30836   0.678   2.409  10.862  0.0405 -0.1026 -0.3025
  229MOL0     C30837   0.661   2.415  10.724 -0.3518 -0.0719 -0.2549
  229MOL0     C30838   0.768   2.437  10.637 -0.7906  0.6110 -1.1156
  229MOL0     O30839   0.728   2.460  10.504 -0.2803  0.3707 -0.8811
  229MOL0     C30840   0.826   2.508  10.413  0.3952 -0.5261 -0.6768
  229MOL0     C30841   0.758   2.519  10.269 -0.7132  0.2621 -1.0666
  229MOL0     C30842   0.661   2.638  10.264  0.3506  0.3308  0.2693
  229MOL0     C30843   0.731   2.775  10.278 -1.2374 -0.6307  0.3235
  229MOL0     C30844   0.632   2.877  10.271 -1.0360 -0.6010  0.1702
  229MOL0     C30845   0.545   2.962  10.263 -0.2385  0.0008 -0.1036
  229MOL0     C30846   0.896   2.442  10.683  0.3946  0.6547 -0.7567
  229MOL0     C30847   0.923   2.432  10.818  0.0413 -1.6822  0.3917
  229MOL0     H30848   0.855   2.377  11.342  0.4989  0.6325  1.2312
  229MOL0     H30849   0.977   2.411  11.558  0.7684 -1.0993 -0.0335
  229MOL0     H30850   1.281   2.246  11.593  2.3115 -2.4081  2.0832
  229MOL0     H30851   1.423   2.345  11.595  0.5937 -2.4584 -0.4685
  229MOL0     H30852   1.292   2.243  11.837  1.2152 -1.5639 -0.8876
  229MOL0     H30853   1.415   2.355  11.823 -0.2828  0.1767 -1.4096
  229MOL0     H30854   1.236   2.539  11.816  0.5904 -0.7556 -1.3161
  229MOL0     H30855   1.104   2.412  11.818 -1.8190  3.0243 -2.0204
  229MOL0     H30856   1.185   2.322  12.017  0.0237 -0.7188  0.2289
  229MOL0     H30857   1.297   2.451  12.039  0.8076 -2.0369 -0.5507
  229MOL0     H30858   1.154   2.636  12.046  0.9632 -0.0900 -1.8932
  229MOL0     H30859   1.016   2.544  11.984  0.2878  2.2359 -0.0903
  229MOL0     H30860   1.001   2.428  12.193  1.4835 -1.8853 -0.4141
  229MOL0     H30861   1.148   2.504  12.265  0.0147 -2.0040 -1.3492
  229MOL0     H30862   1.056   2.729  12.255 -2.7450  2.0521 -0.3329
  229MOL0     H30863   0.903   2.689  12.194  2.2373  2.9333 -1.0086
  229MOL0     H30864   0.944   2.722  12.442 -0.5838 -0.5631  2.3235
  229MOL0     H30865   1.042   2.581  12.447  2.4441  3.1702 -0.6011
  229MOL0     H30866   0.876   2.468  12.619 -0.1826 -0.2283  0.0741
  229MOL0     H30867   0.639   2.266  12.661  1.1207  0.7721  2.3224
  229MOL0     H30868   0.630   2.418  12.741  0.5478  1.5450 -0.7787
  229MOL0     H30869   0.419   2.331  12.535 -0.4416  3.1892 -0.3563
  229MOL0     H30870   0.408   2.456  12.659 -1.4196  0.2813 -2.7467
  229MOL0     H30871   0.433   2.281  12.835  1.0243  1.2795 -0.8455
  229MOL0     H30872   0.451   2.165  12.704  1.3871  0.6717  0.7505
  229MOL0     H30873   0.210   2.343  12.734 -1.1053 -0.1638 -2.5801
  229MOL0     H30874   0.220   2.194  12.829 -3.2094  2.3567  0.2349
  229MOL0     H30875  -0.052   2.151  12.612  0.7298  0.4011 -0.6055
  229MOL0     H30876  -0.265   1.857  12.641  0.0382 -1.1406  2.3947
  229MOL0     H30877  -0.259   1.945  12.797 -0.5799 -1.7402  0.0805
  229MOL0     H30878  -0.248   2.036  12.646  0.3567  1.5560  2.3489
  229MOL0     H30879  -0.088   1.558  13.033 -0.1762  1.2298 -1.4729
  229MOL0     H30880  -0.230   1.376  13.152 -0.9052 -1.1196 -0.1012
  229MOL0     H30881  -0.642   1.309  13.006  0.3500 -1.0030 -1.4268
  229MOL0     H30882  -0.508   1.187  12.976  2.6832 -0.1820  1.4778
  229MOL0     H30883  -0.537   1.074  13.178  1.3001  0.8924  0.0154
  229MOL0     H30884  -0.650   1.207  13.240 -0.7331  0.4865 -0.3104
  229MOL0     H30885  -0.659   0.979  13.038  1.2168  0.1182  1.8954
  229MOL0     H30886  -0.788   1.094  13.021 -3.3704 -1.5904  1.2459
  229MOL0     H30887  -0.728   0.943  13.273  0.5018  0.9079 -0.2752
  229MOL0     H30888  -0.872   1.048  13.249 -0.9231 -0.5256 -0.4848
  229MOL0     H30889  -0.867   0.784  13.230  2.0880 -0.5362  0.0804
  229MOL0     H30890  -0.804   0.804  13.074 -0.5882  0.8394 -1.2794
  229MOL0     H30891  -1.061   0.894  13.204  1.0543  3.2122 -0.8794
  229MOL0     H30892  -1.026   0.951  13.036  2.0306  1.9340  0.9664
  229MOL0     H30893  -0.980   0.680  12.993 -0.6515  0.4936 -2.6290
  229MOL0     H30894  -1.137   0.756  12.989 -0.3361 -1.9218 -0.1113
  229MOL0     H30895  -1.169   0.708  13.240 -2.8876 -1.7286  0.1154
  229MOL0     H30896  -1.018   0.608  13.228 -0.4266 -1.1411 -1.1433
  229MOL0     H30897  -0.548   1.472  12.899  0.5673 -0.0988 -1.1628
  229MOL0     H30898  -0.407   1.648  12.782  1.1317 -1.2336 -0.0801
  229MOL0     H30899   0.209   1.757  12.742  2.2095  2.4492  1.7692
  229MOL0     H30900   0.314   1.958  12.645 -0.0756  0.5886  0.1087
  229MOL0     H30901   1.359   2.426  11.352  0.7010 -1.9682 -1.9485
  229MOL0     H30902   1.225   2.434  11.137 -1.2347  2.1344 -0.4683
  229MOL0     H30903   0.593   2.404  10.929  0.5603 -1.9629  0.2776
  229MOL0     H30904   0.560   2.426  10.687 -0.2277 -2.0029 -1.2386
  229MOL0     H30905   0.874   2.597  10.453 -1.3706  0.0676  0.2036
  229MOL0     H30906   0.902   2.429  10.406  0.2161 -0.6369 -1.5077
  229MOL0     H30907   0.705   2.425  10.249 -0.7765 -0.6142  2.5442
  229MOL0     H30908   0.844   2.522  10.201 -0.9969 -2.1263 -1.5915
  229MOL0     H30909   0.590   2.625  10.346  1.5718 -0.5975  1.2220
  229MOL0     H30910   0.615   2.636  10.164  1.6821 -0.3847 -0.3567
  229MOL0     H30911   0.812   2.793  10.207  1.6975  2.2615  3.9582
  229MOL0     H30912   0.781   2.772  10.375  0.4583  1.3227 -0.4005
  229MOL0     H30913   0.466   3.034  10.251  0.7704  1.0146 -0.9579
  229MOL0     H30914   0.985   2.458  10.622 -0.0392  5.9495 -0.5419
  229MOL0     H30915   1.027   2.444  10.846 -0.1408  5.0320 -0.3623
  230MOL0     O30916   3.660   2.083   1.427  0.4924 -0.4697  0.4822
  230MOL0     C30917   3.689   2.037   1.537  0.1076 -0.1746  0.1984
  230MOL0     O30918   3.644   1.917   1.587  0.7787 -0.3308 -0.1987
  230MOL0     C30919   3.525   1.876   1.531 -0.0465  0.7667  0.5807
  230MOL0     C30920   3.406   1.951   1.551 -0.1197 -0.2199  0.1231
  230MOL0     C30921   3.284   1.916   1.490  0.4061  0.0468  0.1678
  230MOL0     C30922   3.289   1.790   1.409 -0.0831  1.7348 -1.1527
  230MOL0     O30923   3.183   1.733   1.351 -0.0582 -0.5111 -0.0911
  230MOL0     C30924   3.063   1.797   1.387  0.1423 -0.2881  0.5577
  230MOL0     C30925   2.957   1.721   1.321  0.4182  0.4643 -0.0259
  230MOL0     C30926   2.814   1.748   1.374 -0.0763 -0.3573 -0.4321
  230MOL0     C30927   2.752   1.884   1.351 -0.4652  0.6619 -0.4934
  230MOL0     C30928   2.609   1.897   1.407  0.0690 -0.1308  0.6837
  230MOL0     C30929   2.502   1.918   1.294 -0.3016  0.0961 -0.0773
  230MOL0     C30930   2.501   2.069   1.254 -0.1340  0.6159  0.2527
  230MOL0     C30931   2.421   2.157   1.360 -0.8122 -0.6739 -0.3923
  230MOL0     N30932   2.287   2.119   1.388  0.7956  0.5223  0.2508
  230MOL0     C30933   2.188   2.104   1.284 -0.7566  0.8396  0.2660
  230MOL0     C30934   2.107   2.000   1.328 -0.3200 -0.0278 -0.2552
  230MOL0     C30935   1.989   1.942   1.259  0.6581  0.1134  0.2610
  230MOL0     C30936   1.904   1.864   1.354  0.9026  0.3176  0.2125
  230MOL0     C30937   1.800   1.787   1.274 -0.6477  0.6057 -0.4258
  230MOL0     C30938   1.701   1.730   1.373 -0.8411 -0.3881 -0.1097
  230MOL0     O30939   1.751   1.643   1.475 -0.7960  0.1030  0.3705
  230MOL0     C30940   1.663   1.573   1.550  1.2962 -0.3363  0.0489
  230MOL0     C30941   1.689   1.447   1.600 -0.4437  0.3790  0.0847
  230MOL0     C30942   1.606   1.387   1.695  0.8508  0.2170 -0.5602
  230MOL0     C30943   1.647   1.249   1.738  0.2717 -0.0413  0.0406
  230MOL0     C30944   1.488   1.450   1.739  0.3510  0.6396  0.3685
  230MOL0     C30945   1.391   1.372   1.834 -0.7227  0.8850 -0.1544
  230MOL0     O30946   1.282   1.447   1.870  0.2902  0.4210  0.2242
  230MOL0     C30947   1.193   1.409   1.971  0.6388 -1.6505  0.9224
  230MOL0     C30948   1.234   1.332   2.083  0.1502 -0.3904 -0.8091
  230MOL0     C30949   1.139   1.278   2.177 -0.2303 -0.5270 -0.2740
  230MOL0     C30950   1.005   1.321   2.172 -0.3809  0.1340  0.5092
  230MOL0     O30951   0.916   1.292   2.284  0.6118  0.8494  0.8616
  230MOL0     C30952   0.807   1.380   2.306  0.1302 -0.2088  0.5710
  230MOL0     C30953   0.675   1.310   2.269  0.7099  1.4152  0.3086
  230MOL0     C30954   0.560   1.376   2.339  0.2831 -0.0419 -0.6078
  230MOL0     C30955   0.429   1.349   2.268 -1.0870  0.3220 -0.2375
  230MOL0     C30956   0.317   1.434   2.313  0.1457 -0.1901  0.1231
  230MOL0     C30957   0.191   1.390   2.248 -0.6993 -0.0452 -0.5391
  230MOL0     C30958   0.077   1.473   2.298 -0.7014  0.3864 -0.4595
  230MOL0     C30959  -0.062   1.412   2.252 -0.7907  0.6695 -0.6426
  230MOL0    Cl30960  -0.198   1.501   2.328  0.1412  0.2036 -0.1302
  230MOL0     C30961   0.974   1.395   2.058  0.4321  0.2246  0.1832
  230MOL0     C30962   1.061   1.435   1.954  0.4866 -0.5870  0.0991
  230MOL0     O30963   1.398   1.253   1.858  0.2351 -0.1240 -0.8199
  230MOL0     C30964   1.456   1.574   1.688 -0.0402  0.0661 -0.5673
  230MOL0     C30965   1.538   1.629   1.592 -0.2741  0.5254 -0.4674
  230MOL0     N30966   2.146   1.980   1.455 -0.1775  0.0940  0.6315
  230MOL0     N30967   2.244   2.045   1.489 -0.2833 -0.1601 -0.2210
  230MOL0     C30968   3.407   1.711   1.401  0.3037 -0.5882 -0.0122
  230MOL0     C30969   3.525   1.750   1.467 -0.2515 -0.7904  0.0907
  230MOL0     C30970   3.798   2.113   1.617 -0.1079 -0.7769  0.7054
  230MOL0     C30971   3.852   2.060   1.728 -0.6756  0.4584  0.8155
  230MOL0     C30972   3.968   2.115   1.791 -0.7758  0.3774 -0.0888
  230MOL0     C30973   4.024   2.231   1.741  1.4386 -0.8008 -0.2587
  230MOL0     O30974   4.134   2.300   1.792  0.3768 -0.0715 -0.2824
  230MOL0     C30975   4.191   2.264   1.914 -0.1906  0.3344 -0.0459
  230MOL0     C30976   4.273   2.373   1.976  0.8178 -1.1326 -0.7200
  230MOL0     C30977   4.289   2.324   2.127 -0.0363  0.0856  0.1216
  230MOL0     C30978   4.356   2.431   2.215 -0.6028 -0.0744 -0.4294
  230MOL0     C30979   4.392   2.384   2.344 -0.1766  0.3022  0.1654
  230MOL0     C30980   4.429   2.334   2.448 -0.3873  0.2214 -0.3940
  230MOL0     C30981   3.964   2.283   1.625 -0.2265 -0.4454 -0.4448
  230MOL0     C30982   3.849   2.225   1.563 -0.6560 -0.4009 -0.7569
  230MOL0     H30983   3.412   2.048   1.600 -1.2198 -0.1499  0.1534
  230MOL0     H30984   3.194   1.964   1.526  1.3598  0.9357  1.4385
  230MOL0     H30985   3.047   1.802   1.495  1.5429  0.4279  0.7535
  230MOL0     H30986   3.068   1.901   1.353  1.5992  0.3045  2.4054
  230MOL0     H30987   2.950   1.741   1.214  0.2784  0.0117 -0.1069
  230MOL0     H30988   2.979   1.616   1.346 -0.0807  0.3734  0.0353
  230MOL0     H30989   2.748   1.679   1.321 -0.7238  1.1473 -1.6324
  230MOL0     H30990   2.807   1.718   1.479 -0.6700 -1.6338 -0.8195
  230MOL0     H30991   2.813   1.961   1.398 -0.8605 -0.1514  1.4768
  230MOL0     H30992   2.757   1.901   1.243  1.9192 -1.9830 -0.9046
  230MOL0     H30993   2.582   1.804   1.460 -0.8351  1.0751  2.4573
  230MOL0     H30994   2.592   1.978   1.478  0.4920  0.0890  0.5346
  230MOL0     H30995   2.526   1.862   1.203 -1.2648 -1.4786  0.5875
  230MOL0     H30996   2.409   1.874   1.333  0.8346 -0.1939  2.5559
  230MOL0     H30997   2.602   2.107   1.235  0.8945 -1.2678  1.6036
  230MOL0     H30998   2.444   2.062   1.161  3.7405 -2.7489 -2.2260
  230MOL0     H30999   2.413   2.258   1.318 -3.3417 -0.7451 -0.2273
  230MOL0     H31000   2.469   2.163   1.458 -1.5586 -0.2538 -0.0468
  230MOL0     H31001   2.179   2.142   1.183  0.5855  1.2881  0.3003
  230MOL0     H31002   1.942   2.028   1.210 -1.3397 -0.1522  1.5578
  230MOL0     H31003   2.031   1.885   1.175  2.0024 -1.0293  1.6447
  230MOL0     H31004   1.847   1.928   1.422 -0.1553 -2.5650  2.2544
  230MOL0     H31005   1.973   1.799   1.409  0.0819 -0.2867  0.5604
  230MOL0     H31006   1.850   1.707   1.219  1.5148  1.3483  0.3572
  230MOL0     H31007   1.742   1.850   1.206 -0.2194 -1.4054 -2.7889
  230MOL0     H31008   1.628   1.674   1.313 -0.4700 -0.3760 -0.5786
  230MOL0     H31009   1.654   1.818   1.418  2.5921  0.9848  1.0757
  230MOL0     H31010   1.780   1.395   1.572 -0.8887 -0.5680  0.3653
  230MOL0     H31011   1.668   1.252   1.845  1.3542 -1.5435 -0.0994
  230MOL0     H31012   1.563   1.185   1.710  0.4028 -0.0302 -0.3814
  230MOL0     H31013   1.724   1.210   1.671  0.0500  0.3547 -0.4513
  230MOL0     H31014   1.332   1.287   2.087 -0.5474 -1.9353 -0.3297
  230MOL0     H31015   1.170   1.229   2.269 -2.8168  0.4037  1.2339
  230MOL0     H31016   0.824   1.402   2.412 -1.4184 -0.6885  0.9353
  230MOL0     H31017   0.818   1.470   2.245 -1.3027 -0.5423 -0.2347
  230MOL0     H31018   0.663   1.310   2.160 -0.7080  0.0279  0.4267
  230MOL0     H31019   0.689   1.205   2.294 -2.3568  0.7570 -0.3701
  230MOL0     H31020   0.567   1.485   2.333 -0.1009 -0.0657 -1.7707
  230MOL0     H31021   0.553   1.338   2.441 -0.1637  0.2853 -0.5099
  230MOL0     H31022   0.446   1.351   2.160  0.1651  0.7557 -0.0587
  230MOL0     H31023   0.399   1.246   2.287  2.4246 -0.1655  4.6984
  230MOL0     H31024   0.335   1.539   2.288  1.0845 -0.1711  0.8378
  230MOL0     H31025   0.301   1.421   2.420  0.5560 -0.2442  0.1796
  230MOL0     H31026   0.202   1.406   2.141  3.2545 -1.6810 -0.5529
  230MOL0     H31027   0.172   1.286   2.277 -0.3946  0.3894  1.3283
  230MOL0     H31028   0.098   1.574   2.259  0.9081 -0.4268 -1.8324
  230MOL0     H31029   0.074   1.475   2.407  2.0110 -1.8273 -0.2393
  230MOL0     H31030  -0.076   1.311   2.293  1.2441 -0.5955 -2.7712
  230MOL0     H31031  -0.060   1.419   2.143  2.7944  1.2082 -0.6746
  230MOL0     H31032   0.872   1.425   2.033  0.4908 -1.5290 -2.5915
  230MOL0     H31033   1.016   1.507   1.885  0.2696 -0.1261  0.7126
  230MOL0     H31034   1.363   1.627   1.709  0.2483  0.8996 -1.3531
  230MOL0     H31035   1.512   1.733   1.572  1.7473  0.8636 -1.6329
  230MOL0     H31036   3.411   1.619   1.344  2.6058 -0.5818  0.0329
  230MOL0     H31037   3.617   1.694   1.480  0.0615 -0.2899  0.0577
  230MOL0     H31038   3.816   1.967   1.772 -0.0006  0.4262  1.3215
  230MOL0     H31039   4.031   2.072   1.868 -0.4405  0.7688 -0.1457
  230MOL0     H31040   4.113   2.242   1.988 -0.5239 -2.1013 -1.0236
  230MOL0     H31041   4.256   2.177   1.901 -2.2250 -1.3649  0.4729
  230MOL0     H31042   4.223   2.470   1.969  3.9709  0.6645 -0.3577
  230MOL0     H31043   4.372   2.390   1.933  1.6108  1.5571  1.8114
  230MOL0     H31044   4.357   2.240   2.111  1.4426  1.3238 -0.3238
  230MOL0     H31045   4.191   2.300   2.169 -0.1671 -1.6292 -1.0393
  230MOL0     H31046   4.294   2.521   2.227  0.6605  0.5917  1.6073
  230MOL0     H31047   4.457   2.451   2.177 -1.4152  3.1174 -1.2692
  230MOL0     H31048   4.464   2.313   2.547  0.9924  2.4785 -0.3362
  230MOL0     H31049   4.008   2.362   1.565 -0.1982 -0.3627 -0.3164
  230MOL0     H31050   3.803   2.273   1.477  1.7321  1.6841 -0.9957
  231MOL0     O31051   3.501   1.338   3.906  0.1328  0.9426  0.2737
  231MOL0     C31052   3.525   1.436   3.968  0.3720  0.5943  0.3447
  231MOL0     O31053   3.436   1.530   4.011 -0.0064  0.5999 -0.8054
  231MOL0     C31054   3.302   1.527   3.976 -0.7319 -0.1143 -0.3794
  231MOL0     C31055   3.211   1.550   4.073  0.1109  1.1061 -0.2490
  231MOL0     C31056   3.075   1.548   4.047 -1.0475  0.7389  0.1156
  231MOL0     C31057   3.028   1.518   3.915 -0.6785 -0.6247  0.3866
  231MOL0     O31058   2.892   1.508   3.877 -0.4629 -0.1206 -0.3962
  231MOL0     C31059   2.794   1.555   3.966  0.1307 -0.1540  0.4040
  231MOL0     C31060   2.692   1.641   3.890  0.1863 -0.0471 -0.4014
  231MOL0     C31061   2.581   1.703   3.991 -0.4510 -0.1268  0.6672
  231MOL0     C31062   2.463   1.740   3.900 -0.0029  0.3202  0.1676
  231MOL0     C31063   2.347   1.798   3.980 -0.3000 -0.7132 -0.8620
  231MOL0     C31064   2.234   1.868   3.899 -0.1995 -0.0305  0.3877
  231MOL0     C31065   2.192   1.795   3.772  1.4923 -0.1555  0.4797
  231MOL0     C31066   2.066   1.839   3.701 -0.6770 -0.3227 -1.0859
  231MOL0     N31067   1.999   1.732   3.633 -0.1902 -0.0461  0.8967
  231MOL0     C31068   1.863   1.716   3.605  0.7600 -0.3557 -0.5271
  231MOL0     C31069   1.848   1.613   3.518 -0.7978  0.3316  0.2250
  231MOL0     C31070   1.727   1.558   3.451  0.0777  0.2705  0.0317
  231MOL0     C31071   1.624   1.504   3.552  0.0998 -0.2966  0.4344
  231MOL0     C31072   1.493   1.469   3.488  0.5344 -0.2635  0.0925
  231MOL0     C31073   1.496   1.339   3.414 -0.2571  0.2161 -0.0375
  231MOL0     O31074   1.450   1.231   3.497 -0.7623  0.7120  0.2666
  231MOL0     C31075   1.309   1.213   3.505 -0.3091 -0.0894  1.0207
  231MOL0     C31076   1.270   1.097   3.571 -0.2303 -0.5305 -0.0735
  231MOL0     C31077   1.135   1.068   3.595 -0.3423  0.3553  0.1642
  231MOL0     C31078   1.096   0.940   3.668  0.3314 -0.0397  0.6229
  231MOL0     C31079   1.037   1.157   3.546  0.3801  0.4665  0.3725
  231MOL0     C31080   0.891   1.135   3.544  0.0879  0.7285  0.2032
  231MOL0     O31081   0.849   1.013   3.512 -0.2216  0.6174  0.2816
  231MOL0     C31082   0.724   0.983   3.541  0.1062 -0.3416 -0.3076
  231MOL0     C31083   0.704   0.906   3.654  0.2744 -0.1261 -0.2727
  231MOL0     C31084   0.585   0.852   3.693  0.0191 -0.9066  0.4453
  231MOL0     C31085   0.471   0.883   3.612  0.1574  0.4257 -0.1185
  231MOL0     O31086   0.348   0.836   3.645  0.1196  0.7652  0.4668
  231MOL0     C31087   0.279   0.951   3.700  0.9031  0.2760  0.1749
  231MOL0     C31088   0.141   0.918   3.756  0.3849  1.1798  0.4178
  231MOL0     C31089   0.060   0.827   3.659 -0.1034  0.1763  0.9986
  231MOL0     C31090  -0.060   0.768   3.738  0.2671  0.2114  0.1450
  231MOL0     C31091  -0.156   0.703   3.637 -0.1478  0.2377 -0.9226
  231MOL0     C31092  -0.286   0.651   3.703  0.6330  0.3141  1.1828
  231MOL0     C31093  -0.353   0.552   3.604  0.3777  0.1169 -0.5183
  231MOL0     C31094  -0.502   0.519   3.643 -1.3563  0.2611 -0.4979
  231MOL0    Cl31095  -0.489   0.420   3.788  0.1399  0.4040  0.1424
  231MOL0     C31096   0.491   0.962   3.495 -0.3441  0.1591  0.2943
  231MOL0     C31097   0.615   1.008   3.462 -1.3230  0.0206  0.7173
  231MOL0     O31098   0.818   1.229   3.568  0.2970  0.9229  0.0675
  231MOL0     C31099   1.080   1.274   3.483  0.0149  0.0909 -0.1250
  231MOL0     C31100   1.217   1.306   3.464 -0.3386  0.6304  0.5382
  231MOL0     N31101   1.979   1.558   3.498  0.7783  0.3666 -0.4170
  231MOL0     N31102   2.069   1.631   3.564  0.1890 -0.7273  0.0444
  231MOL0     C31103   3.125   1.505   3.812  0.5350  0.5637 -0.6162
  231MOL0     C31104   3.258   1.511   3.841 -0.6967 -0.6784 -0.0752
  231MOL0     C31105   3.668   1.466   4.008 -0.0197  0.2320  0.4903
  231MOL0     C31106   3.696   1.555   4.112  0.2485 -0.2234 -0.3783
  231MOL0     C31107   3.824   1.591   4.141 -0.0490  0.2468  0.6791
  231MOL0     C31108   3.933   1.533   4.071  0.4040 -0.1862  0.3297
  231MOL0     O31109   4.057   1.557   4.134  0.3300  0.3659  0.4698
  231MOL0     C31110   4.174   1.521   4.066 -0.1917 -0.2562  1.0129
  231MOL0     C31111   4.299   1.568   4.148  0.6223  0.5449 -0.9518
  231MOL0     C31112   4.430   1.499   4.090  0.2945 -0.2514 -0.1623
  231MOL0     C31113   4.557   1.559   4.167  0.2942 -0.1318 -0.0005
  231MOL0     C31114   4.674   1.542   4.082  0.1020  0.5120  0.6794
  231MOL0     C31115   4.771   1.538   3.999  0.2928  0.6095  0.3114
  231MOL0     C31116   3.903   1.435   3.976  0.6928  0.4296 -0.2127
  231MOL0     C31117   3.771   1.405   3.938 -0.7942  0.1769 -0.0443
  231MOL0     H31118   3.241   1.562   4.176  2.8609 -1.6130 -0.5986
  231MOL0     H31119   3.013   1.555   4.136 -0.6845 -1.6778  0.6441
  231MOL0     H31120   2.744   1.469   4.011  0.1177 -1.1545 -1.4365
  231MOL0     H31121   2.827   1.624   4.045 -1.1729  1.2491 -0.2155
  231MOL0     H31122   2.736   1.725   3.836 -1.8030 -0.2357 -2.4977
  231MOL0     H31123   2.653   1.576   3.810 -2.4329  0.5570  0.2818
  231MOL0     H31124   2.554   1.619   4.055 -3.0512  1.2106  1.4916
  231MOL0     H31125   2.602   1.793   4.051 -2.4775  0.7348  0.1790
  231MOL0     H31126   2.491   1.820   3.831  0.2364  0.9301  0.9466
  231MOL0     H31127   2.435   1.656   3.837  1.4667 -0.0493 -0.0371
  231MOL0     H31128   2.299   1.709   4.023 -1.5446 -1.4433 -3.5248
  231MOL0     H31129   2.394   1.864   4.053 -1.4045 -1.5098  0.6221
  231MOL0     H31130   2.151   1.880   3.970 -0.8097  0.6266 -0.4231
  231MOL0     H31131   2.271   1.967   3.872 -0.7872  0.0974  0.0359
  231MOL0     H31132   2.274   1.801   3.700  0.3523 -0.1412 -0.8495
  231MOL0     H31133   2.174   1.689   3.796  3.2833  0.1212  3.5069
  231MOL0     H31134   2.097   1.910   3.623  0.0450  0.3725 -0.1861
  231MOL0     H31135   1.995   1.888   3.768 -1.2327 -0.0600 -1.8425
  231MOL0     H31136   1.776   1.772   3.637 -0.3070 -2.8709  1.3082
  231MOL0     H31137   1.685   1.638   3.388  2.3341  1.1237 -0.4883
  231MOL0     H31138   1.747   1.475   3.383 -0.1633  0.4431 -0.2577
  231MOL0     H31139   1.609   1.578   3.631 -1.6663  0.7429 -0.8054
  231MOL0     H31140   1.659   1.407   3.589 -2.7646 -1.7497 -0.4406
  231MOL0     H31141   1.459   1.541   3.413 -0.8170 -2.2159 -1.2870
  231MOL0     H31142   1.414   1.477   3.564  0.3500  0.7499 -0.1992
  231MOL0     H31143   1.597   1.320   3.376  0.7640 -0.0330  2.5942
  231MOL0     H31144   1.429   1.339   3.327 -0.4996 -4.6060 -0.1139
  231MOL0     H31145   1.350   1.043   3.621 -0.6989 -1.3374 -0.1868
  231MOL0     H31146   1.048   0.958   3.765 -0.2054 -0.8129  0.5125
  231MOL0     H31147   1.025   0.885   3.605 -0.8824 -1.5398  3.1409
  231MOL0     H31148   1.179   0.875   3.696 -0.7520 -1.0263  1.7119
  231MOL0     H31149   0.789   0.878   3.715  0.5547 -0.5772 -0.8722
  231MOL0     H31150   0.580   0.790   3.782  0.3823 -0.5171  0.7483
  231MOL0     H31151   0.343   0.985   3.781 -1.1245 -1.4953  2.6940
  231MOL0     H31152   0.272   1.027   3.621 -0.1082  2.9485  2.6330
  231MOL0     H31153   0.148   0.862   3.850  0.6774 -2.1298 -1.4108
  231MOL0     H31154   0.089   1.013   3.772  1.1379  1.6173  0.2973
  231MOL0     H31155   0.130   0.750   3.625  0.8803 -0.9227  4.9686
  231MOL0     H31156   0.032   0.890   3.575  2.5516 -0.4588 -0.4704
  231MOL0     H31157  -0.022   0.690   3.803  1.5717  0.6799 -0.0320
  231MOL0     H31158  -0.113   0.839   3.803 -2.1531 -0.2485 -1.1760
  231MOL0     H31159  -0.096   0.622   3.594  0.7062 -0.4255  1.3430
  231MOL0     H31160  -0.184   0.776   3.561  1.2324  1.3256 -0.4348
  231MOL0     H31161  -0.264   0.588   3.790  0.6524 -2.2660 -0.5843
  231MOL0     H31162  -0.349   0.735   3.734  1.1141  2.3587 -2.8095
  231MOL0     H31163  -0.285   0.467   3.599  3.0502  2.1322 -1.0584
  231MOL0     H31164  -0.366   0.589   3.502  0.8090 -0.2591 -0.7144
  231MOL0     H31165  -0.542   0.458   3.561  1.3456  1.1511 -2.6340
  231MOL0     H31166  -0.562   0.610   3.657  1.9130  2.2633  2.0451
  231MOL0     H31167   0.407   0.975   3.428 -1.9529  0.8166  2.3057
  231MOL0     H31168   0.625   1.065   3.370  3.0754 -1.1837  0.2319
  231MOL0     H31169   1.000   1.342   3.458 -0.2384  1.0888  3.0425
  231MOL0     H31170   1.247   1.393   3.406  0.7146  1.0479  1.6650
  231MOL0     H31171   3.093   1.487   3.710 -2.6685 -0.4187  0.4506
  231MOL0     H31172   3.335   1.495   3.767  1.8742 -1.6935  2.6235
  231MOL0     H31173   3.620   1.614   4.162  1.0445  1.3992 -0.9946
  231MOL0     H31174   3.850   1.663   4.217 -0.8131  2.2054 -0.8384
  231MOL0     H31175   4.171   1.412   4.053  1.0906 -0.0695 -1.3505
  231MOL0     H31176   4.164   1.570   3.969  0.4760  1.3731  1.7437
  231MOL0     H31177   4.283   1.547   4.254  1.7169  1.3802 -0.6058
  231MOL0     H31178   4.310   1.675   4.130  0.3977  0.9330  0.9932
  231MOL0     H31179   4.416   1.514   3.983  1.1748  1.5418 -0.0539
  231MOL0     H31180   4.418   1.393   4.112 -0.6751 -0.0210  0.5220
  231MOL0     H31181   4.572   1.514   4.266 -0.4813  0.2372  0.2910
  231MOL0     H31182   4.552   1.668   4.179 -2.8969 -0.1560 -0.3333
  231MOL0     H31183   4.862   1.533   3.942  1.2615  1.8263  1.6820
  231MOL0     H31184   3.988   1.384   3.931  1.4741 -0.5186  2.1888
  231MOL0     H31185   3.749   1.339   3.854 -2.8073  0.5115  0.1548
  232MOL0     O31186   8.908   1.738   6.018 -0.2987 -0.4080  0.2733
  232MOL0     C31187   8.948   1.835   5.956 -0.2083  0.9179 -0.9198
  232MOL0     O31188   8.892   1.964   5.957  0.3653 -0.2362 -0.3292
  232MOL0     C31189   8.780   1.990   6.030 -0.9031  0.8452  0.2262
  232MOL0     C31190   8.763   2.121   6.087 -0.8664  0.1724  0.2757
  232MOL0     C31191   8.644   2.164   6.147 -0.3969 -0.4368 -0.5267
  232MOL0     C31192   8.538   2.075   6.143  0.1203 -0.8650 -0.4381
  232MOL0     O31193   8.423   2.104   6.207  0.5505 -0.3584 -0.2841
  232MOL0     C31194   8.419   2.166   6.339 -0.0217 -0.0417  0.0179
  232MOL0     C31195   8.268   2.179   6.372  0.3052  0.1475 -0.2098
  232MOL0     C31196   8.188   2.056   6.339 -0.6967  0.3888 -0.8380
  232MOL0     C31197   8.040   2.081   6.371 -0.8060  0.5799  0.9663
  232MOL0     C31198   7.953   1.968   6.316  0.6749 -0.2874 -0.2450
  232MOL0     C31199   7.806   1.990   6.366 -0.5011 -1.0518 -0.0016
  232MOL0     C31200   7.715   1.923   6.271  0.4348  0.0121  0.5189
  232MOL0     C31201   7.564   1.928   6.314  0.9559  0.0116 -0.4675
  232MOL0     N31202   7.531   2.065   6.332  0.2120  0.0580  0.5656
  232MOL0     C31203   7.454   2.143   6.246  0.1840 -0.2933  0.1419
  232MOL0     C31204   7.443   2.267   6.308 -0.5633  0.5442  1.0943
  232MOL0     C31205   7.384   2.397   6.257  0.3378 -0.0796 -0.3256
  232MOL0     C31206   7.253   2.441   6.334  0.2333 -0.5472  0.0653
  232MOL0     C31207   7.136   2.473   6.239  0.3822  0.1541  0.8850
  232MOL0     C31208   7.005   2.527   6.296 -0.5924  0.4350 -0.5614
  232MOL0     O31209   6.949   2.426   6.383 -0.4735  0.4582  0.0488
  232MOL0     C31210   6.858   2.333   6.333  0.7036  0.7744  0.1984
  232MOL0     C31211   6.754   2.357   6.242  0.1942  0.2012  0.6766
  232MOL0     C31212   6.668   2.254   6.187  0.9499 -0.2998 -0.5358
  232MOL0     C31213   6.562   2.301   6.090  0.2198  0.4361 -0.0396
  232MOL0     C31214   6.689   2.119   6.214 -0.3848  0.5235 -1.0181
  232MOL0     C31215   6.606   2.002   6.162 -0.4122 -0.3824  0.0087
  232MOL0     O31216   6.666   1.875   6.156 -0.7403 -0.2677 -0.1742
  232MOL0     C31217   6.580   1.768   6.112  0.9125  0.4482  0.6389
  232MOL0     C31218   6.517   1.686   6.209  0.1224 -0.1203 -0.2728
  232MOL0     C31219   6.434   1.577   6.173  0.2724 -0.0523  0.0561
  232MOL0     C31220   6.394   1.563   6.039 -0.2821 -0.5321  0.4246
  232MOL0     O31221   6.300   1.470   6.017  0.5460 -0.1506 -0.2082
  232MOL0     C31222   6.334   1.363   5.928  0.7805 -0.7231  0.4551
  232MOL0     C31223   6.325   1.237   6.009 -0.6105 -0.0004  0.5866
  232MOL0     C31224   6.190   1.212   6.074 -0.1364  0.2147  0.3374
  232MOL0     C31225   6.068   1.203   5.981 -0.0404  0.0347  0.4858
  232MOL0     C31226   5.987   1.331   5.953 -0.3267 -0.5599 -0.0603
  232MOL0     C31227   5.910   1.326   5.822  0.6704 -0.8163  0.3931
  232MOL0     C31228   5.815   1.211   5.809 -0.3217  0.1772  0.0097
  232MOL0     C31229   5.752   1.205   5.668  0.1427  0.4587 -0.1611
  232MOL0    Cl31230   5.864   1.174   5.531 -0.1397 -0.0996  0.0602
  232MOL0     C31231   6.449   1.647   5.943  0.0030 -0.0432 -0.3930
  232MOL0     C31232   6.546   1.741   5.973  0.4522 -0.2203 -0.1792
  232MOL0     O31233   6.483   2.028   6.150 -0.0917 -0.6749 -0.4208
  232MOL0     C31234   6.792   2.093   6.308  0.4723 -0.2840 -0.8117
  232MOL0     C31235   6.870   2.195   6.369 -0.1721  0.0087  0.2354
  232MOL0     N31236   7.501   2.249   6.431  0.2210 -0.6628 -0.3223
  232MOL0     N31237   7.549   2.126   6.445 -0.0005 -1.0819  0.1109
  232MOL0     C31238   8.548   1.950   6.082 -0.4316 -0.4498 -0.3279
  232MOL0     C31239   8.668   1.903   6.024 -0.2284 -1.7339 -0.1321
  232MOL0     C31240   9.081   1.813   5.880 -0.5708 -0.0724 -0.4922
  232MOL0     C31241   9.122   1.681   5.833 -0.4904  0.4808 -0.5437
  232MOL0     C31242   9.238   1.666   5.756 -1.4968  0.7693  0.1255
  232MOL0     C31243   9.322   1.771   5.733 -0.1049 -0.4014  0.2033
  232MOL0     O31244   9.448   1.744   5.689 -0.4474 -0.7847 -0.0736
  232MOL0     C31245   9.556   1.840   5.703 -0.8136  0.2061 -0.0759
  232MOL0     C31246   9.671   1.796   5.615 -0.6450 -0.3835 -0.2987
  232MOL0     C31247   9.686   1.638   5.594 -0.2825  0.3646 -1.0630
  232MOL0     C31248   9.826   1.610   5.550  0.3068 -0.1527  0.1598
  232MOL0     C31249   9.844   1.465   5.496 -0.4212 -0.3721 -0.2172
  232MOL0     C31250   9.861   1.353   5.453 -0.4882 -0.4625  0.7893
  232MOL0     C31251   9.289   1.901   5.781  0.4001  0.1184 -0.1648
  232MOL0     C31252   9.167   1.919   5.846 -0.3917 -0.0435  0.9918
  232MOL0     H31253   8.842   2.194   6.078 -1.3997  0.6748 -0.4401
  232MOL0     H31254   8.642   2.255   6.207  0.1113 -0.7566 -0.0094
  232MOL0     H31255   8.467   2.107   6.418  0.2301  1.3322  0.9208
  232MOL0     H31256   8.468   2.264   6.333 -0.6151  0.2762  0.3066
  232MOL0     H31257   8.257   2.213   6.476 -2.1635  0.7776 -0.6151
  232MOL0     H31258   8.238   2.258   6.304 -0.2947  0.1251  0.0284
  232MOL0     H31259   8.204   2.022   6.236  0.1212 -0.8253 -0.3329
  232MOL0     H31260   8.224   1.978   6.407  0.0852  1.1116 -0.4067
  232MOL0     H31261   8.023   2.088   6.479  1.0650  2.1962  1.2263
  232MOL0     H31262   8.014   2.168   6.310  2.5760 -2.3558 -5.6990
  232MOL0     H31263   7.960   1.967   6.207  0.6386  1.4050 -0.2944
  232MOL0     H31264   7.989   1.878   6.367 -2.1829  0.3397  3.3117
  232MOL0     H31265   7.789   1.962   6.471 -1.3668  1.3755  0.5699
  232MOL0     H31266   7.784   2.097   6.359 -1.4582 -1.2988 -0.9799
  232MOL0     H31267   7.720   1.951   6.166 -2.2670 -2.0647 -0.2873
  232MOL0     H31268   7.738   1.816   6.270 -2.3855 -0.7167 -2.4118
  232MOL0     H31269   7.560   1.872   6.408 -1.7927 -1.1018 -1.1330
  232MOL0     H31270   7.502   1.868   6.246 -1.0551  3.0155 -1.5020
  232MOL0     H31271   7.417   2.110   6.150 -1.7478 -0.5736  0.9381
  232MOL0     H31272   7.459   2.476   6.274  1.5826 -1.6132  1.8688
  232MOL0     H31273   7.360   2.373   6.153 -0.0749 -3.8677  0.5057
  232MOL0     H31274   7.268   2.533   6.390 -1.9812 -0.7408  1.0864
  232MOL0     H31275   7.228   2.358   6.399 -0.8747  1.5249  2.4268
  232MOL0     H31276   7.108   2.386   6.179  3.7361 -0.2957 -0.2327
  232MOL0     H31277   7.165   2.543   6.159 -2.7475  2.6266  1.7035
  232MOL0     H31278   6.941   2.547   6.210  1.4674 -1.1782 -2.5651
  232MOL0     H31279   7.023   2.626   6.339  3.1260 -0.7701  1.0027
  232MOL0     H31280   6.745   2.461   6.211  3.5373 -0.0327 -1.6840
  232MOL0     H31281   6.589   2.399   6.049  2.6372  1.0544  2.6539
  232MOL0     H31282   6.546   2.229   6.010 -0.3614 -1.0947  1.3910
  232MOL0     H31283   6.474   2.311   6.155  0.3349  2.0364 -0.0747
  232MOL0     H31284   6.533   1.694   6.316 -2.5556 -0.1693  0.2151
  232MOL0     H31285   6.395   1.508   6.247 -3.1982  0.8342 -0.7758
  232MOL0     H31286   6.278   1.362   5.834  0.2550 -0.5511  0.7646
  232MOL0     H31287   6.438   1.375   5.897  0.3466 -0.3647 -0.9695
  232MOL0     H31288   6.355   1.155   5.944  2.3201 -0.3563  2.2177
  232MOL0     H31289   6.403   1.242   6.086 -1.8626 -1.2797  2.0112
  232MOL0     H31290   6.181   1.297   6.142  2.7882 -0.3777  1.6221
  232MOL0     H31291   6.206   1.120   6.130  1.9120  0.4444  0.1820
  232MOL0     H31292   6.112   1.181   5.883 -0.2323  4.4387 -0.8113
  232MOL0     H31293   5.998   1.123   6.007  1.2222 -1.2811 -0.0501
  232MOL0     H31294   6.069   1.404   5.944  1.3140 -2.4299 -1.3042
  232MOL0     H31295   5.917   1.367   6.028 -0.2781 -1.1130  0.2512
  232MOL0     H31296   5.849   1.416   5.809  0.7752 -0.9900 -1.7640
  232MOL0     H31297   5.977   1.325   5.735 -0.8285  0.0091 -0.8135
  232MOL0     H31298   5.733   1.221   5.882 -0.4092  1.4214 -0.2404
  232MOL0     H31299   5.865   1.115   5.822  1.6457  0.7334 -2.6404
  232MOL0     H31300   5.693   1.295   5.649  0.2837  0.2601 -1.7092
  232MOL0     H31301   5.681   1.122   5.658 -1.0295  1.6708 -2.9836
  232MOL0     H31302   6.425   1.625   5.840 -0.9336 -2.3658  0.2499
  232MOL0     H31303   6.592   1.795   5.890  3.5062 -2.6903 -0.3016
  232MOL0     H31304   6.799   1.986   6.327 -2.3158 -0.1703  1.6207
  232MOL0     H31305   6.960   2.168   6.424  1.3135  1.2774 -1.4258
  232MOL0     H31306   8.457   1.890   6.077 -0.4585 -0.4737  0.4521
  232MOL0     H31307   8.664   1.805   5.977  0.8143 -1.6056 -0.5217
  232MOL0     H31308   9.055   1.602   5.862  1.8135 -1.9668 -1.4757
  232MOL0     H31309   9.270   1.569   5.719  1.6517  1.8759 -0.3482
  232MOL0     H31310   9.531   1.941   5.670  0.9853  0.2543 -1.5205
  232MOL0     H31311   9.599   1.832   5.803  1.6354  0.2935 -1.0341
  232MOL0     H31312   9.764   1.842   5.650  0.7588 -4.1978  1.5447
  232MOL0     H31313   9.649   1.838   5.516 -3.0965 -2.6878 -0.8527
  232MOL0     H31314   9.607   1.595   5.532 -0.7023 -2.7880  1.3755
  232MOL0     H31315   9.680   1.592   5.694  1.3409 -1.0363 -1.5566
  232MOL0     H31316   9.904   1.635   5.622 -1.1208  2.4167  0.9428
  232MOL0     H31317   9.847   1.673   5.463  0.0331 -1.1815 -0.6660
  232MOL0     H31318   9.883   1.258   5.408 -0.1225  0.2061 -0.5120
  232MOL0     H31319   9.346   1.993   5.772 -1.2584  1.1192 -0.9050
  232MOL0     H31320   9.138   2.021   5.868 -0.2953  0.9194 -2.6291
  233MOL0     O31321   5.435   8.018   3.490 -0.4103 -0.3608 -0.7809
  233MOL0     C31322   5.542   7.999   3.549  1.4720 -0.1500 -0.0155
  233MOL0     O31323   5.608   8.090   3.630  0.0838 -0.0738  0.7747
  233MOL0     C31324   5.553   8.215   3.656 -0.9475 -0.7613 -0.6343
  233MOL0     C31325   5.535   8.312   3.550 -0.6665 -0.2298 -0.4283
  233MOL0     C31326   5.484   8.438   3.582  0.0883  0.6334  0.7461
  233MOL0     C31327   5.447   8.469   3.712 -0.8107 -0.3917 -0.3236
  233MOL0     O31328   5.384   8.587   3.735 -0.4040 -0.2363  0.3765
  233MOL0     C31329   5.370   8.635   3.872 -0.2710 -0.2370 -0.7569
  233MOL0     C31330   5.309   8.778   3.879  1.0514 -0.8811  0.1528
  233MOL0     C31331   5.405   8.888   3.827 -0.0551  0.8858 -0.0826
  233MOL0     C31332   5.356   9.020   3.886  0.3924 -0.2613  0.6001
  233MOL0     C31333   5.215   9.069   3.849 -0.6359  0.5648  0.2762
  233MOL0     C31334   5.180   9.199   3.923 -0.7046  0.4039  0.4333
  233MOL0     C31335   5.032   9.226   3.925 -0.7982  0.1598 -0.3762
  233MOL0     C31336   4.999   9.378   3.942  0.2508  0.2066 -0.7513
  233MOL0     N31337   4.861   9.410   3.905 -0.1055 -0.4181 -0.5305
  233MOL0     C31338   4.822   9.446   3.783  0.5848 -0.1650 -0.8180
  233MOL0     C31339   4.686   9.475   3.797  0.5192 -0.3256  0.5049
  233MOL0     C31340   4.579   9.517   3.704  0.1853 -0.3237 -0.0710
  233MOL0     C31341   4.555   9.673   3.713  0.1079 -0.8060  0.0488
  233MOL0     C31342   4.461   9.726   3.607  0.7844 -0.5633  0.5039
  233MOL0     C31343   4.316   9.664   3.618  0.7024  0.7698 -1.1071
  233MOL0     O31344   4.219   9.735   3.538  0.0657  0.2329  0.4157
  233MOL0     C31345   4.085   9.715   3.552 -0.0610  0.1382  0.3798
  233MOL0     C31346   3.999   9.802   3.491  0.4158  0.1223  0.6245
  233MOL0     C31347   3.859   9.782   3.495 -0.2473  0.3553 -0.3286
  233MOL0     C31348   3.779   9.895   3.427 -0.1959 -1.2949  0.0336
  233MOL0     C31349   3.808   9.666   3.551 -0.0325 -0.3149 -0.9259
  233MOL0     C31350   3.660   9.630   3.550 -0.1399  1.1092 -0.0159
  233MOL0     O31351   3.621   9.542   3.653  0.2792  0.4923  0.0887
  233MOL0     C31352   3.489   9.514   3.656  1.2308 -0.7982 -0.0488
  233MOL0     C31353   3.415   9.522   3.776  0.6111  0.1658 -0.2254
  233MOL0     C31354   3.275   9.504   3.783 -0.0295  0.2359 -0.3917
  233MOL0     C31355   3.196   9.476   3.666 -0.7485  0.3636  0.3133
  233MOL0     O31356   3.063   9.454   3.653 -0.8094  0.5896 -0.3131
  233MOL0     C31357   2.998   9.461   3.775  0.1157 -0.1430 -0.1211
  233MOL0     C31358   2.848   9.456   3.731 -0.2711 -0.5202 -0.0382
  233MOL0     C31359   2.771   9.365   3.827  0.0017 -0.5427  0.0027
  233MOL0     C31360   2.620   9.399   3.805 -0.9731  0.4138  0.4658
  233MOL0     C31361   2.518   9.324   3.886 -0.2676  0.1780  0.2368
  233MOL0     C31362   2.545   9.339   4.040 -0.3778 -0.4446 -0.6154
  233MOL0     C31363   2.437   9.268   4.115  0.4909  1.0633 -0.1415
  233MOL0     C31364   2.441   9.293   4.275 -0.0962  0.5108  0.3152
  233MOL0    Cl31365   2.328   9.194   4.377 -0.1356  0.3102  0.2251
  233MOL0     C31366   3.268   9.447   3.549 -0.7338  0.0411  0.1563
  233MOL0     C31367   3.410   9.468   3.542  0.2035  0.9594  0.0086
  233MOL0     O31368   3.583   9.678   3.466  0.3383  0.3897 -0.4908
  233MOL0     C31369   3.902   9.586   3.625 -0.8988  0.2988  0.7246
  233MOL0     C31370   4.039   9.610   3.623  1.1092  1.3046  0.2291
  233MOL0     N31371   4.646   9.438   3.923  0.1202  0.0204  0.0154
  233MOL0     N31372   4.746   9.396   3.984  0.4512  0.5501 -0.1719
  233MOL0     C31373   5.480   8.377   3.812 -0.5219  0.2362  0.0401
  233MOL0     C31374   5.534   8.249   3.789 -0.0879 -0.3732  0.3479
  233MOL0     C31375   5.611   7.873   3.508  0.4061 -1.0252  0.0567
  233MOL0     C31376   5.706   7.823   3.588  0.2726 -0.8229  0.3671
  233MOL0     C31377   5.751   7.692   3.571  1.2959 -0.7206 -0.8119
  233MOL0     C31378   5.709   7.611   3.463 -0.0921  1.1977 -0.1084
  233MOL0     O31379   5.769   7.496   3.424 -0.3305 -0.0730 -0.9762
  233MOL0     C31380   5.866   7.445   3.516 -0.5633  0.1908  0.3111
  233MOL0     C31381   5.887   7.300   3.478 -0.5337 -0.0659 -0.1402
  233MOL0     C31382   5.771   7.206   3.489 -0.6482 -0.1406  0.9069
  233MOL0     C31383   5.714   7.185   3.627 -0.8592  0.4464  0.0833
  233MOL0     C31384   5.584   7.113   3.633 -0.5521 -0.5831  0.1835
  233MOL0     C31385   5.478   7.052   3.622 -0.5145 -0.2578  0.3460
  233MOL0     C31386   5.618   7.664   3.377 -0.4744  0.6048  0.4829
  233MOL0     C31387   5.572   7.800   3.396 -0.9475 -0.1525  0.3048
  233MOL0     H31388   5.567   8.283   3.450  2.2427 -0.0190  0.3483
  233MOL0     H31389   5.471   8.508   3.499  1.0309 -1.3476 -1.1830
  233MOL0     H31390   5.307   8.572   3.935 -1.9970 -0.6722 -2.8136
  233MOL0     H31391   5.473   8.636   3.909  0.1806  0.0280 -1.9731
  233MOL0     H31392   5.210   8.777   3.832  0.8936 -1.0537  0.4872
  233MOL0     H31393   5.283   8.791   3.984 -1.4388 -0.0778 -0.4889
  233MOL0     H31394   5.505   8.856   3.858 -0.1143  1.1705  0.3971
  233MOL0     H31395   5.411   8.892   3.717 -0.7770  0.8245 -0.1281
  233MOL0     H31396   5.377   9.023   3.993  2.9112  4.1373  0.2331
  233MOL0     H31397   5.432   9.083   3.839 -0.8601 -0.1470 -1.4029
  233MOL0     H31398   5.208   9.079   3.741  0.2738 -0.0791  0.1461
  233MOL0     H31399   5.148   8.991   3.885  0.9006 -0.6632  0.5696
  233MOL0     H31400   5.223   9.196   4.024  0.6237  2.3452 -0.0127
  233MOL0     H31401   5.236   9.279   3.874  0.7234  0.4965  2.1124
  233MOL0     H31402   4.985   9.189   3.833  0.4431  0.5546 -1.1945
  233MOL0     H31403   4.988   9.165   4.004 -0.7059 -1.0550 -1.2241
  233MOL0     H31404   5.060   9.452   3.889 -0.4964  1.1749 -0.3022
  233MOL0     H31405   5.012   9.405   4.047  2.4564  0.6429 -1.0910
  233MOL0     H31406   4.884   9.451   3.694 -0.5939  0.1734 -1.6372
  233MOL0     H31407   4.610   9.483   3.604 -1.1120 -1.3435 -0.1411
  233MOL0     H31408   4.487   9.463   3.729  0.6915 -1.0368  0.2920
  233MOL0     H31409   4.645   9.734   3.701 -2.0197  2.3948 -0.9588
  233MOL0     H31410   4.517   9.702   3.811  0.6779 -1.2701  0.4120
  233MOL0     H31411   4.501   9.726   3.506 -1.1708 -2.2435 -0.3597
  233MOL0     H31412   4.439   9.829   3.636 -0.2763  0.8893 -4.5490
  233MOL0     H31413   4.279   9.671   3.720 -2.0311 -3.4788 -1.5194
  233MOL0     H31414   4.305   9.559   3.589 -0.8411 -0.0752  2.1215
  233MOL0     H31415   4.029   9.890   3.434 -2.0071  0.4253 -0.2777
  233MOL0     H31416   3.830   9.977   3.376 -1.2493 -1.2719 -1.0261
  233MOL0     H31417   3.714   9.854   3.349  0.4237  0.1775 -1.3027
  233MOL0     H31418   3.714   9.935   3.506 -2.0461 -1.6114 -1.2597
  233MOL0     H31419   3.468   9.534   3.871 -1.0168  1.8677  0.5303
  233MOL0     H31420   3.228   9.510   3.880 -0.8393 -3.8014 -0.3801
  233MOL0     H31421   3.019   9.373   3.836  0.9762  0.0734 -0.0911
  233MOL0     H31422   3.025   9.553   3.827  0.4027  1.1585 -2.4575
  233MOL0     H31423   2.807   9.558   3.735  0.6701 -0.0993 -0.6579
  233MOL0     H31424   2.838   9.411   3.632 -0.7840  0.4391 -0.4365
  233MOL0     H31425   2.788   9.399   3.930 -0.6151  1.6335 -0.5552
  233MOL0     H31426   2.798   9.260   3.816  1.1626 -0.2063 -0.5751
  233MOL0     H31427   2.606   9.507   3.818  3.1126  0.9808  1.5279
  233MOL0     H31428   2.602   9.388   3.698  0.1978  2.0477  0.0482
  233MOL0     H31429   2.535   9.220   3.857  0.7019  0.3000  0.3388
  233MOL0     H31430   2.414   9.349   3.863 -0.1663  0.3622 -0.0274
  233MOL0     H31431   2.643   9.296   4.063 -0.2113  0.2287 -0.0329
  233MOL0     H31432   2.536   9.447   4.054 -0.8255 -0.6376  0.6731
  233MOL0     H31433   2.458   9.162   4.098  1.7258  1.0764  1.0832
  233MOL0     H31434   2.339   9.299   4.078 -0.0673 -0.8623 -0.3683
  233MOL0     H31435   2.427   9.399   4.299  1.9571  0.9946 -0.3814
  233MOL0     H31436   2.538   9.256   4.311  0.0897  2.4038  1.9305
  233MOL0     H31437   3.211   9.414   3.462 -1.3417  0.3625  0.4246
  233MOL0     H31438   3.484   9.451   3.466  2.8370  0.3985  2.5159
  233MOL0     H31439   3.868   9.495   3.672 -0.4813 -0.0250  0.4066
  233MOL0     H31440   4.108   9.545   3.676 -0.7219 -2.0350 -1.2313
  233MOL0     H31441   5.469   8.404   3.917 -0.0823 -0.7739  0.3642
  233MOL0     H31442   5.562   8.182   3.870  1.4309 -0.7068 -0.4208
  233MOL0     H31443   5.745   7.870   3.677 -0.1146  0.8558 -0.3169
  233MOL0     H31444   5.816   7.662   3.652 -1.3499  0.2469  1.8446
  233MOL0     H31445   5.956   7.494   3.479 -0.6563 -1.8554 -2.9607
  233MOL0     H31446   5.846   7.446   3.624 -0.0584  0.4134  0.4033
  233MOL0     H31447   5.972   7.251   3.527 -0.5833  0.1344  0.1536
  233MOL0     H31448   5.926   7.307   3.376  0.5407 -2.8829 -0.0152
  233MOL0     H31449   5.808   7.107   3.459  2.1082 -0.2350  3.9927
  233MOL0     H31450   5.694   7.250   3.426 -0.6970 -0.8173  0.4789
  233MOL0     H31451   5.711   7.281   3.681 -0.7366 -0.1898  1.2488
  233MOL0     H31452   5.782   7.122   3.685 -1.1416  1.2008  1.3010
  233MOL0     H31453   5.387   6.995   3.622 -0.6301 -0.0819  0.9478
  233MOL0     H31454   5.591   7.600   3.294 -2.6365 -1.5075  2.6436
  233MOL0     H31455   5.499   7.839   3.326 -1.1443 -0.6020  0.2539
  234MOL0     O31456   9.037   5.302   7.223 -0.2296 -0.6268 -0.5520
  234MOL0     C31457   9.102   5.260   7.130  0.8777  0.5851  0.1773
  234MOL0     O31458   9.039   5.190   7.030  0.1990 -0.8051  0.2356
  234MOL0     C31459   8.898   5.172   7.042  1.0492 -0.0058  0.4995
  234MOL0     C31460   8.796   5.274   7.048 -0.9731  0.0871  0.1255
  234MOL0     C31461   8.660   5.238   7.077 -0.3093 -0.2727 -0.8403
  234MOL0     C31462   8.622   5.103   7.092  0.1775 -0.2885  0.1720
  234MOL0     O31463   8.494   5.060   7.121 -0.1891  0.0448  0.6342
  234MOL0     C31464   8.393   5.153   7.161  0.9021  0.0684  0.5328
  234MOL0     C31465   8.325   5.219   7.043 -0.1084  0.1292  0.1371
  234MOL0     C31466   8.200   5.299   7.088 -0.5281 -0.6148  0.4526
  234MOL0     C31467   8.149   5.381   6.964  0.6511  0.0119 -0.1397
  234MOL0     C31468   8.006   5.431   6.984  0.3798 -1.0616  0.3509
  234MOL0     C31469   7.890   5.330   6.996 -0.1199 -0.2451  0.7845
  234MOL0     C31470   7.755   5.386   6.965 -0.5721 -0.5144 -0.5480
  234MOL0     C31471   7.636   5.297   6.991  0.3211  0.3815 -0.1566
  234MOL0     N31472   7.503   5.360   6.970  0.2684 -0.3311  0.3364
  234MOL0     C31473   7.401   5.342   7.055 -0.4029  0.4385 -0.1977
  234MOL0     C31474   7.307   5.413   6.996  0.3336  0.7693  0.2749
  234MOL0     C31475   7.163   5.423   7.038  0.0034 -0.2435 -0.2572
  234MOL0     C31476   7.076   5.297   7.026  0.4171 -0.0700 -0.3066
  234MOL0     C31477   6.935   5.324   7.072  0.2020  1.0148 -0.8060
  234MOL0     C31478   6.844   5.195   7.062 -0.2115  0.4637 -1.2513
  234MOL0     O31479   6.722   5.217   7.128  0.2870  0.9978 -0.0938
  234MOL0     C31480   6.631   5.286   7.052 -0.0144  0.4242  0.0074
  234MOL0     C31481   6.514   5.300   7.122 -0.4848  0.1598  0.1767
  234MOL0     C31482   6.408   5.374   7.064  0.2311 -1.1235  0.1250
  234MOL0     C31483   6.283   5.386   7.150 -0.9710  0.9256 -0.4388
  234MOL0     C31484   6.419   5.433   6.937  0.7267 -0.2853  0.8053
  234MOL0     C31485   6.311   5.524   6.877 -0.5445  0.8027 -0.6844
  234MOL0     O31486   6.194   5.462   6.853  0.1538 -1.0218  0.4082
  234MOL0     C31487   6.093   5.535   6.803  0.0274  0.1415  0.1769
  234MOL0     C31488   6.088   5.554   6.664  0.0183 -0.2552  0.3761
  234MOL0     C31489   5.996   5.643   6.612  0.5362  0.5980  0.3803
  234MOL0     C31490   5.896   5.691   6.689 -0.4886  0.4698 -0.4497
  234MOL0     O31491   5.790   5.762   6.641 -0.7785 -0.5110  0.1672
  234MOL0     C31492   5.705   5.698   6.552 -0.3127  0.3894  0.1228
  234MOL0     C31493   5.567   5.759   6.559  0.1653 -0.5261  0.0585
  234MOL0     C31494   5.581   5.913   6.512 -0.3325 -0.5938  0.3686
  234MOL0     C31495   5.444   5.974   6.523  0.7710  0.0635 -1.0166
  234MOL0     C31496   5.454   6.122   6.498 -0.0613  0.6619  0.5154
  234MOL0     C31497   5.311   6.179   6.501 -0.4060  0.7908  0.0773
  234MOL0     C31498   5.312   6.328   6.519  0.6764  0.0590 -0.1561
  234MOL0     C31499   5.355   6.411   6.398  0.2982  0.6903 -0.6446
  234MOL0    Cl31500   5.238   6.395   6.256 -0.3460  0.2798 -0.2559
  234MOL0     C31501   5.898   5.679   6.827  0.3065  0.9585  0.4501
  234MOL0     C31502   5.999   5.600   6.888 -0.2522  1.2933  0.0155
  234MOL0     O31503   6.338   5.636   6.862  0.5192 -0.5097 -0.5745
  234MOL0     C31504   6.539   5.409   6.865  0.1036 -0.7206 -0.0259
  234MOL0     C31505   6.641   5.341   6.923 -0.2060  0.2900  0.2076
  234MOL0     N31506   7.352   5.457   6.874 -0.4777 -0.2851  0.3188
  234MOL0     N31507   7.473   5.420   6.851  0.2834  0.3971 -0.2400
  234MOL0     C31508   8.722   5.007   7.057 -0.6161  1.1013 -0.0731
  234MOL0     C31509   8.852   5.040   7.025  0.3169  0.3627  0.4669
  234MOL0     C31510   9.247   5.295   7.121  0.0651  0.2974 -0.1891
  234MOL0     C31511   9.313   5.351   7.230 -0.0797 -1.2329 -0.3787
  234MOL0     C31512   9.448   5.375   7.223 -0.3543 -0.0441  0.5431
  234MOL0     C31513   9.518   5.355   7.105 -0.1221 -0.0069  0.0260
  234MOL0     O31514   9.661   5.356   7.121  0.0067  0.3264  0.2465
  234MOL0     C31515   9.733   5.311   7.003 -0.1069 -0.3269 -0.0383
  234MOL0     C31516   9.874   5.259   7.054 -0.0613  0.7029 -0.7426
  234MOL0     C31517   9.985   5.361   7.055  0.3417 -1.1575  0.2986
  234MOL0     C31518   9.981   5.470   7.170 -0.2029 -0.7814  0.1629
  234MOL0     C31519  10.083   5.574   7.149 -0.0778  0.4111  0.2141
  234MOL0     C31520  10.168   5.658   7.115  0.3674  0.1023 -0.3893
  234MOL0     C31521   9.444   5.321   6.987  0.2940  0.0275  0.3288
  234MOL0     C31522   9.308   5.289   6.998 -0.4022  0.4414  0.0951
  234MOL0     H31523   8.819   5.380   7.048 -0.1154 -0.0973 -0.2590
  234MOL0     H31524   8.590   5.317   7.099  3.5414  2.5830  2.6203
  234MOL0     H31525   8.324   5.089   7.216  0.2607 -2.8373 -3.2615
  234MOL0     H31526   8.437   5.228   7.228  2.4142 -2.8330  3.0353
  234MOL0     H31527   8.390   5.291   6.992 -1.0276  1.7233  1.1687
  234MOL0     H31528   8.280   5.140   6.983  0.6716 -1.8257  2.0007
  234MOL0     H31529   8.122   5.232   7.126  0.3880 -0.9215  1.8919
  234MOL0     H31530   8.238   5.348   7.178 -1.4229 -1.1566  1.1359
  234MOL0     H31531   8.214   5.466   6.941 -0.4335  0.8794 -0.0458
  234MOL0     H31532   8.151   5.304   6.886 -2.2848 -1.4248  1.0291
  234MOL0     H31533   8.002   5.496   7.071 -1.2797  2.4423 -2.1157
  234MOL0     H31534   7.979   5.495   6.899 -1.0058 -0.5123  1.1788
  234MOL0     H31535   7.914   5.234   6.951  0.7868  0.3748 -0.1148
  234MOL0     H31536   7.884   5.293   7.099 -0.6049 -2.4815  0.0000
  234MOL0     H31537   7.734   5.484   7.011 -0.6414 -0.5079 -0.5919
  234MOL0     H31538   7.753   5.398   6.856 -2.7685 -0.4195 -0.5448
  234MOL0     H31539   7.652   5.273   7.096 -0.1872 -0.0355 -0.1719
  234MOL0     H31540   7.649   5.206   6.933  0.7560  0.1569  0.2865
  234MOL0     H31541   7.401   5.299   7.154 -1.0867 -1.8283 -1.1059
  234MOL0     H31542   7.155   5.463   7.139 -0.4926  2.8231 -1.4119
  234MOL0     H31543   7.124   5.501   6.973  0.2379 -0.5766 -0.8038
  234MOL0     H31544   7.116   5.222   7.095  0.4643  0.7651  0.5888
  234MOL0     H31545   7.081   5.247   6.929  3.0242 -1.4812  0.4708
  234MOL0     H31546   6.897   5.406   7.010  0.8254  0.6062 -1.7497
  234MOL0     H31547   6.926   5.353   7.177 -2.0320  1.5577 -1.1001
  234MOL0     H31548   6.893   5.113   7.116 -0.9731  1.0478  0.3770
  234MOL0     H31549   6.833   5.160   6.959 -0.8650 -3.1691 -0.1121
  234MOL0     H31550   6.502   5.251   7.218  0.0217 -0.4547 -0.0735
  234MOL0     H31551   6.245   5.291   7.190 -2.6108  0.8600 -2.0353
  234MOL0     H31552   6.310   5.449   7.236  1.9184 -0.5782 -0.1069
  234MOL0     H31553   6.198   5.432   7.099 -2.2038  2.4068  2.6961
  234MOL0     H31554   6.157   5.515   6.590  0.3187 -1.4832  1.2805
  234MOL0     H31555   5.998   5.662   6.505 -1.1297  2.4301  0.6186
  234MOL0     H31556   5.726   5.698   6.445 -1.3462 -0.9122 -0.1040
  234MOL0     H31557   5.689   5.592   6.573 -1.7726  0.0850 -2.1824
  234MOL0     H31558   5.504   5.704   6.489 -0.7042  1.7039 -1.0408
  234MOL0     H31559   5.518   5.762   6.657 -0.6005 -2.4614 -0.2247
  234MOL0     H31560   5.621   5.918   6.410  2.7194 -0.0189  1.4730
  234MOL0     H31561   5.636   5.970   6.587 -3.6973 -0.5711  3.0262
  234MOL0     H31562   5.380   5.915   6.456  1.4673 -2.4034  0.3415
  234MOL0     H31563   5.412   5.962   6.627  1.7083 -0.3442 -0.7648
  234MOL0     H31564   5.503   6.144   6.403  2.8370  1.4813  2.0829
  234MOL0     H31565   5.515   6.173   6.573 -1.1583 -0.4873  2.2926
  234MOL0     H31566   5.257   6.146   6.411 -0.9725 -0.5529  0.8722
  234MOL0     H31567   5.258   6.140   6.589 -4.4615  2.2912 -1.4223
  234MOL0     H31568   5.367   6.375   6.601  0.0369  1.8819 -0.7187
  234MOL0     H31569   5.208   6.349   6.542  0.6133  0.0753 -0.4532
  234MOL0     H31570   5.455   6.392   6.361  0.8331  3.8895 -1.1934
  234MOL0     H31571   5.358   6.512   6.440  2.6254  1.0442 -1.5382
  234MOL0     H31572   5.823   5.734   6.882 -1.5674  0.2471 -1.2466
  234MOL0     H31573   6.015   5.598   6.996 -0.8154 -0.6745  0.0934
  234MOL0     H31574   6.551   5.443   6.762  1.4872 -2.5776 -0.5256
  234MOL0     H31575   6.730   5.322   6.865  0.1323  2.3135 -0.0006
  234MOL0     H31576   8.687   4.904   7.060  0.2328  0.7834  3.3136
  234MOL0     H31577   8.915   4.962   6.984 -1.2774  0.2551 -1.9801
  234MOL0     H31578   9.261   5.369   7.324  0.9482 -2.0728  0.3736
  234MOL0     H31579   9.508   5.427   7.298 -0.6255  0.6033  0.3173
  234MOL0     H31580   9.682   5.237   6.942  0.6776  1.2314 -2.7612
  234MOL0     H31581   9.743   5.402   6.944  2.6226  0.7170  1.8076
  234MOL0     H31582   9.913   5.179   6.990 -0.0819  1.3969 -1.6264
  234MOL0     H31583   9.865   5.209   7.152 -1.0719  1.3196 -0.5148
  234MOL0     H31584   9.971   5.411   6.958 -0.2142  0.5836  1.2386
  234MOL0     H31585  10.082   5.312   7.062 -0.0234 -2.2329 -1.5096
  234MOL0     H31586  10.005   5.422   7.266 -0.9555 -2.7111 -0.5640
  234MOL0     H31587   9.882   5.515   7.181 -0.6125 -1.3592 -0.9754
  234MOL0     H31588  10.250   5.725   7.098 -0.1146 -0.0291 -3.9670
  234MOL0     H31589   9.471   5.318   6.882 -2.7506  1.4168 -0.6103
  234MOL0     H31590   9.242   5.253   6.920 -0.7850 -0.9315  1.0167
  235MOL0     O31591   9.308  10.391   6.537  0.2685 -0.3636 -0.0048
  235MOL0     C31592   9.237  10.308   6.592 -0.0362 -0.0888 -0.4494
  235MOL0     O31593   9.270  10.198   6.659  0.8809 -0.7269  0.5466
  235MOL0     C31594   9.405  10.169   6.670  0.5795 -0.5623 -0.2180
  235MOL0     C31595   9.495  10.256   6.732 -0.3591 -0.1624 -0.8598
  235MOL0     C31596   9.623  10.219   6.762 -0.5779 -0.7224  0.8435
  235MOL0     C31597   9.673  10.096   6.715 -0.2691 -0.8173 -0.9435
  235MOL0     O31598   9.802  10.045   6.744 -0.1144  0.5179  0.2698
  235MOL0     C31599   9.916  10.130   6.764 -0.2581  0.3499 -0.2541
  235MOL0     C31600  10.051  10.059   6.745 -0.7130  0.3483  0.1026
  235MOL0     C31601  10.050   9.973   6.617  1.2570  0.3981 -0.8736
  235MOL0     C31602  10.039   9.817   6.630  0.3974  0.8375  0.6138
  235MOL0     C31603  10.034   9.731   6.503  0.3785 -1.3184 -0.4426
  235MOL0     C31604   9.907   9.759   6.411 -0.2905 -0.4044  0.6859
  235MOL0     C31605   9.882   9.652   6.310  0.4985  0.8674  0.0623
  235MOL0     C31606   9.800   9.705   6.196  0.6469 -0.6082  0.9780
  235MOL0     N31607   9.663   9.751   6.249  0.1574 -0.0981 -0.7767
  235MOL0     C31608   9.563   9.663   6.278  0.3408 -0.0551 -0.4253
  235MOL0     C31609   9.456   9.748   6.313 -0.4341  0.2047  0.4763
  235MOL0     C31610   9.327   9.702   6.369  0.0992 -0.1450 -0.4935
  235MOL0     C31611   9.226   9.798   6.306 -0.5767 -0.0717  0.8114
  235MOL0     C31612   9.083   9.755   6.342 -0.4035  0.8123 -0.3890
  235MOL0     C31613   9.030   9.816   6.479  0.1300  0.3684  0.0592
  235MOL0     O31614   8.984   9.950   6.462 -0.2928 -0.8262 -0.1642
  235MOL0     C31615   8.853   9.967   6.423 -0.3287 -0.2267 -0.0467
  235MOL0     C31616   8.771   9.865   6.380 -0.6969 -1.4527 -0.7674
  235MOL0     C31617   8.639   9.892   6.334  0.1389  0.2285  0.2021
  235MOL0     C31618   8.557   9.774   6.286 -0.1333 -0.7230  0.4163
  235MOL0     C31619   8.591  10.031   6.341  0.9710  0.2204  1.1105
  235MOL0     C31620   8.459  10.069   6.290  1.0833 -0.0778 -0.1130
  235MOL0     O31621   8.369   9.975   6.243 -0.0515 -0.3843 -0.0887
  235MOL0     C31622   8.238  10.000   6.211 -0.7798 -0.3697  0.8729
  235MOL0     C31623   8.171  10.119   6.221  0.2966  0.4516 -0.5890
  235MOL0     C31624   8.029  10.117   6.203  0.2195  0.2271 -0.0565
  235MOL0     C31625   7.960  10.000   6.171 -0.6535 -0.5070  0.6686
  235MOL0     O31626   7.819   9.989   6.162  0.0911  0.1495 -0.0241
  235MOL0     C31627   7.739  10.089   6.227  0.1127 -0.2323  1.4984
  235MOL0     C31628   7.734  10.064   6.380 -0.7953  0.1563  0.2881
  235MOL0     C31629   7.659   9.930   6.409 -0.8375 -0.4917 -0.2249
  235MOL0     C31630   7.643   9.915   6.556  0.1052  0.0807 -0.0521
  235MOL0     C31631   7.611   9.780   6.613 -0.9296  0.0260  0.3425
  235MOL0     C31632   7.508   9.693   6.539 -0.0715 -0.2259 -0.3592
  235MOL0     C31633   7.470   9.568   6.619  0.4114 -0.4429  0.0817
  235MOL0     C31634   7.369   9.481   6.537  0.2134 -0.0292  0.8603
  235MOL0    Cl31635   7.288   9.370   6.657 -0.2020  0.1395 -0.1265
  235MOL0     C31636   8.034   9.878   6.148 -0.0142  0.5480  0.3761
  235MOL0     C31637   8.168   9.880   6.165  0.3717 -0.5692 -0.8157
  235MOL0     O31638   8.443  10.193   6.279 -0.7850 -1.0084 -0.5376
  235MOL0     C31639   8.685  10.124   6.383  0.0024  0.6289  0.2751
  235MOL0     C31640   8.816  10.097   6.412  0.3307 -0.7784  0.6450
  235MOL0     N31641   9.507   9.878   6.327 -0.4496  0.3942  0.4069
  235MOL0     N31642   9.623   9.876   6.284 -1.2571  0.6394  0.1124
  235MOL0     C31643   9.587  10.017   6.648  0.6606 -0.0270 -0.4418
  235MOL0     C31644   9.452  10.043   6.627  0.9397 -0.8396  0.4513
  235MOL0     C31645   9.092  10.330   6.593 -0.6754 -0.7787 -0.1768
  235MOL0     C31646   9.031  10.426   6.509  0.6392  0.2335 -0.4905
  235MOL0     C31647   8.893  10.454   6.518  0.7674  0.0627 -1.3529
  235MOL0     C31648   8.813  10.390   6.614 -0.0899  0.3675  0.0225
  235MOL0     O31649   8.678  10.419   6.627  0.2182 -0.8017  0.1280
  235MOL0     C31650   8.596  10.384   6.740 -0.4565 -1.0089 -0.7561
  235MOL0     C31651   8.550  10.238   6.729 -0.9804  0.1397 -0.4584
  235MOL0     C31652   8.438  10.202   6.631  0.2475  0.0242 -0.3494
  235MOL0     C31653   8.364  10.073   6.658 -0.5226 -0.2345 -0.3453
  235MOL0     C31654   8.453   9.956   6.656  0.3527 -0.7684 -0.0955
  235MOL0     C31655   8.526   9.864   6.676 -0.1649  0.3295 -0.9199
  235MOL0     C31656   8.875  10.296   6.699  0.0783  0.7326  0.1484
  235MOL0     C31657   9.012  10.268   6.690  0.2013  0.8002  0.6703
  235MOL0     H31658   9.468  10.355   6.768 -0.2099 -1.3585  2.9707
  235MOL0     H31659   9.695  10.276   6.820  3.3561 -3.7212 -0.6663
  235MOL0     H31660   9.916  10.216   6.697  1.0975  2.5812  2.3912
  235MOL0     H31661   9.918  10.187   6.858  0.5405  2.5559 -1.5191
  235MOL0     H31662  10.123  10.140   6.732 -3.2020  2.7954  0.7494
  235MOL0     H31663  10.082  10.000   6.832  0.4505  0.1260 -0.4428
  235MOL0     H31664   9.970  10.012   6.554  0.7197  0.8493  0.0567
  235MOL0     H31665  10.141  10.005   6.567  0.7574  3.0536 -0.2370
  235MOL0     H31666  10.118   9.774   6.693  2.5336 -1.2458 -3.1141
  235MOL0     H31667   9.940   9.796   6.672  0.1934 -0.0347 -0.2600
  235MOL0     H31668  10.129   9.749   6.450  1.1179 -4.0647 -0.2251
  235MOL0     H31669  10.033   9.623   6.523 -1.2278 -1.3063 -0.3609
  235MOL0     H31670   9.822   9.773   6.477  1.0500  2.6610  1.9511
  235MOL0     H31671   9.923   9.853   6.358  0.4926 -0.5560  0.6341
  235MOL0     H31672   9.982   9.621   6.277 -0.0024  1.2357 -1.9297
  235MOL0     H31673   9.840   9.569   6.367  3.5905 -0.5326  0.5036
  235MOL0     H31674   9.787   9.627   6.120  0.1492  0.7013 -0.3384
  235MOL0     H31675   9.868   9.777   6.149  0.8526 -1.4675 -0.0810
  235MOL0     H31676   9.555   9.555   6.268  1.6929 -0.1933 -0.1823
  235MOL0     H31677   9.311   9.606   6.320  2.1363 -0.5412 -0.4647
  235MOL0     H31678   9.323   9.703   6.478 -1.0468 -2.9141 -0.4448
  235MOL0     H31679   9.226   9.797   6.196 -0.5703  0.2321  0.8082
  235MOL0     H31680   9.235   9.900   6.346 -1.4319  0.4789 -0.3201
  235MOL0     H31681   9.076   9.646   6.340  0.0758  0.7949 -1.4249
  235MOL0     H31682   9.018   9.781   6.258  0.9068 -1.5660 -2.2344
  235MOL0     H31683   9.118   9.825   6.543 -0.1326  4.2095  0.0992
  235MOL0     H31684   8.957   9.748   6.524 -2.4315  1.3723 -2.2793
  235MOL0     H31685   8.805   9.762   6.377  1.1745 -0.9062  0.0017
  235MOL0     H31686   8.458   9.778   6.332 -1.2027 -0.0906 -1.7673
  235MOL0     H31687   8.551   9.781   6.177 -1.7478  0.1269  0.5295
  235MOL0     H31688   8.612   9.682   6.307  1.5407  0.7239  2.8159
  235MOL0     H31689   8.217  10.214   6.245  3.8554 -1.5998  1.6708
  235MOL0     H31690   7.974  10.210   6.210 -1.6869 -0.9481  3.0305
  235MOL0     H31691   7.770  10.191   6.205 -0.2727 -0.1614  1.2743
  235MOL0     H31692   7.638  10.095   6.186  0.9108  0.7320 -0.4948
  235MOL0     H31693   7.838  10.049   6.413  0.2785  2.2737 -1.8159
  235MOL0     H31694   7.694  10.151   6.432 -1.4977 -0.3634  0.6267
  235MOL0     H31695   7.711   9.841   6.372 -1.7500 -1.6367  1.1459
  235MOL0     H31696   7.563   9.924   6.357 -0.0943  1.8702 -2.0531
  235MOL0     H31697   7.720   9.959   6.622 -1.4404 -0.0458  1.9434
  235MOL0     H31698   7.555   9.978   6.570 -1.8693 -2.2244 -1.4036
  235MOL0     H31699   7.570   9.799   6.713  0.1477  1.7950  0.4754
  235MOL0     H31700   7.703   9.722   6.625 -1.5934 -1.2986 -0.6464
  235MOL0     H31701   7.408   9.736   6.533  0.0409  0.0613 -0.1781
  235MOL0     H31702   7.558   9.655   6.449  1.1631 -2.2481  1.0797
  235MOL0     H31703   7.415   9.594   6.710 -0.2320  3.6503 -1.2520
  235MOL0     H31704   7.552   9.497   6.628 -0.5091 -1.7479 -1.3569
  235MOL0     H31705   7.433   9.426   6.467  0.3698  1.6255 -0.3703
  235MOL0     H31706   7.287   9.534   6.487 -0.6584 -2.0465  0.0406
  235MOL0     H31707   7.990   9.786   6.112  1.1111  0.2249 -0.2047
  235MOL0     H31708   8.213   9.782   6.180 -2.0234 -1.3332  2.4701
  235MOL0     H31709   8.649  10.226   6.385 -1.1867  0.2207  1.6915
  235MOL0     H31710   8.878  10.185   6.427 -1.5493  0.6937  0.2092
  235MOL0     H31711   9.636   9.926   6.616  0.4834 -0.4125  0.3479
  235MOL0     H31712   9.383   9.978   6.575 -0.3880  0.4809  0.4849
  235MOL0     H31713   9.086  10.496   6.447 -1.8420  2.3487 -0.4665
  235MOL0     H31714   8.844  10.520   6.448  4.3380  1.1035 -3.1118
  235MOL0     H31715   8.651  10.410   6.831  0.0547  0.0518 -1.3394
  235MOL0     H31716   8.508  10.448   6.747 -1.0130 -1.5984 -2.0814
  235MOL0     H31717   8.511  10.227   6.830  2.4266 -2.9761  0.7721
  235MOL0     H31718   8.636  10.171   6.718 -0.1682  0.2628  3.5238
  235MOL0     H31719   8.491  10.195   6.535  1.9832 -2.9927  0.6886
  235MOL0     H31720   8.369  10.286   6.625  0.7898  0.6847  1.7128
  235MOL0     H31721   8.284  10.059   6.584 -1.0926  2.3207 -0.3055
  235MOL0     H31722   8.320  10.073   6.759 -0.1759  0.1791 -0.1916
  235MOL0     H31723   8.587   9.778   6.697 -0.7391  0.2547  0.5052
  235MOL0     H31724   8.834  10.230   6.774  1.2879 -0.4402 -0.1899
  235MOL0     H31725   9.049  10.193   6.759  1.3505 -0.1916 -0.9404
  236MOL0     O31726   6.472   6.265   8.902  0.4471 -0.3406  0.3807
  236MOL0     C31727   6.546   6.171   8.869  0.0812 -0.0594  0.2375
  236MOL0     O31728   6.512   6.067   8.785  0.0968  0.2501  0.1340
  236MOL0     C31729   6.387   6.060   8.733 -1.0887  0.4594 -0.1079
  236MOL0     C31730   6.260   6.075   8.803 -0.4605 -0.1243  0.8711
  236MOL0     C31731   6.143   6.065   8.725 -0.0068 -0.0837  0.0581
  236MOL0     C31732   6.142   6.036   8.587 -0.1414 -0.0113 -0.3523
  236MOL0     O31733   6.013   6.014   8.539  0.4376  0.1441  0.1803
  236MOL0     C31734   5.991   6.052   8.403  0.0365 -0.1171  0.2287
  236MOL0     C31735   5.847   6.094   8.375 -0.8073  0.4592 -0.8149
  236MOL0     C31736   5.737   5.985   8.388  0.7706 -0.4283 -0.7013
  236MOL0     C31737   5.596   6.037   8.358 -0.5714  0.1966  0.4731
  236MOL0     C31738   5.486   5.939   8.313 -0.3995  0.3661  0.0304
  236MOL0     C31739   5.483   5.809   8.407  0.3733  0.9882  0.0571
  236MOL0     C31740   5.351   5.738   8.408  0.2237 -0.0855  0.5413
  236MOL0     C31741   5.357   5.619   8.511 -0.3318  0.3178 -0.3334
  236MOL0     N31742   5.360   5.677   8.655  0.3633 -0.2669  0.2691
  236MOL0     C31743   5.249   5.725   8.716 -0.2606 -0.2947 -0.8740
  236MOL0     C31744   5.295   5.772   8.842 -0.2381 -0.3990  0.3254
  236MOL0     C31745   5.209   5.828   8.949 -0.3257 -0.7459 -1.3635
  236MOL0     C31746   5.241   5.746   9.087  0.2860 -0.1204 -0.5120
  236MOL0     C31747   5.191   5.813   9.212 -1.0618  1.1086 -0.0182
  236MOL0     C31748   5.153   5.963   9.208 -0.8008  0.0513  0.0962
  236MOL0     O31749   5.041   5.985   9.117  0.1646  0.1566  0.5232
  236MOL0     C31750   4.916   5.950   9.160 -0.0498  0.2083 -0.3395
  236MOL0     C31751   4.817   5.953   9.063 -0.1787  0.0263  0.7021
  236MOL0     C31752   4.679   5.917   9.094 -0.7129  0.4865  0.7996
  236MOL0     C31753   4.580   5.908   8.973 -0.7289 -0.4366  0.2828
  236MOL0     C31754   4.642   5.882   9.220 -0.3621 -0.9890 -0.0488
  236MOL0     C31755   4.504   5.848   9.250  0.2617 -0.0313  0.1101
  236MOL0     O31756   4.399   5.919   9.208 -0.9018 -0.0863 -0.0438
  236MOL0     C31757   4.280   5.877   9.245 -0.7644  0.0104  0.2154
  236MOL0     C31758   4.235   5.861   9.380 -0.5662 -0.1186  0.0992
  236MOL0     C31759   4.104   5.849   9.422  0.5776  0.4939  0.1853
  236MOL0     C31760   4.012   5.815   9.323  0.5983  0.2939 -0.1976
  236MOL0     O31761   3.880   5.796   9.372  0.3954  0.6373 -0.0851
  236MOL0     C31762   3.772   5.771   9.282 -0.4071  0.1574 -0.0202
  236MOL0     C31763   3.642   5.777   9.365  0.1460 -0.8662  0.3900
  236MOL0     C31764   3.523   5.780   9.261  0.3497 -0.3958 -0.2289
  236MOL0     C31765   3.391   5.816   9.332  0.6334  0.1312 -0.3559
  236MOL0     C31766   3.281   5.834   9.220  0.1881 -0.1876 -0.0012
  236MOL0     C31767   3.158   5.921   9.244  0.2623 -0.2524  0.0314
  236MOL0     C31768   3.060   5.862   9.360  0.9543  0.3048  0.5066
  236MOL0     C31769   2.930   5.795   9.310  0.4846 -0.3199  0.7621
  236MOL0    Cl31770   2.823   5.916   9.221 -0.1370 -0.2233  0.0335
  236MOL0     C31771   4.055   5.817   9.190  0.2503 -1.2839 -0.1673
  236MOL0     C31772   4.185   5.855   9.144  0.2304  0.2731 -1.2337
  236MOL0     O31773   4.488   5.747   9.317 -0.6657 -0.2872  0.5365
  236MOL0     C31774   4.737   5.874   9.317 -0.8351  0.6462 -0.6756
  236MOL0     C31775   4.878   5.899   9.290  0.2863 -0.6847  0.1212
  236MOL0     N31776   5.434   5.769   8.842  0.7504 -0.5259  1.0744
  236MOL0     N31777   5.473   5.710   8.732  0.3364  0.9508  0.7525
  236MOL0     C31778   6.266   6.023   8.522  1.1237  0.2479  0.8536
  236MOL0     C31779   6.378   6.034   8.596 -0.0794 -0.0677 -1.1622
  236MOL0     C31780   6.684   6.175   8.924 -0.7289 -0.5224 -0.0496
  236MOL0     C31781   6.788   6.120   8.854  0.3104  0.1265  0.4776
  236MOL0     C31782   6.921   6.120   8.899  0.9474  0.3684  0.2598
  236MOL0     C31783   6.959   6.184   9.016  0.7230 -0.7766 -0.2935
  236MOL0     O31784   7.088   6.183   9.066  0.6650 -0.1165  0.6453
  236MOL0     C31785   7.121   6.254   9.182  0.1873  0.2683 -0.1520
  236MOL0     C31786   7.269   6.262   9.191  0.5874  0.3472  0.4657
  236MOL0     C31787   7.318   6.347   9.307  0.3385  0.4468 -0.3062
  236MOL0     C31788   7.459   6.401   9.278  0.5110 -0.0886  0.1138
  236MOL0     C31789   7.529   6.401   9.410 -0.4019 -0.0188 -0.0949
  236MOL0     C31790   7.604   6.408   9.506 -0.7193 -0.7979 -0.6323
  236MOL0     C31791   6.854   6.242   9.095  0.7531  0.2628  0.3511
  236MOL0     C31792   6.717   6.232   9.056  0.6186 -0.6196  0.1843
  236MOL0     H31793   6.257   6.089   8.911  1.8518  2.3580  0.7281
  236MOL0     H31794   6.043   6.065   8.769 -0.1835 -1.9775 -0.2320
  236MOL0     H31795   6.056   6.134   8.370  1.2315 -1.4802 -0.9751
  236MOL0     H31796   6.008   5.969   8.333 -1.3530  0.9606 -1.4566
  236MOL0     H31797   5.834   6.182   8.438 -3.9560  1.3901 -2.5627
  236MOL0     H31798   5.853   6.124   8.270  0.3814 -0.1573 -0.9491
  236MOL0     H31799   5.756   5.904   8.316 -0.5383 -3.0878  1.7497
  236MOL0     H31800   5.741   5.943   8.489 -2.6647  1.0291  0.1735
  236MOL0     H31801   5.556   6.096   8.441 -0.6414 -0.7737  1.1502
  236MOL0     H31802   5.607   6.098   8.268 -0.4219  0.1300  0.4475
  236MOL0     H31803   5.392   5.994   8.317 -0.6414 -0.0963  1.7981
  236MOL0     H31804   5.493   5.907   8.209  0.4974  1.1076 -0.1506
  236MOL0     H31805   5.566   5.745   8.376 -0.6286  0.6042 -2.0319
  236MOL0     H31806   5.494   5.842   8.511 -0.5757  1.8297 -0.0957
  236MOL0     H31807   5.270   5.799   8.449  1.1228  1.6071 -0.0920
  236MOL0     H31808   5.327   5.701   8.308  1.3934 -2.4270  1.0341
  236MOL0     H31809   5.444   5.556   8.489  0.4377  1.4661 -0.7282
  236MOL0     H31810   5.266   5.559   8.504 -0.9877  0.9621  1.9615
  236MOL0     H31811   5.148   5.738   8.679  0.4573  2.7641 -2.0987
  236MOL0     H31812   5.224   5.936   8.955 -0.2926 -0.8264  0.6434
  236MOL0     H31813   5.101   5.815   8.932 -1.3834  2.7242  1.4781
  236MOL0     H31814   5.351   5.740   9.091  0.5563  3.3778  0.2828
  236MOL0     H31815   5.198   5.646   9.081  1.1764 -0.7390  2.0115
  236MOL0     H31816   5.273   5.806   9.285 -2.2154  1.8033  1.4080
  236MOL0     H31817   5.107   5.752   9.245 -0.4095 -0.1694 -0.6502
  236MOL0     H31818   5.245   6.015   9.182 -0.1081 -0.9315  0.5101
  236MOL0     H31819   5.129   5.996   9.309  1.5271  0.0484  0.6965
  236MOL0     H31820   4.847   5.982   8.963  2.6017  0.2446  1.5363
  236MOL0     H31821   4.502   5.984   8.984  1.0916  1.0736  5.9085
  236MOL0     H31822   4.628   5.930   8.876 -0.8673 -1.0662  0.0680
  236MOL0     H31823   4.535   5.809   8.970  0.1326 -0.8406 -2.7577
  236MOL0     H31824   4.316   5.879   9.449  2.3131  1.7704 -3.4407
  236MOL0     H31825   4.088   5.873   9.526 -3.1348  1.1259 -0.4137
  236MOL0     H31826   3.767   5.851   9.208  2.2036  2.1887  1.8326
  236MOL0     H31827   3.781   5.673   9.235  1.6526 -0.5269  1.6348
  236MOL0     H31828   3.644   5.694   9.437  0.9593 -0.3073  1.0223
  236MOL0     H31829   3.649   5.873   9.417  2.0801 -1.0966  0.6199
  236MOL0     H31830   3.527   5.682   9.213  2.3682  0.5113 -2.0779
  236MOL0     H31831   3.540   5.858   9.187 -1.5503 -1.0593 -1.4378
  236MOL0     H31832   3.345   5.743   9.399 -1.5909  0.4115 -1.5028
  236MOL0     H31833   3.420   5.906   9.387  2.0242 -1.0791  0.9868
  236MOL0     H31834   3.250   5.733   9.192 -0.6226 -0.5373  2.0350
  236MOL0     H31835   3.333   5.883   9.137  2.5955 -0.3588  1.3037
  236MOL0     H31836   3.191   6.012   9.295  0.7889 -0.3961 -0.0469
  236MOL0     H31837   3.100   5.933   9.152 -0.9897  1.4538  0.9854
  236MOL0     H31838   3.025   5.943   9.425 -1.5102 -1.5892  1.7000
  236MOL0     H31839   3.108   5.780   9.415  0.0436 -1.8471 -1.7195
  236MOL0     H31840   2.873   5.762   9.397 -0.8345 -0.0503  0.0224
  236MOL0     H31841   2.941   5.704   9.251  0.5270 -0.3116  0.7567
  236MOL0     H31842   3.981   5.807   9.110 -1.3790  0.2382  1.0705
  236MOL0     H31843   4.215   5.877   9.042 -0.2620  0.8982 -1.2539
  236MOL0     H31844   4.711   5.845   9.419 -0.2019 -0.5607 -0.8331
  236MOL0     H31845   4.947   5.879   9.371  0.2016 -1.0063  0.1159
  236MOL0     H31846   6.266   5.995   8.418  1.9086 -0.9275  1.1562
  236MOL0     H31847   6.473   6.023   8.544 -0.1508  2.2145 -1.8568
  236MOL0     H31848   6.765   6.068   8.762  0.8269  1.1926 -0.2810
  236MOL0     H31849   6.989   6.097   8.818 -2.7252  2.1159 -3.7887
  236MOL0     H31850   7.074   6.352   9.175 -1.5052 -0.5537 -1.0122
  236MOL0     H31851   7.076   6.205   9.269 -0.5462 -0.3108 -0.8449
  236MOL0     H31852   7.293   6.314   9.098 -2.3791  3.4545  1.2200
  236MOL0     H31853   7.291   6.156   9.200  1.2639  0.5534  1.3225
  236MOL0     H31854   7.300   6.280   9.392  0.2066  0.7213 -0.1125
  236MOL0     H31855   7.254   6.436   9.314  1.0757  0.8739  2.3605
  236MOL0     H31856   7.454   6.504   9.241  5.2795  1.1230  2.0929
  236MOL0     H31857   7.512   6.336   9.209 -0.8915 -0.1389 -0.9651
  236MOL0     H31858   7.669   6.408   9.592 -0.6270  1.4669 -0.6540
  236MOL0     H31859   6.870   6.293   9.190 -0.8928  0.9255  0.3062
  236MOL0     H31860   6.645   6.264   9.131 -0.3232  0.9649 -1.3318
  237MOL0     O31861   5.001   8.231   8.396  0.5163  0.2558  0.1813
  237MOL0     C31862   5.013   8.225   8.276 -0.0430 -0.0953  0.1766
  237MOL0     O31863   4.913   8.222   8.182  0.6217  0.4776  0.0285
  237MOL0     C31864   4.778   8.227   8.220  0.2339  0.0195 -0.6562
  237MOL0     C31865   4.725   8.135   8.312 -0.5572 -0.1715  0.2006
  237MOL0     C31866   4.593   8.117   8.326  0.2813  0.2487 -0.8595
  237MOL0     C31867   4.501   8.205   8.272  0.2485 -0.2443  0.8438
  237MOL0     O31868   4.373   8.209   8.331 -0.5516  0.7976 -0.7276
  237MOL0     C31869   4.278   8.302   8.280 -0.2110  0.0832 -0.2015
  237MOL0     C31870   4.142   8.253   8.322  0.5469  0.1665  0.1130
  237MOL0     C31871   4.021   8.316   8.254  0.0656 -0.4946  0.1372
  237MOL0     C31872   3.896   8.246   8.295 -0.3336  0.4374  0.0955
  237MOL0     C31873   3.774   8.331   8.319  0.1038 -0.3888 -0.6783
  237MOL0     C31874   3.760   8.369   8.472 -0.7296 -0.1103 -0.0711
  237MOL0     C31875   3.877   8.469   8.514  0.7395 -0.3797 -0.2342
  237MOL0     C31876   3.837   8.520   8.659 -0.3301 -0.0700 -0.3668
  237MOL0     N31877   3.714   8.591   8.653 -0.1566 -0.2422 -0.0135
  237MOL0     C31878   3.597   8.567   8.723 -0.2886  0.1964  0.3881
  237MOL0     C31879   3.516   8.672   8.705 -0.1988  0.3852  0.0914
  237MOL0     C31880   3.381   8.698   8.756 -0.6187 -0.7244  0.1405
  237MOL0     C31881   3.384   8.723   8.903  0.5492 -0.2638 -1.2098
  237MOL0     C31882   3.435   8.859   8.951 -0.5183 -0.1905  0.5283
  237MOL0     C31883   3.587   8.886   8.927  0.7447 -0.3796  0.8900
  237MOL0     O31884   3.658   8.785   8.988 -0.4117 -0.0904  0.2436
  237MOL0     C31885   3.794   8.802   8.992 -0.6079  0.4881  0.3742
  237MOL0     C31886   3.868   8.922   8.986  0.3310 -0.7733  0.5296
  237MOL0     C31887   4.010   8.932   8.991 -0.0028  0.1097  1.2655
  237MOL0     C31888   4.071   9.062   9.001 -0.0394 -0.2452 -0.1292
  237MOL0     C31889   4.081   8.801   8.977 -0.3426  0.6927 -0.1188
  237MOL0     C31890   4.229   8.784   8.964 -1.3551  0.3708  0.1806
  237MOL0     O31891   4.305   8.897   8.954  0.7961 -0.7490 -0.8693
  237MOL0     C31892   4.439   8.884   8.929  0.4765  0.9050 -0.7910
  237MOL0     C31893   4.515   8.994   8.980 -0.2529  0.3910 -1.0070
  237MOL0     C31894   4.655   8.998   8.970 -0.4087  0.5281 -0.3672
  237MOL0     C31895   4.721   8.894   8.895  0.5625 -0.1545 -0.2569
  237MOL0     O31896   4.859   8.892   8.886 -0.0294 -0.3010  0.5046
  237MOL0     C31897   4.907   8.768   8.926 -0.2049  0.3187 -0.2234
  237MOL0     C31898   5.069   8.770   8.933 -0.7592  0.2879 -0.3833
  237MOL0     C31899   5.140   8.831   8.816 -1.1300  0.1957  0.0504
  237MOL0     C31900   5.279   8.890   8.850  0.0143  0.0208 -0.2911
  237MOL0     C31901   5.353   8.947   8.732  1.0106  0.6718 -0.2278
  237MOL0     C31902   5.500   8.951   8.764  0.0505  0.7595  0.0224
  237MOL0     C31903   5.587   8.967   8.641  0.1739  0.7723 -0.4642
  237MOL0     C31904   5.730   8.972   8.681 -0.9736 -0.4170 -0.1259
  237MOL0    Cl31905   5.811   8.952   8.523 -0.3371 -0.5623  0.0366
  237MOL0     C31906   4.643   8.801   8.825  0.7589 -0.2916 -0.4418
  237MOL0     C31907   4.505   8.795   8.845 -1.2416 -0.3958 -0.5521
  237MOL0     O31908   4.274   8.674   8.972 -0.0396  0.4434 -0.0025
  237MOL0     C31909   4.009   8.684   8.972 -0.0705  0.6497 -0.0429
  237MOL0     C31910   3.870   8.686   8.992 -0.1677  0.0803  0.9638
  237MOL0     N31911   3.584   8.759   8.625 -0.3823 -0.2321  0.9625
  237MOL0     N31912   3.699   8.714   8.592 -0.1626 -0.1769 -0.4942
  237MOL0     C31913   4.550   8.296   8.177 -0.3000 -0.5815  0.4272
  237MOL0     C31914   4.685   8.307   8.147 -0.9539 -0.2131 -0.2070
  237MOL0     C31915   5.149   8.230   8.220 -0.3078  0.0188  0.7468
  237MOL0     C31916   5.176   8.176   8.093  0.9225 -0.5835  0.3294
  237MOL0     C31917   5.302   8.175   8.037  0.7181 -0.2904  0.0062
  237MOL0     C31918   5.414   8.234   8.108  1.1898  0.2744  0.1885
  237MOL0     O31919   5.539   8.209   8.054 -0.8262 -0.0955 -0.2489
  237MOL0     C31920   5.642   8.242   8.150 -0.6199 -0.0299 -0.1121
  237MOL0     C31921   5.785   8.194   8.116 -0.0872  0.4296  0.1612
  237MOL0     C31922   5.818   8.203   7.969 -0.6807  0.3832 -0.3248
  237MOL0     C31923   5.961   8.169   7.931  0.7878  0.0796 -0.0872
  237MOL0     C31924   6.054   8.266   7.992 -0.7090 -0.2307  0.8763
  237MOL0     C31925   6.140   8.337   8.051  1.0061 -0.1538 -0.6659
  237MOL0     C31926   5.382   8.284   8.240 -0.2850 -0.4273  0.7577
  237MOL0     C31927   5.246   8.282   8.286  0.4071  0.4925 -0.1078
  237MOL0     H31928   4.794   8.069   8.364  1.9872  0.7447 -1.7627
  237MOL0     H31929   4.561   8.038   8.393  1.6324 -0.5159 -1.0919
  237MOL0     H31930   4.307   8.399   8.321 -0.2890  1.1507 -2.5184
  237MOL0     H31931   4.286   8.299   8.171 -0.3494 -2.1439 -0.1849
  237MOL0     H31932   4.136   8.145   8.306  1.3715  0.1037  0.1741
  237MOL0     H31933   4.133   8.272   8.429 -0.9539  0.0154  0.0282
  237MOL0     H31934   4.024   8.420   8.289  0.6267 -0.8845  1.2840
  237MOL0     H31935   4.031   8.319   8.145 -1.1984  3.9412 -0.0361
  237MOL0     H31936   3.882   8.160   8.229 -0.5054  2.1217 -2.2053
  237MOL0     H31937   3.921   8.197   8.389  4.2526  0.7712 -0.7220
  237MOL0     H31938   3.775   8.413   8.246  0.6456  2.0192  1.8745
  237MOL0     H31939   3.684   8.278   8.289 -0.6566  0.3714  0.2016
  237MOL0     H31940   3.665   8.423   8.482  0.7826  2.4697  2.2713
  237MOL0     H31941   3.768   8.280   8.535  2.0584 -0.0880 -0.2487
  237MOL0     H31942   3.976   8.423   8.524 -0.4956 -3.1431  0.1171
  237MOL0     H31943   3.892   8.554   8.447 -2.4471 -0.4901 -1.2424
  237MOL0     H31944   3.920   8.583   8.692  0.0646 -0.8467  0.1720
  237MOL0     H31945   3.833   8.436   8.729  0.5211 -0.6019 -0.9418
  237MOL0     H31946   3.577   8.482   8.787 -0.7087  0.7690  1.0374
  237MOL0     H31947   3.328   8.778   8.702 -2.8386 -2.1216  0.1006
  237MOL0     H31948   3.313   8.616   8.732 -0.5686 -0.8475  0.4148
  237MOL0     H31949   3.442   8.643   8.951  0.7210  1.3518  1.5004
  237MOL0     H31950   3.282   8.707   8.940  0.5767 -0.9191 -1.4012
  237MOL0     H31951   3.410   8.856   9.058  2.4516  0.6066  1.3429
  237MOL0     H31952   3.381   8.944   8.909 -0.1784  0.0929  0.6571
  237MOL0     H31953   3.605   8.977   8.985 -3.0654  1.1861 -0.0838
  237MOL0     H31954   3.619   8.913   8.827 -4.2143  1.9491 -0.4000
  237MOL0     H31955   3.813   9.016   8.983 -0.1817 -1.0050  1.9602
  237MOL0     H31956   4.108   9.107   8.908 -1.0869  1.9048  0.4196
  237MOL0     H31957   4.000   9.127   9.053 -0.4525 -0.9083  0.1339
  237MOL0     H31958   4.156   9.058   9.070 -0.3368 -0.1142  0.2464
  237MOL0     H31959   4.455   9.076   9.019 -2.6022 -0.3762 -2.7683
  237MOL0     H31960   4.718   9.069   9.023  1.5455 -1.0974 -0.3973
  237MOL0     H31961   4.874   8.763   9.030 -2.2358  3.8346 -0.5131
  237MOL0     H31962   4.866   8.687   8.866  0.6396  1.3272 -2.2699
  237MOL0     H31963   5.103   8.826   9.020 -2.4549  2.6330 -1.1454
  237MOL0     H31964   5.112   8.670   8.943  0.6613  0.8603 -0.5477
  237MOL0     H31965   5.073   8.906   8.773 -2.6675 -1.3139 -0.3011
  237MOL0     H31966   5.147   8.752   8.741 -3.9008 -0.1196  0.0259
  237MOL0     H31967   5.278   8.964   8.931  1.9188 -1.1898  0.8907
  237MOL0     H31968   5.332   8.805   8.893  0.5909 -0.6895 -2.2884
  237MOL0     H31969   5.328   9.050   8.707  0.0564  1.2918  2.8736
  237MOL0     H31970   5.322   8.891   8.643  0.1286  2.7930 -1.3331
  237MOL0     H31971   5.511   9.028   8.842 -0.6988 -0.5459  1.4727
  237MOL0     H31972   5.544   8.860   8.805 -1.9810 -0.4440 -0.3861
  237MOL0     H31973   5.562   9.064   8.597  2.1475  0.9833 -1.1990
  237MOL0     H31974   5.571   8.884   8.572  1.8393 -0.2683  0.3205
  237MOL0     H31975   5.756   8.893   8.752 -0.8500  0.4616  0.8465
  237MOL0     H31976   5.757   9.068   8.727  1.4019 -1.3467  0.5622
  237MOL0     H31977   4.701   8.736   8.759  3.1346  1.2219  0.0168
  237MOL0     H31978   4.447   8.719   8.794 -3.1609  0.7756 -0.2136
  237MOL0     H31979   4.049   8.584   8.956 -1.4253 -0.2908  2.0041
  237MOL0     H31980   3.815   8.593   9.005  0.6260 -0.1710  2.9085
  237MOL0     H31981   4.497   8.369   8.116  0.6315 -0.0015  0.3043
  237MOL0     H31982   4.721   8.368   8.065 -3.3799 -0.3718 -1.4933
  237MOL0     H31983   5.096   8.136   8.031 -0.2824  1.1823  0.6632
  237MOL0     H31984   5.328   8.126   7.944 -0.6062 -1.7393  0.3584
  237MOL0     H31985   5.648   8.349   8.170  1.2047 -0.6570  3.4861
  237MOL0     H31986   5.622   8.204   8.251  2.6880 -0.0135  0.6523
  237MOL0     H31987   5.801   8.089   8.142 -2.1500 -0.4181 -1.7286
  237MOL0     H31988   5.851   8.258   8.175  0.4021  1.4245 -1.3964
  237MOL0     H31989   5.803   8.305   7.932  0.5819  1.6352  2.3927
  237MOL0     H31990   5.755   8.129   7.918  1.9043 -2.2786  0.0382
  237MOL0     H31991   5.959   8.172   7.821 -1.8815 -1.5343 -0.1650
  237MOL0     H31992   5.997   8.070   7.959  2.9257  0.9727  0.5871
  237MOL0     H31993   6.206   8.401   8.106 -1.6286  1.4978  0.7991
  237MOL0     H31994   5.459   8.340   8.293 -0.0858 -0.9516  1.0297
  237MOL0     H31995   5.230   8.339   8.378  2.0987  1.4455 -0.3468
  238MOL0     O31996   8.983   7.095   3.375 -0.3515  0.0446 -0.2063
  238MOL0     C31997   8.958   6.990   3.308 -0.9537 -0.5681 -0.4188
  238MOL0     O31998   9.055   6.921   3.234  0.3832 -0.2161 -0.5321
  238MOL0     C31999   9.180   6.967   3.240  0.6120  0.3655  0.2266
  238MOL0     C32000   9.286   6.880   3.270  1.0103  0.3146 -0.0284
  238MOL0     C32001   9.418   6.923   3.268  0.1534  0.6394 -0.0212
  238MOL0     C32002   9.454   7.054   3.228 -0.5342 -1.2040 -1.1397
  238MOL0     O32003   9.582   7.090   3.219  1.2018  0.0608 -0.1468
  238MOL0     C32004   9.620   7.224   3.171 -0.2439 -0.0019 -0.0979
  238MOL0     C32005   9.772   7.225   3.190  0.0948 -0.2118 -0.3507
  238MOL0     C32006   9.825   7.361   3.144  0.5862 -0.1249 -0.7241
  238MOL0     C32007   9.840   7.470   3.256 -0.1182  0.4161 -0.4403
  238MOL0     C32008   9.887   7.602   3.188  0.4611  0.0220 -0.3169
  238MOL0     C32009   9.899   7.721   3.285  0.7524 -0.8099 -0.0060
  238MOL0     C32010   9.933   7.855   3.225  0.6772 -0.2960  0.5162
  238MOL0     C32011  10.072   7.874   3.158  0.1513 -0.7542  0.0657
  238MOL0     N32012  10.097   7.814   3.031  0.3518  0.2226 -0.2092
  238MOL0     C32013  10.002   7.780   2.933 -0.3060 -0.0452 -0.1279
  238MOL0     C32014  10.069   7.700   2.847 -0.1199  0.3757  0.4381
  238MOL0     C32015   9.999   7.636   2.729  0.7242  0.1388 -0.1317
  238MOL0     C32016   9.945   7.493   2.754 -0.7863  0.0185 -0.6185
  238MOL0     C32017  10.053   7.393   2.779 -0.1348 -0.1473 -0.2596
  238MOL0     C32018  10.003   7.253   2.797 -0.0306 -0.0900  0.5175
  238MOL0     O32019   9.920   7.224   2.689  0.0426  0.4032  0.0164
  238MOL0     C32020   9.814   7.138   2.710 -0.3995 -0.6158  0.2261
  238MOL0     C32021   9.817   7.036   2.806  0.4928  0.0842 -0.3087
  238MOL0     C32022   9.700   6.955   2.821  0.3265  0.0852 -0.2023
  238MOL0     C32023   9.700   6.846   2.930 -0.3625 -0.8276 -0.1386
  238MOL0     C32024   9.581   6.979   2.749 -0.0215  0.6650  0.0825
  238MOL0     C32025   9.442   6.913   2.776 -1.5563  0.2892  0.3718
  238MOL0     O32026   9.337   6.987   2.739 -0.1058  0.1480  0.7532
  238MOL0     C32027   9.209   6.942   2.769  0.2874  0.6078 -0.7388
  238MOL0     C32028   9.173   6.884   2.900  0.5334  0.5460  1.2710
  238MOL0     C32029   9.042   6.838   2.924 -0.4484  0.3904 -0.7936
  238MOL0     C32030   8.948   6.845   2.826 -0.6252 -0.7509 -0.0893
  238MOL0     O32031   8.829   6.790   2.851 -0.7200  0.7087 -0.4288
  238MOL0     C32032   8.822   6.659   2.786  0.3279 -0.4676  0.8671
  238MOL0     C32033   8.783   6.562   2.890 -0.0936  0.3273 -0.4962
  238MOL0     C32034   8.643   6.586   2.950 -0.0096  0.3075 -0.0962
  238MOL0     C32035   8.599   6.453   3.029  0.3506 -0.3454  0.6739
  238MOL0     C32036   8.454   6.465   3.092  1.0577 -0.1101  0.8192
  238MOL0     C32037   8.397   6.328   3.095  0.4430  0.7118 -0.5904
  238MOL0     C32038   8.264   6.322   3.171  0.2606  0.3505 -0.3295
  238MOL0     C32039   8.229   6.176   3.184  0.8635 -0.3910 -0.6653
  238MOL0    Cl32040   8.052   6.147   3.220 -0.2333  0.5846 -0.3319
  238MOL0     C32041   8.975   6.915   2.704 -0.6230 -0.3327  0.2554
  238MOL0     C32042   9.103   6.954   2.673  0.2856 -0.3233  0.6591
  238MOL0     O32043   9.443   6.800   2.826 -0.7041 -0.2894  0.0496
  238MOL0     C32044   9.589   7.080   2.655  0.5982 -0.1869 -0.1401
  238MOL0     C32045   9.697   7.159   2.637 -0.0011 -0.3570  0.0088
  238MOL0     N32046  10.201   7.696   2.884 -0.0996 -0.1670 -0.0255
  238MOL0     N32047  10.214   7.750   3.006  0.3331  0.3127  0.0900
  238MOL0     C32048   9.347   7.129   3.183 -0.8101  0.2147 -0.2190
  238MOL0     C32049   9.212   7.087   3.188  0.8826 -0.8164  0.0118
  238MOL0     C32050   8.819   6.933   3.317 -0.5585 -0.4717 -0.3335
  238MOL0     C32051   8.788   6.813   3.246  0.8490  0.3203  0.9918
  238MOL0     C32052   8.659   6.753   3.259  0.1715 -0.5708  0.8923
  238MOL0     C32053   8.563   6.802   3.343 -0.1443 -0.0529  0.1076
  238MOL0     O32054   8.457   6.728   3.353 -0.1360 -0.5284 -0.1445
  238MOL0     C32055   8.326   6.791   3.371  0.7517 -0.1908 -0.3270
  238MOL0     C32056   8.203   6.695   3.379 -0.6666  0.6504  0.0546
  238MOL0     C32057   8.074   6.772   3.420  0.6830 -0.0680  0.4778
  238MOL0     C32058   8.009   6.708   3.533  0.0487  0.1712 -0.1794
  238MOL0     C32059   7.951   6.575   3.502 -0.2284 -0.6769  0.4627
  238MOL0     C32060   7.907   6.465   3.468 -0.7880 -0.3388 -0.4326
  238MOL0     C32061   8.590   6.924   3.401 -0.0652  0.1221 -0.5926
  238MOL0     C32062   8.716   6.988   3.398  0.3310 -0.3083  0.1166
  238MOL0     H32063   9.274   6.786   3.322  0.9300 -0.1584 -0.8841
  238MOL0     H32064   9.499   6.851   3.273 -1.2719 -1.0946 -0.7937
  238MOL0     H32065   9.596   7.231   3.064  2.5793  1.1010 -0.7440
  238MOL0     H32066   9.569   7.302   3.227 -1.1750 -0.5838 -0.1107
  238MOL0     H32067   9.800   7.210   3.295  0.4374  1.9362 -0.0890
  238MOL0     H32068   9.825   7.145   3.138 -0.8608 -1.4496  0.5169
  238MOL0     H32069   9.921   7.339   3.095 -0.0405 -1.0774 -1.5635
  238MOL0     H32070   9.763   7.406   3.066 -2.5170 -2.3067  0.3158
  238MOL0     H32071   9.748   7.485   3.312 -0.1169 -2.5922  0.5655
  238MOL0     H32072   9.906   7.427   3.332  1.8500 -0.1210 -2.3341
  238MOL0     H32073   9.981   7.580   3.136 -0.3842 -1.9162 -1.1072
  238MOL0     H32074   9.806   7.624   3.118 -1.4016 -1.3751  1.2815
  238MOL0     H32075   9.804   7.728   3.339 -0.4641 -2.9122 -1.7110
  238MOL0     H32076   9.975   7.698   3.360  1.3706  0.4307 -0.2220
  238MOL0     H32077   9.859   7.881   3.149  2.5772 -1.0072 -1.7069
  238MOL0     H32078   9.917   7.922   3.310 -1.0867 -3.5357  2.9449
  238MOL0     H32079  10.133   7.839   3.242  1.9072  1.4526 -0.2021
  238MOL0     H32080  10.098   7.980   3.159  0.2829 -0.7503 -1.2997
  238MOL0     H32081   9.896   7.804   2.930 -0.0690  2.2394  3.4866
  238MOL0     H32082   9.914   7.698   2.697 -0.2375 -0.5932  0.9277
  238MOL0     H32083  10.074   7.630   2.650  1.1266 -1.8797  0.3610
  238MOL0     H32084   9.887   7.462   2.667 -0.6687 -1.7818 -0.0978
  238MOL0     H32085   9.871   7.487   2.835 -0.4072 -1.1470 -0.3351
  238MOL0     H32086  10.111   7.420   2.868 -0.5291 -0.3913  0.0761
  238MOL0     H32087  10.124   7.390   2.696 -0.2091  0.2246 -0.3344
  238MOL0     H32088   9.940   7.236   2.885 -0.5428 -3.1570 -0.3133
  238MOL0     H32089  10.087   7.184   2.802  0.0121 -0.0722  0.1035
  238MOL0     H32090   9.895   7.012   2.878  0.5471 -0.0388 -0.4090
  238MOL0     H32091   9.679   6.754   2.875  2.8786  0.8486 -4.8545
  238MOL0     H32092   9.792   6.843   2.989  1.7909  1.0146 -3.0994
  238MOL0     H32093   9.622   6.854   3.006  0.0573 -1.3227  0.3566
  238MOL0     H32094   9.245   6.883   2.981 -1.4909 -0.5056  3.1593
  238MOL0     H32095   9.028   6.797   3.024  0.5713  0.8404 -0.4560
  238MOL0     H32096   8.761   6.658   2.694  1.2798  3.8447 -0.0217
  238MOL0     H32097   8.916   6.629   2.740 -0.9483  1.6234 -3.6908
  238MOL0     H32098   8.776   6.462   2.847 -1.7878 -0.1552  0.7709
  238MOL0     H32099   8.866   6.558   2.961  3.2278 -0.6984 -4.0926
  238MOL0     H32100   8.570   6.598   2.869 -2.0323 -0.8132  1.4868
  238MOL0     H32101   8.642   6.682   3.002  0.4810  1.0776 -1.4600
  238MOL0     H32102   8.606   6.367   2.962 -1.8923  1.4148 -2.0223
  238MOL0     H32103   8.674   6.430   3.105 -1.3136 -1.9061  1.9223
  238MOL0     H32104   8.397   6.524   3.020  0.2740 -2.3763 -0.5363
  238MOL0     H32105   8.455   6.510   3.192 -0.5273 -1.6014  1.5671
  238MOL0     H32106   8.377   6.278   3.000  0.7267 -1.6331  0.4999
  238MOL0     H32107   8.467   6.264   3.151 -1.1606  0.5337  1.3188
  238MOL0     H32108   8.193   6.386   3.117  1.1765  1.1493 -0.6063
  238MOL0     H32109   8.278   6.352   3.276  2.8609 -0.9243 -0.2555
  238MOL0     H32110   8.284   6.127   3.266 -1.1104  0.5216  1.3040
  238MOL0     H32111   8.255   6.116   3.096  3.4318 -2.2053  1.1673
  238MOL0     H32112   8.899   6.928   2.629 -0.4200 -2.0116 -0.2994
  238MOL0     H32113   9.112   6.983   2.569  2.4540 -2.8493  0.0446
  238MOL0     H32114   9.505   7.093   2.588  1.1732 -0.7431 -0.9852
  238MOL0     H32115   9.697   7.233   2.558 -0.2886  0.5259  0.8171
  238MOL0     H32116   9.360   7.227   3.138 -0.9903  0.1937 -0.3165
  238MOL0     H32117   9.137   7.155   3.148  0.9936 -1.0652 -0.6328
  238MOL0     H32118   8.853   6.750   3.186  0.5620 -0.5771  1.6093
  238MOL0     H32119   8.635   6.655   3.218 -3.1118 -0.3489  1.9715
  238MOL0     H32120   8.325   6.838   3.470 -3.5922 -1.2444  0.3492
  238MOL0     H32121   8.309   6.855   3.284 -1.4194 -0.2802 -0.0405
  238MOL0     H32122   8.235   6.618   3.450 -0.8864  0.7120  0.2229
  238MOL0     H32123   8.187   6.636   3.289 -0.8674  0.3149  0.3065
  238MOL0     H32124   7.994   6.791   3.349  1.3799  1.1966 -0.0086
  238MOL0     H32125   8.094   6.875   3.450  1.0348 -0.6829  2.5201
  238MOL0     H32126   7.931   6.771   3.576  2.4840  3.3659 -0.0565
  238MOL0     H32127   8.075   6.689   3.619 -2.1496 -0.2673  1.4982
  238MOL0     H32128   7.892   6.360   3.457  0.9665 -1.2222  3.8293
  238MOL0     H32129   8.508   6.954   3.466  0.6390 -1.2803  1.0156
  238MOL0     H32130   8.738   7.074   3.461 -1.6569 -1.6707  2.8996
  239MOL0     O32131  10.654   2.613   4.040  0.2566 -0.4752  0.2955
  239MOL0     C32132  10.694   2.698   3.962 -0.0022  0.2243 -0.4084
  239MOL0     O32133  10.626   2.790   3.904  0.1899 -0.0136  0.1887
  239MOL0     C32134  10.492   2.798   3.913  0.1981  0.0575 -0.3227
  239MOL0     C32135  10.439   2.927   3.920 -0.4006 -0.1981 -0.6361
  239MOL0     C32136  10.298   2.948   3.913  0.0517  0.2685 -0.3760
  239MOL0     C32137  10.204   2.847   3.916  0.0733 -0.7936  0.6164
  239MOL0     O32138  10.075   2.888   3.896  0.7712  0.5371  0.2158
  239MOL0     C32139  10.017   2.824   3.779 -0.2311  0.0119 -0.4837
  239MOL0     C32140   9.870   2.827   3.817 -0.3366 -0.8053  0.9187
  239MOL0     C32141   9.772   2.786   3.699 -0.0043 -0.5623 -0.6985
  239MOL0     C32142   9.624   2.774   3.749  1.2523  0.6049  0.2011
  239MOL0     C32143   9.533   2.706   3.653 -0.5510 -0.0135  0.0856
  239MOL0     C32144   9.383   2.742   3.670  0.5554  0.8126 -0.8932
  239MOL0     C32145   9.358   2.890   3.644  0.2061  0.2269 -0.2478
  239MOL0     C32146   9.253   2.910   3.537 -0.1767  0.4938 -0.0627
  239MOL0     N32147   9.213   3.051   3.535  0.3280  0.1593 -1.0833
  239MOL0     C32148   9.270   3.141   3.447  1.2657 -0.4014  0.2131
  239MOL0     C32149   9.219   3.263   3.476  0.2149 -0.1790 -0.6199
  239MOL0     C32150   9.261   3.391   3.411 -0.8042 -0.4563  0.8017
  239MOL0     C32151   9.136   3.463   3.363  0.1984 -0.8166  0.1207
  239MOL0     C32152   9.164   3.572   3.248  0.2927  0.3926 -0.1215
  239MOL0     C32153   9.241   3.700   3.289  0.3814  0.0965  0.8447
  239MOL0     O32154   9.200   3.741   3.418  0.0394 -0.1597  0.3067
  239MOL0     C32155   9.074   3.803   3.427  0.0196 -0.5608 -0.0375
  239MOL0     C32156   8.994   3.768   3.532 -0.3342 -0.3478 -0.3635
  239MOL0     C32157   8.859   3.799   3.538  0.1619 -0.9709 -0.0892
  239MOL0     C32158   8.783   3.733   3.648  0.4412  0.2432 -0.0419
  239MOL0     C32159   8.805   3.877   3.432  0.2590  0.4961 -0.5532
  239MOL0     C32160   8.660   3.929   3.425 -0.4407  0.1035  0.4310
  239MOL0     O32161   8.589   3.933   3.540  0.2940  0.1883 -0.1554
  239MOL0     C32162   8.452   3.955   3.523  0.1132 -0.0346 -0.2601
  239MOL0     C32163   8.379   3.872   3.444 -0.6750 -0.1051  0.5075
  239MOL0     C32164   8.245   3.882   3.412  0.0145  0.1568  0.3523
  239MOL0     C32165   8.177   3.990   3.473 -0.4290  0.1348  0.3783
  239MOL0     O32166   8.053   4.001   3.437  0.1909 -0.1181  0.3228
  239MOL0     C32167   7.973   4.092   3.515 -0.2702  0.5747  0.2528
  239MOL0     C32168   7.842   4.022   3.526 -0.3274 -0.1187 -0.5328
  239MOL0     C32169   7.785   3.988   3.390  0.3858 -0.4208 -0.1729
  239MOL0     C32170   7.638   3.953   3.399  0.1968 -0.6160  0.3473
  239MOL0     C32171   7.561   3.976   3.273  0.2745  0.7832 -0.7369
  239MOL0     C32172   7.405   3.945   3.285 -1.0244  0.5491 -0.6094
  239MOL0     C32173   7.382   3.801   3.311 -0.3750 -0.2986  0.0509
  239MOL0     C32174   7.236   3.768   3.279  0.3243  0.3652 -0.1951
  239MOL0    Cl32175   7.238   3.735   3.100  0.3383  0.1569  0.0208
  239MOL0     C32176   8.252   4.082   3.554  0.8236  0.1672 -0.0466
  239MOL0     C32177   8.383   4.063   3.582  0.0303  0.2554  0.2657
  239MOL0     O32178   8.615   3.960   3.315 -0.6666  0.0356 -0.1927
  239MOL0     C32179   8.886   3.906   3.321 -0.5882 -0.5759 -0.3711
  239MOL0     C32180   9.017   3.876   3.317 -0.1254 -0.0652 -1.1103
  239MOL0     N32181   9.128   3.244   3.576 -0.0813  0.1831  0.1179
  239MOL0     N32182   9.117   3.119   3.601  0.2504 -0.5185 -0.0805
  239MOL0     C32183  10.260   2.717   3.905  0.3075 -0.3108  0.7611
  239MOL0     C32184  10.401   2.698   3.907 -0.4771  0.6328 -0.1224
  239MOL0     C32185  10.834   2.689   3.939 -0.3497 -0.5025 -0.3061
  239MOL0     C32186  10.915   2.596   4.005  0.6635 -0.7900  0.1109
  239MOL0     C32187  11.057   2.585   3.977  0.0622  0.1731  1.7423
  239MOL0     C32188  11.104   2.680   3.887 -0.7582  0.9210 -0.6560
  239MOL0     O32189  11.238   2.671   3.859 -0.7473 -0.3047 -0.1164
  239MOL0     C32190  11.323   2.792   3.873 -0.2085  0.6922 -0.3417
  239MOL0     C32191  11.406   2.810   3.753  0.4852  0.0018  0.0493
  239MOL0     C32192  11.513   2.914   3.775 -0.0571  0.2997 -0.4335
  239MOL0     C32193  11.632   2.889   3.685  0.7146  0.4645  0.9504
  239MOL0     C32194  11.603   2.898   3.540 -0.0956 -0.1069 -0.0010
  239MOL0     C32195  11.599   2.900   3.418  0.3579  0.1470  0.1190
  239MOL0     C32196  11.029   2.777   3.827  0.3309  0.0277 -0.0090
  239MOL0     C32197  10.893   2.782   3.857 -0.4213 -0.7089  0.3650
  239MOL0     H32198  10.507   3.012   3.925 -0.5568 -0.0658 -0.7829
  239MOL0     H32199  10.258   3.049   3.906 -1.4497 -0.3805 -1.6438
  239MOL0     H32200  10.044   2.870   3.683  0.2448  1.7772  0.4447
  239MOL0     H32201  10.045   2.720   3.764 -2.0279 -0.3443 -1.5311
  239MOL0     H32202   9.865   2.750   3.894 -0.1934  0.0033  1.7451
  239MOL0     H32203   9.848   2.924   3.861 -2.5700 -0.1474 -1.3898
  239MOL0     H32204   9.781   2.858   3.617 -0.9785 -0.6721 -0.9169
  239MOL0     H32205   9.793   2.685   3.664  0.6692 -0.3593 -0.8834
  239MOL0     H32206   9.613   2.714   3.840  1.8475 -0.6487 -0.5154
  239MOL0     H32207   9.584   2.875   3.761  1.6467  0.6703  1.0888
  239MOL0     H32208   9.562   2.723   3.548  1.5002  0.7934  0.7277
  239MOL0     H32209   9.544   2.598   3.660 -1.2402  0.0240  3.1520
  239MOL0     H32210   9.326   2.679   3.600 -0.8582  0.5693  0.4292
  239MOL0     H32211   9.360   2.732   3.776 -1.1011  0.5520 -1.2388
  239MOL0     H32212   9.317   2.936   3.734  1.0405 -0.9044  0.7459
  239MOL0     H32213   9.444   2.950   3.615  1.3378 -1.0777  0.2914
  239MOL0     H32214   9.169   2.846   3.565  1.2006 -0.4710  2.0787
  239MOL0     H32215   9.279   2.875   3.436 -0.3001 -2.6411  0.8786
  239MOL0     H32216   9.346   3.121   3.372 -0.8115 -2.1328 -1.5491
  239MOL0     H32217   9.328   3.442   3.480 -1.2616  2.9410 -1.0428
  239MOL0     H32218   9.314   3.363   3.319 -0.9510 -1.1840  0.9309
  239MOL0     H32219   9.086   3.513   3.447  2.2846  1.7141 -0.0157
  239MOL0     H32220   9.069   3.385   3.326 -0.1756 -1.3672  1.8644
  239MOL0     H32221   9.068   3.595   3.201 -1.2272 -0.2977  2.4498
  239MOL0     H32222   9.230   3.518   3.180 -1.3020 -1.4269 -0.3300
  239MOL0     H32223   9.238   3.784   3.219 -4.1497  1.5180  2.3756
  239MOL0     H32224   9.345   3.665   3.291  0.9772  1.7579  0.2688
  239MOL0     H32225   9.027   3.704   3.613 -3.2535  0.2270  1.4329
  239MOL0     H32226   8.805   3.628   3.669 -1.4055  0.0425  1.0662
  239MOL0     H32227   8.809   3.779   3.744 -2.1736  1.4700  0.1598
  239MOL0     H32228   8.675   3.746   3.641  0.1800 -0.9210  1.3744
  239MOL0     H32229   8.434   3.796   3.389 -1.8587 -0.6544  0.0199
  239MOL0     H32230   8.185   3.815   3.352 -0.1590  0.5713  0.0575
  239MOL0     H32231   7.994   4.105   3.622  1.2047  1.5921 -0.1333
  239MOL0     H32232   7.970   4.193   3.475  1.1810  1.0108  1.1744
  239MOL0     H32233   7.849   3.932   3.588 -1.8880 -1.1199 -1.7410
  239MOL0     H32234   7.774   4.081   3.588 -1.2481 -1.7050  0.0318
  239MOL0     H32235   7.841   3.906   3.344  0.5618 -0.1132 -0.5139
  239MOL0     H32236   7.790   4.073   3.321  4.5148 -1.3445 -1.3204
  239MOL0     H32237   7.636   3.852   3.442  1.5902  0.1563  2.4074
  239MOL0     H32238   7.588   4.017   3.473 -2.6604 -0.9643 -1.1397
  239MOL0     H32239   7.612   3.914   3.199  2.9459 -0.3293  1.8700
  239MOL0     H32240   7.568   4.081   3.243  1.0431  0.1140 -3.0757
  239MOL0     H32241   7.373   4.003   3.372  1.6859  2.2971 -0.6790
  239MOL0     H32242   7.350   3.971   3.194 -1.3442 -1.0266 -0.9113
  239MOL0     H32243   7.389   3.783   3.419 -1.4480  2.9876  0.7790
  239MOL0     H32244   7.454   3.736   3.261 -1.1815 -2.0717  1.0849
  239MOL0     H32245   7.160   3.844   3.298 -0.3796  0.9356 -4.2342
  239MOL0     H32246   7.203   3.682   3.337 -1.9330 -1.0371 -3.2717
  239MOL0     H32247   8.197   4.167   3.594 -1.3031 -0.9652 -0.4517
  239MOL0     H32248   8.432   4.134   3.649 -0.4726  1.0454 -0.1945
  239MOL0     H32249   8.854   3.963   3.235 -0.1578 -0.5526 -0.5199
  239MOL0     H32250   9.070   3.887   3.223  0.5206 -5.7711 -1.7899
  239MOL0     H32251  10.196   2.631   3.888 -2.4495  1.6501  0.6764
  239MOL0     H32252  10.438   2.596   3.894 -1.7261  0.1662 -0.1697
  239MOL0     H32253  10.855   2.530   4.066 -0.5451  0.0000 -0.1699
  239MOL0     H32254  11.126   2.509   4.013  1.5908  1.2997  1.3374
  239MOL0     H32255  11.251   2.873   3.884 -2.6242 -1.0925 -1.7562
  239MOL0     H32256  11.395   2.792   3.955  2.0319 -2.1963 -2.1130
  239MOL0     H32257  11.349   2.840   3.665  1.9788  0.6244 -0.7341
  239MOL0     H32258  11.449   2.713   3.727 -2.4878 -0.9937 -1.6556
  239MOL0     H32259  11.546   2.930   3.878 -0.9627  0.2061 -0.1226
  239MOL0     H32260  11.463   3.007   3.747 -1.9850 -1.2281 -2.4520
  239MOL0     H32261  11.681   2.793   3.703  0.4009  0.6028  2.7220
  239MOL0     H32262  11.701   2.967   3.719 -2.7008  2.2989  4.4975
  239MOL0     H32263  11.601   2.888   3.312 -0.2312  1.1007 -0.0201
  239MOL0     H32264  11.072   2.851   3.761 -2.5151 -0.4271 -2.6104
  239MOL0     H32265  10.845   2.865   3.807  1.4660  1.0548  1.3799
  240MOL0     O32266  10.293   3.291  10.850 -1.0114 -0.2853 -0.1367
  240MOL0     C32267  10.324   3.371  10.935  0.2118  0.6034 -0.9185
  240MOL0     O32268  10.246   3.418  11.031 -0.9978  0.2042 -1.5547
  240MOL0     C32269  10.115   3.382  11.042  0.0849  0.5691  0.7553
  240MOL0     C32270  10.059   3.372  11.161  0.2393 -0.3462 -0.1984
  240MOL0     C32271   9.920   3.370  11.183 -0.8456  0.1520 -0.3637
  240MOL0     C32272   9.834   3.363  11.072  0.0215 -0.3699 -0.0474
  240MOL0     O32273   9.700   3.363  11.095  0.4488 -0.5284 -0.3386
  240MOL0     C32274   9.627   3.263  11.020 -0.1127 -0.9743 -0.5770
  240MOL0     C32275   9.629   3.135  11.099 -0.1929  1.2006  0.1050
  240MOL0     C32276   9.510   3.056  11.054  0.8349  0.1625  0.2329
  240MOL0     C32277   9.499   2.918  11.130  0.1108  0.1503 -0.2192
  240MOL0     C32278   9.372   2.842  11.095  0.2188 -0.4357 -0.0565
  240MOL0     C32279   9.368   2.719  11.186 -0.1900 -0.4752 -0.4304
  240MOL0     C32280   9.243   2.638  11.155 -0.0041 -0.0167 -0.3617
  240MOL0     C32281   9.246   2.503  11.229  0.3450  1.5805  0.3074
  240MOL0     N32282   9.128   2.419  11.192 -0.3741 -0.4572  0.0414
  240MOL0     C32283   9.086   2.402  11.062  0.4596 -0.8296  0.4728
  240MOL0     C32284   9.022   2.281  11.062 -0.5168  0.1381 -0.4155
  240MOL0     C32285   8.999   2.198  10.944 -0.3282 -0.0005 -0.0439
  240MOL0     C32286   8.913   2.264  10.838  0.8509  0.1280 -0.1167
  240MOL0     C32287   8.792   2.349  10.895 -0.3473 -0.3088 -0.0189
  240MOL0     C32288   8.708   2.404  10.781  0.2774 -0.3942 -0.4561
  240MOL0     O32289   8.590   2.466  10.831 -0.0249 -0.3325  0.2515
  240MOL0     C32290   8.481   2.490  10.746  0.0154  1.4580 -0.1192
  240MOL0     C32291   8.352   2.494  10.799 -1.3615  0.0071 -0.0066
  240MOL0     C32292   8.240   2.516  10.727  0.4414 -0.4771  0.1414
  240MOL0     C32293   8.109   2.493  10.802 -0.0616 -0.2969 -0.7260
  240MOL0     C32294   8.247   2.545  10.588  0.0916 -1.2391 -1.0567
  240MOL0     C32295   8.134   2.581  10.508  0.0586  0.2510  1.0341
  240MOL0     O32296   8.020   2.570  10.554  0.3008 -0.1110 -0.7112
  240MOL0     C32297   7.897   2.590  10.492 -0.2064 -0.5117  0.1197
  240MOL0     C32298   7.873   2.701  10.396  0.3568  0.2166 -0.1547
  240MOL0     C32299   7.744   2.729  10.348 -0.0241  0.0365 -0.0001
  240MOL0     C32300   7.635   2.657  10.398  0.1452  0.9287 -0.3251
  240MOL0     O32301   7.504   2.681  10.356 -0.1039  0.4170  0.3228
  240MOL0     C32302   7.415   2.700  10.470 -0.0299 -0.0418 -0.4827
  240MOL0     C32303   7.280   2.737  10.400 -0.4723  0.6399 -0.0757
  240MOL0     C32304   7.190   2.788  10.513  0.1714 -0.1795  0.5955
  240MOL0     C32305   7.071   2.854  10.448 -0.5138  0.2213 -0.3818
  240MOL0     C32306   6.941   2.855  10.536 -0.2804  0.9347  0.4282
  240MOL0     C32307   6.820   2.931  10.460  0.2974  0.3178 -0.9872
  240MOL0     C32308   6.862   3.066  10.406 -0.5070 -0.7166 -0.5656
  240MOL0     C32309   6.745   3.147  10.360  0.2278 -0.2253 -0.2082
  240MOL0    Cl32310   6.813   3.301  10.321  0.0521 -0.0859 -0.4754
  240MOL0     C32311   7.660   2.545  10.475  0.0263 -0.1909  1.3069
  240MOL0     C32312   7.788   2.514  10.518 -0.0125 -0.4632  0.1350
  240MOL0     O32313   8.163   2.624  10.391  0.0708  0.1753 -0.5628
  240MOL0     C32314   8.377   2.552  10.534  0.3366  0.6587  0.0018
  240MOL0     C32315   8.492   2.520  10.615 -0.1514 -1.0562  0.2727
  240MOL0     N32316   9.014   2.237  11.195 -0.0469  0.4288 -0.6034
  240MOL0     N32317   9.078   2.321  11.265 -0.3068 -0.2804  0.5926
  240MOL0     C32318   9.888   3.356  10.945  0.2390 -0.1093 -0.3030
  240MOL0     C32319  10.025   3.371  10.932 -0.2475  0.5983 -0.7070
  240MOL0     C32320  10.468   3.405  10.944 -0.5266  0.2650 -0.1990
  240MOL0     C32321  10.573   3.352  10.857  0.8622 -0.2126  0.0041
  240MOL0     C32322  10.704   3.382  10.868 -0.6941 -0.3333 -0.0372
  240MOL0     C32323  10.742   3.474  10.973 -0.0139  0.0916  0.0723
  240MOL0     O32324  10.869   3.515  10.975 -0.2723  0.1481 -0.8335
  240MOL0     C32325  10.941   3.526  11.102  1.0534 -0.1090 -0.9472
  240MOL0     C32326  11.084   3.483  11.084  0.1052 -0.1048 -0.8273
  240MOL0     C32327  11.170   3.602  11.035  0.0576 -0.1229 -0.7561
  240MOL0     C32328  11.320   3.566  11.021  0.0354  0.1259 -0.0590
  240MOL0     C32329  11.392   3.561  11.152 -0.4669 -0.2149  0.9862
  240MOL0     C32330  11.434   3.530  11.264  0.1636  0.2909  0.9058
  240MOL0     C32331  10.643   3.531  11.051  0.4388 -0.8235 -0.2422
  240MOL0     C32332  10.512   3.494  11.041  0.0499  0.0420 -0.0315
  240MOL0     H32333  10.118   3.382  11.251  0.3724  0.2385 -0.3396
  240MOL0     H32334   9.882   3.375  11.285  0.9913 -0.4702  0.3882
  240MOL0     H32335   9.526   3.302  11.012  1.3829  3.6127  0.2003
  240MOL0     H32336   9.649   3.244  10.915 -1.2009  0.5373 -1.0919
  240MOL0     H32337   9.720   3.087  11.061 -0.4719  1.0506 -0.3846
  240MOL0     H32338   9.629   3.158  11.206  1.3320  0.2949  0.3331
  240MOL0     H32339   9.413   3.104  11.068  0.3450 -1.0685  1.2748
  240MOL0     H32340   9.518   3.032  10.948  3.8774 -0.3584  0.4800
  240MOL0     H32341   9.581   2.849  11.107 -1.0968 -1.0132 -1.1891
  240MOL0     H32342   9.490   2.955  11.232  0.5121  2.5500 -0.9824
  240MOL0     H32343   9.292   2.910  11.122  0.3106  0.4854 -1.9209
  240MOL0     H32344   9.355   2.822  10.989 -1.7500 -3.7395  0.7524
  240MOL0     H32345   9.462   2.663  11.173  0.6882  0.1298  2.5934
  240MOL0     H32346   9.360   2.749  11.291 -1.4443  3.3873 -1.5020
  240MOL0     H32347   9.157   2.695  11.189  0.5804  2.5603 -2.8440
  240MOL0     H32348   9.247   2.609  11.049 -0.0325 -2.0101  0.1327
  240MOL0     H32349   9.243   2.518  11.338  0.1564  1.0240  0.3801
  240MOL0     H32350   9.336   2.457  11.188 -1.1966 -1.2087 -0.1603
  240MOL0     H32351   9.112   2.458  10.973 -3.3698 -1.3625 -1.1752
  240MOL0     H32352   9.090   2.163  10.892 -0.7601  0.4579 -1.1504
  240MOL0     H32353   8.953   2.102  10.968 -1.0665 -0.2077 -2.0501
  240MOL0     H32354   8.879   2.185  10.770 -1.3357 -1.3422  2.4743
  240MOL0     H32355   8.978   2.325  10.775  0.3903  0.6808 -0.0665
  240MOL0     H32356   8.831   2.428  10.960 -1.6834  0.3422  0.0345
  240MOL0     H32357   8.738   2.287  10.966  2.0179  0.0903  2.2606
  240MOL0     H32358   8.687   2.318  10.717 -0.0127  0.9184 -2.2089
  240MOL0     H32359   8.764   2.478  10.721 -0.6944 -0.0690 -0.9802
  240MOL0     H32360   8.343   2.479  10.906  1.8480  2.1051  0.7100
  240MOL0     H32361   8.044   2.425  10.747  1.7532 -1.7614 -1.1836
  240MOL0     H32362   8.129   2.436  10.893 -1.2293  0.1108 -0.2023
  240MOL0     H32363   8.054   2.582  10.833  0.9184 -1.1914  4.4516
  240MOL0     H32364   7.956   2.762  10.361  1.8505 -0.1633  2.4835
  240MOL0     H32365   7.717   2.812  10.284 -1.9560 -1.2338 -0.9505
  240MOL0     H32366   7.407   2.612  10.535 -2.6993  0.5713  0.1459
  240MOL0     H32367   7.434   2.783  10.538 -0.5593  0.4095 -0.8816
  240MOL0     H32368   7.286   2.817  10.326 -1.0067  0.3967 -0.3862
  240MOL0     H32369   7.232   2.651  10.352  0.9495  1.1160 -2.5422
  240MOL0     H32370   7.236   2.863  10.579  1.0494  0.9508 -1.2198
  240MOL0     H32371   7.157   2.707  10.579 -1.0146 -1.0182 -0.9866
  240MOL0     H32372   7.111   2.953  10.428 -2.6513  1.2770  0.3068
  240MOL0     H32373   7.055   2.806  10.351 -0.0628  1.0258 -0.8624
  240MOL0     H32374   6.956   2.904  10.632  1.3462 -0.1082  0.7447
  240MOL0     H32375   6.921   2.748  10.549  1.9165  0.4897  0.4454
  240MOL0     H32376   6.772   2.860  10.391  2.5833 -2.1824 -0.2051
  240MOL0     H32377   6.755   2.955  10.544  1.6391 -2.5784  1.0839
  240MOL0     H32378   6.937   3.064  10.327 -0.5820  0.0634 -0.6712
  240MOL0     H32379   6.907   3.125  10.486  1.0718  3.0109 -3.8387
  240MOL0     H32380   6.667   3.162  10.436 -1.9723  2.3796 -2.7838
  240MOL0     H32381   6.695   3.100  10.275 -1.2997  1.0466 -0.0488
  240MOL0     H32382   7.573   2.483  10.493 -0.5637 -0.5759 -2.1599
  240MOL0     H32383   7.806   2.415  10.561  1.6242 -1.8087 -3.2745
  240MOL0     H32384   8.386   2.580  10.430 -2.5927  2.5595  0.1599
  240MOL0     H32385   8.585   2.537  10.562 -1.0849 -0.1969 -1.2018
  240MOL0     H32386   9.835   3.339  10.852  0.0806 -0.6160 -0.1231
  240MOL0     H32387  10.058   3.376  10.829 -1.7224  1.1556 -1.1828
  240MOL0     H32388  10.540   3.288  10.776  2.5550  1.1341 -1.8412
  240MOL0     H32389  10.774   3.343  10.795  0.8490  1.2516  0.5142
  240MOL0     H32390  10.936   3.634  11.121 -0.3452 -0.5812  1.9215
  240MOL0     H32391  10.904   3.476  11.193  3.7828 -0.5967 -0.0194
  240MOL0     H32392  11.098   3.413  11.001  0.9576 -1.8586  0.7376
  240MOL0     H32393  11.131   3.447  11.176 -0.3972  2.0187  0.3347
  240MOL0     H32394  11.155   3.682  11.107  3.6934  1.7942 -1.8408
  240MOL0     H32395  11.127   3.641  10.942 -3.6555  2.2700  1.7280
  240MOL0     H32396  11.372   3.636  10.955 -0.1375 -0.6860 -1.0816
  240MOL0     H32397  11.325   3.462  10.989 -1.1242  0.0028  0.0874
  240MOL0     H32398  11.465   3.493  11.360 -0.0145 -1.4191  0.3495
  240MOL0     H32399  10.666   3.612  11.119  0.8100 -3.9547  3.7518
  240MOL0     H32400  10.450   3.541  11.116  1.0443 -0.1103  0.9197
  241MOL0     O32401   3.348   0.976   4.204 -1.4286  0.6797 -0.4703
  241MOL0     C32402   3.404   1.086   4.220  0.6180  0.4086 -1.0386
  241MOL0     O32403   3.340   1.200   4.245 -0.0693  0.3441 -0.0547
  241MOL0     C32404   3.209   1.201   4.222 -0.3939  0.6642  0.5396
  241MOL0     C32405   3.166   1.190   4.093 -0.1942  0.1111 -0.1375
  241MOL0     C32406   3.024   1.179   4.084  0.6615  0.1737  0.1182
  241MOL0     C32407   2.931   1.196   4.186 -0.2468 -0.3884 -0.3145
  241MOL0     O32408   2.807   1.196   4.146  0.5241  0.0867 -0.1527
  241MOL0     C32409   2.695   1.233   4.235 -0.8200  1.0290  0.3253
  241MOL0     C32410   2.577   1.275   4.157  0.1102  0.1243 -0.1567
  241MOL0     C32411   2.460   1.345   4.233  0.4717  0.5110  0.5950
  241MOL0     C32412   2.374   1.253   4.312 -0.5103  1.1520  0.3788
  241MOL0     C32413   2.264   1.319   4.380 -0.3722  0.1398 -0.2726
  241MOL0     C32414   2.138   1.295   4.297 -0.2459 -0.0895  0.1243
  241MOL0     C32415   2.020   1.360   4.357 -0.1912  0.0055 -0.1400
  241MOL0     C32416   1.901   1.336   4.270  0.4270 -0.0695  0.9239
  241MOL0     N32417   1.849   1.201   4.279  0.2722 -0.2897 -0.1245
  241MOL0     C32418   1.740   1.159   4.355  0.3206 -0.5098 -0.0268
  241MOL0     C32419   1.721   1.032   4.318 -0.0637  0.7418 -0.3400
  241MOL0     C32420   1.607   0.936   4.355 -0.7463  0.2960 -0.0011
  241MOL0     C32421   1.496   1.006   4.414  0.8704 -0.5156 -0.1501
  241MOL0     C32422   1.378   0.913   4.448 -1.1310  0.2902 -0.6735
  241MOL0     C32423   1.411   0.831   4.579 -0.6319 -1.3356  0.1858
  241MOL0     O32424   1.339   0.708   4.571 -0.2212 -0.4933  0.4387
  241MOL0     C32425   1.202   0.713   4.569 -0.0467  0.4046  0.2943
  241MOL0     C32426   1.130   0.670   4.451 -0.9256 -0.8234  0.0291
  241MOL0     C32427   0.999   0.691   4.443 -0.9016  1.0161 -1.1656
  241MOL0     C32428   0.938   0.641   4.317  0.2346  0.2946 -0.3026
  241MOL0     C32429   0.924   0.745   4.550 -0.2637  0.6793  0.1045
  241MOL0     C32430   0.788   0.783   4.560 -0.1176 -0.4094  0.7230
  241MOL0     O32431   0.708   0.774   4.669 -0.2690  1.2285  0.2261
  241MOL0     C32432   0.570   0.789   4.656  0.8972  0.1159  0.5299
  241MOL0     C32433   0.483   0.867   4.738 -0.6220 -0.5695  0.5151
  241MOL0     C32434   0.340   0.860   4.720  0.5098 -0.1467  0.1536
  241MOL0     C32435   0.277   0.776   4.617 -0.1594  0.5361 -0.4429
  241MOL0     O32436   0.143   0.761   4.627 -0.0276  0.1330  0.3871
  241MOL0     C32437   0.072   0.673   4.542  0.5243 -0.8092  0.3218
  241MOL0     C32438   0.054   0.748   4.406 -1.3917 -0.0209 -0.6431
  241MOL0     C32439  -0.049   0.672   4.322  0.1070  0.1178 -0.3350
  241MOL0     C32440  -0.002   0.529   4.279 -0.1871 -0.2169 -0.4841
  241MOL0     C32441  -0.097   0.460   4.179 -0.1963  0.1498 -0.2884
  241MOL0     C32442  -0.226   0.412   4.252 -0.5963  0.0233 -0.0415
  241MOL0     C32443  -0.337   0.349   4.169  0.2592 -0.0911  0.1699
  241MOL0     C32444  -0.341   0.194   4.151 -0.2793 -0.7900  0.6407
  241MOL0    Cl32445  -0.190   0.137   4.071  0.1018 -0.0956 -0.0655
  241MOL0     C32446   0.364   0.689   4.543  0.4097 -1.0089  0.5481
  241MOL0     C32447   0.503   0.696   4.564 -0.0012  0.1560 -0.4309
  241MOL0     O32448   0.744   0.835   4.454 -0.0369 -0.5206 -0.8404
  241MOL0     C32449   0.992   0.781   4.666 -0.5544 -0.0337 -0.2483
  241MOL0     C32450   1.132   0.765   4.675  0.4470 -0.3937 -0.8256
  241MOL0     N32451   1.823   0.995   4.232 -0.7083  0.2641  0.0315
  241MOL0     N32452   1.889   1.099   4.206 -0.1395  0.3316  0.8491
  241MOL0     C32453   2.985   1.209   4.315  0.1496 -0.4878  0.3667
  241MOL0     C32454   3.122   1.198   4.336 -0.6569 -0.0260 -0.0442
  241MOL0     C32455   3.550   1.096   4.227 -0.5661 -0.5233  1.3695
  241MOL0     C32456   3.638   0.978   4.228 -0.0757 -0.5102 -0.1580
  241MOL0     C32457   3.770   1.000   4.239  0.0351  0.1485 -0.3572
  241MOL0     C32458   3.827   1.121   4.249 -0.3783 -0.3003 -0.1245
  241MOL0     O32459   3.962   1.118   4.269 -0.4446 -0.5358  0.1680
  241MOL0     C32460   4.027   1.242   4.300 -0.6596 -0.3454 -0.0053
  241MOL0     C32461   4.179   1.243   4.313  0.4975  0.5234  0.0891
  241MOL0     C32462   4.238   1.149   4.418 -1.6258  0.2242  1.1341
  241MOL0     C32463   4.394   1.168   4.431 -0.3728  0.2144  0.0361
  241MOL0     C32464   4.422   1.303   4.485 -0.0034 -0.6033  0.2167
  241MOL0     C32465   4.440   1.411   4.531 -0.4531 -0.4248  0.2772
  241MOL0     C32466   3.749   1.242   4.252 -0.3756  0.8008  0.3753
  241MOL0     C32467   3.611   1.229   4.249  0.3318 -0.6726  0.0234
  241MOL0     H32468   3.231   1.196   4.007  0.6401  2.5688  0.5806
  241MOL0     H32469   2.982   1.157   3.986  0.1577  0.7434  0.1960
  241MOL0     H32470   2.670   1.142   4.290 -2.9765  0.6912 -1.1181
  241MOL0     H32471   2.737   1.303   4.308  2.5025  2.1929 -2.4251
  241MOL0     H32472   2.619   1.341   4.081 -1.4263  2.9421  1.2784
  241MOL0     H32473   2.536   1.184   4.113  0.5702 -0.5783  0.8306
  241MOL0     H32474   2.491   1.434   4.288  0.8927  1.8319 -1.6602
  241MOL0     H32475   2.394   1.380   4.153 -0.9797 -2.5386  0.2812
  241MOL0     H32476   2.342   1.171   4.247  0.7628  0.4329  0.6256
  241MOL0     H32477   2.454   1.224   4.381  1.1232 -0.0402 -1.8746
  241MOL0     H32478   2.255   1.278   4.481  1.1207  1.5870  0.4898
  241MOL0     H32479   2.288   1.425   4.392 -2.2586  0.8320 -1.9855
  241MOL0     H32480   2.157   1.346   4.203 -0.0620  4.0938  2.2030
  241MOL0     H32481   2.118   1.188   4.291 -1.2152 -0.2229  3.4390
  241MOL0     H32482   2.002   1.316   4.456  0.4513 -0.2495 -0.1369
  241MOL0     H32483   2.028   1.468   4.370 -1.3394  0.3729 -2.0357
  241MOL0     H32484   1.930   1.354   4.166  2.4072  1.3533  1.6635
  241MOL0     H32485   1.815   1.398   4.297  0.3490  0.6177 -0.7373
  241MOL0     H32486   1.680   1.217   4.425 -1.4402 -1.7364 -0.4369
  241MOL0     H32487   1.579   0.880   4.266  2.4186 -1.4751 -0.0330
  241MOL0     H32488   1.655   0.864   4.423 -2.5328 -1.2599 -0.2929
  241MOL0     H32489   1.464   1.084   4.344 -0.7391 -0.4372  0.6196
  241MOL0     H32490   1.536   1.052   4.505 -0.3779 -2.4539  1.4979
  241MOL0     H32491   1.376   0.839   4.368  0.9272 -0.7734  0.1788
  241MOL0     H32492   1.290   0.975   4.466 -0.6004  0.6935  0.6576
  241MOL0     H32493   1.380   0.890   4.666 -0.9954 -1.4130  0.1098
  241MOL0     H32494   1.517   0.802   4.580 -0.0084  0.7235 -0.5860
  241MOL0     H32495   1.189   0.625   4.372 -0.0561 -0.0417  0.2069
  241MOL0     H32496   0.984   0.678   4.225  3.3533 -2.6181 -0.0937
  241MOL0     H32497   0.929   0.532   4.320  3.1720 -0.1672  5.6153
  241MOL0     H32498   0.833   0.673   4.311  0.5238  1.5250  0.8080
  241MOL0     H32499   0.532   0.928   4.814  1.4944 -0.7368 -0.6519
  241MOL0     H32500   0.263   0.896   4.786 -0.3918  2.0173 -1.9278
  241MOL0     H32501   0.130   0.582   4.522  0.7497 -0.4834 -0.5419
  241MOL0     H32502  -0.022   0.635   4.582  0.9266 -2.4695 -0.2170
  241MOL0     H32503   0.026   0.852   4.425 -1.0325 -0.3471  2.0573
  241MOL0     H32504   0.152   0.740   4.357 -0.6927  2.3383  0.2255
  241MOL0     H32505  -0.070   0.729   4.231  1.2400  0.7280 -0.2445
  241MOL0     H32506  -0.145   0.668   4.374 -0.7133 -1.0277 -1.8564
  241MOL0     H32507   0.094   0.540   4.228 -0.0735 -1.5440 -0.5975
  241MOL0     H32508   0.012   0.470   4.370  1.2787  1.3067  0.3335
  241MOL0     H32509  -0.049   0.384   4.116 -2.1652  0.9762 -2.9655
  241MOL0     H32510  -0.120   0.531   4.098 -2.0947  0.2388  0.2853
  241MOL0     H32511  -0.194   0.342   4.330  3.5779  0.5108 -1.0987
  241MOL0     H32512  -0.276   0.503   4.287  0.0126 -0.4389  2.1534
  241MOL0     H32513  -0.344   0.392   4.069  4.5383  0.4033 -0.0671
  241MOL0     H32514  -0.425   0.362   4.234 -0.8845 -0.3519 -1.2799
  241MOL0     H32515  -0.425   0.158   4.090 -1.3979  0.1898  1.5479
  241MOL0     H32516  -0.355   0.152   4.251 -1.6738 -1.9310  0.0044
  241MOL0     H32517   0.321   0.629   4.463 -3.3576  1.2123  0.6762
  241MOL0     H32518   0.572   0.658   4.490  0.3232  2.4608 -1.4072
  241MOL0     H32519   0.945   0.821   4.755  0.6324  0.9620 -0.0385
  241MOL0     H32520   1.180   0.787   4.770  0.4452  0.9543 -1.1228
  241MOL0     H32521   2.929   1.235   4.404  2.1088  0.8028  1.2930
  241MOL0     H32522   3.162   1.205   4.437 -1.6224 -0.3899  0.3855
  241MOL0     H32523   3.611   0.873   4.232  2.7362 -1.3142 -0.1144
  241MOL0     H32524   3.827   0.908   4.246 -0.9090 -0.3306  1.6256
  241MOL0     H32525   3.995   1.325   4.236 -0.9997  1.2746  2.1823
  241MOL0     H32526   3.984   1.247   4.400  0.5161 -0.4214  0.5204
  241MOL0     H32527   4.206   1.343   4.349  1.0131 -0.1738  1.7748
  241MOL0     H32528   4.210   1.223   4.210 -1.8099  0.4563 -0.6521
  241MOL0     H32529   4.216   1.046   4.388  2.4704 -0.4965 -0.0549
  241MOL0     H32530   4.200   1.170   4.518 -1.7286  0.8800  0.9585
  241MOL0     H32531   4.450   1.153   4.338  1.1064  1.5438  0.6650
  241MOL0     H32532   4.432   1.097   4.505  2.7690  0.6122 -1.0316
  241MOL0     H32533   4.449   1.510   4.572 -0.0605 -0.0097 -0.7737
  241MOL0     H32534   3.797   1.335   4.278  1.2081  0.3304 -0.6957
  241MOL0     H32535   3.551   1.319   4.260  0.8609 -0.1176 -1.3983
  242MOL0     O32536   8.013   9.647   1.158  0.0770 -0.2455  0.0689
  242MOL0     C32537   7.947   9.546   1.133 -0.0591  0.3727 -0.4400
  242MOL0     O32538   7.811   9.529   1.134 -0.3953 -0.1304  0.2785
  242MOL0     C32539   7.713   9.622   1.166  0.0422 -0.1828  0.6555
  242MOL0     C32540   7.737   9.759   1.188  0.6434 -1.1888 -0.9490
  242MOL0     C32541   7.621   9.841   1.207 -0.6746  0.1867  0.2447
  242MOL0     C32542   7.498   9.793   1.216  1.3708  0.8475  0.2183
  242MOL0     O32543   7.391   9.876   1.228 -0.3276 -0.3555  0.1708
  242MOL0     C32544   7.288   9.852   1.328 -0.2516  0.1688 -0.0825
  242MOL0     C32545   7.202   9.983   1.350 -0.1728  1.2519 -0.1928
  242MOL0     C32546   7.091   9.992   1.251  1.1259  1.0061 -0.3581
  242MOL0     C32547   7.026  10.130   1.242 -0.6400  0.2141 -0.5834
  242MOL0     C32548   6.926  10.111   1.134  0.7445  1.0198 -0.0840
  242MOL0     C32549   6.846  10.234   1.104  0.3902  0.9619 -0.6401
  242MOL0     C32550   6.732  10.203   1.009 -0.2455 -0.4622 -1.0042
  242MOL0     C32551   6.646  10.327   0.967 -0.1726 -0.6337  0.8432
  242MOL0     N32552   6.524  10.346   1.046  0.4252 -0.0142  0.0887
  242MOL0     C32553   6.392  10.335   0.995 -0.5452 -0.6136  0.4885
  242MOL0     C32554   6.320  10.402   1.084 -0.2398 -0.6171 -0.4106
  242MOL0     C32555   6.181  10.444   1.051  0.2338 -0.8492  0.7898
  242MOL0     C32556   6.097  10.399   1.175  0.7648  0.9227 -0.0729
  242MOL0     C32557   5.978  10.483   1.170 -0.0922  0.8919  0.0057
  242MOL0     C32558   5.868  10.462   1.275  0.0450  0.1418 -0.0384
  242MOL0     O32559   5.912  10.454   1.417 -0.8655 -0.0457 -0.0288
  242MOL0     C32560   5.827  10.386   1.500  0.4070 -0.6041 -0.4683
  242MOL0     C32561   5.885  10.332   1.620 -0.2620  0.2568 -0.3939
  242MOL0     C32562   5.811  10.278   1.721 -0.4690 -0.1604 -0.1436
  242MOL0     C32563   5.891  10.228   1.842  0.3292 -0.2302  0.5802
  242MOL0     C32564   5.676  10.262   1.702  0.4394 -0.4986 -0.6561
  242MOL0     C32565   5.590  10.199   1.812  0.3881  0.1568 -1.3036
  242MOL0     O32566   5.452  10.198   1.792 -0.1119 -0.4699 -0.6204
  242MOL0     C32567   5.358  10.126   1.861 -0.1273 -0.6013 -0.5592
  242MOL0     C32568   5.381  10.030   1.961 -0.2908 -0.1877  0.0294
  242MOL0     C32569   5.268   9.972   2.030  0.7579  0.0551  0.7789
  242MOL0     C32570   5.141  10.010   2.003  0.6786  0.3065  1.1820
  242MOL0     O32571   5.030   9.955   2.059 -0.0272 -0.9191  0.2758
  242MOL0     C32572   5.023   9.840   2.145 -1.5388 -0.4979  0.8261
  242MOL0     C32573   5.057   9.713   2.074  0.1368  0.1672 -0.0448
  242MOL0     C32574   4.946   9.684   1.974 -0.6572  0.6198  0.6584
  242MOL0     C32575   4.966   9.535   1.945 -1.0830 -0.9850 -0.0214
  242MOL0     C32576   4.895   9.512   1.817  0.0792 -0.5242 -1.3917
  242MOL0     C32577   4.892   9.363   1.781 -0.8508  0.0903 -0.1460
  242MOL0     C32578   4.836   9.254   1.884  0.8211 -0.0401 -0.3773
  242MOL0     C32579   4.712   9.296   1.961 -0.9188 -0.7585 -0.1815
  242MOL0    Cl32580   4.559   9.332   1.874  0.0618 -0.2645  0.0575
  242MOL0     C32581   5.121  10.111   1.903  0.4065  0.2029  0.1072
  242MOL0     C32582   5.228  10.164   1.834  0.4507  0.6218  0.5006
  242MOL0     O32583   5.639  10.173   1.921 -0.1799  0.0466 -0.4304
  242MOL0     C32584   5.611  10.309   1.583  0.3619  0.4396 -0.7540
  242MOL0     C32585   5.686  10.367   1.482  0.1301  0.9292 -1.1296
  242MOL0     N32586   6.403  10.434   1.194 -0.0169 -0.4437 -0.3366
  242MOL0     N32587   6.527  10.397   1.169  1.2419  0.0498 -1.2631
  242MOL0     C32588   7.475   9.659   1.202  0.2576 -0.1070  0.0720
  242MOL0     C32589   7.582   9.579   1.174  1.1158  0.4324  0.1863
  242MOL0     C32590   8.031   9.421   1.104 -0.2565 -1.0380 -0.5401
  242MOL0     C32591   7.974   9.295   1.087 -0.3094  0.1899 -0.3781
  242MOL0     C32592   8.050   9.176   1.081 -0.4526  0.0172 -0.3369
  242MOL0     C32593   8.194   9.183   1.085 -0.5093 -0.9590  0.4421
  242MOL0     O32594   8.257   9.063   1.074 -0.5368  0.3066  0.8135
  242MOL0     C32595   8.395   9.048   1.094 -0.4541  0.3763  0.2294
  242MOL0     C32596   8.475   9.084   0.961  0.4524  0.0090 -1.1867
  242MOL0     C32597   8.623   9.095   0.993 -0.0375  0.9433 -0.3092
  242MOL0     C32598   8.667   9.240   1.032 -0.7686 -0.0355  0.3080
  242MOL0     C32599   8.812   9.238   1.077  0.0135 -0.0565 -0.2622
  242MOL0     C32600   8.926   9.246   1.112 -0.0272  0.6090  0.7335
  242MOL0     C32601   8.253   9.309   1.097 -0.6766  0.5912  0.4187
  242MOL0     C32602   8.173   9.422   1.109  0.1682  0.1403 -0.1491
  242MOL0     H32603   7.834   9.799   1.216  0.9974 -1.8808 -1.1655
  242MOL0     H32604   7.628   9.947   1.232 -4.5136  0.9286 -1.0044
  242MOL0     H32605   7.210   9.783   1.296 -0.0936 -0.8058  1.5171
  242MOL0     H32606   7.327   9.825   1.427  0.7560 -0.4763 -0.6436
  242MOL0     H32607   7.154   9.969   1.448  0.8589  2.2543  0.4845
  242MOL0     H32608   7.267  10.071   1.345 -0.8567  1.7209 -0.9912
  242MOL0     H32609   7.146   9.968   1.159 -0.1025  0.8442 -1.0748
  242MOL0     H32610   7.023   9.909   1.274  1.3714  1.7385  3.7680
  242MOL0     H32611   6.988  10.145   1.343  1.7226  2.8461  0.0333
  242MOL0     H32612   7.104  10.204   1.220  0.7206 -1.0964 -0.2681
  242MOL0     H32613   6.980  10.075   1.046 -0.0918 -0.7435  0.0859
  242MOL0     H32614   6.860  10.025   1.153  1.6683 -0.0569 -1.5160
  242MOL0     H32615   6.820  10.281   1.199  1.0658  2.8421 -1.3449
  242MOL0     H32616   6.918  10.305   1.063  0.7487  0.5841 -0.6762
  242MOL0     H32617   6.779  10.159   0.921  1.4914 -0.1890 -0.2519
  242MOL0     H32618   6.675  10.123   1.056  0.7419 -0.9241 -0.5615
  242MOL0     H32619   6.622  10.310   0.862  1.2095  0.9080  0.2323
  242MOL0     H32620   6.705  10.419   0.970  0.1702 -0.8774  2.7512
  242MOL0     H32621   6.377  10.314   0.889 -0.8229  1.0608  0.1659
  242MOL0     H32622   6.183  10.550   1.024 -0.5948 -0.7715  1.0263
  242MOL0     H32623   6.154  10.386   0.963  3.7530  0.1743 -1.1730
  242MOL0     H32624   6.152  10.400   1.270  3.4851 -2.8774 -1.3807
  242MOL0     H32625   6.068  10.294   1.180  0.9650  0.9114  1.1455
  242MOL0     H32626   5.931  10.464   1.073 -0.6452 -1.7005  0.7143
  242MOL0     H32627   6.003  10.589   1.179 -3.4560  1.6825  2.1454
  242MOL0     H32628   5.831  10.363   1.246  3.8560 -1.1995 -0.8719
  242MOL0     H32629   5.789  10.535   1.255  0.7030  0.6204 -0.9956
  242MOL0     H32630   5.991  10.348   1.637  0.1309 -0.1531 -2.2312
  242MOL0     H32631   5.869  10.286   1.932 -1.8733  1.4852 -0.9538
  242MOL0     H32632   5.874  10.120   1.852 -0.3022 -0.2536 -0.5173
  242MOL0     H32633   5.997  10.244   1.821  0.1221 -0.3531 -0.6709
  242MOL0     H32634   5.480   9.995   1.987 -0.0033  0.2865 -0.4299
  242MOL0     H32635   5.289   9.896   2.105  0.2587 -1.4654 -0.5655
  242MOL0     H32636   5.098   9.853   2.224 -1.4600  0.6930  0.5719
  242MOL0     H32637   4.928   9.835   2.199 -1.5081 -1.4647  0.8103
  242MOL0     H32638   5.156   9.719   2.028  0.1789 -0.3162 -0.0278
  242MOL0     H32639   5.051   9.632   2.147 -1.4294 -0.8900 -1.2735
  242MOL0     H32640   4.967   9.747   1.887 -2.0612  1.0641  0.6321
  242MOL0     H32641   4.853   9.706   2.026 -1.5696 -0.1575 -0.5958
  242MOL0     H32642   5.074   9.522   1.940 -1.1294 -1.2451 -0.3751
  242MOL0     H32643   4.925   9.477   2.028  0.9433 -1.6434  0.5553
  242MOL0     H32644   4.940   9.571   1.736  1.2862 -0.1545 -0.4903
  242MOL0     H32645   4.788   9.531   1.823 -0.2243 -2.2454 -0.5574
  242MOL0     H32646   4.823   9.362   1.696 -1.5093  2.4204  0.2849
  242MOL0     H32647   4.989   9.331   1.743 -1.0129  0.4183 -0.8608
  242MOL0     H32648   4.910   9.220   1.957  1.4925  2.7849  0.4053
  242MOL0     H32649   4.807   9.172   1.818 -2.3653  1.0620 -0.4986
  242MOL0     H32650   4.738   9.372   2.035 -0.9872 -2.1399  1.3111
  242MOL0     H32651   4.701   9.210   2.028  2.1133 -0.7780  0.4540
  242MOL0     H32652   5.021  10.135   1.866 -0.1146 -1.1272  0.5842
  242MOL0     H32653   5.212  10.241   1.759  1.4306  1.5485  1.2009
  242MOL0     H32654   5.506  10.309   1.556 -0.0423  2.7307  0.4751
  242MOL0     H32655   5.632  10.406   1.397  0.0972 -1.4636 -2.2747
  242MOL0     H32656   7.380   9.611   1.225  1.1309 -1.9433  0.0656
  242MOL0     H32657   7.555   9.479   1.142 -1.3645  1.3906 -0.9718
  242MOL0     H32658   7.866   9.287   1.097 -0.0816 -2.7182  0.7344
  242MOL0     H32659   8.011   9.075   1.076 -1.5535  0.4818 -2.3744
  242MOL0     H32660   8.437   9.103   1.178  1.0145 -0.4056  0.0399
  242MOL0     H32661   8.418   8.941   1.103  2.3231  0.7566 -1.1262
  242MOL0     H32662   8.434   9.177   0.922 -0.5507  1.0243  2.0155
  242MOL0     H32663   8.470   9.003   0.887  0.0555 -0.4786 -0.6410
  242MOL0     H32664   8.676   9.048   0.910 -0.2423 -3.7014  1.8226
  242MOL0     H32665   8.647   9.037   1.083 -0.2406 -0.1559 -0.9389
  242MOL0     H32666   8.616   9.279   1.121  3.4473  2.9223  1.7212
  242MOL0     H32667   8.650   9.311   0.951 -3.5680 -0.1226  0.7123
  242MOL0     H32668   9.028   9.261   1.142  0.3807 -1.1787  0.3709
  242MOL0     H32669   8.360   9.322   1.086 -0.3586 -0.5322  1.9153
  242MOL0     H32670   8.236   9.511   1.113 -1.1485  1.0839  0.5546
  243MOL0     O32671   2.559   2.469   2.018 -0.1138  0.1918 -0.8785
  243MOL0     C32672   2.655   2.392   2.003  0.4137 -0.1749  0.8111
  243MOL0     O32673   2.645   2.256   1.980 -0.4217 -0.2339  0.4704
  243MOL0     C32674   2.523   2.201   1.961  0.1831 -0.0145  0.5771
  243MOL0     C32675   2.464   2.135   2.069 -0.8181 -0.1139  0.3339
  243MOL0     C32676   2.341   2.084   2.058  0.3364 -0.8279  0.3731
  243MOL0     C32677   2.265   2.090   1.933 -0.0977  0.0405  0.7016
  243MOL0     O32678   2.151   2.007   1.923 -0.3970  0.1049  0.9550
  243MOL0     C32679   2.054   2.054   1.834 -0.1878 -0.2721  0.8615
  243MOL0     C32680   1.914   2.002   1.876  0.6799  0.2504  0.5624
  243MOL0     C32681   1.809   2.010   1.761 -0.9720 -0.4019 -0.2676
  243MOL0     C32682   1.693   1.909   1.780  0.4411  0.4916 -0.3464
  243MOL0     C32683   1.595   1.965   1.888  0.5886  0.4367 -0.3892
  243MOL0     C32684   1.485   1.869   1.918 -0.6136 -0.1920 -0.0213
  243MOL0     C32685   1.367   1.929   2.003  0.3571 -0.4695  0.8566
  243MOL0     C32686   1.293   1.809   2.069 -0.4133 -0.6227 -0.1318
  243MOL0     N32687   1.182   1.857   2.152  0.1393  0.2115 -0.2901
  243MOL0     C32688   1.200   1.943   2.258 -0.3173  0.1914  0.7304
  243MOL0     C32689   1.070   1.973   2.287 -0.8324 -0.0274 -0.1096
  243MOL0     C32690   1.023   2.061   2.402 -0.0089 -0.0752 -0.4975
  243MOL0     C32691   0.887   2.122   2.367  0.6247  0.4901 -0.5014
  243MOL0     C32692   0.842   2.226   2.461  1.1735 -0.3646  0.8569
  243MOL0     C32693   0.700   2.253   2.421  0.3169 -0.2857  0.4129
  243MOL0     O32694   0.638   2.343   2.513  1.2241  0.5827  0.0010
  243MOL0     C32695   0.515   2.294   2.566 -0.6205 -0.2095 -0.5619
  243MOL0     C32696   0.510   2.191   2.658 -0.0936 -0.9128  0.6945
  243MOL0     C32697   0.383   2.145   2.720 -0.0539 -0.1694 -0.2316
  243MOL0     C32698   0.395   2.039   2.819  0.6635  0.0744  0.7770
  243MOL0     C32699   0.264   2.221   2.692 -0.1655 -0.0535  0.0849
  243MOL0     C32700   0.137   2.201   2.765 -0.2514  1.5161 -0.0154
  243MOL0     O32701   0.042   2.301   2.753  0.6019 -0.3127 -0.1512
  243MOL0     C32702  -0.090   2.271   2.793 -0.4456 -0.0555 -0.0360
  243MOL0     C32703  -0.138   2.314   2.916 -0.5321 -0.1615 -0.6005
  243MOL0     C32704  -0.273   2.298   2.947  0.3299  0.5989  0.1569
  243MOL0     C32705  -0.361   2.238   2.855 -0.3152 -0.5880 -0.5421
  243MOL0     O32706  -0.502   2.222   2.860 -0.0734  0.7094 -0.4835
  243MOL0     C32707  -0.571   2.309   2.948  0.6670  0.4045 -0.1725
  243MOL0     C32708  -0.725   2.276   2.940  0.4462 -0.5062 -0.1641
  243MOL0     C32709  -0.790   2.327   3.067  0.7429  0.1765  0.6720
  243MOL0     C32710  -0.947   2.312   3.046  0.4767 -0.2330 -0.1469
  243MOL0     C32711  -1.022   2.367   3.164 -0.5956  0.4522 -0.2146
  243MOL0     C32712  -1.004   2.295   3.296 -0.5724  0.5034  0.1764
  243MOL0     C32713  -1.102   2.179   3.306  0.3825 -0.0335 -0.3717
  243MOL0     C32714  -1.096   2.124   3.446 -0.5019  0.3196 -0.8945
  243MOL0    Cl32715  -1.228   2.005   3.466 -0.6139 -0.2512  0.2160
  243MOL0     C32716  -0.303   2.180   2.741 -0.1777 -0.3060 -0.3234
  243MOL0     C32717  -0.168   2.201   2.702  0.1441  0.4678 -0.8857
  243MOL0     O32718   0.117   2.093   2.821  0.3388  0.2857 -0.2125
  243MOL0     C32719   0.276   2.325   2.603 -0.1451  0.1576  0.4799
  243MOL0     C32720   0.398   2.367   2.540 -0.6655 -0.3852 -0.2151
  243MOL0     N32721   0.987   1.894   2.210 -0.3765  0.0494  0.1227
  243MOL0     N32722   1.056   1.835   2.126 -0.2839  0.4591  0.3003
  243MOL0     C32723   2.322   2.158   1.822  0.1434  0.3435  0.7723
  243MOL0     C32724   2.460   2.193   1.832 -0.1780 -0.3114 -0.4099
  243MOL0     C32725   2.797   2.448   2.003  0.7394 -0.0965  0.8172
  243MOL0     C32726   2.903   2.364   2.028 -0.2563 -0.4979  0.4117
  243MOL0     C32727   3.036   2.401   2.029 -0.4794 -0.7890 -0.3118
  243MOL0     C32728   3.062   2.542   2.003  0.1800  0.1356 -0.1196
  243MOL0     O32729   3.180   2.594   2.030  0.5371 -0.4461  1.0824
  243MOL0     C32730   3.260   2.592   1.910 -0.3747 -0.8493  0.3742
  243MOL0     C32731   3.345   2.712   1.886  0.4452  0.1625  0.0923
  243MOL0     C32732   3.424   2.756   2.009  0.6070 -0.1536 -0.0722
  243MOL0     C32733   3.498   2.641   2.075 -0.2480  0.3303 -0.5792
  243MOL0     C32734   3.585   2.696   2.175  0.4379 -0.4146  0.3178
  243MOL0     C32735   3.652   2.726   2.270 -0.1029  0.3069 -0.0512
  243MOL0     C32736   2.964   2.632   1.975  0.3765 -0.1438  1.0056
  243MOL0     C32737   2.826   2.591   1.973 -0.3742  0.0058 -1.0366
  243MOL0     H32738   2.507   2.129   2.168 -0.3571 -3.8784  0.0386
  243MOL0     H32739   2.281   2.038   2.137 -1.0980 -1.7558 -1.1986
  243MOL0     H32740   2.042   2.162   1.837 -1.4954 -0.0206 -4.3393
  243MOL0     H32741   2.079   2.026   1.731  0.3135  0.8960  0.6524
  243MOL0     H32742   1.927   1.898   1.906  2.1884  0.1894 -0.2024
  243MOL0     H32743   1.880   2.065   1.959 -2.8216 -0.5123 -0.1148
  243MOL0     H32744   1.768   2.111   1.775 -1.8599 -1.0077  1.8751
  243MOL0     H32745   1.861   2.005   1.664  0.5784  0.7383  0.4542
  243MOL0     H32746   1.646   1.899   1.682  1.1159  1.7738 -0.8175
  243MOL0     H32747   1.733   1.809   1.801 -0.8351  0.0639  0.1706
  243MOL0     H32748   1.645   2.005   1.977 -1.6497  1.6826  0.3785
  243MOL0     H32749   1.542   2.046   1.837 -2.0270 -0.8754  0.0788
  243MOL0     H32750   1.448   1.822   1.826  1.9949  1.2870 -1.9629
  243MOL0     H32751   1.539   1.784   1.962  3.7761  1.4833 -1.6262
  243MOL0     H32752   1.396   1.997   2.084  3.6697 -0.2059 -0.3950
  243MOL0     H32753   1.305   1.981   1.929  2.7176 -0.8172 -1.4794
  243MOL0     H32754   1.370   1.756   2.126  0.2614  2.2981  1.8914
  243MOL0     H32755   1.260   1.741   1.990 -0.1509 -1.0015  0.0807
  243MOL0     H32756   1.291   1.978   2.307  0.9571 -2.8322  0.7694
  243MOL0     H32757   1.008   1.999   2.491  1.2194 -0.7937 -0.7646
  243MOL0     H32758   1.097   2.138   2.425  0.1816 -0.2982 -0.3627
  243MOL0     H32759   0.811   2.044   2.379  1.2815  0.2036  2.7665
  243MOL0     H32760   0.884   2.165   2.266  3.2297  0.6661 -0.5716
  243MOL0     H32761   0.899   2.319   2.465 -0.0171  0.3487  2.0869
  243MOL0     H32762   0.835   2.184   2.562 -4.0313 -2.4759 -0.0883
  243MOL0     H32763   0.648   2.157   2.413  0.6554 -0.5498  1.2218
  243MOL0     H32764   0.695   2.310   2.328 -1.1548  2.3962  2.0113
  243MOL0     H32765   0.606   2.144   2.677 -0.8679 -2.7569  0.2873
  243MOL0     H32766   0.342   1.953   2.778  0.8354  1.6004 -3.0346
  243MOL0     H32767   0.498   2.009   2.838  0.4381 -1.7585 -0.6009
  243MOL0     H32768   0.361   2.065   2.920 -1.2077 -1.8748  0.7098
  243MOL0     H32769  -0.082   2.390   2.970 -4.1770  0.8816  2.0754
  243MOL0     H32770  -0.314   2.344   3.037 -2.4567 -2.3154  0.5696
  243MOL0     H32771  -0.536   2.285   3.049 -1.2463 -0.1935  0.3875
  243MOL0     H32772  -0.561   2.416   2.926  0.4637  0.5869  0.6013
  243MOL0     H32773  -0.772   2.325   2.854  1.7531 -0.8799 -1.1222
  243MOL0     H32774  -0.739   2.169   2.924  0.6034 -0.7807  1.3980
  243MOL0     H32775  -0.766   2.432   3.081  0.7483  0.3529 -0.5753
  243MOL0     H32776  -0.761   2.270   3.156 -0.0021 -2.2158 -0.5277
  243MOL0     H32777  -0.982   2.377   2.965  0.2950  0.8397  0.7532
  243MOL0     H32778  -0.964   2.205   3.034  0.2107 -0.0420 -1.6431
  243MOL0     H32779  -1.130   2.372   3.146 -0.9750 -0.0647  1.6771
  243MOL0     H32780  -0.991   2.470   3.178 -0.9043  0.5539 -0.2569
  243MOL0     H32781  -0.901   2.257   3.306 -0.5388  0.4735 -0.2585
  243MOL0     H32782  -1.027   2.373   3.369  0.8146  0.4720  0.6821
  243MOL0     H32783  -1.074   2.098   3.239 -1.5967  0.0534 -1.3919
  243MOL0     H32784  -1.211   2.191   3.297 -0.0876 -2.1920  1.4436
  243MOL0     H32785  -1.108   2.199   3.525 -1.5380 -0.1185 -0.6196
  243MOL0     H32786  -0.996   2.081   3.447 -0.2805  0.7854  0.8252
  243MOL0     H32787  -0.360   2.111   2.679  1.6150 -0.1604 -2.2745
  243MOL0     H32788  -0.129   2.151   2.614  0.7451  0.2466 -0.5042
  243MOL0     H32789   0.186   2.375   2.567 -2.1435 -2.3924  1.5928
  243MOL0     H32790   0.405   2.454   2.475  1.9288 -0.2050  0.2262
  243MOL0     H32791   2.260   2.161   1.733 -0.0569  1.2505  0.9316
  243MOL0     H32792   2.519   2.235   1.751  2.3098 -2.4899  0.1590
  243MOL0     H32793   2.893   2.262   2.063 -1.4336  0.0613  1.7461
  243MOL0     H32794   3.121   2.342   2.061 -0.1309 -0.4113 -0.5294
  243MOL0     H32795   3.320   2.505   1.939 -0.7704 -0.6662  1.7986
  243MOL0     H32796   3.210   2.550   1.822  2.3923 -0.7684 -1.3790
  243MOL0     H32797   3.277   2.791   1.854 -1.0367 -1.6627 -1.5073
  243MOL0     H32798   3.414   2.699   1.802 -1.9181  1.0905 -2.1095
  243MOL0     H32799   3.363   2.808   2.084 -0.9413 -0.4222 -1.1013
  243MOL0     H32800   3.496   2.829   1.970  1.7481 -2.6406 -2.9740
  243MOL0     H32801   3.562   2.595   1.999  2.7899 -1.2999  2.6676
  243MOL0     H32802   3.433   2.564   2.116  2.2496 -2.7423 -1.9656
  243MOL0     H32803   3.720   2.766   2.343  0.0350  2.9721 -1.5205
  243MOL0     H32804   2.994   2.734   1.953 -0.6743  0.2482  1.2799
  243MOL0     H32805   2.743   2.658   1.949  1.4126  3.2817  1.1374
  244MOL0     O32806   8.183   5.464   9.602 -0.5250 -0.4045  0.0393
  244MOL0     C32807   8.210   5.509   9.716  0.3842 -0.2634  0.8874
  244MOL0     O32808   8.149   5.618   9.773  0.2251 -0.1950  0.7181
  244MOL0     C32809   8.030   5.666   9.727  0.4762 -0.0660  0.5279
  244MOL0     C32810   8.010   5.799   9.683 -0.2344  0.5567 -0.7241
  244MOL0     C32811   7.885   5.842   9.647 -0.5754 -0.1621  0.6926
  244MOL0     C32812   7.778   5.754   9.634  0.4378  0.2969  0.0448
  244MOL0     O32813   7.644   5.796   9.605  0.0206  0.1631 -0.3100
  244MOL0     C32814   7.609   5.934   9.575 -0.0654  0.0272  0.3720
  244MOL0     C32815   7.491   5.944   9.475  0.1776  0.1624 -0.3274
  244MOL0     C32816   7.362   5.919   9.551 -0.3408 -0.4363  0.2019
  244MOL0     C32817   7.238   5.971   9.459 -0.2317 -0.3273 -0.7336
  244MOL0     C32818   7.113   5.975   9.542  0.3863 -0.0844 -0.5608
  244MOL0     C32819   7.102   6.045   9.674  0.2026 -0.1946  0.7970
  244MOL0     C32820   6.966   6.048   9.734 -0.1832  0.1707 -0.0059
  244MOL0     C32821   6.842   6.076   9.651 -0.3896 -0.1257  0.4725
  244MOL0     N32822   6.834   6.209   9.590  0.6791 -0.1765 -0.0262
  244MOL0     C32823   6.836   6.328   9.657 -0.1936 -0.6628 -0.8908
  244MOL0     C32824   6.842   6.428   9.568 -0.1976 -0.4484  0.7303
  244MOL0     C32825   6.828   6.575   9.577  0.1009  0.8798 -0.7996
  244MOL0     C32826   6.683   6.616   9.579 -0.6404 -0.3477  0.0967
  244MOL0     C32827   6.605   6.567   9.454  0.0039  0.1937 -0.2496
  244MOL0     C32828   6.457   6.607   9.458  0.9871 -0.3975 -0.2933
  244MOL0     O32829   6.403   6.576   9.585  0.1521 -0.0949  0.6650
  244MOL0     C32830   6.327   6.669   9.642 -0.9599 -0.8060 -0.2674
  244MOL0     C32831   6.351   6.691   9.776 -1.7399  1.0528 -0.3786
  244MOL0     C32832   6.282   6.781   9.855  0.5961  0.2302 -0.1506
  244MOL0     C32833   6.316   6.786  10.001 -0.5501 -0.3715  0.4105
  244MOL0     C32834   6.186   6.863   9.784  0.3139  0.1089 -0.5610
  244MOL0     C32835   6.104   6.962   9.853 -0.3897 -0.2481  0.2382
  244MOL0     O32836   6.031   7.043   9.769  0.1859  0.5501 -0.6222
  244MOL0     C32837   5.961   7.156   9.807  0.2923  0.9569 -0.5614
  244MOL0     C32838   5.987   7.217   9.935  0.4377  1.0640  0.5526
  244MOL0     C32839   5.922   7.338   9.974 -0.5068  0.7312  0.5630
  244MOL0     C32840   5.844   7.404   9.880  0.3240 -0.9110 -0.6242
  244MOL0     O32841   5.821   7.535   9.897  0.3708  0.3395 -0.7424
  244MOL0     C32842   5.708   7.547   9.992  0.2367 -0.0246  0.4607
  244MOL0     C32843   5.713   7.688  10.059  0.3331 -0.3718  0.2672
  244MOL0     C32844   5.607   7.710  10.163  0.3902  0.4849 -0.5878
  244MOL0     C32845   5.463   7.737  10.108  0.3220 -1.0317  0.4786
  244MOL0     C32846   5.395   7.846  10.198  0.3594 -0.3691  0.4420
  244MOL0     C32847   5.268   7.888  10.133  0.6241  0.2652  0.7489
  244MOL0     C32848   5.195   8.009  10.194  0.2064  0.3249 -0.1577
  244MOL0     C32849   5.273   8.141  10.207  0.5868 -0.5045 -0.7081
  244MOL0    Cl32850   5.181   8.270  10.297  0.2242  0.2945  0.4924
  244MOL0     C32851   5.822   7.353   9.754 -0.8918 -0.4634 -0.0898
  244MOL0     C32852   5.872   7.225   9.720  0.5527  0.2655  0.2868
  244MOL0     O32853   6.096   6.954   9.971 -0.4062 -0.1495 -1.0001
  244MOL0     C32854   6.165   6.835   9.651  0.1928 -0.2991  0.8339
  244MOL0     C32855   6.230   6.741   9.577  0.2404  0.8500 -0.7766
  244MOL0     N32856   6.853   6.362   9.447 -0.2640  0.2477 -0.8111
  244MOL0     N32857   6.870   6.233   9.466 -0.4288 -0.3473  0.4923
  244MOL0     C32858   7.795   5.623   9.668 -0.0432 -0.3137 -0.3589
  244MOL0     C32859   7.917   5.581   9.721  0.1381  0.0338 -0.1719
  244MOL0     C32860   8.330   5.470   9.790  0.3634 -0.2809 -0.4935
  244MOL0     C32861   8.447   5.428   9.726  0.1511  0.0766  0.0968
  244MOL0     C32862   8.558   5.376   9.795 -0.5378  0.5875 -0.0970
  244MOL0     C32863   8.554   5.379   9.934  0.6628  0.2047 -0.4293
  244MOL0     O32864   8.660   5.367  10.027 -0.0546  0.7807  0.6885
  244MOL0     C32865   8.781   5.304   9.987 -1.1417 -0.0615  0.2218
  244MOL0     C32866   8.904   5.348  10.074 -0.3306  1.1339  0.6679
  244MOL0     C32867   8.971   5.466  10.002 -0.0263 -0.0285 -0.0179
  244MOL0     C32868   9.052   5.439   9.880 -0.1916  0.5101 -0.5035
  244MOL0     C32869   9.162   5.350   9.907 -0.1941 -0.4283  0.0432
  244MOL0     C32870   9.249   5.268   9.927  0.1625 -0.3211 -0.9731
  244MOL0     C32871   8.434   5.409  10.001 -0.8228  0.4155 -0.3603
  244MOL0     C32872   8.324   5.454   9.931 -0.3996 -0.8613 -0.5532
  244MOL0     H32873   8.095   5.866   9.691 -1.1334  1.8404 -1.6862
  244MOL0     H32874   7.877   5.948   9.622  1.0458 -0.2493 -0.3449
  244MOL0     H32875   7.585   5.983   9.670 -0.4778  0.2371  0.1603
  244MOL0     H32876   7.690   5.984   9.520  2.1503 -2.3529  1.2672
  244MOL0     H32877   7.485   6.045   9.432  0.0946  0.4842  0.4261
  244MOL0     H32878   7.506   5.873   9.393  2.0611  0.4168 -0.2454
  244MOL0     H32879   7.344   5.816   9.583 -2.6333 -0.3422 -0.5470
  244MOL0     H32880   7.371   5.974   9.645  3.0308 -2.1178  1.0225
  244MOL0     H32881   7.266   6.073   9.430 -0.9443 -0.2273 -1.0858
  244MOL0     H32882   7.225   5.915   9.366 -1.7824  0.8624 -1.2788
  244MOL0     H32883   7.026   5.995   9.479 -0.9854 -0.2200  1.2041
  244MOL0     H32884   7.102   5.869   9.569  1.3508 -0.2416 -0.7452
  244MOL0     H32885   7.174   6.007   9.747 -0.3385 -1.4615  0.6830
  244MOL0     H32886   7.129   6.151   9.661  4.0404 -1.1495 -0.5045
  244MOL0     H32887   6.956   5.947   9.775 -2.1090  0.9954  1.6665
  244MOL0     H32888   6.975   6.119   9.816 -0.2420 -0.1314  0.2623
  244MOL0     H32889   6.759   6.066   9.721  0.6961 -0.8608  1.7191
  244MOL0     H32890   6.833   6.009   9.564  1.6538  0.1291  0.0133
  244MOL0     H32891   6.810   6.344   9.761 -0.1159  2.2880 -1.2305
  244MOL0     H32892   6.886   6.612   9.662  0.8936 -1.6269 -0.1675
  244MOL0     H32893   6.873   6.615   9.486  0.2555  1.5597 -0.4279
  244MOL0     H32894   6.679   6.723   9.559  0.8295 -0.2047  0.4672
  244MOL0     H32895   6.619   6.581   9.661 -0.9084 -3.0462 -1.1391
  244MOL0     H32896   6.608   6.458   9.442 -0.2075  0.1997 -0.3641
  244MOL0     H32897   6.652   6.620   9.371 -3.0532  3.2282 -0.2650
  244MOL0     H32898   6.405   6.552   9.379  0.5356 -1.6955  0.8681
  244MOL0     H32899   6.457   6.713   9.432 -1.1161 -0.6319 -1.4568
  244MOL0     H32900   6.433   6.633   9.817  0.5517  3.3752 -1.4464
  244MOL0     H32901   6.369   6.879  10.023 -2.0421  1.1839 -2.1153
  244MOL0     H32902   6.228   6.781  10.066  0.0711 -0.9842  1.2316
  244MOL0     H32903   6.394   6.711  10.016  2.4928  2.4225 -0.2215
  244MOL0     H32904   6.063   7.185  10.006 -2.0823 -1.1462  2.4690
  244MOL0     H32905   5.930   7.378  10.075 -4.7959  0.1138  1.3639
  244MOL0     H32906   5.614   7.533   9.937  0.7780  1.2778 -0.9014
  244MOL0     H32907   5.719   7.472  10.070 -0.9578  2.3260  3.0690
  244MOL0     H32908   5.812   7.695  10.105  0.2707 -1.6610  0.6447
  244MOL0     H32909   5.692   7.759   9.979 -1.4925  0.9997  1.8701
  244MOL0     H32910   5.639   7.798  10.220  0.9905  0.6488 -1.1654
  244MOL0     H32911   5.608   7.625  10.232 -3.6031  1.6872  1.2548
  244MOL0     H32912   5.468   7.773  10.004 -0.4881 -2.5574 -0.1228
  244MOL0     H32913   5.400   7.648  10.095  0.4055 -0.8268 -1.9049
  244MOL0     H32914   5.468   7.923  10.222  1.2207 -0.6039 -1.2848
  244MOL0     H32915   5.358   7.806  10.293 -3.7403  1.3927 -0.1860
  244MOL0     H32916   5.273   7.913  10.027  1.3539 -0.7877  0.5290
  244MOL0     H32917   5.212   7.796  10.149  0.4241  0.2721  0.1200
  244MOL0     H32918   5.168   7.990  10.299  1.6363  0.0438  0.1792
  244MOL0     H32919   5.102   8.019  10.139 -0.7182 -0.1837  1.2390
  244MOL0     H32920   5.279   8.193  10.111  0.6537 -0.3739 -0.6337
  244MOL0     H32921   5.361   8.125  10.270 -1.2908 -0.3790  2.0846
  244MOL0     H32922   5.769   7.406   9.675  0.9552  0.9524 -0.4435
  244MOL0     H32923   5.852   7.183   9.623  1.1880  1.0062 -0.1757
  244MOL0     H32924   6.088   6.891   9.597  1.8254 -1.0805 -2.5496
  244MOL0     H32925   6.208   6.725   9.472 -0.3123 -0.7039 -0.4484
  244MOL0     H32926   7.714   5.554   9.649 -1.4199 -0.3911  4.3472
  244MOL0     H32927   7.918   5.481   9.762  1.0147 -0.1032 -0.5112
  244MOL0     H32928   8.463   5.445   9.620  1.1387  0.4857  0.2947
  244MOL0     H32929   8.648   5.360   9.737 -1.5259  1.9309 -2.1181
  244MOL0     H32930   8.761   5.200  10.017  0.6733  0.4914  3.9186
  244MOL0     H32931   8.807   5.309   9.881 -0.2430  1.7488  0.4901
  244MOL0     H32932   8.985   5.277  10.094 -0.4050  0.6532 -0.6439
  244MOL0     H32933   8.880   5.372  10.178  3.8944  0.4371  2.0055
  244MOL0     H32934   9.035   5.504  10.082 -1.7046  2.2530  0.3347
  244MOL0     H32935   8.905   5.548   9.973 -0.9412 -0.3975  0.9678
  244MOL0     H32936   9.095   5.535   9.851  0.4889  0.0820 -0.9560
  244MOL0     H32937   8.981   5.398   9.808 -1.8665  1.0677  0.7783
  244MOL0     H32938   9.322   5.193   9.948 -0.2895  0.1654  3.0745
  244MOL0     H32939   8.430   5.416  10.109 -1.7976  2.8488 -0.4907
  244MOL0     H32940   8.232   5.475   9.985  0.1097 -2.9993  1.3333
  245MOL0     O32941   2.476   5.956   1.951  0.0523 -0.0503 -0.5518
  245MOL0     C32942   2.488   6.061   1.886  0.0440  0.0369 -0.1365
  245MOL0     O32943   2.393   6.157   1.861 -0.1203 -0.2211  0.0409
  245MOL0     C32944   2.261   6.143   1.875  0.8097 -0.3551 -0.3249
  245MOL0     C32945   2.201   6.267   1.876 -0.0247 -0.4744 -0.0155
  245MOL0     C32946   2.069   6.287   1.865  0.0686 -0.0048 -0.3003
  245MOL0     C32947   1.986   6.175   1.868  0.3714  0.1448  0.2335
  245MOL0     O32948   1.849   6.189   1.870  0.4714 -0.2285 -0.2703
  245MOL0     C32949   1.782   6.293   1.801 -0.6880 -0.4528  0.3564
  245MOL0     C32950   1.827   6.316   1.651 -1.0043 -0.1485  0.1437
  245MOL0     C32951   1.776   6.460   1.614 -0.8552 -0.7541  0.3648
  245MOL0     C32952   1.779   6.477   1.459  0.1792  0.1424 -0.7792
  245MOL0     C32953   1.725   6.612   1.434  0.5982 -0.5428 -0.6238
  245MOL0     C32954   1.737   6.650   1.294 -0.4186 -0.1200 -0.0191
  245MOL0     C32955   1.615   6.615   1.209 -0.2823  0.8385  0.0501
  245MOL0     C32956   1.632   6.643   1.063 -0.1629 -0.1332  0.2207
  245MOL0     N32957   1.503   6.614   0.989 -0.1011 -0.2111 -0.1438
  245MOL0     C32958   1.377   6.674   1.005  0.5992  0.9000 -0.7419
  245MOL0     C32959   1.294   6.638   0.907  0.2212  0.0352 -0.2579
  245MOL0     C32960   1.147   6.661   0.874 -0.1167 -0.2280  0.6552
  245MOL0     C32961   1.071   6.708   0.999  0.1502  0.1513 -0.2787
  245MOL0     C32962   0.923   6.773   0.978  0.0899 -0.6968  0.9835
  245MOL0     C32963   0.918   6.878   0.867  0.2213  0.2118  0.2154
  245MOL0     O32964   0.790   6.897   0.811  0.6697 -0.6185  0.9346
  245MOL0     C32965   0.707   6.970   0.889 -0.5439  0.2955 -1.2455
  245MOL0     C32966   0.723   7.112   0.888  0.6566 -0.3249  0.1793
  245MOL0     C32967   0.647   7.193   0.965  0.0137 -0.4000 -0.0486
  245MOL0     C32968   0.672   7.349   0.947  0.3170  0.2330 -0.0252
  245MOL0     C32969   0.540   7.138   1.033 -0.3553 -1.2071  0.4360
  245MOL0     C32970   0.447   7.222   1.134 -0.4988  0.1789 -0.3173
  245MOL0     O32971   0.333   7.152   1.183 -0.9296 -0.3975 -0.2257
  245MOL0     C32972   0.251   7.211   1.279  1.1258 -0.3195  0.2554
  245MOL0     C32973   0.294   7.300   1.382  0.5808 -1.2022 -0.3412
  245MOL0     C32974   0.193   7.369   1.458 -0.8520  0.1774 -0.4821
  245MOL0     C32975   0.065   7.328   1.454  0.6407 -0.3185  0.2345
  245MOL0     O32976  -0.037   7.356   1.541 -0.7356  0.0947 -0.7083
  245MOL0     C32977  -0.018   7.323   1.677 -0.1278  0.9796 -0.2236
  245MOL0     C32978  -0.136   7.357   1.771 -0.2085  0.6570 -0.1647
  245MOL0     C32979  -0.105   7.308   1.921 -0.8236 -0.4318  0.2728
  245MOL0     C32980  -0.122   7.155   1.932 -0.3777 -0.4146  0.6749
  245MOL0     C32981  -0.085   7.102   2.072  0.9056  0.4399 -0.1640
  245MOL0     C32982  -0.127   6.955   2.098 -0.4762 -0.4546 -1.1698
  245MOL0     C32983  -0.028   6.866   2.022 -0.3045 -0.2889 -1.1058
  245MOL0     C32984  -0.037   6.716   2.055  0.1059 -0.0161  0.2647
  245MOL0    Cl32985  -0.198   6.660   2.008  0.5179 -0.0668  0.1854
  245MOL0     C32986   0.018   7.237   1.364 -0.2496  0.2232  0.4210
  245MOL0     C32987   0.114   7.182   1.269  0.9389  1.1235 -0.3670
  245MOL0     O32988   0.469   7.342   1.150 -0.3975  0.6120 -0.7361
  245MOL0     C32989   0.510   7.002   1.034  0.4347 -0.3420 -0.1440
  245MOL0     C32990   0.596   6.918   0.968 -0.3544 -0.5843 -0.2470
  245MOL0     N32991   1.376   6.560   0.825 -0.6041  0.4313  0.0927
  245MOL0     N32992   1.493   6.540   0.877  0.8669  0.3260  0.2626
  245MOL0     C32993   2.039   6.050   1.875 -0.9300  0.7431 -0.5021
  245MOL0     C32994   2.182   6.030   1.875  0.0423 -0.1860  0.0858
  245MOL0     C32995   2.626   6.084   1.851 -0.5866 -0.5601  0.9313
  245MOL0     C32996   2.722   5.985   1.866 -0.2723 -0.6756 -0.2799
  245MOL0     C32997   2.850   5.989   1.815  0.0587 -1.5828  0.6160
  245MOL0     C32998   2.896   6.104   1.754  0.2068 -0.2008 -0.1123
  245MOL0     O32999   3.014   6.119   1.690 -0.0103 -0.2388  0.0027
  245MOL0     C33000   3.111   6.015   1.686  0.0868  0.3490 -0.2203
  245MOL0     C33001   3.065   5.929   1.569  0.8762  0.0629  0.3676
  245MOL0     C33002   3.098   5.972   1.434 -0.3560  0.8375 -0.5337
  245MOL0     C33003   3.162   5.863   1.354  0.5029  0.0349  0.1382
  245MOL0     C33004   3.277   5.803   1.411  0.5188 -0.0834  0.2739
  245MOL0     C33005   3.380   5.746   1.440 -0.7136 -0.1474  0.9796
  245MOL0     C33006   2.803   6.215   1.748 -0.8651  0.7523  0.3987
  245MOL0     C33007   2.665   6.197   1.787 -1.5456  0.4408  0.5033
  245MOL0     H33008   2.262   6.357   1.870  0.7642 -0.9940  0.0723
  245MOL0     H33009   2.029   6.388   1.875 -2.7217 -0.8661 -1.7018
  245MOL0     H33010   1.674   6.283   1.815 -1.0283  2.1317  0.0500
  245MOL0     H33011   1.805   6.386   1.853 -1.7740  0.6866 -1.0902
  245MOL0     H33012   1.935   6.308   1.635 -0.9341  1.6405 -0.4486
  245MOL0     H33013   1.778   6.245   1.584  0.5696  0.2126 -1.4743
  245MOL0     H33014   1.673   6.477   1.645 -0.5677  1.2877  0.3600
  245MOL0     H33015   1.845   6.529   1.664  1.8516 -4.3424  2.1038
  245MOL0     H33016   1.882   6.468   1.422  0.7095 -0.5373  0.7740
  245MOL0     H33017   1.713   6.404   1.412 -0.6044 -0.0810  0.6129
  245MOL0     H33018   1.622   6.623   1.468  1.4675 -0.8216  2.4384
  245MOL0     H33019   1.785   6.689   1.484  0.1793  0.9268 -2.3170
  245MOL0     H33020   1.748   6.759   1.286 -0.1205 -0.1147  0.4469
  245MOL0     H33021   1.830   6.611   1.252  0.8244 -0.1058  2.5318
  245MOL0     H33022   1.586   6.510   1.224  1.3445  0.3113 -0.2670
  245MOL0     H33023   1.532   6.672   1.251 -1.3398 -1.3843  1.1407
  245MOL0     H33024   1.713   6.581   1.023  0.1528 -0.6260  1.5470
  245MOL0     H33025   1.650   6.749   1.043 -2.8543  0.1992 -0.7927
  245MOL0     H33026   1.358   6.745   1.086  1.2467  0.5663 -0.2889
  245MOL0     H33027   1.146   6.739   0.797  2.2875 -0.3976  0.3662
  245MOL0     H33028   1.105   6.564   0.846 -1.0239 -0.4899  2.7078
  245MOL0     H33029   1.136   6.783   1.046  2.1509 -1.1401 -0.8763
  245MOL0     H33030   1.059   6.637   1.081  1.7686  1.0498  0.7870
  245MOL0     H33031   0.894   6.824   1.070  3.0553  3.9097 -0.2933
  245MOL0     H33032   0.848   6.698   0.954 -0.6050  0.2239  0.2023
  245MOL0     H33033   0.981   6.842   0.785 -1.0393 -5.1603  1.2503
  245MOL0     H33034   0.960   6.972   0.904 -1.1532  0.5825  0.8995
  245MOL0     H33035   0.808   7.158   0.837 -1.8436  4.0318 -0.5006
  245MOL0     H33036   0.574   7.392   0.920  0.1017  1.7052  2.7199
  245MOL0     H33037   0.706   7.384   1.045 -1.1038 -0.7760  0.8721
  245MOL0     H33038   0.752   7.388   0.884 -1.9639  3.2256 -1.3553
  245MOL0     H33039   0.401   7.315   1.393  0.4069  1.2229 -1.3425
  245MOL0     H33040   0.219   7.440   1.535 -0.6235  0.0166 -0.4093
  245MOL0     H33041   0.014   7.218   1.682  1.4668  1.4681  0.8289
  245MOL0     H33042   0.068   7.380   1.714  0.1671  1.6557 -1.8900
  245MOL0     H33043  -0.142   7.466   1.763  3.3117  0.8164 -3.4057
  245MOL0     H33044  -0.232   7.316   1.738 -1.9264  0.8669  4.0009
  245MOL0     H33045  -0.165   7.357   1.998  1.6971  1.1906  1.3448
  245MOL0     H33046  -0.003   7.344   1.940  0.0785 -1.4226 -2.2360
  245MOL0     H33047  -0.229   7.134   1.921 -1.3363  2.3005  3.3313
  245MOL0     H33048  -0.072   7.090   1.860 -0.4230  1.1284 -0.8117
  245MOL0     H33049  -0.134   7.168   2.144 -2.2781  0.8647 -2.5094
  245MOL0     H33050   0.024   7.112   2.077  1.5266 -4.0183 -0.9881
  245MOL0     H33051  -0.140   6.931   2.204 -1.2158 -0.2382 -1.2064
  245MOL0     H33052  -0.231   6.937   2.071 -1.3576  0.8112  1.0536
  245MOL0     H33053   0.073   6.908   2.036 -1.8409  3.5589 -0.3965
  245MOL0     H33054  -0.046   6.861   1.915 -0.2068 -3.2167 -1.0764
  245MOL0     H33055  -0.046   6.703   2.163 -3.1869  0.2901  0.1293
  245MOL0     H33056   0.046   6.661   2.011 -1.3685 -2.1442 -0.0087
  245MOL0     H33057  -0.085   7.201   1.364 -0.3318  0.4119  1.4495
  245MOL0     H33058   0.078   7.122   1.186  1.5909 -1.2232  0.9563
  245MOL0     H33059   0.431   6.955   1.092  0.9359 -0.8280  0.1650
  245MOL0     H33060   0.569   6.814   0.953  0.4555 -0.9403  0.6016
  245MOL0     H33061   1.976   5.961   1.876  1.3184 -0.9542 -1.2755
  245MOL0     H33062   2.240   5.938   1.883  0.9794  0.4617  1.0242
  245MOL0     H33063   2.688   5.892   1.910 -0.3950 -1.2052 -1.4598
  245MOL0     H33064   2.909   5.899   1.830 -0.8058 -2.6294 -1.6997
  245MOL0     H33065   3.212   6.057   1.676 -0.3554  1.7593  0.8381
  245MOL0     H33066   3.104   5.962   1.782 -1.9247  2.9574  1.2159
  245MOL0     H33067   2.958   5.915   1.583  0.5898  1.2714 -0.4801
  245MOL0     H33068   3.105   5.829   1.586  0.6465  0.1546  1.5641
  245MOL0     H33069   3.177   6.047   1.441  0.4155  0.1150 -1.3043
  245MOL0     H33070   3.016   6.022   1.382  2.0997  4.5305 -1.2143
  245MOL0     H33071   3.188   5.912   1.260  0.5418  0.1076  0.1861
  245MOL0     H33072   3.084   5.787   1.351 -1.0633  1.5474  0.5790
  245MOL0     H33073   3.469   5.687   1.449 -0.2186  0.1182 -1.5669
  245MOL0     H33074   2.832   6.306   1.697  4.1430 -0.5366  0.4390
  245MOL0     H33075   2.597   6.264   1.737  0.0944  2.2296  0.5241
  246MOL0     O33076   9.226   6.768   8.449  0.5239 -0.0057  0.0177
  246MOL0     C33077   9.316   6.771   8.366 -0.1303  0.2392  0.0319
  246MOL0     O33078   9.306   6.733   8.233 -0.3328  0.0195  0.6497
  246MOL0     C33079   9.190   6.684   8.186 -0.2478  0.1384 -0.4186
  246MOL0     C33080   9.188   6.550   8.138  0.8668  0.1698  1.0698
  246MOL0     C33081   9.062   6.502   8.097  0.0257 -0.2683  0.8023
  246MOL0     C33082   8.946   6.578   8.104 -0.1561 -0.0235 -0.3116
  246MOL0     O33083   8.820   6.548   8.050  0.0752  1.0943 -0.3179
  246MOL0     C33084   8.776   6.414   8.048 -0.2541 -0.1349 -0.1914
  246MOL0     C33085   8.628   6.414   8.084 -0.2968 -0.6929  1.2690
  246MOL0     C33086   8.591   6.287   8.152 -0.2499  1.0537  0.6447
  246MOL0     C33087   8.443   6.243   8.172  0.0586  0.3610  0.6284
  246MOL0     C33088   8.369   6.239   8.032  0.4922  0.2111 -0.1273
  246MOL0     C33089   8.221   6.181   8.037  0.3295 -0.8581  0.5050
  246MOL0     C33090   8.120   6.259   8.117  0.4760  0.6360 -0.2732
  246MOL0     C33091   8.108   6.400   8.062 -0.1845 -0.0432 -0.3057
  246MOL0     N33092   8.087   6.411   7.919  0.1172  1.1155  0.7150
  246MOL0     C33093   7.988   6.346   7.844 -0.3910 -0.3241  0.5061
  246MOL0     C33094   7.988   6.412   7.725  0.8141 -0.2586 -0.1598
  246MOL0     C33095   7.890   6.381   7.613  0.0321  0.5496  0.0291
  246MOL0     C33096   7.740   6.382   7.662 -0.4536  0.6138 -0.3079
  246MOL0     C33097   7.639   6.344   7.551 -0.1138  0.7239  0.2958
  246MOL0     C33098   7.496   6.374   7.599  0.1344  0.3992  0.4521
  246MOL0     O33099   7.408   6.324   7.499  0.7615  0.5405 -0.5649
  246MOL0     C33100   7.267   6.319   7.518 -0.2122 -0.9985 -0.2862
  246MOL0     C33101   7.201   6.363   7.636 -0.1541  0.7215 -0.3918
  246MOL0     C33102   7.058   6.356   7.644  0.8947 -0.0139 -0.4937
  246MOL0     C33103   6.999   6.389   7.781  0.0944  0.1560  0.2493
  246MOL0     C33104   6.976   6.303   7.535 -0.3517  0.0378 -0.2395
  246MOL0     C33105   6.831   6.284   7.530  0.2933  0.7618 -1.0751
  246MOL0     O33106   6.775   6.277   7.406 -0.0752  0.3860  0.2179
  246MOL0     C33107   6.635   6.248   7.388  0.2602  1.3079 -0.7760
  246MOL0     C33108   6.556   6.318   7.294 -0.6101 -0.3712  0.0526
  246MOL0     C33109   6.418   6.294   7.295  0.5041  0.5909 -0.4940
  246MOL0     C33110   6.352   6.198   7.365  0.5683 -0.1321  0.0872
  246MOL0     O33111   6.214   6.196   7.361  0.4002  0.3614  0.1309
  246MOL0     C33112   6.150   6.105   7.459  0.5286 -0.2903  0.7359
  246MOL0     C33113   5.993   6.114   7.439 -0.1724 -0.0058 -0.5259
  246MOL0     C33114   5.896   5.998   7.493 -0.1854 -0.3542 -1.6324
  246MOL0     C33115   5.749   6.004   7.445 -0.0731  0.7207 -0.1622
  246MOL0     C33116   5.660   5.937   7.547  0.6853  0.7934 -0.1382
  246MOL0     C33117   5.514   5.944   7.513  0.0610 -1.0896  0.1085
  246MOL0     C33118   5.476   5.876   7.377 -0.1839 -0.5885  0.4241
  246MOL0     C33119   5.338   5.907   7.325  0.6995 -0.9231  0.2406
  246MOL0    Cl33120   5.323   6.078   7.278 -0.3968  0.1041 -0.3279
  246MOL0     C33121   6.433   6.120   7.459  0.0074 -0.2625 -0.3504
  246MOL0     C33122   6.572   6.150   7.463  0.9289  0.2775 -0.4207
  246MOL0     O33123   6.772   6.293   7.641 -0.8271  0.2661 -0.3369
  246MOL0     C33124   7.052   6.272   7.424  0.4506  1.1129  0.3502
  246MOL0     C33125   7.189   6.281   7.412 -0.3320 -0.5589 -0.4527
  246MOL0     N33126   8.077   6.516   7.732 -0.7572 -0.8962 -0.6471
  246MOL0     N33127   8.134   6.514   7.848 -0.0129  0.9000 -0.7684
  246MOL0     C33128   8.955   6.710   8.144  0.5773  0.2728 -0.2788
  246MOL0     C33129   9.080   6.763   8.180  0.4743  0.2748  0.8219
  246MOL0     C33130   9.455   6.803   8.416 -0.9817  0.6287  0.4801
  246MOL0     C33131   9.555   6.811   8.319  1.0857 -0.3690  0.5934
  246MOL0     C33132   9.688   6.819   8.363 -0.5208  0.2883  0.1811
  246MOL0     C33133   9.720   6.848   8.492  0.6776 -1.1926 -0.5976
  246MOL0     O33134   9.852   6.876   8.519 -0.0446  0.6863  0.8702
  246MOL0     C33135   9.884   6.890   8.657 -0.2230 -0.3249 -0.3462
  246MOL0     C33136  10.022   6.953   8.682 -0.7148  0.4951 -0.4806
  246MOL0     C33137  10.052   6.961   8.832  0.5546  0.2872  0.2612
  246MOL0     C33138  10.195   7.005   8.878 -1.0605  0.1769  0.5817
  246MOL0     C33139  10.223   7.148   8.840 -0.1982 -0.0114 -0.0856
  246MOL0     C33140  10.257   7.257   8.791  0.0660 -0.6576 -0.1125
  246MOL0     C33141   9.615   6.859   8.581  0.4065  0.0788  0.0129
  246MOL0     C33142   9.485   6.826   8.550 -0.3911 -0.2785 -0.0667
  246MOL0     H33143   9.275   6.486   8.149  2.7637  2.4327  0.0987
  246MOL0     H33144   9.040   6.401   8.062 -0.4595 -0.3962  1.4604
  246MOL0     H33145   8.798   6.370   7.950 -0.1604  1.9936 -1.1831
  246MOL0     H33146   8.835   6.349   8.114  0.5233 -0.5795 -1.2921
  246MOL0     H33147   8.599   6.507   8.134 -0.6618  0.4311 -0.9464
  246MOL0     H33148   8.578   6.434   7.989  1.8252  0.6238  0.3464
  246MOL0     H33149   8.648   6.203   8.110 -0.5209  0.6771  1.0308
  246MOL0     H33150   8.629   6.306   8.253  1.0128 -0.7985  0.5722
  246MOL0     H33151   8.427   6.142   8.213 -0.0053  0.5707  1.1192
  246MOL0     H33152   8.383   6.301   8.242 -0.3795 -0.4058  0.8989
  246MOL0     H33153   8.377   6.324   7.963  1.0385 -1.7570 -2.6327
  246MOL0     H33154   8.418   6.161   7.973  1.7133 -1.5823  3.0651
  246MOL0     H33155   8.194   6.165   7.932  1.3856 -2.5482  0.4430
  246MOL0     H33156   8.210   6.084   8.087 -2.2943 -1.0514 -0.2843
  246MOL0     H33157   8.025   6.205   8.114  1.2317 -0.9087  1.4450
  246MOL0     H33158   8.146   6.266   8.223  0.9015 -1.1654 -0.2186
  246MOL0     H33159   8.196   6.459   8.091 -0.1894 -0.5134  0.7054
  246MOL0     H33160   8.012   6.426   8.107 -1.2104  2.3110 -3.4903
  246MOL0     H33161   7.943   6.251   7.868 -2.0343  0.0022 -1.0354
  246MOL0     H33162   7.911   6.453   7.534  2.1382  1.6650  1.4839
  246MOL0     H33163   7.910   6.283   7.569 -1.5788 -0.9352  2.3900
  246MOL0     H33164   7.723   6.484   7.698 -0.6424  0.2147  0.7876
  246MOL0     H33165   7.733   6.319   7.752  1.1060  1.1253  0.1917
  246MOL0     H33166   7.642   6.236   7.536  0.8274  0.0958  3.9264
  246MOL0     H33167   7.666   6.396   7.459  1.3002  0.4668  0.5382
  246MOL0     H33168   7.473   6.480   7.607 -2.9894 -0.1298 -0.1945
  246MOL0     H33169   7.467   6.334   7.696 -1.1702  0.7474  0.2217
  246MOL0     H33170   7.252   6.395   7.727 -1.8867  1.4467  0.3741
  246MOL0     H33171   6.997   6.291   7.828 -2.1126 -0.8851 -1.7752
  246MOL0     H33172   7.063   6.457   7.838  1.7839 -0.8165 -0.4253
  246MOL0     H33173   6.899   6.433   7.775 -0.3251 -0.9139 -1.1778
  246MOL0     H33174   6.610   6.390   7.233 -1.2953 -0.3710 -0.5635
  246MOL0     H33175   6.362   6.362   7.233  0.4740  1.2754  0.2723
  246MOL0     H33176   6.183   6.001   7.449  0.6364 -0.0395 -2.5192
  246MOL0     H33177   6.175   6.126   7.563  0.3692 -0.1945  0.7545
  246MOL0     H33178   5.946   6.204   7.477 -1.3030  0.3091 -2.5123
  246MOL0     H33179   5.967   6.111   7.333  4.7539 -0.0400 -1.9905
  246MOL0     H33180   5.903   6.011   7.601 -0.6846  0.1353 -1.6555
  246MOL0     H33181   5.936   5.898   7.474  1.7704  0.0501  0.0853
  246MOL0     H33182   5.709   6.105   7.455  2.3727  1.7319  0.0307
  246MOL0     H33183   5.738   5.982   7.338 -4.9519 -0.6688  0.3948
  246MOL0     H33184   5.676   5.989   7.643  0.2487 -0.6500  0.7440
  246MOL0     H33185   5.689   5.834   7.571  1.3152  0.6703 -1.3597
  246MOL0     H33186   5.462   5.891   7.593 -0.7824  1.9376  1.7221
  246MOL0     H33187   5.489   6.050   7.519  3.1210 -0.2939  0.6852
  246MOL0     H33188   5.470   5.768   7.391  1.3378 -0.7873 -0.2220
  246MOL0     H33189   5.548   5.910   7.302  1.3513 -1.0359  1.6416
  246MOL0     H33190   5.276   5.878   7.411 -0.6639 -1.2859 -0.8362
  246MOL0     H33191   5.302   5.847   7.241  0.2340  1.0459 -1.0494
  246MOL0     H33192   6.393   6.048   7.529 -1.3317 -1.1909 -1.9770
  246MOL0     H33193   6.627   6.084   7.529 -0.0692  1.7040  1.9368
  246MOL0     H33194   7.003   6.242   7.332 -0.6182  1.9581  0.6260
  246MOL0     H33195   7.236   6.247   7.320 -2.3497 -0.8455 -1.4250
  246MOL0     H33196   8.865   6.766   8.164  0.0633  0.1425 -2.0235
  246MOL0     H33197   9.095   6.866   8.212  1.4246  0.1824  0.6890
  246MOL0     H33198   9.530   6.814   8.213  0.5927 -2.2965  0.6172
  246MOL0     H33199   9.771   6.831   8.294  1.2921 -0.4507  2.1140
  246MOL0     H33200   9.810   6.963   8.691  0.2143  0.6524 -1.4316
  246MOL0     H33201   9.872   6.798   8.714  0.1071  0.3152  0.7901
  246MOL0     H33202  10.008   7.058   8.657  0.0725  1.7551  3.5658
  246MOL0     H33203  10.100   6.915   8.616  0.3158  1.2358  0.2712
  246MOL0     H33204  10.026   6.863   8.873  0.7371 -0.0823 -0.4871
  246MOL0     H33205   9.983   7.036   8.870 -0.3442  0.3948 -1.4818
  246MOL0     H33206  10.265   6.948   8.817 -1.6931  2.7766 -2.9507
  246MOL0     H33207  10.218   6.992   8.984  0.3056  2.6578  0.6644
  246MOL0     H33208  10.276   7.358   8.759 -0.5958 -0.2431  0.7619
  246MOL0     H33209   9.629   6.862   8.689 -0.4827 -2.4949  0.2604
  246MOL0     H33210   9.411   6.835   8.629 -0.7693  0.6763 -0.5104
  247MOL0     O33211  10.699   5.225   3.292  0.5019  0.0471  0.2673
  247MOL0     C33212  10.651   5.197   3.407 -0.0479  0.0695 -0.0332
  247MOL0     O33213  10.711   5.108   3.493  0.5315  0.0397  0.4810
  247MOL0     C33214  10.825   5.050   3.449 -0.4078  0.4326  0.1255
  247MOL0     C33215  10.937   5.080   3.522  0.2313  0.5407  0.7062
  247MOL0     C33216  11.061   5.022   3.484  0.9633 -0.0333 -0.0589
  247MOL0     C33217  11.069   4.942   3.368  0.2780  0.4105  0.2709
  247MOL0     O33218  11.193   4.879   3.347  0.0179 -0.6645 -0.9261
  247MOL0     C33219  11.193   4.763   3.268  0.0836  0.7396  0.5625
  247MOL0     C33220  11.334   4.703   3.266 -0.2302 -0.5072  0.3705
  247MOL0     C33221  11.380   4.670   3.404 -0.1780  0.7570 -0.9717
  247MOL0     C33222  11.527   4.624   3.405 -0.3876 -0.7572  0.1445
  247MOL0     C33223  11.625   4.747   3.384  0.9745  0.2801 -0.0291
  247MOL0     C33224  11.764   4.717   3.428 -0.5236 -0.3575  0.5085
  247MOL0     C33225  11.860   4.833   3.386 -0.3438  0.4495  0.1685
  247MOL0     C33226  11.998   4.771   3.406  0.4697 -0.3394 -0.4289
  247MOL0     N33227  12.102   4.872   3.393  0.2935 -0.3630 -0.4083
  247MOL0     C33228  12.124   4.970   3.487  0.3774 -0.4056  0.3583
  247MOL0     C33229  12.213   5.046   3.423  0.5635 -0.4569 -0.9892
  247MOL0     C33230  12.288   5.162   3.482 -0.4979  0.5401 -0.6000
  247MOL0     C33231  12.435   5.112   3.500  0.0443 -0.3921 -0.0944
  247MOL0     C33232  12.531   5.237   3.535  0.1015 -0.2206  0.0119
  247MOL0     C33233  12.657   5.180   3.597  0.4906 -0.3392 -0.3788
  247MOL0     O33234  12.726   5.092   3.506 -0.7698 -0.3802 -0.2044
  247MOL0     C33235  12.860   5.060   3.534  0.4145  0.5764  1.0381
  247MOL0     C33236  12.931   5.009   3.421 -0.0080 -0.5079 -0.4867
  247MOL0     C33237  13.065   4.978   3.433 -0.1363 -0.7889  0.0856
  247MOL0     C33238  13.133   4.921   3.311 -0.0709  0.3481  0.2765
  247MOL0     C33239  13.134   5.004   3.555 -0.8713 -0.3252 -0.1823
  247MOL0     C33240  13.280   4.991   3.571 -0.1384  0.4167  0.1403
  247MOL0     O33241  13.356   4.898   3.499  0.3924  0.2068  0.0078
  247MOL0     C33242  13.495   4.886   3.498  0.7515  0.4418 -0.0450
  247MOL0     C33243  13.539   4.776   3.431  1.0110  0.7242 -0.1449
  247MOL0     C33244  13.677   4.757   3.424  1.1951  0.7881  0.5449
  247MOL0     C33245  13.766   4.833   3.496 -0.0919 -0.4054  0.0877
  247MOL0     O33246  13.897   4.800   3.497  0.2758  0.6029  0.7038
  247MOL0     C33247  13.998   4.872   3.565 -0.0876  0.2210  0.2529
  247MOL0     C33248  14.040   4.991   3.481  0.1573 -1.2060  0.3330
  247MOL0     C33249  14.111   4.970   3.353  0.0078  0.1499  0.7585
  247MOL0     C33250  14.228   5.069   3.343 -0.1042 -0.0270  0.0129
  247MOL0     C33251  14.327   5.041   3.228  0.2671 -0.6239 -0.3215
  247MOL0     C33252  14.467   5.090   3.241 -0.1282  1.1074 -0.2904
  247MOL0     C33253  14.563   5.007   3.149  0.4080  0.1122 -0.1081
  247MOL0     C33254  14.699   5.042   3.209  0.0592 -0.2938 -0.4101
  247MOL0    Cl33255  14.743   4.896   3.301  0.4693  0.4271 -0.0461
  247MOL0     C33256  13.715   4.938   3.581  0.5997  0.7990 -0.2036
  247MOL0     C33257  13.577   4.952   3.584 -0.0894 -0.0569 -0.8305
  247MOL0     O33258  13.322   5.063   3.655  0.2401  0.6851 -0.7792
  247MOL0     C33259  13.059   5.056   3.665  0.1294 -0.2143  0.3266
  247MOL0     C33260  12.920   5.075   3.658 -0.1827  0.0892  0.7136
  247MOL0     N33261  12.243   5.003   3.299  0.2903 -0.7794 -0.3420
  247MOL0     N33262  12.178   4.894   3.280  0.0149 -0.5961  0.0597
  247MOL0     C33263  10.955   4.910   3.293  0.5467  0.3982  0.1500
  247MOL0     C33264  10.832   4.971   3.330 -0.4419 -0.0934 -0.0592
  247MOL0     C33265  10.550   5.284   3.463  0.1113 -0.0330 -0.2306
  247MOL0     C33266  10.480   5.381   3.388 -0.2146 -0.0958  0.1437
  247MOL0     C33267  10.357   5.427   3.440  0.2346  0.0824 -0.0146
  247MOL0     C33268  10.306   5.397   3.563  1.1093 -0.9838  0.4966
  247MOL0     O33269  10.190   5.452   3.604 -0.2001  0.5972  0.0119
  247MOL0     C33270  10.112   5.379   3.701  0.4250  0.8231 -0.4477
  247MOL0     C33271  10.131   5.425   3.846 -0.5598 -0.6610 -0.4445
  247MOL0     C33272  10.037   5.540   3.882  0.0184 -0.3364  0.5059
  247MOL0     C33273   9.901   5.494   3.909  0.1866 -0.1217  1.5870
  247MOL0     C33274   9.810   5.608   3.915  1.0652  0.2009 -0.6702
  247MOL0     C33275   9.727   5.688   3.959  0.4676  0.2515 -0.0684
  247MOL0     C33276  10.377   5.302   3.644 -0.7087 -0.1205 -0.4571
  247MOL0     C33277  10.498   5.250   3.593  0.3915  0.9690  0.7860
  247MOL0     H33278  10.935   5.142   3.611 -0.1752  2.0399 -0.2968
  247MOL0     H33279  11.152   5.047   3.537 -0.2260  0.5950  1.8101
  247MOL0     H33280  11.118   4.692   3.304 -0.2107  0.9667  0.3966
  247MOL0     H33281  11.168   4.788   3.165  0.8739 -1.6677 -0.2834
  247MOL0     H33282  11.322   4.613   3.204 -1.9870 -0.5179  0.6805
  247MOL0     H33283  11.405   4.771   3.220  0.9771 -0.8467  1.6718
  247MOL0     H33284  11.357   4.756   3.467 -0.4497  0.0704 -0.1241
  247MOL0     H33285  11.323   4.582   3.435  2.2617 -0.9714 -1.0873
  247MOL0     H33286  11.561   4.575   3.497  1.4064  0.1666  0.0337
  247MOL0     H33287  11.536   4.540   3.336  0.6600  0.5074 -1.3359
  247MOL0     H33288  11.625   4.778   3.279 -0.7664 -0.2437 -0.2277
  247MOL0     H33289  11.588   4.832   3.442  0.4945 -0.6265  1.0352
  247MOL0     H33290  11.773   4.696   3.536 -2.0837  1.9416  1.1616
  247MOL0     H33291  11.795   4.621   3.386 -1.3116 -1.3313  2.0267
  247MOL0     H33292  11.838   4.857   3.281  0.7894  0.9516  0.0294
  247MOL0     H33293  11.846   4.926   3.441 -0.2168  1.6404 -1.7432
  247MOL0     H33294  12.013   4.701   3.324 -1.5442  1.5148 -2.5491
  247MOL0     H33295  12.015   4.712   3.496  1.9303  1.1613  0.3428
  247MOL0     H33296  12.078   4.975   3.585 -1.7906  2.7085 -0.6307
  247MOL0     H33297  12.296   5.239   3.404  0.8938  0.3291 -0.6965
  247MOL0     H33298  12.245   5.203   3.573 -0.0965  1.3431 -0.7627
  247MOL0     H33299  12.470   5.062   3.410 -0.0088  0.7904 -0.7866
  247MOL0     H33300  12.435   5.043   3.586 -0.7419 -0.7903 -0.3934
  247MOL0     H33301  12.480   5.302   3.607  0.7195 -0.8844  1.0795
  247MOL0     H33302  12.556   5.291   3.443 -1.1559  0.7971  0.2326
  247MOL0     H33303  12.637   5.118   3.686  1.2046 -1.7152 -1.1460
  247MOL0     H33304  12.720   5.264   3.628 -1.5082  1.5413 -1.2211
  247MOL0     H33305  12.872   5.015   3.330 -0.6375  2.3256 -0.0068
  247MOL0     H33306  13.215   4.986   3.279  0.0617 -0.3703 -0.8945
  247MOL0     H33307  13.168   4.819   3.330  2.5506  1.0377 -0.4833
  247MOL0     H33308  13.074   4.914   3.219  0.9210  1.2336 -0.4474
  247MOL0     H33309  13.469   4.715   3.375  1.0599 -0.6409  1.2185
  247MOL0     H33310  13.723   4.682   3.361  0.3345  0.4810  0.2615
  247MOL0     H33311  13.965   4.911   3.662  0.6519  0.8151  0.2753
  247MOL0     H33312  14.089   4.814   3.583  3.8572  5.7470  1.0134
  247MOL0     H33313  13.950   5.043   3.446  2.0300  0.5747 -2.1605
  247MOL0     H33314  14.092   5.062   3.547 -1.0628 -0.6614  0.7398
  247MOL0     H33315  14.042   4.974   3.268 -1.2362 -1.0507  1.6883
  247MOL0     H33316  14.151   4.869   3.356 -1.4535 -0.4114  1.8886
  247MOL0     H33317  14.189   5.171   3.338  3.4117  1.4301 -0.8374
  247MOL0     H33318  14.290   5.082   3.432 -0.4722  3.7504 -0.1284
  247MOL0     H33319  14.285   5.079   3.135  4.3514  0.5105 -1.9604
  247MOL0     H33320  14.329   4.932   3.216 -0.2456 -1.3305  4.2021
  247MOL0     H33321  14.478   5.197   3.219 -0.7413  1.2690  0.1864
  247MOL0     H33322  14.506   5.071   3.341  0.8395  1.7513 -0.5266
  247MOL0     H33323  14.554   5.029   3.042 -0.3186 -0.4821 -0.1773
  247MOL0     H33324  14.537   4.904   3.172 -2.2463  0.9664  1.0532
  247MOL0     H33325  14.692   5.123   3.282  2.1309 -1.3597  1.1030
  247MOL0     H33326  14.768   5.065   3.127  0.4239 -0.5446 -0.1760
  247MOL0     H33327  13.780   5.011   3.629  0.3455 -1.2921  3.7053
  247MOL0     H33328  13.542   5.045   3.626  1.1311  0.2046 -0.3485
  247MOL0     H33329  13.105   5.052   3.763 -2.2484  1.4631  1.6095
  247MOL0     H33330  12.868   5.093   3.752 -1.0843  0.6029  0.1277
  247MOL0     H33331  10.952   4.855   3.199  0.9460 -0.7048  0.7655
  247MOL0     H33332  10.751   4.961   3.259  0.9537 -1.1839 -1.5687
  247MOL0     H33333  10.512   5.406   3.287 -2.0623  0.0607 -0.4423
  247MOL0     H33334  10.289   5.492   3.386 -0.0548  0.5601  0.9139
  247MOL0     H33335  10.005   5.382   3.677  0.7194 -0.9045 -2.2013
  247MOL0     H33336  10.124   5.271   3.701 -0.0971  0.7011  2.0142
  247MOL0     H33337  10.227   5.475   3.861 -1.3382  1.3073 -1.5882
  247MOL0     H33338  10.125   5.339   3.913 -0.8565 -1.0725 -0.9866
  247MOL0     H33339  10.044   5.612   3.800 -0.8062  0.3651  1.0329
  247MOL0     H33340  10.079   5.591   3.969  0.9091 -0.1322 -0.0379
  247MOL0     H33341   9.899   5.432   4.000  3.6305 -1.5294  0.8924
  247MOL0     H33342   9.864   5.431   3.828  3.7516 -2.6786  1.6598
  247MOL0     H33343   9.653   5.742   4.015  0.8652 -0.3095  1.0271
  247MOL0     H33344  10.342   5.277   3.743 -2.4558 -0.1096 -1.0313
  247MOL0     H33345  10.547   5.166   3.641  0.8842 -1.2849 -3.1626
  248MOL0     O33346  11.119   5.909   0.914  0.1901 -0.6022 -0.7719
  248MOL0     C33347  11.133   5.822   1.004  0.0180 -0.3682 -0.8035
  248MOL0     O33348  11.036   5.751   1.061  0.2922 -0.6033 -0.6017
  248MOL0     C33349  10.920   5.738   0.992  0.1043 -0.0042 -0.4567
  248MOL0     C33350  10.901   5.728   0.848 -0.6634  0.3624  0.2979
  248MOL0     C33351  10.773   5.699   0.800  0.3614 -0.4444 -0.4107
  248MOL0     C33352  10.664   5.682   0.891  0.1608  0.5828  0.0166
  248MOL0     O33353  10.539   5.657   0.833  0.3061 -0.1286  0.0064
  248MOL0     C33354  10.436   5.621   0.924 -0.5448  0.0415  0.3970
  248MOL0     C33355  10.316   5.578   0.843  0.3923  0.8686  0.7798
  248MOL0     C33356  10.220   5.499   0.932 -1.3864  0.2901  0.1522
  248MOL0     C33357  10.072   5.493   0.872  0.2719 -0.1914  0.0357
  248MOL0     C33358   9.971   5.416   0.955  0.7575  0.8367 -0.4247
  248MOL0     C33359   9.832   5.395   0.904  0.4940  0.1392  0.0555
  248MOL0     C33360   9.826   5.292   0.791  0.5802  0.0077  1.3760
  248MOL0     C33361   9.682   5.265   0.749  0.4497 -0.2331 -0.3127
  248MOL0     N33362   9.656   5.143   0.672 -0.0933 -0.6145 -0.6261
  248MOL0     C33363   9.576   5.041   0.718  0.5223 -0.5432 -0.5818
  248MOL0     C33364   9.594   4.943   0.628 -0.6121 -0.5823 -0.3536
  248MOL0     C33365   9.556   4.803   0.614  0.4806  0.8895 -0.4208
  248MOL0     C33366   9.452   4.782   0.506  0.4511  0.3566 -0.3098
  248MOL0     C33367   9.394   4.643   0.511  0.2975  0.5066  0.1620
  248MOL0     C33368   9.268   4.612   0.437  0.6811 -0.8327 -0.5483
  248MOL0     O33369   9.246   4.472   0.462  0.8170 -0.2236  0.0690
  248MOL0     C33370   9.148   4.407   0.394  0.3769  0.5736 -0.0352
  248MOL0     C33371   9.132   4.269   0.424  0.2617 -0.1460  0.6587
  248MOL0     C33372   9.018   4.197   0.381 -0.4060 -0.3021 -0.1106
  248MOL0     C33373   8.983   4.062   0.440  0.4738  0.4429  0.7522
  248MOL0     C33374   8.928   4.261   0.289  0.2027  0.6532  0.2313
  248MOL0     C33375   8.793   4.206   0.253  0.3004 -0.0896  0.0347
  248MOL0     O33376   8.692   4.295   0.263  0.2956  0.1553 -0.0293
  248MOL0     C33377   8.557   4.274   0.232 -0.5514 -0.1397 -0.3250
  248MOL0     C33378   8.488   4.157   0.276 -0.0679 -0.6582  0.3163
  248MOL0     C33379   8.349   4.137   0.248 -1.0202 -1.1092 -0.5847
  248MOL0     C33380   8.273   4.228   0.172 -0.1049  0.3220 -0.0816
  248MOL0     O33381   8.137   4.224   0.140 -0.4604  0.3479 -0.3433
  248MOL0     C33382   8.049   4.202   0.250 -0.4953 -0.2036 -0.9159
  248MOL0     C33383   7.910   4.183   0.211 -0.2321  0.4591 -0.5443
  248MOL0     C33384   7.850   4.322   0.171 -0.0483 -0.6676 -0.6112
  248MOL0     C33385   7.700   4.310   0.189  1.0409 -0.3678 -0.6137
  248MOL0     C33386   7.627   4.432   0.130  1.5399 -0.0573 -0.2418
  248MOL0     C33387   7.489   4.467   0.201 -0.1746  0.4477 -0.0852
  248MOL0     C33388   7.388   4.355   0.160  0.1191  0.7250 -0.1009
  248MOL0     C33389   7.242   4.404   0.153 -0.3319 -1.0580  0.0486
  248MOL0    Cl33390   7.200   4.511   0.018 -0.0183  0.2406  0.0315
  248MOL0     C33391   8.338   4.340   0.130  0.1009 -0.2171  0.1420
  248MOL0     C33392   8.473   4.364   0.165  0.1551  0.0829 -0.0281
  248MOL0     O33393   8.781   4.094   0.209 -0.6464  0.9317 -0.6012
  248MOL0     C33394   8.952   4.394   0.254 -0.1147  0.0844  0.4655
  248MOL0     C33395   9.059   4.470   0.304 -0.7350 -0.3519  0.0102
  248MOL0     N33396   9.688   4.987   0.539  0.2019 -0.3632 -0.6817
  248MOL0     N33397   9.725   5.104   0.558 -0.9525 -0.6295 -0.0530
  248MOL0     C33398  10.682   5.694   1.025  0.1591 -0.1544  0.2144
  248MOL0     C33399  10.809   5.732   1.072 -0.9471  0.3756 -0.0343
  248MOL0     C33400  11.261   5.797   1.069 -0.2908  0.0909 -0.6620
  248MOL0     C33401  11.278   5.694   1.176 -0.4486  0.7662  0.6736
  248MOL0     C33402  11.387   5.701   1.253 -0.4989  0.4544  0.0749
  248MOL0     C33403  11.494   5.783   1.227 -0.4354 -0.2528  0.3000
  248MOL0     O33404  11.614   5.797   1.287 -0.2744  0.1943  0.4002
  248MOL0     C33405  11.643   5.741   1.415 -0.1721  0.6770  0.2022
  248MOL0     C33406  11.714   5.850   1.507 -0.0076  0.0121 -0.1862
  248MOL0     C33407  11.668   5.995   1.493  0.6023 -0.1139 -0.3422
  248MOL0     C33408  11.756   6.100   1.570 -0.9938 -0.3823  0.3891
  248MOL0     C33409  11.776   6.073   1.711  0.9267 -0.7052 -0.1451
  248MOL0     C33410  11.799   6.049   1.826  0.5324  0.5361 -0.0255
  248MOL0     C33411  11.480   5.869   1.112 -0.6283  0.1308 -0.0205
  248MOL0     C33412  11.363   5.883   1.039 -0.4561  0.3978  0.5762
  248MOL0     H33413  10.983   5.734   0.776 -1.5800  0.8691 -0.7382
  248MOL0     H33414  10.765   5.688   0.692 -2.2637  1.4584 -0.5195
  248MOL0     H33415  10.464   5.545   0.998  2.2597  1.9964  1.5354
  248MOL0     H33416  10.412   5.708   0.986 -0.1928 -0.3078  1.0368
  248MOL0     H33417  10.258   5.656   0.793  0.6276  0.7801  0.3685
  248MOL0     H33418  10.352   5.505   0.769 -1.3373 -1.9120  2.4688
  248MOL0     H33419  10.253   5.395   0.945 -1.5797  0.3319  1.0472
  248MOL0     H33420  10.209   5.551   1.027 -0.9401 -0.7784  0.8061
  248MOL0     H33421  10.032   5.589   0.837 -3.1077 -0.3230  2.9394
  248MOL0     H33422  10.075   5.443   0.774 -0.5532  2.2866 -1.3552
  248MOL0     H33423   9.996   5.313   0.982 -2.9069 -0.0673  0.1004
  248MOL0     H33424   9.975   5.481   1.044  1.5440 -0.1248  0.2624
  248MOL0     H33425   9.767   5.356   0.984  1.4796 -1.8164 -0.0419
  248MOL0     H33426   9.806   5.491   0.859  1.1814  1.0811  1.5840
  248MOL0     H33427   9.871   5.339   0.703 -3.3197  1.4603 -0.0791
  248MOL0     H33428   9.866   5.195   0.823  0.8042  0.1869  1.6367
  248MOL0     H33429   9.645   5.354   0.697 -1.0583  1.1850  2.8459
  248MOL0     H33430   9.625   5.262   0.843 -1.4095  0.4123 -1.3787
  248MOL0     H33431   9.518   5.035   0.809 -1.6148 -0.3034 -1.8645
  248MOL0     H33432   9.641   4.738   0.590 -1.0850 -1.0404 -0.9459
  248MOL0     H33433   9.519   4.771   0.712  1.9289 -3.0995 -1.0077
  248MOL0     H33434   9.477   4.808   0.402 -0.5399 -2.3072 -1.2935
  248MOL0     H33435   9.366   4.843   0.535  0.8099  0.9531 -0.4746
  248MOL0     H33436   9.377   4.611   0.615  0.4771  1.9903  0.6710
  248MOL0     H33437   9.476   4.580   0.475 -0.4401 -0.7918  0.6696
  248MOL0     H33438   9.274   4.634   0.329  0.4616  0.3730 -0.3312
  248MOL0     H33439   9.186   4.672   0.478 -0.0106 -0.5855 -2.1975
  248MOL0     H33440   9.206   4.225   0.490  0.0552 -1.3987  0.0726
  248MOL0     H33441   9.052   4.016   0.511  2.0444 -1.4261 -1.8394
  248MOL0     H33442   8.886   4.075   0.489 -0.0589 -0.4569 -0.0296
  248MOL0     H33443   8.959   3.986   0.365  0.9363  0.8854  0.1478
  248MOL0     H33444   8.554   4.086   0.325  0.2449  0.5760  1.7445
  248MOL0     H33445   8.298   4.044   0.272 -2.8566  0.0646  0.2795
  248MOL0     H33446   8.079   4.115   0.309  0.7588  0.9410  0.1900
  248MOL0     H33447   8.048   4.287   0.318 -2.0799 -0.1184 -1.0071
  248MOL0     H33448   7.905   4.106   0.133 -0.5247  0.6545 -0.7217
  248MOL0     H33449   7.860   4.135   0.296  0.2705 -0.2369 -0.6346
  248MOL0     H33450   7.880   4.350   0.070  0.1777  3.1720  0.3397
  248MOL0     H33451   7.894   4.406   0.225  1.6717  0.8392 -4.0249
  248MOL0     H33452   7.654   4.228   0.133 -0.8844  0.2477 -0.0043
  248MOL0     H33453   7.665   4.303   0.292 -1.0981  2.6219 -1.0242
  248MOL0     H33454   7.612   4.421   0.022 -2.0287 -0.5926  0.1828
  248MOL0     H33455   7.694   4.518   0.135  2.8331 -0.9871 -0.9634
  248MOL0     H33456   7.503   4.458   0.309 -0.9963 -0.9009 -0.0731
  248MOL0     H33457   7.461   4.567   0.165 -0.0778 -0.8496 -4.2561
  248MOL0     H33458   7.411   4.269   0.224  1.7237  1.4833  0.3911
  248MOL0     H33459   7.408   4.321   0.058  1.8392 -1.8339  0.9693
  248MOL0     H33460   7.217   4.460   0.243  0.6015 -2.9630  1.5636
  248MOL0     H33461   7.177   4.315   0.157 -1.8360  0.0627  1.7830
  248MOL0     H33462   8.286   4.421   0.079  2.3762  2.1228  1.3384
  248MOL0     H33463   8.530   4.453   0.143 -1.0013  0.9542  0.4514
  248MOL0     H33464   8.882   4.439   0.185 -2.4953 -0.4170  2.4010
  248MOL0     H33465   9.064   4.577   0.289 -3.0273  0.2409  2.4811
  248MOL0     H33466  10.610   5.681   1.104  1.8202  2.6420  2.3816
  248MOL0     H33467  10.822   5.747   1.179 -0.4034 -0.9080  0.0964
  248MOL0     H33468  11.198   5.633   1.214 -1.5888 -0.4467 -3.1678
  248MOL0     H33469  11.387   5.633   1.338 -2.0541  2.6360  1.9721
  248MOL0     H33470  11.548   5.727   1.468  1.3468 -1.2100  2.7030
  248MOL0     H33471  11.689   5.642   1.404  0.2598  0.3571  3.7119
  248MOL0     H33472  11.818   5.840   1.476  0.9905  2.6091  1.8779
  248MOL0     H33473  11.705   5.830   1.614 -0.9458  0.7170 -0.1202
  248MOL0     H33474  11.565   5.995   1.531  0.7167 -1.6342  0.0218
  248MOL0     H33475  11.669   6.028   1.388 -3.4891  1.0499 -0.2069
  248MOL0     H33476  11.693   6.190   1.568 -0.4683 -0.0291 -0.7319
  248MOL0     H33477  11.852   6.126   1.524 -0.7622  0.1154  1.1354
  248MOL0     H33478  11.803   6.039   1.932  1.0762  0.6530 -0.0325
  248MOL0     H33479  11.561   5.938   1.089  0.7414 -2.1023 -2.3610
  248MOL0     H33480  11.361   5.947   0.952  1.3083 -0.9555 -0.5484
  249MOL0     O33481   5.199   2.931   2.625 -0.1156  0.0479 -0.5750
  249MOL0     C33482   5.093   2.954   2.677 -0.0246  0.8555  0.0959
  249MOL0     O33483   4.974   2.911   2.640  0.2572 -0.1684  0.2570
  249MOL0     C33484   4.960   2.834   2.527 -0.4540  0.3685 -0.0405
  249MOL0     C33485   5.008   2.869   2.398  0.6118 -0.4035 -0.5717
  249MOL0     C33486   4.973   2.805   2.284 -0.2831  0.1002  0.0263
  249MOL0     C33487   4.889   2.691   2.293  0.0043  1.2882  0.0691
  249MOL0     O33488   4.837   2.614   2.196  0.1464  0.2041 -0.0932
  249MOL0     C33489   4.863   2.645   2.065 -0.4483 -0.1107 -0.2864
  249MOL0     C33490   4.792   2.554   1.955 -0.0682 -0.1612  0.5657
  249MOL0     C33491   4.849   2.410   1.963  0.2653 -0.2293 -0.0227
  249MOL0     C33492   4.790   2.332   1.834  0.2176 -0.1053  1.1612
  249MOL0     C33493   4.687   2.235   1.889 -0.2973  0.3015  0.7264
  249MOL0     C33494   4.634   2.155   1.771  0.1679  0.3845  0.9178
  249MOL0     C33495   4.535   2.044   1.830  0.0090  0.5961 -0.2749
  249MOL0     C33496   4.482   1.951   1.724  0.6613 -0.1128  0.6937
  249MOL0     N33497   4.401   1.859   1.796 -0.3732  0.9260  0.2823
  249MOL0     C33498   4.281   1.871   1.852  0.9337  0.5169 -0.6439
  249MOL0     C33499   4.237   1.755   1.902 -0.1542 -0.5721  0.1166
  249MOL0     C33500   4.098   1.742   1.958 -0.2927  1.3050  0.0783
  249MOL0     C33501   3.994   1.712   1.852  0.3366 -0.0863 -0.0440
  249MOL0     C33502   3.893   1.610   1.902 -0.3282  0.0224 -0.1107
  249MOL0     C33503   3.770   1.607   1.808  0.2725  0.3865 -0.6394
  249MOL0     O33504   3.685   1.720   1.844  0.1692  1.3077 -0.0166
  249MOL0     C33505   3.551   1.717   1.838  0.8116  0.6596  0.7088
  249MOL0     C33506   3.462   1.615   1.794  0.5414  0.4804  0.0193
  249MOL0     C33507   3.319   1.644   1.783 -0.1403 -0.0206  0.1210
  249MOL0     C33508   3.232   1.545   1.713 -0.5518  0.7045  1.3942
  249MOL0     C33509   3.266   1.765   1.844 -0.2534  0.6587 -0.3839
  249MOL0     C33510   3.117   1.798   1.842  0.5031  0.4536 -0.4093
  249MOL0     O33511   3.024   1.707   1.785  0.5368 -0.4562 -0.4464
  249MOL0     C33512   2.891   1.732   1.760 -0.3817  0.6822  0.7668
  249MOL0     C33513   2.826   1.860   1.755 -0.1471 -0.1357 -0.0858
  249MOL0     C33514   2.690   1.872   1.726  0.4554  0.1381 -0.1216
  249MOL0     C33515   2.607   1.751   1.717 -0.6715 -1.3365 -0.2693
  249MOL0     O33516   2.475   1.764   1.696 -0.2994 -0.0798  0.5634
  249MOL0     C33517   2.402   1.656   1.647  0.4149 -0.1755 -0.4514
  249MOL0     C33518   2.273   1.720   1.603 -0.6477  0.0510  0.1314
  249MOL0     C33519   2.163   1.619   1.578  0.3465  0.6983 -0.5136
  249MOL0     C33520   2.117   1.542   1.703 -0.7183  0.3493  1.5385
  249MOL0     C33521   2.017   1.632   1.777 -0.4152  1.1042 -0.2232
  249MOL0     C33522   1.963   1.542   1.898  0.0744  0.6489 -0.2100
  249MOL0     C33523   1.813   1.576   1.928  0.1175 -0.2407 -0.7441
  249MOL0     C33524   1.762   1.477   2.025 -0.0041  0.2629 -0.0153
  249MOL0    Cl33525   1.591   1.473   2.065  0.1126  0.3101 -0.1340
  249MOL0     C33526   2.677   1.631   1.723 -0.5201  0.7419 -0.5943
  249MOL0     C33527   2.811   1.622   1.746 -0.9113 -0.3468  0.0594
  249MOL0     O33528   3.090   1.910   1.878 -0.4547 -0.1497  0.5926
  249MOL0     C33529   3.358   1.856   1.904 -0.5652 -0.8266 -0.5099
  249MOL0     C33530   3.503   1.835   1.901  0.4251  0.1160  0.4794
  249MOL0     N33531   4.334   1.661   1.859 -0.2451 -0.2856  0.2050
  249MOL0     N33532   4.426   1.726   1.800 -0.3504  0.2128 -0.5794
  249MOL0     C33533   4.844   2.655   2.416 -0.4160  0.4910 -0.7584
  249MOL0     C33534   4.875   2.725   2.534 -0.2595 -0.4159  0.5019
  249MOL0     C33535   5.093   3.055   2.779  0.2097 -0.2204  0.0441
  249MOL0     C33536   5.213   3.065   2.851 -0.2648 -0.8446  0.0685
  249MOL0     C33537   5.223   3.151   2.957 -0.1287  0.4380  0.0265
  249MOL0     C33538   5.113   3.242   2.992 -1.0607 -0.0886  0.1190
  249MOL0     O33539   5.146   3.333   3.088  0.4998 -1.7059 -0.4227
  249MOL0     C33540   5.050   3.444   3.112  0.0472  0.8088 -0.3601
  249MOL0     C33541   5.120   3.526   3.207  0.7640 -0.1942 -1.3491
  249MOL0     C33542   5.265   3.575   3.173 -0.2876  0.3104 -1.1328
  249MOL0     C33543   5.319   3.693   3.239  0.5285  0.4325 -0.0770
  249MOL0     C33544   5.225   3.814   3.253 -0.5153  0.3958  0.7911
  249MOL0     C33545   5.160   3.906   3.290  0.6943 -0.1312  0.0541
  249MOL0     C33546   4.994   3.220   2.918  0.5852 -0.9098  0.4964
  249MOL0     C33547   4.981   3.121   2.817  0.6932 -0.5487  0.1238
  249MOL0     H33548   5.076   2.952   2.380 -0.2182  0.8484  1.5874
  249MOL0     H33549   5.011   2.847   2.192  1.1785 -2.4310 -0.6170
  249MOL0     H33550   4.837   2.750   2.049  0.2203 -0.0534 -1.0699
  249MOL0     H33551   4.971   2.627   2.058 -0.4951 -1.6326  1.9508
  249MOL0     H33552   4.687   2.547   1.981 -0.2690 -1.4840 -0.5045
  249MOL0     H33553   4.806   2.597   1.855  0.4035  0.4743  0.8943
  249MOL0     H33554   4.958   2.411   1.972  0.3464 -0.4350 -0.9047
  249MOL0     H33555   4.822   2.363   2.058  0.4734  0.4140  0.3583
  249MOL0     H33556   4.728   2.397   1.771 -3.0906 -2.3712  1.7913
  249MOL0     H33557   4.864   2.278   1.775  1.0536  0.6208  1.5255
  249MOL0     H33558   4.743   2.163   1.951 -0.0638 -0.3803 -0.2458
  249MOL0     H33559   4.605   2.272   1.950 -0.2435  2.3630 -0.3539
  249MOL0     H33560   4.570   2.212   1.703 -0.5398 -4.3236 -2.8470
  249MOL0     H33561   4.718   2.114   1.715  1.9565  1.1706  2.8793
  249MOL0     H33562   4.584   1.976   1.900 -0.2335  0.0084 -0.6748
  249MOL0     H33563   4.464   2.092   1.898  2.1144 -1.1592  3.4886
  249MOL0     H33564   4.567   1.899   1.679  0.1773 -1.4086  1.2436
  249MOL0     H33565   4.421   2.013   1.657  1.3484  2.1544  2.0384
  249MOL0     H33566   4.231   1.967   1.861  0.0388 -0.0651  0.9378
  249MOL0     H33567   4.114   1.660   2.029  2.7664  2.1576  0.5270
  249MOL0     H33568   4.063   1.831   2.012 -0.0609  0.4552  1.7220
  249MOL0     H33569   4.049   1.662   1.771 -0.3385 -0.7565 -0.0965
  249MOL0     H33570   3.958   1.803   1.802 -1.0729 -1.0106 -0.7822
  249MOL0     H33571   3.861   1.640   2.002 -2.7427  1.6977 -1.2662
  249MOL0     H33572   3.942   1.513   1.902  2.7411  1.4669  0.6853
  249MOL0     H33573   3.727   1.507   1.815 -0.2547  0.6536  0.0975
  249MOL0     H33574   3.800   1.622   1.704 -1.2761  3.1654 -0.7842
  249MOL0     H33575   3.505   1.524   1.755 -1.6643 -0.9608  0.7508
  249MOL0     H33576   3.157   1.494   1.774  1.3258  1.6203  4.7600
  249MOL0     H33577   3.187   1.584   1.622  0.7789 -0.7373  0.0556
  249MOL0     H33578   3.294   1.462   1.677 -2.4969 -0.4524  0.5622
  249MOL0     H33579   2.888   1.949   1.761  1.5867 -1.3527  1.0410
  249MOL0     H33580   2.636   1.966   1.716 -0.2293 -0.2494 -0.1346
  249MOL0     H33581   2.457   1.611   1.564  3.8094 -0.0739  1.5666
  249MOL0     H33582   2.379   1.578   1.720 -0.3478  0.3206 -0.1410
  249MOL0     H33583   2.241   1.788   1.682 -1.9351  0.4255 -0.7021
  249MOL0     H33584   2.295   1.779   1.514 -2.1553  1.6419  0.7553
  249MOL0     H33585   2.196   1.539   1.511 -1.4848  1.2344 -2.1333
  249MOL0     H33586   2.076   1.671   1.537 -0.2980  1.2948  1.5173
  249MOL0     H33587   2.056   1.462   1.659 -0.5127  1.5943 -1.2209
  249MOL0     H33588   2.198   1.503   1.765  0.2432  0.6113  0.4827
  249MOL0     H33589   1.931   1.655   1.713 -3.1278 -1.2387  2.2849
  249MOL0     H33590   2.060   1.721   1.825  2.4360 -0.5386  0.5183
  249MOL0     H33591   1.972   1.435   1.877 -1.6764  0.6362 -1.0858
  249MOL0     H33592   2.024   1.561   1.986  0.2976  3.0200 -0.7826
  249MOL0     H33593   1.751   1.568   1.838  0.7259 -1.7383 -1.0656
  249MOL0     H33594   1.810   1.675   1.973  4.0791 -1.0965  2.0113
  249MOL0     H33595   1.802   1.495   2.125  0.2156 -1.3153  0.1971
  249MOL0     H33596   1.790   1.376   1.995  1.6418  0.4025  0.9810
  249MOL0     H33597   2.630   1.534   1.735  3.9871 -1.4360  1.8455
  249MOL0     H33598   2.856   1.527   1.771 -0.6901 -0.2967 -0.1503
  249MOL0     H33599   3.325   1.954   1.937  2.8203 -0.2685  1.7573
  249MOL0     H33600   3.577   1.911   1.925 -0.7199  2.2568 -2.2420
  249MOL0     H33601   4.774   2.573   2.425 -0.7629  0.9811  1.7483
  249MOL0     H33602   4.841   2.685   2.629  0.8440  1.8367  1.9244
  249MOL0     H33603   5.294   2.993   2.841 -0.3744 -1.0187  0.4263
  249MOL0     H33604   5.313   3.149   3.017 -0.0220 -1.7553 -0.1101
  249MOL0     H33605   5.021   3.500   3.023 -2.1497  0.3138 -0.0266
  249MOL0     H33606   4.963   3.400   3.162  2.0806 -3.2497 -0.0310
  249MOL0     H33607   5.126   3.473   3.302  1.6292  2.3824  0.1341
  249MOL0     H33608   5.057   3.614   3.223  0.8726 -0.4609  0.7771
  249MOL0     H33609   5.276   3.594   3.066  1.2360 -1.0219 -1.2593
  249MOL0     H33610   5.332   3.490   3.195 -0.5621  0.1082 -1.0724
  249MOL0     H33611   5.417   3.728   3.206 -0.3599  2.3858 -0.7892
  249MOL0     H33612   5.332   3.653   3.340  0.8319  0.2561 -0.1827
  249MOL0     H33613   5.094   3.975   3.338  0.7302 -0.7521  1.0367
  249MOL0     H33614   4.912   3.286   2.947 -0.8987 -1.4918 -2.0767
  249MOL0     H33615   4.897   3.106   2.750  1.2247 -1.5470 -0.3298
  250MOL0     O33616   2.111   9.525  11.020  0.0548 -0.2019  0.3805
  250MOL0     C33617   2.158   9.414  11.001 -0.4787 -0.1993 -0.3277
  250MOL0     O33618   2.113   9.294  11.051 -0.3855 -0.3730 -0.6210
  250MOL0     C33619   1.988   9.288  11.090  0.8232 -0.4886 -0.4473
  250MOL0     C33620   1.890   9.245  11.001  0.1124  0.0516 -0.0512
  250MOL0     C33621   1.763   9.226  11.049 -0.0970 -0.8179 -0.2343
  250MOL0     C33622   1.722   9.249  11.182  0.0155  0.2443  0.4306
  250MOL0     O33623   1.590   9.235  11.206  0.5334 -0.0629 -0.2475
  250MOL0     C33624   1.539   9.317  11.315  0.6588  0.5036  0.2472
  250MOL0     C33625   1.397   9.270  11.347  0.0511 -0.4695  0.1563
  250MOL0     C33626   1.297   9.329  11.247  0.2304 -0.9262 -0.0444
  250MOL0     C33627   1.156   9.262  11.244  0.2815 -0.3251  0.0098
  250MOL0     C33628   1.063   9.333  11.143 -0.0955 -0.0690 -0.7490
  250MOL0     C33629   1.099   9.312  10.997 -0.7083  0.7826  0.1740
  250MOL0     C33630   1.015   9.402  10.901 -0.8434 -0.5065 -0.6210
  250MOL0     C33631   0.855   9.405  10.919  0.4013  0.5022 -0.4100
  250MOL0     N33632   0.796   9.501  10.828  0.3604  0.1108  1.2221
  250MOL0     C33633   0.723   9.605  10.876  0.0295  0.0860 -0.7529
  250MOL0     C33634   0.640   9.640  10.774  0.7241 -0.9097 -0.3384
  250MOL0     C33635   0.530   9.740  10.792  0.1775 -0.1502  0.2341
  250MOL0     C33636   0.419   9.721  10.686 -0.2797  0.0660  0.6108
  250MOL0     C33637   0.317   9.837  10.680 -0.5959  0.5242 -0.1389
  250MOL0     C33638   0.229   9.834  10.551  0.5668 -0.7067 -0.0198
  250MOL0     O33639   0.128   9.935  10.565 -0.2715 -0.5593  0.4961
  250MOL0     C33640   0.020   9.908  10.477  0.7647 -0.0537  0.5306
  250MOL0     C33641  -0.090   9.995  10.495  0.0431  0.0585 -0.1750
  250MOL0     C33642  -0.205   9.980  10.427 -0.8872  0.1488 -0.0752
  250MOL0     C33643  -0.321  10.070  10.439 -0.2376  0.0575  0.1801
  250MOL0     C33644  -0.209   9.878  10.329  0.1086  0.0042 -0.8585
  250MOL0     C33645  -0.340   9.841  10.264 -0.0654  0.5771  0.4142
  250MOL0     O33646  -0.339   9.854  10.130 -0.2230  0.2537  0.5383
  250MOL0     C33647  -0.418   9.770  10.056 -0.2755 -0.2596 -0.2685
  250MOL0     C33648  -0.555   9.769  10.071 -0.4399  0.0730 -0.2905
  250MOL0     C33649  -0.634   9.693   9.976 -0.4384 -0.1483  0.5589
  250MOL0     C33650  -0.567   9.618   9.875  0.6364 -0.2534 -0.3054
  250MOL0     O33651  -0.636   9.538   9.781  0.2229  0.3990 -0.2424
  250MOL0     C33652  -0.718   9.429   9.840 -0.7521 -0.1886 -0.7615
  250MOL0     C33653  -0.824   9.405   9.731 -0.4626 -0.3867  0.2004
  250MOL0     C33654  -0.908   9.286   9.778 -0.8861 -0.1848  0.2389
  250MOL0     C33655  -0.970   9.218   9.660  0.6627  0.9867  0.4809
  250MOL0     C33656  -1.103   9.153   9.710  0.2215 -0.2658 -0.5464
  250MOL0     C33657  -1.186   9.093   9.592 -0.2204  0.3374  0.2215
  250MOL0     C33658  -1.331   9.057   9.638  0.2905  1.0321 -0.2334
  250MOL0     C33659  -1.443   9.098   9.537  0.5289  0.1198 -0.0324
  250MOL0    Cl33660  -1.379   9.097   9.370 -0.2067  0.1818 -0.3358
  250MOL0     C33661  -0.432   9.620   9.860 -0.4456  0.0530 -0.7478
  250MOL0     C33662  -0.354   9.693   9.957  0.3270  0.4397 -0.3558
  250MOL0     O33663  -0.435   9.791  10.335 -0.9104 -0.2619  1.2830
  250MOL0     C33664  -0.097   9.800  10.298  0.4467 -0.2245 -0.2294
  250MOL0     C33665   0.019   9.817  10.370 -0.4978 -0.1652 -0.3733
  250MOL0     N33666   0.659   9.546  10.670 -0.3991  0.1807 -0.3390
  250MOL0     N33667   0.759   9.478  10.700  0.6954  0.4252  0.1715
  250MOL0     C33668   1.824   9.289  11.278 -0.2427 -0.1206  0.2974
  250MOL0     C33669   1.956   9.306  11.230  0.2875 -0.0860 -0.2537
  250MOL0     C33670   2.282   9.403  10.936  0.7838 -0.4036 -0.1626
  250MOL0     C33671   2.347   9.516  10.879 -0.0212 -0.4854  0.1843
  250MOL0     C33672   2.460   9.500  10.793  0.0171  0.5887  0.1499
  250MOL0     C33673   2.489   9.370  10.755 -1.0787 -1.1289  1.0856
  250MOL0     O33674   2.582   9.372  10.656 -0.2847 -0.2483  0.6282
  250MOL0     C33675   2.617   9.247  10.593  0.0623 -0.3280  0.6227
  250MOL0     C33676   2.745   9.191  10.645  0.1479  0.3774 -0.1125
  250MOL0     C33677   2.870   9.285  10.645  0.1384 -0.3539 -1.0713
  250MOL0     C33678   2.988   9.206  10.709 -0.2477 -0.4531 -0.2129
  250MOL0     C33679   3.100   9.297  10.745  1.2143  0.0542  0.9973
  250MOL0     C33680   3.188   9.375  10.760 -1.1889 -0.3683 -0.9757
  250MOL0     C33681   2.441   9.260  10.823  0.0296 -0.3578 -0.1822
  250MOL0     C33682   2.343   9.281  10.914  0.3107 -1.0964  0.0608
  250MOL0     H33683   1.919   9.220  10.899 -0.1902 -0.2048 -0.0747
  250MOL0     H33684   1.687   9.219  10.972  0.0998 -1.6460 -0.3605
  250MOL0     H33685   1.601   9.299  11.404  1.0573  2.3446  0.3841
  250MOL0     H33686   1.552   9.420  11.280 -0.3506  0.1930 -1.1071
  250MOL0     H33687   1.390   9.162  11.358  0.4966 -0.5535 -0.3246
  250MOL0     H33688   1.357   9.323  11.434 -1.8249  0.4774 -1.2033
  250MOL0     H33689   1.260   9.427  11.278 -0.5468  0.4598 -4.5225
  250MOL0     H33690   1.351   9.342  11.152  3.5839 -1.8601  1.5707
  250MOL0     H33691   1.163   9.159  11.210 -1.3827 -0.7146  0.7573
  250MOL0     H33692   1.103   9.260  11.339 -0.5952  0.8174 -0.4314
  250MOL0     H33693   0.964   9.291  11.168  0.9287 -3.3143 -1.6249
  250MOL0     H33694   1.064   9.441  11.159 -1.1337  0.0028 -1.1008
  250MOL0     H33695   1.198   9.348  10.967 -1.2719  2.1056 -0.1733
  250MOL0     H33696   1.080   9.208  10.971 -3.5497  1.3752 -0.4654
  250MOL0     H33697   1.057   9.503  10.903  1.1514 -1.0144 -4.8241
  250MOL0     H33698   1.032   9.361  10.801  0.3067 -2.1856  0.2205
  250MOL0     H33699   0.837   9.443  11.020  1.7665  2.9192 -0.9800
  250MOL0     H33700   0.825   9.303  10.895  0.7444  0.8820 -2.7134
  250MOL0     H33701   0.717   9.643  10.977  0.1310 -1.3415 -0.1903
  250MOL0     H33702   0.485   9.737  10.892 -0.9378  0.1495 -0.2486
  250MOL0     H33703   0.584   9.835  10.789  3.2485 -1.7607  0.5892
  250MOL0     H33704   0.365   9.627  10.703  2.3805 -1.3572  1.7526
  250MOL0     H33705   0.465   9.724  10.587  0.8200 -1.5774  1.0322
  250MOL0     H33706   0.368   9.933  10.692  4.1400 -1.7278  0.1762
  250MOL0     H33707   0.252   9.826  10.767 -0.4305 -0.2023 -0.0989
  250MOL0     H33708   0.183   9.735  10.559 -2.3159  0.6167  1.5619
  250MOL0     H33709   0.285   9.855  10.459 -0.9219 -1.5038 -1.1621
  250MOL0     H33710  -0.083  10.070  10.573  1.3054 -0.3124  0.0786
  250MOL0     H33711  -0.295  10.165  10.391 -0.3122 -1.6520 -3.6098
  250MOL0     H33712  -0.413  10.031  10.396  0.5586 -1.3804 -0.2940
  250MOL0     H33713  -0.348  10.101  10.540  0.1612  0.0320  0.2984
  250MOL0     H33714  -0.606   9.816  10.154  2.0589  2.2784  0.1366
  250MOL0     H33715  -0.740   9.675   9.986 -0.0490 -3.7763 -0.2838
  250MOL0     H33716  -0.653   9.345   9.867  0.5280  1.1619  0.5441
  250MOL0     H33717  -0.769   9.459   9.932 -1.4410 -0.3598 -1.0801
  250MOL0     H33718  -0.892   9.489   9.711 -0.6086 -0.3704  0.7430
  250MOL0     H33719  -0.778   9.386   9.634  1.3886 -0.2929  1.0215
  250MOL0     H33720  -0.991   9.329   9.834 -2.6539 -0.8440 -1.7469
  250MOL0     H33721  -0.846   9.213   9.831 -0.2518  1.6783  2.2214
  250MOL0     H33722  -0.985   9.290   9.580  0.9089  1.4228  0.8262
  250MOL0     H33723  -0.906   9.133   9.631  1.0085  0.3210  2.9462
  250MOL0     H33724  -1.160   9.236   9.752  1.3008  0.9767 -1.4539
  250MOL0     H33725  -1.094   9.078   9.790  2.0491 -3.1451 -3.2237
  250MOL0     H33726  -1.188   9.178   9.524 -0.3233  2.9346  3.2514
  250MOL0     H33727  -1.131   9.011   9.544  1.6164  1.5238  0.1820
  250MOL0     H33728  -1.347   9.110   9.732 -1.5703  2.2295 -1.1464
  250MOL0     H33729  -1.337   8.953   9.669  2.1383  1.7826  3.0474
  250MOL0     H33730  -1.462   9.203   9.561 -1.9801 -0.8712  2.9887
  250MOL0     H33731  -1.539   9.048   9.553  0.1625  1.0397  0.7311
  250MOL0     H33732  -0.375   9.573   9.781  0.2056 -0.9857  0.3068
  250MOL0     H33733  -0.247   9.679   9.954  0.1523 -1.0473 -0.2089
  250MOL0     H33734  -0.114   9.725  10.221 -2.5758  0.7536 -0.6475
  250MOL0     H33735   0.111   9.774  10.332 -0.2774 -0.2422  0.2262
  250MOL0     H33736   1.812   9.317  11.383 -0.6037  0.9517 -0.0175
  250MOL0     H33737   2.034   9.327  11.303 -1.3135 -2.1887  2.2366
  250MOL0     H33738   2.301   9.613  10.895 -0.9821 -0.5308 -1.9419
  250MOL0     H33739   2.514   9.579  10.741 -1.4904  1.0712 -0.7281
  250MOL0     H33740   2.544   9.166  10.597  1.9698 -2.2507 -0.8398
  250MOL0     H33741   2.634   9.257  10.485 -0.7101 -1.2262  0.3970
  250MOL0     H33742   2.769   9.108  10.579  1.0304 -0.1517  0.8405
  250MOL0     H33743   2.722   9.149  10.744 -1.6615  0.4913 -0.4562
  250MOL0     H33744   2.847   9.376  10.701  2.7140 -0.5395  0.4654
  250MOL0     H33745   2.906   9.313  10.545 -0.5379 -1.2974 -1.5971
  250MOL0     H33746   3.024   9.124  10.645 -0.0178 -2.8840  2.7666
  250MOL0     H33747   2.946   9.160  10.799 -1.2651  2.1120  0.7017
  250MOL0     H33748   3.263   9.451  10.768 -0.6303 -0.9766 -0.3685
  250MOL0     H33749   2.478   9.158  10.816  0.7483 -0.0186 -1.6885
  250MOL0     H33750   2.304   9.190  10.960 -2.1416 -1.1056 -1.7870
  251MOL0     O33751   8.056  10.636   9.235 -0.4979 -0.5614  0.2987
  251MOL0     C33752   8.052  10.541   9.314  1.3525 -0.2775 -0.0492
  251MOL0     O33753   7.954  10.454   9.307  0.4985  0.1015 -0.5048
  251MOL0     C33754   7.844  10.487   9.237 -0.0579  0.0825 -0.2408
  251MOL0     C33755   7.755  10.589   9.274 -0.4839 -0.6689 -0.3505
  251MOL0     C33756   7.651  10.617   9.187  0.7969 -0.4223 -0.1538
  251MOL0     C33757   7.627  10.544   9.071 -0.2731  0.1023  0.3073
  251MOL0     O33758   7.516  10.562   8.992  0.0721  0.7167 -0.2475
  251MOL0     C33759   7.392  10.578   9.062  0.4059  0.9399 -0.0774
  251MOL0     C33760   7.274  10.593   8.972  0.5985 -0.2284  1.7934
  251MOL0     C33761   7.199  10.459   8.938  0.3369  0.2828 -0.0466
  251MOL0     C33762   7.118  10.462   8.808 -0.1754  0.6339  0.0760
  251MOL0     C33763   7.059  10.326   8.779  0.3961 -0.7435 -0.5165
  251MOL0     C33764   7.006  10.319   8.640  0.0554 -0.1948  0.1672
  251MOL0     C33765   6.921  10.189   8.612  0.2347  0.4135  0.1489
  251MOL0     C33766   7.011  10.057   8.600  0.0755 -0.1533 -0.6191
  251MOL0     N33767   6.938   9.935   8.631  0.0156  0.7350 -0.3771
  251MOL0     C33768   6.843   9.894   8.533  0.6366  0.4432  0.3593
  251MOL0     C33769   6.740   9.836   8.605 -1.5713  1.0411  0.0972
  251MOL0     C33770   6.611   9.781   8.542  0.6412 -0.6562 -0.1747
  251MOL0     C33771   6.514   9.886   8.486  1.0417 -0.6971 -0.3762
  251MOL0     C33772   6.463   9.997   8.584  0.8359 -0.2647  0.0032
  251MOL0     C33773   6.439   9.946   8.739  0.6797  0.1883  0.2393
  251MOL0     O33774   6.333   9.844   8.747  0.2487  0.0494 -0.3551
  251MOL0     C33775   6.205   9.854   8.705  0.4502 -0.1440 -0.2100
  251MOL0     C33776   6.136   9.738   8.676  0.0395  0.9426 -0.1238
  251MOL0     C33777   6.003   9.737   8.635  0.7264  0.3701  0.6055
  251MOL0     C33778   5.946   9.603   8.605  0.2054 -0.1178 -0.6786
  251MOL0     C33779   5.935   9.863   8.632  0.5075  0.1162  0.1554
  251MOL0     C33780   5.778   9.871   8.624 -0.3390 -0.4073 -1.2966
  251MOL0     O33781   5.721   9.994   8.660 -0.1924 -0.0078 -0.2886
  251MOL0     C33782   5.584  10.022   8.674 -0.6000 -0.0760  0.2989
  251MOL0     C33783   5.481   9.944   8.633 -0.0604 -0.1072 -0.0481
  251MOL0     C33784   5.347   9.990   8.645 -0.5439  1.1122  0.4517
  251MOL0     C33785   5.318  10.121   8.682 -0.0996 -0.4053 -0.3079
  251MOL0     O33786   5.188  10.172   8.668 -0.4117  0.0940 -0.1012
  251MOL0     C33787   5.139  10.265   8.765 -0.4555 -0.0026 -0.9528
  251MOL0     C33788   4.997  10.289   8.719 -0.7832  0.0554 -0.9082
  251MOL0     C33789   4.929  10.371   8.834  0.3217  0.3764 -0.2591
  251MOL0     C33790   4.785  10.412   8.798 -0.5252  1.2012 -0.2016
  251MOL0     C33791   4.731  10.488   8.916 -0.3488 -0.5351 -0.4724
  251MOL0     C33792   4.581  10.518   8.900 -0.0837  0.2260  0.0179
  251MOL0     C33793   4.532  10.644   8.960  0.8182 -0.3288 -0.3880
  251MOL0     C33794   4.400  10.685   8.903  0.1236 -0.1171  0.6091
  251MOL0    Cl33795   4.297  10.760   9.024 -0.3024 -0.0349 -0.6829
  251MOL0     C33796   5.424  10.199   8.731 -0.9771  0.4026 -0.3263
  251MOL0     C33797   5.555  10.149   8.720 -0.0097 -0.7370  1.0923
  251MOL0     O33798   5.719   9.777   8.578 -0.1114  0.4295 -0.6566
  251MOL0     C33799   5.995   9.980   8.672  0.0250  0.8423  0.7958
  251MOL0     C33800   6.132   9.979   8.706 -0.3726 -0.4555  0.7672
  251MOL0     N33801   6.773   9.839   8.741  0.2293 -0.2476 -0.1015
  251MOL0     N33802   6.889   9.899   8.751  0.5753 -0.8310 -0.8642
  251MOL0     C33803   7.712  10.442   9.036  0.4652  0.3320  0.4999
  251MOL0     C33804   7.815  10.413   9.118 -0.0790  0.6002  0.5257
  251MOL0     C33805   8.150  10.531   9.427  0.5079 -0.1396  0.2091
  251MOL0     C33806   8.272  10.594   9.425  0.1416  0.2896  0.8084
  251MOL0     C33807   8.356  10.581   9.534 -0.0156  0.8841 -0.2161
  251MOL0     C33808   8.328  10.507   9.651  0.1004 -0.8466  0.3922
  251MOL0     O33809   8.436  10.493   9.739  0.2717 -0.2803 -0.2551
  251MOL0     C33810   8.417  10.396   9.838 -0.4130 -0.1622 -0.7130
  251MOL0     C33811   8.558  10.357   9.907  0.7433 -0.3195  0.2874
  251MOL0     C33812   8.636  10.276   9.808 -0.2933 -0.8902  0.5259
  251MOL0     C33813   8.794  10.262   9.843 -0.0757  0.3571  0.1792
  251MOL0     C33814   8.854  10.392   9.859  0.6307 -0.3974  0.1104
  251MOL0     C33815   8.900  10.504   9.854  0.0495 -0.6719 -0.6715
  251MOL0     C33816   8.198  10.456   9.654 -0.0834 -0.1637 -0.4571
  251MOL0     C33817   8.114  10.454   9.543 -0.4167  0.1649 -0.1012
  251MOL0     H33818   7.770  10.648   9.364 -0.9561  0.2722 -0.8726
  251MOL0     H33819   7.588  10.702   9.214  1.8209 -0.1646  1.5499
  251MOL0     H33820   7.375  10.490   9.126 -1.2687  0.0540 -1.6700
  251MOL0     H33821   7.388  10.665   9.128 -1.8061  0.4593  0.5138
  251MOL0     H33822   7.200  10.660   9.015 -0.8059 -3.8474  5.7919
  251MOL0     H33823   7.315  10.633   8.879  1.0251 -1.4632  1.4321
  251MOL0     H33824   7.276  10.385   8.917  1.8433  2.3992 -2.5616
  251MOL0     H33825   7.137  10.422   9.020 -1.2530 -1.8695 -2.0888
  251MOL0     H33826   7.035  10.529   8.833 -3.1433 -3.1769  1.3199
  251MOL0     H33827   7.179  10.506   8.728 -1.0960 -0.8858 -1.5264
  251MOL0     H33828   7.134  10.248   8.792 -1.3591 -2.1960  1.5129
  251MOL0     H33829   6.974  10.302   8.844 -0.5592  1.5896 -0.7948
  251MOL0     H33830   6.937  10.404   8.634  2.5492  1.9696  0.6508
  251MOL0     H33831   7.076  10.333   8.557 -3.7843 -0.5385 -3.4896
  251MOL0     H33832   6.838  10.176   8.683 -1.2016  0.4248 -1.4532
  251MOL0     H33833   6.872  10.214   8.518  1.8269 -0.2000 -0.8805
  251MOL0     H33834   7.084  10.076   8.679  1.1154 -0.2150 -1.5439
  251MOL0     H33835   7.070  10.057   8.508  2.9190 -0.7685  1.0822
  251MOL0     H33836   6.833   9.919   8.428 -2.8110  0.1208  0.5125
  251MOL0     H33837   6.629   9.710   8.461 -0.5740 -1.1579 -0.0269
  251MOL0     H33838   6.561   9.715   8.614  0.1125 -1.3899 -1.2001
  251MOL0     H33839   6.431   9.829   8.442  0.5749 -0.7754  0.5784
  251MOL0     H33840   6.569   9.936   8.406 -0.1958  0.1405 -0.7391
  251MOL0     H33841   6.382  10.061   8.549  0.7398 -1.5981 -2.4134
  251MOL0     H33842   6.545  10.068   8.597  1.8831 -1.4741  0.2625
  251MOL0     H33843   6.403  10.033   8.794 -1.6912 -3.0312  4.3477
  251MOL0     H33844   6.533   9.903   8.777  0.8831 -1.3787 -1.8366
  251MOL0     H33845   6.197   9.649   8.692  2.1931  2.4645  0.4759
  251MOL0     H33846   5.863   9.573   8.670  1.7019 -2.5884  0.2372
  251MOL0     H33847   5.916   9.595   8.501 -0.6499 -1.2184 -0.3763
  251MOL0     H33848   6.033   9.538   8.620  1.6839  1.9306 -0.0192
  251MOL0     H33849   5.504   9.848   8.587 -0.4383 -0.3015  0.1644
  251MOL0     H33850   5.275   9.911   8.624  0.0535  0.6270  0.1752
  251MOL0     H33851   5.152  10.216   8.862 -0.9428  1.9663  0.1471
  251MOL0     H33852   5.197  10.356   8.778  3.4630 -2.0230 -2.5166
  251MOL0     H33853   4.988  10.336   8.620 -0.4525 -2.9702 -2.5098
  251MOL0     H33854   4.947  10.192   8.711  0.7286 -0.8502  0.2938
  251MOL0     H33855   4.990  10.459   8.853 -0.2159  0.9954 -1.3052
  251MOL0     H33856   4.936  10.304   8.921 -0.1654  0.9845  0.2555
  251MOL0     H33857   4.782  10.475   8.709  1.4486  1.1806 -0.3265
  251MOL0     H33858   4.719  10.326   8.778 -0.9207  0.9342  1.9555
  251MOL0     H33859   4.789  10.580   8.931  1.2680 -1.6069  0.2410
  251MOL0     H33860   4.751  10.426   9.004 -0.5390 -0.9605 -0.7230
  251MOL0     H33861   4.563  10.518   8.792  1.6174 -1.7654 -0.3199
  251MOL0     H33862   4.530  10.432   8.946 -1.7828 -0.1686 -2.3750
  251MOL0     H33863   4.610  10.721   8.957  1.9357 -1.2958  1.7130
  251MOL0     H33864   4.524  10.622   9.067 -4.4124 -0.1966 -0.4888
  251MOL0     H33865   4.347  10.603   8.855 -1.2633 -0.1411  2.0788
  251MOL0     H33866   4.424  10.749   8.817  0.0975 -1.4539 -0.4153
  251MOL0     H33867   5.421  10.302   8.766 -0.4535  0.2265  0.2622
  251MOL0     H33868   5.637  10.208   8.758  1.0871 -3.6182  3.7102
  251MOL0     H33869   5.938  10.072   8.668 -3.0029 -0.9094 -0.6816
  251MOL0     H33870   6.173  10.074   8.740  1.0589 -1.0678  0.8130
  251MOL0     H33871   7.706  10.380   8.947 -0.0634  0.8059  0.1959
  251MOL0     H33872   7.877  10.326   9.095  1.7699  0.9316  3.6038
  251MOL0     H33873   8.296  10.655   9.338 -0.9934 -0.3359  0.0223
  251MOL0     H33874   8.458  10.619   9.535  0.2074  0.3526 -1.0576
  251MOL0     H33875   8.360  10.439   9.920  2.7157  0.4548  1.3230
  251MOL0     H33876   8.362  10.308   9.805 -0.5924 -0.7075  0.9371
  251MOL0     H33877   8.547  10.302  10.001  1.4218  2.3848  2.0633
  251MOL0     H33878   8.608  10.450   9.935 -0.9652  0.5536  0.5164
  251MOL0     H33879   8.629  10.337   9.717 -0.1927 -0.2586  0.9383
  251MOL0     H33880   8.594  10.177   9.786 -0.4318 -1.0224  1.3733
  251MOL0     H33881   8.843  10.206   9.763 -1.9535  0.1999 -0.9112
  251MOL0     H33882   8.810  10.204   9.935 -1.6668 -0.2419  0.1164
  251MOL0     H33883   8.958  10.594   9.859  0.9445 -1.2689  3.5307
  251MOL0     H33884   8.164  10.400   9.740 -1.0423 -3.1345 -2.6270
  251MOL0     H33885   8.014  10.413   9.542 -0.5696  0.5136 -1.5546
  252MOL0     O33886   2.246  10.365   1.683  0.4671  0.8770 -0.4451
  252MOL0     C33887   2.304  10.453   1.747 -0.3982 -0.7095  0.2028
  252MOL0     O33888   2.243  10.544   1.829  0.1460 -0.1661  0.6561
  252MOL0     C33889   2.107  10.563   1.831 -0.6011 -0.6308 -0.1561
  252MOL0     C33890   2.067  10.691   1.844  0.1478 -0.3348 -0.0437
  252MOL0     C33891   1.932  10.725   1.873 -0.1336 -0.3291 -0.5220
  252MOL0     C33892   1.835  10.621   1.892 -0.4247 -0.0914  0.0712
  252MOL0     O33893   1.712  10.672   1.920 -0.3695  0.3521 -0.3984
  252MOL0     C33894   1.599  10.594   1.910  0.3565 -0.6774 -0.1024
  252MOL0     C33895   1.568  10.552   1.764 -1.1232  0.3987 -0.0178
  252MOL0     C33896   1.459  10.446   1.753  0.4924 -0.5327  0.3321
  252MOL0     C33897   1.399  10.449   1.618  0.1192  0.0576 -0.1297
  252MOL0     C33898   1.319  10.319   1.594  1.0731 -0.1237  0.8528
  252MOL0     C33899   1.181  10.321   1.668  0.2469 -0.1001  0.2066
  252MOL0     C33900   1.111  10.177   1.670 -0.4669 -0.2383 -0.7996
  252MOL0     C33901   0.972  10.182   1.721  0.3065 -0.2299 -0.2771
  252MOL0     N33902   0.875  10.236   1.624 -0.3010  0.5188 -0.4558
  252MOL0     C33903   0.814  10.165   1.525 -0.1852 -0.2050  0.6730
  252MOL0     C33904   0.712  10.248   1.482 -0.2298  0.3529  0.0522
  252MOL0     C33905   0.603  10.220   1.383  0.5715  0.1037  0.4692
  252MOL0     C33906   0.480  10.174   1.450  0.0783 -0.5069  0.0890
  252MOL0     C33907   0.486  10.038   1.508 -0.0126  0.2106 -0.0023
  252MOL0     C33908   0.348   9.975   1.530  0.2200 -0.1339  0.5703
  252MOL0     O33909   0.282   9.955   1.401 -0.0052 -0.0879  0.5551
  252MOL0     C33910   0.156   9.900   1.395 -0.0806 -0.3442 -0.1259
  252MOL0     C33911   0.091   9.892   1.270 -0.3623  0.1568 -0.4475
  252MOL0     C33912  -0.042   9.849   1.251  0.0596 -0.2959  0.5543
  252MOL0     C33913  -0.102   9.850   1.110  0.2562 -0.5720 -0.3689
  252MOL0     C33914  -0.113   9.807   1.360  0.9776 -0.1424  0.1525
  252MOL0     C33915  -0.248   9.760   1.350  0.6153  0.2935  0.2061
  252MOL0     O33916  -0.272   9.677   1.244  0.5467 -0.7405 -0.8461
  252MOL0     C33917  -0.392   9.681   1.179  0.4789 -0.5892  1.0584
  252MOL0     C33918  -0.456   9.803   1.142 -0.3599 -0.1362 -0.5387
  252MOL0     C33919  -0.585   9.798   1.077 -0.2298 -0.4364  0.3312
  252MOL0     C33920  -0.650   9.673   1.055 -0.7941  0.0396 -0.6317
  252MOL0     O33921  -0.761   9.648   0.984 -0.4296 -1.0793 -0.7762
  252MOL0     C33922  -0.830   9.775   0.947 -1.1101  0.6748 -0.6103
  252MOL0     C33923  -0.954   9.740   0.858  0.6894 -0.0228 -0.4432
  252MOL0     C33924  -1.078   9.832   0.903 -0.1989  0.2693  0.1760
  252MOL0     C33925  -1.217   9.773   0.843 -0.4889 -0.2680  0.0350
  252MOL0     C33926  -1.254   9.635   0.911 -0.2862 -0.0524  0.1026
  252MOL0     C33927  -1.329   9.563   0.806 -0.2293  0.4481 -0.0590
  252MOL0     C33928  -1.420   9.446   0.855 -0.4189  0.1973 -0.2718
  252MOL0     C33929  -1.473   9.350   0.748 -0.4390  0.2193  0.1904
  252MOL0    Cl33930  -1.509   9.444   0.599 -0.0041  0.5645  0.2617
  252MOL0     C33931  -0.585   9.554   1.084 -0.5836  0.7283  0.0947
  252MOL0     C33932  -0.452   9.558   1.140  0.6758 -0.3229 -0.2463
  252MOL0     O33933  -0.331   9.801   1.431  0.3186  0.0217  0.3193
  252MOL0     C33934  -0.048   9.817   1.490  0.5405 -0.5192 -0.4406
  252MOL0     C33935   0.087   9.850   1.502  0.4493  0.0512 -0.8075
  252MOL0     N33936   0.725  10.370   1.555 -0.5163  0.2221  0.4231
  252MOL0     N33937   0.826  10.363   1.629  0.5237 -0.3171 -0.6805
  252MOL0     C33938   1.876  10.494   1.870 -0.2839 -0.1478 -0.0379
  252MOL0     C33939   2.016  10.462   1.849  0.9404 -0.2733  0.6029
  252MOL0     C33940   2.448  10.462   1.724  1.1408  0.3084  0.5917
  252MOL0     C33941   2.514  10.584   1.744  0.1490  0.2750 -0.2268
  252MOL0     C33942   2.655  10.578   1.741  0.1717  0.0473 -0.3256
  252MOL0     C33943   2.729  10.455   1.727  1.1926 -0.4206  0.5999
  252MOL0     O33944   2.866  10.469   1.740  0.0845  0.1475 -0.3876
  252MOL0     C33945   2.941  10.354   1.780  0.2577 -0.9251  0.1833
  252MOL0     C33946   3.085  10.409   1.812 -0.2872 -0.1787  0.3550
  252MOL0     C33947   3.088  10.469   1.955 -0.4514  0.1409 -0.8642
  252MOL0     C33948   3.228  10.477   2.015 -0.3470 -0.3808  0.2273
  252MOL0     C33949   3.222  10.515   2.149  0.5301  0.1791  0.0687
  252MOL0     C33950   3.213  10.554   2.262 -0.4456 -0.0075 -0.5611
  252MOL0     C33951   2.655  10.338   1.732 -0.3601  0.3907 -0.2190
  252MOL0     C33952   2.519  10.347   1.720 -1.0143  0.5749 -1.0374
  252MOL0     H33953   2.143  10.769   1.843 -2.2314  2.1564  0.9800
  252MOL0     H33954   1.908  10.828   1.896  1.3160 -0.0014 -0.3337
  252MOL0     H33955   1.615  10.501   1.965  1.2354  1.3813  3.3946
  252MOL0     H33956   1.511  10.640   1.955  0.9911  1.7601 -1.2043
  252MOL0     H33957   1.542  10.642   1.708 -3.4808 -0.4993 -0.4737
  252MOL0     H33958   1.659  10.515   1.715 -2.0738  0.3834 -1.8598
  252MOL0     H33959   1.512  10.351   1.767  3.0068  0.5571 -1.0091
  252MOL0     H33960   1.388  10.463   1.834  0.9946 -1.3643  0.9648
  252MOL0     H33961   1.339  10.539   1.604  0.8914  0.6053 -0.0235
  252MOL0     H33962   1.480  10.464   1.546 -1.7794  2.4692 -1.9429
  252MOL0     H33963   1.292  10.318   1.488  0.4807 -0.1540  1.0039
  252MOL0     H33964   1.373  10.226   1.613  0.8812 -1.1391 -2.7327
  252MOL0     H33965   1.201  10.348   1.772 -0.6584  1.2221  0.0487
  252MOL0     H33966   1.114  10.398   1.630 -1.0474 -1.1437  0.3042
  252MOL0     H33967   1.113  10.132   1.571 -1.2433  0.8350 -1.3197
  252MOL0     H33968   1.171  10.097   1.716  0.0107 -0.7616 -2.2835
  252MOL0     H33969   0.978  10.252   1.805  0.4640 -0.6533  0.0676
  252MOL0     H33970   0.931  10.089   1.761  0.5813  0.4697  1.7800
  252MOL0     H33971   0.827  10.060   1.498 -0.6178  0.1536 -1.0420
  252MOL0     H33972   0.575  10.316   1.338 -0.8510  0.6269  2.3206
  252MOL0     H33973   0.636  10.155   1.301 -1.5142  1.7413 -1.8556
  252MOL0     H33974   0.409  10.176   1.367 -0.6337 -1.9576  0.6442
  252MOL0     H33975   0.444  10.243   1.526 -0.0004  0.2508 -0.6247
  252MOL0     H33976   0.517  10.051   1.612  1.4981 -1.5523 -0.1843
  252MOL0     H33977   0.545   9.957   1.464 -0.7128 -1.7426  2.4400
  252MOL0     H33978   0.289  10.040   1.595 -1.8342 -0.7704 -0.5594
  252MOL0     H33979   0.351   9.877   1.579 -2.1050 -0.5398  0.0135
  252MOL0     H33980   0.149   9.917   1.181 -1.4681 -0.9945 -1.5374
  252MOL0     H33981  -0.045   9.917   1.045  1.4315 -0.4672  0.7253
  252MOL0     H33982  -0.101   9.748   1.072 -1.3547 -1.2332  1.1998
  252MOL0     H33983  -0.208   9.874   1.107 -0.3014 -2.8061 -0.3524
  252MOL0     H33984  -0.414   9.898   1.171 -1.5508  0.3504 -0.3416
  252MOL0     H33985  -0.644   9.887   1.057  0.9636  0.1441 -0.7637
  252MOL0     H33986  -0.854   9.829   1.039 -0.9698 -1.6681  0.8831
  252MOL0     H33987  -0.763   9.838   0.887  1.3946 -1.5279 -0.2760
  252MOL0     H33988  -0.936   9.760   0.752 -1.1383  2.7558 -0.3280
  252MOL0     H33989  -0.984   9.637   0.880 -1.3198  0.5442 -0.3092
  252MOL0     H33990  -1.068   9.934   0.863  0.0773 -0.3895 -1.5278
  252MOL0     H33991  -1.088   9.837   1.012 -0.3524  1.3535  0.1236
  252MOL0     H33992  -1.305   9.836   0.858  0.6016  0.9206  1.8851
  252MOL0     H33993  -1.211   9.763   0.735  0.0199 -0.5154  0.0847
  252MOL0     H33994  -1.317   9.652   0.999 -1.1177 -0.5227 -0.3823
  252MOL0     H33995  -1.168   9.576   0.941  0.4837  1.3369  0.7090
  252MOL0     H33996  -1.405   9.628   0.762  0.1215  0.5875 -0.4593
  252MOL0     H33997  -1.262   9.525   0.729 -0.5344  0.6889 -0.4464
  252MOL0     H33998  -1.502   9.489   0.913 -2.4494 -1.7829 -1.5205
  252MOL0     H33999  -1.350   9.381   0.909  0.5621  1.9901  0.6886
  252MOL0     H34000  -1.556   9.289   0.785  0.5655 -0.7115  1.0035
  252MOL0     H34001  -1.395   9.284   0.711  0.9046  2.9051 -2.1976
  252MOL0     H34002  -0.628   9.458   1.058  0.7461 -0.0414  0.6321
  252MOL0     H34003  -0.403   9.463   1.159  1.0243 -0.0431  0.2836
  252MOL0     H34004  -0.101   9.802   1.584  1.1797  1.7993  0.3753
  252MOL0     H34005   0.138   9.866   1.597 -2.4611 -1.4529  1.1411
  252MOL0     H34006   1.822  10.406   1.902  1.7578 -2.1719 -1.7377
  252MOL0     H34007   2.050  10.360   1.860  1.8353 -0.2634 -1.6740
  252MOL0     H34008   2.467  10.680   1.766 -0.1931 -0.6407  3.9211
  252MOL0     H34009   2.722  10.664   1.743 -1.1298  1.0934  1.4255
  252MOL0     H34010   2.903  10.296   1.864  0.2332  0.3441  1.0774
  252MOL0     H34011   2.951  10.297   1.686  1.8480  0.2194 -0.4022
  252MOL0     H34012   3.101  10.489   1.739  1.3976  1.0349  1.9607
  252MOL0     H34013   3.167  10.339   1.792  1.1209  1.7195 -0.8369
  252MOL0     H34014   3.030  10.409   2.026  0.2294  1.6424  1.0496
  252MOL0     H34015   3.041  10.568   1.951 -1.0116 -0.0616  0.3193
  252MOL0     H34016   3.284  10.550   1.955  1.4546 -2.5526 -0.8795
  252MOL0     H34017   3.289  10.387   2.002  3.3369  1.8770  0.5134
  252MOL0     H34018   3.218  10.592   2.362 -1.2400  2.4152 -1.3795
  252MOL0     H34019   2.702  10.240   1.727 -2.8142 -0.7843 -2.5046
  252MOL0     H34020   2.459  10.257   1.711  2.0315 -2.2482  3.0636
  253MOL0     O34021   1.764   2.217   4.584 -0.1732 -0.2778 -0.2035
  253MOL0     C34022   1.780   2.094   4.590  0.4797 -0.9924  0.2955
  253MOL0     O34023   1.677   1.997   4.573 -0.6058 -0.0733 -0.2546
  253MOL0     C34024   1.544   2.004   4.599 -0.1975 -0.6515  0.0217
  253MOL0     C34025   1.485   2.110   4.671 -0.0311  0.0301  0.2101
  253MOL0     C34026   1.348   2.128   4.676  0.2178 -0.3275  0.4873
  253MOL0     C34027   1.262   2.032   4.618 -0.0651 -0.2779  0.2090
  253MOL0     O34028   1.124   2.053   4.628 -0.9839  0.1791 -0.5315
  253MOL0     C34029   1.043   2.003   4.528 -0.6942  0.2003 -0.3761
  253MOL0     C34030   0.977   1.866   4.548 -0.4930 -0.1109  0.7655
  253MOL0     C34031   0.872   1.883   4.658 -0.0816  0.2759 -0.6907
  253MOL0     C34032   0.788   1.756   4.673  1.1867 -0.0602 -0.5227
  253MOL0     C34033   0.683   1.780   4.783  0.6499 -0.0548 -0.3199
  253MOL0     C34034   0.553   1.836   4.725 -0.1358  0.3591 -0.2754
  253MOL0     C34035   0.459   1.845   4.846 -0.4219  0.1836 -0.2340
  253MOL0     C34036   0.329   1.920   4.817  0.6053 -0.9723 -0.4966
  253MOL0     N34037   0.240   1.851   4.726 -0.2517  0.5137  0.2707
  253MOL0     C34038   0.212   1.712   4.725 -0.9809  0.4434  0.6648
  253MOL0     C34039   0.151   1.686   4.611 -0.0792  0.0390 -0.0171
  253MOL0     C34040   0.130   1.546   4.547  0.7261  0.3348  0.6194
  253MOL0     C34041   0.002   1.535   4.459 -0.3090 -0.1547 -0.6921
  253MOL0     C34042  -0.118   1.551   4.562 -1.0157 -0.7036 -0.3202
  253MOL0     C34043  -0.242   1.507   4.482  0.1379  0.9131 -0.1404
  253MOL0     O34044  -0.235   1.362   4.481  0.5083 -0.7034  0.1413
  253MOL0     C34045  -0.357   1.296   4.465 -0.4868 -0.8213  0.2434
  253MOL0     C34046  -0.338   1.163   4.503  0.3527  0.4282  0.2219
  253MOL0     C34047  -0.445   1.071   4.493 -0.4961  0.0104 -0.4599
  253MOL0     C34048  -0.413   0.929   4.536  0.4854 -0.5949  0.0432
  253MOL0     C34049  -0.579   1.121   4.450 -1.7741 -0.1764  0.1969
  253MOL0     C34050  -0.702   1.039   4.442 -0.4698  0.2730 -0.6127
  253MOL0     O34051  -0.823   1.109   4.424  0.7297 -0.5171  0.9383
  253MOL0     C34052  -0.940   1.050   4.453 -0.3322 -0.1738 -0.2672
  253MOL0     C34053  -1.040   1.041   4.358 -0.3752 -0.8039 -0.0911
  253MOL0     C34054  -1.163   0.976   4.377  0.2643 -0.5585 -0.5764
  253MOL0     C34055  -1.182   0.912   4.505 -0.4632 -0.5479  0.0928
  253MOL0     O34056  -1.301   0.856   4.552 -0.1394  0.2901 -0.4315
  253MOL0     C34057  -1.403   0.824   4.452 -0.4682 -0.3397 -0.5350
  253MOL0     C34058  -1.534   0.755   4.499  0.2637 -0.0529 -0.5463
  253MOL0     C34059  -1.648   0.855   4.468 -0.6669 -0.1928  0.1517
  253MOL0     C34060  -1.783   0.794   4.471  0.6326  0.2774 -1.0294
  253MOL0     C34061  -1.878   0.900   4.420 -0.5938  0.4977 -0.8644
  253MOL0     C34062  -2.017   0.853   4.392  0.4910  0.6312  0.8467
  253MOL0     C34063  -2.098   0.812   4.510 -1.1068  0.1474  0.1657
  253MOL0     C34064  -2.240   0.765   4.471 -0.2262  0.6901 -0.1138
  253MOL0    Cl34065  -2.300   0.642   4.587  0.0723  0.0976  0.0624
  253MOL0     C34066  -1.076   0.913   4.596  1.6957  0.1483 -0.0773
  253MOL0     C34067  -0.959   0.983   4.571 -0.5631  0.1854  0.6725
  253MOL0     O34068  -0.694   0.914   4.448 -0.1857 -0.0657  0.2455
  253MOL0     C34069  -0.589   1.257   4.412 -0.0119  0.3004  0.4713
  253MOL0     C34070  -0.482   1.344   4.424 -0.5893  0.0324 -0.7214
  253MOL0     N34071   0.140   1.803   4.536  0.0125  0.4108  0.0361
  253MOL0     N34072   0.206   1.896   4.607  0.4156 -0.3135  0.8383
  253MOL0     C34073   1.323   1.924   4.547  0.2739 -0.1446 -0.3428
  253MOL0     C34074   1.461   1.909   4.536  0.2423  0.4244  0.4136
  253MOL0     C34075   1.914   2.051   4.639 -0.0563 -0.2674 -0.1939
  253MOL0     C34076   1.936   1.915   4.680 -0.4807  0.7417  0.8827
  253MOL0     C34077   2.067   1.869   4.701 -0.5596  0.1697 -0.8746
  253MOL0     C34078   2.177   1.953   4.708  0.5308 -0.5240 -0.8086
  253MOL0     O34079   2.297   1.898   4.745 -0.5200 -0.9061  0.0693
  253MOL0     C34080   2.408   1.978   4.783  0.0075 -0.7071 -0.2927
  253MOL0     C34081   2.513   1.897   4.852 -0.3019 -0.1258  0.3766
  253MOL0     C34082   2.475   1.851   5.004 -0.1794  0.8366 -0.5324
  253MOL0     C34083   2.591   1.820   5.094 -0.0533  0.1815 -0.5609
  253MOL0     C34084   2.672   1.699   5.054 -0.3376  0.3364  0.5234
  253MOL0     C34085   2.729   1.596   5.015  0.2544 -0.5903 -0.4788
  253MOL0     C34086   2.149   2.085   4.685 -0.4841 -0.3903  0.4294
  253MOL0     C34087   2.025   2.138   4.652 -0.1040  0.1074 -0.1134
  253MOL0     H34088   1.547   2.186   4.716  0.4261 -0.7746  0.9794
  253MOL0     H34089   1.313   2.216   4.728  1.3195 -0.0127  0.7124
  253MOL0     H34090   0.965   2.074   4.501 -0.4528 -0.6098 -3.6245
  253MOL0     H34091   1.111   2.001   4.443 -1.3094 -1.1569 -0.8671
  253MOL0     H34092   0.925   1.824   4.462 -0.2919 -0.1060  0.6411
  253MOL0     H34093   1.051   1.792   4.582  1.9450  1.8286 -0.0597
  253MOL0     H34094   0.931   1.911   4.746  0.2428 -1.1723 -0.4346
  253MOL0     H34095   0.805   1.965   4.631  1.1766  1.8687  0.7537
  253MOL0     H34096   0.756   1.723   4.574 -2.2581 -0.0635  0.4533
  253MOL0     H34097   0.851   1.679   4.718 -1.3304 -0.0595  3.5322
  253MOL0     H34098   0.655   1.682   4.824 -0.2600  0.3576  0.0679
  253MOL0     H34099   0.731   1.844   4.857  2.5615 -1.6002 -0.1215
  253MOL0     H34100   0.569   1.932   4.676  4.4829 -0.6049 -1.1171
  253MOL0     H34101   0.522   1.773   4.641  1.4935 -0.4523 -0.3219
  253MOL0     H34102   0.433   1.747   4.889 -2.5323  0.9161  0.2621
  253MOL0     H34103   0.510   1.905   4.922  3.7570 -1.3982 -1.4859
  253MOL0     H34104   0.353   2.015   4.769 -0.6507 -0.1119  0.5022
  253MOL0     H34105   0.266   1.948   4.902 -1.7437  2.9973 -3.2016
  253MOL0     H34106   0.254   1.647   4.800  3.3658  0.1632 -1.6777
  253MOL0     H34107   0.213   1.515   4.483 -0.0289 -1.8977  0.6156
  253MOL0     H34108   0.122   1.471   4.627  1.5185 -0.3807  0.0456
  253MOL0     H34109   0.016   1.439   4.408  1.0425 -0.5810  0.4278
  253MOL0     H34110  -0.007   1.606   4.376 -1.2184 -0.6456 -1.0310
  253MOL0     H34111  -0.130   1.649   4.608 -0.2559  0.2793 -2.0886
  253MOL0     H34112  -0.114   1.474   4.639 -1.6210 -0.1616  0.2646
  253MOL0     H34113  -0.251   1.537   4.377 -3.7939  2.9537  0.5625
  253MOL0     H34114  -0.329   1.548   4.534  0.1473  0.9578 -0.1596
  253MOL0     H34115  -0.239   1.136   4.539  0.1022 -1.5370 -0.4309
  253MOL0     H34116  -0.306   0.906   4.532  0.4686 -0.6336 -0.2075
  253MOL0     H34117  -0.448   0.893   4.633 -1.2932 -1.1302 -0.7596
  253MOL0     H34118  -0.451   0.853   4.467  1.6303  0.0109 -1.3111
  253MOL0     H34119  -1.016   1.101   4.271  4.2489  4.0917  3.8162
  253MOL0     H34120  -1.242   0.990   4.304  1.5911 -1.3104 -2.2347
  253MOL0     H34121  -1.425   0.921   4.407  0.5156 -0.6600 -1.7614
  253MOL0     H34122  -1.351   0.762   4.378  0.1514  1.3715 -1.5881
  253MOL0     H34123  -1.544   0.668   4.434  0.0053  0.4853 -1.2306
  253MOL0     H34124  -1.516   0.737   4.606 -2.7075 -1.5393 -0.1831
  253MOL0     H34125  -1.639   0.889   4.365 -2.3201 -0.0418  0.0404
  253MOL0     H34126  -1.644   0.941   4.536  0.9408  0.4018 -0.6551
  253MOL0     H34127  -1.790   0.706   4.406  2.1091  0.0195 -0.8723
  253MOL0     H34128  -1.813   0.767   4.572 -0.2032 -0.2964 -1.4207
  253MOL0     H34129  -1.844   0.922   4.318 -2.6728 -1.8360 -2.1825
  253MOL0     H34130  -1.877   0.982   4.493 -0.7543  1.7401 -2.1994
  253MOL0     H34131  -2.078   0.923   4.334  0.4267  0.8582  1.1934
  253MOL0     H34132  -2.008   0.777   4.313 -1.4406 -0.7583  1.8758
  253MOL0     H34133  -2.113   0.881   4.593 -2.2458  0.1216 -0.0014
  253MOL0     H34134  -2.044   0.728   4.554  0.9325  1.9586  1.3192
  253MOL0     H34135  -2.245   0.721   4.371 -2.7054 -2.0464  1.0492
  253MOL0     H34136  -2.304   0.853   4.469  0.7537  1.5009  2.0247
  253MOL0     H34137  -1.079   0.854   4.687  0.7302 -0.2594 -0.3593
  253MOL0     H34138  -0.882   0.975   4.647  0.3231 -2.8994 -0.3710
  253MOL0     H34139  -0.686   1.289   4.374  0.2579  1.6364  0.8657
  253MOL0     H34140  -0.500   1.446   4.392 -2.5500  0.5191  1.6154
  253MOL0     H34141   1.258   1.847   4.506  0.4290  0.4728 -1.8008
  253MOL0     H34142   1.510   1.830   4.481  0.6970  1.2443 -0.3827
  253MOL0     H34143   1.851   1.848   4.672 -0.6577  1.1984 -3.1305
  253MOL0     H34144   2.079   1.763   4.721  2.0844  0.4398 -0.6985
  253MOL0     H34145   2.462   2.022   4.698 -1.7270 -0.0642 -1.1070
  253MOL0     H34146   2.372   2.053   4.853 -0.5676 -1.0633 -0.2031
  253MOL0     H34147   2.607   1.952   4.846  0.2146 -0.8977  1.1999
  253MOL0     H34148   2.525   1.806   4.793 -2.5197 -1.7707  2.2694
  253MOL0     H34149   2.413   1.761   5.005  1.7779 -0.6020  2.1249
  253MOL0     H34150   2.413   1.931   5.044 -1.5903  1.6086 -3.8785
  253MOL0     H34151   2.569   1.822   5.201 -2.0991 -5.5915 -0.5269
  253MOL0     H34152   2.663   1.902   5.089  1.3458 -0.8572  1.2876
  253MOL0     H34153   2.794   1.511   5.003  0.6022 -0.3373 -0.4123
  253MOL0     H34154   2.219   2.160   4.720  0.2633 -0.4368 -0.8894
  253MOL0     H34155   2.008   2.243   4.629 -4.1052 -0.1575  1.0030
  254MOL0     O34156   6.256   3.748   8.745  0.7701 -1.0786 -0.1095
  254MOL0     C34157   6.322   3.753   8.647 -0.3983 -0.7855  0.4399
  254MOL0     O34158   6.280   3.716   8.521 -0.8166 -0.2678 -0.1140
  254MOL0     C34159   6.156   3.658   8.520 -0.6735 -0.2356 -0.4345
  254MOL0     C34160   6.126   3.532   8.580  0.3785 -0.3306 -0.3310
  254MOL0     C34161   5.997   3.475   8.580  0.2426 -0.4661 -0.3899
  254MOL0     C34162   5.899   3.538   8.501  0.7113 -0.0242  0.5393
  254MOL0     O34163   5.775   3.486   8.495 -1.1818  0.4047 -0.5827
  254MOL0     C34164   5.756   3.386   8.405 -0.3577  0.4994  0.8024
  254MOL0     C34165   5.713   3.454   8.279 -0.1883 -0.2989 -0.2295
  254MOL0     C34166   5.623   3.359   8.196  0.8258  0.1803  0.1346
  254MOL0     C34167   5.602   3.415   8.054  0.8287  0.3002  0.4251
  254MOL0     C34168   5.510   3.335   7.964  0.3892  0.1091 -0.0539
  254MOL0     C34169   5.497   3.392   7.829 -0.5245 -1.0841  0.1596
  254MOL0     C34170   5.390   3.326   7.734 -0.2532 -0.0060 -0.5252
  254MOL0     C34171   5.434   3.179   7.692 -0.5374 -0.8143  0.1677
  254MOL0     N34172   5.333   3.127   7.604  0.0047 -0.2942  0.0551
  254MOL0     C34173   5.201   3.165   7.594 -0.5531  0.5594  0.1080
  254MOL0     C34174   5.151   3.080   7.497  0.8010  0.5067 -0.4902
  254MOL0     C34175   5.006   3.091   7.463 -0.1213  0.1657 -0.7757
  254MOL0     C34176   4.969   3.229   7.397 -0.6038  0.5496 -0.2877
  254MOL0     C34177   4.842   3.212   7.326 -0.1061  0.5966  0.5877
  254MOL0     C34178   4.803   3.331   7.238 -0.6476 -0.6868  0.1743
  254MOL0     O34179   4.673   3.311   7.191 -0.5589 -0.5002  0.4114
  254MOL0     C34180   4.565   3.322   7.276 -0.4527  0.7629 -0.5677
  254MOL0     C34181   4.557   3.406   7.387 -1.0595  0.1877  0.6185
  254MOL0     C34182   4.436   3.438   7.451  0.0825 -0.1414  0.4809
  254MOL0     C34183   4.431   3.534   7.558 -0.7521 -0.5475  0.0038
  254MOL0     C34184   4.318   3.357   7.415  0.4539 -0.2115  0.0832
  254MOL0     C34185   4.186   3.382   7.474  0.7865 -0.0261  0.0938
  254MOL0     O34186   4.074   3.416   7.401 -1.1122 -0.1875 -0.7571
  254MOL0     C34187   3.968   3.450   7.477  0.2209 -0.4888  0.3076
  254MOL0     C34188   3.884   3.369   7.551  0.4088 -0.7256  0.1196
  254MOL0     C34189   3.759   3.407   7.589  0.5314 -0.0084 -0.5241
  254MOL0     C34190   3.724   3.546   7.579  0.0179 -0.7084  0.2033
  254MOL0     O34191   3.600   3.580   7.635 -0.0944 -0.2567 -0.0963
  254MOL0     C34192   3.548   3.711   7.607 -0.5629 -0.6777 -0.4205
  254MOL0     C34193   3.417   3.705   7.686  0.3584  0.9311 -0.0389
  254MOL0     C34194   3.345   3.837   7.677  0.2768 -0.5464 -1.0919
  254MOL0     C34195   3.214   3.835   7.754  0.7714  0.0511  0.1117
  254MOL0     C34196   3.125   3.955   7.713  0.5702 -0.3288 -0.0625
  254MOL0     C34197   2.987   3.972   7.777 -0.1034  0.0628  0.4034
  254MOL0     C34198   2.907   3.843   7.762 -0.8604 -0.3096  0.0928
  254MOL0     C34199   2.758   3.863   7.785 -0.8352 -0.3711 -0.1887
  254MOL0    Cl34200   2.679   3.715   7.805  0.2968  0.4812  0.3195
  254MOL0     C34201   3.814   3.635   7.519 -0.3945 -1.0054 -0.8692
  254MOL0     C34202   3.931   3.588   7.464 -0.1480 -0.0503 -0.1953
  254MOL0     O34203   4.188   3.372   7.599  0.9148  0.6775 -0.4499
  254MOL0     C34204   4.331   3.258   7.317  0.2086 -0.2297  0.1005
  254MOL0     C34205   4.452   3.248   7.255  0.2676  0.6897  0.2885
  254MOL0     N34206   5.257   3.011   7.437 -0.4038 -0.6625 -0.3275
  254MOL0     N34207   5.363   3.039   7.501  0.1864 -0.0214 -0.1489
  254MOL0     C34208   5.924   3.656   8.434 -0.3603  0.1413  0.0480
  254MOL0     C34209   6.052   3.717   8.446 -0.3370 -0.0501 -0.8112
  254MOL0     C34210   6.471   3.785   8.661  0.3940 -0.0340  0.9347
  254MOL0     C34211   6.559   3.804   8.559  0.9655  0.5685  0.0258
  254MOL0     C34212   6.686   3.845   8.580 -0.1425  0.1497  0.2694
  254MOL0     C34213   6.738   3.874   8.704 -0.2353  0.1654 -0.4800
  254MOL0     O34214   6.863   3.904   8.738  0.1008 -0.4895  0.0928
  254MOL0     C34215   6.946   3.983   8.658  0.3150 -0.5084 -0.6411
  254MOL0     C34216   7.087   3.921   8.655 -0.2009 -0.5948  0.4274
  254MOL0     C34217   7.185   4.040   8.624 -0.0443 -0.1941 -0.0606
  254MOL0     C34218   7.320   3.991   8.590 -0.2105 -0.7321 -0.3372
  254MOL0     C34219   7.399   4.089   8.517  0.4567 -0.2693 -0.4272
  254MOL0     C34220   7.476   4.156   8.454 -0.1349 -0.4244 -0.1215
  254MOL0     C34221   6.646   3.861   8.811  0.0190 -0.0533  0.5447
  254MOL0     C34222   6.511   3.819   8.794  0.1597 -0.7770 -0.5897
  254MOL0     H34223   6.191   3.479   8.648  0.9221 -1.0599 -1.3886
  254MOL0     H34224   5.978   3.390   8.644 -2.4699  0.4341  0.1333
  254MOL0     H34225   5.845   3.324   8.394 -1.4074 -1.4752  2.7527
  254MOL0     H34226   5.673   3.323   8.439 -2.4822  2.8411  0.2314
  254MOL0     H34227   5.658   3.548   8.295  0.0546 -0.2374  0.2370
  254MOL0     H34228   5.808   3.471   8.228  1.4641 -2.6330  1.8831
  254MOL0     H34229   5.659   3.256   8.192 -0.8858 -0.4403 -0.0208
  254MOL0     H34230   5.522   3.348   8.238  0.6899 -1.0573 -0.4684
  254MOL0     H34231   5.553   3.512   8.065 -1.1733 -0.0823 -3.3200
  254MOL0     H34232   5.695   3.429   7.998  0.7716  1.9173  0.6850
  254MOL0     H34233   5.553   3.236   7.945  3.0611  0.7505  2.0552
  254MOL0     H34234   5.415   3.342   8.018  0.9238  2.1260  0.7251
  254MOL0     H34235   5.466   3.497   7.838 -1.9238 -1.4359 -0.2362
  254MOL0     H34236   5.595   3.383   7.782 -0.7058  2.4876 -1.2075
  254MOL0     H34237   5.298   3.306   7.790  0.9941 -0.9286  1.3104
  254MOL0     H34238   5.377   3.386   7.643 -0.6075  3.1540  1.4736
  254MOL0     H34239   5.441   3.109   7.775  2.0050 -0.9901 -0.1124
  254MOL0     H34240   5.536   3.182   7.652 -0.4406  1.3830  0.4138
  254MOL0     H34241   5.147   3.227   7.665  1.1912 -1.3849  3.4029
  254MOL0     H34242   4.993   3.003   7.398  0.9926 -1.9805  1.7199
  254MOL0     H34243   4.962   3.074   7.562  1.6176 -0.5165 -0.0785
  254MOL0     H34244   5.049   3.268   7.333  1.1977  1.3527  2.3000
  254MOL0     H34245   4.950   3.305   7.473  0.9589  2.0736 -1.3489
  254MOL0     H34246   4.762   3.186   7.396  0.3381  2.8400  2.0387
  254MOL0     H34247   4.863   3.128   7.258 -1.4771 -0.8199  1.8378
  254MOL0     H34248   4.865   3.343   7.149 -0.9791  0.1706  0.0497
  254MOL0     H34249   4.801   3.428   7.288 -1.4933 -0.0531 -1.0276
  254MOL0     H34250   4.643   3.466   7.414  0.0152 -0.7235 -0.7131
  254MOL0     H34251   4.532   3.544   7.599 -1.1081 -1.5483  1.1894
  254MOL0     H34252   4.385   3.627   7.523  0.3386 -0.6948 -1.9485
  254MOL0     H34253   4.379   3.496   7.647  1.1335  1.5743  2.1755
  254MOL0     H34254   3.917   3.266   7.559 -2.0785 -1.5509  0.8160
  254MOL0     H34255   3.702   3.333   7.646 -0.9031  3.6235  3.2261
  254MOL0     H34256   3.600   3.794   7.656 -1.1500  0.9391 -2.3956
  254MOL0     H34257   3.542   3.730   7.500 -2.8093 -0.1434 -0.2578
  254MOL0     H34258   3.364   3.618   7.646  0.4476  1.3513 -1.0872
  254MOL0     H34259   3.440   3.682   7.791  0.1838 -1.0956 -0.4062
  254MOL0     H34260   3.322   3.867   7.575 -2.7564  0.5856 -0.1685
  254MOL0     H34261   3.415   3.912   7.713 -1.2270  0.8417 -0.9662
  254MOL0     H34262   3.156   3.747   7.725  4.3115 -2.7050  0.6704
  254MOL0     H34263   3.227   3.822   7.862 -2.6659  0.2317  0.6671
  254MOL0     H34264   3.108   3.947   7.605 -0.9951  0.8797  0.0564
  254MOL0     H34265   3.180   4.048   7.728  1.3935 -0.0037 -3.9520
  254MOL0     H34266   3.001   3.984   7.885 -1.4316 -0.3991  0.6542
  254MOL0     H34267   2.936   4.056   7.729  0.9564  1.7277  2.0623
  254MOL0     H34268   2.942   3.768   7.834  1.5688 -0.6199 -1.3224
  254MOL0     H34269   2.914   3.807   7.660  0.9439  2.0469 -0.7067
  254MOL0     H34270   2.708   3.916   7.703 -1.5432  0.6959  0.8947
  254MOL0     H34271   2.748   3.926   7.874  2.3649 -2.0410  1.5122
  254MOL0     H34272   3.794   3.741   7.527 -0.6465 -1.1997  1.9184
  254MOL0     H34273   3.983   3.660   7.403 -0.9078 -0.7932 -1.7752
  254MOL0     H34274   4.242   3.203   7.287  0.6815  0.6424 -3.3108
  254MOL0     H34275   4.456   3.176   7.175 -1.5106 -0.6882  1.3697
  254MOL0     H34276   5.839   3.682   8.372 -2.8698  0.7483  3.3868
  254MOL0     H34277   6.076   3.809   8.394  3.6643 -1.0470 -1.0190
  254MOL0     H34278   6.519   3.779   8.461 -1.6290 -1.2733  1.4645
  254MOL0     H34279   6.765   3.840   8.505  0.3674 -0.7992  0.8512
  254MOL0     H34280   6.908   3.994   8.556  0.4869 -2.2809 -0.9274
  254MOL0     H34281   6.964   4.083   8.698  1.9650 -0.5709 -1.1485
  254MOL0     H34282   7.103   3.849   8.574  2.1002  0.3713 -0.0637
  254MOL0     H34283   7.116   3.879   8.752  1.3157 -0.6787 -0.0379
  254MOL0     H34284   7.193   4.104   8.712 -0.0136 -1.2458  0.7270
  254MOL0     H34285   7.144   4.102   8.544 -1.1986 -0.3383  0.3911
  254MOL0     H34286   7.295   3.901   8.532 -0.8541 -0.3926 -0.5928
  254MOL0     H34287   7.371   3.957   8.681 -1.2527 -2.6240 -0.4089
  254MOL0     H34288   7.541   4.216   8.393 -1.0840  2.1550  1.2548
  254MOL0     H34289   6.689   3.895   8.905 -0.2192  0.7788  0.3597
  254MOL0     H34290   6.447   3.808   8.881  1.0091  0.1932  0.1895
  255MOL0     O34291   6.378   0.265  11.203  0.3281 -0.2210  0.2430
  255MOL0     C34292   6.423   0.357  11.268  0.3648 -0.6898 -0.8744
  255MOL0     O34293   6.356   0.467  11.308  0.0669  0.1171  0.4749
  255MOL0     C34294   6.219   0.496  11.288 -0.3581 -0.2463  0.0281
  255MOL0     C34295   6.151   0.488  11.171 -0.6921 -0.3257 -0.3222
  255MOL0     C34296   6.030   0.561  11.152  0.0049  0.0928  0.0490
  255MOL0     C34297   5.957   0.601  11.264 -0.5502  0.3559  0.4867
  255MOL0     O34298   5.842   0.672  11.241 -0.0542 -0.7240 -0.7015
  255MOL0     C34299   5.726   0.617  11.314 -0.6214  0.1366  0.7383
  255MOL0     C34300   5.619   0.726  11.308 -0.5464 -0.3912  0.5845
  255MOL0     C34301   5.508   0.706  11.415  0.7919 -0.0045 -0.0581
  255MOL0     C34302   5.382   0.792  11.381  0.4368  0.7121  0.1758
  255MOL0     C34303   5.279   0.798  11.499  0.0670 -0.2530 -0.0450
  255MOL0     C34304   5.169   0.896  11.469  1.0708 -0.8264 -0.3007
  255MOL0     C34305   5.065   0.913  11.585 -0.1110  0.5488  0.4486
  255MOL0     C34306   4.972   1.028  11.552 -0.1788  0.2073 -0.3862
  255MOL0     N34307   4.862   1.041  11.647  0.0332  0.1487 -0.3856
  255MOL0     C34308   4.786   1.159  11.665 -0.9309  0.2443 -0.9964
  255MOL0     C34309   4.734   1.139  11.793  0.3236 -0.6985  0.4426
  255MOL0     C34310   4.653   1.239  11.878 -0.2037  0.3697  1.1555
  255MOL0     C34311   4.503   1.196  11.913 -0.8177  0.7469 -0.4352
  255MOL0     C34312   4.481   1.087  12.029  0.3211 -0.3361  1.0296
  255MOL0     C34313   4.344   1.032  12.063 -0.3419  0.1846  0.1463
  255MOL0     O34314   4.249   1.135  12.060 -0.4775 -0.1629  0.1709
  255MOL0     C34315   4.114   1.104  12.087  0.1164 -0.0277  0.2778
  255MOL0     C34316   4.035   1.204  12.133  0.0741  0.6242 -0.3643
  255MOL0     C34317   3.889   1.187  12.137 -1.0458  0.2376  0.4847
  255MOL0     C34318   3.810   1.310  12.185  0.0852  0.2643  0.0281
  255MOL0     C34319   3.826   1.061  12.120  0.1350  0.1227 -0.0224
  255MOL0     C34320   3.678   1.031  12.133 -0.4507 -0.4095  0.1098
  255MOL0     O34321   3.638   0.913  12.082 -0.5605 -0.0351 -0.1915
  255MOL0     C34322   3.507   0.876  12.097  0.7415  0.0680  0.4251
  255MOL0     C34323   3.465   0.802  12.209  0.2498  0.0229  0.2882
  255MOL0     C34324   3.324   0.793  12.236  0.1577 -1.3416  0.1797
  255MOL0     C34325   3.231   0.820  12.137  0.8766  0.0953 -0.3052
  255MOL0     O34326   3.087   0.801  12.155 -1.0152 -0.4004  0.1506
  255MOL0     C34327   3.053   0.720  12.271  0.2181 -0.4171 -0.2780
  255MOL0     C34328   2.911   0.663  12.254  0.2699 -0.8033 -0.9643
  255MOL0     C34329   2.874   0.591  12.379 -0.2905 -0.1758 -0.0964
  255MOL0     C34330   2.740   0.520  12.354 -0.3987  0.3379 -0.8075
  255MOL0     C34331   2.615   0.605  12.377  0.2051 -0.7092 -0.1761
  255MOL0     C34332   2.482   0.537  12.374 -0.6120  0.0926  0.7419
  255MOL0     C34333   2.357   0.625  12.392 -0.0305 -0.9328 -0.2219
  255MOL0     C34334   2.220   0.562  12.393 -0.1314 -0.2211 -0.8592
  255MOL0    Cl34335   2.189   0.469  12.537  0.5897 -0.4771  0.1890
  255MOL0     C34336   3.271   0.876  12.016  1.3985 -0.2851 -0.3226
  255MOL0     C34337   3.409   0.909  12.001  0.8464  0.1634  0.2326
  255MOL0     O34338   3.609   1.118  12.189 -0.1121  0.7535 -0.4203
  255MOL0     C34339   3.918   0.958  12.078  0.9664 -0.1766 -0.3444
  255MOL0     C34340   4.053   0.988  12.052  0.6761 -0.0305 -0.1349
  255MOL0     N34341   4.782   1.016  11.842  0.0795  0.6005  0.0313
  255MOL0     N34342   4.853   0.962  11.752  0.1268  0.0673  0.1234
  255MOL0     C34343   6.015   0.581  11.392 -0.2200  0.8210 -0.0007
  255MOL0     C34344   6.149   0.536  11.399 -0.1199 -0.0948  0.2116
  255MOL0     C34345   6.564   0.372  11.280 -0.3891  0.9924  0.1871
  255MOL0     C34346   6.625   0.501  11.283 -0.5312  0.9618 -0.5111
  255MOL0     C34347   6.764   0.515  11.266 -0.1518 -0.2385  0.2168
  255MOL0     C34348   6.845   0.394  11.255 -1.4010 -0.8658  0.1352
  255MOL0     O34349   6.979   0.412  11.218  0.4867  0.4124 -0.4641
  255MOL0     C34350   7.056   0.298  11.229  0.3421  0.5454 -0.0330
  255MOL0     C34351   7.201   0.325  11.191 -0.0944  0.1346  1.2875
  255MOL0     C34352   7.284   0.377  11.303  0.5361 -0.1034  0.0863
  255MOL0     C34353   7.440   0.382  11.280 -0.5290  0.3673  0.4277
  255MOL0     C34354   7.466   0.471  11.158  0.0683  0.1167  0.3638
  255MOL0     C34355   7.506   0.543  11.062  0.4832 -0.6730 -0.8635
  255MOL0     C34356   6.785   0.269  11.276 -0.8478 -0.1466  0.0846
  255MOL0     C34357   6.645   0.255  11.288 -0.6807 -0.0956  0.1093
  255MOL0     H34358   6.210   0.457  11.085  3.9124  3.8050  0.9184
  255MOL0     H34359   5.983   0.576  11.055 -2.9758 -2.4757  0.9571
  255MOL0     H34360   5.690   0.526  11.264  1.4010  0.2406 -1.0670
  255MOL0     H34361   5.742   0.594  11.420  2.2268 -1.5720  0.0600
  255MOL0     H34362   5.672   0.821  11.313  0.3162 -0.8516  0.4926
  255MOL0     H34363   5.581   0.710  11.207  0.1361 -0.7704  0.3815
  255MOL0     H34364   5.482   0.600  11.423  1.9715 -0.4355 -1.5309
  255MOL0     H34365   5.545   0.733  11.515 -2.0028 -0.5769  1.2264
  255MOL0     H34366   5.425   0.890  11.356  0.4017  0.2740 -1.7020
  255MOL0     H34367   5.332   0.759  11.290 -0.2223  1.0421  0.4131
  255MOL0     H34368   5.235   0.704  11.535 -3.5970 -0.0653 -3.3522
  255MOL0     H34369   5.333   0.833  11.588 -0.0544  1.6323 -0.6794
  255MOL0     H34370   5.213   0.994  11.445  3.3592 -1.9154 -0.8911
  255MOL0     H34371   5.120   0.852  11.382  0.9555 -2.3661  0.5142
  255MOL0     H34372   5.010   0.819  11.596  0.7261  0.0360  0.3624
  255MOL0     H34373   5.125   0.925  11.676 -0.4003 -1.7933  1.0180
  255MOL0     H34374   4.933   0.998  11.454  1.1114 -0.9315 -0.5690
  255MOL0     H34375   5.035   1.115  11.532  1.6108 -1.6682 -4.0118
  255MOL0     H34376   4.786   1.255  11.615 -1.9001  0.6077 -0.3410
  255MOL0     H34377   4.702   1.251  11.975  0.7752  1.1588  0.5845
  255MOL0     H34378   4.670   1.332  11.823  1.9425 -0.3258  0.5734
  255MOL0     H34379   4.461   1.152  11.822 -1.3228  1.2186 -0.4396
  255MOL0     H34380   4.445   1.284  11.943 -2.4792  0.0688 -1.5090
  255MOL0     H34381   4.525   1.138  12.115  1.5376 -0.6273  0.5971
  255MOL0     H34382   4.541   0.998  12.005 -1.4742 -1.6916  1.3225
  255MOL0     H34383   4.346   0.989  12.163 -2.6108  0.5246  0.3954
  255MOL0     H34384   4.330   0.951  11.990  3.3157 -0.7440  0.2857
  255MOL0     H34385   4.087   1.296  12.158 -2.8611  2.4499 -0.5895
  255MOL0     H34386   3.759   1.291  12.280  0.9617 -4.4283 -0.1885
  255MOL0     H34387   3.876   1.396  12.204 -2.0986  2.0169  0.1309
  255MOL0     H34388   3.743   1.342  12.105  0.8576  1.8156 -0.0519
  255MOL0     H34389   3.537   0.771  12.285  0.4563 -2.7594 -0.9227
  255MOL0     H34390   3.291   0.758  12.333 -0.9731  0.1689  0.3697
  255MOL0     H34391   3.113   0.629  12.266 -1.6134 -1.7416  0.4222
  255MOL0     H34392   3.056   0.765  12.370 -1.7151 -2.0483  0.6035
  255MOL0     H34393   2.850   0.754  12.248  0.3036 -0.6073  1.0825
  255MOL0     H34394   2.903   0.606  12.161  1.7069 -2.1935 -0.2727
  255MOL0     H34395   2.881   0.661  12.463  2.8922 -0.0842 -0.3290
  255MOL0     H34396   2.954   0.521  12.402 -0.7362  0.5939  4.8511
  255MOL0     H34397   2.737   0.475  12.254  1.5387 -0.5011 -0.5290
  255MOL0     H34398   2.745   0.436  12.424  1.5426  1.0369 -0.0564
  255MOL0     H34399   2.607   0.681  12.298 -1.5021 -0.7588 -0.0765
  255MOL0     H34400   2.625   0.657  12.473  0.1115  0.3952 -0.7440
  255MOL0     H34401   2.459   0.482  12.283  0.2552 -3.0597  2.2852
  255MOL0     H34402   2.477   0.463  12.454  0.4534 -0.8568 -0.0381
  255MOL0     H34403   2.359   0.699  12.312  4.3225  0.7723  1.1680
  255MOL0     H34404   2.365   0.687  12.482  2.9073 -0.3467 -0.7601
  255MOL0     H34405   2.205   0.490  12.311  3.7949 -0.8749 -1.1774
  255MOL0     H34406   2.150   0.645  12.385 -3.0176 -2.3728  0.2150
  255MOL0     H34407   3.192   0.906  11.947  0.6038 -1.0519  0.2334
  255MOL0     H34408   3.419   0.969  11.911 -1.0447  2.8275  1.6753
  255MOL0     H34409   3.888   0.858  12.049 -1.4724 -0.5668  2.9946
  255MOL0     H34410   4.114   0.911  12.006 -0.6596 -1.2415  0.0524
  255MOL0     H34411   5.964   0.608  11.484 -1.0872 -0.2391 -0.1472
  255MOL0     H34412   6.188   0.526  11.500 -0.3910 -0.1688  0.3099
  255MOL0     H34413   6.561   0.589  11.286 -0.3824  1.0777  2.5106
  255MOL0     H34414   6.802   0.616  11.251 -0.9966  0.0537 -0.0319
  255MOL0     H34415   7.063   0.266  11.334  1.1346  0.2820 -0.1560
  255MOL0     H34416   7.028   0.217  11.161 -0.7341  0.9553 -0.0858
  255MOL0     H34417   7.203   0.397  11.108 -2.7439 -0.9679  0.1410
  255MOL0     H34418   7.239   0.232  11.146 -0.7425  0.8292 -0.8329
  255MOL0     H34419   7.275   0.325  11.399 -7.3601  0.1318  0.1248
  255MOL0     H34420   7.246   0.477  11.325 -2.6637 -1.4357  1.1873
  255MOL0     H34421   7.479   0.282  11.259  0.7719  1.1515 -1.0594
  255MOL0     H34422   7.501   0.428  11.358  0.5681 -0.8172  0.2934
  255MOL0     H34423   7.534   0.616  10.989 -0.0848  1.8766  1.3085
  255MOL0     H34424   6.838   0.177  11.296 -2.1156 -0.5444  1.8125
  255MOL0     H34425   6.613   0.155  11.316 -1.0803  0.6205  2.4473
  256MOL0     O34426   1.096   9.252  10.502  0.4241 -0.2801  0.7196
  256MOL0     C34427   1.140   9.187  10.597 -0.2062 -0.1383 -0.9216
  256MOL0     O34428   1.071   9.107  10.679 -0.2736  0.9317  0.2100
  256MOL0     C34429   0.941   9.086  10.665 -0.2444  0.5981  0.2188
  256MOL0     C34430   0.899   8.957  10.707 -0.1992  0.0763 -0.6178
  256MOL0     C34431   0.768   8.923  10.714 -0.6282  0.0414 -0.4834
  256MOL0     C34432   0.677   9.020  10.695 -0.4720 -0.5430 -0.1478
  256MOL0     O34433   0.541   8.994  10.696  0.1817 -0.5101  0.1791
  256MOL0     C34434   0.489   8.864  10.700 -0.2998 -0.2324 -0.6814
  256MOL0     C34435   0.333   8.866  10.678  0.2126 -0.3849 -0.0056
  256MOL0     C34436   0.291   8.922  10.539  0.0892 -0.1637  0.0436
  256MOL0     C34437   0.156   8.872  10.498  0.9024  0.3863  0.1725
  256MOL0     C34438   0.126   8.918  10.349  0.5142  0.6362  0.6762
  256MOL0     C34439  -0.027   8.923  10.318 -0.3090 -0.7699  0.3348
  256MOL0     C34440  -0.073   8.940  10.178  0.2257 -0.4412  0.1755
  256MOL0     C34441  -0.185   8.837  10.146  0.6828  0.1976  0.4510
  256MOL0     N34442  -0.318   8.879  10.193  0.0405 -0.4639  1.1480
  256MOL0     C34443  -0.409   8.958  10.117 -0.3394  0.2503  0.2895
  256MOL0     C34444  -0.515   8.975  10.204  0.0198 -0.4335  0.8940
  256MOL0     C34445  -0.645   9.049  10.175  0.2182 -0.0592  0.0824
  256MOL0     C34446  -0.763   8.959  10.215 -0.0864 -1.4000 -0.3723
  256MOL0     C34447  -0.775   8.836  10.126 -0.5659 -0.0926  0.1125
  256MOL0     C34448  -0.916   8.786  10.120 -0.0128  0.0393 -0.0098
  256MOL0     O34449  -0.959   8.740  10.250 -0.1661 -0.4822  0.1637
  256MOL0     C34450  -1.061   8.658  10.276 -0.6022 -0.5135  0.0014
  256MOL0     C34451  -1.078   8.619  10.410 -0.2712  0.1614  0.1422
  256MOL0     C34452  -1.176   8.523  10.441  0.2696 -0.0616  0.0463
  256MOL0     C34453  -1.202   8.496  10.591 -0.7117  0.1616 -0.7142
  256MOL0     C34454  -1.261   8.471  10.340 -0.4289 -0.4772 -0.6441
  256MOL0     C34455  -1.372   8.378  10.369 -0.3422  0.8250  0.4352
  256MOL0     O34456  -1.360   8.284  10.465 -0.4428  0.2948  1.0890
  256MOL0     C34457  -1.479   8.209  10.490 -0.8358 -0.8176  0.9146
  256MOL0     C34458  -1.575   8.268  10.569 -0.0779 -0.5206 -0.3246
  256MOL0     C34459  -1.693   8.194  10.587 -0.0717 -0.4650  0.1549
  256MOL0     C34460  -1.712   8.070  10.535 -0.0265 -0.0965  0.2193
  256MOL0     O34461  -1.821   8.006  10.572  0.4055 -0.2805  0.7145
  256MOL0     C34462  -1.886   7.915  10.479 -0.5478 -0.6166  0.2583
  256MOL0     C34463  -2.039   7.921  10.500 -0.1519  0.8463  0.9276
  256MOL0     C34464  -2.086   7.883  10.644 -0.5634  0.9003 -0.0772
  256MOL0     C34465  -2.236   7.891  10.651  0.1658 -0.5499 -0.0942
  256MOL0     C34466  -2.296   7.888  10.792  0.8229 -0.5502 -0.2907
  256MOL0     C34467  -2.258   7.776  10.887  0.5316 -0.4010  0.3096
  256MOL0     C34468  -2.331   7.786  11.018 -0.2906 -0.4653 -0.5020
  256MOL0     C34469  -2.481   7.753  11.007  0.4977 -0.1499  0.1273
  256MOL0    Cl34470  -2.496   7.576  10.988  0.4579 -0.6813  0.2423
  256MOL0     C34471  -1.598   8.007  10.475  0.4879 -0.5471 -0.4762
  256MOL0     C34472  -1.482   8.082  10.453 -0.0536  1.1057  0.2463
  256MOL0     O34473  -1.473   8.385  10.298  0.3787 -0.0396  0.3519
  256MOL0     C34474  -1.241   8.515  10.206 -0.2810  0.2346 -0.4668
  256MOL0     C34475  -1.149   8.607  10.178 -0.3592 -0.2750 -0.3270
  256MOL0     N34476  -0.481   8.916  10.323 -0.4249  0.0480  0.4441
  256MOL0     N34477  -0.363   8.864  10.315  0.5153 -0.7402 -0.6792
  256MOL0     C34478   0.708   9.152  10.662  0.0463 -0.5871 -0.0445
  256MOL0     C34479   0.842   9.185  10.634  0.6488 -0.1006  0.1028
  256MOL0     C34480   1.289   9.194  10.611  0.1187 -0.3620 -0.1125
  256MOL0     C34481   1.359   9.272  10.514  0.0382 -0.6817 -0.1189
  256MOL0     C34482   1.502   9.278  10.521 -0.3880 -0.9204 -0.2227
  256MOL0     C34483   1.574   9.206  10.617  0.6647 -0.3189 -0.1815
  256MOL0     O34484   1.704   9.211  10.632 -0.5543  0.2528 -0.6221
  256MOL0     C34485   1.790   9.279  10.539 -0.0492 -0.2610  0.1719
  256MOL0     C34486   1.939   9.236  10.568  0.1762 -0.2429  0.0297
  256MOL0     C34487   2.043   9.285  10.465  0.1362  0.3594 -1.0621
  256MOL0     C34488   2.184   9.244  10.511  0.1159  1.1169  0.6820
  256MOL0     C34489   2.278   9.288  10.408 -0.8046  0.6111  0.2159
  256MOL0     C34490   2.353   9.324  10.319 -0.1425 -1.2825 -1.2125
  256MOL0     C34491   1.498   9.135  10.714 -0.8999 -0.3016 -0.2332
  256MOL0     C34492   1.360   9.135  10.717 -0.3637 -0.2945  0.1960
  256MOL0     H34493   0.968   8.878  10.736 -0.3933  0.6118  1.4350
  256MOL0     H34494   0.756   8.819  10.742  1.8311 -0.0644  0.5050
  256MOL0     H34495   0.536   8.795  10.630  0.2743  0.3055 -0.8411
  256MOL0     H34496   0.503   8.825  10.801 -1.6425 -0.3565 -0.5330
  256MOL0     H34497   0.282   8.770  10.688 -3.6783  1.6149  1.4769
  256MOL0     H34498   0.278   8.933  10.745  0.4445  0.1965 -0.3901
  256MOL0     H34499   0.305   9.030  10.547  1.9479 -0.5208  3.5015
  256MOL0     H34500   0.374   8.891  10.475 -0.8804 -1.4861 -0.6146
  256MOL0     H34501   0.151   8.763  10.492 -1.8541  0.4920 -1.0401
  256MOL0     H34502   0.077   8.897  10.569 -0.1208 -1.4253 -0.2621
  256MOL0     H34503   0.164   9.019  10.331 -1.0578  1.0681 -0.3437
  256MOL0     H34504   0.171   8.849  10.277 -0.7860  0.0003  0.4536
  256MOL0     H34505  -0.075   8.830  10.348  0.5030 -1.4449 -0.4086
  256MOL0     H34506  -0.069   9.007  10.374 -3.1077 -1.3097 -0.7714
  256MOL0     H34507  -0.110   9.039  10.153  0.5717 -0.1818  0.6825
  256MOL0     H34508   0.020   8.932  10.120  0.3683  0.2006  0.3069
  256MOL0     H34509  -0.160   8.740  10.190 -2.1271 -0.6302  0.3861
  256MOL0     H34510  -0.176   8.817  10.039  0.1335 -0.7947  0.5750
  256MOL0     H34511  -0.409   8.987  10.012 -0.0150 -1.4688 -0.2127
  256MOL0     H34512  -0.645   9.141  10.233 -0.1149 -0.7299  1.1851
  256MOL0     H34513  -0.653   9.078  10.070 -3.0376  0.4931  0.3720
  256MOL0     H34514  -0.854   9.018  10.202  1.3207  0.6607 -1.5181
  256MOL0     H34515  -0.750   8.927  10.319  2.5541  2.1995  0.6135
  256MOL0     H34516  -0.708   8.756  10.159 -1.8207 -2.1169 -1.9061
  256MOL0     H34517  -0.753   8.862  10.022 -0.3923  0.9245  0.3918
  256MOL0     H34518  -0.916   8.709  10.042  0.6185  1.5659 -1.5701
  256MOL0     H34519  -0.983   8.865  10.086  0.3849  1.4478  2.2425
  256MOL0     H34520  -1.026   8.670  10.490 -1.7993  0.6228  0.8955
  256MOL0     H34521  -1.307   8.521  10.608 -0.2355  0.9736  1.2683
  256MOL0     H34522  -1.194   8.388  10.606 -0.3964  0.2280 -0.3928
  256MOL0     H34523  -1.146   8.557  10.663  0.5642 -1.4811 -0.2600
  256MOL0     H34524  -1.569   8.369  10.607 -1.1021 -1.0863  1.4295
  256MOL0     H34525  -1.779   8.238  10.635 -0.6585 -1.5881  0.1794
  256MOL0     H34526  -1.853   7.942  10.379 -2.3467  0.5106 -0.0725
  256MOL0     H34527  -1.858   7.812  10.502  1.0983  0.2815  2.7563
  256MOL0     H34528  -2.072   8.026  10.497 -1.1456  0.5232 -0.7413
  256MOL0     H34529  -2.084   7.866  10.417  0.9438  1.6256 -0.2284
  256MOL0     H34530  -2.042   7.950  10.718 -1.4184  3.7039 -1.9467
  256MOL0     H34531  -2.056   7.781  10.670 -0.3218  0.9144 -0.2915
  256MOL0     H34532  -2.272   7.982  10.602 -0.2717 -0.9127 -0.4516
  256MOL0     H34533  -2.274   7.803  10.597  0.6395 -1.7242  1.4174
  256MOL0     H34534  -2.404   7.891  10.776  0.7407 -1.8837 -0.0630
  256MOL0     H34535  -2.267   7.977  10.850  0.6342 -0.4494 -0.3491
  256MOL0     H34536  -2.290   7.683  10.839  1.6251 -0.2935 -0.6669
  256MOL0     H34537  -2.151   7.772  10.909  0.4184 -2.1033  0.6748
  256MOL0     H34538  -2.335   7.890  11.052  0.5889 -0.3598 -0.6863
  256MOL0     H34539  -2.294   7.723  11.100 -2.4812 -0.8435  0.2522
  256MOL0     H34540  -2.521   7.804  10.919  1.1467  2.7264  1.3788
  256MOL0     H34541  -2.534   7.777  11.099  1.2022 -3.5225  1.5820
  256MOL0     H34542  -1.588   7.902  10.452  1.8096 -0.2066 -1.6305
  256MOL0     H34543  -1.398   8.035  10.404 -0.5242  1.3968 -0.8730
  256MOL0     H34544  -1.309   8.471  10.134 -0.0653 -0.6083 -0.1638
  256MOL0     H34545  -1.137   8.644  10.077 -0.2722  0.5571 -0.0232
  256MOL0     H34546   0.629   9.226  10.656 -2.8109 -3.0239  3.3277
  256MOL0     H34547   0.862   9.286  10.600  0.3076 -0.7009 -1.9985
  256MOL0     H34548   1.309   9.337  10.443  0.2157 -1.3536 -0.8721
  256MOL0     H34549   1.548   9.337  10.443 -0.4181  0.4364  0.7407
  256MOL0     H34550   1.759   9.244  10.440 -0.3370 -0.0429  0.1832
  256MOL0     H34551   1.774   9.387  10.539  1.2322 -0.0444 -0.6622
  256MOL0     H34552   1.942   9.126  10.565  0.3695 -0.2337 -2.6741
  256MOL0     H34553   1.966   9.272  10.668  3.0523  0.8121 -1.0245
  256MOL0     H34554   2.041   9.394  10.476  1.8982  0.2741  0.8981
  256MOL0     H34555   2.019   9.250  10.365 -2.0727  1.0457 -0.8134
  256MOL0     H34556   2.180   9.137  10.533 -0.9082  0.4108 -2.4243
  256MOL0     H34557   2.210   9.297  10.603  2.6098  1.7511 -0.2954
  256MOL0     H34558   2.421   9.364  10.246  0.5929  0.3978  0.2915
  256MOL0     H34559   1.549   9.068  10.782  0.1696  0.9806  0.2755
  256MOL0     H34560   1.298   9.082  10.788 -0.5209 -2.5133 -1.4780
  257MOL0     O34561   8.800   8.603   6.383  0.2664  0.1696  0.5665
  257MOL0     C34562   8.889   8.583   6.298  0.3220  0.4115  0.5290
  257MOL0     O34563   8.869   8.584   6.163  0.5949 -0.9881  0.8718
  257MOL0     C34564   8.739   8.593   6.119 -0.7518  0.8171 -0.3411
  257MOL0     C34565   8.676   8.469   6.090  0.8431 -0.1652  0.2225
  257MOL0     C34566   8.545   8.472   6.038 -0.4774 -0.2770 -0.9473
  257MOL0     C34567   8.477   8.591   6.011  0.5764 -0.0159  0.9785
  257MOL0     O34568   8.353   8.580   5.950 -0.0941  0.0622  0.1883
  257MOL0     C34569   8.248   8.663   6.008  0.9357 -0.4802  0.6123
  257MOL0     C34570   8.165   8.566   6.101  0.0463  0.4913  0.4306
  257MOL0     C34571   8.055   8.496   6.018  0.0713 -0.0403  0.2954
  257MOL0     C34572   8.110   8.402   5.904  0.5317  0.0516  0.8562
  257MOL0     C34573   7.994   8.301   5.864 -0.1284  0.4643  0.4198
  257MOL0     C34574   7.889   8.371   5.775 -0.4435 -0.0390  0.0742
  257MOL0     C34575   7.800   8.271   5.723 -0.5880  0.6653  0.4573
  257MOL0     C34576   7.695   8.320   5.631  0.5716  0.6724  0.5046
  257MOL0     N34577   7.611   8.219   5.565  0.3298 -0.3885 -0.9572
  257MOL0     C34578   7.654   8.127   5.470 -0.0230  0.1111  0.6853
  257MOL0     C34579   7.553   8.034   5.465 -0.1940  0.2920 -0.4627
  257MOL0     C34580   7.535   7.903   5.383  0.3529 -0.1620  0.5210
  257MOL0     C34581   7.608   7.790   5.458  0.3708 -0.3308  0.5083
  257MOL0     C34582   7.557   7.742   5.592  0.2570 -0.3703  0.5788
  257MOL0     C34583   7.676   7.671   5.661 -0.5651 -0.2525 -0.1262
  257MOL0     O34584   7.769   7.772   5.698 -0.3261 -0.4883 -0.2233
  257MOL0     C34585   7.889   7.733   5.747  0.5022 -0.1778  0.8584
  257MOL0     C34586   7.940   7.599   5.770  0.6333 -0.1031  0.4888
  257MOL0     C34587   8.064   7.582   5.827 -0.0923  0.7832 -0.3033
  257MOL0     C34588   8.099   7.441   5.878  0.2515  0.1373 -0.1427
  257MOL0     C34589   8.153   7.698   5.838 -0.8526 -1.0135 -0.5178
  257MOL0     C34590   8.291   7.690   5.900 -0.9651  1.1774  0.1657
  257MOL0     O34591   8.351   7.790   5.953 -0.0811 -0.0722 -0.1120
  257MOL0     C34592   8.477   7.770   6.009  0.2709 -0.0687  0.2919
  257MOL0     C34593   8.595   7.775   5.928  0.7407 -0.5942 -0.2893
  257MOL0     C34594   8.721   7.764   5.996  0.5008  0.0087  0.9962
  257MOL0     C34595   8.730   7.745   6.134 -0.5889  0.1163  0.0725
  257MOL0     O34596   8.860   7.749   6.187 -0.5687 -0.5772  0.4501
  257MOL0     C34597   8.858   7.717   6.327 -0.0938  0.8101  0.6527
  257MOL0     C34598   9.002   7.722   6.383  0.7554 -0.3006 -0.9408
  257MOL0     C34599   9.068   7.858   6.380 -0.0525  0.0801 -0.0080
  257MOL0     C34600   9.210   7.857   6.427 -0.9032  0.2465  0.8528
  257MOL0     C34601   9.238   7.807   6.567  0.1897 -0.0074 -0.3324
  257MOL0     C34602   9.391   7.824   6.591 -0.2010 -0.2470  0.3078
  257MOL0     C34603   9.418   7.795   6.736  0.4607 -0.3324 -0.1827
  257MOL0     C34604   9.570   7.805   6.756  0.3909  0.0353  0.7410
  257MOL0    Cl34605   9.598   7.758   6.932  0.3621  0.1130 -0.4023
  257MOL0     C34606   8.613   7.751   6.215  0.1630  0.8158  0.3970
  257MOL0     C34607   8.488   7.770   6.145 -0.3943 -0.7518  0.4645
  257MOL0     O34608   8.329   7.577   5.909 -0.0600  0.1872  0.2929
  257MOL0     C34609   8.103   7.821   5.813  0.1000 -0.7467 -0.1247
  257MOL0     C34610   7.969   7.845   5.773 -0.1883  0.2672 -0.1342
  257MOL0     N34611   7.456   8.076   5.564 -0.9068  0.1241 -0.0393
  257MOL0     N34612   7.494   8.179   5.616 -0.3487  0.1343 -1.7417
  257MOL0     C34613   8.546   8.712   6.054 -0.6785  0.0930  0.0093
  257MOL0     C34614   8.679   8.718   6.099 -0.6718 -0.1590 -0.5487
  257MOL0     C34615   9.007   8.518   6.347 -0.4375  0.0132 -0.7468
  257MOL0     C34616   9.105   8.480   6.256 -0.3297  0.1193 -0.3822
  257MOL0     C34617   9.240   8.432   6.302  0.4084  0.2649  0.1896
  257MOL0     C34618   9.263   8.435   6.439  0.3520 -0.0930 -0.9496
  257MOL0     O34619   9.384   8.416   6.500 -0.5964  0.2460 -0.3796
  257MOL0     C34620   9.492   8.375   6.413 -0.4995  0.6294 -0.7980
  257MOL0     C34621   9.619   8.371   6.487  0.3791  0.2843 -0.8527
  257MOL0     C34622   9.630   8.258   6.595 -0.3823 -0.1236 -0.4815
  257MOL0     C34623   9.764   8.259   6.655 -0.3049  0.2234 -0.6536
  257MOL0     C34624   9.807   8.150   6.737  0.4750 -0.1201 -0.2372
  257MOL0     C34625   9.851   8.058   6.802 -0.3281 -0.6237 -0.2704
  257MOL0     C34626   9.159   8.469   6.525 -0.4637  0.0404  0.4025
  257MOL0     C34627   9.031   8.502   6.479 -0.1123 -0.4140  0.0066
  257MOL0     H34628   8.742   8.384   6.098  0.6527 -0.2902  0.5073
  257MOL0     H34629   8.497   8.379   6.013  0.6739 -1.1470 -0.0377
  257MOL0     H34630   8.272   8.756   6.060 -1.1450  0.6567 -0.3453
  257MOL0     H34631   8.185   8.693   5.924 -1.9069 -2.2442  1.9291
  257MOL0     H34632   8.211   8.486   6.161  0.6407 -1.0242 -1.8974
  257MOL0     H34633   8.111   8.634   6.167  0.6844  1.3775  0.0449
  257MOL0     H34634   7.992   8.442   6.089 -3.3307  2.9775 -0.1774
  257MOL0     H34635   7.997   8.569   5.961 -0.0257  0.3269  0.8593
  257MOL0     H34636   8.142   8.457   5.815 -0.1856  1.4742  1.4506
  257MOL0     H34637   8.202   8.352   5.935  0.9776 -1.7503 -2.8519
  257MOL0     H34638   8.046   8.222   5.809  1.5137  1.2205  0.8283
  257MOL0     H34639   7.944   8.247   5.945 -1.6241 -0.0252 -0.7732
  257MOL0     H34640   7.833   8.438   5.840 -1.5591 -1.2988  0.4562
  257MOL0     H34641   7.927   8.422   5.686  0.5353  1.6730  1.4106
  257MOL0     H34642   7.863   8.205   5.663 -0.1696  1.6706 -0.2463
  257MOL0     H34643   7.758   8.210   5.803 -0.9001 -0.0706 -0.2552
  257MOL0     H34644   7.737   8.373   5.545 -0.7937 -0.2318 -0.7689
  257MOL0     H34645   7.628   8.390   5.683 -2.9417 -2.3775  0.5228
  257MOL0     H34646   7.747   8.116   5.416 -1.3226 -0.9541 -1.5085
  257MOL0     H34647   7.428   7.891   5.365  0.6782 -0.5561 -1.4533
  257MOL0     H34648   7.580   7.920   5.284  0.1532 -0.1264  0.4349
  257MOL0     H34649   7.711   7.821   5.478 -0.4717  0.9799  3.2788
  257MOL0     H34650   7.602   7.698   5.398  1.4105  0.8676 -1.5711
  257MOL0     H34651   7.472   7.675   5.575 -1.3850  1.9129 -0.8507
  257MOL0     H34652   7.521   7.832   5.644 -0.8859 -1.5332  1.8811
  257MOL0     H34653   7.719   7.589   5.604  1.0303  0.7247 -0.3821
  257MOL0     H34654   7.629   7.627   5.749  0.1522  0.8803  0.8541
  257MOL0     H34655   7.884   7.516   5.726 -0.8382  0.9944  0.1988
  257MOL0     H34656   8.175   7.388   5.821 -0.8932 -0.9373 -0.7290
  257MOL0     H34657   8.138   7.456   5.979  2.0206  2.1835 -1.0575
  257MOL0     H34658   8.007   7.383   5.892 -0.9333  1.9745  0.0801
  257MOL0     H34659   8.585   7.797   5.822  1.0046 -2.5674 -0.7545
  257MOL0     H34660   8.817   7.782   5.947  1.2085 -0.2624  2.2520
  257MOL0     H34661   8.797   7.794   6.375 -1.5206  0.0036  0.1820
  257MOL0     H34662   8.824   7.617   6.355  1.2846  0.6617  1.9463
  257MOL0     H34663   8.983   7.695   6.488 -0.7487  0.4620 -0.9958
  257MOL0     H34664   9.063   7.649   6.329 -0.0159  1.1854 -4.0647
  257MOL0     H34665   9.010   7.932   6.437 -1.3670 -2.7779  2.6567
  257MOL0     H34666   9.077   7.895   6.277  2.2808 -2.8763 -1.0052
  257MOL0     H34667   9.257   7.782   6.363  0.4492  2.4876 -0.9434
  257MOL0     H34668   9.249   7.954   6.396 -0.5612 -0.7525 -2.2228
  257MOL0     H34669   9.214   7.703   6.590 -1.6477  0.7364  1.4611
  257MOL0     H34670   9.176   7.866   6.636  2.5722  1.6904  0.5013
  257MOL0     H34671   9.452   7.755   6.533  0.1215  1.3761 -1.3793
  257MOL0     H34672   9.424   7.921   6.551 -1.1553 -0.5659 -1.3467
  257MOL0     H34673   9.384   7.695   6.762 -0.5408  0.3376  1.1756
  257MOL0     H34674   9.361   7.861   6.801 -3.2495 -1.3398 -2.1602
  257MOL0     H34675   9.598   7.906   6.723  1.0800 -1.1561 -2.8062
  257MOL0     H34676   9.610   7.738   6.680 -3.2416 -1.2925 -0.2253
  257MOL0     H34677   8.608   7.715   6.317  0.7120 -0.5490 -0.0266
  257MOL0     H34678   8.403   7.763   6.212  0.7979 -2.7993  1.8673
  257MOL0     H34679   8.166   7.909   5.821 -1.9268  0.8564 -1.0488
  257MOL0     H34680   7.938   7.947   5.756 -1.5140  0.1909  1.5611
  257MOL0     H34681   8.491   8.806   6.049  1.6890  1.5821  0.4922
  257MOL0     H34682   8.722   8.816   6.120 -1.0289  0.1251 -1.1119
  257MOL0     H34683   9.082   8.498   6.151 -1.5167  0.4351 -0.0842
  257MOL0     H34684   9.312   8.387   6.234  0.8401  0.5261  0.4732
  257MOL0     H34685   9.477   8.272   6.379  0.5708 -0.2314  1.1697
  257MOL0     H34686   9.496   8.444   6.328 -2.6236  1.3966 -0.3408
  257MOL0     H34687   9.620   8.460   6.551  0.6022 -0.6829  0.5359
  257MOL0     H34688   9.702   8.373   6.415  2.0775 -2.5522  0.7948
  257MOL0     H34689   9.613   8.163   6.542 -0.4890 -0.6366  0.4528
  257MOL0     H34690   9.544   8.270   6.661 -0.3764  1.8832 -0.7997
  257MOL0     H34691   9.772   8.350   6.716  2.0343  1.7751 -3.0656
  257MOL0     H34692   9.839   8.267   6.576 -0.1209  0.7674 -0.4320
  257MOL0     H34693   9.892   7.973   6.854 -0.7347 -0.5619  0.1568
  257MOL0     H34694   9.184   8.490   6.629  1.6551 -0.1435 -0.0083
  257MOL0     H34695   8.961   8.532   6.556 -1.9569  0.2712 -1.8531
  258MOL0     O34696   3.077   5.811   8.200  0.0517  0.2066  0.6386
  258MOL0     C34697   3.147   5.714   8.232  0.8832 -0.0759 -0.5506
  258MOL0     O34698   3.120   5.642   8.344 -0.6203 -0.1725 -0.2990
  258MOL0     C34699   3.022   5.678   8.442 -0.5669 -0.4145 -0.1141
  258MOL0     C34700   2.912   5.596   8.453 -0.6599 -0.5509 -0.2836
  258MOL0     C34701   2.825   5.618   8.562  0.1251 -1.0892  0.7460
  258MOL0     C34702   2.823   5.729   8.642  0.5832  0.0130  0.2430
  258MOL0     O34703   2.719   5.746   8.730  0.0066  0.3569 -0.0525
  258MOL0     C34704   2.718   5.849   8.827  0.0090  0.5244  0.0252
  258MOL0     C34705   2.611   5.803   8.935 -0.2333  0.7005  1.4041
  258MOL0     C34706   2.636   5.660   8.976 -0.0054  0.6818 -0.3123
  258MOL0     C34707   2.522   5.631   9.081 -0.4398 -0.2102  0.1083
  258MOL0     C34708   2.531   5.688   9.226  0.9527 -0.7647 -0.0259
  258MOL0     C34709   2.443   5.608   9.325  0.3981  0.2998  0.2482
  258MOL0     C34710   2.295   5.657   9.320 -0.0206 -0.1627 -0.0746
  258MOL0     C34711   2.211   5.596   9.431 -0.8444 -0.4989 -0.1507
  258MOL0     N34712   2.081   5.664   9.446  0.6317  0.2510 -0.2166
  258MOL0     C34713   2.041   5.759   9.536 -0.0492  1.1473 -0.6479
  258MOL0     C34714   1.929   5.802   9.491 -0.5189  0.1698 -0.3299
  258MOL0     C34715   1.853   5.918   9.550  0.2052  0.7517  0.2709
  258MOL0     C34716   1.767   5.866   9.670  0.0125 -0.0328  0.4194
  258MOL0     C34717   1.667   5.976   9.692 -0.1342 -0.3153 -0.0422
  258MOL0     C34718   1.588   5.945   9.818 -0.0736 -0.3054  0.8173
  258MOL0     O34719   1.499   6.053   9.840  0.2984  0.6816  0.3216
  258MOL0     C34720   1.366   6.029   9.857  0.6291  0.7277 -0.3026
  258MOL0     C34721   1.327   5.983   9.978  0.2656  0.5173 -0.0881
  258MOL0     C34722   1.188   5.955  10.011 -0.2523  0.2029 -0.2366
  258MOL0     C34723   1.164   5.894  10.150  0.5997  0.0886 -0.0870
  258MOL0     C34724   1.079   5.978   9.912 -0.2423 -0.2994  0.3026
  258MOL0     C34725   0.929   5.982   9.924  0.4017  0.3402  0.5184
  258MOL0     O34726   0.850   5.995   9.809  0.3439 -0.2979 -0.2303
  258MOL0     C34727   0.716   6.015   9.829  0.0586  0.7309  1.3324
  258MOL0     C34728   0.622   5.919   9.781 -0.4814  0.6539 -0.2412
  258MOL0     C34729   0.478   5.936   9.793 -0.7451  0.3547 -0.6489
  258MOL0     C34730   0.428   6.059   9.845 -0.6329 -0.0455 -0.1242
  258MOL0     O34731   0.290   6.073   9.856 -0.7527 -0.0027 -0.2360
  258MOL0     C34732   0.220   6.191   9.880 -0.3692 -0.0412 -0.9060
  258MOL0     C34733   0.075   6.176   9.833  0.2570 -0.0401 -0.4761
  258MOL0     C34734   0.062   6.109   9.693 -0.4434  0.1886 -0.6007
  258MOL0     C34735   0.117   6.210   9.588  0.6582  0.1939 -0.4885
  258MOL0     C34736   0.109   6.148   9.447 -0.4198 -0.0596 -0.9362
  258MOL0     C34737   0.244   6.112   9.397 -0.5928 -0.1907 -0.5519
  258MOL0     C34738   0.311   5.982   9.451 -0.0508 -0.6076 -0.1011
  258MOL0     C34739   0.434   5.942   9.378 -0.9571 -0.0197  0.8094
  258MOL0    Cl34740   0.388   5.912   9.205 -0.3021  0.2373 -0.2821
  258MOL0     C34741   0.521   6.157   9.875 -0.9430 -0.0851  0.5830
  258MOL0     C34742   0.663   6.133   9.876 -0.6882 -0.1275 -0.2635
  258MOL0     O34743   0.885   5.947  10.033 -0.3064  0.1136  0.1161
  258MOL0     C34744   1.132   6.018   9.787  0.0850  0.3468  0.2272
  258MOL0     C34745   1.266   6.049   9.758 -0.6297 -0.0560 -0.2753
  258MOL0     N34746   1.891   5.722   9.388 -0.7014  0.7760 -0.4044
  258MOL0     N34747   1.975   5.629   9.370  0.3971 -0.2045 -0.1771
  258MOL0     C34748   2.939   5.816   8.628  0.2903  0.9055 -0.4833
  258MOL0     C34749   3.041   5.787   8.528 -0.6260 -0.3980 -0.2376
  258MOL0     C34750   3.267   5.671   8.149  0.3066 -0.1479  0.3716
  258MOL0     C34751   3.323   5.751   8.047  0.1827 -0.2145  0.9150
  258MOL0     C34752   3.428   5.702   7.965  0.5640  0.9308  0.2453
  258MOL0     C34753   3.492   5.581   7.989  0.5214 -0.4807 -0.4797
  258MOL0     O34754   3.599   5.539   7.915 -0.2406 -0.2336  0.2140
  258MOL0     C34755   3.685   5.439   7.978 -0.9815 -0.9934 -0.1834
  258MOL0     C34756   3.804   5.432   7.889 -0.2113 -0.6130 -0.0492
  258MOL0     C34757   3.907   5.544   7.919 -0.0454  0.5690  0.5373
  258MOL0     C34758   4.017   5.559   7.815 -0.0181 -0.2849  0.5211
  258MOL0     C34759   4.082   5.440   7.772  0.5365 -0.0713 -0.0486
  258MOL0     C34760   4.140   5.347   7.720 -0.5913  0.1724 -0.0772
  258MOL0     C34761   3.441   5.511   8.101 -0.0800 -1.2788 -0.5887
  258MOL0     C34762   3.336   5.556   8.189 -0.3934 -0.0224  0.5140
  258MOL0     H34763   2.900   5.518   8.378  0.1589 -0.8046 -0.1646
  258MOL0     H34764   2.740   5.552   8.576 -0.1709 -0.9569 -0.3373
  258MOL0     H34765   2.818   5.863   8.871  1.2561  1.1902 -2.7750
  258MOL0     H34766   2.690   5.941   8.775 -1.4773  0.5656  0.8720
  258MOL0     H34767   2.621   5.864   9.025  2.0012  3.3197 -0.4282
  258MOL0     H34768   2.511   5.816   8.890  0.3420 -1.4080 -0.6854
  258MOL0     H34769   2.630   5.595   8.887  1.0161  1.5728 -1.0491
  258MOL0     H34770   2.731   5.659   9.029 -0.0865 -2.0911 -0.0613
  258MOL0     H34771   2.425   5.659   9.038 -1.2051  0.6140  2.2381
  258MOL0     H34772   2.523   5.523   9.097 -4.2304 -0.0891  2.5602
  258MOL0     H34773   2.634   5.675   9.261  1.3290  0.8349 -0.4202
  258MOL0     H34774   2.505   5.795   9.227 -0.8391 -1.1708  0.4917
  258MOL0     H34775   2.446   5.503   9.297 -3.8032  0.1669 -0.2739
  258MOL0     H34776   2.481   5.609   9.428 -1.2421  1.7950  0.9015
  258MOL0     H34777   2.289   5.767   9.321 -0.3302 -0.1708 -0.6229
  258MOL0     H34778   2.251   5.636   9.222 -2.0271  1.9590  0.2700
  258MOL0     H34779   2.258   5.615   9.528  0.4471 -0.8935 -0.6694
  258MOL0     H34780   2.182   5.491   9.419 -0.5420 -0.5879 -0.1058
  258MOL0     H34781   2.093   5.797   9.624  0.1246 -0.8665  0.1790
  258MOL0     H34782   1.924   5.989   9.593 -0.6743  0.5568  2.1369
  258MOL0     H34783   1.787   5.958   9.473 -0.0385  0.6945  0.4477
  258MOL0     H34784   1.823   5.834   9.759  2.8004  1.3829 -0.7129
  258MOL0     H34785   1.714   5.778   9.631 -0.9658 -0.1205  1.8624
  258MOL0     H34786   1.603   5.973   9.603 -0.9593 -2.4814  0.5499
  258MOL0     H34787   1.718   6.073   9.695 -0.2619 -0.1741 -1.5136
  258MOL0     H34788   1.660   5.949   9.900  0.3101 -1.5950  0.5570
  258MOL0     H34789   1.533   5.852   9.802 -1.7003  0.8969 -1.1982
  258MOL0     H34790   1.402   5.944  10.045 -0.5894  0.2689  0.7484
  258MOL0     H34791   1.106   5.803  10.133 -1.5620  0.3393  4.4588
  258MOL0     H34792   1.256   5.864  10.200 -0.0369  0.0527  1.0852
  258MOL0     H34793   1.098   5.959  10.208 -3.1403 -0.1203 -3.6592
  258MOL0     H34794   0.661   5.827   9.739 -2.5918  0.1191 -1.1290
  258MOL0     H34795   0.418   5.849   9.772 -0.9344  1.0710 -3.4053
  258MOL0     H34796   0.219   6.211   9.988 -0.2056 -1.9299 -0.5204
  258MOL0     H34797   0.262   6.277   9.826 -0.4018  0.0438 -0.7954
  258MOL0     H34798   0.018   6.120   9.909  1.7341  0.2092  0.8638
  258MOL0     H34799   0.033   6.277   9.839  2.2308  0.8277 -0.6813
  258MOL0     H34800  -0.044   6.091   9.668 -0.8328  0.7156  0.6137
  258MOL0     H34801   0.109   6.011   9.695  0.0460  0.4278 -0.4101
  258MOL0     H34802   0.053   6.298   9.587  0.3480 -0.0288 -0.9614
  258MOL0     H34803   0.219   6.244   9.610 -0.8003  3.3604  2.1245
  258MOL0     H34804   0.066   6.228   9.385 -0.2071  0.0682 -0.9192
  258MOL0     H34805   0.048   6.057   9.444  2.5863 -2.4691  2.5261
  258MOL0     H34806   0.246   6.113   9.288  1.7311 -0.5055 -0.5728
  258MOL0     H34807   0.313   6.195   9.417 -0.9762  0.8347 -3.1295
  258MOL0     H34808   0.238   5.901   9.438 -0.8844  0.1721 -0.4081
  258MOL0     H34809   0.337   5.994   9.556  1.7850  0.7537 -0.6518
  258MOL0     H34810   0.468   5.847   9.422  1.8653  0.4238 -0.2023
  258MOL0     H34811   0.507   6.023   9.384 -0.4056 -0.2556 -1.7856
  258MOL0     H34812   0.487   6.254   9.911  0.3087  0.0524  1.4513
  258MOL0     H34813   0.721   6.217   9.914 -0.9673 -0.2607  0.4799
  258MOL0     H34814   1.067   6.043   9.704  0.5299  4.1420  0.8520
  258MOL0     H34815   1.306   6.079   9.662 -1.3757 -3.8022 -1.9289
  258MOL0     H34816   2.948   5.908   8.685 -2.2955  1.7100 -1.2020
  258MOL0     H34817   3.132   5.845   8.515 -1.0729  0.2332 -0.5771
  258MOL0     H34818   3.270   5.842   8.021 -0.0714 -0.6239 -0.0152
  258MOL0     H34819   3.448   5.754   7.872 -1.1877  0.4287 -0.4623
  258MOL0     H34820   3.724   5.465   8.077  1.2460  1.3733 -1.5560
  258MOL0     H34821   3.638   5.340   7.982 -0.5726 -1.1676  0.5927
  258MOL0     H34822   3.771   5.438   7.785  0.3039 -0.1362 -0.1949
  258MOL0     H34823   3.852   5.334   7.894  2.5305  0.6336 -0.0132
  258MOL0     H34824   3.954   5.531   8.016  1.0650  2.2647  0.2660
  258MOL0     H34825   3.859   5.642   7.920 -0.4179  0.4152 -0.5963
  258MOL0     H34826   4.098   5.621   7.855 -0.2066  0.2257  0.1275
  258MOL0     H34827   3.978   5.609   7.726  0.4909 -4.1265 -2.0969
  258MOL0     H34828   4.196   5.279   7.659  1.8179  2.7742 -1.0256
  258MOL0     H34829   3.493   5.419   8.125 -3.9488 -3.8158 -0.9396
  258MOL0     H34830   3.306   5.484   8.265 -2.0360 -2.6213 -2.3429
  259MOL0     O34831   4.167   5.039   3.425  0.7857 -0.5166  0.3360
  259MOL0     C34832   4.250   5.011   3.342  0.5602 -1.3506  0.8535
  259MOL0     O34833   4.229   4.980   3.203  0.6061 -0.7520 -0.1297
  259MOL0     C34834   4.097   4.989   3.162 -0.0851  0.2111  0.3598
  259MOL0     C34835   3.999   4.912   3.219  0.7615 -0.8596 -0.4343
  259MOL0     C34836   3.870   4.923   3.161 -0.0587 -0.1379 -1.0184
  259MOL0     C34837   3.845   4.994   3.036  0.1095 -0.2854  0.4523
  259MOL0     O34838   3.718   5.001   2.974 -0.2666 -0.5362 -0.8045
  259MOL0     C34839   3.635   4.887   2.996  0.5795 -0.6134  0.4542
  259MOL0     C34840   3.509   4.901   2.902 -0.3604 -0.0184  0.7878
  259MOL0     C34841   3.427   4.777   2.902 -0.7398 -0.0796 -0.0361
  259MOL0     C34842   3.282   4.804   2.850 -0.1097  0.6220  0.4140
  259MOL0     C34843   3.211   4.670   2.824  0.4404  0.1985 -0.2875
  259MOL0     C34844   3.068   4.682   2.774 -0.2233 -0.3257  0.2064
  259MOL0     C34845   3.001   4.549   2.756 -0.2449 -0.0888  0.2985
  259MOL0     C34846   3.028   4.484   2.618 -0.4728  0.0522  0.3789
  259MOL0     N34847   2.928   4.381   2.596 -1.2824  0.2432  0.4949
  259MOL0     C34848   2.851   4.320   2.688  0.4415 -0.8900  0.1315
  259MOL0     C34849   2.777   4.226   2.614 -0.0881  0.0473  0.1425
  259MOL0     C34850   2.706   4.106   2.666  0.4494  0.4533  0.4991
  259MOL0     C34851   2.793   3.985   2.674 -0.1245  0.5443 -0.3600
  259MOL0     C34852   2.746   3.869   2.766 -1.3177 -0.2221 -0.4708
  259MOL0     C34853   2.622   3.796   2.709  1.3414 -0.0489  0.2621
  259MOL0     O34854   2.564   3.711   2.807  0.5782  0.9076  1.2448
  259MOL0     C34855   2.433   3.655   2.782  0.0931 -0.3269 -0.7219
  259MOL0     C34856   2.419   3.521   2.815  0.5669  0.5120 -0.2500
  259MOL0     C34857   2.305   3.447   2.790  0.7417  0.2701 -0.1236
  259MOL0     C34858   2.294   3.308   2.846 -0.1662 -0.2679 -0.6139
  259MOL0     C34859   2.200   3.504   2.716  0.2930 -0.1338  0.8435
  259MOL0     C34860   2.071   3.443   2.678  0.2787 -0.8932 -0.6887
  259MOL0     O34861   2.053   3.311   2.695  0.7905  0.4052 -0.0873
  259MOL0     C34862   1.924   3.264   2.672  0.0090 -0.4256  0.7505
  259MOL0     C34863   1.853   3.252   2.550  0.4810  0.4677  0.5441
  259MOL0     C34864   1.724   3.191   2.545  0.0497 -0.3438  0.5446
  259MOL0     C34865   1.662   3.170   2.670  0.9879  0.0969 -0.8923
  259MOL0     O34866   1.534   3.105   2.664 -0.1324  0.1059  0.2990
  259MOL0     C34867   1.476   3.032   2.775 -0.3095  0.1036  0.0626
  259MOL0     C34868   1.335   2.984   2.750 -0.3599 -0.1435 -0.5329
  259MOL0     C34869   1.227   3.097   2.754  0.2191 -0.2944  0.7973
  259MOL0     C34870   1.086   3.038   2.727  0.3377  0.7047  0.4327
  259MOL0     C34871   0.973   3.143   2.727 -0.2769  0.7746 -0.6908
  259MOL0     C34872   0.838   3.086   2.724  1.0419  0.1251  0.3918
  259MOL0     C34873   0.741   3.200   2.688 -0.8026 -0.9185  0.3212
  259MOL0     C34874   0.597   3.160   2.668 -0.7239 -0.3411  0.0517
  259MOL0    Cl34875   0.588   3.059   2.527 -0.6031 -0.1002 -0.1485
  259MOL0     C34876   1.725   3.191   2.790  0.2603  0.4564 -0.3840
  259MOL0     C34877   1.857   3.240   2.793 -0.1365  0.1304  1.1553
  259MOL0     O34878   1.987   3.521   2.637 -0.1560  0.7219 -0.4569
  259MOL0     C34879   2.221   3.626   2.662 -0.6167 -0.0811  0.5359
  259MOL0     C34880   2.333   3.702   2.696  0.1334  0.2963  0.4965
  259MOL0     N34881   2.815   4.246   2.483  0.6744  0.0566 -0.6083
  259MOL0     N34882   2.895   4.346   2.465 -0.0032 -0.9126 -0.3922
  259MOL0     C34883   3.948   5.066   2.982 -1.0665  0.6537  0.5338
  259MOL0     C34884   4.069   5.064   3.050  0.2047  0.3587  0.6724
  259MOL0     C34885   4.390   4.994   3.392  0.0472  0.0611  1.0612
  259MOL0     C34886   4.416   4.960   3.526  0.6754 -1.0322  0.1966
  259MOL0     C34887   4.549   4.943   3.562  1.1032 -0.3320 -0.8621
  259MOL0     C34888   4.654   4.965   3.481 -0.3352 -0.9053 -0.1108
  259MOL0     O34889   4.774   4.952   3.545  0.1364  0.1628 -0.2397
  259MOL0     C34890   4.893   4.975   3.475  0.4213  0.1681 -0.3616
  259MOL0     C34891   4.960   4.841   3.431  0.6834 -0.1136 -0.1018
  259MOL0     C34892   4.933   4.707   3.511 -0.1949 -0.0413  0.2340
  259MOL0     C34893   4.980   4.579   3.446 -0.4612  0.2508 -0.7958
  259MOL0     C34894   4.905   4.545   3.323  0.6056 -0.2223  0.8178
  259MOL0     C34895   4.847   4.523   3.220 -0.2541  1.2874 -0.4344
  259MOL0     C34896   4.628   4.992   3.349  0.5074 -0.2997 -0.3874
  259MOL0     C34897   4.503   5.005   3.300  0.3775 -0.0966 -0.5987
  259MOL0     H34898   4.016   4.839   3.298 -0.1142 -3.5512 -2.5632
  259MOL0     H34899   3.788   4.874   3.213  0.3371 -1.8915 -1.9634
  259MOL0     H34900   3.697   4.805   2.958 -0.0630 -0.9444  0.0987
  259MOL0     H34901   3.594   4.864   3.095 -1.0946  1.4553  0.2945
  259MOL0     H34902   3.446   4.982   2.941  0.2385  3.1977 -4.0918
  259MOL0     H34903   3.550   4.917   2.802  1.7901 -1.7180  1.3180
  259MOL0     H34904   3.473   4.714   2.825  0.3961 -0.2787  0.7701
  259MOL0     H34905   3.423   4.721   2.995  1.0525 -0.7362 -0.3020
  259MOL0     H34906   3.229   4.859   2.929 -1.5845 -0.4940  0.2467
  259MOL0     H34907   3.287   4.865   2.759 -1.1471 -0.8143 -0.6554
  259MOL0     H34908   3.267   4.599   2.762 -2.5827 -2.3085 -0.4061
  259MOL0     H34909   3.196   4.624   2.922 -1.8740 -1.4599 -1.3254
  259MOL0     H34910   3.021   4.753   2.842  0.5246 -0.6595  1.0975
  259MOL0     H34911   3.071   4.725   2.673 -1.9394  2.1341  1.1127
  259MOL0     H34912   3.035   4.477   2.831  0.4454  0.7134  0.7761
  259MOL0     H34913   2.893   4.562   2.766 -0.5305  0.7915 -2.9058
  259MOL0     H34914   3.124   4.431   2.626 -0.0237  1.1145  3.3241
  259MOL0     H34915   3.023   4.559   2.539 -1.1019 -1.1501 -0.7595
  259MOL0     H34916   2.844   4.320   2.797  0.0671  1.1921  0.1329
  259MOL0     H34917   2.665   4.146   2.760  0.0069  4.6610 -1.2521
  259MOL0     H34918   2.625   4.088   2.595  1.2810 -1.6734  0.0278
  259MOL0     H34919   2.887   4.026   2.712 -1.2899  1.2888  1.9444
  259MOL0     H34920   2.828   3.941   2.580  1.5496 -1.0476  0.9475
  259MOL0     H34921   2.735   3.912   2.866 -0.1497  3.0027 -1.6093
  259MOL0     H34922   2.819   3.788   2.780 -1.9976 -0.7448  0.1329
  259MOL0     H34923   2.650   3.737   2.621 -0.2994  0.2849 -0.5106
  259MOL0     H34924   2.548   3.870   2.679 -1.0370 -2.4057 -0.0463
  259MOL0     H34925   2.497   3.474   2.874 -1.2173 -0.0306  1.8309
  259MOL0     H34926   2.242   3.322   2.942  1.0352  0.4713 -0.0501
  259MOL0     H34927   2.250   3.237   2.776  1.0485  1.2565 -3.0389
  259MOL0     H34928   2.395   3.274   2.869  1.6681  0.9683 -5.5509
  259MOL0     H34929   1.902   3.282   2.458  2.3590  0.0774  1.3596
  259MOL0     H34930   1.673   3.162   2.454  2.4844 -1.0171 -0.6875
  259MOL0     H34931   1.546   2.951   2.799 -0.3017 -1.5564 -4.5708
  259MOL0     H34932   1.464   3.093   2.865 -0.8702  0.1050 -0.0117
  259MOL0     H34933   1.329   2.937   2.651 -1.6674  2.5756 -1.8683
  259MOL0     H34934   1.311   2.912   2.829  0.4254  0.2390  0.0597
  259MOL0     H34935   1.254   3.176   2.683  0.7656 -1.9643 -0.9440
  259MOL0     H34936   1.232   3.150   2.850  2.6459 -0.8323  1.0320
  259MOL0     H34937   1.081   2.981   2.633 -2.5275  0.8045  0.4361
  259MOL0     H34938   1.070   2.973   2.813  2.6749  1.2501  1.3602
  259MOL0     H34939   1.007   3.204   2.643  1.8996  1.0498  0.3324
  259MOL0     H34940   0.986   3.206   2.816 -0.8217 -0.6006  0.4048
  259MOL0     H34941   0.830   3.015   2.641  1.5048 -0.4409  0.8287
  259MOL0     H34942   0.817   3.032   2.817 -3.4586  0.7708 -0.0076
  259MOL0     H34943   0.777   3.256   2.601 -0.8238  0.8362  1.3993
  259MOL0     H34944   0.743   3.276   2.766  2.8774 -1.3710  0.8372
  259MOL0     H34945   0.537   3.250   2.655  1.1407  0.7972 -1.0778
  259MOL0     H34946   0.554   3.093   2.744 -0.7887  1.2404  1.4917
  259MOL0     H34947   1.680   3.166   2.886 -0.9071 -3.0385 -1.6933
  259MOL0     H34948   1.914   3.246   2.885  0.3440  0.1936  0.8580
  259MOL0     H34949   2.151   3.685   2.603 -0.3202  0.4407  0.6966
  259MOL0     H34950   2.343   3.803   2.656 -2.9944  0.8597  0.8505
  259MOL0     H34951   3.934   5.133   2.898 -1.2186 -0.3495 -0.2451
  259MOL0     H34952   4.147   5.122   3.002 -1.1946  0.5624 -1.5211
  259MOL0     H34953   4.341   4.947   3.604  3.9949  0.2024  3.9249
  259MOL0     H34954   4.562   4.933   3.670 -2.8171  0.1543 -0.1798
  259MOL0     H34955   4.875   5.037   3.386 -0.4414 -0.1003 -0.3806
  259MOL0     H34956   4.958   5.034   3.541 -1.7369 -0.7195  2.7681
  259MOL0     H34957   5.067   4.863   3.419  0.5757  0.3947 -0.1409
  259MOL0     H34958   4.921   4.825   3.330  1.4577  2.4137 -0.8784
  259MOL0     H34959   4.826   4.697   3.529 -0.0387 -0.1438  1.1914
  259MOL0     H34960   4.978   4.712   3.611 -1.1525  2.2896  0.6102
  259MOL0     H34961   4.960   4.500   3.520 -1.1281 -1.4549 -2.6868
  259MOL0     H34962   5.083   4.602   3.418 -0.3464  0.7246 -0.0119
  259MOL0     H34963   4.800   4.509   3.125 -0.9616 -1.3269  0.2228
  259MOL0     H34964   4.708   5.006   3.277 -1.2798  0.9449 -2.2713
  259MOL0     H34965   4.487   5.027   3.194 -1.5802 -4.6467 -1.4797
  260MOL0     O34966   3.860   5.788   5.528  0.3155 -0.1060  0.3591
  260MOL0     C34967   3.926   5.801   5.631 -0.5236 -0.5752 -0.1966
  260MOL0     O34968   3.875   5.836   5.760  0.2524  0.4022 -0.0872
  260MOL0     C34969   3.736   5.823   5.787 -0.4461  0.2542  0.0412
  260MOL0     C34970   3.666   5.894   5.893 -0.9417  0.2410  0.2266
  260MOL0     C34971   3.530   5.870   5.919  0.4959 -0.7240 -0.0034
  260MOL0     C34972   3.455   5.778   5.843  0.2551 -0.6439 -0.4296
  260MOL0     O34973   3.321   5.744   5.859  0.2000 -0.3980 -0.0434
  260MOL0     C34974   3.223   5.844   5.905 -0.4135 -0.2601 -0.6278
  260MOL0     C34975   3.076   5.799   5.932 -0.0101 -0.2732  0.0342
  260MOL0     C34976   2.988   5.921   5.926 -0.1278  0.0586 -0.2557
  260MOL0     C34977   2.854   5.908   5.990 -0.5487 -0.1417  0.1901
  260MOL0     C34978   2.781   6.042   5.981  0.1095  0.5110  0.3404
  260MOL0     C34979   2.652   6.020   6.055  0.0733  0.0096 -0.3031
  260MOL0     C34980   2.570   6.149   6.076  0.3032  0.2997 -0.1597
  260MOL0     C34981   2.454   6.131   6.171  0.3928 -0.7452 -0.6718
  260MOL0     N34982   2.486   6.092   6.309  0.0323  0.7665 -0.2644
  260MOL0     C34983   2.475   6.172   6.422 -0.3975 -0.8532 -0.0639
  260MOL0     C34984   2.500   6.097   6.527 -0.7364  0.4115  0.9637
  260MOL0     C34985   2.509   6.142   6.664  0.2574 -0.3780  0.2784
  260MOL0     C34986   2.399   6.235   6.713  0.3581 -0.1859  0.4153
  260MOL0     C34987   2.269   6.153   6.741 -0.8077 -0.0078 -0.3477
  260MOL0     C34988   2.151   6.260   6.757  0.0002  0.5000  1.0107
  260MOL0     O34989   2.169   6.353   6.866 -0.8089  0.4176  0.5247
  260MOL0     C34990   2.082   6.460   6.869  0.1106  0.8321 -0.0484
  260MOL0     C34991   2.123   6.582   6.919  0.5767  0.1514 -0.1340
  260MOL0     C34992   2.041   6.694   6.898  0.0582 -0.3947  0.1391
  260MOL0     C34993   2.095   6.833   6.947  0.1771  0.4108  0.7553
  260MOL0     C34994   1.909   6.683   6.858 -0.1824  0.2884  0.3709
  260MOL0     C34995   1.817   6.795   6.834 -0.3859 -0.6330  0.5347
  260MOL0     O34996   1.701   6.766   6.760  0.0188 -0.9130  0.1593
  260MOL0     C34997   1.593   6.835   6.803  1.2365 -0.4231 -0.4210
  260MOL0     C34998   1.549   6.856   6.938 -0.2219 -0.2101  0.1571
  260MOL0     C34999   1.429   6.920   6.962 -0.7199  0.1963 -0.7382
  260MOL0     C35000   1.341   6.947   6.862 -0.2162  0.0809 -0.3041
  260MOL0     O35001   1.217   6.989   6.890 -0.7545 -1.1652  0.3903
  260MOL0     C35002   1.208   7.129   6.899 -0.1035 -0.5138  0.5420
  260MOL0     C35003   1.073   7.163   6.845  0.4613 -0.6673  0.3574
  260MOL0     C35004   1.048   7.319   6.847  0.1455  0.4364 -0.2174
  260MOL0     C35005   1.009   7.360   6.991 -0.3589 -0.2835 -0.8023
  260MOL0     C35006   0.883   7.453   6.989 -0.4124  0.2373  0.8487
  260MOL0     C35007   0.835   7.495   7.131 -1.4513 -0.1104 -0.0385
  260MOL0     C35008   0.921   7.586   7.220  0.5867  0.2790  0.9108
  260MOL0     C35009   0.883   7.601   7.362  0.2453  0.9910 -0.7944
  260MOL0    Cl35010   0.974   7.726   7.449  0.2970  0.6907 -0.5724
  260MOL0     C35011   1.377   6.921   6.727 -0.7764 -0.0343  0.6272
  260MOL0     C35012   1.505   6.873   6.704  0.1318 -0.1597  0.5781
  260MOL0     O35013   1.847   6.906   6.875  0.7687 -0.2225  0.1635
  260MOL0     C35014   1.861   6.549   6.817  0.3050  0.1232 -0.3723
  260MOL0     C35015   1.948   6.441   6.830  0.2894  0.0024  0.0816
  260MOL0     N35016   2.528   5.973   6.474  0.2964 -0.7742 -0.0949
  260MOL0     N35017   2.508   5.961   6.342  0.1849 -0.6021 -0.1781
  260MOL0     C35018   3.522   5.716   5.740 -0.8256 -0.4063  0.7165
  260MOL0     C35019   3.657   5.736   5.711  0.1714 -0.9864  0.3964
  260MOL0     C35020   4.071   5.773   5.636  1.3121 -1.1983  0.3989
  260MOL0     C35021   4.140   5.746   5.754 -0.1825 -0.2284  0.0951
  260MOL0     C35022   4.277   5.726   5.751 -0.1036  0.6277 -0.6952
  260MOL0     C35023   4.353   5.730   5.634 -0.3243 -0.2157  0.0956
  260MOL0     O35024   4.484   5.715   5.621 -0.3182 -0.1118 -0.1428
  260MOL0     C35025   4.580   5.713   5.734 -0.2473 -0.3892 -0.4216
  260MOL0     C35026   4.719   5.683   5.676 -0.3575  0.5136  0.1177
  260MOL0     C35027   4.776   5.798   5.589  0.3476  0.7755  0.3811
  260MOL0     C35028   4.918   5.757   5.545  0.3227 -0.5291 -0.4474
  260MOL0     C35029   4.917   5.644   5.464  0.7362  1.0620  0.6718
  260MOL0     C35030   4.931   5.551   5.384 -0.5855 -0.0378 -0.3291
  260MOL0     C35031   4.284   5.757   5.514 -1.3422 -0.0015  0.0134
  260MOL0     C35032   4.145   5.771   5.518 -0.0488 -0.1862 -0.4525
  260MOL0     H35033   3.721   5.954   5.965 -0.4491  0.6640 -0.4957
  260MOL0     H35034   3.492   5.922   6.007 -1.2719 -0.8009 -0.6762
  260MOL0     H35035   3.268   5.885   5.996  3.4243  1.1058 -2.9181
  260MOL0     H35036   3.218   5.929   5.836 -1.0908  1.9764  2.0227
  260MOL0     H35037   3.043   5.734   5.850  0.7023  2.6563 -2.7598
  260MOL0     H35038   3.062   5.752   6.030 -2.0339 -0.9917 -0.5549
  260MOL0     H35039   3.048   6.004   5.964  0.8177 -0.6359 -0.1975
  260MOL0     H35040   2.959   5.936   5.821 -0.1063  0.7730 -0.1700
  260MOL0     H35041   2.795   5.839   5.929 -1.7611  0.2441  0.8880
  260MOL0     H35042   2.861   5.855   6.086 -1.7013  2.0887  1.5916
  260MOL0     H35043   2.838   6.128   6.018 -2.2599  1.8550  1.0609
  260MOL0     H35044   2.772   6.070   5.875 -1.2191  0.5778  0.4570
  260MOL0     H35045   2.582   5.952   6.005 -0.0398  0.8932 -1.3979
  260MOL0     H35046   2.685   6.009   6.158 -0.6451  3.8686  0.5259
  260MOL0     H35047   2.637   6.231   6.106  1.3521 -0.7892  0.5459
  260MOL0     H35048   2.527   6.175   5.979  1.2369  1.3523 -0.3113
  260MOL0     H35049   2.382   6.064   6.124 -2.5488  2.7555 -1.6380
  260MOL0     H35050   2.395   6.223   6.174  0.4305 -0.7412  0.6638
  260MOL0     H35051   2.449   6.278   6.421  0.8678 -0.5307 -0.9779
  260MOL0     H35052   2.518   6.055   6.729  0.9817  0.4002  1.2646
  260MOL0     H35053   2.597   6.208   6.670  0.6897 -0.9919  0.8363
  260MOL0     H35054   2.368   6.317   6.647  0.7974  0.0662  0.5200
  260MOL0     H35055   2.435   6.275   6.808  0.4647 -2.0871  1.2123
  260MOL0     H35056   2.287   6.095   6.832  1.0122  0.4199 -0.3924
  260MOL0     H35057   2.229   6.082   6.668 -2.6235 -0.6593  1.2032
  260MOL0     H35058   2.055   6.208   6.756  0.0137  0.4754  0.4106
  260MOL0     H35059   2.147   6.324   6.668  0.9034 -0.5407  0.1890
  260MOL0     H35060   2.219   6.580   6.970  0.3606 -3.2879  0.3644
  260MOL0     H35061   2.201   6.826   6.974 -0.0036  1.4143  1.7699
  260MOL0     H35062   2.087   6.894   6.857  1.3929 -0.4023  0.0681
  260MOL0     H35063   2.038   6.866   7.034 -1.5293 -1.9163  0.6225
  260MOL0     H35064   1.622   6.838   7.016  1.8085  1.5957 -1.1954
  260MOL0     H35065   1.399   6.952   7.061  2.5129  2.4794 -0.3675
  260MOL0     H35066   1.231   7.163   7.000  0.0095 -0.1780  0.4053
  260MOL0     H35067   1.278   7.181   6.832  0.6835 -2.0643  0.1161
  260MOL0     H35068   1.064   7.119   6.745 -4.5651 -0.4164  0.4685
  260MOL0     H35069   1.000   7.110   6.906 -0.0678 -1.0565 -0.5941
  260MOL0     H35070   0.969   7.347   6.777  0.3567 -1.2555 -1.1804
  260MOL0     H35071   1.136   7.375   6.816  2.0155 -1.2202  1.7546
  260MOL0     H35072   0.994   7.280   7.063  2.5304 -1.9416 -1.8656
  260MOL0     H35073   1.099   7.404   7.034 -1.6993 -0.5776  2.5715
  260MOL0     H35074   0.803   7.397   6.939  0.5470  0.4151 -0.9755
  260MOL0     H35075   0.902   7.549   6.940  2.5214 -0.6824 -0.0315
  260MOL0     H35076   0.731   7.530   7.121 -1.4916  0.5128  2.0476
  260MOL0     H35077   0.817   7.399   7.181  0.1998 -1.4343 -1.8664
  260MOL0     H35078   0.899   7.681   7.169  2.0634 -0.5237 -1.3502
  260MOL0     H35079   1.029   7.574   7.212  0.4055 -1.0257  0.1815
  260MOL0     H35080   0.902   7.502   7.406  0.9715  0.8572 -1.3895
  260MOL0     H35081   0.778   7.629   7.373  0.0218  0.1353 -0.7215
  260MOL0     H35082   1.308   6.953   6.650 -0.5193  1.4197  0.9616
  260MOL0     H35083   1.522   6.857   6.598 -3.1063  1.6430 -0.3343
  260MOL0     H35084   1.762   6.519   6.786  0.9647 -1.1275 -1.3740
  260MOL0     H35085   1.904   6.348   6.797 -1.4476  2.4761 -5.9271
  260MOL0     H35086   3.462   5.646   5.682  1.7431  0.0163 -2.7906
  260MOL0     H35087   3.697   5.681   5.626 -0.0131 -0.2437 -0.1871
  260MOL0     H35088   4.097   5.748   5.853  1.7761  2.1908  0.9911
  260MOL0     H35089   4.332   5.703   5.842  2.2679  1.8282 -1.7152
  260MOL0     H35090   4.577   5.806   5.791 -3.6054 -1.9924  2.4148
  260MOL0     H35091   4.543   5.636   5.802 -2.5701  0.9797 -0.0230
  260MOL0     H35092   4.709   5.587   5.623  2.0560  0.0363  0.4258
  260MOL0     H35093   4.791   5.677   5.758  2.1014 -1.7081 -2.0333
  260MOL0     H35094   4.780   5.894   5.641  2.5024  1.2787 -0.6152
  260MOL0     H35095   4.718   5.799   5.496 -0.3905 -1.2527  0.7444
  260MOL0     H35096   4.972   5.741   5.639 -1.8643 -1.4434  0.7297
  260MOL0     H35097   4.956   5.851   5.503 -0.9999  0.3024  0.1235
  260MOL0     H35098   4.953   5.471   5.317  0.1171 -0.8185  0.7901
  260MOL0     H35099   4.334   5.764   5.418 -1.8485 -1.8068 -0.4139
  260MOL0     H35100   4.091   5.792   5.427  1.2414  0.0440 -1.1845
  261MOL0     O35101   1.939   1.647   2.723 -0.5546  0.4007 -0.0268
  261MOL0     C35102   1.982   1.718   2.811  0.3065 -0.1574  0.8640
  261MOL0     O35103   1.943   1.728   2.946 -0.0706 -0.1279 -0.1813
  261MOL0     C35104   1.864   1.626   2.998 -0.1585 -0.1901  0.8965
  261MOL0     C35105   1.721   1.629   2.973 -0.4476  0.4842  0.4105
  261MOL0     C35106   1.651   1.517   3.014 -0.1882 -0.7706  0.7201
  261MOL0     C35107   1.708   1.401   3.071  0.5164 -0.3003 -0.3257
  261MOL0     O35108   1.620   1.295   3.092  0.3487 -0.1108  0.1155
  261MOL0     C35109   1.601   1.207   2.986 -0.2555  0.1377 -0.3211
  261MOL0     C35110   1.511   1.099   3.045  0.6491  0.6033  0.0424
  261MOL0     C35111   1.468   1.015   2.925  0.9363  0.1575 -0.6275
  261MOL0     C35112   1.397   0.886   2.963  0.2378  0.0304  0.4359
  261MOL0     C35113   1.382   0.796   2.839 -1.2026 -0.6614  0.3435
  261MOL0     C35114   1.281   0.682   2.857 -1.2305 -0.1623 -0.4876
  261MOL0     C35115   1.256   0.614   2.719  1.0012  0.6011 -0.1833
  261MOL0     C35116   1.154   0.502   2.737  0.8383  0.9766  0.0237
  261MOL0     N35117   1.144   0.407   2.621 -0.2807  0.0942  0.1996
  261MOL0     C35118   1.136   0.448   2.485 -0.7002  0.2475 -0.3031
  261MOL0     C35119   1.089   0.338   2.414  0.3975  0.8132 -0.1049
  261MOL0     C35120   1.092   0.312   2.264 -0.8270 -0.4577  0.0878
  261MOL0     C35121   1.063   0.435   2.174 -0.0593  0.2644  0.5324
  261MOL0     C35122   0.994   0.401   2.041  0.7448 -0.5240 -0.0668
  261MOL0     C35123   0.847   0.376   2.048  0.3069  0.5438 -0.4427
  261MOL0     O35124   0.811   0.295   1.934 -0.2696 -0.6943 -0.3881
  261MOL0     C35125   0.677   0.286   1.890 -0.5050 -0.3927 -0.2932
  261MOL0     C35126   0.575   0.370   1.924 -0.7557 -0.1928 -0.8902
  261MOL0     C35127   0.438   0.347   1.880 -0.9341 -0.0451  0.3668
  261MOL0     C35128   0.325   0.443   1.926 -0.2556 -0.1954  0.4570
  261MOL0     C35129   0.413   0.241   1.783  0.4023  0.3940  0.2761
  261MOL0     C35130   0.284   0.198   1.732  0.7127  0.2948  0.5107
  261MOL0     O35131   0.289   0.101   1.636 -0.5923  0.2074  0.2422
  261MOL0     C35132   0.170   0.034   1.612 -0.0067  0.5674  0.2098
  261MOL0     C35133   0.117   0.040   1.481  0.4293  0.5218  0.4642
  261MOL0     C35134  -0.009  -0.022   1.455 -0.5908  0.3962  0.7299
  261MOL0     C35135  -0.079  -0.085   1.551  0.6447 -0.2818 -0.3317
  261MOL0     O35136  -0.207  -0.122   1.517  0.1517  0.1064 -0.1079
  261MOL0     C35137  -0.289  -0.189   1.608 -0.1946  0.0104 -0.3181
  261MOL0     C35138  -0.432  -0.209   1.565 -0.0169 -0.1144  0.9325
  261MOL0     C35139  -0.528  -0.254   1.675  0.7446  0.2211  0.4976
  261MOL0     C35140  -0.660  -0.296   1.615 -0.2099  1.1096 -0.5871
  261MOL0     C35141  -0.753  -0.186   1.573  0.4748  0.0616  0.4468
  261MOL0     C35142  -0.896  -0.223   1.544 -0.1845  0.2877 -0.7023
  261MOL0     C35143  -0.902  -0.345   1.453  0.0282 -0.6774 -0.2618
  261MOL0     C35144  -1.035  -0.413   1.442 -0.8423 -0.8902  0.6162
  261MOL0    Cl35145  -1.098  -0.461   1.603  0.3007 -0.1658  0.6031
  261MOL0     C35146  -0.006  -0.114   1.665 -0.2610  1.1261  0.0151
  261MOL0     C35147   0.110  -0.052   1.702 -0.8546  0.0689 -0.9261
  261MOL0     O35148   0.183   0.228   1.791 -0.0126  0.3953  0.5917
  261MOL0     C35149   0.520   0.164   1.737 -0.4857 -0.2945 -0.1105
  261MOL0     C35150   0.649   0.182   1.794  0.5903 -0.2751 -0.6944
  261MOL0     N35151   1.077   0.234   2.512  0.4581  0.4901 -0.8078
  261MOL0     N35152   1.114   0.273   2.626 -0.1125  0.4725  0.3559
  261MOL0     C35153   1.851   1.397   3.083 -0.2940 -0.0948  0.0822
  261MOL0     C35154   1.923   1.508   3.048  0.6020 -0.8340  0.9106
  261MOL0     C35155   2.097   1.800   2.759  0.5039 -0.6121  0.2385
  261MOL0     C35156   2.114   1.932   2.817 -0.4536  0.2768  0.2511
  261MOL0     C35157   2.221   2.017   2.782 -0.6466  0.5949  0.8565
  261MOL0     C35158   2.307   1.981   2.679 -0.7401 -0.6028 -0.6636
  261MOL0     O35159   2.408   2.074   2.649 -1.2624 -0.5617 -0.0441
  261MOL0     C35160   2.537   2.031   2.603  0.7337  0.6330 -0.6220
  261MOL0     C35161   2.626   2.150   2.585  0.2020 -0.5320 -0.2989
  261MOL0     C35162   2.676   2.216   2.713 -0.0549 -0.4626 -0.1390
  261MOL0     C35163   2.834   2.240   2.709  0.3069 -0.7890 -0.1103
  261MOL0     C35164   2.897   2.106   2.696  0.6215 -0.1510 -0.4119
  261MOL0     C35165   2.952   1.997   2.679  0.1301 -0.7623  0.9776
  261MOL0     C35166   2.287   1.856   2.615  0.4237 -0.3087 -0.4286
  261MOL0     C35167   2.178   1.771   2.650 -0.0659 -0.5536 -0.0521
  261MOL0     H35168   1.669   1.720   2.945 -2.2409 -0.6998 -0.3369
  261MOL0     H35169   1.544   1.515   2.999 -0.3244 -0.1830  1.5383
  261MOL0     H35170   1.554   1.256   2.900  1.6980  1.6291 -0.6149
  261MOL0     H35171   1.694   1.163   2.949  1.4517  2.2871  1.1196
  261MOL0     H35172   1.557   1.044   3.127  1.1654  2.2695  0.9126
  261MOL0     H35173   1.429   1.147   3.099  0.2213  1.6825 -1.4857
  261MOL0     H35174   1.405   1.080   2.863  1.7678  1.2978 -0.3036
  261MOL0     H35175   1.557   0.988   2.868  0.4228 -1.8875 -0.5351
  261MOL0     H35176   1.439   0.837   3.051  0.2034  1.2793  1.1673
  261MOL0     H35177   1.298   0.919   2.996  0.2358 -1.1114  1.6572
  261MOL0     H35178   1.356   0.866   2.759  2.3362  2.1112  1.3675
  261MOL0     H35179   1.476   0.750   2.807 -1.6677 -2.1060  0.9883
  261MOL0     H35180   1.318   0.616   2.936  0.7137  0.3050 -0.9761
  261MOL0     H35181   1.178   0.708   2.885 -1.6604 -2.5812  0.4086
  261MOL0     H35182   1.230   0.692   2.647 -0.8774 -1.0755 -1.4042
  261MOL0     H35183   1.347   0.574   2.672  0.6642 -0.1970 -0.1638
  261MOL0     H35184   1.055   0.548   2.744  0.5476  0.2968  0.5147
  261MOL0     H35185   1.181   0.438   2.821 -0.9138 -0.8013 -0.6853
  261MOL0     H35186   1.173   0.543   2.448  1.4683 -0.7246 -0.8055
  261MOL0     H35187   1.198   0.293   2.246 -0.4398 -0.6696  2.3621
  261MOL0     H35188   1.031   0.225   2.238 -0.5265 -0.7943  0.4977
  261MOL0     H35189   1.161   0.473   2.145  1.2204 -0.4778  3.5195
  261MOL0     H35190   1.010   0.516   2.225  2.0357  2.1643 -0.1148
  261MOL0     H35191   1.047   0.318   1.993  1.1533  0.0215 -0.5693
  261MOL0     H35192   1.021   0.481   1.972  2.1831  0.4831  1.5742
  261MOL0     H35193   0.795   0.472   2.038  0.7577  0.5772 -3.0525
  261MOL0     H35194   0.826   0.330   2.145  2.5488  1.7556  0.7184
  261MOL0     H35195   0.601   0.450   1.992  2.4843 -1.4635 -0.4690
  261MOL0     H35196   0.242   0.385   1.969 -0.4466  0.0714  0.4486
  261MOL0     H35197   0.368   0.509   2.001  1.3692  0.0589 -0.6420
  261MOL0     H35198   0.285   0.499   1.841  0.0735  0.0414  0.4592
  261MOL0     H35199   0.175   0.107   1.418  0.1934  1.3331  1.0867
  261MOL0     H35200  -0.052  -0.006   1.357  1.1021  2.4984  0.2548
  261MOL0     H35201  -0.252  -0.288   1.634  2.3124  1.2837  1.3821
  261MOL0     H35202  -0.285  -0.132   1.702 -0.0116 -0.7888  0.1629
  261MOL0     H35203  -0.471  -0.118   1.519  0.9214  0.2439  0.8252
  261MOL0     H35204  -0.426  -0.285   1.487  2.4531  1.0408 -0.1179
  261MOL0     H35205  -0.536  -0.176   1.750 -0.8344  0.6249 -0.0613
  261MOL0     H35206  -0.479  -0.337   1.727  0.0066 -0.4159  0.1930
  261MOL0     H35207  -0.637  -0.362   1.531  2.6797 -0.5124  1.3082
  261MOL0     H35208  -0.703  -0.369   1.685  1.7878 -1.7658 -2.1302
  261MOL0     H35209  -0.712  -0.160   1.475 -0.6783  0.4926  0.0570
  261MOL0     H35210  -0.747  -0.103   1.644  1.9389  0.7692 -0.4636
  261MOL0     H35211  -0.955  -0.240   1.635  0.4042 -0.5738 -0.4656
  261MOL0     H35212  -0.933  -0.132   1.497  0.1785  0.2206 -1.1271
  261MOL0     H35213  -0.833  -0.427   1.479 -1.4315 -2.0609 -0.5593
  261MOL0     H35214  -0.865  -0.317   1.354 -1.3271 -1.5045 -1.0302
  261MOL0     H35215  -1.030  -0.495   1.369  0.5700 -0.7483  0.5254
  261MOL0     H35216  -1.109  -0.338   1.413  0.5824 -0.0665 -1.1367
  261MOL0     H35217  -0.057  -0.180   1.735 -2.8777  1.2011 -1.6668
  261MOL0     H35218   0.164  -0.083   1.790  1.1640 -0.6630 -2.3356
  261MOL0     H35219   0.512   0.091   1.658  0.6357  0.8334 -1.3195
  261MOL0     H35220   0.734   0.123   1.761  0.8850 -1.6624  2.1729
  261MOL0     H35221   1.908   1.316   3.127  0.9613  2.0506  2.6983
  261MOL0     H35222   2.031   1.495   3.052  0.3466 -4.6646 -0.5208
  261MOL0     H35223   2.051   1.970   2.897 -1.5819 -3.7280  1.4855
  261MOL0     H35224   2.237   2.109   2.837  3.8047  0.9706 -0.7080
  261MOL0     H35225   2.573   1.962   2.680 -2.7285  0.6681  1.2553
  261MOL0     H35226   2.515   1.983   2.507 -1.9442  0.8818 -0.2219
  261MOL0     H35227   2.582   2.220   2.513 -0.9238  0.5983  1.4092
  261MOL0     H35228   2.712   2.132   2.520  0.6411  0.4561 -0.0188
  261MOL0     H35229   2.653   2.152   2.798  2.6786 -0.7473  0.4524
  261MOL0     H35230   2.628   2.313   2.732  2.9019  1.2594 -0.8138
  261MOL0     H35231   2.859   2.287   2.805 -0.1294  1.2069 -0.9251
  261MOL0     H35232   2.864   2.307   2.628  1.4811 -1.2134 -0.0488
  261MOL0     H35233   3.002   1.903   2.668 -0.0485 -0.9595  1.7814
  261MOL0     H35234   2.350   1.842   2.528 -0.5092 -0.8992 -1.0290
  261MOL0     H35235   2.169   1.684   2.585 -0.6172  2.7801 -4.9817
  262MOL0     O35236   2.069   7.153   8.401  0.5253 -0.2961  1.0407
  262MOL0     C35237   2.135   7.050   8.380  0.1175 -0.2417 -0.1548
  262MOL0     O35238   2.094   6.922   8.392  0.1951  0.8002 -1.1704
  262MOL0     C35239   1.961   6.905   8.413  0.1909  0.3056 -0.3218
  262MOL0     C35240   1.914   6.916   8.541  0.1915 -0.3046  0.4005
  262MOL0     C35241   1.775   6.893   8.573 -0.3024  0.7918  0.0554
  262MOL0     C35242   1.682   6.873   8.467 -0.2870  0.9237  0.2144
  262MOL0     O35243   1.558   6.840   8.518 -0.0903  0.3105  0.1117
  262MOL0     C35244   1.457   6.807   8.424 -0.7844 -0.3828  0.4598
  262MOL0     C35245   1.360   6.712   8.491  0.0764 -1.1932 -0.3745
  262MOL0     C35246   1.286   6.762   8.610 -0.7615 -0.5460 -0.4786
  262MOL0     C35247   1.163   6.847   8.573 -0.3933  0.2416  0.8849
  262MOL0     C35248   1.076   6.882   8.693 -0.5614 -0.3022 -0.6278
  262MOL0     C35249   0.931   6.918   8.659 -0.2778 -0.3802 -0.0816
  262MOL0     C35250   0.825   6.892   8.771 -0.3527  1.1024  0.0946
  262MOL0     C35251   0.702   6.961   8.722  0.1852  0.7217  0.7025
  262MOL0     N35252   0.594   6.930   8.807 -1.1428  0.1096 -0.0219
  262MOL0     C35253   0.477   6.871   8.762  0.3465 -0.9340  0.5182
  262MOL0     C35254   0.391   6.879   8.868 -0.7956 -0.4388  0.5543
  262MOL0     C35255   0.259   6.808   8.866 -0.1859  0.0363 -0.4592
  262MOL0     C35256   0.158   6.869   8.769  0.4963 -0.3350  0.0691
  262MOL0     C35257   0.121   7.015   8.813  0.1366  0.6865  0.3097
  262MOL0     C35258   0.008   7.053   8.714 -0.0817 -0.6986  0.1716
  262MOL0     O35259  -0.124   7.000   8.754 -0.4102 -0.2620  1.2168
  262MOL0     C35260  -0.225   7.032   8.676  0.8552 -0.7126 -0.2519
  262MOL0     C35261  -0.271   6.939   8.592  0.4089 -0.6702  0.5972
  262MOL0     C35262  -0.384   6.948   8.512 -0.3837  0.4092 -0.0538
  262MOL0     C35263  -0.416   6.829   8.433 -0.7209  0.2483 -0.7633
  262MOL0     C35264  -0.449   7.080   8.511 -0.4924  0.3180 -0.2271
  262MOL0     C35265  -0.578   7.109   8.443 -0.4246  0.4198  0.7213
  262MOL0     O35266  -0.635   7.234   8.459 -0.8833  0.6887 -1.0358
  262MOL0     C35267  -0.769   7.241   8.415  0.0735  0.2400  0.3549
  262MOL0     C35268  -0.873   7.179   8.491 -0.1234 -0.0076 -0.1428
  262MOL0     C35269  -1.002   7.196   8.452 -0.2412 -0.3681 -0.4061
  262MOL0     C35270  -1.033   7.281   8.346 -0.6004 -0.4822  0.9083
  262MOL0     O35271  -1.161   7.311   8.302  0.1235  0.0015 -0.2110
  262MOL0     C35272  -1.274   7.240   8.351 -0.0812  0.6679 -0.5909
  262MOL0     C35273  -1.406   7.298   8.318  0.3614 -0.8058  0.3982
  262MOL0     C35274  -1.515   7.201   8.352 -0.2188 -0.3023  0.0385
  262MOL0     C35275  -1.653   7.265   8.311 -0.1762 -0.4754  0.2102
  262MOL0     C35276  -1.775   7.174   8.338 -0.1978  0.7879  0.1227
  262MOL0     C35277  -1.902   7.234   8.284  1.6364  0.4822 -0.1542
  262MOL0     C35278  -2.026   7.151   8.286  0.7221 -0.2656 -0.1211
  262MOL0     C35279  -2.144   7.206   8.206 -0.3763 -0.6779  0.5800
  262MOL0    Cl35280  -2.120   7.214   8.028  0.4300  0.1342  0.4446
  262MOL0     C35281  -0.935   7.336   8.266  0.4576 -0.5835 -0.7266
  262MOL0     C35282  -0.797   7.321   8.302  0.1455 -0.1456  0.0611
  262MOL0     O35283  -0.622   7.022   8.373 -0.1270 -0.0696 -0.5062
  262MOL0     C35284  -0.399   7.177   8.598 -0.0578 -0.4681 -0.3034
  262MOL0     C35285  -0.282   7.151   8.675  0.3549 -0.1272 -0.1808
  262MOL0     N35286   0.460   6.938   8.969 -0.7984  0.1198 -0.6515
  262MOL0     N35287   0.582   6.964   8.934  0.1944  0.3310  0.6207
  262MOL0     C35288   1.732   6.865   8.336 -0.0188  0.0423  0.1085
  262MOL0     C35289   1.868   6.886   8.308  0.0565  0.1735 -0.6785
  262MOL0     C35290   2.282   7.071   8.358  0.4741 -0.0461 -1.2313
  262MOL0     C35291   2.343   7.197   8.343 -0.0172  0.2740 -0.0483
  262MOL0     C35292   2.476   7.203   8.311 -0.5283 -0.4252  0.6955
  262MOL0     C35293   2.554   7.092   8.288 -0.2986 -0.0530  0.2032
  262MOL0     O35294   2.685   7.093   8.251 -0.6898 -0.8001  0.6549
  262MOL0     C35295   2.727   7.206   8.179  0.1028  0.3142  0.2126
  262MOL0     C35296   2.846   7.180   8.083  0.7783 -0.4283  0.1990
  262MOL0     C35297   2.802   7.115   7.948  0.3041 -0.7275 -0.6932
  262MOL0     C35298   2.914   7.110   7.849 -0.4591  0.3186  0.3052
  262MOL0     C35299   3.018   7.004   7.875  0.6148  0.3817  0.6746
  262MOL0     C35300   3.101   6.923   7.880  0.1301  0.3269  0.7199
  262MOL0     C35301   2.495   6.971   8.299  0.4808  0.5718 -0.0556
  262MOL0     C35302   2.358   6.962   8.335 -0.2718 -0.2771  0.6513
  262MOL0     H35303   1.980   6.939   8.624 -2.9941  0.8483  2.8388
  262MOL0     H35304   1.734   6.894   8.674  1.3489  1.5758  0.7649
  262MOL0     H35305   1.394   6.891   8.395 -0.6291 -0.7976 -1.1773
  262MOL0     H35306   1.486   6.747   8.337 -4.9546 -1.6249 -0.3213
  262MOL0     H35307   1.286   6.682   8.416  0.7825 -2.9976 -0.3857
  262MOL0     H35308   1.422   6.631   8.529 -1.7493 -3.1627 -1.3743
  262MOL0     H35309   1.242   6.682   8.670 -0.6328 -1.0431 -1.0373
  262MOL0     H35310   1.355   6.830   8.661 -0.6061 -1.5060  0.6143
  262MOL0     H35311   1.191   6.944   8.531  0.0711 -1.2510 -2.6048
  262MOL0     H35312   1.102   6.787   8.505  0.9308  1.2330 -1.2984
  262MOL0     H35313   1.075   6.798   8.763 -0.5791 -0.5814 -0.9599
  262MOL0     H35314   1.131   6.961   8.745  0.1249 -0.2341 -1.4445
  262MOL0     H35315   0.929   7.022   8.625  1.1343 -1.3249 -3.5056
  262MOL0     H35316   0.914   6.869   8.563  0.1520 -0.5982 -0.0505
  262MOL0     H35317   0.802   6.785   8.765  1.4155  0.6702  0.4072
  262MOL0     H35318   0.863   6.912   8.871 -0.2637  1.6681 -0.0488
  262MOL0     H35319   0.672   6.923   8.624  0.3046  2.8289 -0.2140
  262MOL0     H35320   0.731   7.067   8.717  0.3075  0.6332 -2.3126
  262MOL0     H35321   0.442   6.847   8.662 -1.0837  0.7994  0.5661
  262MOL0     H35322   0.270   6.702   8.842 -0.5710 -0.2058  0.3748
  262MOL0     H35323   0.215   6.810   8.966  1.3294  1.0279  0.2297
  262MOL0     H35324   0.065   6.812   8.762  0.3430 -0.0212 -0.5189
  262MOL0     H35325   0.202   6.864   8.670 -1.8870 -1.6838 -0.9936
  262MOL0     H35326   0.206   7.084   8.800 -0.3266  1.3252  0.6489
  262MOL0     H35327   0.084   7.026   8.915 -2.1715  3.3152 -0.6770
  262MOL0     H35328   0.029   7.018   8.612 -1.9256  2.7690 -1.5403
  262MOL0     H35329   0.004   7.162   8.715 -0.2602 -0.6840 -0.9665
  262MOL0     H35330  -0.222   6.843   8.601  0.8025 -0.4971  0.2970
  262MOL0     H35331  -0.339   6.751   8.437 -3.1113 -2.2427  0.8195
  262MOL0     H35332  -0.502   6.776   8.477  0.7663 -0.8904  0.8931
  262MOL0     H35333  -0.432   6.854   8.328 -2.0978  1.9762 -0.1874
  262MOL0     H35334  -0.837   7.121   8.574  1.1513  2.3869  1.0785
  262MOL0     H35335  -1.082   7.136   8.496 -2.3014 -0.1215 -3.5044
  262MOL0     H35336  -1.262   7.143   8.301  1.7413  0.6916 -0.2800
  262MOL0     H35337  -1.271   7.226   8.460  0.1167 -2.7255 -0.9019
  262MOL0     H35338  -1.420   7.392   8.372 -1.4588 -1.1091  0.5374
  262MOL0     H35339  -1.404   7.336   8.216 -0.3717  1.8003  1.2774
  262MOL0     H35340  -1.518   7.191   8.461  4.0765 -1.3897  0.2287
  262MOL0     H35341  -1.500   7.099   8.317  0.0918 -1.2594  2.7477
  262MOL0     H35342  -1.660   7.362   8.361 -0.4249 -1.4485  2.1901
  262MOL0     H35343  -1.646   7.286   8.204  1.5006  0.5341  0.4812
  262MOL0     H35344  -1.772   7.151   8.445  2.9716 -0.3067 -0.0835
  262MOL0     H35345  -1.768   7.077   8.288  0.4097 -0.8795  3.1545
  262MOL0     H35346  -1.916   7.329   8.338 -1.1774  2.4027 -3.8233
  262MOL0     H35347  -1.893   7.260   8.178 -4.1239 -0.3880 -1.1351
  262MOL0     H35348  -2.057   7.155   8.391 -0.1673 -0.1333 -0.3820
  262MOL0     H35349  -2.005   7.050   8.249  2.8741 -1.1763  3.1783
  262MOL0     H35350  -2.171   7.304   8.247  2.9749  0.3583  0.6378
  262MOL0     H35351  -2.229   7.143   8.233 -2.0850  0.4657 -1.8641
  262MOL0     H35352  -0.974   7.407   8.194 -0.4131 -0.4119 -0.1058
  262MOL0     H35353  -0.714   7.367   8.251  0.8691 -0.8354  0.5954
  262MOL0     H35354  -0.451   7.272   8.610  0.9569 -0.1144  1.6771
  262MOL0     H35355  -0.234   7.228   8.734  2.3826  0.8970 -2.9960
  262MOL0     H35356   1.670   6.842   8.250  0.0300 -1.6982  0.5063
  262MOL0     H35357   1.902   6.886   8.205 -0.9491  3.9747 -1.1487
  262MOL0     H35358   2.281   7.284   8.360  0.7940  0.3770  2.9952
  262MOL0     H35359   2.513   7.302   8.286  2.3352 -1.7074 -0.7587
  262MOL0     H35360   2.649   7.256   8.121  0.1698 -2.4081 -2.4803
  262MOL0     H35361   2.757   7.278   8.256 -2.1296  0.1493  1.3329
  262MOL0     H35362   2.917   7.109   8.128  0.8663 -0.7960 -0.5070
  262MOL0     H35363   2.896   7.275   8.060 -0.1054  0.5424  2.0377
  262MOL0     H35364   2.724   7.178   7.903  0.9651  1.7355  1.4019
  262MOL0     H35365   2.765   7.013   7.960  1.7822 -1.3703 -1.3363
  262MOL0     H35366   2.980   7.197   7.846  4.4102 -2.9772 -0.8290
  262MOL0     H35367   2.869   7.074   7.756  0.2557 -0.5133  0.2641
  262MOL0     H35368   3.188   6.861   7.889 -0.4930 -0.4931  1.2259
  262MOL0     H35369   2.556   6.886   8.274 -1.1202 -0.7610  0.3548
  262MOL0     H35370   2.319   6.862   8.324  0.0157 -0.5967  2.3002
  263MOL0     O35371   3.115   0.503   8.735  0.7514 -0.1265  0.5970
  263MOL0     C35372   3.111   0.411   8.659 -0.3172 -0.0832  0.0564
  263MOL0     O35373   3.003   0.355   8.605 -0.3418  1.2478 -0.6339
  263MOL0     C35374   2.872   0.376   8.645 -0.3133 -0.9836  0.4792
  263MOL0     C35375   2.777   0.363   8.546 -0.6870  0.0563  0.2193
  263MOL0     C35376   2.654   0.411   8.559  0.2388 -0.7074 -0.4903
  263MOL0     C35377   2.609   0.460   8.684 -0.0501 -0.2514  0.9708
  263MOL0     O35378   2.488   0.519   8.709 -0.2577  0.9341  0.2914
  263MOL0     C35379   2.391   0.418   8.748  0.0597 -0.4834  0.1734
  263MOL0     C35380   2.428   0.367   8.883 -0.1807  0.0400 -0.1632
  263MOL0     C35381   2.335   0.272   8.944  0.7141 -0.0099 -0.8675
  263MOL0     C35382   2.224   0.346   9.028 -0.6702 -0.4294 -0.0905
  263MOL0     C35383   2.257   0.368   9.168  0.1262 -0.1677 -0.3005
  263MOL0     C35384   2.135   0.417   9.249 -0.4156  0.5395  0.2426
  263MOL0     C35385   2.104   0.566   9.226  0.2444 -0.2765 -0.0677
  263MOL0     C35386   1.959   0.614   9.285  0.6999  0.1256 -0.1719
  263MOL0     N35387   1.933   0.590   9.429 -1.1138 -0.5563 -0.2581
  263MOL0     C35388   1.807   0.594   9.476  0.8069 -0.0385  0.3228
  263MOL0     C35389   1.812   0.622   9.609 -0.0551  0.7987  0.1826
  263MOL0     C35390   1.702   0.629   9.706 -0.8531 -0.6918 -0.8697
  263MOL0     C35391   1.701   0.749   9.800 -0.0970  0.4837  0.8765
  263MOL0     C35392   1.676   0.889   9.746  0.2650 -0.0147 -0.1614
  263MOL0     C35393   1.537   0.925   9.716  0.0340 -0.4531 -0.6512
  263MOL0     O35394   1.475   0.852   9.612  0.0668  0.8734 -0.6556
  263MOL0     C35395   1.336   0.838   9.591  0.1640  0.4047  0.0443
  263MOL0     C35396   1.242   0.917   9.649 -0.0673 -0.4807  0.6462
  263MOL0     C35397   1.112   0.908   9.613  0.5647  0.4719 -1.0014
  263MOL0     C35398   1.009   0.993   9.698  0.1438 -0.6335 -0.5359
  263MOL0     C35399   1.056   0.818   9.522 -0.2670  0.1484  0.6325
  263MOL0     C35400   0.921   0.791   9.489 -0.3971  0.0873 -0.2485
  263MOL0     O35401   0.839   0.896   9.495 -0.4828  0.8304 -0.3618
  263MOL0     C35402   0.701   0.876   9.471 -0.1514  0.0943 -0.0114
  263MOL0     C35403   0.653   0.805   9.364 -0.2899  0.8758  0.4046
  263MOL0     C35404   0.515   0.809   9.330 -0.4032  0.1846 -0.6776
  263MOL0     C35405   0.424   0.880   9.405  0.3424 -0.1129 -0.0960
  263MOL0     O35406   0.296   0.888   9.356  0.2030  0.6110 -0.5920
  263MOL0     C35407   0.265   1.002   9.279  0.5818 -0.2365  0.3785
  263MOL0     C35408   0.218   0.957   9.136 -0.6199 -0.0057 -0.7111
  263MOL0     C35409   0.065   0.925   9.127 -0.5192 -0.4211  0.7466
  263MOL0     C35410   0.047   0.802   9.039  0.2473  0.7929  0.6362
  263MOL0     C35411  -0.096   0.751   9.049 -0.0227  0.0328 -0.1304
  263MOL0     C35412  -0.107   0.606   9.005 -0.1412  0.4010  0.0309
  263MOL0     C35413  -0.252   0.548   9.000 -0.4565  0.0992  0.4649
  263MOL0     C35414  -0.273   0.431   9.091 -0.3938 -0.0884 -0.2052
  263MOL0    Cl35415  -0.449   0.380   9.065 -0.5138 -0.2002  0.2798
  263MOL0     C35416   0.475   0.959   9.507 -0.5921  0.2494 -0.1832
  263MOL0     C35417   0.605   0.956   9.543 -0.0068  0.4274 -0.8180
  263MOL0     O35418   0.889   0.673   9.467  0.1605  0.7300  0.0471
  263MOL0     C35419   1.151   0.726   9.471  0.1613 -0.6138 -0.8845
  263MOL0     C35420   1.283   0.735   9.500 -1.3195 -0.1979  1.0069
  263MOL0     N35421   1.951   0.611   9.640  0.7615 -0.1502 -0.3147
  263MOL0     N35422   2.015   0.587   9.534 -0.6765 -0.6250  0.4662
  263MOL0     C35423   2.706   0.474   8.789 -1.0379 -0.7499 -0.5016
  263MOL0     C35424   2.838   0.436   8.770  0.5279  0.6518 -0.1264
  263MOL0     C35425   3.245   0.375   8.617 -0.4474  0.0614  0.8787
  263MOL0     C35426   3.266   0.276   8.521  1.2273  0.9541 -0.3212
  263MOL0     C35427   3.390   0.229   8.493 -0.6473  0.3145  0.2899
  263MOL0     C35428   3.505   0.278   8.557 -0.2681 -0.7292 -0.7642
  263MOL0     O35429   3.625   0.217   8.530 -0.3350  0.1778 -0.2295
  263MOL0     C35430   3.750   0.257   8.591  0.2115 -0.8741 -0.3003
  263MOL0     C35431   3.867   0.219   8.502  0.0786 -0.5043 -0.1127
  263MOL0     C35432   3.873   0.312   8.380 -0.1375  0.0030  0.0606
  263MOL0     C35433   3.972   0.263   8.271  0.2389 -0.5164  0.3480
  263MOL0     C35434   3.939   0.145   8.189  0.0542  0.4701 -0.2988
  263MOL0     C35435   3.900   0.045   8.124 -0.2507 -0.0644 -0.4578
  263MOL0     C35436   3.487   0.380   8.651  0.4925  0.0029  0.5450
  263MOL0     C35437   3.359   0.433   8.677 -0.1394 -0.6098 -0.5653
  263MOL0     H35438   2.817   0.334   8.449  0.2385  1.9089 -0.0062
  263MOL0     H35439   2.584   0.400   8.477  0.2998  2.0459 -1.0211
  263MOL0     H35440   2.288   0.457   8.755 -0.3336 -0.7202 -3.0033
  263MOL0     H35441   2.380   0.328   8.687 -0.3755 -1.3213  1.4332
  263MOL0     H35442   2.524   0.316   8.873  0.0846  0.7928 -1.9495
  263MOL0     H35443   2.446   0.453   8.948  0.2605  1.2316 -1.7831
  263MOL0     H35444   2.283   0.212   8.869 -0.7086 -1.2558  1.0138
  263MOL0     H35445   2.390   0.199   9.005  0.2617  0.1375 -0.2688
  263MOL0     H35446   2.194   0.443   8.986  0.5894  0.4500  0.9284
  263MOL0     H35447   2.132   0.288   9.026 -2.7240  2.6211 -0.5986
  263MOL0     H35448   2.290   0.271   9.204 -0.9636 -1.5106 -2.7110
  263MOL0     H35449   2.336   0.444   9.177 -1.9857  1.9631  2.5358
  263MOL0     H35450   2.044   0.364   9.220 -0.1554 -0.1153  0.5971
  263MOL0     H35451   2.144   0.397   9.356 -4.1410 -1.0202  0.4186
  263MOL0     H35452   2.174   0.638   9.271 -1.6537  1.8805 -0.3789
  263MOL0     H35453   2.103   0.579   9.117 -0.7947 -0.8403 -0.1296
  263MOL0     H35454   1.881   0.561   9.229  0.5985  2.0150 -1.9129
  263MOL0     H35455   1.936   0.719   9.267 -3.4979 -0.8836 -1.7876
  263MOL0     H35456   1.719   0.578   9.415  1.0485 -2.5669  0.5376
  263MOL0     H35457   1.607   0.629   9.651 -2.7222  0.7701  2.0981
  263MOL0     H35458   1.704   0.546   9.777  0.3875  1.1116  1.3253
  263MOL0     H35459   1.805   0.745   9.834 -0.1727  0.7308  1.1454
  263MOL0     H35460   1.630   0.733   9.883  0.9630 -3.3420  1.2245
  263MOL0     H35461   1.739   0.901   9.657 -1.2819  0.1562 -1.2712
  263MOL0     H35462   1.696   0.958   9.829 -1.8775 -0.7588  1.0661
  263MOL0     H35463   1.528   1.029   9.687 -1.8312 -0.4667 -0.2890
  263MOL0     H35464   1.478   0.902   9.806 -0.8151 -2.1248 -1.5761
  263MOL0     H35465   1.257   0.990   9.727 -2.5525 -0.8948  1.5875
  263MOL0     H35466   0.959   1.077   9.648  1.1144  1.1571  1.3748
  263MOL0     H35467   0.928   0.932   9.740 -0.4818  1.3782  1.3466
  263MOL0     H35468   1.052   1.044   9.785 -1.3018  1.1824 -0.8169
  263MOL0     H35469   0.719   0.748   9.299 -3.1901  2.0557 -4.0697
  263MOL0     H35470   0.482   0.746   9.248  0.4329 -1.2361  0.0319
  263MOL0     H35471   0.191   1.068   9.325  2.8280  2.5931  0.2155
  263MOL0     H35472   0.355   1.062   9.265 -0.3077  1.3459  1.2946
  263MOL0     H35473   0.252   1.033   9.065  2.1706 -0.7408 -0.2785
  263MOL0     H35474   0.274   0.866   9.114 -1.8392 -0.9126 -0.1918
  263MOL0     H35475   0.011   1.005   9.075 -1.4154 -0.9190  0.8801
  263MOL0     H35476   0.026   0.904   9.227  0.6888 -1.8381  0.9476
  263MOL0     H35477   0.080   0.812   8.935 -0.3598  0.3948  0.3987
  263MOL0     H35478   0.112   0.724   9.080 -1.7929 -1.1650  0.3632
  263MOL0     H35479  -0.165   0.810   8.988 -0.2230  0.4256  0.4559
  263MOL0     H35480  -0.129   0.750   9.154 -0.6604 -2.3300 -0.2981
  263MOL0     H35481  -0.061   0.594   8.907 -0.6058 -0.4728 -0.0833
  263MOL0     H35482  -0.040   0.563   9.080 -0.0350  1.5695  0.6372
  263MOL0     H35483  -0.272   0.521   8.896  0.9625  3.0704 -0.6839
  263MOL0     H35484  -0.321   0.630   9.023  1.9485  1.9674  1.4340
  263MOL0     H35485  -0.242   0.460   9.191  5.1854  0.1065 -1.6605
  263MOL0     H35486  -0.196   0.357   9.068  0.1183  0.3507  0.0812
  263MOL0     H35487   0.402   1.006   9.573  0.8270  1.1584  0.8084
  263MOL0     H35488   0.638   1.024   9.621  0.0005 -0.3246 -0.1518
  263MOL0     H35489   1.120   0.648   9.403 -2.3749 -0.0832 -0.4429
  263MOL0     H35490   1.351   0.668   9.447  0.4742  1.3507  1.2391
  263MOL0     H35491   2.678   0.517   8.884  0.5468  1.5167 -0.9798
  263MOL0     H35492   2.906   0.438   8.855 -2.3207 -1.6499  2.4493
  263MOL0     H35493   3.179   0.236   8.469  1.3627 -0.4549  0.4913
  263MOL0     H35494   3.400   0.154   8.415 -3.4395  1.5439 -1.4349
  263MOL0     H35495   3.750   0.366   8.601  0.9518 -1.0600  3.2667
  263MOL0     H35496   3.768   0.216   8.691  2.2771  1.0982  0.1921
  263MOL0     H35497   3.873   0.114   8.472  0.1816  0.0164 -2.0721
  263MOL0     H35498   3.961   0.236   8.555 -0.0358  0.2032 -0.1250
  263MOL0     H35499   3.902   0.415   8.403  0.7725 -0.1524 -0.3371
  263MOL0     H35500   3.774   0.335   8.339 -0.1149 -1.8050 -1.0907
  263MOL0     H35501   4.065   0.239   8.323  0.9515 -4.0492 -2.1904
  263MOL0     H35502   3.997   0.344   8.201  0.7903 -3.0078 -2.5244
  263MOL0     H35503   3.857  -0.028   8.058  1.2237 -1.4303  0.0319
  263MOL0     H35504   3.559   0.425   8.718  1.6000 -0.7263 -0.1247
  263MOL0     H35505   3.340   0.502   8.759 -1.7207 -3.2286  1.4354
  264MOL0     O35506   7.512   0.792   0.518 -0.3596  0.0320  0.0596
  264MOL0     C35507   7.516   0.883   0.443 -0.3196  0.1225  0.4396
  264MOL0     O35508   7.419   0.930   0.366 -0.4485 -0.1626 -0.1551
  264MOL0     C35509   7.288   0.901   0.402 -0.7742 -0.3440 -0.7323
  264MOL0     C35510   7.241   0.780   0.364  0.4356  0.3189  0.3842
  264MOL0     C35511   7.108   0.748   0.380 -0.6823  0.3018  0.5909
  264MOL0     C35512   7.015   0.842   0.429 -0.0339 -0.0114  0.8663
  264MOL0     O35513   6.882   0.815   0.431  0.6271  0.0792  0.8087
  264MOL0     C35514   6.829   0.831   0.561  0.2798 -0.0752 -0.6626
  264MOL0     C35515   6.681   0.865   0.545  0.0892 -0.0572  0.0065
  264MOL0     C35516   6.650   0.999   0.483  0.7922  0.2389 -0.6071
  264MOL0     C35517   6.490   1.000   0.467 -0.5803  0.3342 -0.6145
  264MOL0     C35518   6.445   1.144   0.438  0.7764  0.1563 -0.2337
  264MOL0     C35519   6.302   1.172   0.494 -0.2751 -0.3297 -0.3801
  264MOL0     C35520   6.256   1.312   0.463  0.0148  1.6098  0.9690
  264MOL0     C35521   6.198   1.385   0.586 -0.7800 -0.5775 -0.1213
  264MOL0     N35522   6.301   1.390   0.689  0.4485 -0.0963  0.0035
  264MOL0     C35523   6.432   1.405   0.668 -1.3731 -0.6029 -0.4141
  264MOL0     C35524   6.494   1.389   0.787 -0.0389  0.6214 -0.5930
  264MOL0     C35525   6.645   1.396   0.828  0.6889 -0.6503 -0.1370
  264MOL0     C35526   6.727   1.326   0.729  0.4842  0.4255 -0.0068
  264MOL0     C35527   6.878   1.300   0.770  0.0094  0.2469 -0.2924
  264MOL0     C35528   6.956   1.433   0.787  0.4662  1.2560  0.9230
  264MOL0     O35529   7.075   1.407   0.854 -0.7113  0.2243 -0.1900
  264MOL0     C35530   7.192   1.425   0.785  0.4601  0.3543  0.3238
  264MOL0     C35531   7.294   1.331   0.798 -0.8982  0.3065  0.0147
  264MOL0     C35532   7.414   1.330   0.731 -1.3672 -0.4381  0.0814
  264MOL0     C35533   7.513   1.224   0.776  0.2380 -0.3437  0.0683
  264MOL0     C35534   7.443   1.434   0.640  0.0400 -0.4483 -0.6871
  264MOL0     C35535   7.581   1.444   0.568  0.1181 -0.3908  1.1136
  264MOL0     O35536   7.609   1.576   0.522  0.1246 -0.5239 -0.1115
  264MOL0     C35537   7.712   1.600   0.436 -0.0637 -0.5236 -0.0118
  264MOL0     C35538   7.838   1.550   0.466 -0.9918 -0.4853  1.0399
  264MOL0     C35539   7.949   1.572   0.385  0.2106 -0.0377  0.0109
  264MOL0     C35540   7.927   1.638   0.261  0.8390 -0.3332 -0.0311
  264MOL0     O35541   8.027   1.675   0.181 -0.2003 -0.3504 -0.0724
  264MOL0     C35542   8.164   1.622   0.210 -0.0256 -0.4693  0.5245
  264MOL0     C35543   8.274   1.688   0.119  0.3889  0.1798 -0.3384
  264MOL0     C35544   8.255   1.662  -0.035  1.0980  0.0508  0.1351
  264MOL0     C35545   8.388   1.651  -0.115  0.1924 -0.8873  0.3580
  264MOL0     C35546   8.371   1.617  -0.255 -0.1554 -0.3174 -0.4896
  264MOL0     C35547   8.309   1.731  -0.338  0.3540 -0.1045 -0.2427
  264MOL0     C35548   8.268   1.692  -0.478  0.4459  0.2745 -0.6943
  264MOL0     C35549   8.379   1.686  -0.587  0.3056  0.8786  0.5411
  264MOL0    Cl35550   8.422   1.853  -0.641 -0.0134 -0.0272 -0.1993
  264MOL0     C35551   7.805   1.699   0.235 -0.6467 -0.2913 -0.1875
  264MOL0     C35552   7.696   1.677   0.319  0.1424 -0.9232 -0.1460
  264MOL0     O35553   7.639   1.341   0.534  0.0581 -0.7419 -0.2617
  264MOL0     C35554   7.343   1.530   0.622  0.9486  0.2128  0.2996
  264MOL0     C35555   7.220   1.530   0.697  0.2026  0.0207  0.1559
  264MOL0     N35556   6.405   1.340   0.877  0.1765  0.1026  0.4182
  264MOL0     N35557   6.285   1.345   0.816 -0.1733  0.8763  0.1264
  264MOL0     C35558   7.068   0.976   0.457  0.1605  1.2212  0.5064
  264MOL0     C35559   7.201   0.999   0.446 -0.5636 -0.3113  0.9785
  264MOL0     C35560   7.656   0.936   0.407 -0.7677 -0.6969  0.3053
  264MOL0     C35561   7.762   0.843   0.408  0.5793 -0.8867 -0.9682
  264MOL0     C35562   7.885   0.879   0.349  0.7900  0.2032  0.0197
  264MOL0     C35563   7.905   1.014   0.301 -1.0059 -0.0364 -0.0452
  264MOL0     O35564   8.031   1.049   0.265  0.0604 -0.5901 -0.0470
  264MOL0     C35565   8.106   0.959   0.190  0.3249 -0.5917 -0.2796
  264MOL0     C35566   8.241   1.029   0.161 -0.3115 -0.2509 -0.1810
  264MOL0     C35567   8.296   1.062   0.300 -0.4492 -0.2271  0.2252
  264MOL0     C35568   8.451   1.080   0.305 -0.2375  0.2570 -0.1064
  264MOL0     C35569   8.500   1.162   0.194 -0.3761 -0.7387 -0.2604
  264MOL0     C35570   8.552   1.238   0.110 -0.5353  0.4904 -0.9317
  264MOL0     C35571   7.800   1.103   0.304  0.0922  0.3632 -0.4771
  264MOL0     C35572   7.670   1.066   0.351 -0.7138 -0.2641 -0.0971
  264MOL0     H35573   7.309   0.718   0.308  1.0095  2.1186 -1.0083
  264MOL0     H35574   7.079   0.646   0.355  0.6764 -0.4055  1.7841
  264MOL0     H35575   6.839   0.743   0.624 -0.1863  0.4722  0.1972
  264MOL0     H35576   6.874   0.919   0.609  1.7600  1.3798 -4.3170
  264MOL0     H35577   6.631   0.782   0.494 -1.3545 -0.5139  2.0732
  264MOL0     H35578   6.633   0.855   0.643 -1.5076  3.4997 -0.2839
  264MOL0     H35579   6.678   1.074   0.557  0.4539  0.9373 -1.1762
  264MOL0     H35580   6.705   1.022   0.391  0.9755  2.6040  0.0268
  264MOL0     H35581   6.450   0.940   0.384 -1.5388  0.5569 -0.3226
  264MOL0     H35582   6.453   0.953   0.558  0.2626 -2.7342 -1.7244
  264MOL0     H35583   6.505   1.221   0.487 -2.0754  0.4901  3.1465
  264MOL0     H35584   6.442   1.148   0.328  0.7378 -2.0333 -0.3723
  264MOL0     H35585   6.226   1.098   0.469 -1.6975  1.1098 -0.4912
  264MOL0     H35586   6.313   1.163   0.603  2.5716  1.5577 -0.4121
  264MOL0     H35587   6.336   1.371   0.419  0.3281 -0.6689 -1.8553
  264MOL0     H35588   6.177   1.294   0.389  1.0702  0.1253  0.1403
  264MOL0     H35589   6.117   1.329   0.634  0.2536 -1.9934  0.0608
  264MOL0     H35590   6.168   1.488   0.565  1.4373  0.7056  2.2906
  264MOL0     H35591   6.487   1.435   0.580  2.5109 -2.6050  1.1048
  264MOL0     H35592   6.658   1.504   0.840 -2.2150 -0.1001 -1.1973
  264MOL0     H35593   6.663   1.345   0.923  0.2861  1.7841  1.3339
  264MOL0     H35594   6.723   1.374   0.630  1.0010 -0.7960 -0.6397
  264MOL0     H35595   6.678   1.230   0.706  4.1862 -1.8376  0.7018
  264MOL0     H35596   6.919   1.238   0.689 -3.0501  0.2028 -1.9438
  264MOL0     H35597   6.898   1.236   0.857 -0.8742  0.8169  0.3423
  264MOL0     H35598   6.894   1.490   0.856  1.9026  0.9949  2.5071
  264MOL0     H35599   6.967   1.478   0.688 -1.1085  1.4750  0.8269
  264MOL0     H35600   7.277   1.250   0.868 -0.4889  0.8745  0.7933
  264MOL0     H35601   7.477   1.170   0.865 -0.0299 -0.2213  0.0369
  264MOL0     H35602   7.537   1.158   0.692 -2.6884  1.3010 -2.2656
  264MOL0     H35603   7.604   1.277   0.804 -1.3419  3.4166 -1.2781
  264MOL0     H35604   7.852   1.495   0.558  0.9965 -0.7603  0.6067
  264MOL0     H35605   8.042   1.527   0.417  0.6848  0.3916 -0.7365
  264MOL0     H35606   8.209   1.646   0.307  1.5647  2.0540 -0.7172
  264MOL0     H35607   8.166   1.515   0.188 -0.4045 -0.3321 -0.2256
  264MOL0     H35608   8.267   1.796   0.134 -0.3992  0.0620  0.2202
  264MOL0     H35609   8.371   1.648   0.149  1.7243  1.6337 -2.4716
  264MOL0     H35610   8.188   1.737  -0.078 -1.5531 -3.4956 -2.5456
  264MOL0     H35611   8.190   1.574  -0.041 -3.1853  2.6810  2.4946
  264MOL0     H35612   8.437   1.747  -0.098  0.1953 -0.7144 -0.5973
  264MOL0     H35613   8.439   1.562  -0.078 -0.6177 -2.1311 -1.3938
  264MOL0     H35614   8.301   1.533  -0.259  0.7700 -1.1063 -0.4310
  264MOL0     H35615   8.468   1.589  -0.296 -0.8312  0.8198 -3.0372
  264MOL0     H35616   8.222   1.770  -0.285  0.6837 -0.0285  0.2449
  264MOL0     H35617   8.386   1.809  -0.344  0.2496  0.2217  2.0207
  264MOL0     H35618   8.193   1.762  -0.515  0.7813  0.9791 -0.0770
  264MOL0     H35619   8.222   1.593  -0.474  0.5814 -0.0246 -3.9717
  264MOL0     H35620   8.330   1.650  -0.678  0.7250 -0.3414  0.7801
  264MOL0     H35621   8.466   1.626  -0.559 -0.0783  0.4068  0.7157
  264MOL0     H35622   7.809   1.760   0.145  1.2265  0.1147  0.1418
  264MOL0     H35623   7.606   1.732   0.295  1.0695 -0.0776 -1.8827
  264MOL0     H35624   7.359   1.613   0.554  3.1599  2.9941  3.8498
  264MOL0     H35625   7.159   1.620   0.698 -1.4303 -1.0261  2.0511
  264MOL0     H35626   7.001   1.051   0.497 -0.3493  0.1670  1.7051
  264MOL0     H35627   7.242   1.096   0.472  0.4061 -0.4873  0.1701
  264MOL0     H35628   7.742   0.746   0.453  1.8675 -1.0873 -0.7941
  264MOL0     H35629   7.968   0.810   0.356  1.0638  0.4808 -0.4521
  264MOL0     H35630   8.122   0.864   0.242  0.0873 -1.7243 -2.1630
  264MOL0     H35631   8.050   0.940   0.098 -1.4115  0.2905  0.5557
  264MOL0     H35632   8.242   1.123   0.104  3.2484  1.1735  1.9435
  264MOL0     H35633   8.294   0.953   0.103  3.0536  0.2711  1.9486
  264MOL0     H35634   8.272   0.979   0.367 -0.8172 -3.0317 -3.1371
  264MOL0     H35635   8.247   1.154   0.333  1.2020  0.5114  0.7297
  264MOL0     H35636   8.495   0.980   0.292 -1.0979 -0.1074 -0.3233
  264MOL0     H35637   8.477   1.125   0.401 -0.1684  0.5830 -0.2787
  264MOL0     H35638   8.605   1.310   0.051 -0.3602 -0.1349 -1.5555
  264MOL0     H35639   7.813   1.197   0.252  1.2226  0.9539  0.8123
  264MOL0     H35640   7.588   1.136   0.341 -0.6239  0.0660  1.3057
  265MOL0     O35641  10.916   2.816   0.376 -0.0455  0.0611  1.0499
  265MOL0     C35642  10.911   2.763   0.265  0.2100  0.2324 -0.0912
  265MOL0     O35643  11.016   2.719   0.196 -0.3374 -0.6396  0.3602
  265MOL0     C35644  11.140   2.773   0.206  0.5046 -0.1022 -0.1127
  265MOL0     C35645  11.237   2.705   0.140 -0.2907  0.4546  0.4509
  265MOL0     C35646  11.377   2.734   0.167 -0.4194 -0.9015  0.5754
  265MOL0     C35647  11.416   2.843   0.244  0.3530  0.0222 -0.2560
  265MOL0     O35648  11.553   2.860   0.267  0.7272 -0.0510 -0.2391
  265MOL0     C35649  11.602   2.930   0.390  0.0815  0.0413  0.2945
  265MOL0     C35650  11.690   2.829   0.473 -0.4447  0.0563 -0.5694
  265MOL0     C35651  11.841   2.807   0.425  0.7630  0.6837 -0.3516
  265MOL0     C35652  11.914   2.711   0.521  0.2807  0.5820 -0.9352
  265MOL0     C35653  12.035   2.653   0.447 -0.1143  0.1760 -0.0235
  265MOL0     C35654  12.082   2.518   0.513  0.7081  0.0628  0.0489
  265MOL0     C35655  12.128   2.425   0.399  0.5310 -0.5280  0.2180
  265MOL0     C35656  12.157   2.288   0.457 -0.1826 -0.1069 -0.8831
  265MOL0     N35657  12.242   2.209   0.367  0.1558 -0.4997 -0.1791
  265MOL0     C35658  12.200   2.151   0.252 -0.1710 -0.0320  0.5785
  265MOL0     C35659  12.313   2.089   0.194  0.4129  0.2334 -0.6396
  265MOL0     C35660  12.331   2.012   0.069  0.3562 -0.4403  0.4202
  265MOL0     C35661  12.196   1.970  -0.016  0.7896 -0.5064  0.8831
  265MOL0     C35662  12.143   2.098  -0.095  0.0522 -0.0786 -0.0744
  265MOL0     C35663  12.015   2.069  -0.174  0.3838  0.5855 -0.2975
  265MOL0     O35664  11.893   2.046  -0.100 -0.1612 -0.8682 -0.0551
  265MOL0     C35665  11.779   1.985  -0.147 -0.5309  0.0313  0.1901
  265MOL0     C35666  11.685   1.959  -0.049  0.3326  0.2463 -0.1896
  265MOL0     C35667  11.560   1.900  -0.077  0.4858 -0.1623 -0.2082
  265MOL0     C35668  11.458   1.869   0.032 -0.0370  0.4085 -0.7045
  265MOL0     C35669  11.527   1.884  -0.220  0.3898 -0.3514 -0.4908
  265MOL0     C35670  11.392   1.844  -0.277  0.4697  0.1233  0.4651
  265MOL0     O35671  11.283   1.856  -0.195  0.1275  0.3940  0.1108
  265MOL0     C35672  11.161   1.816  -0.251  0.6410  0.8819  0.1313
  265MOL0     C35673  11.135   1.685  -0.278  0.3751 -0.0249  0.1979
  265MOL0     C35674  11.020   1.646  -0.344  0.5974  0.7094  0.6935
  265MOL0     C35675  10.920   1.737  -0.379 -0.3743  0.2912 -0.5053
  265MOL0     O35676  10.821   1.689  -0.453  0.2242  0.3759  0.5661
  265MOL0     C35677  10.719   1.780  -0.494  0.2094  0.0971  0.3417
  265MOL0     C35678  10.613   1.713  -0.564 -1.1797 -0.1154  0.2116
  265MOL0     C35679  10.663   1.610  -0.674  0.6817 -0.0356 -0.1133
  265MOL0     C35680  10.533   1.580  -0.759  0.6477  0.4842 -0.5300
  265MOL0     C35681  10.562   1.481  -0.870  0.1776  0.3038 -0.3424
  265MOL0     C35682  10.442   1.394  -0.907 -0.4390 -0.0032  0.2877
  265MOL0     C35683  10.325   1.471  -0.978 -0.2175  0.4780 -0.9204
  265MOL0     C35684  10.214   1.384  -1.015  0.6062 -0.2745  1.1986
  265MOL0    Cl35685  10.145   1.277  -0.892 -0.1350 -0.2516  0.0994
  265MOL0     C35686  10.947   1.877  -0.348  0.3784  0.1096 -0.0220
  265MOL0     C35687  11.063   1.917  -0.280 -0.9877 -0.0422  0.2484
  265MOL0     O35688  11.389   1.799  -0.392 -0.6949 -0.4212  0.6029
  265MOL0     C35689  11.632   1.901  -0.321  0.6613 -0.6546 -0.4849
  265MOL0     C35690  11.759   1.945  -0.282  0.3827 -0.5375 -0.5818
  265MOL0     N35691  12.409   2.113   0.286  0.6605 -0.3788 -0.8163
  265MOL0     N35692  12.367   2.163   0.387 -0.0098 -0.2653  0.3891
  265MOL0     C35693  11.313   2.926   0.303  0.6182  0.4451  0.3007
  265MOL0     C35694  11.177   2.883   0.284 -0.7455  0.0410  0.1104
  265MOL0     C35695  10.787   2.722   0.201  0.5542  0.1908 -0.8369
  265MOL0     C35696  10.779   2.706   0.059  0.0061 -1.4159 -0.3774
  265MOL0     C35697  10.652   2.681   0.006  0.0118 -0.7267  0.2093
  265MOL0     C35698  10.532   2.670   0.081 -0.4330  0.2843  1.1466
  265MOL0     O35699  10.416   2.650   0.006 -0.4017 -0.3302  0.5052
  265MOL0     C35700  10.304   2.572   0.053 -1.2274 -0.0334  0.3736
  265MOL0     C35701  10.345   2.423   0.040 -0.3173  0.4193 -0.2292
  265MOL0     C35702  10.375   2.380  -0.108 -0.9242  0.1592  0.1170
  265MOL0     C35703  10.255   2.385  -0.205  0.3445  0.8779 -0.4686
  265MOL0     C35704  10.173   2.277  -0.165  0.1900  0.5800  0.2832
  265MOL0     C35705  10.106   2.181  -0.119 -0.0406 -0.2170  0.1155
  265MOL0     C35706  10.541   2.689   0.216 -0.1230  0.5725 -0.1127
  265MOL0     C35707  10.662   2.715   0.271 -0.2391  0.0601  0.1127
  265MOL0     H35708  11.215   2.620   0.077 -2.3097  0.3075  1.2803
  265MOL0     H35709  11.450   2.675   0.113  0.7201  1.3463 -0.4730
  265MOL0     H35710  11.670   3.009   0.357  2.2841 -2.1762 -0.8606
  265MOL0     H35711  11.519   2.963   0.453 -2.4744 -0.0674 -2.7620
  265MOL0     H35712  11.691   2.861   0.577 -0.7787 -0.2033 -0.4860
  265MOL0     H35713  11.647   2.729   0.478 -1.8202  0.6949  1.6249
  265MOL0     H35714  11.843   2.770   0.322  2.2873  1.8613 -0.7790
  265MOL0     H35715  11.896   2.901   0.425  0.2290  0.9986 -0.3726
  265MOL0     H35716  11.935   2.764   0.614  2.2232  1.2847 -1.7244
  265MOL0     H35717  11.847   2.626   0.540  1.0290 -0.0915 -1.2735
  265MOL0     H35718  12.015   2.643   0.340 -0.8346  0.0865  0.1140
  265MOL0     H35719  12.114   2.728   0.453 -2.5354  2.8273  1.6583
  265MOL0     H35720  12.153   2.524   0.596 -2.0459 -1.5863  2.7345
  265MOL0     H35721  11.993   2.474   0.560 -1.0213  2.9951 -0.1818
  265MOL0     H35722  12.045   2.412   0.328  1.5040  1.7832 -1.4437
  265MOL0     H35723  12.206   2.478   0.345 -2.0750  1.4165 -1.8899
  265MOL0     H35724  12.067   2.239   0.496  1.0079 -0.0353  2.2504
  265MOL0     H35725  12.222   2.299   0.545  0.8895 -3.5123 -1.0817
  265MOL0     H35726  12.100   2.146   0.209  1.3210 -0.5212 -3.3245
  265MOL0     H35727  12.403   2.067   0.008 -0.4406 -2.5708 -2.6858
  265MOL0     H35728  12.383   1.921   0.099 -1.2925 -0.9785  1.7919
  265MOL0     H35729  12.120   1.926   0.050 -2.3211  1.8261 -0.8754
  265MOL0     H35730  12.212   1.902  -0.100  0.4147  0.1279  0.2917
  265MOL0     H35731  12.222   2.135  -0.161  0.0930 -1.0394 -0.5830
  265MOL0     H35732  12.124   2.179  -0.023  2.7165 -0.3630  1.0516
  265MOL0     H35733  12.033   1.980  -0.234 -3.3512  0.9473 -2.3119
  265MOL0     H35734  11.985   2.145  -0.247 -2.5802 -2.3741 -2.4603
  265MOL0     H35735  11.714   1.979   0.053  0.8985  0.5134 -0.4012
  265MOL0     H35736  11.490   1.872   0.136  1.3237 -2.6228 -0.9337
  265MOL0     H35737  11.373   1.938   0.032 -0.3250  0.0704  0.4765
  265MOL0     H35738  11.420   1.767   0.020 -0.9265 -0.2099  4.7760
  265MOL0     H35739  11.201   1.605  -0.245  4.8071  1.3826 -4.1252
  265MOL0     H35740  10.998   1.540  -0.350  0.5068  0.7349  0.5541
  265MOL0     H35741  10.678   1.817  -0.400 -1.5222 -1.1740  0.1318
  265MOL0     H35742  10.762   1.865  -0.548 -0.0952  0.7311  1.0771
  265MOL0     H35743  10.558   1.656  -0.488 -1.6881  1.4078  1.0221
  265MOL0     H35744  10.551   1.796  -0.599  0.8393  1.1470 -0.5748
  265MOL0     H35745  10.698   1.522  -0.618  0.7521 -0.4307 -0.7707
  265MOL0     H35746  10.751   1.644  -0.729 -0.5884  2.4751 -0.7347
  265MOL0     H35747  10.467   1.528  -0.690  1.0318 -0.8388 -1.1138
  265MOL0     H35748  10.483   1.671  -0.795 -2.8041 -0.4992  1.3301
  265MOL0     H35749  10.647   1.418  -0.843 -0.1538 -0.0851 -0.1952
  265MOL0     H35750  10.597   1.539  -0.956 -0.7821  0.0901 -0.8904
  265MOL0     H35751  10.481   1.315  -0.971  0.4478  0.9754 -0.4121
  265MOL0     H35752  10.407   1.346  -0.815  1.8410  0.0349  1.2360
  265MOL0     H35753  10.364   1.523  -1.067  2.3818  1.5113  0.6985
  265MOL0     H35754  10.290   1.548  -0.909 -1.8582 -0.1786 -0.9967
  265MOL0     H35755  10.256   1.321  -1.093  1.1605  0.8239  0.5819
  265MOL0     H35756  10.131   1.448  -1.049  0.7038 -1.0234 -0.5671
  265MOL0     H35757  10.879   1.954  -0.382 -0.2418  0.7610  2.4968
  265MOL0     H35758  11.076   2.019  -0.244  1.4779 -0.2282  0.0698
  265MOL0     H35759  11.621   1.876  -0.426  1.3436  2.3784 -1.3741
  265MOL0     H35760  11.842   1.971  -0.346  2.3763 -0.9244  1.7174
  265MOL0     H35761  11.340   3.008   0.368  1.6276  1.0785 -0.8678
  265MOL0     H35762  11.102   2.951   0.324 -1.6463 -1.1884  0.5701
  265MOL0     H35763  10.866   2.724  -0.003 -0.6182  1.3339 -0.6286
  265MOL0     H35764  10.646   2.643  -0.095 -0.4503 -3.1274  1.0899
  265MOL0     H35765  10.279   2.598   0.157  0.3180  0.2673  0.6813
  265MOL0     H35766  10.220   2.598  -0.012 -1.5369  2.1640  1.5529
  265MOL0     H35767  10.272   2.354   0.084  0.4675 -0.5294 -0.3880
  265MOL0     H35768  10.441   2.415   0.092 -0.1477  1.3688 -0.3722
  265MOL0     H35769  10.419   2.279  -0.115  1.2010  1.1211 -1.9081
  265MOL0     H35770  10.441   2.458  -0.146 -2.7599  0.4240 -2.8017
  265MOL0     H35771  10.281   2.364  -0.309 -2.0623 -0.5624 -0.8512
  265MOL0     H35772  10.203   2.480  -0.194  0.2504  0.7744 -0.0047
  265MOL0     H35773  10.047   2.099  -0.085 -1.9539  0.1193 -2.1861
  265MOL0     H35774  10.458   2.674   0.284 -1.2388 -0.6854 -1.6817
  265MOL0     H35775  10.673   2.727   0.378  5.0350  0.0669 -0.1695
  266MOL0     O35776   9.429   8.937   7.112  0.1917 -0.5433 -0.1227
  266MOL0     C35777   9.493   8.838   7.129 -0.5096  0.0149 -0.7502
  266MOL0     O35778   9.458   8.708   7.095  0.0972  0.4413 -0.4168
  266MOL0     C35779   9.327   8.696   7.072  0.4330  0.1517  0.4267
  266MOL0     C35780   9.231   8.739   7.160  0.2324  0.1438 -0.2615
  266MOL0     C35781   9.094   8.740   7.121  1.0956 -0.1996  0.2232
  266MOL0     C35782   9.052   8.690   6.998 -0.1951 -0.5221 -0.0050
  266MOL0     O35783   8.916   8.708   6.974  0.5087  0.3545 -0.2079
  266MOL0     C35784   8.872   8.663   6.843  0.1046  0.0032  1.0336
  266MOL0     C35785   8.722   8.674   6.861  1.2003 -0.4755  0.1202
  266MOL0     C35786   8.649   8.639   6.733  0.3807  0.7055 -0.6471
  266MOL0     C35787   8.492   8.644   6.767 -0.0857  0.0093  0.6955
  266MOL0     C35788   8.402   8.617   6.651 -0.0474 -0.3346  0.2958
  266MOL0     C35789   8.256   8.631   6.699  0.3485  0.2445 -1.4072
  266MOL0     C35790   8.166   8.620   6.578 -0.4371 -0.0257  0.2121
  266MOL0     C35791   8.132   8.484   6.529  0.0307  1.1743  0.5700
  266MOL0     N35792   8.010   8.468   6.440  0.1455 -1.4769 -0.2455
  266MOL0     C35793   7.945   8.356   6.404  0.6727 -0.1422 -0.3688
  266MOL0     C35794   7.835   8.397   6.344  1.0073  0.8752  0.1854
  266MOL0     C35795   7.734   8.292   6.278 -0.6978 -0.1461  0.0024
  266MOL0     C35796   7.594   8.310   6.338 -0.1561  0.1471  0.4670
  266MOL0     C35797   7.493   8.203   6.282 -0.4610 -0.1750  0.4033
  266MOL0     C35798   7.341   8.250   6.301  0.0414  0.2090 -0.1767
  266MOL0     O35799   7.278   8.200   6.422  0.1085  0.4647  0.4014
  266MOL0     C35800   7.155   8.252   6.446 -0.2121 -0.1338  0.0557
  266MOL0     C35801   7.086   8.210   6.561 -0.5219 -0.4063  0.7631
  266MOL0     C35802   6.960   8.255   6.610 -0.2076 -0.5553 -0.5120
  266MOL0     C35803   6.903   8.196   6.741 -0.0566  0.1985 -0.4529
  266MOL0     C35804   6.898   8.363   6.536 -0.1346  0.4807 -0.7348
  266MOL0     C35805   6.767   8.414   6.572 -0.1152  0.4314 -0.2204
  266MOL0     O35806   6.659   8.333   6.543 -0.1954 -0.0464 -0.1718
  266MOL0     C35807   6.557   8.342   6.632  0.7308 -0.8021  0.0046
  266MOL0     C35808   6.544   8.252   6.733  0.0135  0.1028 -0.5494
  266MOL0     C35809   6.443   8.261   6.827  0.3314 -0.3185 -0.1109
  266MOL0     C35810   6.353   8.370   6.827  0.1747  0.7673  0.2738
  266MOL0     O35811   6.256   8.370   6.926 -0.0820 -0.7631  0.5801
  266MOL0     C35812   6.126   8.423   6.892 -0.0518  0.6241 -0.5511
  266MOL0     C35813   6.103   8.560   6.948  0.0165  0.1388 -0.1334
  266MOL0     C35814   5.974   8.618   6.914  0.2167 -0.0608  0.0753
  266MOL0     C35815   5.842   8.564   6.975 -0.5156  0.5671 -0.1523
  266MOL0     C35816   5.821   8.616   7.122 -0.7915 -0.4771  0.4879
  266MOL0     C35817   5.669   8.621   7.147  0.0759  0.2967  0.3347
  266MOL0     C35818   5.657   8.652   7.294  0.3824  0.4468  0.9875
  266MOL0     C35819   5.521   8.638   7.348 -0.4202 -0.4770 -0.1278
  266MOL0    Cl35820   5.408   8.760   7.291 -0.2283  0.7515 -0.1523
  266MOL0     C35821   6.370   8.466   6.721 -0.4668 -0.2765 -0.0182
  266MOL0     C35822   6.477   8.454   6.626  0.4687  0.2652 -0.4181
  266MOL0     O35823   6.768   8.517   6.638  0.5593  0.3518  0.5039
  266MOL0     C35824   6.962   8.398   6.414  0.4633 -0.0392  0.1922
  266MOL0     C35825   7.082   8.340   6.369 -0.2983  0.0695  0.4508
  266MOL0     N35826   7.829   8.536   6.332 -0.2938 -0.1813 -0.3789
  266MOL0     N35827   7.938   8.577   6.385  0.4860  0.5525 -0.2517
  266MOL0     C35828   9.150   8.641   6.916  0.9334  0.0696  0.4126
  266MOL0     C35829   9.286   8.632   6.954 -1.1675  0.3610 -0.0618
  266MOL0     C35830   9.616   8.858   7.204  0.4204 -0.1481 -0.6764
  266MOL0     C35831   9.634   8.968   7.297  0.0856 -0.0529 -0.0097
  266MOL0     C35832   9.755   8.976   7.367 -0.6144  0.7461  0.5646
  266MOL0     C35833   9.859   8.879   7.347 -0.8020  0.0722  0.5520
  266MOL0     O35834   9.992   8.903   7.385 -0.0581  0.0137  0.3872
  266MOL0     C35835  10.004   8.986   7.496 -0.8506  0.0587 -0.6749
  266MOL0     C35836  10.034   9.132   7.464  1.0775 -0.1338 -0.3652
  266MOL0     C35837  10.162   9.150   7.391  0.3126 -0.4882  0.3604
  266MOL0     C35838  10.197   9.298   7.353 -0.0814  0.6835  0.2322
  266MOL0     C35839  10.099   9.354   7.265 -0.3304 -0.3968 -0.8332
  266MOL0     C35840  10.009   9.380   7.188 -0.5740 -0.5849 -0.5695
  266MOL0     C35841   9.839   8.777   7.256  0.6600 -0.4639 -0.3995
  266MOL0     C35842   9.715   8.761   7.188  0.4987 -0.1683  0.3634
  266MOL0     H35843   9.261   8.781   7.256  2.5232 -2.3622  0.2233
  266MOL0     H35844   9.020   8.791   7.183 -0.4122 -0.3004 -1.4018
  266MOL0     H35845   8.893   8.730   6.759  0.4992  0.2387  1.3160
  266MOL0     H35846   8.903   8.561   6.821  1.0272  0.9352 -2.5743
  266MOL0     H35847   8.693   8.620   6.951  1.5321 -1.3703 -0.2970
  266MOL0     H35848   8.711   8.781   6.885  2.4854  0.4405 -2.8673
  266MOL0     H35849   8.665   8.712   6.653  0.9728  1.5345  0.2065
  266MOL0     H35850   8.696   8.548   6.694  0.3352  1.1523 -1.7852
  266MOL0     H35851   8.480   8.576   6.852  0.3156  0.1966  0.9042
  266MOL0     H35852   8.464   8.743   6.802 -3.3435 -0.5984  0.0955
  266MOL0     H35853   8.419   8.684   6.566  0.9980 -0.2987  0.5222
  266MOL0     H35854   8.424   8.516   6.615  0.3210 -0.3797  0.6411
  266MOL0     H35855   8.236   8.555   6.776 -2.6294  0.1677 -2.1438
  266MOL0     H35856   8.249   8.728   6.749  2.3657  1.3269 -3.0845
  266MOL0     H35857   8.066   8.658   6.601 -0.4379 -1.1536  2.3441
  266MOL0     H35858   8.204   8.679   6.494 -1.1793  0.2658  0.0729
  266MOL0     H35859   8.129   8.422   6.620  1.3524  0.9972  0.5068
  266MOL0     H35860   8.220   8.448   6.476 -0.4553  0.5024  0.1944
  266MOL0     H35861   7.976   8.255   6.425  3.5039  1.2171  2.9650
  266MOL0     H35862   7.744   8.308   6.171 -1.2598 -1.4656 -0.2699
  266MOL0     H35863   7.779   8.198   6.310 -1.8420  0.2906  3.2681
  266MOL0     H35864   7.549   8.401   6.296 -0.1792  0.6414  1.5420
  266MOL0     H35865   7.600   8.312   6.447 -0.4720  0.7395  0.4755
  266MOL0     H35866   7.512   8.108   6.333 -0.3458  0.0680  0.8251
  266MOL0     H35867   7.511   8.192   6.175 -0.0519 -0.9868  0.5513
  266MOL0     H35868   7.278   8.219   6.217 -1.8296  1.3859  0.7175
  266MOL0     H35869   7.336   8.359   6.306 -0.5999  0.2787 -1.8627
  266MOL0     H35870   7.148   8.139   6.616  0.3387  0.7478  1.3111
  266MOL0     H35871   6.834   8.265   6.790  0.8565  1.2698 -0.6481
  266MOL0     H35872   6.866   8.098   6.710 -0.0685 -1.2731  3.5787
  266MOL0     H35873   6.981   8.183   6.817  1.1722  0.9535 -1.5368
  266MOL0     H35874   6.614   8.170   6.743 -1.3333 -0.8808  1.5833
  266MOL0     H35875   6.431   8.188   6.906 -2.6492  0.6471  0.4442
  266MOL0     H35876   6.113   8.437   6.784  2.4923  1.2825 -0.8384
  266MOL0     H35877   6.048   8.350   6.915  0.5208  0.1928  0.0376
  266MOL0     H35878   6.097   8.558   7.057 -0.3615  1.1946 -0.1257
  266MOL0     H35879   6.180   8.630   6.915 -1.7420  1.7844 -0.9277
  266MOL0     H35880   5.945   8.621   6.809 -3.0635  0.9685  0.8945
  266MOL0     H35881   5.988   8.722   6.942 -2.0193  0.3686 -0.2013
  266MOL0     H35882   5.761   8.598   6.909 -0.4754 -0.2845 -0.6557
  266MOL0     H35883   5.851   8.455   6.971  2.3170  0.7286 -1.2207
  266MOL0     H35884   5.872   8.712   7.129 -0.1153 -0.8030  0.0459
  266MOL0     H35885   5.874   8.555   7.196  0.7385  3.0581  2.5591
  266MOL0     H35886   5.632   8.706   7.089  0.1273  0.0695 -0.0331
  266MOL0     H35887   5.626   8.528   7.109  2.5687 -0.3991 -1.0773
  266MOL0     H35888   5.683   8.755   7.319 -2.3680  0.9547  2.0665
  266MOL0     H35889   5.727   8.581   7.338  1.6282  0.0481 -1.4273
  266MOL0     H35890   5.522   8.642   7.457  0.8110  0.2613 -0.1530
  266MOL0     H35891   5.483   8.540   7.317  0.6912 -0.7018 -0.8270
  266MOL0     H35892   6.289   8.538   6.710 -1.1764 -1.0146  0.2389
  266MOL0     H35893   6.493   8.508   6.533  1.7782 -0.0806 -0.4134
  266MOL0     H35894   6.915   8.471   6.350  0.5707 -0.5485 -0.4788
  266MOL0     H35895   7.111   8.370   6.269 -1.9629  0.7238  0.1242
  266MOL0     H35896   9.123   8.612   6.814 -0.4614 -0.4651  0.9113
  266MOL0     H35897   9.363   8.593   6.889 -0.4498  1.2837  0.2049
  266MOL0     H35898   9.564   9.051   7.305  0.3099  0.1074  0.3093
  266MOL0     H35899   9.756   9.058   7.439 -1.2646 -0.0741  1.5328
  266MOL0     H35900   9.917   8.977   7.562 -3.1800 -0.5203 -3.6307
  266MOL0     H35901  10.101   8.954   7.534  1.4249  1.9184 -4.2644
  266MOL0     H35902  10.052   9.180   7.561  3.7354  1.7040 -1.6446
  266MOL0     H35903   9.957   9.185   7.407  0.3231  1.6364  2.1068
  266MOL0     H35904  10.155   9.093   7.298  0.7906 -1.1599  0.7322
  266MOL0     H35905  10.243   9.098   7.443  1.9517 -0.4689 -2.0193
  266MOL0     H35906  10.293   9.307   7.302  1.7490  2.0240  3.5530
  266MOL0     H35907  10.210   9.363   7.441  2.3090  0.8724 -0.1769
  266MOL0     H35908   9.930   9.397   7.117  0.0644 -0.5361 -1.2864
  266MOL0     H35909   9.913   8.701   7.236  0.5860 -0.0586 -2.4216
  266MOL0     H35910   9.695   8.673   7.128 -0.2643 -0.1458  0.5719
  267MOL0     O35911   1.323   8.198   5.174  0.7197 -0.1268 -0.9459
  267MOL0     C35912   1.352   8.320   5.158 -0.2449 -0.3469  0.5646
  267MOL0     O35913   1.267   8.422   5.141  0.3256 -1.3228  0.0594
  267MOL0     C35914   1.126   8.406   5.141  0.6272 -0.4644 -0.0258
  267MOL0     C35915   1.058   8.301   5.077 -0.2518 -0.2448 -0.5339
  267MOL0     C35916   0.915   8.295   5.092 -0.0462 -0.0907  0.1538
  267MOL0     C35917   0.843   8.373   5.179 -0.3852 -0.0768  0.0009
  267MOL0     O35918   0.713   8.363   5.206 -0.5349  0.2740 -0.7194
  267MOL0     C35919   0.645   8.460   5.123  0.0494  0.6605  0.2847
  267MOL0     C35920   0.494   8.480   5.169  0.0452  0.5904  0.5025
  267MOL0     C35921   0.397   8.367   5.130  0.2790 -0.5995 -0.0685
  267MOL0     C35922   0.348   8.383   4.981 -0.1796 -0.3759 -0.0765
  267MOL0     C35923   0.270   8.268   4.936  1.3292 -0.9573 -0.6225
  267MOL0     C35924   0.126   8.265   4.999  0.4233 -0.3986  0.3663
  267MOL0     C35925   0.035   8.146   4.951 -0.2088  0.2343 -0.0914
  267MOL0     C35926   0.021   8.125   4.799 -0.5705  0.3762 -0.1607
  267MOL0     N35927  -0.089   8.039   4.760  0.3232  0.8228 -0.4278
  267MOL0     C35928  -0.092   7.900   4.754  0.2840  0.7880  0.2496
  267MOL0     C35929  -0.214   7.866   4.701 -0.0970 -0.5977 -1.8281
  267MOL0     C35930  -0.255   7.728   4.646 -0.7184 -0.6305 -0.2891
  267MOL0     C35931  -0.404   7.699   4.652 -0.1704 -0.2364  0.4914
  267MOL0     C35932  -0.495   7.792   4.566 -0.4170  0.9127 -0.5681
  267MOL0     C35933  -0.603   7.717   4.495  0.2882  0.6714  0.2852
  267MOL0     O35934  -0.680   7.673   4.607  0.3964  0.1079  0.0460
  267MOL0     C35935  -0.795   7.603   4.577 -0.1342  0.4113 -0.5640
  267MOL0     C35936  -0.849   7.576   4.454  0.1371  1.2692 -0.0342
  267MOL0     C35937  -0.977   7.514   4.428 -0.5799 -0.2878  0.0782
  267MOL0     C35938  -1.022   7.487   4.288  0.1444 -0.1359  0.1259
  267MOL0     C35939  -1.053   7.467   4.537  0.0949  0.5829  0.0200
  267MOL0     C35940  -1.186   7.413   4.538 -0.5791 -0.0462  0.0219
  267MOL0     O35941  -1.255   7.458   4.642  0.0084 -0.5231 -0.0112
  267MOL0     C35942  -1.384   7.428   4.666  0.1797  0.1921 -0.0521
  267MOL0     C35943  -1.444   7.521   4.754  1.1545 -1.0549 -0.4544
  267MOL0     C35944  -1.581   7.509   4.784 -0.6125 -0.0209  1.3094
  267MOL0     C35945  -1.660   7.403   4.727 -0.8248  0.3702  0.6275
  267MOL0     O35946  -1.797   7.400   4.736 -0.0476  0.1259  0.0145
  267MOL0     C35947  -1.871   7.397   4.611  0.3832 -0.4518 -0.4848
  267MOL0     C35948  -2.008   7.457   4.643 -1.0324  0.1411 -0.2402
  267MOL0     C35949  -2.092   7.501   4.527 -0.5523  0.0328 -0.3262
  267MOL0     C35950  -2.107   7.381   4.418  0.5737  0.2067 -0.1064
  267MOL0     C35951  -2.218   7.396   4.318  0.2619  1.0224  0.6408
  267MOL0     C35952  -2.277   7.262   4.259 -0.3531 -0.9438  0.2275
  267MOL0     C35953  -2.408   7.293   4.184 -0.4090 -0.1635 -1.3945
  267MOL0     C35954  -2.511   7.336   4.296 -0.7345 -0.0868  0.3685
  267MOL0    Cl35955  -2.643   7.225   4.313  0.3492  0.6185  0.2797
  267MOL0     C35956  -1.594   7.309   4.652  0.4367 -0.3636  0.3651
  267MOL0     C35957  -1.456   7.320   4.619  0.4557 -0.3771  0.6622
  267MOL0     O35958  -1.225   7.343   4.443  0.5368 -0.0996  0.2833
  267MOL0     C35959  -0.985   7.477   4.661 -0.1807  0.3160 -0.7577
  267MOL0     C35960  -0.863   7.539   4.679  0.1947  0.3557  0.3547
  267MOL0     N35961  -0.281   7.984   4.677  0.7110 -0.3345  0.2142
  267MOL0     N35962  -0.213   8.085   4.718  0.0336  0.3153  0.5283
  267MOL0     C35963   0.912   8.475   5.241 -0.9012 -0.9603 -0.3268
  267MOL0     C35964   1.054   8.490   5.227  0.9484 -0.6306  0.1518
  267MOL0     C35965   1.494   8.354   5.149  1.1619 -0.0748  0.4837
  267MOL0     C35966   1.540   8.493   5.146  0.0579  0.3711 -0.5812
  267MOL0     C35967   1.672   8.519   5.162 -0.1861 -0.0152  0.0981
  267MOL0     C35968   1.771   8.420   5.155  0.7382  0.1460  0.3368
  267MOL0     O35969   1.900   8.464   5.161 -0.7019  0.3600  0.2948
  267MOL0     C35970   1.992   8.374   5.228 -0.3982  0.8454  0.0305
  267MOL0     C35971   2.115   8.433   5.281 -0.4353 -0.1810  0.0226
  267MOL0     C35972   2.174   8.529   5.172 -0.0466 -0.5752  0.4878
  267MOL0     C35973   2.314   8.571   5.213  0.0730  0.6323  0.1894
  267MOL0     C35974   2.413   8.461   5.218 -0.6924  0.5580  0.5158
  267MOL0     C35975   2.482   8.365   5.241 -0.2321 -0.1291  0.4192
  267MOL0     C35976   1.738   8.286   5.159 -1.1874  0.0027 -0.1513
  267MOL0     C35977   1.598   8.262   5.163 -0.1839 -0.1210  0.5038
  267MOL0     H35978   1.095   8.222   5.014 -2.7983  0.7219 -3.4684
  267MOL0     H35979   0.860   8.219   5.037 -1.9580 -0.0702  1.9242
  267MOL0     H35980   0.697   8.556   5.119  1.1842  0.0941  1.0700
  267MOL0     H35981   0.657   8.434   5.017  0.0704  2.0081 -0.0636
  267MOL0     H35982   0.471   8.491   5.275 -1.7581 -0.4579  0.2827
  267MOL0     H35983   0.452   8.571   5.125 -3.2461 -0.0811  1.9040
  267MOL0     H35984   0.459   8.278   5.144  0.7413 -0.1080  1.1332
  267MOL0     H35985   0.306   8.364   5.191  1.7426 -0.6109  2.1898
  267MOL0     H35986   0.280   8.467   4.964  1.1309  0.6177 -0.5115
  267MOL0     H35987   0.441   8.393   4.924  0.8806  0.9604  1.7732
  267MOL0     H35988   0.249   8.291   4.831 -0.1778  1.5129  0.1222
  267MOL0     H35989   0.318   8.170   4.944 -1.5398 -2.3541  1.5642
  267MOL0     H35990   0.131   8.262   5.108  0.0313 -1.2508  0.3686
  267MOL0     H35991   0.087   8.360   4.960  0.1003 -0.7685 -0.2169
  267MOL0     H35992   0.063   8.052   4.999 -2.6747  0.1082  1.3049
  267MOL0     H35993  -0.067   8.175   4.980 -1.0184 -0.0663 -2.4520
  267MOL0     H35994   0.117   8.086   4.765  0.2320  0.2318  2.0744
  267MOL0     H35995   0.001   8.219   4.748 -0.0742  1.5866  1.7546
  267MOL0     H35996  -0.010   7.832   4.775  1.7305  1.5501 -2.4234
  267MOL0     H35997  -0.228   7.716   4.541  1.3105  0.9613  0.0080
  267MOL0     H35998  -0.197   7.647   4.691  1.7866  1.7197  0.9849
  267MOL0     H35999  -0.448   7.702   4.752  0.7360  2.1087  0.8874
  267MOL0     H36000  -0.400   7.598   4.611  3.5413  0.5151 -1.4602
  267MOL0     H36001  -0.438   7.835   4.483  1.4155 -0.5336 -0.1129
  267MOL0     H36002  -0.533   7.865   4.638 -1.9551 -2.5985  2.5032
  267MOL0     H36003  -0.563   7.632   4.439 -1.4836 -0.0222 -0.0119
  267MOL0     H36004  -0.660   7.778   4.425 -0.8300 -0.0414  0.5342
  267MOL0     H36005  -0.796   7.610   4.366  3.3430 -2.3922  0.2225
  267MOL0     H36006  -0.949   7.529   4.217 -0.1297 -2.1947 -1.4614
  267MOL0     H36007  -1.035   7.382   4.262 -2.4974  0.5003 -1.4300
  267MOL0     H36008  -1.117   7.533   4.260  2.9021  5.4687 -1.8116
  267MOL0     H36009  -1.388   7.597   4.807 -0.7233  0.3156 -0.3511
  267MOL0     H36010  -1.633   7.587   4.839  0.0600 -0.0274  1.9698
  267MOL0     H36011  -1.821   7.459   4.536  0.9974  2.8535  2.4081
  267MOL0     H36012  -1.880   7.292   4.582  1.0565 -0.9821  1.1202
  267MOL0     H36013  -2.070   7.380   4.690 -1.8028 -0.3889 -2.0313
  267MOL0     H36014  -1.985   7.538   4.713  1.6389  1.1678 -2.1250
  267MOL0     H36015  -2.057   7.596   4.485 -3.3225  0.4830 -1.9230
  267MOL0     H36016  -2.193   7.528   4.559 -0.3916  1.4458 -0.9115
  267MOL0     H36017  -2.012   7.362   4.367  1.2210  0.5068  0.9544
  267MOL0     H36018  -2.132   7.287   4.466 -0.5021  0.5699  0.0573
  267MOL0     H36019  -2.181   7.445   4.227  0.0516 -1.2116 -0.7121
  267MOL0     H36020  -2.295   7.460   4.361 -0.0356  2.1414 -1.4284
  267MOL0     H36021  -2.203   7.232   4.185  2.3169 -0.0188  2.3409
  267MOL0     H36022  -2.297   7.183   4.332  0.0922  0.0709  1.4962
  267MOL0     H36023  -2.442   7.199   4.140  1.1563 -1.7897  0.6896
  267MOL0     H36024  -2.401   7.361   4.099 -0.6653 -2.0423 -2.9939
  267MOL0     H36025  -2.559   7.432   4.277 -0.7262 -0.3339 -0.9532
  267MOL0     H36026  -2.463   7.344   4.395  0.0180 -2.0735  0.2107
  267MOL0     H36027  -1.664   7.233   4.619 -1.8803  1.4616  0.7948
  267MOL0     H36028  -1.421   7.236   4.560 -1.8946 -0.8109 -0.2052
  267MOL0     H36029  -1.029   7.441   4.753 -0.0892  0.1256 -0.7859
  267MOL0     H36030  -0.829   7.545   4.782 -0.3849  1.3928  0.4937
  267MOL0     H36031   0.875   8.555   5.305  1.7434 -1.2475  1.7565
  267MOL0     H36032   1.101   8.566   5.288  0.0508 -0.4822  0.6859
  267MOL0     H36033   1.468   8.573   5.143 -0.3065  0.0169 -1.5983
  267MOL0     H36034   1.704   8.623   5.165 -0.5346  0.0848  0.4638
  267MOL0     H36035   1.945   8.331   5.317 -0.9106  1.5630  0.1145
  267MOL0     H36036   2.005   8.295   5.154 -1.0163  2.7803 -2.2779
  267MOL0     H36037   2.183   8.356   5.317 -0.2390  0.2891  0.6803
  267MOL0     H36038   2.088   8.491   5.370  2.4251  1.9084 -0.3683
  267MOL0     H36039   2.111   8.617   5.157 -1.2700 -1.5078  0.0574
  267MOL0     H36040   2.190   8.486   5.073  1.1150 -0.1983  0.4947
  267MOL0     H36041   2.296   8.611   5.313 -0.5891  1.7565 -0.3735
  267MOL0     H36042   2.355   8.646   5.146 -0.7543  0.5860 -0.3825
  267MOL0     H36043   2.534   8.281   5.284 -0.2879 -0.0835  0.5761
  267MOL0     H36044   1.808   8.205   5.172  1.4876  1.8293 -2.0731
  267MOL0     H36045   1.573   8.158   5.179  2.6925 -0.6725  2.0627
  268MOL0     O36046   3.581  10.174   5.723  0.7597 -0.0113  0.4436
  268MOL0     C36047   3.658  10.083   5.680  0.4974  0.0280  0.6675
  268MOL0     O36048   3.642   9.999   5.572  0.3872 -0.3767  0.0883
  268MOL0     C36049   3.523  10.012   5.502 -0.3708  0.1884 -0.1729
  268MOL0     C36050   3.516  10.093   5.390 -0.3127  0.0160 -0.4382
  268MOL0     C36051   3.403  10.107   5.314 -0.0891  0.2728 -0.1228
  268MOL0     C36052   3.289  10.036   5.344  0.3711  0.3451  0.3772
  268MOL0     O36053   3.161  10.065   5.278  0.0684  0.0042  0.0810
  268MOL0     C36054   3.119   9.961   5.193  0.1609 -0.3509  0.6431
  268MOL0     C36055   3.005   9.999   5.107  0.3586 -0.5797 -0.5329
  268MOL0     C36056   2.964   9.882   5.018  0.2317  0.0504 -0.6764
  268MOL0     C36057   2.837   9.930   4.940 -0.1475  0.0015  0.4733
  268MOL0     C36058   2.789   9.817   4.845  0.2827  0.3702 -0.1874
  268MOL0     C36059   2.746   9.678   4.892 -0.0197  0.5342  0.8159
  268MOL0     C36060   2.627   9.679   4.988  0.9905 -0.9234  0.0337
  268MOL0     C36061   2.546   9.541   4.987  1.0246 -0.0648 -0.4017
  268MOL0     N36062   2.486   9.520   4.853 -0.7901 -0.7359  0.2950
  268MOL0     C36063   2.383   9.586   4.787 -0.0361  0.4176 -0.9341
  268MOL0     C36064   2.338   9.511   4.690 -0.1827 -0.8663  0.6092
  268MOL0     C36065   2.226   9.564   4.600  0.3259  0.5957 -0.9578
  268MOL0     C36066   2.102   9.473   4.598  1.1155 -0.2692  0.7498
  268MOL0     C36067   1.994   9.517   4.491 -0.0661  0.8309 -0.4241
  268MOL0     C36068   1.904   9.630   4.548  0.0051 -0.4502 -0.2326
  268MOL0     O36069   1.818   9.679   4.445  0.5693  0.5324 -0.7510
  268MOL0     C36070   1.708   9.603   4.419 -2.2807 -0.6239  0.8137
  268MOL0     C36071   1.661   9.486   4.486  0.3705 -0.1530  0.0353
  268MOL0     C36072   1.538   9.424   4.452 -0.1193  1.0820  0.2086
  268MOL0     C36073   1.490   9.317   4.550  0.3831 -0.7729 -0.2593
  268MOL0     C36074   1.466   9.461   4.339 -0.5237 -0.1346 -0.5530
  268MOL0     C36075   1.341   9.403   4.305  0.5769 -0.1744  0.2557
  268MOL0     O36076   1.261   9.472   4.217 -0.1943  0.1159  0.4295
  268MOL0     C36077   1.127   9.456   4.223 -0.0823 -0.2185 -0.2357
  268MOL0     C36078   1.054   9.507   4.105 -0.9771  0.6624 -0.5360
  268MOL0     C36079   0.914   9.520   4.097 -0.1300  0.4534 -0.0824
  268MOL0     C36080   0.837   9.471   4.202 -0.0145  0.7923  0.5083
  268MOL0     O36081   0.705   9.468   4.180  0.2074  0.4839 -0.0030
  268MOL0     C36082   0.609   9.402   4.273  0.2911 -0.1383  0.1753
  268MOL0     C36083   0.463   9.397   4.209 -0.5262  0.2708 -0.0939
  268MOL0     C36084   0.361   9.392   4.328 -0.0224 -0.0541  0.1500
  268MOL0     C36085   0.216   9.404   4.283  0.5959  0.8296  0.2752
  268MOL0     C36086   0.117   9.411   4.396 -0.2012 -0.5341 -0.4664
  268MOL0     C36087  -0.021   9.418   4.335 -0.1047 -0.3171  0.0758
  268MOL0     C36088  -0.141   9.424   4.429 -0.7011  0.5065  0.3119
  268MOL0     C36089  -0.266   9.462   4.343 -0.0692 -0.1891 -0.6770
  268MOL0    Cl36090  -0.319   9.315   4.243  0.1087  0.0494 -0.3056
  268MOL0     C36091   0.897   9.416   4.317 -0.1361  0.1833  0.3565
  268MOL0     C36092   1.039   9.403   4.321  0.1481 -1.2128 -0.7098
  268MOL0     O36093   1.322   9.282   4.333 -0.6270 -0.2579 -0.0275
  268MOL0     C36094   1.513   9.573   4.270 -0.3459  0.5941 -0.0172
  268MOL0     C36095   1.630   9.639   4.310  0.2966 -0.3530  0.9686
  268MOL0     N36096   2.418   9.398   4.689 -0.1337  0.3447  0.3372
  268MOL0     N36097   2.506   9.402   4.789  0.0672  0.0822  0.5800
  268MOL0     C36098   3.301   9.948   5.454  0.3701  0.3790 -0.1607
  268MOL0     C36099   3.411   9.939   5.534 -0.4638 -0.6526 -0.0636
  268MOL0     C36100   3.778  10.065   5.764 -0.5309 -0.0018  0.4696
  268MOL0     C36101   3.831  10.166   5.845 -0.0938 -0.8871 -0.3060
  268MOL0     C36102   3.962  10.167   5.899 -0.2003  0.6205  0.9753
  268MOL0     C36103   4.039  10.052   5.889 -0.5537  0.2091 -0.2810
  268MOL0     O36104   4.153  10.021   5.958 -0.6177 -0.4819  0.1974
  268MOL0     C36105   4.189  10.106   6.067 -0.0061  0.5859  0.3151
  268MOL0     C36106   4.253  10.238   6.020  0.8896 -0.1432  0.2988
  268MOL0     C36107   4.354  10.294   6.127  0.1161 -0.7506  0.3337
  268MOL0     C36108   4.396  10.436   6.094 -0.1890 -0.4731 -0.1257
  268MOL0     C36109   4.467  10.456   5.978  0.2599  0.4208  0.4469
  268MOL0     C36110   4.538  10.472   5.882  0.9637  0.6168 -0.6198
  268MOL0     C36111   3.983   9.942   5.816  0.4507 -0.1125  0.1643
  268MOL0     C36112   3.859   9.948   5.755 -0.0598  0.0524  0.8494
  268MOL0     H36113   3.610  10.140   5.360 -0.6011  0.6207 -0.4079
  268MOL0     H36114   3.420  10.163   5.222 -2.6466  0.9081 -0.2861
  268MOL0     H36115   3.205   9.942   5.128 -0.2572  1.8402 -0.6839
  268MOL0     H36116   3.089   9.872   5.249  0.3964 -0.1552  1.0847
  268MOL0     H36117   2.920  10.024   5.171 -0.8651 -2.9179 -1.1222
  268MOL0     H36118   3.025  10.088   5.046 -0.3369 -0.7708 -1.0684
  268MOL0     H36119   3.039   9.850   4.945  1.1851 -0.4504  0.4876
  268MOL0     H36120   2.943   9.793   5.078 -1.0908  0.9267  0.2069
  268MOL0     H36121   2.757   9.957   5.011  0.5544 -0.6613  1.5495
  268MOL0     H36122   2.863  10.019   4.883  0.5747 -0.4605  0.0673
  268MOL0     H36123   2.706   9.860   4.789  0.1415 -0.0910 -0.3392
  268MOL0     H36124   2.865   9.803   4.767 -1.7661  0.2948 -2.2718
  268MOL0     H36125   2.717   9.614   4.808 -2.3718  0.8073  1.3489
  268MOL0     H36126   2.835   9.634   4.939  0.4883  1.5484  0.8280
  268MOL0     H36127   2.666   9.715   5.084 -3.6057  1.9640  1.1624
  268MOL0     H36128   2.560   9.752   4.942  2.7585 -1.7497 -4.2744
  268MOL0     H36129   2.464   9.530   5.060  0.9610 -4.2355 -0.8623
  268MOL0     H36130   2.615   9.462   5.015  0.6260 -1.0837 -2.1611
  268MOL0     H36131   2.348   9.679   4.830  1.7475 -1.2005  4.8121
  268MOL0     H36132   2.208   9.664   4.642  3.7434  0.3948  1.3859
  268MOL0     H36133   2.281   9.564   4.505 -1.8146  0.6533 -2.2696
  268MOL0     H36134   2.055   9.463   4.696  0.7467 -1.0830  0.5049
  268MOL0     H36135   2.135   9.372   4.574  4.0373  0.6216  0.7180
  268MOL0     H36136   1.934   9.427   4.475  1.6435 -0.3262 -0.6935
  268MOL0     H36137   2.047   9.538   4.397 -0.4349 -1.9794 -1.3805
  268MOL0     H36138   1.965   9.717   4.574 -2.3361  1.5618 -1.0584
  268MOL0     H36139   1.840   9.602   4.632 -0.3733  1.4233  0.1432
  268MOL0     H36140   1.708   9.452   4.578 -2.7204  1.3934  2.3989
  268MOL0     H36141   1.551   9.315   4.640  3.2410 -0.4882 -2.0518
  268MOL0     H36142   1.384   9.341   4.567 -0.0011 -1.2144 -1.8114
  268MOL0     H36143   1.488   9.224   4.493 -1.0432  0.3455 -2.2204
  268MOL0     H36144   1.121   9.545   4.028  3.0903 -1.7896  1.4723
  268MOL0     H36145   0.857   9.543   4.008 -0.7958  0.3337  0.3045
  268MOL0     H36146   0.637   9.299   4.293  1.7277  0.1203 -0.3800
  268MOL0     H36147   0.597   9.464   4.363 -0.5289  1.1578 -0.7845
  268MOL0     H36148   0.446   9.484   4.146 -1.6041  0.7283  0.7906
  268MOL0     H36149   0.465   9.304   4.151  0.2520 -1.0841  1.9550
  268MOL0     H36150   0.396   9.472   4.395  0.1720 -0.0814  0.0837
  268MOL0     H36151   0.376   9.303   4.389 -0.7953 -1.2291 -1.3139
  268MOL0     H36152   0.188   9.492   4.224 -1.2429 -0.6376 -1.1652
  268MOL0     H36153   0.205   9.314   4.223  3.5887 -0.3186  1.2875
  268MOL0     H36154   0.130   9.492   4.469 -3.8541  0.4959 -0.7397
  268MOL0     H36155   0.126   9.329   4.466 -1.9077  1.9950  3.0418
  268MOL0     H36156  -0.018   9.502   4.265 -0.3704 -1.8175 -1.8297
  268MOL0     H36157  -0.032   9.323   4.282  0.6886 -1.4808  1.8757
  268MOL0     H36158  -0.133   9.498   4.509 -0.0343  2.2843 -1.3117
  268MOL0     H36159  -0.172   9.323   4.458  0.7628 -0.7299 -2.0690
  268MOL0     H36160  -0.250   9.556   4.290  1.0082 -0.3143 -0.5914
  268MOL0     H36161  -0.349   9.470   4.414  0.4358 -0.7589  0.0083
  268MOL0     H36162   0.827   9.359   4.378 -3.4754  0.2152 -3.0738
  268MOL0     H36163   1.074   9.348   4.407 -2.7229 -1.7608  0.2352
  268MOL0     H36164   1.461   9.608   4.181  0.9981 -2.9700 -2.3880
  268MOL0     H36165   1.673   9.727   4.262  2.4959 -1.6204  0.4519
  268MOL0     H36166   3.221   9.879   5.479  0.3993  1.4554  3.4555
  268MOL0     H36167   3.429   9.881   5.624 -0.4052  0.2764  0.5351
  268MOL0     H36168   3.774  10.257   5.859  1.9609  0.2914  0.7865
  268MOL0     H36169   3.993  10.255   5.954  0.5140  0.3839  0.9646
  268MOL0     H36170   4.098  10.117   6.126 -2.0888  0.6177 -2.6580
  268MOL0     H36171   4.265  10.054   6.126  0.0048  0.7985  0.4868
  268MOL0     H36172   4.173  10.309   5.999  2.0425  1.0915 -0.0646
  268MOL0     H36173   4.300  10.213   5.925 -0.6161 -0.7285 -0.3110
  268MOL0     H36174   4.440  10.227   6.122  0.4832 -0.2692  0.0782
  268MOL0     H36175   4.296  10.279   6.218 -3.5272  0.8477 -1.4820
  268MOL0     H36176   4.465  10.452   6.177  0.5931 -0.3398 -0.7922
  268MOL0     H36177   4.313  10.506   6.108  1.4324  1.2443  1.3996
  268MOL0     H36178   4.594  10.472   5.791  0.3443  0.6950 -1.0041
  268MOL0     H36179   4.032   9.847   5.800 -4.6698 -2.7623 -1.7824
  268MOL0     H36180   3.824   9.873   5.685  3.1108 -0.3182 -0.5197
  269MOL0     O36181   1.215   4.070  11.337  0.2590  0.1120 -0.6127
  269MOL0     C36182   1.222   4.187  11.380 -0.5023  0.1758  0.4592
  269MOL0     O36183   1.131   4.286  11.338 -0.0332 -0.6366 -0.6093
  269MOL0     C36184   1.023   4.250  11.264 -0.1662 -0.3815 -0.1476
  269MOL0     C36185   1.036   4.173  11.145  0.7541 -0.8921  0.0448
  269MOL0     C36186   0.922   4.133  11.073 -0.1813  0.5285 -0.4808
  269MOL0     C36187   0.801   4.190  11.111 -0.0392  0.4882 -0.2241
  269MOL0     O36188   0.683   4.131  11.064  0.7856  0.0403 -0.0910
  269MOL0     C36189   0.674   4.037  10.957 -0.3773  0.0091 -0.7287
  269MOL0     C36190   0.543   4.028  10.887 -0.1699 -0.3441 -0.2609
  269MOL0     C36191   0.437   3.958  10.978 -0.3437 -0.5988  0.7643
  269MOL0     C36192   0.297   3.979  10.909 -0.2287  0.0292  0.0997
  269MOL0     C36193   0.189   3.908  10.991 -1.0116 -0.6874  1.3302
  269MOL0     C36194   0.143   3.983  11.123  0.3546 -0.8374 -0.0161
  269MOL0     C36195   0.023   3.907  11.190  0.4874  0.3582 -0.0623
  269MOL0     C36196  -0.050   3.974  11.306 -0.2776 -0.6480  0.4837
  269MOL0     N36197  -0.154   3.883  11.359 -0.3894 -0.6398  0.0441
  269MOL0     C36198  -0.134   3.784  11.447 -0.6383  0.1950 -0.3147
  269MOL0     C36199  -0.250   3.735  11.476  0.1997 -0.1995 -0.3910
  269MOL0     C36200  -0.277   3.623  11.569 -0.2610 -0.0961 -0.6473
  269MOL0     C36201  -0.400   3.534  11.546  0.0266 -1.3040  0.5105
  269MOL0     C36202  -0.535   3.599  11.587 -0.7719  0.1392  0.2046
  269MOL0     C36203  -0.661   3.513  11.581  0.0600 -0.3949 -0.9560
  269MOL0     O36204  -0.660   3.455  11.714  0.1342  0.4197  1.1194
  269MOL0     C36205  -0.776   3.479  11.783  0.1858 -0.3663  0.2755
  269MOL0     C36206  -0.905   3.451  11.741  0.4560  0.0800  0.3446
  269MOL0     C36207  -1.011   3.464  11.828 -0.9623  0.4237  0.6941
  269MOL0     C36208  -1.139   3.408  11.774 -0.0322  0.3591  0.0200
  269MOL0     C36209  -0.997   3.506  11.964  0.7602 -0.0844 -0.2288
  269MOL0     C36210  -1.112   3.530  12.058 -0.0226 -0.6289 -0.4229
  269MOL0     O36211  -1.073   3.556  12.191  0.3012 -0.4386 -0.5226
  269MOL0     C36212  -1.174   3.562  12.284 -0.3692 -0.2223 -0.0224
  269MOL0     C36213  -1.179   3.462  12.379  0.4519  0.0062 -0.5411
  269MOL0     C36214  -1.269   3.472  12.482 -0.6529  0.0396  0.7299
  269MOL0     C36215  -1.358   3.577  12.493 -0.8684  0.2698  0.4900
  269MOL0     O36216  -1.444   3.587  12.593  0.2084 -0.1459 -1.1630
  269MOL0     C36217  -1.547   3.489  12.583 -0.0473 -0.5397 -0.5444
  269MOL0     C36218  -1.534   3.397  12.706 -0.2083  0.6385  0.3500
  269MOL0     C36219  -1.551   3.467  12.845  0.1493 -0.0140 -0.6724
  269MOL0     C36220  -1.661   3.399  12.938  0.3056  0.1269 -0.3099
  269MOL0     C36221  -1.802   3.420  12.882 -0.4882 -1.1285  0.7357
  269MOL0     C36222  -1.914   3.361  12.967 -0.0129 -0.0370  0.2807
  269MOL0     C36223  -1.912   3.210  12.983 -1.0674 -0.1657  0.3481
  269MOL0     C36224  -2.043   3.151  13.004 -0.4460  0.5589 -0.2990
  269MOL0    Cl36225  -2.040   2.973  13.011 -0.3423  0.3514  0.0712
  269MOL0     C36226  -1.350   3.674  12.396 -0.1922  0.1728 -0.4061
  269MOL0     C36227  -1.253   3.674  12.295 -0.6516 -1.3572  0.3942
  269MOL0     O36228  -1.224   3.533  12.015 -0.3388 -0.2078 -0.0664
  269MOL0     C36229  -0.868   3.545  12.005  0.2351 -0.3681 -0.7659
  269MOL0     C36230  -0.758   3.525  11.917 -0.3039 -0.1516 -0.9239
  269MOL0     N36231  -0.348   3.785  11.397 -0.4835  0.7685  0.1792
  269MOL0     N36232  -0.286   3.873  11.323  0.3985  0.3303  0.1919
  269MOL0     C36233   0.791   4.274  11.217  0.1362  0.9588  0.1080
  269MOL0     C36234   0.900   4.298  11.308 -0.0658 -0.9947  0.3640
  269MOL0     C36235   1.341   4.228  11.472  0.4112  0.4068  0.3077
  269MOL0     C36236   1.432   4.127  11.503  0.4798  0.1147 -0.7154
  269MOL0     C36237   1.543   4.156  11.579 -0.7146 -0.5179 -0.1102
  269MOL0     C36238   1.582   4.290  11.615  1.0622  0.1636  0.4703
  269MOL0     O36239   1.698   4.314  11.686  0.1852  0.0227  0.2592
  269MOL0     C36240   1.740   4.456  11.693 -0.6855  0.6000 -0.5327
  269MOL0     C36241   1.888   4.460  11.738 -0.1892 -0.2381 -0.3210
  269MOL0     C36242   1.929   4.379  11.860  0.8344 -0.5283 -0.8142
  269MOL0     C36243   1.922   4.466  11.987 -1.0346  0.1721  0.9316
  269MOL0     C36244   2.044   4.547  12.003 -0.7953 -0.3142  0.6937
  269MOL0     C36245   2.150   4.602  12.030  0.6735 -0.3379 -0.2095
  269MOL0     C36246   1.487   4.389  11.576  1.1581  0.3491  0.4080
  269MOL0     C36247   1.363   4.360  11.515  0.1784  0.4232 -0.5570
  269MOL0     H36248   1.133   4.133  11.115  1.8515  1.0785  0.7615
  269MOL0     H36249   0.934   4.056  10.998  3.3503  0.0405  0.4171
  269MOL0     H36250   0.747   4.072  10.884 -1.4265  3.2632 -0.3908
  269MOL0     H36251   0.693   3.938  11.001 -0.2342  0.7848  1.0655
  269MOL0     H36252   0.518   4.129  10.853  0.1604  0.3492  1.4245
  269MOL0     H36253   0.557   3.968  10.797 -3.0332 -1.3024 -0.1618
  269MOL0     H36254   0.462   3.854  11.000  1.9678  0.4846  4.3585
  269MOL0     H36255   0.440   4.016  11.071 -2.5920 -0.7427  0.9744
  269MOL0     H36256   0.280   4.085  10.889  3.8101  0.8110 -0.0572
  269MOL0     H36257   0.294   3.926  10.813  0.5042 -1.6193  0.9578
  269MOL0     H36258   0.099   3.891  10.931 -0.3051 -2.8169  0.7590
  269MOL0     H36259   0.226   3.810  11.022  2.1796 -1.1678 -2.9738
  269MOL0     H36260   0.207   3.983  11.212 -2.1847 -0.9027  1.8986
  269MOL0     H36261   0.111   4.086  11.103  1.3344 -0.5166 -0.0024
  269MOL0     H36262  -0.054   3.899  11.113  1.6155 -1.9606 -1.0144
  269MOL0     H36263   0.069   3.816  11.230 -2.3229 -1.6483 -1.0651
  269MOL0     H36264  -0.094   4.069  11.272 -0.3641 -0.3041  1.5247
  269MOL0     H36265   0.015   3.997  11.391 -0.7710 -1.0224  0.9763
  269MOL0     H36266  -0.039   3.765  11.496 -0.6794 -0.4034 -0.4642
  269MOL0     H36267  -0.192   3.553  11.575  0.5838  0.8577 -1.1366
  269MOL0     H36268  -0.283   3.658  11.672  1.2270  0.3857 -0.6962
  269MOL0     H36269  -0.391   3.431  11.581 -0.4869 -0.3318  3.9474
  269MOL0     H36270  -0.405   3.533  11.437  4.5559  1.4488  0.0246
  269MOL0     H36271  -0.549   3.676  11.511 -0.0208  1.0703  0.9806
  269MOL0     H36272  -0.523   3.652  11.682  1.2649 -1.1090  0.6953
  269MOL0     H36273  -0.656   3.425  11.517  0.3761  0.0917 -1.6246
  269MOL0     H36274  -0.746   3.581  11.571  0.7889  0.6273 -0.4381
  269MOL0     H36275  -0.902   3.416  11.638  0.0620 -0.7773  0.6194
  269MOL0     H36276  -1.121   3.344  11.687  1.5972  0.6811  0.0827
  269MOL0     H36277  -1.175   3.330  11.842  1.2641 -0.6281 -0.3933
  269MOL0     H36278  -1.221   3.478  11.758 -1.4010 -0.6796  2.0578
  269MOL0     H36279  -1.119   3.372  12.379  1.8746  0.9098  0.7166
  269MOL0     H36280  -1.277   3.403  12.565 -0.6396 -0.7551  0.0871
  269MOL0     H36281  -1.647   3.533  12.573 -0.1322 -0.6304 -0.0954
  269MOL0     H36282  -1.535   3.438  12.487 -0.6519 -1.6215 -0.0660
  269MOL0     H36283  -1.591   3.304  12.705  1.9459 -0.7698  0.5462
  269MOL0     H36284  -1.430   3.362  12.708  0.3369  2.1703  0.1306
  269MOL0     H36285  -1.564   3.576  12.836  1.3970  0.4364  1.9813
  269MOL0     H36286  -1.459   3.453  12.903  0.2880  3.5618  0.2169
  269MOL0     H36287  -1.648   3.290  12.943 -1.1167 -0.0144  0.8996
  269MOL0     H36288  -1.662   3.439  13.039  0.7102  0.5076 -0.4519
  269MOL0     H36289  -1.809   3.391  12.777 -3.6025  4.2987 -0.9271
  269MOL0     H36290  -1.832   3.524  12.868  0.2286 -1.1762 -1.5986
  269MOL0     H36291  -1.914   3.395  13.071 -1.1979 -0.8564  0.5702
  269MOL0     H36292  -2.008   3.388  12.920  2.2373  1.9647 -3.5839
  269MOL0     H36293  -1.855   3.192  13.074 -0.4530 -0.1809 -0.0403
  269MOL0     H36294  -1.871   3.176  12.888  1.9654 -0.6314  1.7208
  269MOL0     H36295  -2.104   3.172  12.917  2.8416 -0.2757 -3.0309
  269MOL0     H36296  -2.075   3.189  13.102  3.5812  1.9636  0.6732
  269MOL0     H36297  -1.422   3.756  12.390 -1.7127 -1.1832 -1.8372
  269MOL0     H36298  -1.228   3.752  12.224 -1.4886  1.1220  2.6849
  269MOL0     H36299  -0.845   3.584  12.104  2.3995 -2.8000 -0.1900
  269MOL0     H36300  -0.658   3.556  11.945 -1.1531  1.1825  0.8565
  269MOL0     H36301   0.692   4.313  11.240  0.0672  0.8891 -0.0720
  269MOL0     H36302   0.890   4.352  11.402 -1.3318 -0.8216  0.1528
  269MOL0     H36303   1.417   4.026  11.465  0.1832 -0.5553  1.1011
  269MOL0     H36304   1.614   4.075  11.591  0.6406  0.4302 -1.4259
  269MOL0     H36305   1.720   4.508  11.599 -1.9342  2.3283  0.6361
  269MOL0     H36306   1.665   4.502  11.758 -0.6767  0.3222 -0.3218
  269MOL0     H36307   1.928   4.562  11.748  3.0639 -1.1288 -2.5738
  269MOL0     H36308   1.943   4.435  11.647 -0.3032 -0.0835 -0.4350
  269MOL0     H36309   2.027   4.332  11.846  2.0212  1.9369 -1.2368
  269MOL0     H36310   1.859   4.295  11.866  4.5814 -3.8545  0.8051
  269MOL0     H36311   1.924   4.393  12.069 -1.1853 -0.8383  0.0582
  269MOL0     H36312   1.827   4.520  11.991 -1.2004  0.1616 -1.5123
  269MOL0     H36313   2.238   4.652  12.066 -0.0643  0.5346  0.4338
  269MOL0     H36314   1.499   4.493  11.602 -1.3985  0.4861  1.2348
  269MOL0     H36315   1.299   4.446  11.497 -0.4953  0.0146 -0.1228
  270MOL0     O36316   6.528   2.878   1.689  0.0095  0.3121 -0.3273
  270MOL0     C36317   6.484   2.798   1.605 -0.5101 -0.1741  0.8876
  270MOL0     O36318   6.564   2.745   1.508 -0.1605  0.2556 -0.4143
  270MOL0     C36319   6.705   2.761   1.497  0.1639 -0.1912 -0.4057
  270MOL0     C36320   6.765   2.713   1.380  0.3152 -0.1550 -0.1006
  270MOL0     C36321   6.902   2.706   1.364  0.8190 -1.0387  0.0954
  270MOL0     C36322   6.987   2.769   1.452  1.3201  0.3159 -0.8417
  270MOL0     O36323   7.125   2.769   1.427  0.7593  0.6513  0.0485
  270MOL0     C36324   7.220   2.799   1.535  0.6968 -0.1328  0.3425
  270MOL0     C36325   7.285   2.675   1.610  0.4746 -0.5570  0.7854
  270MOL0     C36326   7.192   2.614   1.710  0.5433  1.0809 -0.2349
  270MOL0     C36327   7.184   2.704   1.842  0.3499  0.7144 -0.8028
  270MOL0     C36328   7.075   2.652   1.941  0.1975  0.2288 -0.7927
  270MOL0     C36329   6.923   2.672   1.886  0.6623 -0.4569  0.7528
  270MOL0     C36330   6.819   2.670   1.995  0.3754  0.8438 -0.7492
  270MOL0     C36331   6.674   2.702   1.944  0.5561 -0.3092 -0.1654
  270MOL0     N36332   6.557   2.719   2.036  0.2175  0.5332 -0.7460
  270MOL0     C36333   6.491   2.838   2.063  0.4849 -0.1739 -0.5992
  270MOL0     C36334   6.412   2.816   2.174 -1.0237  0.1379  0.2931
  270MOL0     C36335   6.326   2.913   2.256 -0.1790  1.1332 -0.8810
  270MOL0     C36336   6.179   2.919   2.193 -0.1657  0.6249  0.0898
  270MOL0     C36337   6.111   3.040   2.257 -0.0698  0.6659  0.0642
  270MOL0     C36338   5.971   3.067   2.209  0.0131  0.1200 -0.7699
  270MOL0     O36339   5.882   2.973   2.260  0.1997  0.4431  0.2451
  270MOL0     C36340   5.749   2.989   2.233 -0.2966 -0.2840  0.2627
  270MOL0     C36341   5.701   3.084   2.144  0.5866 -0.0422  0.0612
  270MOL0     C36342   5.567   3.094   2.115  0.9140  0.1808 -0.4906
  270MOL0     C36343   5.530   3.215   2.042 -0.4391  0.4427 -0.0561
  270MOL0     C36344   5.472   3.001   2.166 -0.1002 -0.4151 -0.5155
  270MOL0     C36345   5.325   3.013   2.136 -0.8811  0.5314 -0.4656
  270MOL0     O36346   5.277   3.103   2.048  0.3665  0.5255 -0.7170
  270MOL0     C36347   5.150   3.110   2.015 -0.6135 -0.5154  0.3818
  270MOL0     C36348   5.051   3.121   2.111 -0.8613 -0.2157  0.1873
  270MOL0     C36349   4.918   3.131   2.070 -0.4484  0.7623 -0.3470
  270MOL0     C36350   4.876   3.110   1.940  0.1779 -0.3251 -0.5190
  270MOL0     O36351   4.745   3.128   1.922 -0.2489  0.4997 -0.1464
  270MOL0     C36352   4.695   3.081   1.793 -0.0245 -0.7132 -0.1032
  270MOL0     C36353   4.551   3.041   1.801  0.5488 -0.3752 -1.3032
  270MOL0     C36354   4.497   3.007   1.663  1.0852 -0.2761  0.3058
  270MOL0     C36355   4.437   3.122   1.593 -0.1468 -0.2285  0.1920
  270MOL0     C36356   4.414   3.096   1.447  0.3275 -0.5413 -0.8078
  270MOL0     C36357   4.333   3.209   1.379 -0.3901 -0.3748 -0.3897
  270MOL0     C36358   4.335   3.186   1.224  0.0813  1.0709  0.3103
  270MOL0     C36359   4.273   3.306   1.157 -1.1867  0.1395 -0.2286
  270MOL0    Cl36360   4.359   3.462   1.186  0.1972  0.2568 -0.5118
  270MOL0     C36361   4.981   3.107   1.841  0.6577 -0.6907  0.3251
  270MOL0     C36362   5.116   3.107   1.876  1.3133 -1.0725  0.0683
  270MOL0     O36363   5.264   2.934   2.209  0.4120 -0.2737  0.2719
  270MOL0     C36364   5.526   2.908   2.257  0.3784  0.9654  1.1988
  270MOL0     C36365   5.662   2.901   2.284 -0.6812  0.0075 -0.7034
  270MOL0     N36366   6.417   2.681   2.189  0.5608 -0.8930 -1.1696
  270MOL0     N36367   6.512   2.622   2.118  0.6213  0.8021 -0.6908
  270MOL0     C36368   6.927   2.836   1.564 -0.3866  0.6308  0.0721
  270MOL0     C36369   6.785   2.824   1.593 -0.1413 -1.1043  0.2455
  270MOL0     C36370   6.336   2.774   1.603 -0.2276 -0.1327 -0.0261
  270MOL0     C36371   6.284   2.758   1.474 -0.0106 -0.0556 -0.3460
  270MOL0     C36372   6.148   2.716   1.466 -0.0405  0.4413 -0.3540
  270MOL0     C36373   6.068   2.695   1.579  0.5584  0.0851 -0.0408
  270MOL0     O36374   5.931   2.654   1.586 -0.0338  0.4473 -0.2333
  270MOL0     C36375   5.867   2.570   1.489 -0.5449 -0.2778  0.2533
  270MOL0     C36376   5.718   2.594   1.478  0.6657 -0.0972 -0.0283
  270MOL0     C36377   5.699   2.719   1.392  0.7247 -0.8407  0.2854
  270MOL0     C36378   5.562   2.711   1.330  0.3560 -0.7384  0.9749
  270MOL0     C36379   5.510   2.829   1.255 -0.1049 -0.5500  0.1269
  270MOL0     C36380   5.455   2.922   1.196  1.3053  0.1255  0.3382
  270MOL0     C36381   6.122   2.726   1.704 -0.1159 -0.3035  0.0203
  270MOL0     C36382   6.257   2.776   1.717  0.2428  0.4976 -0.3600
  270MOL0     H36383   6.719   2.661   1.297  1.3002 -0.2895 -0.5803
  270MOL0     H36384   6.954   2.666   1.278  0.8727 -0.8611  0.0467
  270MOL0     H36385   7.301   2.848   1.481  1.2962 -2.2574 -0.8046
  270MOL0     H36386   7.189   2.873   1.609  0.4318  0.2879 -0.1773
  270MOL0     H36387   7.339   2.615   1.536 -0.2755  0.1335 -0.3430
  270MOL0     H36388   7.368   2.724   1.661  1.3744 -3.7544  2.7030
  270MOL0     H36389   7.095   2.591   1.667  0.6540 -1.1370  0.5463
  270MOL0     H36390   7.247   2.524   1.740  0.7460  0.4466 -2.3259
  270MOL0     H36391   7.275   2.709   1.902  1.0069  1.6432 -1.8333
  270MOL0     H36392   7.163   2.806   1.806 -2.0588  0.5485 -0.0402
  270MOL0     H36393   7.093   2.546   1.964 -1.4616  0.0343 -0.2256
  270MOL0     H36394   7.090   2.696   2.040 -2.4567 -0.6530  0.1048
  270MOL0     H36395   6.915   2.760   1.822  1.9033 -1.5914 -1.0991
  270MOL0     H36396   6.884   2.590   1.824 -2.4523  0.0921  1.8217
  270MOL0     H36397   6.807   2.574   2.046  0.9524  3.0406  4.1756
  270MOL0     H36398   6.846   2.733   2.080 -0.1230  2.0394 -1.4530
  270MOL0     H36399   6.651   2.630   1.865  0.2526  1.1488 -1.4521
  270MOL0     H36400   6.682   2.796   1.889  0.7565  0.2675  0.8241
  270MOL0     H36401   6.518   2.935   2.022  1.8545  0.7498  2.2393
  270MOL0     H36402   6.310   2.894   2.362 -0.8092 -2.7159 -1.5276
  270MOL0     H36403   6.374   3.011   2.251 -0.7592  1.6990  2.3665
  270MOL0     H36404   6.124   2.831   2.227 -2.7603  2.2708  0.3951
  270MOL0     H36405   6.185   2.925   2.084 -0.7038  3.5642  0.1465
  270MOL0     H36406   6.168   3.133   2.249 -1.6605  1.6647 -0.1498
  270MOL0     H36407   6.097   3.006   2.360 -0.2036  0.6911  0.0543
  270MOL0     H36408   5.972   3.068   2.099 -0.7480 -2.8472 -0.8792
  270MOL0     H36409   5.941   3.162   2.254 -2.8715 -1.9930  2.1808
  270MOL0     H36410   5.772   3.149   2.093  0.4121 -0.6925 -1.0186
  270MOL0     H36411   5.471   3.191   1.953  0.2907  1.1452 -0.7374
  270MOL0     H36412   5.471   3.276   2.110 -1.0112 -3.6400  3.6158
  270MOL0     H36413   5.618   3.270   2.009  0.4900 -1.4749 -0.9580
  270MOL0     H36414   5.089   3.133   2.211  1.4368  2.5301 -0.8805
  270MOL0     H36415   4.846   3.135   2.151  0.4809 -1.0200  0.6132
  270MOL0     H36416   4.712   3.168   1.729 -2.0415  2.0223  2.8144
  270MOL0     H36417   4.747   2.992   1.755  0.2973 -0.1166 -1.1026
  270MOL0     H36418   4.550   2.944   1.852  1.8327  0.5384  0.5778
  270MOL0     H36419   4.498   3.112   1.865  1.5924 -1.2560  0.6272
  270MOL0     H36420   4.419   2.931   1.666  1.0808 -0.3872 -1.4762
  270MOL0     H36421   4.573   2.959   1.601 -1.8625 -4.0480 -0.7656
  270MOL0     H36422   4.339   3.150   1.635 -0.8568  0.6610 -1.9044
  270MOL0     H36423   4.503   3.209   1.596  0.0320 -0.1202 -3.3362
  270MOL0     H36424   4.370   2.998   1.423  0.1659 -0.8037  0.5219
  270MOL0     H36425   4.515   3.104   1.405 -0.9757  1.6297 -3.8811
  270MOL0     H36426   4.231   3.211   1.417 -0.1005  0.8349  0.3865
  270MOL0     H36427   4.386   3.303   1.398  1.1938 -0.8600 -2.0922
  270MOL0     H36428   4.255   3.113   1.207 -0.0831  0.0628  4.3225
  270MOL0     H36429   4.426   3.159   1.171  1.3817 -0.2846  3.0305
  270MOL0     H36430   4.284   3.290   1.049  3.5054  0.5819 -0.0558
  270MOL0     H36431   4.169   3.316   1.190 -0.5839  1.2994  1.4843
  270MOL0     H36432   4.970   3.100   1.733  1.5183  0.5483  0.1186
  270MOL0     H36433   5.186   3.103   1.793  1.0488  5.8785 -1.0860
  270MOL0     H36434   5.452   2.842   2.300 -0.1312  2.1671  2.2187
  270MOL0     H36435   5.700   2.826   2.352 -2.9274 -0.3095  0.2934
  270MOL0     H36436   6.991   2.892   1.631 -0.6649 -0.6653  1.4712
  270MOL0     H36437   6.754   2.874   1.685 -1.5908  0.2993 -0.9458
  270MOL0     H36438   6.338   2.782   1.383 -0.5455  1.6911 -0.2369
  270MOL0     H36439   6.109   2.708   1.365  2.4858 -0.1498 -1.3636
  270MOL0     H36440   5.926   2.591   1.400  0.9590 -1.2923  0.9595
  270MOL0     H36441   5.883   2.465   1.517 -0.5869 -0.1621  0.7167
  270MOL0     H36442   5.681   2.630   1.573  1.2951  0.6236 -0.0493
  270MOL0     H36443   5.663   2.507   1.440 -0.1860  0.3949  0.0515
  270MOL0     H36444   5.769   2.722   1.309 -1.6522  2.9362 -1.8633
  270MOL0     H36445   5.726   2.811   1.446  0.4891  0.3223 -1.4929
  270MOL0     H36446   5.493   2.698   1.414 -1.3100 -2.4763 -0.5676
  270MOL0     H36447   5.565   2.627   1.260  2.9870  0.5339 -0.6074
  270MOL0     H36448   5.395   3.001   1.155  0.2073  0.5661  2.5937
  270MOL0     H36449   6.065   2.707   1.794 -0.9760  2.5557  0.1739
  270MOL0     H36450   6.295   2.803   1.814  0.8629 -0.8854 -0.1988
  271MOL0     O36451   4.152   7.840   3.290 -0.7037  0.0745 -0.1669
  271MOL0     C36452   4.255   7.814   3.347  0.8251 -1.1827  0.1882
  271MOL0     O36453   4.267   7.750   3.465  0.1815 -0.2633  0.5963
  271MOL0     C36454   4.162   7.715   3.533  0.3452  0.2262 -0.3753
  271MOL0     C36455   4.082   7.812   3.601  0.4875  0.3304  0.4979
  271MOL0     C36456   3.970   7.775   3.679 -0.2329 -0.1395 -0.3997
  271MOL0     C36457   3.955   7.641   3.715  0.0357  0.2543  1.0438
  271MOL0     O36458   3.865   7.603   3.808  0.2816  0.8886  0.0777
  271MOL0     C36459   3.914   7.511   3.903  0.0441 -0.6835 -0.5041
  271MOL0     C36460   3.824   7.510   4.026  0.2919  1.5269  0.5458
  271MOL0     C36461   3.674   7.463   3.988 -0.1190  0.1465 -0.8183
  271MOL0     C36462   3.610   7.407   4.116  0.6123 -0.4761  0.3647
  271MOL0     C36463   3.458   7.398   4.098 -0.3292  0.1006  0.1971
  271MOL0     C36464   3.371   7.333   4.209 -0.3605  0.6773  0.4514
  271MOL0     C36465   3.228   7.338   4.166 -0.0826  1.0098 -1.5310
  271MOL0     C36466   3.137   7.309   4.285 -0.1096  0.9054 -0.6331
  271MOL0     N36467   3.006   7.259   4.238  0.2891 -0.2501  0.2483
  271MOL0     C36468   2.974   7.129   4.210 -0.4864 -0.3337 -0.7279
  271MOL0     C36469   2.842   7.126   4.166 -0.4068 -0.7080 -0.6279
  271MOL0     C36470   2.781   7.001   4.129 -0.3948  0.0925  0.1244
  271MOL0     C36471   2.634   7.016   4.090 -0.5225  0.1435  0.3756
  271MOL0     C36472   2.546   7.022   4.207  0.4166  0.0427  0.0907
  271MOL0     C36473   2.401   6.984   4.189 -0.5247 -0.8817  0.4131
  271MOL0     O36474   2.345   7.019   4.317 -0.1793 -0.0290  0.2002
  271MOL0     C36475   2.221   6.955   4.337 -0.6160  0.9272 -0.4686
  271MOL0     C36476   2.212   6.838   4.408  0.5198 -0.4783 -0.0549
  271MOL0     C36477   2.090   6.771   4.429 -0.1484 -0.6795 -0.1954
  271MOL0     C36478   2.109   6.633   4.491  0.6975 -0.6200 -0.0827
  271MOL0     C36479   1.975   6.811   4.358 -0.1672  0.4160  0.5452
  271MOL0     C36480   1.848   6.731   4.367  0.6513  0.7623 -0.0564
  271MOL0     O36481   1.778   6.724   4.250 -0.3672  0.3349  0.0581
  271MOL0     C36482   1.639   6.702   4.243  0.2581  0.6826 -0.4192
  271MOL0     C36483   1.581   6.581   4.292 -0.1485  0.1113 -0.0683
  271MOL0     C36484   1.454   6.547   4.261  0.5324 -0.3351 -1.0925
  271MOL0     C36485   1.365   6.633   4.204 -0.0721 -0.4806  0.1710
  271MOL0     O36486   1.241   6.592   4.173 -0.5595  0.4864  0.4401
  271MOL0     C36487   1.173   6.502   4.274 -0.1113 -0.5457 -0.5023
  271MOL0     C36488   1.028   6.487   4.226  0.4111 -0.5992  0.6642
  271MOL0     C36489   0.949   6.413   4.336  0.2773  0.1922 -0.4041
  271MOL0     C36490   0.806   6.388   4.298  0.1484  0.8690 -0.4090
  271MOL0     C36491   0.724   6.294   4.396 -0.1784 -0.1221  1.2490
  271MOL0     C36492   0.588   6.284   4.324 -0.5255 -0.2359 -0.4953
  271MOL0     C36493   0.503   6.168   4.376  0.5602  0.3518  0.2658
  271MOL0     C36494   0.534   6.037   4.307 -0.8522  0.4899  0.0982
  271MOL0    Cl36495   0.475   6.047   4.134 -0.1444  0.4375 -0.2762
  271MOL0     C36496   1.413   6.761   4.170  1.2870 -0.4213 -1.0915
  271MOL0     C36497   1.550   6.799   4.191  0.3671  0.3975 -0.3396
  271MOL0     O36498   1.813   6.684   4.474  0.5297 -0.2215  0.6416
  271MOL0     C36499   1.992   6.920   4.268 -0.5820 -0.4529 -0.6298
  271MOL0     C36500   2.114   6.991   4.259  0.5935 -0.9320 -0.2209
  271MOL0     N36501   2.796   7.258   4.191 -0.1379  0.1079  1.0163
  271MOL0     N36502   2.891   7.330   4.220  0.5186  0.2512  0.3352
  271MOL0     C36503   4.036   7.544   3.648  0.3564 -0.3961 -0.3892
  271MOL0     C36504   4.131   7.584   3.551  0.8269  0.5781  0.6095
  271MOL0     C36505   4.381   7.844   3.291 -0.0859 -0.0916  0.1203
  271MOL0     C36506   4.395   7.862   3.157 -1.1417  0.4316  0.2359
  271MOL0     C36507   4.512   7.889   3.092  0.0709  0.7415 -0.2781
  271MOL0     C36508   4.629   7.907   3.168 -0.1715  0.6985  0.7603
  271MOL0     O36509   4.749   7.941   3.114 -0.0495  0.1741 -0.4952
  271MOL0     C36510   4.754   7.971   2.980 -0.3381  0.3306 -0.0670
  271MOL0     C36511   4.887   8.010   2.921  0.6958  0.0451 -0.4598
  271MOL0     C36512   5.005   7.915   2.949 -0.2343  0.0022  0.4521
  271MOL0     C36513   4.981   7.768   2.911 -0.6524 -0.2687 -0.0819
  271MOL0     C36514   5.059   7.661   2.972 -0.4618 -0.8939 -0.4068
  271MOL0     C36515   5.136   7.584   3.029  0.9781  1.1860  0.1519
  271MOL0     C36516   4.625   7.884   3.308 -0.0647  0.0015  0.4854
  271MOL0     C36517   4.503   7.855   3.373  0.5183  0.5865  1.0997
  271MOL0     H36518   4.126   7.911   3.598  6.2527 -1.8801 -1.4904
  271MOL0     H36519   3.902   7.840   3.734 -0.6669  0.0374 -1.1370
  271MOL0     H36520   3.920   7.410   3.861 -0.1410  1.1001 -5.4374
  271MOL0     H36521   4.012   7.548   3.934 -1.7010  4.8841 -0.5118
  271MOL0     H36522   3.863   7.440   4.101  0.0770  1.5369  0.6666
  271MOL0     H36523   3.824   7.611   4.067  1.3330  2.3319 -1.3283
  271MOL0     H36524   3.618   7.554   3.961 -0.1504  1.2931  2.6256
  271MOL0     H36525   3.656   7.392   3.907 -1.3688  1.6740 -1.9583
  271MOL0     H36526   3.642   7.308   4.150  1.4844  0.1263  1.3730
  271MOL0     H36527   3.621   7.482   4.195 -1.5376  0.0911  0.1935
  271MOL0     H36528   3.425   7.502   4.101  0.1056  0.2335  0.4152
  271MOL0     H36529   3.427   7.348   4.005 -0.9471  0.7805  0.0276
  271MOL0     H36530   3.397   7.227   4.217  0.1237  0.7367 -0.2917
  271MOL0     H36531   3.384   7.381   4.306  1.1509 -0.1628  0.7052
  271MOL0     H36532   3.193   7.433   4.124 -2.2457 -0.1322 -2.4892
  271MOL0     H36533   3.209   7.261   4.090  0.2921  2.0598 -2.7191
  271MOL0     H36534   3.128   7.398   4.348 -1.6083  0.6710 -0.4690
  271MOL0     H36535   3.189   7.229   4.337 -1.4326 -0.3759 -1.2046
  271MOL0     H36536   3.048   7.050   4.205  1.0809  1.1425 -2.0071
  271MOL0     H36537   2.841   6.956   4.049  0.9395 -2.0416  2.2165
  271MOL0     H36538   2.789   6.929   4.211  1.5102 -1.9596 -1.7378
  271MOL0     H36539   2.604   6.939   4.019 -1.4990  0.2531  0.6533
  271MOL0     H36540   2.626   7.109   4.032 -1.3767 -0.7886 -1.0494
  271MOL0     H36541   2.537   7.123   4.247 -1.3449 -0.3258  0.7551
  271MOL0     H36542   2.592   6.957   4.282 -4.0112 -1.5797  1.7949
  271MOL0     H36543   2.392   6.880   4.157 -2.1685 -1.3765  2.2974
  271MOL0     H36544   2.351   7.035   4.106  0.8657 -0.3767 -0.1606
  271MOL0     H36545   2.300   6.809   4.464 -1.0009 -1.9443  1.7017
  271MOL0     H36546   2.036   6.611   4.569 -0.4819 -0.0297 -1.0065
  271MOL0     H36547   2.094   6.556   4.415  0.5174 -0.5252 -0.1426
  271MOL0     H36548   2.207   6.622   4.540  0.7065 -1.0805 -0.1967
  271MOL0     H36549   1.650   6.515   4.344  2.6693  1.3521 -1.9375
  271MOL0     H36550   1.426   6.453   4.307 -1.1830  1.9696  3.1724
  271MOL0     H36551   1.222   6.404   4.278  1.7822  0.3611  0.0189
  271MOL0     H36552   1.178   6.541   4.376 -0.7892 -1.6670 -0.0264
  271MOL0     H36553   0.983   6.586   4.221  1.3503 -0.1688  0.5651
  271MOL0     H36554   1.019   6.445   4.125  2.5415  0.4710 -0.0434
  271MOL0     H36555   0.953   6.477   4.425  1.2316 -0.6924  0.2119
  271MOL0     H36556   0.990   6.314   4.358 -0.2688  0.1329  0.3983
  271MOL0     H36557   0.748   6.476   4.267 -0.3240  0.9048  0.5409
  271MOL0     H36558   0.822   6.333   4.205  2.3173  2.6382 -1.1703
  271MOL0     H36559   0.721   6.335   4.497  1.6024  2.0514  0.5091
  271MOL0     H36560   0.773   6.197   4.409  0.0561 -0.1311  0.3982
  271MOL0     H36561   0.544   6.380   4.351  1.3927 -0.1356  3.0020
  271MOL0     H36562   0.597   6.284   4.215 -2.7314  0.0200 -0.7206
  271MOL0     H36563   0.397   6.197   4.368  0.1809  0.2189  3.4970
  271MOL0     H36564   0.520   6.153   4.483  0.8511 -0.1040  0.1571
  271MOL0     H36565   0.492   5.945   4.349  1.2718  0.3782  2.1499
  271MOL0     H36566   0.641   6.012   4.309 -1.1131 -0.8561 -1.1916
  271MOL0     H36567   1.344   6.838   4.136 -2.1387 -2.5452  0.5321
  271MOL0     H36568   1.594   6.893   4.159  1.6029  1.3721  3.5785
  271MOL0     H36569   1.910   6.952   4.203  1.0393  0.8130 -2.1452
  271MOL0     H36570   2.130   7.077   4.195 -1.8550  0.7154  1.2302
  271MOL0     H36571   4.020   7.437   3.648 -2.9616 -0.0504 -2.6205
  271MOL0     H36572   4.199   7.513   3.505  1.1876  0.4631  1.3094
  271MOL0     H36573   4.306   7.855   3.096 -3.0793 -2.0177  3.0502
  271MOL0     H36574   4.506   7.909   2.985 -1.6690  0.8722 -0.1987
  271MOL0     H36575   4.715   7.890   2.918  2.2546  1.4092 -3.4490
  271MOL0     H36576   4.685   8.055   2.966  0.6723  0.9971 -1.1824
  271MOL0     H36577   4.921   8.106   2.962 -0.0980  0.7191 -1.3270
  271MOL0     H36578   4.875   8.028   2.814 -0.7372 -3.3114 -0.9880
  271MOL0     H36579   5.037   7.920   3.053  0.3237 -3.2297  0.5375
  271MOL0     H36580   5.095   7.951   2.896  0.5321 -2.2970  0.0747
  271MOL0     H36581   4.974   7.751   2.803 -1.4127 -3.1064  0.3122
  271MOL0     H36582   4.880   7.734   2.938 -0.9457  0.1422 -0.6537
  271MOL0     H36583   5.203   7.510   3.068 -0.7829 -0.1228  0.8166
  271MOL0     H36584   4.714   7.913   3.362  0.3121  2.4816 -1.2987
  271MOL0     H36585   4.494   7.849   3.481 -0.1984 -0.9122  0.9846
  272MOL0     O36586   8.365   3.396   0.964 -0.6463  0.0198  0.2804
  272MOL0     C36587   8.400   3.456   1.062 -0.7259 -0.7248  0.4161
  272MOL0     O36588   8.536   3.479   1.095 -0.8961 -0.3609 -0.2667
  272MOL0     C36589   8.649   3.454   1.019  0.0282  0.4443 -0.0310
  272MOL0     C36590   8.777   3.477   1.076 -0.4284 -0.4592 -0.9667
  272MOL0     C36591   8.894   3.446   1.005 -1.1669 -0.1786 -0.2177
  272MOL0     C36592   8.892   3.394   0.873 -0.1107 -0.0194 -0.6264
  272MOL0     O36593   9.015   3.368   0.820 -0.0299  0.2889  0.2115
  272MOL0     C36594   9.036   3.303   0.693 -0.4643 -0.4441 -0.9545
  272MOL0     C36595   9.178   3.264   0.679 -0.3721 -0.2442  0.9248
  272MOL0     C36596   9.279   3.370   0.716 -0.5627 -0.5401 -0.4805
  272MOL0     C36597   9.406   3.356   0.638 -0.8540 -0.4854  0.0006
  272MOL0     C36598   9.512   3.459   0.667 -0.1761  0.9136  0.2103
  272MOL0     C36599   9.643   3.439   0.580  0.9569  0.5097  0.0345
  272MOL0     C36600   9.734   3.563   0.574  0.0971  0.9551  0.2790
  272MOL0     C36601   9.806   3.614   0.702  0.6424 -0.5588 -0.4610
  272MOL0     N36602   9.716   3.669   0.802  0.3946  0.5620  0.4082
  272MOL0     C36603   9.659   3.791   0.803 -0.0238 -0.4038  0.3908
  272MOL0     C36604   9.616   3.810   0.921  0.0949 -0.4761  0.3035
  272MOL0     C36605   9.545   3.929   0.979  0.1249  0.2144 -0.5147
  272MOL0     C36606   9.429   3.881   1.070 -0.2149 -0.6570 -0.1038
  272MOL0     C36607   9.341   4.004   1.109 -0.6573 -0.3808  0.9420
  272MOL0     C36608   9.202   3.964   1.166 -0.1964  0.1719  0.9942
  272MOL0     O36609   9.123   4.080   1.189  0.3580  0.0374  0.6920
  272MOL0     C36610   8.994   4.070   1.230  1.3867 -1.0881 -0.1640
  272MOL0     C36611   8.915   3.957   1.251 -0.1026 -0.1847  0.4474
  272MOL0     C36612   8.779   3.968   1.271  0.0807  0.4286 -0.4569
  272MOL0     C36613   8.701   3.837   1.279 -0.1964  0.7002  0.6030
  272MOL0     C36614   8.724   4.100   1.275  1.3154  0.9826 -0.7509
  272MOL0     C36615   8.578   4.125   1.297  0.9893 -0.0878 -0.0000
  272MOL0     O36616   8.541   4.257   1.279  0.3291  0.8058  0.5153
  272MOL0     C36617   8.409   4.280   1.272 -0.6410 -0.3111 -0.3040
  272MOL0     C36618   8.346   4.261   1.154 -0.1904 -0.4699  0.0485
  272MOL0     C36619   8.211   4.288   1.136 -1.2468  0.3633  0.4540
  272MOL0     C36620   8.132   4.318   1.242  0.0992 -0.4672 -0.3977
  272MOL0     O36621   8.000   4.334   1.221  1.1213 -0.2537  1.1684
  272MOL0     C36622   7.900   4.345   1.318 -0.1279  0.4509 -0.4134
  272MOL0     C36623   7.766   4.382   1.254 -0.4865  0.2975  1.0930
  272MOL0     C36624   7.770   4.526   1.198 -0.0717 -0.1182 -0.1060
  272MOL0     C36625   7.644   4.560   1.117  0.1621 -0.2802  0.6981
  272MOL0     C36626   7.642   4.704   1.070  0.2089  0.0019  0.3676
  272MOL0     C36627   7.519   4.742   0.993  0.4304 -0.0801 -1.1522
  272MOL0     C36628   7.549   4.863   0.896 -0.2974  0.8089  1.5864
  272MOL0     C36629   7.483   4.997   0.941  0.1802  0.6245 -0.4441
  272MOL0    Cl36630   7.302   4.975   0.950  0.3914  0.2191 -0.0740
  272MOL0     C36631   8.197   4.334   1.370 -0.3978  0.0311 -0.1837
  272MOL0     C36632   8.339   4.313   1.386  0.1963  0.0585 -0.1332
  272MOL0     O36633   8.501   4.034   1.320  1.0543  0.0794 -0.1387
  272MOL0     C36634   8.807   4.214   1.261 -0.1150 -0.6199 -0.5154
  272MOL0     C36635   8.936   4.204   1.237 -0.3857  0.0447 -0.7982
  272MOL0     N36636   9.649   3.696   0.996  1.0454  0.5160  1.1728
  272MOL0     N36637   9.697   3.602   0.922  0.2811  0.0782 -0.0890
  272MOL0     C36638   8.767   3.371   0.813 -0.7414  0.3682 -0.4376
  272MOL0     C36639   8.649   3.398   0.891  0.7626 -0.8563  0.2328
  272MOL0     C36640   8.305   3.519   1.149 -0.0121 -0.0883 -0.4364
  272MOL0     C36641   8.331   3.647   1.209 -0.2210 -0.1546 -0.5312
  272MOL0     C36642   8.229   3.723   1.274  0.0196  0.3439  0.8034
  272MOL0     C36643   8.097   3.679   1.276  0.7146 -0.7744 -0.6195
  272MOL0     O36644   8.003   3.744   1.357 -1.2674  0.0687 -0.1954
  272MOL0     C36645   7.923   3.843   1.289 -0.3681 -0.5171  0.1371
  272MOL0     C36646   7.790   3.869   1.361  0.5538  1.1250 -0.6716
  272MOL0     C36647   7.692   3.962   1.270 -0.1384  0.0581 -0.2477
  272MOL0     C36648   7.623   4.064   1.361 -0.3666 -0.2082 -0.2154
  272MOL0     C36649   7.520   4.149   1.295  1.0062 -0.1884  0.6424
  272MOL0     C36650   7.432   4.225   1.233 -0.1371  0.4669 -0.9744
  272MOL0     C36651   8.067   3.556   1.221  1.0259  0.7733 -0.5974
  272MOL0     C36652   8.168   3.478   1.156 -0.2074 -0.4227  0.2430
  272MOL0     H36653   8.792   3.518   1.176 -0.4746 -3.0539  0.1862
  272MOL0     H36654   8.992   3.455   1.051 -1.1796  1.6275 -0.4625
  272MOL0     H36655   8.961   3.223   0.686 -1.1875 -0.0436  1.4091
  272MOL0     H36656   9.023   3.373   0.610  1.6163 -0.3190 -1.2061
  272MOL0     H36657   9.186   3.188   0.757 -0.7304  2.1448  3.4733
  272MOL0     H36658   9.196   3.227   0.578 -1.1380  2.5950 -0.3348
  272MOL0     H36659   9.243   3.469   0.686  1.2764 -0.9293 -4.5757
  272MOL0     H36660   9.290   3.370   0.825  1.4037 -1.6609 -0.6344
  272MOL0     H36661   9.447   3.256   0.657  0.7486  0.0577 -0.4314
  272MOL0     H36662   9.377   3.383   0.536 -1.9728  1.8503  0.8667
  272MOL0     H36663   9.463   3.553   0.641 -0.1594  1.0595  0.6884
  272MOL0     H36664   9.542   3.464   0.772 -0.0514  2.2835  0.1175
  272MOL0     H36665   9.704   3.362   0.627  1.1849  2.4181  3.1499
  272MOL0     H36666   9.617   3.423   0.475  1.3080  1.0815 -0.1457
  272MOL0     H36667   9.808   3.529   0.501 -0.9728 -1.4108  0.2021
  272MOL0     H36668   9.666   3.642   0.540 -3.3771 -1.6752  0.4906
  272MOL0     H36669   9.883   3.688   0.680 -0.6079  1.1358  0.6272
  272MOL0     H36670   9.851   3.531   0.758  0.8921  2.3784  4.3193
  272MOL0     H36671   9.664   3.864   0.722  1.6329  0.2846  1.0695
  272MOL0     H36672   9.620   3.988   1.032 -0.7897  2.0954 -1.2228
  272MOL0     H36673   9.507   3.981   0.890  0.1938  2.3548  0.6455
  272MOL0     H36674   9.467   3.826   1.157  0.0754 -2.0755 -1.0883
  272MOL0     H36675   9.366   3.806   1.021  0.3163 -2.4962  1.8579
  272MOL0     H36676   9.324   4.055   1.013  0.0375 -2.5594 -0.4353
  272MOL0     H36677   9.389   4.077   1.175 -0.6212  0.4471  0.0370
  272MOL0     H36678   9.211   3.904   1.258  1.1048 -1.8867 -0.3949
  272MOL0     H36679   9.146   3.911   1.089 -0.7026  1.8462  0.1579
  272MOL0     H36680   8.969   3.863   1.252 -3.3043 -2.1927  1.4323
  272MOL0     H36681   8.667   3.820   1.381 -1.2517 -0.8904  0.0218
  272MOL0     H36682   8.615   3.828   1.212 -0.7330  0.7035  1.2845
  272MOL0     H36683   8.770   3.753   1.269 -2.7917 -1.9042  2.7445
  272MOL0     H36684   8.400   4.240   1.062  0.1735  2.8744 -0.6230
  272MOL0     H36685   8.153   4.262   1.048 -0.5427  1.7727 -0.4664
  272MOL0     H36686   7.883   4.252   1.373  0.0524  0.1478 -0.8636
  272MOL0     H36687   7.915   4.416   1.400 -0.8321 -2.2534  2.2715
  272MOL0     H36688   7.755   4.309   1.173  1.5563 -0.6018  1.5432
  272MOL0     H36689   7.687   4.353   1.324  0.6411 -3.0811  1.1630
  272MOL0     H36690   7.856   4.541   1.132 -1.2440  3.0394 -1.0969
  272MOL0     H36691   7.797   4.600   1.274 -0.7409 -0.2643  0.2812
  272MOL0     H36692   7.634   4.493   1.031 -2.0946 -0.1626  0.7984
  272MOL0     H36693   7.562   4.542   1.187 -0.8681 -1.7753 -0.7933
  272MOL0     H36694   7.732   4.717   1.009  0.6701  1.4674  1.2952
  272MOL0     H36695   7.645   4.771   1.157  0.9571 -1.6189  1.6492
  272MOL0     H36696   7.468   4.663   0.937 -1.7559  0.7523 -0.4011
  272MOL0     H36697   7.433   4.763   1.057  2.9698 -0.2918  2.7009
  272MOL0     H36698   7.503   4.847   0.798 -1.7169  0.4810  2.2828
  272MOL0     H36699   7.657   4.881   0.890  0.0177 -0.9758  1.5793
  272MOL0     H36700   7.515   5.072   0.868  3.5894  1.2029  1.4335
  272MOL0     H36701   7.521   5.031   1.038  1.6378  0.9101 -1.0727
  272MOL0     H36702   8.128   4.364   1.448 -0.7751  1.4872 -1.0221
  272MOL0     H36703   8.392   4.328   1.479  2.1230  1.5860 -1.3939
  272MOL0     H36704   8.761   4.311   1.270  0.6919 -0.1162 -1.5582
  272MOL0     H36705   8.992   4.294   1.213  0.7617 -0.8503 -1.6238
  272MOL0     H36706   8.768   3.324   0.715 -1.4757 -1.2550  0.3012
  272MOL0     H36707   8.561   3.383   0.829  1.2212 -1.6918 -0.2228
  272MOL0     H36708   8.430   3.688   1.190  0.7449 -0.1424  3.4689
  272MOL0     H36709   8.257   3.816   1.321  2.9105  0.9582 -1.7955
  272MOL0     H36710   7.978   3.937   1.288 -0.3988 -0.4638  1.7532
  272MOL0     H36711   7.903   3.807   1.187  0.9293  0.7107 -0.5822
  272MOL0     H36712   7.820   3.919   1.453  1.2947  2.7188 -1.7467
  272MOL0     H36713   7.737   3.775   1.384  2.2741  0.4405  0.7072
  272MOL0     H36714   7.625   3.895   1.216  0.7377 -1.6566  0.7166
  272MOL0     H36715   7.743   4.023   1.195 -0.0064 -3.6531 -3.5257
  272MOL0     H36716   7.689   4.129   1.419 -4.2704  1.4181  2.9249
  272MOL0     H36717   7.581   4.009   1.445  3.3214  0.3567  2.2238
  272MOL0     H36718   7.364   4.294   1.188 -0.3890  0.5175 -0.5198
  272MOL0     H36719   7.974   3.505   1.244 -0.1463  2.8964 -0.2850
  272MOL0     H36720   8.137   3.391   1.098  3.4485 -1.1149 -0.9630
  273MOL0     O36721   8.574  10.057   9.438  0.3369  0.1807  0.4704
  273MOL0     C36722   8.594  10.175   9.416 -0.4812  0.6665  0.3268
  273MOL0     O36723   8.526  10.259   9.330  0.3513 -0.5627 -0.2860
  273MOL0     C36724   8.395  10.223   9.296 -0.4562  0.5834 -1.1864
  273MOL0     C36725   8.293  10.238   9.393 -0.1306 -0.2619  0.2497
  273MOL0     C36726   8.158  10.198   9.354  0.6423  1.0125 -0.6912
  273MOL0     C36727   8.133  10.146   9.229  0.3001 -0.2638  0.4987
  273MOL0     O36728   8.010  10.126   9.175  0.2765  0.4424  0.2843
  273MOL0     C36729   7.912  10.067   9.270  0.1549 -0.2432  0.2772
  273MOL0     C36730   7.940   9.927   9.336  0.3652  0.0837 -0.6557
  273MOL0     C36731   7.950   9.821   9.230 -0.9520  0.1704  0.0427
  273MOL0     C36732   8.034   9.697   9.286 -0.0890 -0.0168  0.4033
  273MOL0     C36733   8.176   9.716   9.223 -0.0296 -0.1359  0.0799
  273MOL0     C36734   8.288   9.623   9.299  0.7852 -0.8947  0.2169
  273MOL0     C36735   8.350   9.695   9.428  0.0845  1.0058 -0.1459
  273MOL0     C36736   8.492   9.645   9.451 -0.0547  0.5153  0.6695
  273MOL0     N36737   8.496   9.503   9.490  0.6861  0.1532  0.4463
  273MOL0     C36738   8.605   9.421   9.486  0.1297  0.6710  0.9914
  273MOL0     C36739   8.568   9.297   9.516  0.6307 -0.1496  0.1868
  273MOL0     C36740   8.664   9.182   9.552 -0.9942 -0.2885  0.7293
  273MOL0     C36741   8.610   9.089   9.663 -0.2305 -0.4860  0.1931
  273MOL0     C36742   8.527   8.983   9.588  0.0146  0.3618 -1.2329
  273MOL0     C36743   8.459   8.877   9.673 -1.1176  0.2680  0.0186
  273MOL0     O36744   8.399   8.782   9.584  0.3352  0.7128 -0.6284
  273MOL0     C36745   8.327   8.677   9.638 -0.5120  0.1156  0.6779
  273MOL0     C36746   8.303   8.668   9.777  0.0215  0.1822  0.5288
  273MOL0     C36747   8.237   8.554   9.831  0.3984  0.3672  0.6126
  273MOL0     C36748   8.204   8.549   9.980  0.2073 -1.2534  0.3967
  273MOL0     C36749   8.192   8.444   9.747 -0.8623  0.4298 -0.3627
  273MOL0     C36750   8.112   8.325   9.790  0.7118  0.0026  0.4757
  273MOL0     O36751   8.022   8.286   9.695  0.5161 -0.2537 -0.4040
  273MOL0     C36752   7.924   8.195   9.727 -0.0360 -0.1160 -0.6159
  273MOL0     C36753   7.947   8.060   9.705  0.0866 -0.0726  0.8824
  273MOL0     C36754   7.852   7.972   9.759  0.8574  0.8840 -0.3908
  273MOL0     C36755   7.735   8.015   9.829  0.3195 -0.1379 -0.0843
  273MOL0     O36756   7.662   7.918   9.889 -0.5120 -0.3659 -0.4981
  273MOL0     C36757   7.554   7.953   9.974 -0.6824  0.3307  0.0085
  273MOL0     C36758   7.429   7.995   9.898 -0.5015 -0.5461  0.0552
  273MOL0     C36759   7.310   8.018   9.994 -0.0917 -0.0815 -0.0296
  273MOL0     C36760   7.179   8.039   9.921  0.0520  1.1370  0.0781
  273MOL0     C36761   7.141   8.184   9.901 -0.0377 -0.4951  0.1889
  273MOL0     C36762   7.013   8.200   9.815 -0.3736 -0.5140 -0.5146
  273MOL0     C36763   6.897   8.142   9.881  0.8366 -0.0610 -0.8054
  273MOL0     C36764   6.849   8.191  10.011  0.2427  0.3925 -0.1762
  273MOL0    Cl36765   6.802   8.359  10.010 -0.3241  0.2685 -0.2038
  273MOL0     C36766   7.725   8.145   9.846 -0.2212  0.9848 -0.3548
  273MOL0     C36767   7.806   8.238   9.793  0.1601 -0.0277  0.1163
  273MOL0     O36768   8.120   8.285   9.901 -0.5230  0.2786  0.4601
  273MOL0     C36769   8.233   8.460   9.613  0.1929 -0.3227  1.2606
  273MOL0     C36770   8.283   8.576   9.558  0.2977 -0.1737 -0.3819
  273MOL0     N36771   8.435   9.294   9.528 -0.2621 -0.6235 -0.2606
  273MOL0     N36772   8.391   9.417   9.516  0.6849 -0.0919  0.2731
  273MOL0     C36773   8.236  10.125   9.138  0.3739 -1.0045  0.3786
  273MOL0     C36774   8.372  10.160   9.170  0.5083 -1.0766  0.9446
  273MOL0     C36775   8.724  10.219   9.469  0.4024  0.7139 -0.6435
  273MOL0     C36776   8.828  10.134   9.507 -0.6398 -0.9370 -0.0145
  273MOL0     C36777   8.954  10.180   9.534  0.0697 -0.6852  0.0288
  273MOL0     C36778   8.995  10.310   9.529  0.2876  0.6214 -0.1295
  273MOL0     O36779   9.127  10.343   9.559 -1.0025 -0.6486 -0.3734
  273MOL0     C36780   9.152  10.480   9.560 -0.2198 -1.4731 -0.0050
  273MOL0     C36781   9.301  10.504   9.597  0.2259  0.4206  0.5748
  273MOL0     C36782   9.327  10.477   9.744 -0.9081 -0.1981  0.7596
  273MOL0     C36783   9.447  10.384   9.767 -0.6235  0.4760  0.1068
  273MOL0     C36784   9.576  10.447   9.716  0.3102  0.0865 -0.2619
  273MOL0     C36785   9.676  10.495   9.657  0.1312 -0.0490  0.3466
  273MOL0     C36786   8.894  10.398   9.493  0.6407 -0.4404 -1.1029
  273MOL0     C36787   8.757  10.356   9.475 -0.7401 -0.4938  0.2579
  273MOL0     H36788   8.317  10.283   9.489  1.8263  0.4139 -0.5099
  273MOL0     H36789   8.078  10.227   9.421  1.9606  1.1627  0.8653
  273MOL0     H36790   7.891  10.138   9.351 -4.4489 -0.3681 -0.5148
  273MOL0     H36791   7.824  10.074   9.205  1.3017  0.0168 -1.3126
  273MOL0     H36792   8.035   9.935   9.389  1.9776 -4.2082 -2.4411
  273MOL0     H36793   7.852   9.920   9.401  2.4690 -0.6386  2.3150
  273MOL0     H36794   7.852   9.794   9.192 -0.8261 -3.3256  1.7873
  273MOL0     H36795   8.006   9.857   9.143  1.3547  0.3152  1.4897
  273MOL0     H36796   8.033   9.693   9.396  0.2101 -0.7923  0.3830
  273MOL0     H36797   7.999   9.603   9.242  1.3215 -1.4539  2.1677
  273MOL0     H36798   8.174   9.686   9.118 -2.4825  0.8871 -0.2162
  273MOL0     H36799   8.204   9.822   9.224  0.3460 -0.2194  1.8221
  273MOL0     H36800   8.247   9.527   9.332  2.6476 -1.6096  0.6017
  273MOL0     H36801   8.372   9.601   9.232  0.1808 -2.5871 -0.0367
  273MOL0     H36802   8.350   9.801   9.400 -1.9105  1.2369  0.5592
  273MOL0     H36803   8.289   9.670   9.515  1.6386 -0.5137  0.5733
  273MOL0     H36804   8.540   9.713   9.522  1.0768  1.1792 -0.6929
  273MOL0     H36805   8.550   9.650   9.359  2.2402 -1.1030  1.9323
  273MOL0     H36806   8.708   9.456   9.477  0.4470 -0.1745  1.2899
  273MOL0     H36807   8.707   9.129   9.466  0.9199  1.5897  0.4460
  273MOL0     H36808   8.756   9.222   9.597 -0.2556  0.2729 -1.1807
  273MOL0     H36809   8.549   9.141   9.738  0.7319  1.0866 -0.0501
  273MOL0     H36810   8.696   9.044   9.714 -1.2317 -0.0670  2.3425
  273MOL0     H36811   8.587   8.930   9.513  1.3937 -0.5871  0.4704
  273MOL0     H36812   8.448   9.032   9.530  2.1650  1.4772 -3.4432
  273MOL0     H36813   8.375   8.917   9.731 -1.6150  0.4057 -0.7842
  273MOL0     H36814   8.538   8.837   9.737 -1.6376  0.3615  0.7372
  273MOL0     H36815   8.337   8.748   9.842 -5.0099  2.6063  0.6026
  273MOL0     H36816   8.232   8.635  10.042 -0.8531 -1.3849  1.0738
  273MOL0     H36817   8.099   8.522   9.993  0.7328 -3.3996  0.7199
  273MOL0     H36818   8.262   8.468  10.027  1.6346 -0.0978  0.7040
  273MOL0     H36819   8.031   8.010   9.658  0.8418 -0.2988  2.4126
  273MOL0     H36820   7.872   7.865   9.763 -3.1120  0.0130  0.1483
  273MOL0     H36821   7.539   7.865  10.038 -0.0840 -1.1747 -1.8492
  273MOL0     H36822   7.579   8.037  10.039 -1.4534 -0.3525  1.2408
  273MOL0     H36823   7.437   8.087   9.839 -1.3424 -0.7053 -0.3175
  273MOL0     H36824   7.396   7.910   9.838 -2.5580 -1.2705  2.0507
  273MOL0     H36825   7.324   8.101  10.064 -2.0813  0.2481  0.0533
  273MOL0     H36826   7.298   7.927  10.054  3.2765 -0.7271 -0.1485
  273MOL0     H36827   7.189   7.985   9.827  0.8890 -2.0225  1.8369
  273MOL0     H36828   7.098   7.996   9.982  1.0278 -1.2970 -0.2382
  273MOL0     H36829   7.230   8.229   9.856  0.1597  1.8065  2.6318
  273MOL0     H36830   7.120   8.248   9.987 -1.5807 -0.6638 -0.0422
  273MOL0     H36831   7.005   8.309   9.806  2.1094 -0.0618  1.6667
  273MOL0     H36832   7.018   8.171   9.709 -1.1523 -1.9872 -0.1672
  273MOL0     H36833   6.912   8.034   9.886 -0.5242 -0.4569 -3.5456
  273MOL0     H36834   6.808   8.157   9.819  2.0428  0.9912 -2.3572
  273MOL0     H36835   6.926   8.193  10.089  0.2635  2.3843 -0.2002
  273MOL0     H36836   6.768   8.127  10.048 -0.5258  1.8749  0.8092
  273MOL0     H36837   7.658   8.191   9.919  0.4922 -1.4362  1.9708
  273MOL0     H36838   7.806   8.346   9.798  0.2897  0.0015 -0.4325
  273MOL0     H36839   8.217   8.380   9.542  0.1086 -1.0192  2.0566
  273MOL0     H36840   8.314   8.577   9.454 -0.6027  3.8368 -0.7573
  273MOL0     H36841   8.214  10.094   9.037 -0.5272 -1.9257  0.8416
  273MOL0     H36842   8.449  10.149   9.094 -0.7733  1.8495 -0.9627
  273MOL0     H36843   8.811  10.027   9.506 -2.7352 -0.6713  1.1671
  273MOL0     H36844   9.042  10.123   9.560  1.7691  1.3994 -0.8048
  273MOL0     H36845   9.128  10.518   9.460 -1.5722  2.3684  1.5677
  273MOL0     H36846   9.091  10.541   9.627  0.7895  0.7607 -0.9888
  273MOL0     H36847   9.326  10.605   9.563  0.6906  0.3306  0.6485
  273MOL0     H36848   9.355  10.428   9.540  1.0743 -0.0138  1.9224
  273MOL0     H36849   9.243  10.444   9.805 -1.6173  0.2754  0.0655
  273MOL0     H36850   9.357  10.578   9.774 -2.1475  1.5714 -3.1904
  273MOL0     H36851   9.434  10.287   9.718  1.7035 -0.6037  1.4758
  273MOL0     H36852   9.448  10.354   9.872 -0.0490 -1.5877 -0.4477
  273MOL0     H36853   9.760  10.548   9.619  0.4641  0.6023  1.9065
  273MOL0     H36854   8.913  10.505   9.490 -1.8783  0.1875  0.8764
  273MOL0     H36855   8.696  10.443   9.453 -0.6944 -0.9567 -1.9431
  274MOL0     O36856   7.544   6.666   8.411 -0.3056 -0.6613  0.0295
  274MOL0     C36857   7.619   6.755   8.381 -1.0176 -0.3655 -0.6368
  274MOL0     O36858   7.584   6.888   8.355  0.7659  0.1488 -0.6755
  274MOL0     C36859   7.453   6.932   8.356  0.1946 -0.2194 -0.6144
  274MOL0     C36860   7.408   7.027   8.260  0.0879 -0.5186 -0.2828
  274MOL0     C36861   7.278   7.072   8.269 -0.1700 -0.3948  0.2564
  274MOL0     C36862   7.178   7.007   8.340 -0.4142 -0.5158 -0.0650
  274MOL0     O36863   7.047   7.057   8.336 -0.1738  0.3805 -0.7180
  274MOL0     C36864   6.944   6.973   8.374 -0.0705 -0.1884  0.5626
  274MOL0     C36865   6.821   7.037   8.308 -0.2754 -0.2676  0.5465
  274MOL0     C36866   6.706   6.944   8.327  0.1387 -0.1824  0.6460
  274MOL0     C36867   6.567   7.016   8.296 -0.4631  0.6601 -0.3214
  274MOL0     C36868   6.448   6.931   8.335 -0.3538 -0.2936  0.8349
  274MOL0     C36869   6.324   7.022   8.348 -0.9134 -0.5455  1.1136
  274MOL0     C36870   6.197   6.943   8.388  0.7259  0.8263 -0.5699
  274MOL0     C36871   6.072   7.033   8.396 -0.6177 -1.0577  0.1676
  274MOL0     N36872   5.969   6.977   8.476 -0.0407  0.4123 -0.0597
  274MOL0     C36873   5.888   6.867   8.429  0.5639  0.0207  0.0736
  274MOL0     C36874   5.774   6.875   8.504 -1.2504 -0.2996  0.4304
  274MOL0     C36875   5.653   6.797   8.492  0.1128 -0.3003 -0.3753
  274MOL0     C36876   5.568   6.834   8.373  0.8256  0.3728  0.0454
  274MOL0     C36877   5.420   6.783   8.400  0.2254 -0.1501 -0.4357
  274MOL0     C36878   5.320   6.851   8.312 -0.7587 -0.5018 -0.7539
  274MOL0     O36879   5.312   6.989   8.336  0.3665  0.6815 -0.4577
  274MOL0     C36880   5.222   7.056   8.266  0.6424  0.1956  0.6836
  274MOL0     C36881   5.220   7.194   8.255 -0.9579  0.7984  0.0157
  274MOL0     C36882   5.115   7.268   8.189 -0.6588  0.2309  0.0344
  274MOL0     C36883   5.130   7.423   8.195  0.2433  0.4867 -0.2645
  274MOL0     C36884   5.014   7.203   8.118  0.7609 -0.1421  1.2139
  274MOL0     C36885   4.895   7.284   8.043 -0.3301  0.1002  0.0777
  274MOL0     O36886   4.866   7.410   8.090 -0.2273  0.5192 -0.1165
  274MOL0     C36887   4.766   7.477   8.024  0.1189  0.2299  0.4290
  274MOL0     C36888   4.636   7.449   8.065  0.6066  0.2822  0.5481
  274MOL0     C36889   4.532   7.508   8.000  0.0730 -1.0226  0.5941
  274MOL0     C36890   4.551   7.606   7.891  0.0501 -0.0039  0.7807
  274MOL0     O36891   4.448   7.665   7.819  0.0715  0.5167  0.3516
  274MOL0     C36892   4.320   7.662   7.873  0.9835  0.1892  0.8398
  274MOL0     C36893   4.230   7.743   7.784 -0.3338 -0.1311 -0.0880
  274MOL0     C36894   4.087   7.738   7.832  0.0241 -1.0751 -0.2331
  274MOL0     C36895   3.997   7.834   7.759 -0.8641  0.1945  0.2568
  274MOL0     C36896   4.031   7.983   7.783 -0.6214 -0.2816  0.1755
  274MOL0     C36897   3.911   8.074   7.757 -0.6939  0.5844  1.0302
  274MOL0     C36898   3.936   8.221   7.775  0.2951  0.5423 -0.0632
  274MOL0     C36899   3.799   8.281   7.786 -0.4517 -0.4351  0.0990
  274MOL0    Cl36900   3.738   8.274   7.949 -0.1617  0.1819  0.5035
  274MOL0     C36901   4.683   7.645   7.861  0.6271  0.5596 -0.4946
  274MOL0     C36902   4.795   7.575   7.918  0.4273  0.0335 -0.5257
  274MOL0     O36903   4.838   7.228   7.954 -0.2013 -0.4871  0.0593
  274MOL0     C36904   5.018   7.063   8.123 -0.9064 -0.5202  0.7935
  274MOL0     C36905   5.111   6.995   8.192  0.0889 -0.2144 -0.7948
  274MOL0     N36906   5.786   6.984   8.585 -1.2183  0.0671  0.0754
  274MOL0     N36907   5.898   7.047   8.563  0.4795  0.1902 -0.6467
  274MOL0     C36908   7.229   6.921   8.441  0.2781 -0.6643 -0.2763
  274MOL0     C36909   7.362   6.892   8.453 -0.7102  0.4514 -0.3860
  274MOL0     C36910   7.757   6.717   8.371 -0.0708 -0.5274 -0.7987
  274MOL0     C36911   7.845   6.825   8.333  0.4985 -0.1117 -0.4933
  274MOL0     C36912   7.982   6.811   8.324  0.0627 -0.5252 -0.1235
  274MOL0     C36913   8.033   6.687   8.331  0.2192  0.7696 -0.1926
  274MOL0     O36914   8.152   6.643   8.285 -0.2080  0.0508  0.8071
  274MOL0     C36915   8.264   6.743   8.254  0.2963  0.2304  0.2256
  274MOL0     C36916   8.352   6.686   8.141  0.2831 -0.6941  0.1814
  274MOL0     C36917   8.486   6.764   8.127  0.7864  0.3220  1.2426
  274MOL0     C36918   8.475   6.903   8.068 -0.8481  0.1630 -0.3579
  274MOL0     C36919   8.606   6.936   8.028 -0.1263 -0.5109 -0.2911
  274MOL0     C36920   8.722   6.966   7.999  0.4846 -0.0256 -0.2168
  274MOL0     C36921   7.951   6.585   8.380 -0.3618  1.4723  0.6915
  274MOL0     C36922   7.807   6.588   8.398 -0.4701  0.1111 -0.4437
  274MOL0     H36923   7.474   7.072   8.187  0.7267 -0.4265  0.3424
  274MOL0     H36924   7.249   7.148   8.197  2.2346 -0.6854 -1.1556
  274MOL0     H36925   6.943   6.874   8.328 -3.4478 -1.0164  2.0880
  274MOL0     H36926   6.921   6.955   8.479  1.8893  0.1696  1.0789
  274MOL0     H36927   6.784   7.128   8.355 -1.0749 -0.3312  0.0545
  274MOL0     H36928   6.828   7.058   8.201  0.2010 -1.8853  0.2265
  274MOL0     H36929   6.716   6.856   8.262  3.4808  0.2118  0.4732
  274MOL0     H36930   6.691   6.913   8.431 -1.5579  4.2748  1.9423
  274MOL0     H36931   6.558   7.111   8.351  1.2117  1.3590 -1.1865
  274MOL0     H36932   6.555   7.041   8.191  1.1620  1.1366 -0.4265
  274MOL0     H36933   6.429   6.871   8.245  2.3082  2.6164 -1.9546
  274MOL0     H36934   6.468   6.885   8.432  3.2469  0.3554  0.5095
  274MOL0     H36935   6.345   7.104   8.417 -1.9997  1.0181 -0.3450
  274MOL0     H36936   6.306   7.072   8.252  0.1501  1.3465  1.8598
  274MOL0     H36937   6.175   6.872   8.308  0.6679  1.2986 -0.9771
  274MOL0     H36938   6.198   6.894   8.486  1.6740  4.6787  1.5070
  274MOL0     H36939   6.030   7.047   8.296 -1.8111  0.5602  0.8516
  274MOL0     H36940   6.103   7.131   8.433  1.6886 -2.7255  3.1964
  274MOL0     H36941   5.908   6.794   8.351 -0.1338 -0.2135  0.1046
  274MOL0     H36942   5.680   6.692   8.478 -3.1912 -1.1499 -1.3047
  274MOL0     H36943   5.605   6.809   8.589 -2.5871  2.5429 -1.8743
  274MOL0     H36944   5.604   6.785   8.283 -1.3516  0.6461 -1.0511
  274MOL0     H36945   5.556   6.942   8.366 -2.4374  0.7419  5.2423
  274MOL0     H36946   5.388   6.795   8.504 -0.4701  0.3001 -0.7002
  274MOL0     H36947   5.414   6.675   8.379 -1.2994  0.0322 -1.0885
  274MOL0     H36948   5.219   6.809   8.322 -0.6944 -0.7994 -1.2726
  274MOL0     H36949   5.353   6.831   8.209  4.1752  0.2286  0.4732
  274MOL0     H36950   5.302   7.246   8.304  2.0342 -1.1693 -2.4889
  274MOL0     H36951   5.118   7.460   8.093  1.8388 -0.2718 -0.7630
  274MOL0     H36952   5.055   7.472   8.257 -0.9392 -1.9317  0.3647
  274MOL0     H36953   5.231   7.453   8.223  0.2847 -1.1543  1.5508
  274MOL0     H36954   4.611   7.374   8.140 -0.7358  0.9795  0.8306
  274MOL0     H36955   4.438   7.474   8.041 -1.2676 -0.9063 -2.1465
  274MOL0     H36956   4.285   7.558   7.872 -2.4036  1.1635 -1.1164
  274MOL0     H36957   4.314   7.718   7.967 -1.9317 -1.0476  1.4926
  274MOL0     H36958   4.268   7.846   7.783 -0.7171  0.0095 -0.2525
  274MOL0     H36959   4.218   7.710   7.680 -1.7787  0.0178  0.0075
  274MOL0     H36960   4.086   7.763   7.938  0.4552 -1.0113 -0.2409
  274MOL0     H36961   4.048   7.636   7.821 -0.8774 -0.7716  0.0935
  274MOL0     H36962   4.003   7.808   7.653  1.7754  0.5025  0.2534
  274MOL0     H36963   3.893   7.816   7.787 -1.3627 -0.3505 -1.7774
  274MOL0     H36964   4.118   8.016   7.725 -2.2355  2.1090 -0.9964
  274MOL0     H36965   4.057   7.999   7.888 -0.8605  0.0484  0.1841
  274MOL0     H36966   3.870   8.053   7.658 -2.2397  1.9209  1.3262
  274MOL0     H36967   3.828   8.046   7.824  2.1320  0.0677  4.6308
  274MOL0     H36968   3.997   8.257   7.692  0.9786 -1.3050 -0.4066
  274MOL0     H36969   3.985   8.247   7.869 -0.7855  1.4961  0.2655
  274MOL0     H36970   3.726   8.238   7.717 -0.3526 -1.5254  0.6598
  274MOL0     H36971   3.801   8.388   7.764  2.7476  0.0346  1.9233
  274MOL0     H36972   4.696   7.716   7.781 -0.7140  0.1203 -1.1387
  274MOL0     H36973   4.896   7.611   7.901  0.0785  0.5993 -1.4556
  274MOL0     H36974   4.944   7.011   8.062 -0.7581  1.6521 -1.4399
  274MOL0     H36975   5.096   6.888   8.198 -0.8261 -0.0175  0.8025
  274MOL0     H36976   7.154   6.893   8.514 -1.8731 -1.9451 -2.8210
  274MOL0     H36977   7.398   6.827   8.532 -0.7121 -0.1426 -0.8653
  274MOL0     H36978   7.800   6.921   8.306 -0.4804  0.4057  2.5715
  274MOL0     H36979   8.051   6.888   8.291 -0.2422 -0.6289 -1.0531
  274MOL0     H36980   8.227   6.840   8.220  0.1019  0.7508  1.8340
  274MOL0     H36981   8.313   6.761   8.350  0.4336 -0.1345  0.2268
  274MOL0     H36982   8.297   6.672   8.048  2.2128 -1.6956 -0.8832
  274MOL0     H36983   8.374   6.590   8.189 -0.6805  0.1461  2.4647
  274MOL0     H36984   8.544   6.710   8.052 -0.5616 -0.5389  0.7662
  274MOL0     H36985   8.530   6.768   8.226 -0.1655 -1.1007  1.7502
  274MOL0     H36986   8.422   6.968   8.139 -0.7343  0.1054 -0.2221
  274MOL0     H36987   8.417   6.894   7.975  1.2050 -0.6394 -1.6248
  274MOL0     H36988   8.823   6.988   7.974  0.4699  0.8020  0.3867
  274MOL0     H36989   8.001   6.490   8.400 -2.4499 -0.3310 -1.9565
  274MOL0     H36990   7.749   6.497   8.413  1.2092 -0.9309  0.0301
  275MOL0     O36991   1.130   7.144   9.365 -0.2522 -0.2649  0.0148
  275MOL0     C36992   1.138   7.033   9.426  0.3610 -0.7840  0.8634
  275MOL0     O36993   1.030   6.967   9.481  0.0830 -0.2085 -0.1779
  275MOL0     C36994   0.906   7.023   9.458  0.8406 -0.0312 -0.1362
  275MOL0     C36995   0.839   6.988   9.343  0.4319 -0.3188  0.4470
  275MOL0     C36996   0.719   7.043   9.310 -0.6732 -0.7590  0.9185
  275MOL0     C36997   0.650   7.140   9.399 -0.6810  0.3637  0.3305
  275MOL0     O36998   0.529   7.200   9.364 -0.0134 -0.1086  0.8976
  275MOL0     C36999   0.476   7.188   9.234  0.1370  0.3561  0.3352
  275MOL0     C37000   0.342   7.253   9.233 -0.3179 -0.1201 -0.6124
  275MOL0     C37001   0.289   7.257   9.097  0.4171 -0.2144 -0.2940
  275MOL0     C37002   0.165   7.351   9.080  0.2653  0.6326  0.1124
  275MOL0     C37003   0.029   7.274   9.109 -0.2339  0.0331 -0.3796
  275MOL0     C37004  -0.083   7.372   9.063 -0.1680  0.1802 -0.3790
  275MOL0     C37005  -0.205   7.303   8.998 -0.3057  1.3383  0.1576
  275MOL0     C37006  -0.280   7.198   9.084 -0.0640 -0.5287 -0.4341
  275MOL0     N37007  -0.405   7.155   9.021  0.4045  0.0708  0.0302
  275MOL0     C37008  -0.424   7.043   8.954  0.0191  0.1919  0.6618
  275MOL0     C37009  -0.549   7.035   8.921  0.2789  0.1719  0.3065
  275MOL0     C37010  -0.595   6.932   8.824  0.5132 -0.5244  0.0810
  275MOL0     C37011  -0.711   6.853   8.874  0.0620  0.2886 -0.9241
  275MOL0     C37012  -0.752   6.781   8.753  0.6451 -0.0898  0.1080
  275MOL0     C37013  -0.865   6.687   8.787 -0.0559 -0.3399  0.5967
  275MOL0     O37014  -0.904   6.626   8.663 -0.4835  0.6085 -0.1435
  275MOL0     C37015  -1.039   6.601   8.629 -0.7416  0.2204 -0.1548
  275MOL0     C37016  -1.056   6.541   8.509 -0.2983 -0.7419  0.5912
  275MOL0     C37017  -1.167   6.465   8.476  0.1160 -0.9553  0.7351
  275MOL0     C37018  -1.151   6.386   8.343  0.4362 -0.3523 -1.1069
  275MOL0     C37019  -1.279   6.473   8.563  0.1779  0.4815  0.1964
  275MOL0     C37020  -1.418   6.428   8.525  0.5137 -0.2054 -0.9656
  275MOL0     O37021  -1.517   6.429   8.616  0.4117  0.2294 -0.4335
  275MOL0     C37022  -1.638   6.382   8.568 -0.2122  0.1780 -0.2673
  275MOL0     C37023  -1.691   6.266   8.614  0.3685 -0.2739 -0.0126
  275MOL0     C37024  -1.819   6.222   8.580 -0.2376 -0.2867 -0.2762
  275MOL0     C37025  -1.895   6.298   8.502 -0.0496  0.1042  0.6201
  275MOL0     O37026  -2.019   6.254   8.466  0.5494  0.0497  0.4825
  275MOL0     C37027  -2.122   6.335   8.410 -0.4532 -1.0737  0.3189
  275MOL0     C37028  -2.255   6.317   8.479  0.1054  1.5681 -0.4891
  275MOL0     C37029  -2.308   6.170   8.485  0.5635 -0.5293  0.5604
  275MOL0     C37030  -2.446   6.169   8.552  0.0496 -0.3675 -0.7347
  275MOL0     C37031  -2.503   6.030   8.584 -0.7948  0.1014 -0.8798
  275MOL0     C37032  -2.653   6.028   8.544 -0.8754 -1.0250 -0.5097
  275MOL0     C37033  -2.714   5.892   8.545  1.0341  0.6785  0.3264
  275MOL0     C37034  -2.846   5.889   8.471 -0.4950 -0.1091  0.5265
  275MOL0    Cl37035  -2.978   5.979   8.565 -0.0035 -0.0663  0.6486
  275MOL0     C37036  -1.846   6.424   8.450 -0.0901  0.2842  0.0150
  275MOL0     C37037  -1.714   6.460   8.479 -0.7432  0.1428 -0.5728
  275MOL0     O37038  -1.434   6.403   8.405 -0.3536 -0.6362  0.7614
  275MOL0     C37039  -1.261   6.535   8.687  0.6542  0.7657  0.6538
  275MOL0     C37040  -1.143   6.601   8.716  0.0679 -0.0255 -0.5805
  275MOL0     N37041  -0.615   7.141   8.966 -0.9359 -0.3721 -0.0013
  275MOL0     N37042  -0.528   7.208   9.037 -0.5773  0.1934  0.5121
  275MOL0     C37043   0.726   7.177   9.511  0.0021  0.0071  0.6645
  275MOL0     C37044   0.853   7.123   9.538  1.1045 -0.5820 -0.7694
  275MOL0     C37045   1.274   6.971   9.436  0.3997  0.2004  0.0356
  275MOL0     C37046   1.288   6.847   9.492  0.2192  0.3089  0.2403
  275MOL0     C37047   1.404   6.779   9.498  0.0246 -0.0591  0.0023
  275MOL0     C37048   1.520   6.832   9.448  0.3493 -0.4453 -0.4651
  275MOL0     O37049   1.643   6.781   9.437 -0.6441 -0.4071 -0.0967
  275MOL0     C37050   1.678   6.649   9.481 -0.1513 -1.3387  0.1377
  275MOL0     C37051   1.821   6.656   9.537 -0.2909 -0.6243 -0.2029
  275MOL0     C37052   1.910   6.539   9.495 -0.6167  0.3888  0.4055
  275MOL0     C37053   1.952   6.557   9.349 -0.6195  0.0866  0.0736
  275MOL0     C37054   2.079   6.474   9.340  0.7023 -0.8147  0.4056
  275MOL0     C37055   2.181   6.403   9.343  1.0185 -0.2255  0.7290
  275MOL0     C37056   1.507   6.957   9.387 -0.2669  0.1894 -0.5802
  275MOL0     C37057   1.388   7.023   9.372 -0.2656 -0.3934  0.6103
  275MOL0     H37058   0.877   6.913   9.275 -0.7959 -0.6047  0.0438
  275MOL0     H37059   0.673   7.028   9.212  2.0567  1.1384 -0.7725
  275MOL0     H37060   0.537   7.244   9.162  1.6995  0.1774  1.4659
  275MOL0     H37061   0.464   7.082   9.209  1.7281  0.0618  0.7113
  275MOL0     H37062   0.279   7.192   9.298 -0.9745  1.0755 -0.1091
  275MOL0     H37063   0.349   7.355   9.271  3.3063  0.1211 -1.5838
  275MOL0     H37064   0.366   7.295   9.029 -1.4347  1.0985 -1.7752
  275MOL0     H37065   0.264   7.157   9.062 -0.3762 -0.2306  0.2924
  275MOL0     H37066   0.177   7.432   9.153 -4.0081  0.5286  1.1621
  275MOL0     H37067   0.162   7.392   8.978 -0.6435  0.6288  0.1292
  275MOL0     H37068   0.032   7.179   9.055  0.1488 -0.5324  0.6114
  275MOL0     H37069   0.016   7.246   9.214 -2.0256 -1.6065 -0.9642
  275MOL0     H37070  -0.114   7.431   9.150  2.0994 -0.3543  0.8641
  275MOL0     H37071  -0.045   7.442   8.988 -0.0196 -1.1567 -1.6039
  275MOL0     H37072  -0.264   7.382   8.951  0.7741 -0.1061 -4.0672
  275MOL0     H37073  -0.175   7.243   8.912  1.3249 -1.4531  2.4987
  275MOL0     H37074  -0.297   7.242   9.182 -1.5369  1.3643 -1.4867
  275MOL0     H37075  -0.215   7.111   9.101  0.9847  0.3644  0.3004
  275MOL0     H37076  -0.352   6.968   8.921 -1.4856 -1.9687  1.9592
  275MOL0     H37077  -0.629   6.985   8.734  0.0302 -2.4411 -0.9157
  275MOL0     H37078  -0.514   6.870   8.784 -1.8631 -3.8169 -0.0671
  275MOL0     H37079  -0.791   6.919   8.909 -0.3863 -0.8871  0.3363
  275MOL0     H37080  -0.686   6.793   8.961  0.6199  1.1990 -0.4402
  275MOL0     H37081  -0.678   6.719   8.700 -1.9182 -3.3807  0.0027
  275MOL0     H37082  -0.795   6.857   8.687 -2.6306 -1.2351  0.7397
  275MOL0     H37083  -0.949   6.739   8.834  1.0535 -0.1234  2.4495
  275MOL0     H37084  -0.823   6.611   8.854  0.2219  0.6093  1.5297
  275MOL0     H37085  -0.970   6.530   8.444 -1.8612 -0.8062 -1.5826
  275MOL0     H37086  -1.172   6.281   8.364  1.4564 -0.5532 -1.0235
  275MOL0     H37087  -1.213   6.426   8.263 -2.2410 -0.2138  0.9087
  275MOL0     H37088  -1.046   6.388   8.311 -0.0286 -2.0861 -2.8996
  275MOL0     H37089  -1.632   6.211   8.687 -0.1166 -0.1418  0.4887
  275MOL0     H37090  -1.874   6.135   8.615 -0.2171 -0.4606 -0.6726
  275MOL0     H37091  -2.108   6.443   8.397  0.0870 -1.1050  0.6043
  275MOL0     H37092  -2.136   6.311   8.305  2.7558 -0.3834 -0.3657
  275MOL0     H37093  -2.249   6.356   8.582 -1.0372  1.4321 -0.3598
  275MOL0     H37094  -2.333   6.373   8.428  0.1939  1.9486 -0.2178
  275MOL0     H37095  -2.242   6.100   8.536  1.0227 -0.4651  0.0728
  275MOL0     H37096  -2.332   6.119   8.392  1.1240 -3.2754  1.8366
  275MOL0     H37097  -2.440   6.215   8.651 -2.5298 -2.0619  0.3040
  275MOL0     H37098  -2.514   6.230   8.491 -0.6978  0.1551  0.5915
  275MOL0     H37099  -2.502   6.010   8.692  3.5661  0.3504 -0.7036
  275MOL0     H37100  -2.447   5.952   8.531  0.1194  0.8921 -1.1000
  275MOL0     H37101  -2.697   6.110   8.601  0.0870 -0.2505 -0.8712
  275MOL0     H37102  -2.665   6.065   8.442 -1.9267  0.3752  0.0887
  275MOL0     H37103  -2.722   5.874   8.653  0.6470  2.7082  0.6815
  275MOL0     H37104  -2.651   5.816   8.499 -2.3164 -1.6283 -0.8265
  275MOL0     H37105  -2.876   5.788   8.442  0.4026  0.3464 -2.3984
  275MOL0     H37106  -2.830   5.940   8.375  1.2609 -2.4165 -0.5068
  275MOL0     H37107  -1.910   6.496   8.401  0.8484  1.6916  0.7792
  275MOL0     H37108  -1.678   6.551   8.432 -0.8669  0.5074  0.0205
  275MOL0     H37109  -1.345   6.549   8.755 -0.2691 -0.5290 -0.1785
  275MOL0     H37110  -1.143   6.643   8.816  0.9493  0.9632 -0.9768
  275MOL0     H37111   0.688   7.248   9.584 -1.1933  0.7257 -0.6220
  275MOL0     H37112   0.901   7.137   9.635 -0.8147  1.0144 -0.0019
  275MOL0     H37113   1.201   6.797   9.533  0.9703  0.4115  2.0314
  275MOL0     H37114   1.410   6.675   9.527  3.1426 -0.8049 -2.7789
  275MOL0     H37115   1.608   6.623   9.561  1.2998 -3.1448  0.8975
  275MOL0     H37116   1.683   6.594   9.387  1.9835 -0.3450 -0.4065
  275MOL0     H37117   1.823   6.662   9.646 -0.9137  1.7046 -0.2727
  275MOL0     H37118   1.865   6.746   9.494  0.0765 -0.2228  0.9718
  275MOL0     H37119   1.857   6.443   9.496  3.0128 -1.8195  0.0256
  275MOL0     H37120   2.004   6.532   9.552  0.1289 -1.6565 -0.9257
  275MOL0     H37121   1.977   6.661   9.327 -1.8690  0.2926 -0.4393
  275MOL0     H37122   1.871   6.533   9.280  0.5187  0.3583 -1.4136
  275MOL0     H37123   2.273   6.349   9.330  1.5800 -1.0006  5.9103
  275MOL0     H37124   1.600   7.002   9.354 -1.1312  2.5274  0.0409
  275MOL0     H37125   1.387   7.121   9.324 -2.4294 -0.4421  0.4787
  276MOL0     O37126  10.574   8.799   0.780 -0.7522  0.0683 -0.0674
  276MOL0     C37127  10.690   8.753   0.758  0.2043 -0.3429  0.4244
  276MOL0     O37128  10.720   8.656   0.664  0.4400 -0.1605  0.5299
  276MOL0     C37129  10.610   8.598   0.602 -0.5829  0.1175 -1.1470
  276MOL0     C37130  10.594   8.598   0.463 -0.3423  0.7524  0.4261
  276MOL0     C37131  10.477   8.548   0.398 -0.0747 -0.3915 -0.4074
  276MOL0     C37132  10.387   8.474   0.478 -0.6204 -0.2402  1.2630
  276MOL0     O37133  10.287   8.399   0.430 -0.2076 -0.3124 -0.2725
  276MOL0     C37134  10.196   8.468   0.344  1.2284 -0.2417 -0.0080
  276MOL0     C37135  10.066   8.494   0.429 -0.3229 -0.8793  0.9263
  276MOL0     C37136  10.073   8.539   0.575 -1.1548 -0.4618 -0.5034
  276MOL0     C37137   9.934   8.570   0.619  0.0971 -0.2188 -0.1239
  276MOL0     C37138   9.853   8.444   0.656  0.3624 -0.3225  0.7140
  276MOL0     C37139   9.709   8.481   0.664 -0.5020 -0.3957 -0.1648
  276MOL0     C37140   9.629   8.366   0.729 -0.2381 -0.1081  0.7031
  276MOL0     C37141   9.623   8.360   0.880 -0.5782  0.0391  0.1405
  276MOL0     N37142   9.576   8.227   0.921  1.0210  0.3970  0.4376
  276MOL0     C37143   9.493   8.198   1.023 -0.3924  0.2337 -0.3510
  276MOL0     C37144   9.508   8.064   1.044 -0.3053 -0.5351 -0.0771
  276MOL0     C37145   9.425   7.995   1.157  0.4371 -0.4795  1.8494
  276MOL0     C37146   9.391   8.082   1.275  0.0816  0.0932 -0.7540
  276MOL0     C37147   9.312   7.988   1.369  0.2749 -0.4754 -1.2162
  276MOL0     C37148   9.297   8.041   1.517  0.6275  0.2983  0.4928
  276MOL0     O37149   9.200   8.144   1.519 -0.0035 -0.1054 -0.3260
  276MOL0     C37150   9.062   8.108   1.519 -0.1754  0.2712 -0.3051
  276MOL0     C37151   8.986   8.187   1.440 -0.1967  0.4980  0.5239
  276MOL0     C37152   8.841   8.172   1.436 -0.4975 -0.2677  0.7341
  276MOL0     C37153   8.762   8.262   1.340  0.1564  0.2944 -0.4476
  276MOL0     C37154   8.790   8.055   1.503  0.7181 -0.4653  0.3556
  276MOL0     C37155   8.648   8.021   1.498  0.0452  0.7379  0.6022
  276MOL0     O37156   8.558   8.121   1.472  0.1953  0.1452  0.7572
  276MOL0     C37157   8.425   8.106   1.475  0.2370 -0.7344  0.2725
  276MOL0     C37158   8.349   8.211   1.536 -0.4640  0.3906 -0.7818
  276MOL0     C37159   8.211   8.217   1.520 -0.1461  0.2481  0.6799
  276MOL0     C37160   8.142   8.112   1.440 -0.1139  0.4326  0.5029
  276MOL0     O37161   8.010   8.126   1.438  0.0919  0.1789 -0.0040
  276MOL0     C37162   7.931   8.060   1.338 -0.3860 -0.0258 -0.1110
  276MOL0     C37163   7.951   8.131   1.205  0.2568  0.7275  0.2557
  276MOL0     C37164   7.863   8.260   1.196 -0.0223  0.3963 -1.3272
  276MOL0     C37165   7.818   8.280   1.055 -0.2558  0.3104 -0.1984
  276MOL0     C37166   7.928   8.324   0.955 -0.0634 -0.0879 -1.0794
  276MOL0     C37167   7.978   8.469   0.996  0.9849 -0.0322  0.0894
  276MOL0     C37168   8.078   8.517   0.899 -0.1754 -0.6311 -0.5528
  276MOL0     C37169   8.122   8.663   0.924 -0.2446 -0.5856  0.0656
  276MOL0    Cl37170   8.257   8.696   0.815 -0.5325 -0.1649 -0.2916
  276MOL0     C37171   8.218   8.009   1.381  0.6729 -0.6555 -0.2706
  276MOL0     C37172   8.359   8.004   1.403  0.3672  0.0316  0.8932
  276MOL0     O37173   8.619   7.900   1.503  0.3196 -0.0400 -0.3675
  276MOL0     C37174   8.879   7.974   1.585  0.3457 -0.1135  0.0060
  276MOL0     C37175   9.011   8.002   1.603  0.4279 -0.2738  0.6845
  276MOL0     N37176   9.593   8.011   0.949 -0.2600 -0.4567  0.1818
  276MOL0     N37177   9.625   8.113   0.872 -0.8351  0.6605 -0.3640
  276MOL0     C37178  10.406   8.455   0.611 -0.8276 -0.1715 -0.1156
  276MOL0     C37179  10.511   8.527   0.677 -0.5370 -0.3422 -1.3915
  276MOL0     C37180  10.806   8.806   0.835  0.2819  0.5490  0.4985
  276MOL0     C37181  10.804   8.926   0.903  0.6417 -0.4988 -0.0070
  276MOL0     C37182  10.910   8.964   0.985 -0.3802  0.5248 -0.6961
  276MOL0     C37183  11.018   8.873   1.006 -0.1427  0.1060  0.5333
  276MOL0     O37184  11.129   8.890   1.079  0.4722  0.6959 -0.6534
  276MOL0     C37185  11.228   8.977   1.026 -0.1411 -0.3045  0.2547
  276MOL0     C37186  11.182   9.116   1.048  0.1029 -0.6995  0.1096
  276MOL0     C37187  11.289   9.230   1.027  0.7739  0.1615 -0.9632
  276MOL0     C37188  11.293   9.277   0.885  0.4530 -0.4335 -0.1971
  276MOL0     C37189  11.380   9.396   0.873 -0.2541  0.7582  0.1625
  276MOL0     C37190  11.466   9.476   0.867 -0.1044  0.3245 -1.0901
  276MOL0     C37191  11.017   8.748   0.942 -0.4715  0.8697 -0.0247
  276MOL0     C37192  10.914   8.713   0.853 -0.4045 -0.3685  0.7080
  276MOL0     H37193  10.663   8.651   0.398 -0.5204  1.6727  0.9831
  276MOL0     H37194  10.452   8.561   0.293 -1.5881 -1.1787 -0.1630
  276MOL0     H37195  10.227   8.568   0.314 -0.7781  0.7256  0.9182
  276MOL0     H37196  10.186   8.411   0.251 -0.1676  0.7986 -0.5317
  276MOL0     H37197  10.014   8.570   0.370  1.3384  1.1850  1.9889
  276MOL0     H37198  10.004   8.404   0.427 -0.7064 -0.6135  0.0978
  276MOL0     H37199  10.129   8.468   0.638 -1.4041 -1.6938 -1.6261
  276MOL0     H37200  10.132   8.630   0.587  0.0896 -1.4640  1.5821
  276MOL0     H37201   9.945   8.625   0.713  2.5367 -1.0522  0.1423
  276MOL0     H37202   9.876   8.629   0.548 -0.9966 -1.2094 -0.0778
  276MOL0     H37203   9.864   8.367   0.580 -4.0013 -0.0747 -0.4290
  276MOL0     H37204   9.895   8.411   0.751  0.2060 -1.1811  0.4848
  276MOL0     H37205   9.696   8.578   0.713 -3.4588 -0.5219 -0.5212
  276MOL0     H37206   9.667   8.491   0.564  0.3806 -1.0142 -0.6134
  276MOL0     H37207   9.531   8.368   0.679  0.6254  2.5835 -1.1387
  276MOL0     H37208   9.685   8.277   0.698 -0.0037  1.0010 -2.4608
  276MOL0     H37209   9.555   8.434   0.924  1.1426 -0.3267  3.8445
  276MOL0     H37210   9.719   8.372   0.931 -0.4153  0.1640 -0.1939
  276MOL0     H37211   9.431   8.271   1.073  1.1082  0.9134  0.5595
  276MOL0     H37212   9.341   7.947   1.105 -0.8087  3.0483  0.3313
  276MOL0     H37213   9.495   7.920   1.195  1.1118 -0.6982  0.2956
  276MOL0     H37214   9.327   8.170   1.261  1.8777  1.4355 -0.8368
  276MOL0     H37215   9.481   8.114   1.329  0.9418  0.4874 -2.3532
  276MOL0     H37216   9.356   7.889   1.379 -2.0252 -1.3446  2.3824
  276MOL0     H37217   9.207   7.976   1.339 -0.5762  1.1960  0.7304
  276MOL0     H37218   9.393   8.083   1.546  1.3170 -0.2404 -0.9153
  276MOL0     H37219   9.260   7.962   1.584 -0.2983 -0.8366 -1.2777
  276MOL0     H37220   9.031   8.244   1.359  0.5130 -0.7360  0.0302
  276MOL0     H37221   8.725   8.347   1.398  1.1722 -1.0574  2.3679
  276MOL0     H37222   8.818   8.304   1.256  1.7297  1.4442  1.1090
  276MOL0     H37223   8.680   8.209   1.290  0.4103  0.5824 -1.1853
  276MOL0     H37224   8.415   8.280   1.589  1.6911  0.6098 -3.5176
  276MOL0     H37225   8.165   8.299   1.574  1.0746  0.4797  1.4100
  276MOL0     H37226   7.960   7.959   1.309 -0.9198  0.0394 -0.9297
  276MOL0     H37227   7.827   8.061   1.371 -0.3086 -0.1025  0.1339
  276MOL0     H37228   8.057   8.158   1.195  0.0833  1.5402  0.5069
  276MOL0     H37229   7.938   8.052   1.130  1.2591 -0.3541  1.1750
  276MOL0     H37230   7.927   8.339   1.239  1.0936 -1.8196  1.4396
  276MOL0     H37231   7.773   8.260   1.258  0.6546  2.0954 -0.2869
  276MOL0     H37232   7.770   8.188   1.023  1.3850  0.5224 -3.6194
  276MOL0     H37233   7.747   8.364   1.056 -1.5315 -0.6149 -3.3352
  276MOL0     H37234   7.884   8.343   0.857  0.9758 -0.5351 -1.6520
  276MOL0     H37235   8.007   8.248   0.943 -1.0601 -1.5342  0.8268
  276MOL0     H37236   7.894   8.538   0.979  0.3782 -0.2281  2.0947
  276MOL0     H37237   8.017   8.474   1.098  0.9518  0.7413  0.0706
  276MOL0     H37238   8.041   8.493   0.799  0.0229 -1.7842 -0.3589
  276MOL0     H37239   8.176   8.469   0.905  0.8068  1.4325  1.3706
  276MOL0     H37240   8.155   8.658   1.028  0.2072 -1.1060 -0.0951
  276MOL0     H37241   8.046   8.740   0.910 -0.8434 -0.8698  1.5781
  276MOL0     H37242   8.179   7.923   1.328 -3.2975  0.2947  0.7646
  276MOL0     H37243   8.415   7.918   1.366  0.5429 -0.8526  3.0429
  276MOL0     H37244   8.841   7.879   1.623  0.6841 -1.1443 -2.0678
  276MOL0     H37245   9.067   7.931   1.663 -0.9733 -2.5322 -0.5347
  276MOL0     H37246  10.360   8.382   0.677  0.9724 -1.6323 -0.4064
  276MOL0     H37247  10.500   8.524   0.785 -0.3237  0.8914 -1.3196
  276MOL0     H37248  10.716   8.989   0.905  2.3609  2.1703 -2.2629
  276MOL0     H37249  10.902   9.052   1.047  2.4542  0.5556 -0.2389
  276MOL0     H37250  11.329   8.967   1.067 -0.2233 -0.3095  0.4570
  276MOL0     H37251  11.237   8.964   0.918  1.0541  1.6478  0.0633
  276MOL0     H37252  11.141   9.123   1.149  1.3190  2.5290  0.4995
  276MOL0     H37253  11.104   9.140   0.974  1.1703 -2.5613 -1.7224
  276MOL0     H37254  11.385   9.189   1.061 -0.6816 -1.5426  1.4261
  276MOL0     H37255  11.263   9.312   1.093 -2.0364 -1.6269  0.3370
  276MOL0     H37256  11.191   9.303   0.853 -0.7625 -0.4185  3.2208
  276MOL0     H37257  11.342   9.206   0.818  2.3219 -1.4901  2.1575
  276MOL0     H37258  11.534   9.557   0.885 -0.8679  0.5513  1.0834
  276MOL0     H37259  11.108   8.691   0.958 -1.2327  0.0401  1.4622
  276MOL0     H37260  10.908   8.623   0.794 -3.4490 -0.7765  1.4990
  277MOL0     O37261  10.638   0.950   9.572  0.1158  0.0460 -0.5762
  277MOL0     C37262  10.643   1.032   9.481  0.4223 -0.0914 -0.4251
  277MOL0     O37263  10.538   1.080   9.404 -0.4792  0.3194 -0.1875
  277MOL0     C37264  10.409   1.071   9.446  0.5758 -0.5502  1.7805
  277MOL0     C37265  10.358   1.068   9.573  1.6301 -0.0198  0.5431
  277MOL0     C37266  10.220   1.053   9.594  0.0827 -0.0105  0.8105
  277MOL0     C37267  10.127   1.026   9.487 -0.1679  0.4732  0.7742
  277MOL0     O37268   9.996   1.015   9.507 -0.2366 -0.8781  0.2495
  277MOL0     C37269   9.936   0.880   9.474  0.1143  0.2289 -0.9521
  277MOL0     C37270   9.783   0.869   9.503 -0.2559  0.8088  0.1764
  277MOL0     C37271   9.703   0.997   9.475 -0.2439  0.0277  0.5923
  277MOL0     C37272   9.688   1.031   9.321  0.3339  0.2319 -0.4514
  277MOL0     C37273   9.646   0.916   9.235  0.1215  0.0945  0.2217
  277MOL0     C37274   9.594   0.953   9.104 -0.0728 -0.9581  0.1216
  277MOL0     C37275   9.514   0.827   9.047 -0.4312  0.4132 -1.2645
  277MOL0     C37276   9.380   0.805   9.113  0.7049  1.3138  0.2864
  277MOL0     N37277   9.285   0.727   9.035  0.5339  0.5894  0.0752
  277MOL0     C37278   9.307   0.628   8.943 -0.0404  0.0898 -0.1822
  277MOL0     C37279   9.178   0.591   8.911  0.4784 -0.1253  0.0251
  277MOL0     C37280   9.154   0.492   8.802  0.2002  0.1219 -0.3685
  277MOL0     C37281   9.017   0.422   8.802 -0.2410  0.5066  1.2923
  277MOL0     C37282   8.940   0.488   8.694  1.1519  0.4455 -0.6290
  277MOL0     C37283   8.811   0.413   8.680  0.1580 -0.2425  0.5737
  277MOL0     O37284   8.773   0.424   8.540  0.3242  0.0696  0.6735
  277MOL0     C37285   8.649   0.374   8.499  0.7866 -0.0655 -0.3595
  277MOL0     C37286   8.635   0.284   8.393 -0.2387  0.7810  1.1679
  277MOL0     C37287   8.509   0.234   8.343 -0.6713 -0.4498 -0.1457
  277MOL0     C37288   8.515   0.145   8.227 -0.7178  0.3699 -0.5507
  277MOL0     C37289   8.389   0.292   8.402  0.9377 -0.0494 -0.3443
  277MOL0     C37290   8.255   0.284   8.343 -0.3415  0.3171  0.0035
  277MOL0     O37291   8.148   0.316   8.423  0.4225  0.4814 -0.5907
  277MOL0     C37292   8.026   0.300   8.377  0.6266 -0.8243 -0.1069
  277MOL0     C37293   7.928   0.265   8.473 -0.1712 -0.4882 -0.3170
  277MOL0     C37294   7.789   0.279   8.454  0.5125  0.4010 -0.3945
  277MOL0     C37295   7.745   0.334   8.334 -0.4652 -0.0724 -0.2428
  277MOL0     O37296   7.606   0.344   8.301 -0.0472  0.7265 -0.4466
  277MOL0     C37297   7.551   0.453   8.241  0.2815  0.2393 -0.4142
  277MOL0     C37298   7.407   0.437   8.189  0.8517  0.3991  0.3368
  277MOL0     C37299   7.359   0.566   8.110 -0.0491 -0.0954  0.0176
  277MOL0     C37300   7.213   0.555   8.065  1.2276  0.2770 -0.9077
  277MOL0     C37301   7.121   0.557   8.190 -0.2046 -0.7063 -0.1091
  277MOL0     C37302   6.987   0.509   8.153  0.6038  0.2151 -0.9715
  277MOL0     C37303   6.910   0.607   8.062 -0.5403  0.0132  0.0737
  277MOL0     C37304   6.764   0.563   8.058 -0.1239 -0.4875 -0.0424
  277MOL0    Cl37305   6.674   0.583   8.217 -0.1889  0.0418  0.7020
  277MOL0     C37306   7.846   0.359   8.234  0.6952 -0.0029 -0.3861
  277MOL0     C37307   7.978   0.346   8.253 -0.3739  0.0728 -0.0305
  277MOL0     O37308   8.247   0.232   8.232  0.5464  0.0451  0.6111
  277MOL0     C37309   8.406   0.363   8.518 -0.3382  0.2472  0.1644
  277MOL0     C37310   8.531   0.410   8.567 -0.2226  0.7264 -0.2157
  277MOL0     N37311   9.084   0.661   8.978 -0.0070 -0.5219 -0.2645
  277MOL0     N37312   9.149   0.745   9.052  0.9630 -0.1589 -1.1645
  277MOL0     C37313  10.184   1.031   9.357 -0.9554  0.9393  0.2032
  277MOL0     C37314  10.316   1.057   9.340 -1.4063  0.4124 -0.4837
  277MOL0     C37315  10.783   1.093   9.456 -0.4526 -0.0178 -0.7839
  277MOL0     C37316  10.891   1.021   9.496 -0.3162  0.3417  0.4462
  277MOL0     C37317  11.021   1.076   9.487  0.5879  0.0258  0.7960
  277MOL0     C37318  11.042   1.201   9.433 -1.0479 -0.0752 -0.2212
  277MOL0     O37319  11.173   1.244   9.427  0.1844 -0.0079 -0.0370
  277MOL0     C37320  11.204   1.330   9.320 -0.6480  0.4755 -0.2427
  277MOL0     C37321  11.347   1.293   9.280 -0.0921 -0.2991 -0.5052
  277MOL0     C37322  11.431   1.416   9.242  0.2804  0.0294  1.0474
  277MOL0     C37323  11.578   1.384   9.214 -0.3057 -0.1977  0.1890
  277MOL0     C37324  11.647   1.340   9.333  0.0961 -0.1980  0.1810
  277MOL0     C37325  11.680   1.313   9.446  0.4493 -0.4733  0.0008
  277MOL0     C37326  10.934   1.269   9.386  0.4791  0.1261 -0.7785
  277MOL0     C37327  10.804   1.217   9.392 -0.4472  0.4377  0.5100
  277MOL0     H37328  10.417   1.097   9.660 -0.8244  0.3127  2.2131
  277MOL0     H37329  10.168   1.067   9.689 -2.7606 -2.9838 -0.1044
  277MOL0     H37330   9.952   0.851   9.370  1.0125 -1.7702 -0.3227
  277MOL0     H37331   9.983   0.803   9.536  2.9801  1.0440 -1.9531
  277MOL0     H37332   9.725   0.786   9.460 -2.9194  2.1926  0.9283
  277MOL0     H37333   9.780   0.852   9.611  0.3333 -2.7566 -0.2319
  277MOL0     H37334   9.599   0.985   9.507 -0.7326 -0.4677 -1.0392
  277MOL0     H37335   9.754   1.072   9.535  0.5082 -1.5114  1.9337
  277MOL0     H37336   9.608   1.105   9.307  0.1720 -0.1186 -1.5032
  277MOL0     H37337   9.775   1.085   9.283 -1.6135  2.0821 -2.5605
  277MOL0     H37338   9.730   0.847   9.228 -0.3446 -0.4548 -0.0025
  277MOL0     H37339   9.567   0.854   9.276  1.5565 -1.7179  0.3575
  277MOL0     H37340   9.529   1.041   9.101 -1.6126 -2.0093  1.1609
  277MOL0     H37341   9.678   0.971   9.036  0.8204  0.7622  1.6088
  277MOL0     H37342   9.497   0.854   8.943 -1.6927  0.8410 -0.9683
  277MOL0     H37343   9.566   0.731   9.044  0.6980  1.0440 -3.9147
  277MOL0     H37344   9.332   0.897   9.145 -1.8384  0.5581 -1.0743
  277MOL0     H37345   9.409   0.743   9.199 -0.4349  2.1802  1.3164
  277MOL0     H37346   9.407   0.605   8.907  0.5299  0.9955  0.7743
  277MOL0     H37347   9.182   0.527   8.702  1.5104 -2.0837 -0.8484
  277MOL0     H37348   9.234   0.418   8.816  1.1052  1.4018  1.7514
  277MOL0     H37349   8.970   0.438   8.899 -0.1516  2.5817  1.0323
  277MOL0     H37350   9.027   0.314   8.787  2.4978  0.5553  2.2315
  277MOL0     H37351   8.996   0.496   8.600  0.3637 -0.2839 -1.1843
  277MOL0     H37352   8.902   0.585   8.727 -2.3244  0.0799 -3.0027
  277MOL0     H37353   8.735   0.458   8.745  1.1970  1.1350  0.8796
  277MOL0     H37354   8.822   0.306   8.700 -1.5728 -0.4018  0.8527
  277MOL0     H37355   8.724   0.258   8.337 -0.4846  2.9926 -0.4172
  277MOL0     H37356   8.614   0.138   8.182 -0.2002 -1.6724  0.7507
  277MOL0     H37357   8.485   0.041   8.246 -3.1814  1.0548 -0.2761
  277MOL0     H37358   8.469   0.202   8.146  1.7058  1.8560 -0.9606
  277MOL0     H37359   7.953   0.231   8.573  0.1804 -2.5455 -1.0422
  277MOL0     H37360   7.726   0.241   8.534  1.5141 -2.9179 -1.0459
  277MOL0     H37361   7.551   0.536   8.312 -1.0393 -0.3013  0.2635
  277MOL0     H37362   7.619   0.486   8.162  2.1501  2.7441  2.0567
  277MOL0     H37363   7.400   0.357   8.115 -2.2162  1.0202 -0.1649
  277MOL0     H37364   7.347   0.417   8.278 -1.1066 -1.4168 -1.3154
  277MOL0     H37365   7.427   0.569   8.024 -0.4275  1.2522 -0.2523
  277MOL0     H37366   7.371   0.662   8.161  1.4453 -0.1896 -0.0931
  277MOL0     H37367   7.185   0.642   8.004 -0.4077  0.5876  0.2266
  277MOL0     H37368   7.194   0.462   8.012  1.4437 -0.7649  0.7655
  277MOL0     H37369   7.120   0.650   8.248 -0.7197 -2.3562  2.7318
  277MOL0     H37370   7.148   0.485   8.267  0.1151 -1.5438 -0.9831
  277MOL0     H37371   7.006   0.414   8.101  1.7394 -1.1761  1.8000
  277MOL0     H37372   6.932   0.490   8.246  0.4448 -0.9148 -1.2693
  277MOL0     H37373   6.963   0.614   7.967  1.4128  3.8999  1.2039
  277MOL0     H37374   6.919   0.708   8.105 -0.9445 -0.3757  1.1051
  277MOL0     H37375   6.747   0.459   8.029 -1.7953  0.4194 -2.6846
  277MOL0     H37376   6.707   0.629   7.992  0.8741  0.3688 -0.0683
  277MOL0     H37377   7.820   0.399   8.137 -0.8475 -1.3118 -0.5558
  277MOL0     H37378   8.051   0.383   8.181 -1.2465  0.0989 -0.9230
  277MOL0     H37379   8.317   0.401   8.566  0.6740  4.3312 -0.8259
  277MOL0     H37380   8.525   0.462   8.663  0.0784  0.8142 -0.2461
  277MOL0     H37381  10.110   1.020   9.278  0.3042  1.9599 -1.1799
  277MOL0     H37382  10.357   1.076   9.241  0.6599  1.2054  0.4559
  277MOL0     H37383  10.873   0.922   9.536 -1.1828  0.4383  0.3004
  277MOL0     H37384  11.094   1.010   9.532  1.5803 -0.7709 -1.7761
  277MOL0     H37385  11.139   1.307   9.235 -0.3970  1.8738 -0.8335
  277MOL0     H37386  11.187   1.433   9.352 -5.1480 -0.2524  0.4543
  277MOL0     H37387  11.346   1.229   9.191 -1.8487 -0.6856 -0.2502
  277MOL0     H37388  11.395   1.238   9.361  0.4069 -0.3518 -0.8308
  277MOL0     H37389  11.426   1.491   9.321 -0.5232 -0.1673  1.1990
  277MOL0     H37390  11.388   1.463   9.153 -0.2539 -2.4585 -0.0905
  277MOL0     H37391  11.625   1.471   9.168  0.2166 -0.7093 -0.2662
  277MOL0     H37392  11.583   1.302   9.142 -1.5516 -1.9356  1.9886
  277MOL0     H37393  11.709   1.292   9.547  0.2728 -3.4190 -0.4650
  277MOL0     H37394  10.962   1.370   9.355 -0.6455  0.6825 -0.0691
  277MOL0     H37395  10.722   1.283   9.365 -1.0313 -1.1963 -2.2009
  278MOL0     O37396   2.077   6.600   3.591  0.2311 -0.3828  0.0850
  278MOL0     C37397   2.179   6.540   3.561 -0.1550 -0.0857 -0.5167
  278MOL0     O37398   2.204   6.403   3.576  1.0184  0.4837 -0.4188
  278MOL0     C37399   2.102   6.319   3.627  0.3447 -0.0337  0.4484
  278MOL0     C37400   1.973   6.327   3.576 -0.9982  0.0612  0.6387
  278MOL0     C37401   1.880   6.230   3.625  0.0453 -0.3264  0.4309
  278MOL0     C37402   1.909   6.135   3.727  0.2382 -0.4510 -0.1729
  278MOL0     O37403   1.823   6.043   3.776  0.6703 -0.5266 -0.5229
  278MOL0     C37404   1.691   6.008   3.720 -0.3176 -0.6105  0.4854
  278MOL0     C37405   1.592   6.031   3.837  0.3159 -0.0372 -0.0907
  278MOL0     C37406   1.444   6.005   3.792  0.6038 -0.1046  0.6674
  278MOL0     C37407   1.352   6.019   3.921 -0.1322 -0.0718 -0.0945
  278MOL0     C37408   1.209   6.052   3.885 -0.1419 -1.1669  0.2315
  278MOL0     C37409   1.129   6.080   4.016 -0.3988  0.5444  0.0167
  278MOL0     C37410   0.982   6.102   3.985  0.3844  0.0046  0.0173
  278MOL0     C37411   0.909   5.988   3.907  0.0564  0.4040  0.2281
  278MOL0     N37412   0.785   6.036   3.843  0.0948  0.0217 -0.6274
  278MOL0     C37413   0.688   6.113   3.908  0.3468 -0.5991  0.5271
  278MOL0     C37414   0.598   6.141   3.812  0.3873 -0.0347 -0.4194
  278MOL0     C37415   0.478   6.229   3.834  0.3736 -0.5885  0.1562
  278MOL0     C37416   0.504   6.370   3.887  0.7400  0.4181 -0.2606
  278MOL0     C37417   0.383   6.459   3.917  0.0398 -0.0178 -0.1623
  278MOL0     C37418   0.275   6.399   4.015  0.4019 -0.0411 -0.1946
  278MOL0     O37419   0.183   6.321   3.929 -0.5541  0.1713 -0.0545
  278MOL0     C37420   0.067   6.375   3.875 -0.2169  0.5152  0.5453
  278MOL0     C37421  -0.016   6.299   3.790 -0.1775 -1.2532  0.6176
  278MOL0     C37422  -0.135   6.345   3.735  0.0790  0.8646  0.0887
  278MOL0     C37423  -0.227   6.239   3.666  0.5166 -0.2789  0.4219
  278MOL0     C37424  -0.173   6.480   3.744  0.4302  0.1721  0.0383
  278MOL0     C37425  -0.302   6.535   3.686 -0.5182 -0.5039  0.7219
  278MOL0     O37426  -0.359   6.459   3.590  0.8595 -0.2261  0.0333
  278MOL0     C37427  -0.475   6.484   3.527 -0.0877  0.0976  0.2153
  278MOL0     C37428  -0.558   6.588   3.559 -0.0272 -0.9030  0.7500
  278MOL0     C37429  -0.682   6.602   3.485 -0.0722  0.3306 -0.4082
  278MOL0     C37430  -0.720   6.509   3.380 -0.1356 -0.2622  0.7801
  278MOL0     O37431  -0.830   6.530   3.299  0.7743  0.0940 -0.1396
  278MOL0     C37432  -0.831   6.668   3.251  1.4616 -0.3299 -0.1300
  278MOL0     C37433  -0.903   6.676   3.117  0.5676 -0.2358  0.0339
  278MOL0     C37434  -0.844   6.597   3.004 -0.1022  0.5009  0.3081
  278MOL0     C37435  -0.869   6.447   3.005  0.4800 -0.0645 -0.8369
  278MOL0     C37436  -0.884   6.406   2.860  0.3195  0.7337 -0.6830
  278MOL0     C37437  -0.935   6.261   2.857  0.2244 -0.6842  0.3746
  278MOL0     C37438  -0.835   6.152   2.849  0.4067  0.5266  0.0727
  278MOL0     C37439  -0.870   6.039   2.950 -0.8842  0.4420 -0.0988
  278MOL0    Cl37440  -1.019   5.955   2.894  0.3671 -0.0986 -0.0262
  278MOL0     C37441  -0.637   6.409   3.348 -0.1636 -0.0050  0.7831
  278MOL0     C37442  -0.514   6.399   3.424 -0.1651 -0.6449 -0.4007
  278MOL0     O37443  -0.348   6.629   3.742  0.6029  0.5515 -1.0630
  278MOL0     C37444  -0.085   6.559   3.830 -0.9363  0.1683 -0.0122
  278MOL0     C37445   0.036   6.511   3.886  0.9288  1.0497  0.0097
  278MOL0     N37446   0.653   6.086   3.688 -0.0081  0.1096 -0.9687
  278MOL0     N37447   0.765   6.025   3.713  0.3721  1.2563 -0.3694
  278MOL0     C37448   2.042   6.133   3.772  0.3629  0.0034  0.6521
  278MOL0     C37449   2.138   6.215   3.707  0.1834 -0.9182 -0.2129
  278MOL0     C37450   2.292   6.638   3.538  1.0019  0.5144  0.2886
  278MOL0     C37451   2.421   6.595   3.530 -0.8255 -0.3052 -0.0758
  278MOL0     C37452   2.532   6.673   3.491 -0.0819 -0.2676  0.5288
  278MOL0     C37453   2.505   6.807   3.460  0.4773  0.8207  0.4576
  278MOL0     O37454   2.611   6.883   3.418 -0.1863  0.1869 -0.2828
  278MOL0     C37455   2.622   7.023   3.461  0.1014 -0.0450 -0.0676
  278MOL0     C37456   2.649   7.039   3.607 -0.1032 -0.6555 -1.2887
  278MOL0     C37457   2.782   6.987   3.648 -0.2520 -0.3460 -1.0196
  278MOL0     C37458   2.845   7.054   3.773  0.6941  0.8329 -0.1684
  278MOL0     C37459   2.977   6.991   3.799 -0.1974  0.2482  0.5436
  278MOL0     C37460   3.084   6.934   3.821  0.1468  0.5295 -0.0740
  278MOL0     C37461   2.378   6.857   3.473 -0.5274 -0.3314 -1.0046
  278MOL0     C37462   2.269   6.775   3.506  0.2003 -0.6503  0.1490
  278MOL0     H37463   1.954   6.395   3.493  1.1338  1.5972  1.3258
  278MOL0     H37464   1.783   6.241   3.576 -0.4140  0.3303  1.4500
  278MOL0     H37465   1.666   6.061   3.628  0.2923 -3.9255 -1.7926
  278MOL0     H37466   1.689   5.899   3.707  1.6555 -0.4768 -1.3401
  278MOL0     H37467   1.617   5.969   3.923  0.9357  0.2504 -0.0494
  278MOL0     H37468   1.601   6.138   3.862  1.9608 -0.2214  0.2528
  278MOL0     H37469   1.420   6.074   3.710  1.8252 -0.4517 -0.0032
  278MOL0     H37470   1.434   5.903   3.755  1.2464 -0.5505  1.6912
  278MOL0     H37471   1.355   5.919   3.967 -0.6311 -0.7296 -1.4322
  278MOL0     H37472   1.379   6.096   3.993  0.5929 -3.4010  3.5628
  278MOL0     H37473   1.198   6.143   3.825 -2.1601 -1.6898 -0.2907
  278MOL0     H37474   1.165   5.964   3.838 -2.5835 -0.8955  1.8362
  278MOL0     H37475   1.140   5.993   4.082  1.8169  0.2329 -0.6732
  278MOL0     H37476   1.162   6.175   4.060 -3.4255  1.2275  1.0682
  278MOL0     H37477   0.939   6.121   4.083  1.7607  0.0628  0.6267
  278MOL0     H37478   0.973   6.193   3.925  0.0753 -0.4912 -0.7024
  278MOL0     H37479   0.887   5.910   3.980  3.5428 -0.0301  0.9925
  278MOL0     H37480   0.966   5.960   3.818 -2.3376 -0.9961 -0.9562
  278MOL0     H37481   0.687   6.141   4.013  1.0432  2.6497 -0.2111
  278MOL0     H37482   0.415   6.232   3.744  0.2093 -2.6446  0.1489
  278MOL0     H37483   0.417   6.175   3.908  1.9020 -0.7159  1.3664
  278MOL0     H37484   0.577   6.418   3.821  3.1336 -3.5612 -0.8338
  278MOL0     H37485   0.555   6.350   3.982 -0.1698  2.7445  0.7705
  278MOL0     H37486   0.326   6.498   3.832 -0.4233  0.4476  0.3499
  278MOL0     H37487   0.414   6.545   3.977 -1.5816 -0.2918  1.1439
  278MOL0     H37488   0.225   6.476   4.075 -0.1089  1.2451 -2.1568
  278MOL0     H37489   0.320   6.338   4.093  1.0547  0.2706 -0.3240
  278MOL0     H37490  -0.000   6.192   3.792 -0.0269 -1.2357  0.4536
  278MOL0     H37491  -0.323   6.228   3.717  0.7152 -0.5583  0.7400
  278MOL0     H37492  -0.235   6.253   3.557  1.4487 -4.7623 -0.4354
  278MOL0     H37493  -0.172   6.145   3.675  5.1973  2.0354 -0.8298
  278MOL0     H37494  -0.544   6.665   3.634 -2.8155  1.4896 -0.9887
  278MOL0     H37495  -0.759   6.673   3.513 -2.4827 -1.5437 -1.8799
  278MOL0     H37496  -0.883   6.730   3.324 -0.1598 -0.3522 -1.2171
  278MOL0     H37497  -0.731   6.711   3.245  1.9079 -1.1520  0.9606
  278MOL0     H37498  -1.006   6.641   3.127  1.0549 -1.0639  3.1264
  278MOL0     H37499  -0.909   6.782   3.089 -0.6955 -0.4841 -0.7380
  278MOL0     H37500  -0.736   6.601   2.987 -0.0885  0.8819  0.4851
  278MOL0     H37501  -0.892   6.639   2.915 -0.9101 -1.6723 -0.3702
  278MOL0     H37502  -0.792   6.391   3.059 -1.7418 -0.5563  2.1069
  278MOL0     H37503  -0.965   6.426   3.054 -0.8237  2.3694 -2.1372
  278MOL0     H37504  -0.782   6.414   2.821  1.1020  1.3975  1.3900
  278MOL0     H37505  -0.958   6.469   2.810 -0.8318 -0.2850 -0.3201
  278MOL0     H37506  -1.005   6.247   2.940 -0.4203  0.1779 -0.0058
  278MOL0     H37507  -0.989   6.269   2.763  2.9292  2.3507 -1.1011
  278MOL0     H37508  -0.745   6.198   2.891  1.3463 -1.1635  0.0225
  278MOL0     H37509  -0.822   6.108   2.749 -1.1597  0.1692 -0.0022
  278MOL0     H37510  -0.912   6.077   3.044 -2.7210 -1.6286  0.0174
  278MOL0     H37511  -0.786   5.969   2.951 -2.1002 -1.1120 -1.4908
  278MOL0     H37512  -0.677   6.341   3.273 -0.4528  1.4939 -0.4698
  278MOL0     H37513  -0.460   6.306   3.411  1.3243 -0.0513  1.0768
  278MOL0     H37514  -0.115   6.663   3.832 -1.1196  0.1158  0.0224
  278MOL0     H37515   0.103   6.579   3.937  2.0366 -1.5610  2.2941
  278MOL0     H37516   2.071   6.057   3.843 -1.5740 -3.0141 -1.5174
  278MOL0     H37517   2.242   6.218   3.738  0.4195 -0.3324 -1.0491
  278MOL0     H37518   2.436   6.489   3.548 -1.4119 -0.4129 -0.1848
  278MOL0     H37519   2.630   6.632   3.474  0.2130  0.8066 -0.5161
  278MOL0     H37520   2.713   7.055   3.410 -0.1305  1.3304  0.3310
  278MOL0     H37521   2.542   7.086   3.420  0.6264  0.6815 -0.0040
  278MOL0     H37522   2.568   6.993   3.664 -2.6440  3.8160 -0.8173
  278MOL0     H37523   2.636   7.142   3.641  0.7921 -1.5619  2.1494
  278MOL0     H37524   2.860   7.001   3.572  1.5607  0.7744  0.9272
  278MOL0     H37525   2.776   6.879   3.664 -0.5817 -0.5754 -2.5491
  278MOL0     H37526   2.772   7.034   3.852  0.8578  2.5143  0.4417
  278MOL0     H37527   2.849   7.163   3.767 -2.2499  0.9342 -2.1844
  278MOL0     H37528   3.180   6.894   3.844 -0.7579 -0.7913  1.6614
  278MOL0     H37529   2.366   6.954   3.426 -1.5792  0.3396  0.5597
  278MOL0     H37530   2.172   6.819   3.522  1.2133  1.6298  0.4096
  279MOL0     O37531   8.392   5.716  10.310 -0.1693 -0.9049  0.5010
  279MOL0     C37532   8.365   5.773  10.203  0.4273  0.8934  0.6239
  279MOL0     O37533   8.446   5.815  10.102  0.1643 -0.2241  0.0008
  279MOL0     C37534   8.586   5.803  10.117 -0.7081  0.0715  0.3995
  279MOL0     C37535   8.657   5.703  10.185 -0.2699 -0.3660 -0.2846
  279MOL0     C37536   8.798   5.708  10.201  1.4231 -0.0244  0.3057
  279MOL0     C37537   8.879   5.792  10.127  0.9773  0.5524  0.3760
  279MOL0     O37538   9.017   5.777  10.121 -0.4554  0.7352 -0.4481
  279MOL0     C37539   9.087   5.900  10.135 -0.2738 -0.3790 -0.4037
  279MOL0     C37540   9.224   5.852  10.181  0.8872  0.7305  0.2213
  279MOL0     C37541   9.298   5.762  10.078  0.0788  0.7979  0.6863
  279MOL0     C37542   9.447   5.741  10.083 -0.1032  0.1793  0.1959
  279MOL0     C37543   9.498   5.609  10.026  0.2988  0.2419 -0.2714
  279MOL0     C37544   9.655   5.591  10.045 -0.9822  0.3858 -0.0956
  279MOL0     C37545   9.707   5.466   9.973 -1.4980  0.2429  0.4654
  279MOL0     C37546   9.861   5.494   9.940 -0.2909 -0.1235  0.5676
  279MOL0     N37547   9.938   5.559  10.045 -0.0840 -0.1670  0.4850
  279MOL0     C37548   9.950   5.515  10.174  0.0057  0.8557 -0.5437
  279MOL0     C37549  10.038   5.605  10.231  0.0043  1.2670  0.4590
  279MOL0     C37550  10.087   5.585  10.365 -0.7515  0.6486  0.3886
  279MOL0     C37551  10.067   5.711  10.452  0.1707  0.1373  0.4290
  279MOL0     C37552  10.190   5.811  10.455  0.4094  1.0605  0.6432
  279MOL0     C37553  10.145   5.946  10.520  0.5994  0.2376  0.1814
  279MOL0     O37554  10.116   5.930  10.658 -0.9401  0.0258 -0.0408
  279MOL0     C37555  10.065   6.047  10.721 -0.5585 -1.0453  0.1878
  279MOL0     C37556   9.990   6.147  10.662 -0.3931 -0.3627  0.8447
  279MOL0     C37557   9.956   6.269  10.734 -0.0773  1.0293  0.4788
  279MOL0     C37558   9.876   6.366  10.654 -0.0274 -0.3966  0.5178
  279MOL0     C37559   9.981   6.278  10.870  0.0470  0.8520  0.0032
  279MOL0     C37560   9.944   6.392  10.957 -0.5848  0.0949  0.6089
  279MOL0     O37561   9.936   6.352  11.088 -0.4144 -0.2813  0.4134
  279MOL0     C37562   9.871   6.425  11.183 -0.6047 -0.6786  0.0502
  279MOL0     C37563   9.743   6.474  11.170 -0.0358 -0.2066  0.2395
  279MOL0     C37564   9.690   6.546  11.284  0.2133 -0.1888 -0.9895
  279MOL0     C37565   9.755   6.568  11.411  0.3829  0.4775 -0.8605
  279MOL0     O37566   9.689   6.641  11.496 -0.1219  0.6553 -0.3952
  279MOL0     C37567   9.748   6.677  11.623 -0.0864 -1.0587 -1.1949
  279MOL0     C37568   9.814   6.817  11.600  0.4864 -0.1734 -0.6694
  279MOL0     C37569   9.880   6.880  11.719  0.1467 -0.9572 -0.0403
  279MOL0     C37570   9.823   6.874  11.863  0.0890  0.6322 -0.3442
  279MOL0     C37571   9.680   6.932  11.864 -0.9518  0.0826 -1.1068
  279MOL0     C37572   9.627   6.956  12.003  0.2679  0.1454 -0.4637
  279MOL0     C37573   9.699   7.043  12.094 -0.1712 -0.2649  0.3605
  279MOL0     C37574   9.622   7.064  12.219  0.5560  0.6595  0.1221
  279MOL0    Cl37575   9.664   7.218  12.285  0.0479 -0.0571  0.3135
  279MOL0     C37576   9.887   6.524  11.416  0.2561  0.4846  0.5542
  279MOL0     C37577   9.941   6.453  11.306  0.4339  1.2776  0.2996
  279MOL0     O37578   9.914   6.504  10.920 -0.2242 -0.5770 -0.6865
  279MOL0     C37579  10.052   6.171  10.936 -0.3858  0.3700  0.7380
  279MOL0     C37580  10.085   6.059  10.858  0.2445  0.0345 -0.4027
  279MOL0     N37581  10.084   5.692  10.134  0.3982  0.8558 -0.6477
  279MOL0     N37582  10.028   5.655  10.024  0.0574 -1.1093  1.1293
  279MOL0     C37583   8.810   5.887  10.051  0.8361  0.6302  0.5952
  279MOL0     C37584   8.668   5.890  10.043 -0.0336  0.4920 -0.3283
  279MOL0     C37585   8.227   5.793  10.182  0.5466 -0.2067 -0.4061
  279MOL0     C37586   8.180   5.901  10.105 -0.0299 -0.5569 -0.2387
  279MOL0     C37587   8.044   5.920  10.088  0.7590  0.4093 -0.6531
  279MOL0     C37588   7.949   5.838  10.145  0.8701  0.3643  0.0995
  279MOL0     O37589   7.814   5.867  10.127  0.0902 -0.4228  0.2405
  279MOL0     C37590   7.724   5.844  10.236  1.0268  0.1683  0.1819
  279MOL0     C37591   7.571   5.881  10.207  0.5243 -0.4920  0.3363
  279MOL0     C37592   7.512   5.813  10.079 -0.0399  0.8342  0.4947
  279MOL0     C37593   7.360   5.848  10.048 -0.1510 -0.1187  0.1588
  279MOL0     C37594   7.281   5.835  10.169  0.7398 -0.6668 -0.3496
  279MOL0     C37595   7.219   5.823  10.275 -0.0983 -0.4710 -0.4115
  279MOL0     C37596   7.991   5.722  10.217  1.1051 -0.2707  0.0971
  279MOL0     C37597   8.130   5.701  10.235  1.3220 -0.0253  1.1797
  279MOL0     H37598   8.599   5.633  10.245 -1.2447  2.6784  2.6519
  279MOL0     H37599   8.853   5.633  10.259 -0.0913 -2.8297 -1.6368
  279MOL0     H37600   9.106   5.940  10.035 -0.0885 -1.1615 -0.6908
  279MOL0     H37601   9.035   5.974  10.196 -0.5380  0.4551 -1.6019
  279MOL0     H37602   9.282   5.942  10.205  3.0396 -0.4327 -0.3539
  279MOL0     H37603   9.224   5.806  10.280  3.0546  0.1903  0.0274
  279MOL0     H37604   9.256   5.661  10.071 -1.9794  1.3815  3.0912
  279MOL0     H37605   9.274   5.792   9.976  0.5350 -3.1413 -0.7764
  279MOL0     H37606   9.510   5.821  10.044  1.9048 -0.3256  2.2258
  279MOL0     H37607   9.450   5.747  10.192 -5.0795 -0.1938  0.6192
  279MOL0     H37608   9.450   5.525  10.077 -1.8555  0.1902 -2.1840
  279MOL0     H37609   9.473   5.605   9.919  1.0104  1.1352 -0.4824
  279MOL0     H37610   9.697   5.685  10.009  1.1262 -0.1812  0.6866
  279MOL0     H37611   9.682   5.585  10.151  1.3664 -6.2561 -0.6059
  279MOL0     H37612   9.702   5.383  10.044 -2.1092  1.4447  1.8850
  279MOL0     H37613   9.664   5.462   9.873  0.9870  3.0674 -0.8677
  279MOL0     H37614   9.864   5.550   9.846  0.1979 -0.9242  0.0947
  279MOL0     H37615   9.913   5.399   9.923 -2.2051 -1.0729 -0.3037
  279MOL0     H37616   9.898   5.432  10.221 -0.5557  0.3536 -2.0105
  279MOL0     H37617  10.023   5.512  10.415  1.4954 -1.2011  0.7490
  279MOL0     H37618  10.188   5.543  10.362 -0.3049  1.6247  1.3273
  279MOL0     H37619  10.048   5.691  10.558  1.0026  0.9660  0.7507
  279MOL0     H37620   9.975   5.764  10.423  0.9304  2.5892  2.1325
  279MOL0     H37621  10.217   5.817  10.349  0.0575  1.0569  0.5492
  279MOL0     H37622  10.279   5.765  10.496  1.8411  1.7508 -1.4996
  279MOL0     H37623  10.058   5.970  10.458  1.3114 -2.4557 -2.0879
  279MOL0     H37624  10.222   6.020  10.496 -0.3683  1.5667  1.0759
  279MOL0     H37625   9.961   6.126  10.560  2.3958 -0.1220 -0.0924
  279MOL0     H37626   9.875   6.332  10.550 -0.6136  1.2282 -0.0357
  279MOL0     H37627   9.778   6.363  10.703 -0.1554 -1.7853  0.2095
  279MOL0     H37628   9.916   6.467  10.666  2.1726 -1.3637  2.2121
  279MOL0     H37629   9.684   6.462  11.080 -1.4250  1.4896  0.8659
  279MOL0     H37630   9.589   6.585  11.272 -0.7234 -1.8821  0.8661
  279MOL0     H37631   9.667   6.681  11.696 -0.2240  0.2964 -1.3933
  279MOL0     H37632   9.825   6.607  11.655  0.4133 -1.3437 -2.9235
  279MOL0     H37633   9.886   6.807  11.518  0.3033  2.8376 -1.3129
  279MOL0     H37634   9.736   6.886  11.566  0.8629 -0.0607 -1.3246
  279MOL0     H37635   9.902   6.987  11.709  0.3650 -0.9604  0.3803
  279MOL0     H37636   9.978   6.833  11.723 -0.7422 -3.0056 -0.7297
  279MOL0     H37637   9.818   6.769  11.891 -0.7487  0.7176 -0.1331
  279MOL0     H37638   9.875   6.936  11.937 -2.9486 -0.2676  2.7778
  279MOL0     H37639   9.624   6.855  11.810 -2.3546  0.5005 -0.2956
  279MOL0     H37640   9.671   7.022  11.802  1.9392  1.2275 -0.0630
  279MOL0     H37641   9.524   6.993  11.991 -0.8759 -2.5101  0.3842
  279MOL0     H37642   9.624   6.857  12.049  0.3031 -0.3336 -1.4559
  279MOL0     H37643   9.721   7.138  12.046  1.2293 -1.6453 -1.9290
  279MOL0     H37644   9.791   6.995  12.129  1.6496  3.3679  0.9950
  279MOL0     H37645   9.634   6.972  12.277 -1.9468 -1.4127 -2.3325
  279MOL0     H37646   9.515   7.074  12.198  0.4558  1.3573  0.9208
  279MOL0     H37647   9.952   6.542  11.501  2.5881  2.7839 -1.5298
  279MOL0     H37648  10.036   6.400  11.315 -1.3351 -1.9696  1.4630
  279MOL0     H37649  10.103   6.161  11.031  2.2507 -2.2111 -0.7698
  279MOL0     H37650  10.129   5.975  10.910 -1.4824 -0.8439 -0.2928
  279MOL0     H37651   8.866   5.954   9.986  0.7418  0.0674 -0.0785
  279MOL0     H37652   8.612   5.967   9.991  0.1278  0.6985 -0.1966
  279MOL0     H37653   8.257   5.970  10.072  0.6367 -0.1162  2.0630
  279MOL0     H37654   8.002   5.999  10.027  0.8116 -0.2310 -1.5316
  279MOL0     H37655   7.738   5.742  10.271 -1.3105 -0.4026 -0.3630
  279MOL0     H37656   7.754   5.902  10.324  1.6275  0.1548 -0.0127
  279MOL0     H37657   7.549   5.988  10.207 -1.8891 -0.8173 -3.0326
  279MOL0     H37658   7.506   5.843  10.286  0.6010  0.5347  0.9112
  279MOL0     H37659   7.521   5.706  10.099 -0.0497  0.8818  0.7574
  279MOL0     H37660   7.568   5.849   9.993  0.5523  1.1390  1.0000
  279MOL0     H37661   7.315   5.777   9.977 -0.4679  1.1705 -0.9719
  279MOL0     H37662   7.352   5.952  10.015 -0.6177 -0.0091  0.5967
  279MOL0     H37663   7.179   5.816  10.374 -1.5266  2.2258 -0.7093
  279MOL0     H37664   7.919   5.661  10.271  1.8223  0.5180  2.0541
  279MOL0     H37665   8.174   5.615  10.285 -0.5471 -0.7299  1.6831
  280MOL0     O37666   2.391   7.532   8.281 -0.0543 -0.6893  0.0395
  280MOL0     C37667   2.371   7.555   8.157  0.0905  0.5431  0.0933
  280MOL0     O37668   2.252   7.574   8.098 -0.0727 -0.1951  0.5080
  280MOL0     C37669   2.148   7.611   8.179 -0.2954  1.0583  0.3407
  280MOL0     C37670   2.085   7.526   8.279  0.0343 -0.3479 -0.2179
  280MOL0     C37671   1.973   7.567   8.347 -1.2489 -0.7200  0.8833
  280MOL0     C37672   1.908   7.683   8.318  0.3826  0.8902  0.0621
  280MOL0     O37673   1.788   7.717   8.373  0.5649 -0.2732 -0.3236
  280MOL0     C37674   1.716   7.622   8.454  1.1757  0.1623 -0.2796
  280MOL0     C37675   1.589   7.682   8.507  0.2892  0.5627  0.6562
  280MOL0     C37676   1.483   7.727   8.398  0.8681 -0.3962 -0.4350
  280MOL0     C37677   1.427   7.866   8.440  0.0506 -0.9381 -0.1613
  280MOL0     C37678   1.350   7.913   8.313  0.3021 -0.5072 -0.5410
  280MOL0     C37679   1.443   7.971   8.206 -0.5264 -0.1701  0.0762
  280MOL0     C37680   1.369   7.992   8.085  0.0616 -0.1675  0.3112
  280MOL0     C37681   1.261   8.101   8.116  0.3231  0.9491 -0.9049
  280MOL0     N37682   1.224   8.197   8.003 -0.1225  0.1482 -0.2903
  280MOL0     C37683   1.318   8.256   7.916 -0.6065 -0.3518 -0.7702
  280MOL0     C37684   1.238   8.337   7.843 -0.2844 -0.7851  0.3397
  280MOL0     C37685   1.289   8.408   7.716 -0.9869 -0.4613 -0.0306
  280MOL0     C37686   1.346   8.549   7.739 -0.3510 -0.4125 -0.0378
  280MOL0     C37687   1.234   8.650   7.792  0.1920  0.0775  0.0313
  280MOL0     C37688   1.115   8.670   7.701 -0.2196 -0.3723 -0.6906
  280MOL0     O37689   1.036   8.545   7.687  0.1075  0.4552 -0.0102
  280MOL0     C37690   0.901   8.557   7.670 -0.7401  0.2174  0.1878
  280MOL0     C37691   0.845   8.577   7.540  0.1988 -0.3102  0.2315
  280MOL0     C37692   0.704   8.610   7.523  0.3948  1.4000 -0.4563
  280MOL0     C37693   0.669   8.649   7.384  1.0759  0.0193  0.2152
  280MOL0     C37694   0.620   8.596   7.632 -0.1441  0.6804  0.3826
  280MOL0     C37695   0.470   8.608   7.624 -0.1751 -0.1310  0.4919
  280MOL0     O37696   0.421   8.695   7.529 -0.3294 -0.1127  0.3837
  280MOL0     C37697   0.284   8.688   7.493  0.3786 -0.1047  0.0674
  280MOL0     C37698   0.187   8.758   7.560  0.4211 -0.0245 -0.1428
  280MOL0     C37699   0.055   8.760   7.525  0.3378 -0.0166 -0.1663
  280MOL0     C37700   0.019   8.691   7.414 -1.3347 -0.4512 -0.1395
  280MOL0     O37701  -0.108   8.702   7.368 -0.2833  0.4950  0.5386
  280MOL0     C37702  -0.189   8.593   7.421  0.7210 -0.0519  0.6929
  280MOL0     C37703  -0.259   8.613   7.552  0.5067 -0.2121 -0.1859
  280MOL0     C37704  -0.350   8.740   7.550  0.5571 -0.7843 -0.0167
  280MOL0     C37705  -0.474   8.726   7.467  0.5253  0.0682 -0.0491
  280MOL0     C37706  -0.549   8.857   7.468 -0.1452  0.4154 -0.0657
  280MOL0     C37707  -0.698   8.841   7.420  0.0413 -0.7918 -0.4983
  280MOL0     C37708  -0.813   8.772   7.502 -0.1611  0.3381 -0.2266
  280MOL0     C37709  -0.958   8.827   7.469  0.1434 -0.2846 -0.0599
  280MOL0    Cl37710  -1.031   8.750   7.322  0.2285  0.4356 -0.1209
  280MOL0     C37711   0.114   8.619   7.337 -0.3020 -0.1311 -0.4325
  280MOL0     C37712   0.253   8.624   7.369 -0.2470 -0.0655 -0.5128
  280MOL0     O37713   0.400   8.533   7.693 -0.0488 -0.2825 -0.4644
  280MOL0     C37714   0.679   8.561   7.752 -0.0159  0.3611 -0.6545
  280MOL0     C37715   0.812   8.550   7.779 -0.3823  0.2339 -0.6589
  280MOL0     N37716   1.108   8.335   7.890 -0.0368 -0.6073  0.2359
  280MOL0     N37717   1.098   8.251   7.983  0.7096 -0.0292 -0.5471
  280MOL0     C37718   1.972   7.766   8.224  0.2228 -0.4026 -0.1887
  280MOL0     C37719   2.091   7.731   8.157  0.5702 -0.1075  0.5751
  280MOL0     C37720   2.492   7.542   8.068 -0.5018  0.7137 -0.6939
  280MOL0     C37721   2.492   7.499   7.931 -0.2011  0.0677  0.7770
  280MOL0     C37722   2.619   7.476   7.866  0.1682 -0.1058 -0.2060
  280MOL0     C37723   2.740   7.499   7.927 -0.0238 -0.8191  0.4639
  280MOL0     O37724   2.862   7.485   7.876  0.5217  0.1583 -0.7036
  280MOL0     C37725   2.887   7.459   7.737 -0.3923  1.1756  0.7689
  280MOL0     C37726   2.866   7.581   7.662 -0.3629  0.6238  0.2413
  280MOL0     C37727   2.887   7.584   7.508  0.4046 -0.4663  0.2112
  280MOL0     C37728   2.760   7.519   7.436  0.1152 -0.4500 -0.3160
  280MOL0     C37729   2.645   7.604   7.441  0.5610 -0.7368  0.9477
  280MOL0     C37730   2.549   7.680   7.432 -0.1655 -0.0669  0.5994
  280MOL0     C37731   2.731   7.548   8.057  0.7951  0.0503  0.3745
  280MOL0     C37732   2.612   7.564   8.132  0.5371  0.1980 -0.4799
  280MOL0     H37733   2.125   7.426   8.297 -0.9397 -0.4922  1.2923
  280MOL0     H37734   1.931   7.503   8.424 -1.3197 -1.0040  0.6083
  280MOL0     H37735   1.689   7.530   8.401 -1.7657 -0.4870  2.0865
  280MOL0     H37736   1.770   7.587   8.543  0.4908 -0.2538 -0.0163
  280MOL0     H37737   1.548   7.612   8.581  3.3353 -0.7691  1.2450
  280MOL0     H37738   1.627   7.769   8.560 -0.7333  2.8693 -2.1022
  280MOL0     H37739   1.523   7.726   8.296  1.0439  1.7586 -0.4422
  280MOL0     H37740   1.387   7.675   8.390  0.3020  0.5831 -0.1786
  280MOL0     H37741   1.363   7.872   8.528 -0.1566  0.5822 -0.3995
  280MOL0     H37742   1.513   7.930   8.463 -0.8737  0.5113 -0.6454
  280MOL0     H37743   1.279   7.840   8.274  0.2876 -1.4660  1.1788
  280MOL0     H37744   1.288   7.991   8.358  3.9830  1.4520  1.5809
  280MOL0     H37745   1.493   8.061   8.243 -0.7868  1.3936 -3.0668
  280MOL0     H37746   1.521   7.898   8.182 -0.4110 -0.2472  0.6527
  280MOL0     H37747   1.442   8.042   8.020 -0.6082  2.1692  1.2713
  280MOL0     H37748   1.323   7.899   8.052 -0.9928  0.1333  0.9004
  280MOL0     H37749   1.294   8.176   8.187  0.5903  0.2302 -0.2582
  280MOL0     H37750   1.170   8.050   8.151  1.4899 -0.0707  0.7557
  280MOL0     H37751   1.422   8.231   7.899  0.2727  2.2285  0.2577
  280MOL0     H37752   1.371   8.344   7.683 -1.0045 -0.8506  0.6676
  280MOL0     H37753   1.222   8.406   7.629  0.0838  0.9260 -0.9400
  280MOL0     H37754   1.394   8.584   7.647 -0.6826 -2.7129 -1.1795
  280MOL0     H37755   1.422   8.539   7.817 -0.3945 -0.0845  0.0482
  280MOL0     H37756   1.290   8.742   7.811 -1.5300  1.0001  0.8343
  280MOL0     H37757   1.196   8.632   7.893  3.0435 -0.6103  1.0684
  280MOL0     H37758   1.145   8.694   7.599 -0.9832 -1.4993 -1.2035
  280MOL0     H37759   1.050   8.749   7.740 -0.3409 -0.0652 -1.4950
  280MOL0     H37760   0.908   8.582   7.452 -1.1679 -0.0684 -0.7608
  280MOL0     H37761   0.753   8.630   7.316  0.8457  1.2430 -0.4444
  280MOL0     H37762   0.590   8.593   7.333  0.2458  0.2254  1.2401
  280MOL0     H37763   0.636   8.753   7.381 -1.2712 -0.6780 -1.0163
  280MOL0     H37764   0.219   8.825   7.640 -0.4885  0.8442 -0.4804
  280MOL0     H37765  -0.028   8.808   7.576 -1.1184  0.2166 -2.5751
  280MOL0     H37766  -0.269   8.583   7.347  0.6736 -1.3914  0.8948
  280MOL0     H37767  -0.136   8.497   7.418 -1.4235 -1.3322  1.1015
  280MOL0     H37768  -0.323   8.527   7.575 -0.8155  1.0658  1.0697
  280MOL0     H37769  -0.180   8.629   7.625  0.9592 -0.2912 -0.6474
  280MOL0     H37770  -0.292   8.827   7.516 -2.7343  1.3867 -0.4977
  280MOL0     H37771  -0.380   8.756   7.654  2.0662 -2.0729  0.6533
  280MOL0     H37772  -0.453   8.691   7.366 -1.1257 -1.3706  0.0547
  280MOL0     H37773  -0.537   8.656   7.523 -1.9643  2.5704  0.5075
  280MOL0     H37774  -0.492   8.919   7.398  0.0584 -0.2130 -0.4652
  280MOL0     H37775  -0.549   8.898   7.570  1.9052 -0.3782  0.3059
  280MOL0     H37776  -0.734   8.940   7.393 -1.6983 -0.8210  1.4664
  280MOL0     H37777  -0.687   8.773   7.335  0.8077  0.6813 -1.6065
  280MOL0     H37778  -0.797   8.800   7.606 -0.0886 -2.0519  0.4755
  280MOL0     H37779  -0.808   8.663   7.490 -0.4205  0.3156 -0.1293
  280MOL0     H37780  -0.954   8.935   7.456 -1.5282 -0.1982 -0.0839
  280MOL0     H37781  -1.023   8.805   7.555  0.8560 -1.2308  0.2582
  280MOL0     H37782   0.075   8.577   7.245 -2.0325 -0.6779  0.5127
  280MOL0     H37783   0.331   8.578   7.310  0.6723  1.1770 -0.3267
  280MOL0     H37784   0.606   8.553   7.832 -0.2379 -0.3025 -0.9150
  280MOL0     H37785   0.866   8.533   7.871  1.4862  3.1324 -1.0693
  280MOL0     H37786   1.925   7.863   8.209 -1.3901 -1.0174  0.6481
  280MOL0     H37787   2.138   7.797   8.085  1.0169 -0.6977  0.3195
  280MOL0     H37788   2.394   7.489   7.886 -1.5888 -0.5800  3.7434
  280MOL0     H37789   2.610   7.436   7.766  1.5913 -1.6596  0.2380
  280MOL0     H37790   2.989   7.426   7.714 -0.6153 -0.7065  2.2025
  280MOL0     H37791   2.821   7.380   7.700 -0.5369 -0.1489  3.6038
  280MOL0     H37792   2.933   7.655   7.707 -0.8191 -0.9632  3.9295
  280MOL0     H37793   2.759   7.596   7.683 -0.3330 -0.9860  1.8552
  280MOL0     H37794   2.981   7.532   7.488  1.9335  1.3843  2.1604
  280MOL0     H37795   2.902   7.687   7.474  2.0264 -0.7011  0.1671
  280MOL0     H37796   2.737   7.424   7.485  1.0341 -0.2247  0.5805
  280MOL0     H37797   2.773   7.493   7.331 -0.9541 -1.7319 -0.1618
  280MOL0     H37798   2.471   7.754   7.433 -0.5717 -0.4082 -1.5235
  280MOL0     H37799   2.824   7.553   8.113  0.5789 -3.7729  1.3661
  280MOL0     H37800   2.614   7.592   8.237  3.1965  0.1613 -0.4378
  281MOL0     O37801   9.007   8.131   9.158 -0.1431  0.3375 -0.0289
  281MOL0     C37802   8.964   8.225   9.090  1.0119  0.0110  0.1441
  281MOL0     O37803   8.829   8.243   9.057  0.5574 -0.6001  0.0917
  281MOL0     C37804   8.734   8.160   9.114  0.1746  0.5659 -0.2263
  281MOL0     C37805   8.749   8.022   9.138 -1.1787  0.2199  0.0409
  281MOL0     C37806   8.638   7.946   9.168  0.8449  0.7658 -0.3132
  281MOL0     C37807   8.509   7.999   9.180  0.5744 -1.0485  0.6108
  281MOL0     O37808   8.393   7.927   9.190  0.2537 -0.4384 -1.0839
  281MOL0     C37809   8.383   7.816   9.280  0.1727 -0.0920  0.7383
  281MOL0     C37810   8.392   7.673   9.226  0.0663  0.4817  0.0388
  281MOL0     C37811   8.315   7.671   9.096 -0.4575  0.1007 -0.1351
  281MOL0     C37812   8.321   7.530   9.042  0.7695  0.5845  0.4706
  281MOL0     C37813   8.239   7.526   8.912  0.6317  0.1407  0.5913
  281MOL0     C37814   8.334   7.529   8.788  0.0897 -0.7026  0.0027
  281MOL0     C37815   8.263   7.503   8.658 -0.4362 -0.2775  0.1219
  281MOL0     C37816   8.185   7.621   8.598  0.0030  0.0158 -0.1901
  281MOL0     N37817   8.264   7.739   8.597  0.1042 -0.6093  0.3903
  281MOL0     C37818   8.265   7.839   8.694  0.8370  0.8431  0.8229
  281MOL0     C37819   8.347   7.932   8.657 -0.9355 -0.3577  0.1874
  281MOL0     C37820   8.385   8.064   8.723 -0.1657 -0.0734  0.5368
  281MOL0     C37821   8.525   8.051   8.777 -0.0772 -0.6721 -0.3698
  281MOL0     C37822   8.638   8.047   8.670  0.1415  0.6810  0.0705
  281MOL0     C37823   8.777   8.094   8.720  0.9632 -0.4479  0.1105
  281MOL0     O37824   8.856   8.115   8.603  0.7138  0.5591  0.1996
  281MOL0     C37825   8.990   8.130   8.616 -0.6374  0.7822  0.1946
  281MOL0     C37826   9.067   8.104   8.503  0.0061 -0.3956 -0.0903
  281MOL0     C37827   9.209   8.123   8.497  0.1479  0.0674  0.0292
  281MOL0     C37828   9.275   8.109   8.367 -0.2148 -0.1661  0.3205
  281MOL0     C37829   9.276   8.164   8.615 -0.4730  0.7828  0.6065
  281MOL0     C37830   9.426   8.185   8.618  0.9719  0.6090 -0.1484
  281MOL0     O37831   9.504   8.072   8.603 -0.3022 -0.3979  0.2893
  281MOL0     C37832   9.636   8.098   8.580 -0.0470  0.6199  0.4849
  281MOL0     C37833   9.731   8.096   8.684 -0.8815  0.7076  0.4619
  281MOL0     C37834   9.865   8.114   8.654  0.4526  0.1433 -0.0854
  281MOL0     C37835   9.909   8.138   8.517  0.5307  0.6660 -0.3353
  281MOL0     O37836  10.038   8.143   8.480 -0.3415 -0.2508 -0.3220
  281MOL0     C37837  10.122   8.226   8.566  0.0775  0.4986  0.6426
  281MOL0     C37838  10.265   8.229   8.518  0.7546 -0.2778  0.5258
  281MOL0     C37839  10.279   8.302   8.385 -0.2710 -0.4902  0.8363
  281MOL0     C37840  10.425   8.347   8.363  0.1416 -0.0852 -0.3466
  281MOL0     C37841  10.429   8.407   8.221 -0.0895 -0.3028  0.4037
  281MOL0     C37842  10.578   8.438   8.182 -0.0655 -0.3541 -0.2439
  281MOL0     C37843  10.653   8.535   8.279  0.4501  0.4378  0.3712
  281MOL0     C37844  10.745   8.642   8.206  0.2754 -0.2487 -0.0043
  281MOL0    Cl37845  10.649   8.752   8.096 -0.0757  0.0964  0.4123
  281MOL0     C37846   9.808   8.142   8.418  0.0782  0.2588 -0.1564
  281MOL0     C37847   9.675   8.128   8.450  0.4560  0.4657 -0.5638
  281MOL0     O37848   9.469   8.303   8.618  0.6428 -0.3601 -1.0330
  281MOL0     C37849   9.202   8.179   8.734  0.0820 -0.3282 -0.3799
  281MOL0     C37850   9.061   8.161   8.733  0.1890  0.5285 -0.1919
  281MOL0     N37851   8.387   7.890   8.530  0.8789 -0.1963  0.0808
  281MOL0     N37852   8.332   7.778   8.493 -0.8248 -0.2255  0.0131
  281MOL0     C37853   8.494   8.138   9.173 -0.1415 -0.1114  0.7335
  281MOL0     C37854   8.609   8.215   9.143  0.6707 -0.1391  0.0749
  281MOL0     C37855   9.065   8.323   9.040  0.7179 -0.0202  1.0458
  281MOL0     C37856   9.035   8.415   8.942 -0.7056 -0.2001  0.3083
  281MOL0     C37857   9.127   8.506   8.896  0.1110  0.1929  0.3119
  281MOL0     C37858   9.261   8.491   8.915 -0.6167 -0.4398 -0.1437
  281MOL0     O37859   9.338   8.580   8.837  0.8243  0.4081 -0.7316
  281MOL0     C37860   9.485   8.570   8.856  0.1646 -0.9325  0.4432
  281MOL0     C37861   9.547   8.658   8.747 -0.2792 -0.4451  0.0192
  281MOL0     C37862   9.696   8.630   8.736  0.0074  0.5617 -0.3727
  281MOL0     C37863   9.767   8.670   8.870 -0.7277 -0.3376  0.0958
  281MOL0     C37864   9.906   8.724   8.836  0.9965 -0.1167  0.2387
  281MOL0     C37865  10.016   8.762   8.803  0.3212 -0.0833 -0.1120
  281MOL0     C37866   9.307   8.392   9.006  0.6080 -0.0070  0.5368
  281MOL0     C37867   9.203   8.308   9.074  0.4646  0.0951 -0.5158
  281MOL0     H37868   8.839   7.964   9.121 -0.5449  1.2883 -0.3710
  281MOL0     H37869   8.650   7.839   9.179 -0.2665  0.7422  0.8338
  281MOL0     H37870   8.462   7.814   9.356  1.7731 -1.9947 -0.8496
  281MOL0     H37871   8.285   7.826   9.326  0.2222 -0.1970  0.8629
  281MOL0     H37872   8.497   7.648   9.212 -0.6881 -2.3603 -1.1442
  281MOL0     H37873   8.344   7.602   9.295  0.1934 -0.8304 -1.1778
  281MOL0     H37874   8.211   7.702   9.108 -0.5378 -0.5399  1.0182
  281MOL0     H37875   8.356   7.732   9.015 -3.0040 -2.2865 -3.5374
  281MOL0     H37876   8.420   7.485   9.029 -0.9369 -3.1797 -1.0661
  281MOL0     H37877   8.271   7.460   9.110 -1.7437 -1.8853 -3.4846
  281MOL0     H37878   8.176   7.437   8.911 -1.5887  1.6091 -1.7569
  281MOL0     H37879   8.171   7.611   8.903  1.5229  0.6287 -2.9240
  281MOL0     H37880   8.397   7.619   8.789  1.5394 -1.6780  1.4942
  281MOL0     H37881   8.409   7.452   8.808  3.1396  2.1070  0.3220
  281MOL0     H37882   8.347   7.486   8.590  1.1373  2.0937  1.3158
  281MOL0     H37883   8.202   7.414   8.669  2.0097 -2.0488  0.1899
  281MOL0     H37884   8.087   7.633   8.646  0.2521 -0.4991  0.4487
  281MOL0     H37885   8.160   7.605   8.493 -0.1041  1.2356 -0.3670
  281MOL0     H37886   8.212   7.836   8.789 -0.8733 -0.3313 -0.1262
  281MOL0     H37887   8.386   8.144   8.649 -0.3287 -0.1855  0.4136
  281MOL0     H37888   8.315   8.088   8.804 -0.3444  2.0501 -0.1859
  281MOL0     H37889   8.531   7.965   8.844 -0.2728  1.1565  2.1287
  281MOL0     H37890   8.546   8.132   8.847 -2.0373  0.9413 -1.5152
  281MOL0     H37891   8.620   8.116   8.587  2.4247  0.6681 -0.5079
  281MOL0     H37892   8.643   7.943   8.639 -2.3565  0.2113  1.0573
  281MOL0     H37893   8.822   8.021   8.788  3.8615  0.6602 -0.4999
  281MOL0     H37894   8.760   8.185   8.778 -2.1425 -0.2487 -0.9088
  281MOL0     H37895   9.027   8.080   8.405 -0.1864  0.9631 -0.3658
  281MOL0     H37896   9.204   8.110   8.284 -0.0555 -0.5638  0.1729
  281MOL0     H37897   9.346   8.191   8.355 -1.2582  0.8891  1.1296
  281MOL0     H37898   9.327   8.013   8.367  2.4380  1.1954  0.7962
  281MOL0     H37899   9.701   8.087   8.788 -0.6707 -0.9370  0.4155
  281MOL0     H37900   9.938   8.113   8.734  0.6808  2.3892 -0.2111
  281MOL0     H37901  10.077   8.323   8.589 -1.8584 -0.4570  1.0724
  281MOL0     H37902  10.139   8.178   8.663 -1.6616 -2.5144 -0.4069
  281MOL0     H37903  10.318   8.276   8.601 -0.6261  1.4576  0.5034
  281MOL0     H37904  10.289   8.123   8.507 -0.2710 -0.4129 -0.6773
  281MOL0     H37905  10.228   8.398   8.381  0.7264  0.0277 -3.2591
  281MOL0     H37906  10.243   8.247   8.298  2.1643  0.1213 -0.6413
  281MOL0     H37907  10.458   8.425   8.432  1.6931  0.0654 -1.2098
  281MOL0     H37908  10.482   8.254   8.374 -1.0788 -0.6663  1.4526
  281MOL0     H37909  10.384   8.506   8.226  1.8140  0.8214 -2.5860
  281MOL0     H37910  10.375   8.343   8.150  0.0542 -0.8713  0.7997
  281MOL0     H37911  10.628   8.341   8.182 -2.0833 -1.5376  2.3272
  281MOL0     H37912  10.595   8.474   8.080  0.6748  0.4929  0.1713
  281MOL0     H37913  10.712   8.463   8.336  0.6271 -0.9626 -1.4917
  281MOL0     H37914  10.579   8.581   8.345 -2.6053  0.1102 -2.5048
  281MOL0     H37915  10.818   8.581   8.152 -0.5880  0.2750 -1.8579
  281MOL0     H37916  10.805   8.703   8.274  1.2730  1.9113 -2.6491
  281MOL0     H37917   9.837   8.170   8.317  1.6483  1.2170  0.5307
  281MOL0     H37918   9.597   8.137   8.374 -2.6092  0.3031  2.3045
  281MOL0     H37919   9.253   8.188   8.830 -0.1612 -2.4223 -0.0036
  281MOL0     H37920   9.012   8.170   8.829  1.1468  0.1573  0.3509
  281MOL0     H37921   8.401   8.191   9.184  0.2325  0.3391  1.8642
  281MOL0     H37922   8.599   8.323   9.144  1.6774 -0.0413  0.8777
  281MOL0     H37923   8.933   8.429   8.906  0.4572  2.9835 -2.2845
  281MOL0     H37924   9.082   8.570   8.821 -0.1048  0.3490  0.5737
  281MOL0     H37925   9.528   8.596   8.954 -1.7012 -1.1346  1.3607
  281MOL0     H37926   9.508   8.465   8.837 -0.2872 -0.7639 -1.2063
  281MOL0     H37927   9.522   8.762   8.770  0.6275  1.0895 -4.8340
  281MOL0     H37928   9.513   8.635   8.646  0.8861  0.0352 -0.5035
  281MOL0     H37929   9.747   8.674   8.649  0.6464 -2.0039 -1.3941
  281MOL0     H37930   9.711   8.522   8.727  1.5174  0.8297 -1.5804
  281MOL0     H37931   9.773   8.589   8.942 -1.2375  1.2574  2.0099
  281MOL0     H37932   9.706   8.744   8.923 -3.7701 -3.1885  0.9174
  281MOL0     H37933  10.120   8.773   8.777  1.2956 -1.0464  2.8945
  281MOL0     H37934   9.412   8.371   9.022  0.4421 -1.4429 -0.1208
  281MOL0     H37935   9.243   8.236   9.145 -0.0332  2.8540  2.7931
  282MOL0     O37936   7.798   3.768   3.861  0.5906  0.3523  0.4895
  282MOL0     C37937   7.757   3.653   3.886 -0.9974  0.1776  0.4846
  282MOL0     O37938   7.634   3.616   3.884 -0.0869 -0.5305  0.8212
  282MOL0     C37939   7.541   3.706   3.838  0.2805 -0.8485 -0.3732
  282MOL0     C37940   7.522   3.834   3.896  0.6713  0.5898 -0.5810
  282MOL0     C37941   7.407   3.906   3.852  0.6101 -0.2526  0.0454
  282MOL0     C37942   7.322   3.858   3.752  0.1906 -0.0280  0.2954
  282MOL0     O37943   7.213   3.939   3.722  0.2652 -0.0389 -0.1771
  282MOL0     C37944   7.115   3.887   3.629  0.7331 -0.4728 -0.0719
  282MOL0     C37945   7.026   4.006   3.573  0.1259  1.0142  0.0022
  282MOL0     C37946   6.918   3.941   3.485 -0.5351 -0.0057  0.6137
  282MOL0     C37947   6.849   4.053   3.405  0.4019  0.2016 -0.3344
  282MOL0     C37948   6.734   3.997   3.310  0.0241 -0.1487  0.4541
  282MOL0     C37949   6.807   3.971   3.178  0.3216 -0.1160  0.0187
  282MOL0     C37950   6.715   3.870   3.088 -0.2688 -0.4655 -0.3205
  282MOL0     C37951   6.573   3.880   3.111 -0.0886 -0.2299  0.3435
  282MOL0     N37952   6.502   3.798   3.019  0.2092  0.5173  0.2514
  282MOL0     C37953   6.538   3.758   2.890 -0.1118 -0.4106  0.3652
  282MOL0     C37954   6.451   3.651   2.881 -0.0062 -1.3236  0.2202
  282MOL0     C37955   6.442   3.575   2.752  0.5322  0.4998  0.4115
  282MOL0     C37956   6.299   3.527   2.725  0.2405 -0.2777  0.0796
  282MOL0     C37957   6.289   3.488   2.581 -0.2101  0.2830  0.6320
  282MOL0     C37958   6.160   3.426   2.543  0.3258  0.0727  0.5800
  282MOL0     O37959   6.060   3.529   2.556  0.2379  0.0654 -0.3424
  282MOL0     C37960   5.966   3.546   2.452  1.1928 -0.2789 -0.9091
  282MOL0     C37961   5.917   3.677   2.428  0.0986  0.4199  0.6275
  282MOL0     C37962   5.820   3.702   2.334 -0.3140 -0.9920  1.0443
  282MOL0     C37963   5.764   3.846   2.322  1.0804  0.0885  0.4256
  282MOL0     C37964   5.767   3.590   2.257 -0.2277  0.0947  0.5026
  282MOL0     C37965   5.658   3.607   2.153  0.8490 -0.0645 -0.7794
  282MOL0     O37966   5.581   3.500   2.122  0.6202 -0.2564 -0.6957
  282MOL0     C37967   5.465   3.519   2.050 -0.2242 -0.8817  0.5887
  282MOL0     C37968   5.349   3.535   2.120  0.1137 -0.5513  0.7437
  282MOL0     C37969   5.220   3.551   2.057 -0.3280  1.1683  0.9229
  282MOL0     C37970   5.218   3.557   1.914 -0.1994 -0.1209 -0.4780
  282MOL0     O37971   5.092   3.569   1.853 -0.0262  0.1489  0.5429
  282MOL0     C37972   4.985   3.488   1.898  0.1262  0.5408 -0.0751
  282MOL0     C37973   4.894   3.555   2.003  0.4956  0.6862 -0.0774
  282MOL0     C37974   4.753   3.484   1.995 -0.6256 -0.4878 -0.4472
  282MOL0     C37975   4.629   3.565   1.965 -0.1024  0.6535 -0.3942
  282MOL0     C37976   4.505   3.478   1.966  0.5433  0.1579  0.5880
  282MOL0     C37977   4.391   3.573   1.988  0.3111  0.0306 -0.1956
  282MOL0     C37978   4.254   3.503   1.996 -0.1328  0.1238  0.4239
  282MOL0     C37979   4.203   3.442   1.868  0.8480  0.1559  0.4238
  282MOL0    Cl37980   4.028   3.397   1.896  0.5021  0.0592  0.3073
  282MOL0     C37981   5.343   3.546   1.846  0.7590 -0.5285  0.3145
  282MOL0     C37982   5.464   3.536   1.918 -0.0602 -0.4170  0.5169
  282MOL0     O37983   5.648   3.709   2.093 -0.9315  0.3145  0.2902
  282MOL0     C37984   5.808   3.453   2.289 -0.8315 -0.0343  0.1213
  282MOL0     C37985   5.901   3.443   2.389 -0.3887  0.4056 -0.0119
  282MOL0     N37986   6.375   3.623   2.991 -0.2230 -0.9547 -0.1871
  282MOL0     N37987   6.409   3.716   3.075 -0.8538 -0.0951  0.6069
  282MOL0     C37988   7.360   3.742   3.683  0.2069  0.0697 -1.0108
  282MOL0     C37989   7.461   3.669   3.733 -1.0558  0.0393 -0.0894
  282MOL0     C37990   7.867   3.550   3.913  0.2407  0.0712  0.1261
  282MOL0     C37991   7.835   3.421   3.920 -0.3887  0.2165 -0.3114
  282MOL0     C37992   7.932   3.329   3.955  0.8310  0.1444  0.2037
  282MOL0     C37993   8.064   3.366   3.972 -0.3528 -0.2529 -1.3545
  282MOL0     O37994   8.163   3.271   3.992 -0.2342  0.4488  0.0766
  282MOL0     C37995   8.147   3.180   4.104 -0.5626 -0.0293 -0.8833
  282MOL0     C37996   8.117   3.041   4.045 -0.5367  0.3342  1.4284
  282MOL0     C37997   8.077   2.927   4.140 -0.5895 -0.2578 -0.0096
  282MOL0     C37998   7.979   2.962   4.245  0.1236 -0.1088 -0.0806
  282MOL0     C37999   8.031   2.987   4.380  0.2669  0.4270  0.9041
  282MOL0     C38000   8.066   3.011   4.492 -0.7880  1.0361 -0.3542
  282MOL0     C38001   8.096   3.501   3.956  0.0471  0.5709 -0.7879
  282MOL0     C38002   7.997   3.593   3.928  0.6406  0.0107 -0.3971
  282MOL0     H38003   7.577   3.871   3.982  0.9360 -1.6635  0.2740
  282MOL0     H38004   7.377   3.993   3.911 -1.2824 -0.2637 -0.8101
  282MOL0     H38005   7.168   3.850   3.541  1.8995 -0.5061  0.6314
  282MOL0     H38006   7.051   3.816   3.682  0.1581 -0.9356 -1.3412
  282MOL0     H38007   6.977   4.061   3.654 -0.0969 -0.7975  1.1348
  282MOL0     H38008   7.091   4.070   3.512 -3.3844  2.1596 -2.9574
  282MOL0     H38009   6.956   3.874   3.407  0.0838 -0.5314  1.3478
  282MOL0     H38010   6.842   3.887   3.542 -0.4804  1.0953  1.7684
  282MOL0     H38011   6.816   4.127   3.478  0.2412  2.2811 -2.3816
  282MOL0     H38012   6.923   4.114   3.352  0.7886  0.9703  1.0387
  282MOL0     H38013   6.697   3.898   3.337 -1.0392  0.2275  0.4077
  282MOL0     H38014   6.653   4.070   3.301  1.3344  1.1688 -1.4232
  282MOL0     H38015   6.813   4.064   3.122 -0.9136 -0.7646 -1.2361
  282MOL0     H38016   6.909   3.933   3.195  0.3033 -1.1525 -1.8883
  282MOL0     H38017   6.751   3.891   2.986 -0.2261  4.5526  0.4716
  282MOL0     H38018   6.747   3.767   3.108 -0.7303 -0.2173  1.9547
  282MOL0     H38019   6.544   3.984   3.093 -0.8834 -0.8516 -2.3530
  282MOL0     H38020   6.545   3.842   3.210 -1.0214 -1.6702 -0.4312
  282MOL0     H38021   6.616   3.795   2.825  0.3585 -2.0681 -0.0516
  282MOL0     H38022   6.476   3.636   2.668 -0.7151  0.3821 -0.2041
  282MOL0     H38023   6.505   3.486   2.761 -0.3232 -0.0102  1.6503
  282MOL0     H38024   6.221   3.601   2.744  0.2438  0.5159 -2.5749
  282MOL0     H38025   6.283   3.445   2.796  1.1078  0.1067  0.7336
  282MOL0     H38026   6.369   3.417   2.559  0.7516  1.5364 -0.0311
  282MOL0     H38027   6.301   3.575   2.515  2.0115 -0.9456 -0.6924
  282MOL0     H38028   6.148   3.343   2.613 -0.4396  1.9255  2.7600
  282MOL0     H38029   6.159   3.400   2.437 -4.4954  0.1255  0.4020
  282MOL0     H38030   5.966   3.754   2.487  1.4219  0.4336 -0.4423
  282MOL0     H38031   5.767   3.882   2.219 -1.0465 -1.1805 -0.1436
  282MOL0     H38032   5.657   3.849   2.343  0.5588  0.8504 -2.0791
  282MOL0     H38033   5.823   3.916   2.382  1.6710 -1.0943  1.2748
  282MOL0     H38034   5.359   3.521   2.227  0.5725  1.6055  1.0338
  282MOL0     H38035   5.139   3.569   2.127 -1.5180  0.0299 -0.1068
  282MOL0     H38036   4.918   3.453   1.818  0.1665 -0.6084  0.3683
  282MOL0     H38037   5.025   3.397   1.944  3.6671  2.1691  0.3758
  282MOL0     H38038   4.929   3.543   2.106 -2.6733 -1.4921  0.9119
  282MOL0     H38039   4.875   3.660   1.979 -0.5623  1.4152  3.3918
  282MOL0     H38040   4.741   3.449   2.098  1.6434  0.2531  0.1080
  282MOL0     H38041   4.758   3.403   1.921 -0.9272 -0.1369 -0.8553
  282MOL0     H38042   4.631   3.638   2.046  2.0429 -0.9004  1.0548
  282MOL0     H38043   4.647   3.608   1.866  0.0635  0.6240 -0.3774
  282MOL0     H38044   4.519   3.415   2.054  1.1269  2.8213  2.5248
  282MOL0     H38045   4.489   3.423   1.872  1.6664  1.5988 -0.5037
  282MOL0     H38046   4.406   3.614   2.088 -0.3008 -0.1550 -0.0221
  282MOL0     H38047   4.396   3.657   1.918 -0.3396 -0.3290 -0.6874
  282MOL0     H38048   4.180   3.580   2.021  0.6876  1.1848 -0.3175
  282MOL0     H38049   4.253   3.431   2.077 -2.1907 -0.5657 -0.1334
  282MOL0     H38050   4.263   3.357   1.832 -0.2236  0.2742 -1.7521
  282MOL0     H38051   4.193   3.515   1.788  1.1962  0.3158  0.5238
  282MOL0     H38052   5.351   3.570   1.741  1.0181 -0.4819  0.3444
  282MOL0     H38053   5.560   3.537   1.868  0.1821  2.4932  0.8259
  282MOL0     H38054   5.770   3.360   2.248 -0.1422 -0.9820  1.5554
  282MOL0     H38055   5.932   3.341   2.412 -1.6393 -0.0100 -0.0369
  282MOL0     H38056   7.307   3.694   3.602  0.3731 -1.9507  0.0065
  282MOL0     H38057   7.485   3.581   3.674 -1.4637  0.6403 -1.1940
  282MOL0     H38058   7.735   3.381   3.908 -0.3500  0.5356 -1.7738
  282MOL0     H38059   7.903   3.225   3.966 -1.2741  0.6040 -0.6380
  282MOL0     H38060   8.230   3.168   4.174 -3.7512  0.4972  3.3548
  282MOL0     H38061   8.072   3.210   4.178  1.3875 -0.4744  1.3912
  282MOL0     H38062   8.205   3.010   3.988 -0.0179  2.5638  0.8961
  282MOL0     H38063   8.033   3.071   3.982  0.4750 -0.1238 -0.2080
  282MOL0     H38064   8.161   2.889   4.199 -1.5475  1.7735  2.9491
  282MOL0     H38065   8.045   2.841   4.081  0.0033 -0.6061  0.1763
  282MOL0     H38066   7.892   2.896   4.241 -2.1887  2.5658  1.6292
  282MOL0     H38067   7.934   3.057   4.215 -1.1629 -1.1455 -1.5436
  282MOL0     H38068   8.108   3.046   4.584  1.9861 -0.5747 -0.8725
  282MOL0     H38069   8.201   3.528   3.957  0.5173 -1.0919 -1.6850
  282MOL0     H38070   8.023   3.698   3.920 -1.9843  1.1628  3.2190
  283MOL0     O38071   1.225   4.783   0.735 -0.0609  0.4391 -0.6907
  283MOL0     C38072   1.271   4.887   0.785 -0.6308 -0.5916  0.5714
  283MOL0     O38073   1.272   4.906   0.915 -0.0895 -0.3911  0.6456
  283MOL0     C38074   1.280   4.801   1.004 -0.7175 -0.3769  0.5066
  283MOL0     C38075   1.383   4.804   1.098 -0.2637 -0.3601  0.2334
  283MOL0     C38076   1.392   4.698   1.191  0.3117  0.8066 -0.3729
  283MOL0     C38077   1.301   4.594   1.189 -0.5418  0.3399 -0.0772
  283MOL0     O38078   1.332   4.494   1.265 -0.1916 -0.0037  0.1503
  283MOL0     C38079   1.254   4.374   1.253  0.3524 -0.5142 -0.8714
  283MOL0     C38080   1.302   4.250   1.334 -0.2604 -0.5832 -0.9761
  283MOL0     C38081   1.189   4.151   1.332  0.3593  0.4305  0.2203
  283MOL0     C38082   1.212   4.061   1.461  0.6834 -0.0108 -0.1377
  283MOL0     C38083   1.115   3.937   1.449  0.4767  0.2315 -0.3869
  283MOL0     C38084   0.964   3.960   1.481 -0.1799 -0.0772 -0.2885
  283MOL0     C38085   0.879   3.833   1.496 -0.0660  0.3318  0.7112
  283MOL0     C38086   0.741   3.888   1.524  0.9285  0.5468 -0.3252
  283MOL0     N38087   0.641   3.776   1.524 -0.4524 -0.7669  0.7997
  283MOL0     C38088   0.621   3.699   1.417 -0.6974  0.4963  0.6010
  283MOL0     C38089   0.563   3.584   1.465  0.3615 -0.2483  0.5193
  283MOL0     C38090   0.532   3.453   1.391  0.2208  0.1095 -0.0861
  283MOL0     C38091   0.463   3.344   1.474 -0.0529  0.5337 -0.2050
  283MOL0     C38092   0.426   3.216   1.403  0.3103 -0.3081  0.5908
  283MOL0     C38093   0.298   3.228   1.318  0.2488 -0.2333  0.9882
  283MOL0     O38094   0.281   3.112   1.234 -0.2071 -0.1195 -0.8055
  283MOL0     C38095   0.203   3.015   1.283 -0.4635  0.3100 -0.3285
  283MOL0     C38096   0.152   2.997   1.414 -0.5468  0.3139  0.4339
  283MOL0     C38097   0.090   2.886   1.456  0.5701  0.0089  0.1916
  283MOL0     C38098   0.043   2.869   1.600 -0.0216  0.7550 -0.1591
  283MOL0     C38099   0.078   2.774   1.368 -0.2331 -0.9757 -0.6146
  283MOL0     C38100  -0.006   2.658   1.394 -0.2639  0.5881 -0.5955
  283MOL0     O38101  -0.143   2.695   1.414 -0.2321  0.2345 -0.3390
  283MOL0     C38102  -0.241   2.604   1.416  0.2569  0.2681  0.7190
  283MOL0     C38103  -0.248   2.494   1.326 -0.1391  0.4664 -0.5472
  283MOL0     C38104  -0.364   2.418   1.311 -0.3168  0.1344 -0.5030
  283MOL0     C38105  -0.478   2.452   1.386  0.3973  0.1582 -0.9500
  283MOL0     O38106  -0.590   2.369   1.380 -0.0689  0.3745 -0.2534
  283MOL0     C38107  -0.589   2.245   1.305 -0.5524 -0.0017 -0.0800
  283MOL0     C38108  -0.722   2.177   1.321 -0.4152 -0.0069  0.3925
  283MOL0     C38109  -0.805   2.228   1.208  0.2017  0.0334  0.7893
  283MOL0     C38110  -0.929   2.137   1.202  0.2503  0.1005 -0.7770
  283MOL0     C38111  -1.033   2.188   1.101 -0.1407  0.2454 -0.2091
  283MOL0     C38112  -1.166   2.126   1.131 -0.8053 -0.7492 -0.2965
  283MOL0     C38113  -1.267   2.196   1.036 -0.4191  0.3532 -0.3972
  283MOL0     C38114  -1.399   2.181   1.088 -0.5453 -0.5158  0.5322
  283MOL0    Cl38115  -1.455   2.017   1.077  0.3206  0.3548 -0.0107
  283MOL0     C38116  -0.481   2.569   1.466  0.3677 -0.1981 -0.8240
  283MOL0     C38117  -0.361   2.643   1.473  0.6590  0.4872  0.5880
  283MOL0     O38118   0.029   2.544   1.377 -0.3312 -0.1518  0.1179
  283MOL0     C38119   0.139   2.785   1.246  0.7236  0.6862  0.0021
  283MOL0     C38120   0.192   2.905   1.202 -0.8665  0.2068 -0.6491
  283MOL0     N38121   0.553   3.599   1.606  0.1123  0.6392  0.6586
  283MOL0     N38122   0.595   3.719   1.632  0.6112  0.3742  0.3493
  283MOL0     C38123   1.191   4.598   1.101 -0.0037 -0.5880 -0.0160
  283MOL0     C38124   1.182   4.703   1.010 -0.1069 -0.6634 -0.2664
  283MOL0     C38125   1.360   4.975   0.696 -0.2126 -0.7891 -0.4408
  283MOL0     C38126   1.349   4.971   0.554  0.1781  0.3816 -0.2039
  283MOL0     C38127   1.427   5.051   0.472 -0.3033 -0.0447  0.5037
  283MOL0     C38128   1.529   5.132   0.520 -0.1366 -0.1517 -0.8885
  283MOL0     O38129   1.609   5.207   0.429  0.2839  0.2118 -0.1526
  283MOL0     C38130   1.735   5.252   0.471 -0.4808  0.4392 -0.8009
  283MOL0     C38131   1.812   5.312   0.353  0.3301 -0.1474  0.6108
  283MOL0     C38132   1.731   5.424   0.283  0.4993 -0.5188 -0.6516
  283MOL0     C38133   1.702   5.539   0.375  0.6994 -0.3432 -0.3779
  283MOL0     C38134   1.695   5.671   0.309  0.5287  1.2338  0.4631
  283MOL0     C38135   1.684   5.782   0.268  0.2051  0.2630 -0.8719
  283MOL0     C38136   1.543   5.140   0.661  0.1322  0.1530  0.5452
  283MOL0     C38137   1.464   5.065   0.741 -0.1307  0.7499  0.5429
  283MOL0     H38138   1.464   4.875   1.088 -0.8064 -0.0659 -3.0666
  283MOL0     H38139   1.483   4.688   1.249  0.7095 -3.6126 -1.4352
  283MOL0     H38140   1.156   4.405   1.292 -0.4028 -3.0721 -0.5619
  283MOL0     H38141   1.250   4.345   1.148  0.9645  0.9483 -1.3393
  283MOL0     H38142   1.397   4.222   1.288  0.8775  2.2200 -0.5187
  283MOL0     H38143   1.307   4.280   1.439 -2.6977  0.7181 -1.1681
  283MOL0     H38144   1.093   4.199   1.353  0.1635 -0.2020  0.7765
  283MOL0     H38145   1.184   4.089   1.242 -0.6151 -0.9046  1.1677
  283MOL0     H38146   1.320   4.041   1.457  0.8667  0.9610 -3.3489
  283MOL0     H38147   1.183   4.125   1.545 -0.7334  1.2683 -1.5355
  283MOL0     H38148   1.128   3.890   1.351  0.4065 -0.1260 -0.2269
  283MOL0     H38149   1.152   3.870   1.527 -1.9252  0.2742  0.8637
  283MOL0     H38150   0.961   4.019   1.573 -0.8764 -0.5784  0.0272
  283MOL0     H38151   0.916   4.019   1.403 -4.2300 -1.9840  0.4527
  283MOL0     H38152   0.871   3.767   1.409 -0.5775 -0.0007  1.0079
  283MOL0     H38153   0.907   3.766   1.577  2.9628  0.7256  0.1080
  283MOL0     H38154   0.702   3.965   1.456 -1.2053 -0.6153 -0.5137
  283MOL0     H38155   0.743   3.932   1.624 -1.0410 -2.1692  1.0353
  283MOL0     H38156   0.638   3.723   1.313  3.2174 -2.0247  0.4590
  283MOL0     H38157   0.474   3.480   1.302 -0.1720 -0.7206 -0.0943
  283MOL0     H38158   0.625   3.414   1.348  1.9842  2.4673  1.3570
  283MOL0     H38159   0.376   3.387   1.524 -1.5966 -0.8737 -1.6158
  283MOL0     H38160   0.544   3.311   1.539 -0.7300 -1.4407 -0.3204
  283MOL0     H38161   0.406   3.144   1.483 -2.1972  0.6434  0.9073
  283MOL0     H38162   0.510   3.187   1.339 -1.4162  1.0949 -2.5093
  283MOL0     H38163   0.322   3.313   1.254  1.1184  0.1442  1.7913
  283MOL0     H38164   0.207   3.241   1.377 -0.7423 -1.1288 -0.2659
  283MOL0     H38165   0.183   3.074   1.485  0.2184 -1.7494  2.4688
  283MOL0     H38166  -0.065   2.884   1.603 -0.1916 -0.2311 -0.7791
  283MOL0     H38167   0.061   2.772   1.648 -0.1710  1.2233  0.8573
  283MOL0     H38168   0.099   2.939   1.663  0.1741 -1.1224  1.8673
  283MOL0     H38169  -0.165   2.471   1.260  0.6075  2.1146 -0.2320
  283MOL0     H38170  -0.369   2.337   1.239  1.0972  0.4738 -1.0201
  283MOL0     H38171  -0.569   2.246   1.197  0.4610  2.1519  0.0672
  283MOL0     H38172  -0.518   2.176   1.351 -0.4894 -0.4484 -0.8194
  283MOL0     H38173  -0.721   2.069   1.304 -2.1828  0.2306 -1.8614
  283MOL0     H38174  -0.770   2.203   1.416 -1.3335  0.6808 -0.2352
  283MOL0     H38175  -0.755   2.210   1.113 -0.5443 -0.7525  0.5302
  283MOL0     H38176  -0.830   2.333   1.221  3.1583  0.7475  1.4483
  283MOL0     H38177  -0.905   2.034   1.178  2.5899  0.4057  0.0070
  283MOL0     H38178  -0.974   2.141   1.302 -1.7015  0.2428 -1.6116
  283MOL0     H38179  -0.995   2.156   1.004  0.5327 -0.6926  0.3408
  283MOL0     H38180  -1.041   2.297   1.101  0.0657  0.2657  0.5691
  283MOL0     H38181  -1.159   2.019   1.113 -1.3543 -0.7395 -0.6012
  283MOL0     H38182  -1.199   2.145   1.234 -1.0397 -0.4729 -0.4196
  283MOL0     H38183  -1.272   2.129   0.950 -4.1955 -2.1676  1.5280
  283MOL0     H38184  -1.252   2.305   1.039 -1.0662  0.4475 -0.5211
  283MOL0     H38185  -1.460   2.233   1.014  0.9429 -1.1023 -1.1908
  283MOL0     H38186  -1.411   2.232   1.184  1.4858  1.2696 -0.0797
  283MOL0     H38187  -0.574   2.588   1.519  1.5900  0.6429  1.1228
  283MOL0     H38188  -0.344   2.723   1.544  2.9645 -1.9124  2.9215
  283MOL0     H38189   0.127   2.706   1.173  3.7385  0.1503 -0.0514
  283MOL0     H38190   0.225   2.920   1.100  1.8708  3.0687  0.5012
  283MOL0     H38191   1.114   4.521   1.101  1.1149 -1.8199 -2.8765
  283MOL0     H38192   1.102   4.708   0.936  0.8022 -0.0760 -1.2367
  283MOL0     H38193   1.282   4.901   0.505  2.0101 -2.0463  0.5443
  283MOL0     H38194   1.415   5.046   0.365  0.1279  0.4320  0.4322
  283MOL0     H38195   1.738   5.329   0.549  0.1496  0.3583 -0.7345
  283MOL0     H38196   1.798   5.169   0.507  0.0200 -0.7565 -4.0808
  283MOL0     H38197   1.818   5.237   0.274 -4.6096 -0.1395 -0.1034
  283MOL0     H38198   1.910   5.344   0.390  0.6264 -1.0764  0.6573
  283MOL0     H38199   1.641   5.381   0.240 -0.2980  1.8882 -1.5285
  283MOL0     H38200   1.794   5.455   0.199 -1.8615 -0.0441 -2.3515
  283MOL0     H38201   1.768   5.538   0.462 -0.7878 -0.4808  0.7837
  283MOL0     H38202   1.600   5.533   0.414 -0.9303 -1.6113 -4.3815
  283MOL0     H38203   1.683   5.881   0.226  0.1089  1.1727  1.1546
  283MOL0     H38204   1.622   5.200   0.705  2.0319  0.4563 -2.9061
  283MOL0     H38205   1.489   5.076   0.846  2.1258  1.2715  0.0003
  284MOL0     O38206  11.027   4.921   1.190 -0.5085 -0.5737 -0.1448
  284MOL0     C38207  11.076   4.819   1.141  0.4236  0.2363 -0.0192
  284MOL0     O38208  11.021   4.697   1.153  0.9272 -0.3056  0.2572
  284MOL0     C38209  10.923   4.670   1.239  0.1013 -0.7376  0.6268
  284MOL0     C38210  10.892   4.747   1.351 -0.7988  0.0432 -0.8560
  284MOL0     C38211  10.776   4.719   1.432  0.2870 -0.0069 -0.2578
  284MOL0     C38212  10.687   4.618   1.390  1.1956  0.0360  0.0826
  284MOL0     O38213  10.578   4.602   1.471 -0.4205  0.1908 -0.2491
  284MOL0     C38214  10.504   4.481   1.480  0.4386  0.4489  0.8277
  284MOL0     C38215  10.378   4.488   1.394 -0.1436  0.9157  0.6986
  284MOL0     C38216  10.279   4.369   1.423  0.3814  0.0703  0.3870
  284MOL0     C38217  10.359   4.234   1.437  0.5760 -0.0950 -0.3492
  284MOL0     C38218  10.271   4.109   1.475 -0.3711  0.1263 -0.8102
  284MOL0     C38219  10.240   4.113   1.628 -0.3487  0.0630 -0.0357
  284MOL0     C38220  10.139   4.003   1.683 -0.0445  0.0566  0.3192
  284MOL0     C38221   9.993   4.031   1.633 -0.5137 -0.7416 -0.0850
  284MOL0     N38222   9.918   4.097   1.737  0.7006  0.1930 -0.2210
  284MOL0     C38223   9.845   4.043   1.833  1.1238 -0.2197 -0.2808
  284MOL0     C38224   9.795   4.138   1.921  0.1340  0.1574 -0.1229
  284MOL0     C38225   9.696   4.116   2.036 -0.1659 -0.1466  0.1790
  284MOL0     C38226   9.603   3.995   2.021  1.1235 -0.4223  0.1687
  284MOL0     C38227   9.515   3.965   2.141 -0.8564 -0.1451  0.5281
  284MOL0     C38228   9.603   3.936   2.267  0.4624 -0.4691 -0.1950
  284MOL0     O38229   9.527   3.864   2.370 -0.0508 -0.1666 -0.0522
  284MOL0     C38230   9.588   3.870   2.490 -0.6424 -0.0447 -0.1191
  284MOL0     C38231   9.720   3.926   2.515  0.0058  0.2038  0.4980
  284MOL0     C38232   9.771   3.922   2.644  0.2511  0.4839 -0.6290
  284MOL0     C38233   9.917   3.970   2.657 -1.0136 -0.1485 -0.6492
  284MOL0     C38234   9.696   3.876   2.755  0.1140  0.4921  0.0782
  284MOL0     C38235   9.751   3.861   2.894 -0.7446 -0.0611  0.2584
  284MOL0     O38236   9.678   3.783   2.971  0.4637 -0.1620  0.5385
  284MOL0     C38237   9.692   3.782   3.106 -0.0531 -0.4256  1.1058
  284MOL0     C38238   9.801   3.717   3.169  0.8648  0.1313 -0.2290
  284MOL0     C38239   9.793   3.700   3.311  0.1847 -0.6620  0.0813
  284MOL0     C38240   9.693   3.767   3.383 -0.0568  0.8161 -0.6284
  284MOL0     O38241   9.703   3.751   3.521  0.2917 -0.2887 -0.2904
  284MOL0     C38242   9.579   3.765   3.604  0.5032  0.6884  0.7995
  284MOL0     C38243   9.597   3.684   3.732 -0.0065  1.1960  0.0227
  284MOL0     C38244   9.464   3.700   3.819  0.3490  0.3341  0.3480
  284MOL0     C38245   9.338   3.623   3.784 -0.5338  0.0466 -1.3447
  284MOL0     C38246   9.233   3.658   3.896  0.3896  0.0166  0.2651
  284MOL0     C38247   9.079   3.612   3.884 -0.0073 -1.2179  0.5313
  284MOL0     C38248   9.077   3.477   3.816 -0.2523 -0.7095  0.1405
  284MOL0     C38249   8.938   3.422   3.824 -0.5075 -0.6339  0.2395
  284MOL0    Cl38250   8.903   3.355   3.990 -0.5440  0.4482 -0.2099
  284MOL0     C38251   9.598   3.835   3.322 -0.1129  0.7182  0.4285
  284MOL0     C38252   9.587   3.839   3.180  0.1174  0.2567 -0.7504
  284MOL0     O38253   9.855   3.919   2.930  0.6293 -0.2018  0.3895
  284MOL0     C38254   9.569   3.818   2.722 -0.3053 -0.1254  0.4370
  284MOL0     C38255   9.520   3.817   2.598 -0.6868  0.3518 -0.4244
  284MOL0     N38256   9.840   4.258   1.862  0.6751  0.1158 -0.2521
  284MOL0     N38257   9.909   4.233   1.752  0.1847  0.0346 -0.8564
  284MOL0     C38258  10.717   4.549   1.272  0.4247 -0.0931  0.0426
  284MOL0     C38259  10.827   4.576   1.194  0.3580 -0.5247 -0.1106
  284MOL0     C38260  11.202   4.824   1.063  0.5201 -0.1918 -0.4296
  284MOL0     C38261  11.258   4.952   1.042  0.2166  0.6954  0.9346
  284MOL0     C38262  11.383   4.978   0.986 -0.1638  0.2931  0.2525
  284MOL0     C38263  11.449   4.865   0.944  0.2717  0.3209  0.6594
  284MOL0     O38264  11.573   4.874   0.892  0.5008  0.0265  0.7837
  284MOL0     C38265  11.677   4.877   0.978  1.0781 -0.6957 -0.1816
  284MOL0     C38266  11.767   4.994   0.957 -0.0317 -0.6179 -0.0275
  284MOL0     C38267  11.855   5.000   0.836 -0.2641  1.1020  0.0488
  284MOL0     C38268  11.991   5.087   0.860 -0.7060 -0.2048  1.3559
  284MOL0     C38269  12.089   5.015   0.940  0.2806  0.6309 -0.6216
  284MOL0     C38270  12.171   4.955   1.005 -0.0288  0.4677  0.6138
  284MOL0     C38271  11.397   4.729   0.957 -0.6794  0.4779 -0.1144
  284MOL0     C38272  11.285   4.718   1.029 -0.3348  1.1702  0.5775
  284MOL0     H38273  10.964   4.817   1.394 -0.1061 -1.5598  0.7148
  284MOL0     H38274  10.752   4.763   1.528  0.0405  0.7096 -0.6388
  284MOL0     H38275  10.571   4.398   1.458  0.2724 -0.5032  3.4685
  284MOL0     H38276  10.475   4.467   1.585 -1.3501  0.6566  0.3951
  284MOL0     H38277  10.335   4.587   1.405  3.1357  2.6831 -0.7534
  284MOL0     H38278  10.409   4.481   1.289 -1.5824  1.7080  0.2023
  284MOL0     H38279  10.226   4.381   1.518  0.0127 -2.2559  0.5302
  284MOL0     H38280  10.202   4.371   1.346 -0.4373  1.0162  1.1938
  284MOL0     H38281  10.415   4.205   1.347  0.6798 -1.0486  0.0160
  284MOL0     H38282  10.435   4.241   1.515 -0.8292 -1.7566  1.2472
  284MOL0     H38283  10.191   4.105   1.400  1.1201 -0.5354 -2.4555
  284MOL0     H38284  10.338   4.023   1.465  2.5449  2.4402 -3.2949
  284MOL0     H38285  10.331   4.110   1.687 -0.7413 -2.5094  0.5330
  284MOL0     H38286  10.191   4.209   1.651  1.7385  0.7575  1.8730
  284MOL0     H38287  10.165   3.906   1.640  1.0126  0.3480  0.2598
  284MOL0     H38288  10.136   3.998   1.793  3.7643 -0.9941  0.5114
  284MOL0     H38289   9.947   3.939   1.597  1.1086 -1.7223  0.2227
  284MOL0     H38290  10.002   4.104   1.552 -2.8299 -0.4144 -0.1162
  284MOL0     H38291   9.824   3.936   1.838  3.1506 -0.6223  3.5542
  284MOL0     H38292   9.752   4.108   2.130 -1.7234 -0.8085  1.0926
  284MOL0     H38293   9.652   4.216   2.043  1.0073  0.3856  0.0968
  284MOL0     H38294   9.648   3.901   1.987  3.0140  0.1127  1.0270
  284MOL0     H38295   9.534   4.020   1.940  4.5232  0.7335 -2.6589
  284MOL0     H38296   9.456   3.875   2.125  0.2460 -0.8363  0.2141
  284MOL0     H38297   9.451   4.051   2.162  0.5999  1.4556 -1.2847
  284MOL0     H38298   9.646   4.031   2.297  1.6492 -0.4437 -1.8422
  284MOL0     H38299   9.684   3.865   2.250 -0.2142 -1.6606  1.3012
  284MOL0     H38300   9.783   3.970   2.438  1.8402 -2.1215  0.5585
  284MOL0     H38301   9.954   4.009   2.562  0.0415 -1.6557 -0.8839
  284MOL0     H38302   9.918   4.047   2.736 -0.1044 -1.2574  0.4510
  284MOL0     H38303   9.982   3.885   2.676 -0.3627  0.2358 -1.1490
  284MOL0     H38304   9.873   3.681   3.096  0.0954  1.3502 -1.6534
  284MOL0     H38305   9.860   3.636   3.368 -2.0169 -2.7578  0.4815
  284MOL0     H38306   9.550   3.868   3.630 -0.4844  0.3398  1.1442
  284MOL0     H38307   9.487   3.727   3.558  0.9189 -0.9609  1.2935
  284MOL0     H38308   9.609   3.579   3.705  1.5734  1.7503 -1.6926
  284MOL0     H38309   9.684   3.720   3.787 -1.4204  2.4049  1.5848
  284MOL0     H38310   9.435   3.806   3.818 -1.1065 -0.0237 -1.2303
  284MOL0     H38311   9.497   3.667   3.918 -1.6694 -0.4402  0.8284
  284MOL0     H38312   9.307   3.651   3.683 -2.1169 -1.7451 -1.4195
  284MOL0     H38313   9.355   3.515   3.781 -1.0615 -0.3430  3.1494
  284MOL0     H38314   9.231   3.766   3.917  0.1076  0.2997 -1.0836
  284MOL0     H38315   9.270   3.598   3.979  0.4242  2.5219  2.1850
  284MOL0     H38316   9.027   3.600   3.979  0.6060  1.9004  1.3687
  284MOL0     H38317   9.021   3.679   3.821  2.5543  3.1006  2.2736
  284MOL0     H38318   9.142   3.412   3.874  0.5114  2.1194  2.7458
  284MOL0     H38319   9.108   3.486   3.711 -0.9755  2.4830  0.0857
  284MOL0     H38320   8.931   3.340   3.752  2.2578 -0.0911 -0.7900
  284MOL0     H38321   8.867   3.503   3.803  1.0873  1.9709  3.8444
  284MOL0     H38322   9.537   3.898   3.386 -2.1915  0.8807 -1.5828
  284MOL0     H38323   9.505   3.889   3.130 -0.8597  0.5194  1.0318
  284MOL0     H38324   9.500   3.777   2.795 -2.4592  0.6660 -1.0325
  284MOL0     H38325   9.428   3.764   2.575  0.6736 -2.0967 -0.4213
  284MOL0     H38326  10.671   4.454   1.247  5.1608 -2.9449  0.9528
  284MOL0     H38327  10.848   4.515   1.107 -0.3073  0.0756 -0.7129
  284MOL0     H38328  11.193   5.035   1.069  1.7974  2.2935 -0.0208
  284MOL0     H38329  11.423   5.079   0.983 -0.2163  0.2889 -0.7627
  284MOL0     H38330  11.630   4.891   1.076 -1.2826  3.3414 -1.6202
  284MOL0     H38331  11.727   4.780   0.982 -1.0309 -1.8126  2.7240
  284MOL0     H38332  11.816   5.025   1.050 -1.2687 -0.1976  0.5108
  284MOL0     H38333  11.700   5.076   0.930  1.1640  0.7622  1.0296
  284MOL0     H38334  11.792   5.050   0.761 -0.7957 -0.5750 -0.6738
  284MOL0     H38335  11.885   4.904   0.793  2.7082  1.9821 -0.0717
  284MOL0     H38336  11.976   5.188   0.899  0.3628  1.2557 -1.6211
  284MOL0     H38337  12.044   5.100   0.765 -0.3788  0.4365  1.6227
  284MOL0     H38338  12.246   4.907   1.063 -0.3409 -2.2299 -1.0572
  284MOL0     H38339  11.463   4.649   0.923  1.2567  2.2003 -0.6183
  284MOL0     H38340  11.248   4.620   1.057  0.1765  1.0627  0.8826
  285MOL0     O38341   5.843   4.230   7.875 -0.7689  0.0566 -0.1562
  285MOL0     C38342   5.946   4.174   7.840 -0.4227 -0.5275  0.1689
  285MOL0     O38343   5.965   4.110   7.718  0.2241 -0.0415 -0.2622
  285MOL0     C38344   5.859   4.115   7.635  0.3102  0.1871 -0.2610
  285MOL0     C38345   5.728   4.080   7.664 -0.1247  0.1274 -0.1810
  285MOL0     C38346   5.621   4.089   7.572  0.6487  0.1523  0.6212
  285MOL0     C38347   5.641   4.151   7.447 -0.0786 -0.4550 -0.2739
  285MOL0     O38348   5.553   4.176   7.345  0.0993  0.4002 -0.7482
  285MOL0     C38349   5.412   4.138   7.366 -0.3258 -0.3555 -0.5248
  285MOL0     C38350   5.330   4.199   7.247  0.2431  0.3959  0.5536
  285MOL0     C38351   5.172   4.170   7.257  0.0259 -1.1619 -0.6385
  285MOL0     C38352   5.113   4.264   7.361 -0.1509  0.1696  0.2351
  285MOL0     C38353   4.968   4.240   7.385  0.9704 -0.7180  0.1937
  285MOL0     C38354   4.900   4.334   7.494  0.3988 -0.7395 -0.1283
  285MOL0     C38355   4.760   4.287   7.516 -0.3464  1.0126 -0.0080
  285MOL0     C38356   4.705   4.354   7.639 -0.4108 -0.5775  0.3342
  285MOL0     N38357   4.566   4.316   7.657 -0.5416 -0.4132  0.0964
  285MOL0     C38358   4.529   4.237   7.759  0.1573  0.4788 -0.0148
  285MOL0     C38359   4.393   4.221   7.742 -0.2334  0.5590 -0.3165
  285MOL0     C38360   4.297   4.150   7.845 -0.1586  0.2495 -0.1318
  285MOL0     C38361   4.234   4.262   7.933  0.4261  0.1716  0.1557
  285MOL0     C38362   4.122   4.223   8.025  0.4168 -0.3765  0.0910
  285MOL0     C38363   4.050   4.356   8.055  0.0002  0.8552 -0.1042
  285MOL0     O38364   4.004   4.329   8.184  0.5683 -0.0117 -0.0920
  285MOL0     C38365   4.077   4.363   8.297 -0.0845  0.2797 -0.8229
  285MOL0     C38366   4.011   4.339   8.418 -0.3999  0.1209 -0.0290
  285MOL0     C38367   4.080   4.356   8.543 -0.9659  0.2165  0.5308
  285MOL0     C38368   4.006   4.343   8.665  0.5216  0.1062 -0.2424
  285MOL0     C38369   4.218   4.390   8.545  0.5267 -0.3921 -1.3618
  285MOL0     C38370   4.307   4.396   8.672  0.0119  0.5059  0.3517
  285MOL0     O38371   4.258   4.339   8.782 -0.2040  0.1060 -0.6258
  285MOL0     C38372   4.333   4.322   8.901 -0.0117  0.4397  0.5663
  285MOL0     C38373   4.472   4.336   8.916 -0.1843 -1.3167 -0.1448
  285MOL0     C38374   4.539   4.317   9.035  0.5416 -0.1347  0.2944
  285MOL0     C38375   4.461   4.292   9.150  0.3152  1.1149 -0.6051
  285MOL0     O38376   4.509   4.269   9.277  0.5683 -0.1067  0.1454
  285MOL0     C38377   4.640   4.317   9.290  0.7318  0.1282 -0.4069
  285MOL0     C38378   4.636   4.464   9.315 -0.3861  1.2081  0.7057
  285MOL0     C38379   4.740   4.513   9.430 -0.6851  0.5995  0.2328
  285MOL0     C38380   4.715   4.443   9.568 -1.0790 -0.1145 -0.4090
  285MOL0     C38381   4.774   4.523   9.681 -0.9402 -0.3238  0.1392
  285MOL0     C38382   4.924   4.508   9.670 -0.2071 -0.1215 -0.1105
  285MOL0     C38383   4.993   4.580   9.777 -0.4574  1.0333  0.0475
  285MOL0     C38384   5.146   4.579   9.763  0.2498 -0.2123 -0.1070
  285MOL0    Cl38385   5.207   4.415   9.797 -0.5375  0.0039 -0.2270
  285MOL0     C38386   4.320   4.279   9.137 -0.1121 -0.1656 -0.1529
  285MOL0     C38387   4.258   4.288   9.013 -0.0114 -0.2511  0.1068
  285MOL0     O38388   4.415   4.447   8.658  0.1552 -0.1419 -0.0300
  285MOL0     C38389   4.282   4.402   8.424  0.2383 -0.4604  0.5876
  285MOL0     C38390   4.215   4.397   8.300  0.7361  0.8288 -0.3999
  285MOL0     N38391   4.357   4.290   7.633  0.1392 -0.0487  0.2833
  285MOL0     N38392   4.462   4.353   7.579 -1.2137  0.1982 -0.0320
  285MOL0     C38393   5.772   4.183   7.419  0.0984  0.3239 -0.1172
  285MOL0     C38394   5.885   4.162   7.507 -0.7184  0.8230  0.4707
  285MOL0     C38395   6.068   4.194   7.930  1.5386  0.0537 -0.7722
  285MOL0     C38396   6.187   4.135   7.891 -0.7528  0.3674  0.2610
  285MOL0     C38397   6.297   4.152   7.976  0.0886  0.0348 -0.3552
  285MOL0     C38398   6.285   4.215   8.098  0.1042  0.3058 -0.2558
  285MOL0     O38399   6.399   4.203   8.166 -0.5256  0.7185  1.0924
  285MOL0     C38400   6.413   4.277   8.295 -0.1041 -0.1963  0.3325
  285MOL0     C38401   6.542   4.232   8.369  0.6652 -0.8823 -0.1240
  285MOL0     C38402   6.667   4.273   8.297 -0.3423 -0.2328 -0.0416
  285MOL0     C38403   6.787   4.196   8.348 -0.2749  0.2881  0.5829
  285MOL0     C38404   6.904   4.240   8.268  0.2311  0.0971 -0.6696
  285MOL0     C38405   6.998   4.266   8.201  0.1708 -0.3373 -0.7219
  285MOL0     C38406   6.164   4.290   8.137 -0.1214  0.0723  0.3588
  285MOL0     C38407   6.060   4.277   8.042 -0.1730 -0.4729 -0.9519
  285MOL0     H38408   5.699   4.043   7.762  0.9690 -3.4392 -1.0483
  285MOL0     H38409   5.524   4.059   7.609 -0.5311  1.5052 -1.2088
  285MOL0     H38410   5.411   4.031   7.388 -2.0154 -0.0553  1.1016
  285MOL0     H38411   5.366   4.181   7.455  0.7163  2.1472 -1.0966
  285MOL0     H38412   5.353   4.304   7.227 -0.4785  0.2117 -1.4745
  285MOL0     H38413   5.368   4.146   7.160 -1.8147 -0.0000 -0.1511
  285MOL0     H38414   5.126   4.174   7.158 -1.4564  0.6543  0.0744
  285MOL0     H38415   5.172   4.067   7.296 -0.6498 -1.1342 -0.5576
  285MOL0     H38416   5.171   4.250   7.453  4.2238  1.6354 -2.0187
  285MOL0     H38417   5.123   4.368   7.328  1.9262  0.0115  0.2242
  285MOL0     H38418   4.898   4.258   7.302 -1.2844  1.9520  2.4772
  285MOL0     H38419   4.958   4.137   7.421  0.9319 -1.5111 -1.9226
  285MOL0     H38420   4.951   4.327   7.590  0.3086  3.0724  0.3518
  285MOL0     H38421   4.905   4.439   7.462  4.4315 -0.9174 -0.5547
  285MOL0     H38422   4.700   4.309   7.427 -0.8780 -0.4154 -0.0321
  285MOL0     H38423   4.748   4.179   7.529 -1.2912  1.0666 -0.3920
  285MOL0     H38424   4.705   4.462   7.620 -0.5589 -0.7607 -0.7600
  285MOL0     H38425   4.759   4.321   7.728 -4.2155  1.0057  3.5251
  285MOL0     H38426   4.587   4.212   7.848  1.2041 -0.8320 -1.0283
  285MOL0     H38427   4.231   4.089   7.783  1.2589  0.8214 -2.3200
  285MOL0     H38428   4.349   4.075   7.905  0.5177  1.4412  0.8220
  285MOL0     H38429   4.192   4.334   7.862 -1.0777 -0.7534  0.0549
  285MOL0     H38430   4.323   4.311   7.974  0.8093  1.9323 -2.5633
  285MOL0     H38431   4.180   4.188   8.111  2.0995 -0.7526 -1.1346
  285MOL0     H38432   4.047   4.150   7.992 -2.0318  2.4151 -0.9145
  285MOL0     H38433   3.963   4.379   7.993 -1.9996 -4.6555  0.0820
  285MOL0     H38434   4.116   4.443   8.042 -0.7099  1.4186  0.0123
  285MOL0     H38435   3.908   4.307   8.404  0.4236 -1.3146 -4.1534
  285MOL0     H38436   4.039   4.253   8.718 -0.8830 -0.0385  0.4642
  285MOL0     H38437   4.022   4.420   8.741  2.1353 -1.6892  1.3445
  285MOL0     H38438   3.898   4.338   8.644 -0.3997  3.0530  2.8739
  285MOL0     H38439   4.536   4.384   8.841  0.7119  0.7321  1.8094
  285MOL0     H38440   4.646   4.335   9.050  0.0899 -0.2014  6.3508
  285MOL0     H38441   4.683   4.265   9.376  3.9162  4.7058  1.1939
  285MOL0     H38442   4.709   4.285   9.211  2.8949 -0.0446  1.4477
  285MOL0     H38443   4.665   4.515   9.223 -1.0224 -0.0385 -0.2124
  285MOL0     H38444   4.540   4.500   9.355 -1.5671 -0.2447 -0.7115
  285MOL0     H38445   4.731   4.622   9.437 -0.5584  0.9012 -2.9270
  285MOL0     H38446   4.846   4.504   9.402 -0.0441  1.3630  2.2472
  285MOL0     H38447   4.607   4.443   9.583 -0.7903  2.2063  2.5322
  285MOL0     H38448   4.754   4.340   9.573  1.8445  0.9153  0.0719
  285MOL0     H38449   4.752   4.472   9.775 -0.2261 -0.3190  0.3154
  285MOL0     H38450   4.745   4.627   9.692  2.1646  0.3589  4.3228
  285MOL0     H38451   4.963   4.406   9.677  2.1050  0.5946 -1.6969
  285MOL0     H38452   4.962   4.546   9.575  1.4531  3.4431  1.7853
  285MOL0     H38453   4.965   4.535   9.873 -0.7867  2.3177  0.5818
  285MOL0     H38454   4.954   4.682   9.776 -0.0936  1.1745  0.1999
  285MOL0     H38455   5.196   4.635   9.843  0.6350 -3.0789  1.8121
  285MOL0     H38456   5.184   4.618   9.668 -0.2257  1.5178  0.3857
  285MOL0     H38457   4.258   4.252   9.222  1.4140  1.0775  1.4332
  285MOL0     H38458   4.151   4.271   9.004  0.1289 -1.7309  0.9068
  285MOL0     H38459   4.388   4.425   8.433 -0.3478  2.4392  0.9296
  285MOL0     H38460   4.268   4.390   8.206  2.0969 -0.0713  0.4021
  285MOL0     H38461   5.788   4.231   7.323  0.5202 -1.5822 -1.0713
  285MOL0     H38462   5.987   4.186   7.481  0.6709 -1.9768  2.8001
  285MOL0     H38463   6.187   4.071   7.804 -0.8275  2.2558 -1.1942
  285MOL0     H38464   6.382   4.088   7.952  2.4927  2.4519  1.0991
  285MOL0     H38465   6.420   4.383   8.270  1.5531 -0.1943  0.6808
  285MOL0     H38466   6.321   4.259   8.352 -1.8233 -2.9804 -2.9116
  285MOL0     H38467   6.527   4.125   8.390  0.1510 -1.2989 -2.2889
  285MOL0     H38468   6.539   4.281   8.467 -0.3130 -0.5435 -0.3144
  285MOL0     H38469   6.678   4.379   8.319 -0.9514  0.1658 -1.5358
  285MOL0     H38470   6.661   4.252   8.190  1.6177  1.3934 -0.5346
  285MOL0     H38471   6.776   4.087   8.342 -1.6595  0.5080 -2.1314
  285MOL0     H38472   6.812   4.218   8.452 -0.1205 -0.2153  0.6601
  285MOL0     H38473   7.091   4.284   8.151  0.6443 -2.5117 -0.7269
  285MOL0     H38474   6.147   4.350   8.226 -0.0365  2.6283 -1.2458
  285MOL0     H38475   5.970   4.332   8.069  0.2880  0.2744 -0.9344
  286MOL0     O38476   7.265   3.961   5.268  0.4339 -0.5293 -0.2584
  286MOL0     C38477   7.325   3.905   5.172  0.6975 -0.3655 -0.2171
  286MOL0     O38478   7.282   3.907   5.043  0.7812 -0.5073 -0.0997
  286MOL0     C38479   7.164   3.979   5.015 -0.4583  0.3867 -0.4995
  286MOL0     C38480   7.156   4.084   4.923  0.2497 -0.1736  0.5916
  286MOL0     C38481   7.042   4.165   4.894  0.2018 -0.4560  0.0183
  286MOL0     C38482   6.920   4.136   4.969  0.6399  0.5161  0.2665
  286MOL0     O38483   6.797   4.201   4.944 -0.3933 -0.4254  0.3125
  286MOL0     C38484   6.822   4.325   4.871 -0.2657 -0.0612 -0.2267
  286MOL0     C38485   6.693   4.405   4.883 -0.5832 -0.0645 -0.3947
  286MOL0     C38486   6.582   4.360   4.791  0.1983  0.9115  0.1132
  286MOL0     C38487   6.447   4.433   4.828 -1.4265 -0.3701  0.2821
  286MOL0     C38488   6.339   4.389   4.736 -0.6699  0.1612 -0.1036
  286MOL0     C38489   6.282   4.247   4.761  0.1521 -0.3748  0.0702
  286MOL0     C38490   6.160   4.217   4.674  0.3868 -0.4333 -0.1786
  286MOL0     C38491   6.147   4.073   4.624  0.1975 -0.2240  0.2746
  286MOL0     N38492   6.012   4.050   4.559  0.6000  0.2511 -0.4840
  286MOL0     C38493   5.975   4.115   4.444 -0.1888 -0.8941  0.9374
  286MOL0     C38494   5.861   4.049   4.411  0.2344 -0.4908 -0.6448
  286MOL0     C38495   5.765   4.088   4.303 -0.1521 -0.0604  0.2405
  286MOL0     C38496   5.807   4.022   4.165  0.1434 -0.4060  0.6876
  286MOL0     C38497   5.735   4.088   4.043 -0.0751 -0.2604 -0.0836
  286MOL0     C38498   5.606   4.017   4.019 -0.2790 -0.4940  0.5479
  286MOL0     O38499   5.553   4.041   3.895  0.3960  0.4398  0.1841
  286MOL0     C38500   5.482   4.156   3.880  0.1315 -0.6744  0.1331
  286MOL0     C38501   5.402   4.161   3.762 -0.7244  0.4978 -1.3593
  286MOL0     C38502   5.322   4.269   3.729  0.5930  0.5454 -0.1776
  286MOL0     C38503   5.247   4.259   3.598  0.3171 -0.0871 -0.6275
  286MOL0     C38504   5.303   4.377   3.824 -0.4480  0.4151  0.7890
  286MOL0     C38505   5.228   4.498   3.796  0.4712  0.0994 -0.6018
  286MOL0     O38506   5.233   4.595   3.899 -0.7799  0.0615 -0.7924
  286MOL0     C38507   5.150   4.709   3.901 -0.3267 -0.5826 -0.6144
  286MOL0     C38508   5.014   4.699   3.873 -0.2933 -0.2472  0.7961
  286MOL0     C38509   4.934   4.816   3.876 -0.3737  1.0010  0.4134
  286MOL0     C38510   4.989   4.942   3.903 -0.0557 -0.2670  0.1744
  286MOL0     O38511   4.901   5.046   3.896 -0.1556 -0.2984  0.3703
  286MOL0     C38512   4.951   5.176   3.870 -0.4301 -0.7424  0.0565
  286MOL0     C38513   4.844   5.276   3.864  0.1951 -0.7331  0.0713
  286MOL0     C38514   4.753   5.241   3.746 -0.0262  0.9834  0.7547
  286MOL0     C38515   4.635   5.345   3.740 -0.1003  1.1793  0.9998
  286MOL0     C38516   4.515   5.283   3.665  0.2995  0.6725 -0.8176
  286MOL0     C38517   4.384   5.361   3.675 -0.5661 -0.3968 -0.0124
  286MOL0     C38518   4.271   5.292   3.600 -0.3984  0.3235  0.2676
  286MOL0     C38519   4.150   5.379   3.580  0.2149  0.6263 -0.4643
  286MOL0    Cl38520   4.105   5.456   3.736 -0.2856 -0.2084 -0.3441
  286MOL0     C38521   5.126   4.946   3.941  0.4015  0.4034 -0.4465
  286MOL0     C38522   5.203   4.831   3.952  0.1321  0.5911  0.0401
  286MOL0     O38523   5.156   4.515   3.697 -0.5495  0.2975 -0.5205
  286MOL0     C38524   5.387   4.375   3.940  0.9507  0.6687 -0.4465
  286MOL0     C38525   5.473   4.263   3.979 -0.3415  0.2085 -0.4268
  286MOL0     N38526   5.835   3.956   4.504  0.0840 -0.3479 -0.4594
  286MOL0     N38527   5.923   3.961   4.597  0.0834  0.4306  0.0018
  286MOL0     C38528   6.926   4.029   5.065  0.1826 -0.5885  1.4422
  286MOL0     C38529   7.043   3.958   5.086  0.4046 -0.0840  0.1523
  286MOL0     C38530   7.468   3.856   5.194  1.0587 -0.2140 -0.7918
  286MOL0     C38531   7.524   3.855   5.318 -0.4647  0.0760  0.2288
  286MOL0     C38532   7.657   3.808   5.337  0.3036 -1.0512 -0.2404
  286MOL0     C38533   7.731   3.763   5.228 -0.0193 -0.1606  0.3352
  286MOL0     O38534   7.853   3.705   5.240  0.0313  0.1666  0.2179
  286MOL0     C38535   7.938   3.720   5.361 -0.7500 -0.1116  0.3782
  286MOL0     C38536   8.085   3.694   5.332 -0.9070 -0.0095  0.3429
  286MOL0     C38537   8.106   3.549   5.289 -0.1305  0.2856 -0.1796
  286MOL0     C38538   8.048   3.440   5.372  0.0717  0.0863  0.4235
  286MOL0     C38539   8.091   3.304   5.335 -0.3832 -0.0170 -0.1645
  286MOL0     C38540   8.124   3.186   5.322  0.2457  0.2868  0.2684
  286MOL0     C38541   7.674   3.765   5.098 -0.6046  0.2411 -0.6721
  286MOL0     C38542   7.539   3.807   5.088 -0.1833 -0.3763  0.9279
  286MOL0     H38543   7.246   4.106   4.866 -0.5991  3.8512  0.5031
  286MOL0     H38544   7.062   4.245   4.824 -3.0576 -0.8667 -1.5809
  286MOL0     H38545   6.907   4.379   4.913 -0.0134 -0.7497  0.1666
  286MOL0     H38546   6.859   4.303   4.770  6.1106 -0.9394  1.8912
  286MOL0     H38547   6.651   4.404   4.984 -0.3089  1.4025 -0.2456
  286MOL0     H38548   6.715   4.512   4.869 -1.3393 -0.0422 -1.5147
  286MOL0     H38549   6.608   4.380   4.686  0.2579 -0.5246 -0.1622
  286MOL0     H38550   6.568   4.253   4.810 -2.1951  1.1897  0.2565
  286MOL0     H38551   6.423   4.399   4.929 -3.0694 -0.5402 -0.1448
  286MOL0     H38552   6.456   4.542   4.826 -2.3210 -0.3106 -1.1546
  286MOL0     H38553   6.258   4.463   4.740  1.0192  2.0255  2.1877
  286MOL0     H38554   6.365   4.392   4.629 -0.0228 -2.3881 -0.0797
  286MOL0     H38555   6.356   4.175   4.726 -1.7303 -3.9567  2.7781
  286MOL0     H38556   6.255   4.233   4.866  0.2548 -2.7944 -0.1674
  286MOL0     H38557   6.068   4.242   4.727 -0.2676  1.3740 -2.0040
  286MOL0     H38558   6.162   4.280   4.584 -0.8910  0.0703  0.1222
  286MOL0     H38559   6.151   4.019   4.719  1.8166  0.4926  0.6515
  286MOL0     H38560   6.227   4.060   4.550 -1.8940 -1.1809 -1.9730
  286MOL0     H38561   6.018   4.212   4.420 -1.8152  0.4665  3.1711
  286MOL0     H38562   5.671   4.042   4.333 -0.6741  0.7916 -0.0400
  286MOL0     H38563   5.729   4.191   4.293  0.4940 -0.0420 -2.9349
  286MOL0     H38564   5.783   3.916   4.172 -1.5149  0.0171  2.0815
  286MOL0     H38565   5.915   4.037   4.157  0.4873 -2.6557  0.4384
  286MOL0     H38566   5.798   4.075   3.954  2.2836 -0.8906  1.6012
  286MOL0     H38567   5.712   4.193   4.063  1.0602  0.4209 -2.0267
  286MOL0     H38568   5.534   4.028   4.100 -0.8713  1.9082 -0.2512
  286MOL0     H38569   5.636   3.912   4.010 -1.1456 -0.6766 -0.4053
  286MOL0     H38570   5.415   4.068   3.709  1.4311 -0.6244  0.9610
  286MOL0     H38571   5.283   4.334   3.527 -1.5615 -0.4165 -2.0046
  286MOL0     H38572   5.254   4.160   3.551 -0.5694 -1.1829  1.4045
  286MOL0     H38573   5.140   4.275   3.614  0.3958 -1.0311  1.1518
  286MOL0     H38574   4.958   4.613   3.837 -1.4609  0.4826  0.8237
  286MOL0     H38575   4.828   4.805   3.857 -1.4513  1.2304  5.0510
  286MOL0     H38576   5.015   5.202   3.956 -1.5289 -1.0175  0.9874
  286MOL0     H38577   5.013   5.188   3.781 -0.1333  2.0050  0.5458
  286MOL0     H38578   4.791   5.290   3.959 -0.7339 -0.2321 -0.5129
  286MOL0     H38579   4.889   5.373   3.841 -0.3989 -0.2987  0.7080
  286MOL0     H38580   4.715   5.139   3.753 -2.4967  1.8892  1.5197
  286MOL0     H38581   4.807   5.252   3.651 -0.4593 -0.3466  0.3323
  286MOL0     H38582   4.610   5.373   3.843 -1.6700 -2.6019  1.8013
  286MOL0     H38583   4.670   5.425   3.674 -1.6724  0.9390 -0.1951
  286MOL0     H38584   4.502   5.185   3.713  2.6200 -0.1201 -1.6709
  286MOL0     H38585   4.542   5.262   3.562  1.8838  1.5092 -0.6096
  286MOL0     H38586   4.358   5.370   3.781 -1.0941  0.7827 -0.2257
  286MOL0     H38587   4.402   5.464   3.642 -1.6818  0.0228  0.6174
  286MOL0     H38588   4.240   5.199   3.648  1.0534  1.4667  3.6988
  286MOL0     H38589   4.315   5.250   3.509  0.2092 -4.1354  2.3382
  286MOL0     H38590   4.062   5.318   3.557 -1.0390  0.8818  3.1026
  286MOL0     H38591   4.174   5.459   3.509  0.9701 -0.1301 -1.0983
  286MOL0     H38592   5.167   5.034   3.990  0.4491  0.3346 -0.3633
  286MOL0     H38593   5.303   4.834   3.993  0.1504  1.7981 -0.0356
  286MOL0     H38594   5.376   4.454   4.014  0.3138  0.9582 -0.8379
  286MOL0     H38595   5.525   4.260   4.075  1.1277  0.8682 -1.1830
  286MOL0     H38596   6.837   4.005   5.123 -1.8819  3.4540  0.3007
  286MOL0     H38597   7.032   3.883   5.163  2.9855  2.7652  3.6495
  286MOL0     H38598   7.479   3.894   5.408  1.1271 -0.9680  1.5382
  286MOL0     H38599   7.702   3.796   5.435  0.5699 -2.2579 -0.5005
  286MOL0     H38600   7.930   3.822   5.400 -0.6833  0.6186 -1.4078
  286MOL0     H38601   7.903   3.647   5.434  0.7950 -2.1713 -0.8548
  286MOL0     H38602   8.140   3.722   5.423  0.7555  0.5527 -0.7746
  286MOL0     H38603   8.112   3.756   5.247  1.1329 -0.5780  0.5077
  286MOL0     H38604   8.213   3.533   5.272 -0.4828  0.1625 -2.4787
  286MOL0     H38605   8.054   3.541   5.194  1.6772  3.5122 -1.6421
  286MOL0     H38606   7.939   3.446   5.364 -0.0445 -0.4644  1.4370
  286MOL0     H38607   8.077   3.451   5.477 -0.9634 -3.5244  1.2330
  286MOL0     H38608   8.161   3.085   5.315  0.8368  0.4064  1.4605
  286MOL0     H38609   7.738   3.716   5.024  0.3863  0.8926 -0.2623
  286MOL0     H38610   7.511   3.795   4.984 -0.8033 -1.2056  1.1767
  287MOL0     O38611   8.893   2.447   6.546  0.2931 -0.2511 -0.6887
  287MOL0     C38612   8.905   2.336   6.504  0.4537 -0.1889 -0.0411
  287MOL0     O38613   8.830   2.224   6.521  1.1124 -0.3163  0.0556
  287MOL0     C38614   8.700   2.234   6.585 -0.8384 -0.3020 -0.0050
  287MOL0     C38615   8.620   2.355   6.585 -0.2937  0.0713 -1.1299
  287MOL0     C38616   8.490   2.353   6.639 -0.4423 -0.7869 -0.1235
  287MOL0     C38617   8.435   2.233   6.689 -0.6705  1.0733  0.2237
  287MOL0     O38618   8.317   2.223   6.763 -0.7518 -0.7772  0.9980
  287MOL0     C38619   8.278   2.339   6.835 -0.7231 -0.3176  0.0539
  287MOL0     C38620   8.161   2.413   6.775  0.8312 -0.3189  0.1497
  287MOL0     C38621   8.044   2.321   6.734 -1.1043  0.0407  0.0327
  287MOL0     C38622   7.919   2.402   6.702 -0.4030  0.1546 -0.5475
  287MOL0     C38623   7.804   2.301   6.672 -0.6801 -0.4385  0.1425
  287MOL0     C38624   7.772   2.220   6.806  0.6871 -0.4910  0.2115
  287MOL0     C38625   7.642   2.144   6.800  0.2727 -0.0108 -0.0655
  287MOL0     C38626   7.531   2.246   6.847  0.0569  0.2569 -0.4594
  287MOL0     N38627   7.388   2.201   6.828 -0.0113  0.2195 -0.2619
  287MOL0     C38628   7.320   2.186   6.706 -0.1735 -0.5016  1.1161
  287MOL0     C38629   7.203   2.125   6.747  0.4364 -0.4110 -0.0722
  287MOL0     C38630   7.086   2.087   6.664 -0.7019  0.1479  0.7709
  287MOL0     C38631   7.094   1.945   6.608 -0.0833  0.0435 -0.3930
  287MOL0     C38632   7.230   1.923   6.527  0.0411 -0.0823  0.1116
  287MOL0     C38633   7.233   1.767   6.499 -0.6008 -0.2969 -0.1028
  287MOL0     O38634   7.157   1.726   6.383  0.1762  0.1365 -0.7295
  287MOL0     C38635   7.099   1.604   6.382 -1.2017 -0.6620 -0.7757
  287MOL0     C38636   6.963   1.588   6.351 -0.3175 -0.0972 -0.2293
  287MOL0     C38637   6.910   1.459   6.362 -0.1584 -0.0348  0.5294
  287MOL0     C38638   6.757   1.447   6.336 -0.4969 -1.0948 -0.4916
  287MOL0     C38639   6.983   1.343   6.406  0.7870 -0.4227 -0.1371
  287MOL0     C38640   6.929   1.200   6.423  0.6072 -0.2520  0.8597
  287MOL0     O38641   6.964   1.123   6.524 -0.1046  0.3002 -0.1824
  287MOL0     C38642   6.920   0.992   6.541 -0.5067 -0.0709  0.2549
  287MOL0     C38643   7.025   0.900   6.553  0.1665  0.6337 -0.4908
  287MOL0     C38644   6.997   0.768   6.586  0.7644  0.2951 -0.0331
  287MOL0     C38645   6.864   0.722   6.574  0.0962 -0.0185 -0.2462
  287MOL0     O38646   6.859   0.590   6.580 -0.5193  0.7623 -0.1065
  287MOL0     C38647   6.751   0.511   6.532  0.2821 -0.2134  0.3731
  287MOL0     C38648   6.804   0.370   6.504  0.2781  0.4742  0.3798
  287MOL0     C38649   6.850   0.294   6.633 -0.3440  0.6902  0.7451
  287MOL0     C38650   6.924   0.162   6.607  0.2179 -0.1389  1.0404
  287MOL0     C38651   6.935   0.089   6.747  0.1345  1.1464 -0.2349
  287MOL0     C38652   7.046  -0.018   6.737 -0.2324 -0.8170 -0.3578
  287MOL0     C38653   7.047  -0.107   6.611  0.4300 -0.6738  0.3506
  287MOL0     C38654   7.156  -0.209   6.604  0.0949 -0.0945 -0.2518
  287MOL0    Cl38655   7.141  -0.293   6.448 -0.1957  0.0682 -0.0385
  287MOL0     C38656   6.761   0.818   6.554  0.4236  0.2213  0.2583
  287MOL0     C38657   6.785   0.953   6.539 -0.6188  0.2688  0.1789
  287MOL0     O38658   6.851   1.165   6.335 -0.4143 -0.0943 -0.2621
  287MOL0     C38659   7.118   1.368   6.429  0.7626  0.7661  0.7466
  287MOL0     C38660   7.175   1.493   6.410 -0.3944  0.7801  0.2596
  287MOL0     N38661   7.206   2.104   6.880 -0.0544  0.2143 -0.0412
  287MOL0     N38662   7.314   2.154   6.934 -0.3419 -1.1866 -0.8607
  287MOL0     C38663   8.516   2.115   6.678  0.1894 -0.1679 -0.0277
  287MOL0     C38664   8.642   2.114   6.622 -0.0004  0.7468  0.2840
  287MOL0     C38665   9.018   2.318   6.417 -0.5654 -0.4962  0.3494
  287MOL0     C38666   9.135   2.393   6.439  0.1632  0.0361  0.5910
  287MOL0     C38667   9.251   2.359   6.359 -0.6877  0.0968 -0.1103
  287MOL0     C38668   9.252   2.263   6.252  0.0697 -0.4599  0.3636
  287MOL0     O38669   9.368   2.255   6.177 -0.3051  0.3984  0.1852
  287MOL0     C38670   9.389   2.128   6.106  0.5464 -0.6912 -0.0651
  287MOL0     C38671   9.515   2.125   6.030  0.7946 -0.3509  0.5372
  287MOL0     C38672   9.635   2.169   6.105  1.6401  0.1960 -0.3236
  287MOL0     C38673   9.763   2.185   6.029  0.9184  0.3701  0.3027
  287MOL0     C38674   9.801   2.057   5.970  0.7171 -0.0340 -0.0863
  287MOL0     C38675   9.846   1.960   5.918 -0.0850  0.0203  0.1179
  287MOL0     C38676   9.129   2.199   6.220 -0.2883 -0.5525  0.0028
  287MOL0     C38677   9.018   2.213   6.310  0.0150  0.7570 -0.0899
  287MOL0     H38678   8.677   2.442   6.553  3.2817 -2.2961 -1.8435
  287MOL0     H38679   8.441   2.450   6.636 -2.0180 -1.5120  0.6468
  287MOL0     H38680   8.244   2.309   6.934  0.5088  0.6440  0.8039
  287MOL0     H38681   8.354   2.415   6.856  0.7630 -1.6955 -0.1077
  287MOL0     H38682   8.122   2.486   6.847  2.0855 -1.5521  2.1927
  287MOL0     H38683   8.195   2.471   6.689  0.4673 -0.2418  0.0551
  287MOL0     H38684   8.070   2.267   6.643 -0.8257 -1.5670  1.0325
  287MOL0     H38685   8.036   2.244   6.811 -0.0071 -2.7344 -2.4298
  287MOL0     H38686   7.894   2.462   6.790 -0.7144 -1.2213  0.3217
  287MOL0     H38687   7.948   2.463   6.615  2.6363 -2.6582 -1.7184
  287MOL0     H38688   7.719   2.361   6.639 -1.8474 -0.4757  2.8035
  287MOL0     H38689   7.825   2.235   6.587 -0.4891  1.6289 -1.5121
  287MOL0     H38690   7.846   2.141   6.824  0.3421 -0.3289  2.6701
  287MOL0     H38691   7.783   2.287   6.892  3.7516 -0.0230 -0.4068
  287MOL0     H38692   7.626   2.101   6.701 -2.1168 -1.8533  1.0172
  287MOL0     H38693   7.646   2.053   6.861  1.5978 -0.6074 -0.9969
  287MOL0     H38694   7.532   2.330   6.776  3.4723  0.7096 -0.0391
  287MOL0     H38695   7.551   2.284   6.947  2.0547  1.3686 -1.2316
  287MOL0     H38696   7.365   2.221   6.613  0.4005  3.1081  2.5925
  287MOL0     H38697   6.994   2.093   6.723 -1.3734  1.2966 -0.3382
  287MOL0     H38698   7.088   2.154   6.578 -0.0125 -2.9145 -1.7673
  287MOL0     H38699   7.007   1.927   6.545 -1.2317 -2.7927  1.7858
  287MOL0     H38700   7.091   1.876   6.693 -0.1858  0.2941 -0.1915
  287MOL0     H38701   7.318   1.957   6.582  0.6112  0.0146 -0.8439
  287MOL0     H38702   7.228   1.983   6.435 -0.5019 -1.1651 -0.6060
  287MOL0     H38703   7.197   1.718   6.589 -1.1974 -2.5772 -1.5014
  287MOL0     H38704   7.336   1.739   6.476 -1.1409  0.2366 -3.9680
  287MOL0     H38705   6.913   1.682   6.331 -0.7171 -0.6498 -1.9680
  287MOL0     H38706   6.725   1.398   6.429 -1.8769 -1.4466 -1.1295
  287MOL0     H38707   6.712   1.547   6.325  0.7992 -0.3233  0.7959
  287MOL0     H38708   6.727   1.396   6.244 -2.4856  3.0253 -2.3990
  287MOL0     H38709   7.124   0.943   6.547  0.8571 -0.6594  1.0077
  287MOL0     H38710   7.076   0.694   6.597  0.1493 -0.3570  0.0233
  287MOL0     H38711   6.676   0.502   6.611 -0.0103 -0.1961  0.0992
  287MOL0     H38712   6.711   0.559   6.442  0.4058 -1.4588 -0.3646
  287MOL0     H38713   6.718   0.315   6.466  0.9149 -0.3154  0.0699
  287MOL0     H38714   6.880   0.386   6.428 -0.4465  0.0998 -0.4325
  287MOL0     H38715   6.761   0.265   6.690 -0.8868  0.4870 -0.1727
  287MOL0     H38716   6.913   0.364   6.689 -2.3754  2.6503  0.7110
  287MOL0     H38717   6.865   0.110   6.532  1.5186 -0.5993  0.3036
  287MOL0     H38718   7.024   0.186   6.569 -0.0104  2.0798  1.6687
  287MOL0     H38719   6.838   0.042   6.767  0.3891  0.4297 -0.6896
  287MOL0     H38720   6.958   0.146   6.838 -1.9328  0.1102  1.0163
  287MOL0     H38721   7.144   0.032   6.736  0.8826 -2.8807 -0.2446
  287MOL0     H38722   7.044  -0.085   6.824 -0.9985 -0.9132 -0.4468
  287MOL0     H38723   7.076  -0.050   6.522  0.5153 -1.3160 -0.0378
  287MOL0     H38724   6.947  -0.146   6.591 -1.9905  4.9098 -0.5124
  287MOL0     H38725   7.143  -0.275   6.690 -0.5559 -1.7948 -1.5968
  287MOL0     H38726   7.249  -0.152   6.599 -1.0364  1.7574 -1.7312
  287MOL0     H38727   6.656   0.790   6.558  0.4096  0.3101  0.5541
  287MOL0     H38728   6.713   1.033   6.523  2.5335  3.6033  1.3700
  287MOL0     H38729   7.173   1.279   6.459  0.4939 -0.3785 -1.7926
  287MOL0     H38730   7.282   1.497   6.428 -0.5954  3.2645  1.3675
  287MOL0     H38731   8.484   2.023   6.727 -1.0231  0.0773 -0.3195
  287MOL0     H38732   8.692   2.019   6.635 -0.3104  0.5666  0.1797
  287MOL0     H38733   9.135   2.476   6.510 -1.8271  0.7251 -0.1546
  287MOL0     H38734   9.346   2.405   6.384 -0.6423  1.5656 -2.6312
  287MOL0     H38735   9.382   2.049   6.181 -0.2772  0.2478  0.8852
  287MOL0     H38736   9.304   2.112   6.038  1.6347 -3.0837 -0.9763
  287MOL0     H38737   9.508   2.184   5.939  1.5784 -1.7335 -0.4627
  287MOL0     H38738   9.528   2.021   5.998 -0.2195 -0.1563 -0.5518
  287MOL0     H38739   9.641   2.099   6.189 -4.8940  0.2626  0.6782
  287MOL0     H38740   9.613   2.267   6.147 -1.6260 -0.3106 -0.5917
  287MOL0     H38741   9.832   2.226   6.103  0.8076  0.8999  0.1200
  287MOL0     H38742   9.751   2.258   5.948  3.0791  0.0353 -0.3727
  287MOL0     H38743   9.901   1.878   5.877  1.9034  0.8014  1.0475
  287MOL0     H38744   9.128   2.134   6.133 -0.8075  0.5990 -0.8867
  287MOL0     H38745   8.927   2.156   6.294  0.4224  0.1898 -0.4245
  288MOL0     O38746   3.964   2.648   8.009 -0.0451  1.0206 -0.2540
  288MOL0     C38747   4.069   2.614   8.066 -0.6752  0.3184 -0.5100
  288MOL0     O38748   4.083   2.506   8.151  0.4255 -0.2755  0.3737
  288MOL0     C38749   3.971   2.457   8.213  0.3439  0.1921  0.3176
  288MOL0     C38750   3.872   2.392   8.140  0.1820 -0.0236 -0.2834
  288MOL0     C38751   3.765   2.329   8.208  0.6555  0.7106  0.3227
  288MOL0     C38752   3.751   2.345   8.346  0.2698  0.2777 -0.8625
  288MOL0     O38753   3.656   2.283   8.427 -0.6771 -0.6681 -0.6275
  288MOL0     C38754   3.566   2.196   8.359 -0.9529  0.2085 -0.6002
  288MOL0     C38755   3.472   2.125   8.459 -0.8703  0.1170 -0.4171
  288MOL0     C38756   3.412   2.012   8.390 -0.4755  0.2912  0.2516
  288MOL0     C38757   3.304   1.938   8.474 -0.7757  0.1381  0.6076
  288MOL0     C38758   3.256   1.817   8.394  0.0917  0.5187 -0.1413
  288MOL0     C38759   3.180   1.731   8.489  0.2212  1.9981 -0.4265
  288MOL0     C38760   3.129   1.595   8.435 -0.1510 -0.1522 -0.3064
  288MOL0     C38761   3.032   1.612   8.315 -0.4797 -0.5729  0.5697
  288MOL0     N38762   3.024   1.483   8.241  0.7168  0.1148 -0.0742
  288MOL0     C38763   2.957   1.375   8.288  0.3299 -0.1973 -0.3187
  288MOL0     C38764   2.949   1.289   8.179  0.3789 -0.6046 -0.4931
  288MOL0     C38765   2.866   1.161   8.171  0.4114 -0.8418 -0.6841
  288MOL0     C38766   2.732   1.181   8.240  0.1778 -0.6625  0.1300
  288MOL0     C38767   2.621   1.085   8.185  0.5794 -0.6285 -0.9994
  288MOL0     C38768   2.478   1.137   8.209 -0.4465  0.5497  0.3175
  288MOL0     O38769   2.432   1.136   8.347 -0.0661  0.3848 -0.6335
  288MOL0     C38770   2.302   1.174   8.388  0.1898  0.4461  0.0526
  288MOL0     C38771   2.202   1.217   8.304 -0.0225 -0.2770  0.7481
  288MOL0     C38772   2.079   1.273   8.346  0.3368  0.0497 -0.3175
  288MOL0     C38773   1.986   1.330   8.239 -0.5497  0.1137  0.6312
  288MOL0     C38774   2.068   1.292   8.488  0.6555  0.1174 -0.0398
  288MOL0     C38775   1.944   1.361   8.546  0.0635  0.5188 -0.3244
  288MOL0     O38776   1.832   1.382   8.463 -0.5633 -0.4162  0.6951
  288MOL0     C38777   1.708   1.429   8.511  0.5380 -1.1553  0.3696
  288MOL0     C38778   1.636   1.387   8.620  0.6804  0.3019  0.3806
  288MOL0     C38779   1.522   1.462   8.664  0.1370  0.3753  0.0955
  288MOL0     C38780   1.475   1.572   8.597 -0.0474  1.3357  0.1152
  288MOL0     O38781   1.375   1.650   8.646 -0.1946  0.1149 -0.4539
  288MOL0     C38782   1.418   1.745   8.741 -0.6527  0.3221  0.2103
  288MOL0     C38783   1.296   1.779   8.839  0.0714 -0.1531 -0.4256
  288MOL0     C38784   1.171   1.835   8.763  0.3794 -0.6818 -0.5598
  288MOL0     C38785   1.062   1.858   8.878 -0.7730  0.2648  0.5104
  288MOL0     C38786   0.927   1.902   8.823 -0.1156  0.3509  0.4273
  288MOL0     C38787   0.920   2.041   8.762  0.1136 -0.0051 -0.3430
  288MOL0     C38788   0.780   2.083   8.715 -0.3027  0.6466 -0.5918
  288MOL0     C38789   0.780   2.221   8.657 -0.1127 -0.0923 -0.2071
  288MOL0    Cl38790   0.617   2.261   8.599 -0.1585  0.2605 -0.2359
  288MOL0     C38791   1.536   1.600   8.472 -0.0548 -0.2688 -0.8299
  288MOL0     C38792   1.654   1.533   8.439 -0.3875  0.2345 -0.4852
  288MOL0     O38793   1.949   1.388   8.667  0.5864  0.2520  0.5711
  288MOL0     C38794   2.172   1.257   8.568  0.7197  0.1794  0.0819
  288MOL0     C38795   2.289   1.191   8.524 -0.5545 -0.1966  0.1642
  288MOL0     N38796   3.032   1.335   8.070  0.5060 -0.3116 -0.3331
  288MOL0     N38797   3.065   1.459   8.111  0.0040  0.0496  0.4793
  288MOL0     C38798   3.849   2.416   8.415 -0.2045 -0.5793 -0.1924
  288MOL0     C38799   3.960   2.463   8.352  0.1041 -0.4977  0.1139
  288MOL0     C38800   4.179   2.696   8.016  0.7328  0.7873 -0.3953
  288MOL0     C38801   4.291   2.672   8.092  0.8837 -0.1319 -0.4041
  288MOL0     C38802   4.406   2.746   8.065  0.1019 -0.9354  0.8713
  288MOL0     C38803   4.404   2.848   7.968  0.7847 -0.2691  0.4540
  288MOL0     O38804   4.509   2.933   7.957  0.5309 -0.0244  0.1472
  288MOL0     C38805   4.637   2.874   7.921  0.8094 -0.1644 -0.1687
  288MOL0     C38806   4.680   2.891   7.773 -0.7468 -0.3443 -1.1427
  288MOL0     C38807   4.656   3.030   7.720  0.5821 -0.2820 -0.4659
  288MOL0     C38808   4.759   3.125   7.785 -0.4612  0.5636 -0.6677
  288MOL0     C38809   4.746   3.260   7.733  0.0857 -0.4551 -0.0537
  288MOL0     C38810   4.753   3.383   7.717  0.8373  0.8476 -0.0634
  288MOL0     C38811   4.287   2.886   7.902  0.3762 -0.5848 -1.0907
  288MOL0     C38812   4.174   2.803   7.920 -0.7386  0.2211  0.2037
  288MOL0     H38813   3.881   2.375   8.033  1.9231  1.0931 -0.3552
  288MOL0     H38814   3.690   2.287   8.142 -1.9399  0.9347  2.9467
  288MOL0     H38815   3.514   2.254   8.282  1.8116 -0.4969 -3.1949
  288MOL0     H38816   3.624   2.119   8.308 -0.1844 -0.2799  0.9663
  288MOL0     H38817   3.527   2.110   8.553  0.8166  2.0106 -1.0246
  288MOL0     H38818   3.398   2.198   8.494 -2.7984 -1.7611 -0.3603
  288MOL0     H38819   3.370   2.045   8.295 -0.5159  0.2910  0.2691
  288MOL0     H38820   3.499   1.945   8.383  0.0627  0.9187  0.7969
  288MOL0     H38821   3.347   1.900   8.567  0.2334 -1.6450 -0.5367
  288MOL0     H38822   3.215   1.997   8.497 -1.6923 -1.7896  2.3062
  288MOL0     H38823   3.191   1.852   8.312 -0.8476 -1.4615 -0.3125
  288MOL0     H38824   3.332   1.747   8.359 -1.5157 -1.7998  0.7400
  288MOL0     H38825   3.239   1.697   8.575 -0.7743  0.8415 -0.1733
  288MOL0     H38826   3.095   1.787   8.527 -0.8459  0.0673  0.1716
  288MOL0     H38827   3.214   1.549   8.385  0.9789  3.8851 -2.5775
  288MOL0     H38828   3.067   1.541   8.508 -1.6631 -0.1512 -1.5355
  288MOL0     H38829   3.069   1.688   8.245 -1.0484 -1.9310 -1.2844
  288MOL0     H38830   2.932   1.631   8.354 -1.6162 -1.2609 -1.8143
  288MOL0     H38831   2.904   1.379   8.383  2.9006 -1.3999  1.2506
  288MOL0     H38832   2.844   1.135   8.067 -0.9087 -0.8075 -0.4400
  288MOL0     H38833   2.926   1.076   8.205  1.2250  0.6308  1.8089
  288MOL0     H38834   2.703   1.286   8.231  0.7559 -0.5331 -0.2757
  288MOL0     H38835   2.746   1.157   8.346 -0.6817 -3.9049 -0.3893
  288MOL0     H38836   2.623   0.991   8.240 -1.7000  1.0826  2.3398
  288MOL0     H38837   2.640   1.062   8.080  0.9035 -0.2712 -1.0229
  288MOL0     H38838   2.414   1.077   8.144 -1.7878  3.4167 -1.1822
  288MOL0     H38839   2.470   1.238   8.168  1.1960  0.5745  0.0002
  288MOL0     H38840   2.222   1.212   8.197  1.6190 -0.2386  1.0141
  288MOL0     H38841   2.009   1.288   8.140 -1.5773  1.3965 -0.1736
  288MOL0     H38842   1.881   1.307   8.256  0.1330 -2.5602  1.8633
  288MOL0     H38843   1.992   1.438   8.252 -2.6573  0.3119  0.3093
  288MOL0     H38844   1.660   1.298   8.678 -0.2156 -0.2514 -0.0810
  288MOL0     H38845   1.452   1.417   8.733 -1.6669  0.7961 -1.3885
  288MOL0     H38846   1.503   1.716   8.803  1.3079  1.5886 -1.7337
  288MOL0     H38847   1.454   1.830   8.682  1.5543 -1.1224 -0.6971
  288MOL0     H38848   1.261   1.695   8.899 -3.3614  0.3836 -1.4624
  288MOL0     H38849   1.339   1.848   8.912 -0.8211  0.6104 -0.6085
  288MOL0     H38850   1.129   1.761   8.695  0.3218 -1.5796  0.4342
  288MOL0     H38851   1.194   1.935   8.725 -1.2256  0.2912  0.8965
  288MOL0     H38852   1.051   1.762   8.931  3.6847 -1.5730 -1.4386
  288MOL0     H38853   1.105   1.930   8.948 -0.0460 -2.7472  3.4803
  288MOL0     H38854   0.857   1.909   8.907  1.7330 -0.5633  2.1211
  288MOL0     H38855   0.887   1.836   8.745  2.9999  0.6605 -1.6030
  288MOL0     H38856   0.961   2.104   8.841  0.3339 -3.1490  2.2289
  288MOL0     H38857   0.998   2.042   8.685  1.3463  0.5709  0.8660
  288MOL0     H38858   0.713   2.076   8.801  1.7527  1.0346  1.1350
  288MOL0     H38859   0.745   2.022   8.631 -0.5939  0.4385 -0.3183
  288MOL0     H38860   0.858   2.235   8.581  0.0013  1.5274  0.1679
  288MOL0     H38861   0.803   2.301   8.728 -1.4131 -0.8472  1.1129
  288MOL0     H38862   1.495   1.685   8.418  1.3972  0.0363 -1.4692
  288MOL0     H38863   1.700   1.558   8.344  1.2171 -2.1196 -0.4177
  288MOL0     H38864   2.159   1.276   8.674  1.4833 -3.2440  0.9205
  288MOL0     H38865   2.366   1.169   8.598 -0.6940 -3.2276 -0.4532
  288MOL0     H38866   3.854   2.434   8.522  1.4525 -0.6565 -0.2235
  288MOL0     H38867   4.042   2.513   8.404 -1.1887  0.1526  1.5861
  288MOL0     H38868   4.299   2.595   8.169  2.0441  1.0633  0.7247
  288MOL0     H38869   4.495   2.722   8.122  2.6095  0.2393 -2.2099
  288MOL0     H38870   4.714   2.921   7.982  0.8862 -1.9180  1.1806
  288MOL0     H38871   4.641   2.767   7.942  2.2930 -0.3382 -1.1451
  288MOL0     H38872   4.621   2.819   7.716  0.5779 -1.4583 -1.1799
  288MOL0     H38873   4.781   2.849   7.775 -1.1587 -1.5836  2.6498
  288MOL0     H38874   4.557   3.071   7.740  0.7580 -0.0889  0.0442
  288MOL0     H38875   4.660   3.029   7.611 -4.7605 -1.0759 -0.8951
  288MOL0     H38876   4.855   3.078   7.761 -0.7264  1.0433 -2.9027
  288MOL0     H38877   4.738   3.125   7.892 -3.2145 -0.5442 -1.1330
  288MOL0     H38878   4.755   3.490   7.707  0.3983  0.6296 -3.4280
  288MOL0     H38879   4.288   2.966   7.829  1.3650 -0.9157 -1.4446
  288MOL0     H38880   4.077   2.823   7.877 -0.0687  1.9930 -0.5405
  289MOL0     O38881   6.796   3.681   7.293  0.4316 -0.3138  0.5713
  289MOL0     C38882   6.829   3.795   7.252  0.7286 -0.4080 -0.3908
  289MOL0     O38883   6.943   3.864   7.283 -0.2737  0.6957 -0.4857
  289MOL0     C38884   7.048   3.813   7.355  0.0023 -0.0193 -0.9918
  289MOL0     C38885   7.159   3.901   7.351 -0.4469 -0.1588 -0.5600
  289MOL0     C38886   7.285   3.856   7.383 -0.7825  0.9714 -0.4669
  289MOL0     C38887   7.305   3.725   7.432  0.6965  0.1483  0.5883
  289MOL0     O38888   7.423   3.670   7.476  0.7683 -0.2677  0.0328
  289MOL0     C38889   7.511   3.758   7.552  0.2474  0.1258  0.8349
  289MOL0     C38890   7.635   3.782   7.469  0.2096 -0.4386 -0.7638
  289MOL0     C38891   7.745   3.839   7.558 -0.5493 -0.3962 -0.9374
  289MOL0     C38892   7.866   3.879   7.478  0.3335  0.2253  0.6087
  289MOL0     C38893   7.918   3.766   7.384 -0.1610  0.2111 -0.3630
  289MOL0     C38894   8.065   3.790   7.336 -0.1030 -0.0365  0.0725
  289MOL0     C38895   8.120   3.662   7.277 -0.5019  0.3193 -0.4307
  289MOL0     C38896   8.266   3.688   7.243  0.8377  0.1783  0.2858
  289MOL0     N38897   8.362   3.715   7.353 -0.3324 -0.3151  0.1137
  289MOL0     C38898   8.424   3.837   7.363 -0.0534  0.0668 -1.0462
  289MOL0     C38899   8.521   3.807   7.451 -0.5552 -0.0503  0.9872
  289MOL0     C38900   8.622   3.898   7.512 -0.8158 -0.3363  0.3449
  289MOL0     C38901   8.739   3.917   7.413  0.0537  0.3340  0.2235
  289MOL0     C38902   8.809   3.788   7.390  0.0165 -0.0498 -0.7593
  289MOL0     C38903   8.928   3.769   7.485  0.8579 -0.5103 -0.2087
  289MOL0     O38904   9.014   3.885   7.473 -0.3812  0.3187  0.0096
  289MOL0     C38905   9.111   3.899   7.571  0.7082 -0.2398  0.5603
  289MOL0     C38906   9.190   4.018   7.573  0.0950 -0.3802  0.4554
  289MOL0     C38907   9.303   4.040   7.660  0.3899 -0.1720  0.8594
  289MOL0     C38908   9.382   4.172   7.656  0.5252  0.6411 -0.1650
  289MOL0     C38909   9.337   3.929   7.749  0.6956  0.9281 -0.6457
  289MOL0     C38910   9.447   3.939   7.853 -0.4099  0.9626 -0.3063
  289MOL0     O38911   9.502   3.821   7.887 -0.1356  0.2050  0.0555
  289MOL0     C38912   9.610   3.830   7.972  0.6761 -0.5253  0.5105
  289MOL0     C38913   9.740   3.834   7.933 -0.1221 -0.2816 -0.1473
  289MOL0     C38914   9.852   3.857   8.015  0.2561  0.9981 -0.3112
  289MOL0     C38915   9.825   3.904   8.145  0.5696  0.3049  0.7728
  289MOL0     O38916   9.937   3.928   8.222  0.4906 -0.6420  0.3975
  289MOL0     C38917   9.906   4.017   8.329 -0.6527  0.8770 -0.2078
  289MOL0     C38918  10.036   4.079   8.369  0.7496 -0.2690  0.3349
  289MOL0     C38919  10.125   3.980   8.449  0.1412 -0.4550  0.1746
  289MOL0     C38920  10.254   4.055   8.509 -0.6132 -0.4834  0.4886
  289MOL0     C38921  10.345   3.960   8.585 -0.3709 -0.3657 -0.0192
  289MOL0     C38922  10.453   4.034   8.661 -0.6724  0.5547 -0.1249
  289MOL0     C38923  10.502   3.957   8.781  0.0111  0.2357 -0.5445
  289MOL0     C38924  10.609   3.853   8.748  0.9392 -0.5700 -0.0866
  289MOL0    Cl38925  10.526   3.700   8.682  0.2632  0.3025  0.1095
  289MOL0     C38926   9.693   3.892   8.197  0.7065  0.3783 -0.5766
  289MOL0     C38927   9.586   3.858   8.104  0.7660  0.2949  0.4377
  289MOL0     O38928   9.479   4.050   7.898 -0.2867 -0.7272  0.5505
  289MOL0     C38929   9.250   3.812   7.753 -0.1980  0.2374  0.0888
  289MOL0     C38930   9.141   3.802   7.663  0.4188 -0.5756  0.4330
  289MOL0     N38931   8.512   3.680   7.496 -0.0953  0.2220  0.5306
  289MOL0     N38932   8.410   3.626   7.438 -0.0314  0.6417 -0.5247
  289MOL0     C38933   7.191   3.638   7.432  0.1697 -0.1767 -0.1241
  289MOL0     C38934   7.066   3.682   7.403  1.1083 -0.2466  0.6344
  289MOL0     C38935   6.738   3.874   7.154  0.8361  0.5139 -0.5289
  289MOL0     C38936   6.780   3.996   7.105  0.0927 -0.6291 -0.2054
  289MOL0     C38937   6.697   4.078   7.016  0.4993  0.5811  0.5547
  289MOL0     C38938   6.562   4.036   6.977 -0.5099 -0.5063 -1.3687
  289MOL0     O38939   6.494   4.115   6.891  0.8371  0.1762 -0.6299
  289MOL0     C38940   6.348   4.094   6.911 -0.1569 -0.1329  0.2592
  289MOL0     C38941   6.271   4.214   6.874 -0.2611 -0.2329  0.1941
  289MOL0     C38942   6.123   4.197   6.884  0.3488  0.4074 -0.0370
  289MOL0     C38943   6.067   4.103   6.771  0.0283  0.0364 -0.6023
  289MOL0     C38944   6.060   3.969   6.829 -0.0639  0.0744 -1.2341
  289MOL0     C38945   6.050   3.863   6.882  0.3161  0.0479  0.4502
  289MOL0     C38946   6.531   3.907   7.031  1.3661  0.1759  0.8450
  289MOL0     C38947   6.612   3.824   7.114 -0.0193  0.4332 -0.0402
  289MOL0     H38948   7.146   4.004   7.318  3.0591  0.0560 -1.6696
  289MOL0     H38949   7.367   3.927   7.384  0.3026 -0.2425  1.0078
  289MOL0     H38950   7.451   3.843   7.585 -0.7758 -0.5823  0.8401
  289MOL0     H38951   7.552   3.701   7.635 -0.6279 -1.4595  0.2093
  289MOL0     H38952   7.665   3.691   7.417  1.1464 -1.6569  1.7118
  289MOL0     H38953   7.609   3.852   7.389  2.1636  2.0670  0.6388
  289MOL0     H38954   7.724   3.924   7.623  1.1366 -0.7056  0.0543
  289MOL0     H38955   7.781   3.755   7.619 -1.7420 -2.0316 -2.3740
  289MOL0     H38956   7.832   3.965   7.420  1.2320  0.2530  0.1030
  289MOL0     H38957   7.946   3.910   7.546  0.6327  1.1166 -0.1337
  289MOL0     H38958   7.924   3.667   7.431 -2.1407  1.1185  1.9855
  289MOL0     H38959   7.851   3.748   7.299 -0.7414 -0.0033  0.1360
  289MOL0     H38960   8.072   3.881   7.275 -0.0014  1.9290  2.8179
  289MOL0     H38961   8.130   3.817   7.420  1.1996 -0.8443 -0.6506
  289MOL0     H38962   8.114   3.581   7.351  1.4056 -0.3558 -0.9727
  289MOL0     H38963   8.063   3.629   7.190 -0.2679 -4.2014  0.8601
  289MOL0     H38964   8.257   3.771   7.172 -0.5651 -1.4107 -1.5177
  289MOL0     H38965   8.302   3.603   7.185  1.6010  1.2032 -0.7814
  289MOL0     H38966   8.395   3.929   7.315 -1.6418 -0.3860 -1.0003
  289MOL0     H38967   8.568   3.990   7.535  0.3377  1.4727 -3.4043
  289MOL0     H38968   8.651   3.853   7.607 -1.3942 -1.0180  0.2113
  289MOL0     H38969   8.809   3.995   7.444 -0.6667  1.9098 -1.8736
  289MOL0     H38970   8.697   3.961   7.321 -1.3882  1.1554  1.2248
  289MOL0     H38971   8.855   3.784   7.291 -0.7195 -3.0413 -1.0906
  289MOL0     H38972   8.740   3.703   7.389  1.2381 -1.0743 -1.4384
  289MOL0     H38973   8.983   3.677   7.462  2.1112 -0.0502  0.8257
  289MOL0     H38974   8.897   3.764   7.590 -3.1386  2.6081 -1.0361
  289MOL0     H38975   9.169   4.100   7.505  0.3760 -0.0992  0.7005
  289MOL0     H38976   9.388   4.223   7.753  2.7593 -2.5108  1.5611
  289MOL0     H38977   9.488   4.146   7.648  0.4569 -0.9561  2.6993
  289MOL0     H38978   9.342   4.236   7.577  1.6678  0.3948 -0.9626
  289MOL0     H38979   9.760   3.825   7.826  1.1108 -1.4141  0.1533
  289MOL0     H38980   9.954   3.848   7.979  0.4484  4.4588 -1.0448
  289MOL0     H38981   9.835   4.098   8.309 -2.1008 -0.8227 -2.3785
  289MOL0     H38982   9.870   3.960   8.415 -1.6358  0.9640 -0.5509
  289MOL0     H38983  10.085   4.124   8.282 -1.9452  0.7677 -0.7413
  289MOL0     H38984  10.026   4.167   8.433  0.4975 -0.3660  0.4285
  289MOL0     H38985  10.157   3.901   8.381 -0.9015 -0.7096 -0.0364
  289MOL0     H38986  10.062   3.933   8.525 -1.1712 -1.5199 -1.5052
  289MOL0     H38987  10.301   4.108   8.425 -1.5598 -1.0663 -0.4380
  289MOL0     H38988  10.213   4.131   8.576  0.0659 -0.0120  0.3743
  289MOL0     H38989  10.386   3.885   8.516 -1.1192 -0.2008 -0.6495
  289MOL0     H38990  10.279   3.904   8.652 -2.0248  0.0943 -1.2154
  289MOL0     H38991  10.537   4.058   8.596 -0.3508  2.5028  0.9454
  289MOL0     H38992  10.415   4.129   8.700  1.2675  1.7688 -1.0629
  289MOL0     H38993  10.421   3.906   8.834 -0.2894  1.1385 -0.1232
  289MOL0     H38994  10.550   4.030   8.847 -2.9960  2.3423 -0.5200
  289MOL0     H38995  10.668   3.823   8.835  1.0680 -0.6039 -0.1840
  289MOL0     H38996  10.671   3.894   8.668 -2.5095  0.5291 -2.4418
  289MOL0     H38997   9.671   3.913   8.301 -1.9707  2.5036 -1.4487
  289MOL0     H38998   9.486   3.870   8.143  0.7907 -2.3684  1.4748
  289MOL0     H38999   9.274   3.729   7.818  0.1845  0.6660  0.5086
  289MOL0     H39000   9.088   3.707   7.661 -0.6935 -0.0295 -3.0553
  289MOL0     H39001   7.214   3.536   7.463  1.1853 -0.5084 -1.8744
  289MOL0     H39002   6.993   3.602   7.401 -0.0921  0.8019  0.4460
  289MOL0     H39003   6.873   4.041   7.137 -0.3408 -0.0140  0.2157
  289MOL0     H39004   6.734   4.174   6.981  1.4429 -0.8145 -2.6710
  289MOL0     H39005   6.327   4.016   6.837  3.8624  0.5763 -1.9633
  289MOL0     H39006   6.333   4.055   7.011 -2.3816 -1.5749 -0.5610
  289MOL0     H39007   6.296   4.239   6.771  1.4582  0.5943  0.7770
  289MOL0     H39008   6.304   4.294   6.941  0.5909 -1.3015  1.0832
  289MOL0     H39009   6.079   4.296   6.865 -0.9147 -0.4658 -2.0365
  289MOL0     H39010   6.101   4.157   6.984 -0.5473 -2.7941 -1.3990
  289MOL0     H39011   6.139   4.089   6.689  1.6057 -1.4188  0.9530
  289MOL0     H39012   5.969   4.132   6.733  0.7113  0.3588 -2.1923
  289MOL0     H39013   6.037   3.776   6.943 -0.0123  0.3120  0.7637
  289MOL0     H39014   6.428   3.874   7.015  0.7928  1.8167  0.9491
  289MOL0     H39015   6.582   3.721   7.135 -2.1642  1.0051 -0.1027
  290MOL0     O39016   4.681  10.184  10.964 -0.5436 -0.2312 -0.3404
  290MOL0     C39017   4.668  10.170  11.088  0.1714  0.7879  0.4831
  290MOL0     O39018   4.549  10.163  11.153 -0.6443  0.1618 -0.3318
  290MOL0     C39019   4.434  10.171  11.083  0.6226 -0.6947 -0.4545
  290MOL0     C39020   4.368  10.051  11.072  0.3430  1.0835 -0.2533
  290MOL0     C39021   4.244  10.033  11.012  0.5714 -0.4979  1.3172
  290MOL0     C39022   4.198  10.148  10.947  1.6626  0.3260  0.2964
  290MOL0     O39023   4.097  10.136  10.850 -0.7286  0.2427  0.3352
  290MOL0     C39024   3.975  10.065  10.870 -0.0490  0.6548  0.0373
  290MOL0     C39025   3.883  10.111  10.981 -0.7186 -0.5422 -0.6157
  290MOL0     C39026   3.745  10.026  10.980 -0.3556  0.0421  0.2608
  290MOL0     C39027   3.660  10.073  11.103  0.0849  0.5862  0.3400
  290MOL0     C39028   3.517  10.024  11.102  0.7472  0.0076 -0.0969
  290MOL0     C39029   3.429  10.102  11.205 -1.1616 -0.4260 -0.0959
  290MOL0     C39030   3.308  10.025  11.249  0.1924 -0.2167 -0.1413
  290MOL0     C39031   3.195  10.023  11.145 -0.0205 -0.0245 -0.4594
  290MOL0     N39032   3.101   9.917  11.187 -0.9398 -0.1445  0.1924
  290MOL0     C39033   2.975   9.911  11.225 -0.8455  0.8188 -0.8493
  290MOL0     C39034   2.941   9.779  11.236 -0.1914 -0.0101 -1.2147
  290MOL0     C39035   2.801   9.724  11.248  0.2575  0.3215  0.0605
  290MOL0     C39036   2.748   9.678  11.382  0.2083  0.6694  0.7260
  290MOL0     C39037   2.735   9.798  11.484  0.3230 -0.8150  0.6337
  290MOL0     C39038   2.646   9.914  11.451 -0.1386 -0.0679  1.2998
  290MOL0     O39039   2.529   9.865  11.385  0.0103  0.3865 -0.1825
  290MOL0     C39040   2.422   9.809  11.449 -0.3762  0.0937  0.4785
  290MOL0     C39041   2.326   9.749  11.370 -0.2410  1.1770 -0.1286
  290MOL0     C39042   2.201   9.702  11.419 -1.0282 -0.5795 -0.1716
  290MOL0     C39043   2.099   9.656  11.323  0.1794 -0.8590  0.1711
  290MOL0     C39044   2.182   9.702  11.562  0.0847  0.3141 -0.1013
  290MOL0     C39045   2.071   9.638  11.629 -0.0014 -0.3187 -0.0025
  290MOL0     O39046   2.048   9.676  11.761 -0.0802  0.1876  0.8168
  290MOL0     C39047   1.945   9.637  11.837  1.1813  0.0448 -0.0857
  290MOL0     C39048   1.822   9.606  11.794  0.1596  0.0243 -1.4015
  290MOL0     C39049   1.721   9.563  11.877  0.1433 -0.0410  0.3227
  290MOL0     C39050   1.739   9.567  12.017  0.5022  0.0997  1.0447
  290MOL0     O39051   1.633   9.546  12.108 -0.0086 -0.1189  0.3133
  290MOL0     C39052   1.510   9.485  12.068  0.0851  0.6209 -0.6660
  290MOL0     C39053   1.471   9.394  12.183 -0.0048 -0.1461  1.3392
  290MOL0     C39054   1.396   9.279  12.117  0.2183  0.1864  0.0692
  290MOL0     C39055   1.256   9.329  12.054  0.4649 -0.2704 -0.2190
  290MOL0     C39056   1.157   9.208  12.052  0.3990  0.2895  0.4764
  290MOL0     C39057   1.011   9.232  11.995  0.2516 -0.1371 -0.0886
  290MOL0     C39058   0.931   9.314  12.094  0.1354 -0.1823 -0.4809
  290MOL0     C39059   0.786   9.334  12.044 -0.0892 -0.8148  0.0189
  290MOL0    Cl39060   0.782   9.407  11.880 -0.0300  0.3422 -0.2174
  290MOL0     C39061   1.873   9.608  12.062 -0.0778 -0.1452  0.0449
  290MOL0     C39062   1.976   9.637  11.973  0.0536  0.4632 -0.0923
  290MOL0     O39063   1.994   9.560  11.569 -0.9851  0.0532  0.4097
  290MOL0     C39064   2.282   9.757  11.642 -0.2539 -0.7568 -0.1821
  290MOL0     C39065   2.405   9.816  11.586 -0.6002  0.4808  0.2682
  290MOL0     N39066   3.056   9.703  11.209 -0.3887  0.4798  0.5855
  290MOL0     N39067   3.147   9.785  11.182  0.1841 -0.0611  0.1886
  290MOL0     C39068   4.253  10.272  10.959 -0.2816 -0.1386 -0.6144
  290MOL0     C39069   4.370  10.282  11.031 -0.3560 -1.4206 -0.7986
  290MOL0     C39070   4.788  10.139  11.159 -1.3014 -0.4447 -0.3183
  290MOL0     C39071   4.909  10.097  11.094 -0.2364  0.0845  0.0031
  290MOL0     C39072   5.027  10.063  11.166  0.3080  0.2823 -0.1604
  290MOL0     C39073   5.028  10.050  11.307  0.1672  0.6952  0.2476
  290MOL0     O39074   5.127  10.009  11.392 -0.9720  0.7090  0.1082
  290MOL0     C39075   5.259   9.992  11.343 -0.2765  0.5105 -0.4738
  290MOL0     C39076   5.283   9.853  11.291 -0.3475  0.2135  0.6054
  290MOL0     C39077   5.424   9.823  11.223  0.0166 -0.5585 -0.2696
  290MOL0     C39078   5.547   9.826  11.310 -0.1072  0.6790 -0.0925
  290MOL0     C39079   5.655   9.752  11.243  0.4395  0.1234 -0.1706
  290MOL0     C39080   5.756   9.700  11.213  0.1590 -0.2833  0.6833
  290MOL0     C39081   4.910  10.090  11.370 -0.4811  0.3320 -0.3714
  290MOL0     C39082   4.796  10.126  11.300  0.0256 -0.1056 -1.4751
  290MOL0     H39083   4.421   9.963  11.108 -2.1222 -0.9295 -1.2415
  290MOL0     H39084   4.196   9.936  11.000 -0.5888  0.2028  0.0534
  290MOL0     H39085   3.916  10.069  10.777  1.9130 -1.2449 -1.3848
  290MOL0     H39086   4.002   9.960  10.883  0.5579  0.8917  0.7115
  290MOL0     H39087   3.924  10.113  11.082  0.4263 -0.4023 -1.0649
  290MOL0     H39088   3.858  10.215  10.957 -1.7945 -1.0138 -1.6692
  290MOL0     H39089   3.681  10.044  10.893 -2.1034 -0.2274  1.4546
  290MOL0     H39090   3.770   9.920  10.993  1.0076  0.3531  0.3777
  290MOL0     H39091   3.700  10.050  11.202  4.7803  1.8797 -0.9973
  290MOL0     H39092   3.666  10.181  11.086 -1.8973  0.4257 -1.9067
  290MOL0     H39093   3.466  10.035  11.006 -0.6130  1.7591  0.7602
  290MOL0     H39094   3.524   9.920  11.134  2.0566 -0.0628 -0.5772
  290MOL0     H39095   3.495  10.112  11.292  0.3634 -0.2386 -1.2328
  290MOL0     H39096   3.400  10.199  11.164 -0.3584 -0.1702 -0.0727
  290MOL0     H39097   3.352   9.928  11.271  1.8864  0.4183 -0.5876
  290MOL0     H39098   3.278  10.071  11.344  0.0788  1.5972 -1.0023
  290MOL0     H39099   3.231  10.001  11.044 -1.7027 -0.5119 -0.9948
  290MOL0     H39100   3.143  10.119  11.144 -1.0374 -0.5139  1.2014
  290MOL0     H39101   2.910   9.998  11.223 -0.0656  1.4074 -1.2267
  290MOL0     H39102   2.729   9.801  11.220 -3.3434 -2.8571 -0.1147
  290MOL0     H39103   2.799   9.643  11.174 -1.0164 -1.6344  2.1272
  290MOL0     H39104   2.808   9.597  11.423  0.9311  1.5526  1.4695
  290MOL0     H39105   2.650   9.637  11.355 -0.2802  2.3824 -0.2368
  290MOL0     H39106   2.841   9.817  11.503  0.7724 -2.6145  0.1181
  290MOL0     H39107   2.704   9.756  11.580  2.4552 -1.5710  1.0313
  290MOL0     H39108   2.698   9.990  11.392  0.6087  1.6091  3.9554
  290MOL0     H39109   2.631   9.971  11.543  4.0973  0.7587  1.7048
  290MOL0     H39110   2.340   9.746  11.262  0.3196 -0.8381 -0.0517
  290MOL0     H39111   2.143   9.679  11.226  2.5732  1.3424  1.6545
  290MOL0     H39112   2.089   9.548  11.310 -0.9750 -0.7713  0.1763
  290MOL0     H39113   2.004   9.707  11.342  1.2900  1.3377  0.2083
  290MOL0     H39114   1.793   9.614  11.690  0.2213 -0.8667 -1.4975
  290MOL0     H39115   1.625   9.531  11.838 -1.8021  0.2467  4.3160
  290MOL0     H39116   1.433   9.562  12.066 -2.3807 -1.6915 -0.6677
  290MOL0     H39117   1.501   9.432  11.973 -2.1278  0.7262 -0.5668
  290MOL0     H39118   1.550   9.355  12.249  1.3059 -1.1063 -0.7133
  290MOL0     H39119   1.398   9.452  12.241 -2.6606 -0.7176 -1.2229
  290MOL0     H39120   1.382   9.206  12.198 -0.0672  2.1236  1.8569
  290MOL0     H39121   1.448   9.229  12.035  0.3856  1.8207 -0.8487
  290MOL0     H39122   1.207   9.414  12.103 -0.5511 -0.0352 -1.5999
  290MOL0     H39123   1.271   9.365  11.952  1.0739  1.8608  0.5793
  290MOL0     H39124   1.151   9.157  12.149  0.8312 -3.3761 -1.2593
  290MOL0     H39125   1.205   9.138  11.983  0.9241  0.5041  0.6187
  290MOL0     H39126   1.014   9.284  11.899  0.4660  0.0409  0.0140
  290MOL0     H39127   0.957   9.139  11.980  0.3679 -0.0944 -0.8281
  290MOL0     H39128   0.966   9.416  12.113  0.2708 -0.2339 -0.4487
  290MOL0     H39129   0.920   9.270  12.194  1.1086  2.2657  0.7908
  290MOL0     H39130   0.739   9.400  12.118 -1.3431 -0.6349 -0.9018
  290MOL0     H39131   0.739   9.236  12.051 -1.5698 -0.3122 -2.0049
  290MOL0     H39132   1.891   9.632  12.166 -1.4192  1.5786 -0.0721
  290MOL0     H39133   2.077   9.670  11.999  1.4700 -2.3530 -1.5893
  290MOL0     H39134   2.264   9.767  11.748  1.9583  0.7519  0.1339
  290MOL0     H39135   2.489   9.852  11.644  0.4458  1.2861 -1.6430
  290MOL0     H39136   4.195  10.355  10.920  0.1732  2.0271  2.8880
  290MOL0     H39137   4.425  10.376  11.034 -2.9348  0.1832 -0.6093
  290MOL0     H39138   4.913  10.107  10.986  0.0415  1.2765  0.1103
  290MOL0     H39139   5.116  10.042  11.108 -0.5186 -0.7118 -1.1337
  290MOL0     H39140   5.291  10.062  11.265 -0.9873  0.2676 -0.9882
  290MOL0     H39141   5.330  10.007  11.424  0.8273 -1.1399 -1.0933
  290MOL0     H39142   5.216   9.834  11.207  0.4665  2.6001 -0.6611
  290MOL0     H39143   5.266   9.782  11.373  0.2378  0.2515  0.7651
  290MOL0     H39144   5.435   9.889  11.136 -1.4337 -0.2408 -0.2410
  290MOL0     H39145   5.411   9.722  11.183  1.0067 -0.2644 -1.3710
  290MOL0     H39146   5.522   9.788  11.410  1.1530  1.4296  0.5391
  290MOL0     H39147   5.583   9.929  11.321  0.9985  0.3795 -0.7364
  290MOL0     H39148   5.848   9.666  11.170 -0.4663 -0.4467 -0.5911
  290MOL0     H39149   4.915  10.093  11.478  0.3817  1.7692 -0.4193
  290MOL0     H39150   4.706  10.138  11.360  0.3307 -0.3374 -0.9691
  291MOL0     O39151   5.645   9.459   8.024 -0.7070 -0.0740 -0.0430
  291MOL0     C39152   5.652   9.577   7.970 -0.1293 -0.3802 -0.5872
  291MOL0     O39153   5.540   9.656   7.946  0.4209  0.2325 -0.2005
  291MOL0     C39154   5.414   9.611   7.978  0.8879 -0.3003  0.2901
  291MOL0     C39155   5.338   9.647   8.096  0.0056 -0.7848 -0.9453
  291MOL0     C39156   5.208   9.607   8.113  0.2271 -0.7149 -0.0349
  291MOL0     C39157   5.140   9.536   8.017 -0.0387  0.5967  0.6310
  291MOL0     O39158   5.012   9.500   8.038 -0.1984 -0.3391  1.2387
  291MOL0     C39159   4.931   9.420   7.954  0.0981  0.5646 -0.4704
  291MOL0     C39160   4.794   9.400   8.017  0.2072  0.1268 -0.0270
  291MOL0     C39161   4.712   9.526   8.049  0.0912  0.5626  0.1191
  291MOL0     C39162   4.566   9.491   8.074  0.5638 -0.4365 -0.8573
  291MOL0     C39163   4.497   9.617   8.120  0.3167  0.6461  1.1029
  291MOL0     C39164   4.354   9.605   8.120  0.2617 -0.5065 -0.1653
  291MOL0     C39165   4.299   9.742   8.152 -0.4329 -0.0845 -0.2375
  291MOL0     C39166   4.147   9.751   8.157  0.1317  0.0717  0.3345
  291MOL0     N39167   4.086   9.855   8.250 -0.5087  0.1240 -0.2625
  291MOL0     C39168   4.017   9.956   8.207  0.2836  0.6410  0.7946
  291MOL0     C39169   3.951  10.001   8.308  1.0541 -0.1674 -0.2035
  291MOL0     C39170   3.842  10.102   8.306  0.2184 -0.4502 -0.2890
  291MOL0     C39171   3.891  10.230   8.246 -1.0413 -0.8215  0.4168
  291MOL0     C39172   3.782  10.345   8.263  0.3016  0.2219  0.9093
  291MOL0     C39173   3.810  10.456   8.162  0.2855 -1.3135 -1.0379
  291MOL0     O39174   3.845  10.409   8.035  0.5601 -0.9003  0.5733
  291MOL0     C39175   3.942  10.478   7.970 -0.2686  0.0128 -0.6462
  291MOL0     C39176   3.920  10.591   7.893  0.7468 -0.0623  1.1750
  291MOL0     C39177   4.016  10.655   7.820  0.0694 -0.4771  0.4834
  291MOL0     C39178   3.987  10.776   7.742  0.1237  0.5529 -0.0854
  291MOL0     C39179   4.144  10.593   7.808 -0.1013 -0.0558 -0.4272
  291MOL0     C39180   4.261  10.628   7.718 -0.4820  0.1809  0.1149
  291MOL0     O39181   4.391  10.636   7.772  0.6242  0.2382 -1.1379
  291MOL0     C39182   4.492  10.626   7.686  0.1177 -0.7383  1.0686
  291MOL0     C39183   4.516  10.729   7.589 -0.5548  0.0030 -0.5952
  291MOL0     C39184   4.632  10.735   7.513 -0.4294 -0.1390  0.4796
  291MOL0     C39185   4.729  10.634   7.523 -0.2381 -0.3372 -0.2153
  291MOL0     O39186   4.850  10.633   7.445 -0.2172  0.2361 -0.7097
  291MOL0     C39187   4.892  10.762   7.416  0.5921 -0.0479 -0.8525
  291MOL0     C39188   5.040  10.765   7.382 -0.3147 -0.0106  0.5920
  291MOL0     C39189   5.129  10.688   7.489  0.5168  0.8057  0.1344
  291MOL0     C39190   5.279  10.705   7.492 -0.4581 -0.3175 -0.8341
  291MOL0     C39191   5.336  10.794   7.608 -0.4158 -0.7915  1.1397
  291MOL0     C39192   5.485  10.768   7.639 -0.2614  0.1751 -0.5687
  291MOL0     C39193   5.527  10.866   7.750 -0.7780 -0.1793 -0.0956
  291MOL0     C39194   5.652  10.820   7.820 -0.6196 -0.7962 -0.5567
  291MOL0    Cl39195   5.786  10.825   7.701  0.1488  0.1925 -0.1998
  291MOL0     C39196   4.707  10.533   7.619 -0.2818 -0.4681  0.3489
  291MOL0     C39197   4.587  10.522   7.702  0.9569  0.4849  0.3849
  291MOL0     O39198   4.230  10.651   7.602  0.0392  0.1396 -0.3259
  291MOL0     C39199   4.173  10.486   7.897  0.6281 -0.3169  0.1791
  291MOL0     C39200   4.074  10.426   7.978  0.3599  0.7840 -0.1150
  291MOL0     N39201   3.984   9.933   8.422  0.3996 -0.1618  0.6575
  291MOL0     N39202   4.068   9.846   8.388 -0.4769  0.5573  0.6981
  291MOL0     C39203   5.212   9.497   7.897 -0.0606 -0.2787 -1.4837
  291MOL0     C39204   5.345   9.539   7.887 -0.3209  0.1161  0.6640
  291MOL0     C39205   5.786   9.609   7.919  0.5834  0.3833  0.5735
  291MOL0     C39206   5.898   9.521   7.941  0.6592  0.8555  0.0878
  291MOL0     C39207   6.030   9.550   7.905 -0.0855 -0.1634  0.3198
  291MOL0     C39208   6.055   9.678   7.841 -0.3766  1.2925 -0.0410
  291MOL0     O39209   6.167   9.711   7.782 -0.4181 -0.4330  0.2700
  291MOL0     C39210   6.286   9.632   7.801 -0.0021  0.7733 -0.0235
  291MOL0     C39211   6.357   9.670   7.929 -0.5136 -0.3648 -0.0874
  291MOL0     C39212   6.424   9.807   7.919  0.5262  0.1014  0.2841
  291MOL0     C39213   6.460   9.850   8.057  0.3026 -0.5466 -0.4549
  291MOL0     C39214   6.576   9.789   8.119 -0.0263  0.1915  0.7276
  291MOL0     C39215   6.680   9.764   8.172 -0.2312  0.5598  0.0417
  291MOL0     C39216   5.948   9.767   7.820 -0.0849  0.2721  0.0609
  291MOL0     C39217   5.820   9.733   7.864  0.0485 -0.2141  0.2459
  291MOL0     H39218   5.396   9.708   8.164 -2.2686  0.4070  0.0535
  291MOL0     H39219   5.151   9.630   8.203  0.8142  0.2729  0.0998
  291MOL0     H39220   4.929   9.476   7.860  1.8871  0.1271 -0.8093
  291MOL0     H39221   4.967   9.320   7.927 -0.7016  0.4553 -1.1722
  291MOL0     H39222   4.739   9.342   7.943 -2.6385  2.7683 -0.1792
  291MOL0     H39223   4.804   9.342   8.110  0.4125  1.7139  0.9838
  291MOL0     H39224   4.760   9.580   8.130 -1.0345  2.9396 -0.6978
  291MOL0     H39225   4.722   9.594   7.964 -0.2427 -0.5155 -0.8090
  291MOL0     H39226   4.529   9.452   7.979  0.0389 -1.6694 -0.1768
  291MOL0     H39227   4.551   9.420   8.156  0.3467  1.8198  1.1468
  291MOL0     H39228   4.536   9.645   8.218  4.3653  1.9548 -0.6439
  291MOL0     H39229   4.522   9.697   8.050 -1.4249 -0.3929 -0.8281
  291MOL0     H39230   4.304   9.569   8.029  0.1369 -1.6347  0.3240
  291MOL0     H39231   4.323   9.543   8.204  1.8730  0.0645  0.8863
  291MOL0     H39232   4.342   9.767   8.249  1.5370 -0.2104 -1.0371
  291MOL0     H39233   4.323   9.814   8.073 -3.9881  3.5803  1.6366
  291MOL0     H39234   4.106   9.652   8.182 -0.4746 -0.7328 -3.2771
  291MOL0     H39235   4.108   9.770   8.057 -0.6323  0.1681  0.6449
  291MOL0     H39236   4.000   9.987   8.104 -2.4868  0.5497  1.1448
  291MOL0     H39237   3.760  10.058   8.247 -0.7682  1.3477 -0.3201
  291MOL0     H39238   3.813  10.123   8.409  1.7359 -0.5045  0.1638
  291MOL0     H39239   3.901  10.197   8.142  0.3064 -0.3895  0.3929
  291MOL0     H39240   3.989  10.261   8.281 -1.3738 -1.6382  2.2018
  291MOL0     H39241   3.791  10.395   8.360  2.3931  0.9470  0.3885
  291MOL0     H39242   3.686  10.294   8.251  0.8141 -1.2405  2.5243
  291MOL0     H39243   3.888  10.517   8.208 -1.8203  1.8015 -1.3162
  291MOL0     H39244   3.730  10.530   8.164  0.5180 -1.0412  1.5592
  291MOL0     H39245   3.823  10.639   7.898  1.7967  2.1934  0.9196
  291MOL0     H39246   3.917  10.837   7.799 -0.0786  1.2206 -1.0226
  291MOL0     H39247   4.078  10.834   7.726 -0.1293  0.2991 -2.9324
  291MOL0     H39248   3.943  10.751   7.645  2.7756  0.1225 -1.2796
  291MOL0     H39249   4.452  10.816   7.575 -0.1863  0.4610  0.4441
  291MOL0     H39250   4.641  10.823   7.449  1.1466  0.0792  0.9773
  291MOL0     H39251   4.838  10.806   7.331  1.0939 -1.3852 -1.8914
  291MOL0     H39252   4.888  10.830   7.501  2.4430  0.7617 -1.3635
  291MOL0     H39253   5.062  10.722   7.284 -0.5845  2.5048 -0.6474
  291MOL0     H39254   5.064  10.871   7.372  0.7682  0.0337  3.0405
  291MOL0     H39255   5.116  10.583   7.460 -0.0528  0.8171  0.3390
  291MOL0     H39256   5.088  10.712   7.587  1.4755  0.7002  0.5738
  291MOL0     H39257   5.330  10.608   7.491  1.4945  0.6084 -3.1506
  291MOL0     H39258   5.321  10.746   7.399  1.2373 -1.5459 -0.6773
  291MOL0     H39259   5.263  10.786   7.689 -2.5368  3.9100  0.0605
  291MOL0     H39260   5.322  10.901   7.590  1.8701  0.1941  4.1429
  291MOL0     H39261   5.493  10.660   7.657  4.2140 -0.2729 -3.6175
  291MOL0     H39262   5.541  10.802   7.552  3.6156 -0.7338  1.3614
  291MOL0     H39263   5.448  10.873   7.826 -1.7730 -0.6265 -1.0575
  291MOL0     H39264   5.547  10.968   7.718 -3.8410  0.5672  0.0635
  291MOL0     H39265   5.639  10.727   7.876  1.1854 -1.2987 -0.8995
  291MOL0     H39266   5.672  10.897   7.894  1.9815 -2.1010  0.2204
  291MOL0     H39267   4.789  10.463   7.625  1.0002  0.9342 -0.0492
  291MOL0     H39268   4.581  10.440   7.774  2.8659  0.3667  0.4637
  291MOL0     H39269   4.271  10.440   7.887 -0.6075 -2.8398 -1.2987
  291MOL0     H39270   4.083  10.338   8.041 -0.9886  0.0709 -0.8730
  291MOL0     H39271   5.151   9.437   7.831 -3.2734  0.6169  0.4600
  291MOL0     H39272   5.386   9.528   7.788 -2.0165  0.2728 -0.0999
  291MOL0     H39273   5.877   9.427   7.990 -0.3422  1.2747  0.4746
  291MOL0     H39274   6.105   9.476   7.931  3.1239  1.9796 -2.1274
  291MOL0     H39275   6.272   9.524   7.793  0.7859  0.6123  0.6161
  291MOL0     H39276   6.358   9.636   7.719  0.3035 -0.4028  0.1706
  291MOL0     H39277   6.431   9.594   7.956  1.4017  1.7540  0.9463
  291MOL0     H39278   6.280   9.674   8.007  0.6750 -0.0297  1.0967
  291MOL0     H39279   6.349   9.873   7.873  0.2209 -2.2242 -2.9355
  291MOL0     H39280   6.509   9.803   7.850 -0.2149 -1.9675 -0.6007
  291MOL0     H39281   6.374   9.850   8.126  0.2133  0.8826 -0.5334
  291MOL0     H39282   6.486   9.956   8.047  2.4909 -1.1742 -2.0107
  291MOL0     H39283   6.762   9.709   8.212 -1.3451 -0.0017  1.6251
  291MOL0     H39284   5.967   9.861   7.770 -2.0455  1.3874  1.2965
  291MOL0     H39285   5.730   9.793   7.865 -0.6761 -1.2848  0.9067
  292MOL0     O39286   4.454   8.893   2.683  0.2771  0.1940 -0.2098
  292MOL0     C39287   4.498   8.818   2.598  0.8054  0.1363 -0.1316
  292MOL0     O39288   4.437   8.705   2.554 -0.6376  0.6075  0.0832
  292MOL0     C39289   4.310   8.671   2.575 -0.2137  0.6281  0.2955
  292MOL0     C39290   4.242   8.698   2.695 -0.9036  0.0297 -0.5661
  292MOL0     C39291   4.107   8.676   2.699 -0.0925  1.1609 -0.4420
  292MOL0     C39292   4.035   8.618   2.594  0.7510  0.0300 -0.7707
  292MOL0     O39293   3.898   8.596   2.594 -0.4467  0.4468 -1.1395
  292MOL0     C39294   3.819   8.684   2.680 -0.2097 -0.0275 -0.4377
  292MOL0     C39295   3.674   8.638   2.668 -0.3867  0.5616  0.1418
  292MOL0     C39296   3.656   8.502   2.730  0.6292 -0.0264 -0.1003
  292MOL0     C39297   3.516   8.476   2.776  0.7672  0.7400  0.1861
  292MOL0     C39298   3.507   8.356   2.881  0.4713  0.5132  0.3597
  292MOL0     C39299   3.356   8.309   2.904 -1.0427 -0.2312  0.0060
  292MOL0     C39300   3.304   8.218   2.790 -0.2127 -0.3073 -0.2828
  292MOL0     C39301   3.185   8.131   2.846 -0.0780 -0.5346  0.2428
  292MOL0     N39302   3.058   8.190   2.804 -0.4572 -0.3138  0.4827
  292MOL0     C39303   2.998   8.177   2.679 -1.0925  0.3715  0.2519
  292MOL0     C39304   2.876   8.227   2.689  0.1559  0.5844  0.2784
  292MOL0     C39305   2.774   8.228   2.582  0.8549  0.2620  0.4570
  292MOL0     C39306   2.727   8.366   2.538  0.2782 -0.1674 -0.1441
  292MOL0     C39307   2.656   8.365   2.407 -0.5060  1.3843 -0.2858
  292MOL0     C39308   2.525   8.287   2.426 -0.2694  0.2125 -0.1612
  292MOL0     O39309   2.447   8.297   2.302 -0.3396 -0.2550  0.0349
  292MOL0     C39310   2.314   8.279   2.301  0.3379 -0.1970 -0.0316
  292MOL0     C39311   2.234   8.344   2.204  0.4441  0.0902  0.5769
  292MOL0     C39312   2.095   8.361   2.218  0.4980 -0.4851 -0.9054
  292MOL0     C39313   2.011   8.405   2.104  1.1980  0.0581 -0.1155
  292MOL0     C39314   2.033   8.309   2.345 -1.0658  0.0687  0.6726
  292MOL0     C39315   1.891   8.322   2.371 -0.5653 -0.2623 -0.4598
  292MOL0     O39316   1.827   8.209   2.425 -0.4659 -0.1373  0.2773
  292MOL0     C39317   1.693   8.208   2.392 -0.0353  0.2479  0.4621
  292MOL0     C39318   1.601   8.283   2.459 -0.1563 -0.5296 -0.0218
  292MOL0     C39319   1.464   8.298   2.418  0.4941 -0.6684 -0.0214
  292MOL0     C39320   1.423   8.206   2.319 -0.2866 -0.1709 -0.2181
  292MOL0     O39321   1.294   8.201   2.284  0.7279  0.2534 -0.3054
  292MOL0     C39322   1.227   8.080   2.311  0.0913  0.6709  0.1416
  292MOL0     C39323   1.078   8.110   2.305 -0.2078 -0.0813  0.2266
  292MOL0     C39324   0.995   7.982   2.311 -0.4046 -0.0363  0.1232
  292MOL0     C39325   0.849   8.007   2.332 -0.2351 -0.1420  0.2916
  292MOL0     C39326   0.766   7.876   2.348 -0.3581 -0.0109  0.1280
  292MOL0     C39327   0.778   7.818   2.487  0.0107 -0.2760 -0.3570
  292MOL0     C39328   0.762   7.660   2.487 -0.1798  0.8238  0.4856
  292MOL0     C39329   0.782   7.589   2.620 -0.2153  0.4623 -0.1575
  292MOL0    Cl39330   0.951   7.588   2.672 -0.2657 -0.7373  0.2530
  292MOL0     C39331   1.518   8.126   2.250  0.4786  0.4562 -0.0694
  292MOL0     C39332   1.651   8.134   2.285 -0.6726  0.9784  0.8322
  292MOL0     O39333   1.836   8.434   2.353 -0.3479 -0.0648  0.1396
  292MOL0     C39334   2.113   8.218   2.425  0.2135 -0.1534  0.2839
  292MOL0     C39335   2.247   8.204   2.401  0.1666 -0.3600 -0.0170
  292MOL0     N39336   2.861   8.271   2.823 -0.2491  0.7960 -0.1208
  292MOL0     N39337   2.963   8.252   2.886  0.5628  0.7470 -0.2596
  292MOL0     C39338   4.100   8.577   2.477  0.1290  0.2399 -0.0279
  292MOL0     C39339   4.238   8.611   2.472  0.0294 -0.1808  0.0292
  292MOL0     C39340   4.629   8.855   2.539  0.4878  0.0422 -0.1384
  292MOL0     C39341   4.708   8.758   2.475  0.8004  0.1071  0.5981
  292MOL0     C39342   4.839   8.793   2.431  0.0271  1.0465 -0.0593
  292MOL0     C39343   4.887   8.919   2.461  0.5961  0.5730 -0.6853
  292MOL0     O39344   5.012   8.963   2.420  0.8587  0.6808 -0.4225
  292MOL0     C39345   5.112   8.960   2.531 -0.6618  0.1861 -0.4581
  292MOL0     C39346   5.222   9.066   2.509  1.1609  0.2718 -0.1710
  292MOL0     C39347   5.358   9.029   2.572 -0.1955  0.2204  0.8494
  292MOL0     C39348   5.454   9.147   2.554  0.2380  0.3615 -0.0669
  292MOL0     C39349   5.585   9.105   2.598 -0.6614 -0.1178  0.2101
  292MOL0     C39350   5.694   9.052   2.631 -0.1638 -0.7548  0.3248
  292MOL0     C39351   4.800   9.018   2.524 -0.5254 -0.4227 -1.0305
  292MOL0     C39352   4.669   8.990   2.555 -0.3744  0.5478 -0.0253
  292MOL0     H39353   4.292   8.727   2.786 -2.3370  0.1328  0.2094
  292MOL0     H39354   4.056   8.700   2.792 -1.7939 -0.4059 -0.9225
  292MOL0     H39355   3.855   8.680   2.783 -0.9775  0.3806 -0.1456
  292MOL0     H39356   3.824   8.785   2.638  1.8056  0.4274  0.7848
  292MOL0     H39357   3.626   8.713   2.731  0.2380  0.5712  0.6182
  292MOL0     H39358   3.636   8.639   2.565 -0.8605 -1.6457  0.2415
  292MOL0     H39359   3.690   8.424   2.661  1.1552 -1.0377  1.2824
  292MOL0     H39360   3.716   8.500   2.821  0.1251  3.9512  0.4939
  292MOL0     H39361   3.471   8.558   2.834  0.1809  1.3601 -1.1151
  292MOL0     H39362   3.454   8.458   2.688 -0.2947 -0.8038  1.1816
  292MOL0     H39363   3.567   8.272   2.845 -2.7638 -1.9215  0.1285
  292MOL0     H39364   3.539   8.391   2.979  3.1372 -0.4789 -0.0708
  292MOL0     H39365   3.365   8.252   2.997  1.1722  0.5034  0.3018
  292MOL0     H39366   3.281   8.387   2.919 -0.2692  0.2972  1.3817
  292MOL0     H39367   3.278   8.286   2.709 -0.3556  0.8402  0.6944
  292MOL0     H39368   3.384   8.157   2.746 -2.8857 -2.9677 -1.8261
  292MOL0     H39369   3.195   8.134   2.955 -0.4661  1.5997  0.2534
  292MOL0     H39370   3.187   8.025   2.817 -2.1705  0.0238 -2.4415
  292MOL0     H39371   3.046   8.121   2.599 -0.1797  1.4921 -0.0168
  292MOL0     H39372   2.817   8.175   2.497 -0.0052  0.4148 -0.0794
  292MOL0     H39373   2.686   8.169   2.609 -0.9443  1.6971 -1.8618
  292MOL0     H39374   2.813   8.428   2.512  1.1460 -1.5446 -0.6471
  292MOL0     H39375   2.679   8.414   2.624  0.1375 -3.2684  1.6608
  292MOL0     H39376   2.715   8.322   2.326  0.6444  2.2786  0.0447
  292MOL0     H39377   2.641   8.467   2.369 -1.6479 -0.2028 -4.7223
  292MOL0     H39378   2.472   8.340   2.506 -0.0645 -2.6766  2.0266
  292MOL0     H39379   2.536   8.180   2.441 -2.2973  0.1594  1.5731
  292MOL0     H39380   2.282   8.387   2.117 -3.0143  1.9210 -0.6301
  292MOL0     H39381   2.037   8.341   2.019 -0.9171 -0.2079 -0.6214
  292MOL0     H39382   1.905   8.389   2.126  0.9785  1.5215  0.0097
  292MOL0     H39383   2.034   8.508   2.075  4.1277 -1.4018 -3.8253
  292MOL0     H39384   1.638   8.337   2.545 -2.4935 -0.4801  1.0232
  292MOL0     H39385   1.408   8.365   2.482  2.4321  0.7919  0.2725
  292MOL0     H39386   1.234   8.007   2.230  1.0355  1.4413 -0.4944
  292MOL0     H39387   1.253   8.026   2.402 -1.7740  0.2438  0.4610
  292MOL0     H39388   1.062   8.179   2.388  2.2563 -0.3498  0.9874
  292MOL0     H39389   1.056   8.167   2.213  2.0378 -0.6742 -0.7317
  292MOL0     H39390   1.027   7.927   2.399 -0.1450 -0.4801 -0.2410
  292MOL0     H39391   1.018   7.924   2.221 -2.3088 -0.0042 -0.4271
  292MOL0     H39392   0.834   8.071   2.419  0.9608  1.4147 -0.6040
  292MOL0     H39393   0.807   8.061   2.247 -2.8114  0.4697  1.8325
  292MOL0     H39394   0.801   7.808   2.271 -2.5625 -1.2676  0.1405
  292MOL0     H39395   0.660   7.894   2.328 -0.8428 -2.8059 -0.2180
  292MOL0     H39396   0.861   7.840   2.554 -2.3641  0.3678  2.6192
  292MOL0     H39397   0.696   7.859   2.547  1.4178  1.2609  0.6311
  292MOL0     H39398   0.835   7.630   2.411 -1.2970  0.3277 -0.4075
  292MOL0     H39399   0.662   7.636   2.450 -1.8264  4.8688  1.7997
  292MOL0     H39400   0.756   7.484   2.607 -1.8940  0.6700  1.1127
  292MOL0     H39401   0.711   7.624   2.695  0.3567  2.2335 -0.3843
  292MOL0     H39402   1.493   8.062   2.166 -1.2829 -0.5516  1.1745
  292MOL0     H39403   1.726   8.075   2.233 -1.5220  0.8648 -0.2752
  292MOL0     H39404   2.071   8.177   2.516 -0.2381 -0.1857  0.0634
  292MOL0     H39405   2.316   8.159   2.472 -0.0269  0.6238  0.8223
  292MOL0     H39406   4.042   8.542   2.392 -0.1521 -2.0754  1.0414
  292MOL0     H39407   4.291   8.599   2.378  0.3095  0.0014  0.1628
  292MOL0     H39408   4.657   8.664   2.459  1.5260 -0.4259  1.3321
  292MOL0     H39409   4.912   8.717   2.403  0.3243  0.0210  3.0648
  292MOL0     H39410   5.056   8.972   2.624 -0.5216  0.6410 -0.4286
  292MOL0     H39411   5.153   8.859   2.527  0.9297  0.5889  2.8872
  292MOL0     H39412   5.183   9.162   2.543  0.1487 -0.2500  0.2200
  292MOL0     H39413   5.231   9.073   2.401 -1.7899 -0.2432 -0.5477
  292MOL0     H39414   5.414   8.944   2.532  1.3349  1.8207 -0.5972
  292MOL0     H39415   5.349   9.019   2.680 -1.3806  0.6636  0.8072
  292MOL0     H39416   5.422   9.218   2.631 -2.3256  1.3871 -1.9428
  292MOL0     H39417   5.442   9.201   2.460 -0.7473  1.4082  0.6192
  292MOL0     H39418   5.782   9.016   2.681 -0.7990 -0.1135  1.9766
  292MOL0     H39419   4.837   9.120   2.531 -2.6963  0.4011 -0.9025
  292MOL0     H39420   4.603   9.066   2.595  0.5556  0.1073  2.4909
  293MOL0     O39421   2.949  10.889   1.663  0.3429 -0.1390 -0.4686
  293MOL0     C39422   2.934  10.892   1.788  0.5358  0.0294  0.0797
  293MOL0     O39423   2.817  10.907   1.847 -0.4242  0.2818  0.3334
  293MOL0     C39424   2.696  10.942   1.797 -0.2221 -0.3389  0.0818
  293MOL0     C39425   2.668  11.005   1.672 -0.4836  0.1232 -0.0689
  293MOL0     C39426   2.542  11.061   1.643  0.3689  0.0780 -0.1483
  293MOL0     C39427   2.434  11.050   1.743 -0.3018  0.1426 -0.8420
  293MOL0     O39428   2.312  11.109   1.717  0.1657  0.4654  0.3716
  293MOL0     C39429   2.230  11.030   1.634 -0.4313 -0.4093  0.5990
  293MOL0     C39430   2.091  11.023   1.690  0.8034  0.2869  0.2447
  293MOL0     C39431   2.026  11.165   1.695 -0.4188  0.7755  0.1444
  293MOL0     C39432   1.893  11.151   1.770 -0.0927  0.5399 -0.3312
  293MOL0     C39433   1.783  11.063   1.695 -0.2069 -0.2261  0.4043
  293MOL0     C39434   1.658  11.061   1.786 -0.0033 -0.2693  0.1077
  293MOL0     C39435   1.544  10.976   1.737 -0.2912 -0.2608 -0.3023
  293MOL0     C39436   1.432  10.961   1.847  0.1942 -0.2172 -0.8665
  293MOL0     N39437   1.314  10.904   1.781 -0.2586 -0.0889 -0.6956
  293MOL0     C39438   1.221  10.972   1.707  0.0014  0.6743 -0.9166
  293MOL0     C39439   1.109  10.894   1.711  1.0983  0.2645  0.0334
  293MOL0     C39440   0.976  10.918   1.648  0.4705 -0.6777  0.0191
  293MOL0     C39441   0.958  10.804   1.550 -0.7026 -0.6389 -0.6244
  293MOL0     C39442   0.844  10.823   1.471  0.3687  0.5443  0.6885
  293MOL0     C39443   0.722  10.750   1.546 -0.7175  0.4098  0.3707
  293MOL0     O39444   0.620  10.725   1.447  0.1326  0.4678 -0.7268
  293MOL0     C39445   0.503  10.653   1.483 -0.3365 -0.3696 -0.4878
  293MOL0     C39446   0.477  10.629   1.617 -0.4323  0.6126  0.2457
  293MOL0     C39447   0.356  10.561   1.645 -0.4432  0.4057 -0.1143
  293MOL0     C39448   0.326  10.529   1.791 -0.0573  0.7430 -0.0647
  293MOL0     C39449   0.282  10.496   1.537  0.3256  0.2664  0.0078
  293MOL0     C39450   0.155  10.413   1.554  0.8698 -0.4679  0.4847
  293MOL0     O39451   0.093  10.360   1.442  0.6686  0.5271 -0.2414
  293MOL0     C39452  -0.037  10.321   1.455 -0.3156 -0.8968  0.0845
  293MOL0     C39453  -0.126  10.370   1.543 -0.4470 -0.3161 -0.0719
  293MOL0     C39454  -0.260  10.327   1.555 -0.2289  0.0391 -0.4129
  293MOL0     C39455  -0.301  10.220   1.475 -0.1691  0.8255  1.2123
  293MOL0     O39456  -0.425  10.181   1.505  0.3333 -0.0836  0.1335
  293MOL0     C39457  -0.508  10.096   1.411 -0.9995 -0.4112  0.1717
  293MOL0     C39458  -0.643  10.077   1.480  0.7601  0.6521 -0.0662
  293MOL0     C39459  -0.730  10.000   1.375  0.6045  0.3811 -0.8402
  293MOL0     C39460  -0.874   9.997   1.420  0.0327  0.3107  0.8210
  293MOL0     C39461  -0.969   9.931   1.326  0.7737 -0.3044  0.7050
  293MOL0     C39462  -1.114   9.948   1.378 -0.1911 -0.2668  0.2832
  293MOL0     C39463  -1.204   9.889   1.263 -1.4832 -0.0035 -0.2773
  293MOL0     C39464  -1.346   9.877   1.318 -0.2949 -0.3724 -0.6005
  293MOL0    Cl39465  -1.406  10.037   1.358 -0.1828  0.4432 -0.2493
  293MOL0     C39466  -0.211  10.154   1.383 -0.1316  0.3234 -0.0087
  293MOL0     C39467  -0.082  10.217   1.372  0.1757  0.2854 -0.8199
  293MOL0     O39468   0.121  10.394   1.671  0.2328  0.5793  0.9163
  293MOL0     C39469   0.322  10.526   1.401  0.1442 -0.4544 -0.6354
  293MOL0     C39470   0.425  10.610   1.375 -0.1465  0.2025 -0.3304
  293MOL0     N39471   1.138  10.779   1.787  0.6882  0.3889 -0.4822
  293MOL0     N39472   1.264  10.783   1.813 -0.0876  0.0463 -0.1331
  293MOL0     C39473   2.465  10.988   1.867  0.7626 -0.5818 -0.1735
  293MOL0     C39474   2.591  10.933   1.889  0.2911 -0.0402 -0.2771
  293MOL0     C39475   3.049  10.875   1.883 -0.1053 -0.2842 -0.1636
  293MOL0     C39476   3.184  10.874   1.842 -0.1219 -0.0719 -0.3461
  293MOL0     C39477   3.289  10.870   1.933  0.6785 -1.1354  0.4379
  293MOL0     C39478   3.259  10.889   2.072  0.4249 -1.2168 -0.1522
  293MOL0     O39479   3.344  10.887   2.181  0.0773  0.2578 -0.0381
  293MOL0     C39480   3.481  10.828   2.170  0.6165 -0.0897  0.2899
  293MOL0     C39481   3.537  10.814   2.308 -0.3312 -0.1061 -0.8114
  293MOL0     C39482   3.647  10.710   2.315 -0.6825 -0.5557 -0.4144
  293MOL0     C39483   3.692  10.683   2.466  0.0437 -0.8077  1.0562
  293MOL0     C39484   3.748  10.812   2.511 -0.7168  0.0131  0.8153
  293MOL0     C39485   3.797  10.915   2.564  0.4794  0.1765 -0.3734
  293MOL0     C39486   3.128  10.885   2.109  0.1235 -0.4247 -0.3091
  293MOL0     C39487   3.018  10.881   2.023 -0.3705 -0.2489 -0.6506
  293MOL0     H39488   2.748  11.019   1.599  1.1610 -5.8829  0.0374
  293MOL0     H39489   2.525  11.105   1.546 -1.9523 -0.2869  0.0354
  293MOL0     H39490   2.237  11.066   1.530 -2.4713  2.0304  1.2297
  293MOL0     H39491   2.265  10.927   1.620  0.9527  0.2888 -1.6435
  293MOL0     H39492   2.042  10.952   1.622  0.7030  0.0302  0.5787
  293MOL0     H39493   2.081  10.984   1.791 -2.9947 -2.0543 -0.8290
  293MOL0     H39494   2.089  11.238   1.747 -0.3399  1.9111 -1.4681
  293MOL0     H39495   2.008  11.191   1.590  0.5014  0.3202 -0.1349
  293MOL0     H39496   1.911  11.116   1.873 -0.1462  0.1942 -0.4373
  293MOL0     H39497   1.852  11.251   1.784 -1.1177 -0.1958  2.7835
  293MOL0     H39498   1.756  11.101   1.596  3.2525  1.7216  0.0467
  293MOL0     H39499   1.807  10.958   1.678 -0.4004 -0.2605  0.3349
  293MOL0     H39500   1.676  11.026   1.888  1.4263  3.9475  1.4959
  293MOL0     H39501   1.605  11.157   1.796 -0.3390 -0.6013  1.7186
  293MOL0     H39502   1.479  11.026   1.664 -3.2267 -2.1637  0.8214
  293MOL0     H39503   1.579  10.884   1.690  1.9394  1.9377 -3.3757
  293MOL0     H39504   1.402  11.055   1.893  1.5494 -1.7975  3.7900
  293MOL0     H39505   1.465  10.904   1.934  0.0799 -1.0115 -1.3345
  293MOL0     H39506   1.222  11.072   1.665 -1.4583  0.3367 -1.8184
  293MOL0     H39507   0.893  10.924   1.718 -0.9644  2.7104 -1.7489
  293MOL0     H39508   0.990  11.011   1.593  0.9165  0.2180  1.5885
  293MOL0     H39509   0.947  10.717   1.615 -0.5318  2.5572  4.2904
  293MOL0     H39510   1.048  10.793   1.489  1.1385 -0.1969  1.8284
  293MOL0     H39511   0.863  10.776   1.374 -1.8419  1.5691 -0.3303
  293MOL0     H39512   0.813  10.925   1.447  0.8028  0.0171 -2.5131
  293MOL0     H39513   0.684  10.807   1.632 -2.3376 -0.4863  0.2837
  293MOL0     H39514   0.748  10.649   1.580 -0.4723 -0.5550 -2.4443
  293MOL0     H39515   0.525  10.680   1.700 -1.3473  4.9885 -1.6388
  293MOL0     H39516   0.309  10.422   1.808 -0.6154  1.0771  1.7180
  293MOL0     H39517   0.392  10.570   1.868 -2.1315  3.5139  0.4175
  293MOL0     H39518   0.227  10.573   1.812 -0.5594 -1.6647  3.6186
  293MOL0     H39519  -0.095  10.439   1.622 -2.3669  0.4465  0.0734
  293MOL0     H39520  -0.324  10.364   1.635 -0.3153  0.5601 -0.7205
  293MOL0     H39521  -0.512  10.148   1.315  1.5842 -1.7634 -0.7822
  293MOL0     H39522  -0.471   9.993   1.403 -0.4193 -0.1655 -0.4213
  293MOL0     H39523  -0.637  10.017   1.572  0.4125 -0.3107 -0.6519
  293MOL0     H39524  -0.691  10.171   1.508 -2.1884 -0.8041  0.1952
  293MOL0     H39525  -0.689   9.899   1.384 -0.7612 -0.0321  3.0722
  293MOL0     H39526  -0.731  10.037   1.272  0.7803 -0.8617 -1.3010
  293MOL0     H39527  -0.884   9.969   1.525 -0.9343 -0.6008  0.5051
  293MOL0     H39528  -0.896  10.105   1.414 -1.5671  0.1080  2.1795
  293MOL0     H39529  -0.934   9.829   1.309  0.8452 -0.1028 -0.4524
  293MOL0     H39530  -0.951   9.977   1.228  2.7919 -1.5668  0.4313
  293MOL0     H39531  -1.146   9.888   1.464 -2.9414 -0.7093 -0.9251
  293MOL0     H39532  -1.147  10.050   1.397 -0.8227 -0.1837 -1.1491
  293MOL0     H39533  -1.165   9.791   1.234  1.2602  1.8836 -3.7184
  293MOL0     H39534  -1.200   9.953   1.175 -0.5858 -2.0461 -1.7953
  293MOL0     H39535  -1.349   9.821   1.412 -0.0544 -1.1724 -1.0525
  293MOL0     H39536  -1.418   9.823   1.255 -2.0411  0.1930  0.8347
  293MOL0     H39537  -0.231  10.062   1.329  0.2188  0.7781 -0.9170
  293MOL0     H39538  -0.018  10.186   1.290  0.1670  0.6692 -0.9716
  293MOL0     H39539   0.276  10.496   1.307 -0.9340 -0.9798  0.0320
  293MOL0     H39540   0.439  10.637   1.270  0.0477 -1.1058 -0.6570
  293MOL0     H39541   2.396  10.988   1.951  0.1389  0.6270 -0.6592
  293MOL0     H39542   2.604  10.900   1.991 -1.9159  0.5014  0.2400
  293MOL0     H39543   3.187  10.862   1.734 -3.2028 -1.4684 -0.3727
  293MOL0     H39544   3.392  10.854   1.903  0.1710  0.5799 -2.6112
  293MOL0     H39545   3.472  10.731   2.121  1.8429  1.1598 -2.6176
  293MOL0     H39546   3.537  10.890   2.100  1.4205 -0.4188  0.6275
  293MOL0     H39547   3.467  10.780   2.385 -0.2448  1.6620  0.1175
  293MOL0     H39548   3.578  10.911   2.340 -1.3502 -0.3153  1.3351
  293MOL0     H39549   3.729  10.746   2.251 -0.7253  1.1548  0.4329
  293MOL0     H39550   3.608  10.617   2.273 -2.4509  0.3002 -0.7761
  293MOL0     H39551   3.761  10.599   2.480  0.8930 -0.2473  0.3373
  293MOL0     H39552   3.604  10.649   2.521  0.0146 -0.0269  1.5073
  293MOL0     H39553   3.838  11.001   2.614  1.0113  1.1966 -2.4628
  293MOL0     H39554   3.119  10.903   2.216  0.6052  0.7886 -0.4519
  293MOL0     H39555   2.917  10.894   2.061 -0.2361  1.1696 -0.7182
  294MOL0     O39556   2.091   2.552   8.773 -0.4316  0.0421 -0.2678
  294MOL0     C39557   2.185   2.549   8.848 -0.0502 -0.3279 -0.6564
  294MOL0     O39558   2.217   2.645   8.936 -0.2106  0.9626  0.7540
  294MOL0     C39559   2.135   2.751   8.977  0.6214  0.1138  0.2417
  294MOL0     C39560   1.995   2.772   8.969 -0.2640  0.4843 -1.0046
  294MOL0     C39561   1.939   2.884   9.021 -0.3457 -0.5877 -0.3337
  294MOL0     C39562   2.008   2.981   9.100  0.2080  0.4902  0.0778
  294MOL0     O39563   1.936   3.080   9.160  0.0504 -0.7648 -0.2461
  294MOL0     C39564   2.003   3.184   9.232 -0.0353 -0.2012 -0.9661
  294MOL0     C39565   1.916   3.288   9.301 -0.1428  0.0370 -0.5705
  294MOL0     C39566   1.837   3.376   9.197  0.6819  0.3969 -0.5537
  294MOL0     C39567   1.737   3.464   9.263 -0.0448 -0.1038  0.0372
  294MOL0     C39568   1.631   3.515   9.160  0.2409  0.0794 -0.1897
  294MOL0     C39569   1.673   3.632   9.073  0.9466 -0.0089 -0.7187
  294MOL0     C39570   1.552   3.681   9.000  0.6178 -0.5542  0.2429
  294MOL0     C39571   1.572   3.825   8.947 -0.9599 -0.1975 -1.0335
  294MOL0     N39572   1.465   3.880   8.865 -0.0967  0.5318 -0.3595
  294MOL0     C39573   1.363   3.961   8.897  0.2908 -0.9984  0.3451
  294MOL0     C39574   1.293   3.984   8.782 -0.2187  0.2685  0.1610
  294MOL0     C39575   1.173   4.081   8.775 -0.1816  0.3402 -0.1765
  294MOL0     C39576   1.156   4.151   8.647 -0.0075  0.4986 -0.4441
  294MOL0     C39577   1.019   4.223   8.635  0.4916  0.5224 -0.2404
  294MOL0     C39578   1.010   4.344   8.742  0.5193  1.8618  0.2235
  294MOL0     O39579   0.971   4.300   8.868  0.0314  0.1541 -0.3555
  294MOL0     C39580   0.837   4.317   8.909  0.3067  0.0944  0.2133
  294MOL0     C39581   0.820   4.291   9.042  0.3635  0.8923  0.2573
  294MOL0     C39582   0.693   4.291   9.100 -0.6543 -1.3603 -0.5720
  294MOL0     C39583   0.690   4.260   9.245  0.4141  0.0733 -0.6060
  294MOL0     C39584   0.582   4.315   9.025  0.3319 -0.8603  0.8915
  294MOL0     C39585   0.441   4.324   9.074 -0.0963  0.3631  0.6858
  294MOL0     O39586   0.347   4.368   8.979 -0.3732  1.0149 -0.1981
  294MOL0     C39587   0.219   4.397   9.022  0.4825  0.0873 -0.3351
  294MOL0     C39588   0.188   4.524   9.067 -0.4271  0.2503  0.0180
  294MOL0     C39589   0.051   4.558   9.083 -0.2072  0.1177  0.2352
  294MOL0     C39590  -0.047   4.463   9.077  0.6736  0.7163  0.9143
  294MOL0     O39591  -0.179   4.483   9.108  0.4045  0.1992 -0.0853
  294MOL0     C39592  -0.244   4.585   9.031  0.0401 -0.6567 -0.2630
  294MOL0     C39593  -0.376   4.635   9.095 -0.2162  0.0873  0.1267
  294MOL0     C39594  -0.358   4.684   9.240 -0.5343  0.0342  0.6774
  294MOL0     C39595  -0.489   4.761   9.267 -0.1669  0.2328  0.0098
  294MOL0     C39596  -0.483   4.807   9.411 -0.2602 -0.0395  0.8253
  294MOL0     C39597  -0.597   4.906   9.462  0.6773  0.6460 -0.7379
  294MOL0     C39598  -0.570   4.931   9.609 -0.2933  0.1660  0.6800
  294MOL0     C39599  -0.623   5.065   9.650 -0.7668 -0.1751 -0.1287
  294MOL0    Cl39600  -0.800   5.086   9.628 -0.4039  0.0790  0.0888
  294MOL0     C39601  -0.015   4.338   9.029 -0.1340  0.0169 -0.9949
  294MOL0     C39602   0.119   4.301   8.995 -0.1866 -0.5903 -1.0547
  294MOL0     O39603   0.411   4.291   9.187  0.1420 -0.3194 -0.0046
  294MOL0     C39604   0.597   4.344   8.889 -0.0243  0.3556  0.0858
  294MOL0     C39605   0.724   4.342   8.827 -0.4837  0.5595 -1.1416
  294MOL0     N39606   1.346   3.901   8.685  0.1451 -0.2330 -0.1322
  294MOL0     N39607   1.449   3.842   8.739  0.3636 -0.5834  0.2412
  294MOL0     C39608   2.147   2.959   9.116  0.5543 -0.8981  0.9830
  294MOL0     C39609   2.208   2.850   9.052 -0.0957  0.1748  0.7792
  294MOL0     C39610   2.281   2.430   8.835  0.5108  0.0065 -0.2424
  294MOL0     C39611   2.257   2.336   8.731 -0.6634  0.1171 -0.2053
  294MOL0     C39612   2.336   2.217   8.729  0.8855 -0.9129  0.3965
  294MOL0     C39613   2.440   2.187   8.828  0.5434 -0.5107  0.3582
  294MOL0     O39614   2.515   2.077   8.829 -0.1381  0.6830  0.1206
  294MOL0     C39615   2.494   1.978   8.726  0.0732 -0.4621 -0.5570
  294MOL0     C39616   2.586   1.857   8.749  0.3051 -0.7307  0.5887
  294MOL0     C39617   2.727   1.884   8.708 -0.1932  0.2010 -0.2107
  294MOL0     C39618   2.820   1.766   8.739  0.7228  0.7139  0.8216
  294MOL0     C39619   2.956   1.823   8.761  0.3959  0.5575  0.3448
  294MOL0     C39620   3.071   1.859   8.786  0.0723 -0.1523 -0.1025
  294MOL0     C39621   2.456   2.291   8.932 -0.4493  0.1961  0.2143
  294MOL0     C39622   2.381   2.409   8.937  0.6870 -0.2255 -0.0349
  294MOL0     H39623   1.935   2.697   8.916 -1.7497  1.2881 -0.5299
  294MOL0     H39624   1.831   2.884   9.023 -0.4003  2.1702  0.2111
  294MOL0     H39625   2.059   3.139   9.315 -0.4237 -3.8425 -2.4967
  294MOL0     H39626   2.074   3.232   9.165  0.1227  1.0457  0.0598
  294MOL0     H39627   1.838   3.236   9.358  2.5987 -1.6911  1.8881
  294MOL0     H39628   1.978   3.345   9.370 -1.7817  0.5695  0.5197
  294MOL0     H39629   1.915   3.445   9.164  1.5132  0.1787  0.8814
  294MOL0     H39630   1.800   3.314   9.116  2.2788 -1.7557  0.2919
  294MOL0     H39631   1.690   3.399   9.337  2.0301  0.7059  2.1871
  294MOL0     H39632   1.792   3.549   9.304 -1.0971  0.6299 -0.0315
  294MOL0     H39633   1.592   3.438   9.092 -1.6742  0.8925 -0.0845
  294MOL0     H39634   1.549   3.553   9.220 -0.4572 -0.6065 -0.6845
  294MOL0     H39635   1.696   3.715   9.141  0.8415 -0.5121 -0.0625
  294MOL0     H39636   1.756   3.613   9.004  0.3136 -2.0537 -0.9777
  294MOL0     H39637   1.532   3.615   8.915 -0.7794  0.2175 -0.0515
  294MOL0     H39638   1.461   3.685   9.061  0.4433 -0.5817 -0.0124
  294MOL0     H39639   1.664   3.817   8.888  1.5126 -1.0794  2.6127
  294MOL0     H39640   1.583   3.888   9.035 -1.5769 -1.1137 -0.2862
  294MOL0     H39641   1.349   4.018   8.989 -0.1993  0.6934 -0.7196
  294MOL0     H39642   1.079   4.026   8.787 -0.2631  1.0359  3.8877
  294MOL0     H39643   1.185   4.147   8.861  3.4314 -1.0625  0.5851
  294MOL0     H39644   1.175   4.084   8.562  0.9249  0.3548 -0.1398
  294MOL0     H39645   1.243   4.218   8.643  1.2254 -1.0740 -1.1219
  294MOL0     H39646   0.933   4.155   8.629 -0.9511  2.1522  1.0411
  294MOL0     H39647   1.018   4.271   8.536  0.6576 -1.4220 -1.2410
  294MOL0     H39648   0.947   4.423   8.701 -0.9425  1.5862  1.8249
  294MOL0     H39649   1.104   4.399   8.753  1.2962  1.6484 -3.7196
  294MOL0     H39650   0.902   4.281   9.111  0.4174  1.3057  0.2517
  294MOL0     H39651   0.658   4.156   9.255  0.1823  0.1699 -0.3218
  294MOL0     H39652   0.788   4.274   9.292 -0.6906  0.2907  1.7855
  294MOL0     H39653   0.622   4.314   9.312  1.2582 -0.5001  0.7609
  294MOL0     H39654   0.266   4.596   9.084  0.4679  0.2212 -3.3218
  294MOL0     H39655   0.025   4.653   9.128 -0.7075  0.6702 -1.1478
  294MOL0     H39656  -0.171   4.665   9.019  0.6967 -1.1364  0.4216
  294MOL0     H39657  -0.275   4.542   8.935 -1.8038 -3.2410  1.3324
  294MOL0     H39658  -0.426   4.706   9.028  0.9341  3.3229  2.4618
  294MOL0     H39659  -0.445   4.551   9.085  0.2017 -0.1047 -1.3186
  294MOL0     H39660  -0.267   4.741   9.263  0.5099 -1.5526  0.6553
  294MOL0     H39661  -0.343   4.599   9.306  1.3145 -0.9220 -0.8682
  294MOL0     H39662  -0.508   4.847   9.203 -2.5593 -0.5791 -0.4844
  294MOL0     H39663  -0.573   4.698   9.236  1.2908 -1.0261 -1.5984
  294MOL0     H39664  -0.398   4.873   9.425  0.4178 -0.6520 -0.2901
  294MOL0     H39665  -0.484   4.724   9.483 -1.6664  0.2272  1.1549
  294MOL0     H39666  -0.604   5.001   9.408 -1.3441  1.8851  1.5083
  294MOL0     H39667  -0.696   4.859   9.463  0.0010  2.0151 -0.6159
  294MOL0     H39668  -0.462   4.922   9.629 -0.8491 -0.8987  3.9644
  294MOL0     H39669  -0.612   4.852   9.673  0.2455  1.1886  2.3701
  294MOL0     H39670  -0.567   5.138   9.590  0.8570 -1.9134 -0.8429
  294MOL0     H39671  -0.605   5.076   9.758 -1.0544  0.7957 -0.1707
  294MOL0     H39672  -0.089   4.259   9.017 -0.2638  0.4870 -3.6800
  294MOL0     H39673   0.142   4.210   8.941  2.0070 -0.0256 -1.1733
  294MOL0     H39674   0.511   4.353   8.825  0.6628  0.2350 -0.8756
  294MOL0     H39675   0.749   4.337   8.721  2.6371 -2.0477 -0.4449
  294MOL0     H39676   2.207   3.028   9.175  1.5864 -0.5460 -0.4100
  294MOL0     H39677   2.316   2.853   9.061 -0.1702  0.7570  1.5990
  294MOL0     H39678   2.182   2.348   8.653 -2.1613 -0.7971  1.0358
  294MOL0     H39679   2.325   2.142   8.651  0.7203 -1.6322  1.1044
  294MOL0     H39680   2.391   1.943   8.733  0.2853 -1.9043 -3.3613
  294MOL0     H39681   2.526   2.025   8.632 -0.3665  0.2053 -0.3842
  294MOL0     H39682   2.552   1.772   8.688 -1.1291  0.7729 -0.7909
  294MOL0     H39683   2.582   1.824   8.854 -1.7143 -2.5603  0.0172
  294MOL0     H39684   2.765   1.965   8.771 -0.2447 -1.4293  2.0359
  294MOL0     H39685   2.720   1.910   8.602 -0.9908  1.0382  0.0374
  294MOL0     H39686   2.815   1.692   8.659  2.4325 -1.5645  2.6948
  294MOL0     H39687   2.795   1.714   8.832  1.0985  2.7370  2.1194
  294MOL0     H39688   3.174   1.888   8.786  0.3703 -1.1190 -1.0591
  294MOL0     H39689   2.523   2.275   9.016  2.8660 -1.6856 -2.5704
  294MOL0     H39690   2.405   2.467   9.025  0.3067  1.2303 -0.8633
  295MOL0     O39691   6.319  10.350   6.298 -0.0727 -0.2733  0.2449
  295MOL0     C39692   6.446  10.363   6.300  0.7940 -0.0993  1.3546
  295MOL0     O39693   6.511  10.461   6.369 -0.1534 -0.6645  0.1351
  295MOL0     C39694   6.426  10.550   6.444 -0.3631  0.4774  0.1304
  295MOL0     C39695   6.422  10.687   6.416  0.4582  0.2411 -0.2489
  295MOL0     C39696   6.343  10.775   6.493  0.5640  0.2124 -0.6618
  295MOL0     C39697   6.280  10.726   6.605  0.9932 -0.5707 -0.2206
  295MOL0     O39698   6.199  10.813   6.677  0.0741  0.2159 -0.6949
  295MOL0     C39699   6.177  10.955   6.647 -0.8801 -0.2183  0.1419
  295MOL0     C39700   6.091  11.018   6.752 -0.0682 -0.5807  0.3460
  295MOL0     C39701   5.947  10.957   6.744 -0.4574  0.1881  0.8832
  295MOL0     C39702   5.857  11.044   6.831  0.3675  0.4869  0.1941
  295MOL0     C39703   5.732  10.962   6.858  1.0269  0.4282 -1.1479
  295MOL0     C39704   5.662  10.908   6.731 -0.3554 -0.0725 -0.1866
  295MOL0     C39705   5.537  10.813   6.773 -0.1906  0.2576 -0.3424
  295MOL0     C39706   5.417  10.882   6.822  0.7675  0.1599 -0.7290
  295MOL0     N39707   5.318  10.782   6.864  0.6052 -0.3841 -0.1225
  295MOL0     C39708   5.203  10.767   6.789  0.2234  0.2970 -0.2793
  295MOL0     C39709   5.126  10.685   6.864 -0.2137 -0.1971  0.1381
  295MOL0     C39710   4.993  10.630   6.813 -0.2893 -0.5986  0.0269
  295MOL0     C39711   4.881  10.730   6.855  0.5475  0.2368  0.7421
  295MOL0     C39712   4.837  10.714   6.998 -0.3018  0.0055 -0.0445
  295MOL0     C39713   4.696  10.764   7.023  0.4909  0.6804 -0.5667
  295MOL0     O39714   4.666  10.893   6.962  0.0160  0.5680 -0.2815
  295MOL0     C39715   4.537  10.921   6.936  1.0735 -0.2197  0.4126
  295MOL0     C39716   4.530  11.028   6.851  0.1770 -0.5127  0.1715
  295MOL0     C39717   4.408  11.078   6.806  0.1639  0.5571  0.4998
  295MOL0     C39718   4.416  11.198   6.704  0.2816  0.1601  0.0013
  295MOL0     C39719   4.283  11.020   6.840 -0.7609 -0.4240  0.7917
  295MOL0     C39720   4.151  11.060   6.791 -0.1190 -0.2567 -0.3418
  295MOL0     O39721   4.042  11.032   6.863  0.0652 -0.4611 -0.4984
  295MOL0     C39722   3.920  11.060   6.796 -0.5746 -0.4156  0.1535
  295MOL0     C39723   3.867  11.181   6.798 -0.1011 -0.0699 -0.7444
  295MOL0     C39724   3.744  11.222   6.732  0.2963  0.4411  0.1152
  295MOL0     C39725   3.686  11.124   6.653 -0.6007 -0.0726  0.1195
  295MOL0     O39726   3.570  11.143   6.579 -0.0582  0.9445  0.2315
  295MOL0     C39727   3.562  11.232   6.465 -0.0243 -0.2244  0.1384
  295MOL0     C39728   3.600  11.170   6.328  0.6462 -0.1434 -0.4672
  295MOL0     C39729   3.534  11.027   6.300  0.0994 -0.1939  0.4117
  295MOL0     C39730   3.623  10.966   6.185 -0.2844 -0.4842 -0.5279
  295MOL0     C39731   3.569  10.819   6.168  0.3377 -0.6153  0.0531
  295MOL0     C39732   3.636  10.743   6.049 -0.7205  0.1412  0.1505
  295MOL0     C39733   3.566  10.610   6.011  0.1443  0.2035  0.7245
  295MOL0     C39734   3.608  10.554   5.881  0.0083 -0.3952  0.4849
  295MOL0    Cl39735   3.777  10.529   5.891 -0.2260 -1.0076  0.0918
  295MOL0     C39736   3.742  11.000   6.660  0.1518  0.0244  0.1734
  295MOL0     C39737   3.865  10.968   6.718 -0.2575  0.4403  0.3108
  295MOL0     O39738   4.155  11.118   6.683 -0.2091  0.7364  0.3756
  295MOL0     C39739   4.290  10.919   6.931 -0.9271 -0.4146 -0.8816
  295MOL0     C39740   4.416  10.856   6.976  0.0141  0.2948 -0.4295
  295MOL0     N39741   5.197  10.655   6.981  1.1900  0.1921  0.0925
  295MOL0     N39742   5.315  10.707   6.974  0.1187  0.5118 -0.3397
  295MOL0     C39743   6.283  10.590   6.637  0.2001  0.5311  0.6170
  295MOL0     C39744   6.366  10.503   6.557  0.1630  0.6655  0.4103
  295MOL0     C39745   6.535  10.275   6.212 -0.4427 -0.3583 -0.7656
  295MOL0     C39746   6.678  10.287   6.206 -0.8816  0.7692  0.0806
  295MOL0     C39747   6.754  10.194   6.124 -0.1994 -0.8029 -0.0021
  295MOL0     C39748   6.692  10.103   6.041  0.3166  0.1151 -0.8605
  295MOL0     O39749   6.781  10.017   5.985 -0.5211  0.4443  0.9945
  295MOL0     C39750   6.734   9.896   5.937 -0.1054  0.0097  0.8629
  295MOL0     C39751   6.842   9.794   5.903  0.7332  0.5286 -0.1419
  295MOL0     C39752   6.976   9.861   5.844 -0.5664  1.4756 -0.0242
  295MOL0     C39753   7.088   9.853   5.942  0.4975  0.0534 -0.2327
  295MOL0     C39754   7.208   9.899   5.874  0.1712  0.5755  0.3306
  295MOL0     C39755   7.290   9.941   5.795 -0.3785 -0.3659  0.0405
  295MOL0     C39756   6.550  10.107   6.044 -0.5145  0.6277 -0.4859
  295MOL0     C39757   6.474  10.192   6.121 -0.4986  0.1138  0.1444
  295MOL0     H39758   6.473  10.732   6.331 -2.5140  0.5727 -2.0205
  295MOL0     H39759   6.353  10.878   6.460  0.1896  0.3389 -0.3816
  295MOL0     H39760   6.272  11.009   6.647 -0.6371 -0.6330  0.6475
  295MOL0     H39761   6.149  10.955   6.541  3.0532  0.1629 -1.0989
  295MOL0     H39762   6.128  11.010   6.854 -0.8222  0.1001  0.6819
  295MOL0     H39763   6.071  11.124   6.730 -0.1173 -0.5305  0.6276
  295MOL0     H39764   5.901  10.963   6.645 -1.6584  0.8581  1.4539
  295MOL0     H39765   5.955  10.855   6.781 -0.5996  1.1966  4.0675
  295MOL0     H39766   5.902  11.062   6.929 -2.0912  1.4483  1.2190
  295MOL0     H39767   5.829  11.140   6.786 -1.9442  0.6894  1.8980
  295MOL0     H39768   5.759  10.875   6.918 -0.2735 -0.4053 -1.7239
  295MOL0     H39769   5.656  11.020   6.912  1.0853 -1.3010  0.9278
  295MOL0     H39770   5.618  10.987   6.669 -1.9322 -0.6216  0.1804
  295MOL0     H39771   5.732  10.849   6.671 -2.8148 -1.2459 -2.0618
  295MOL0     H39772   5.514  10.755   6.682 -0.0964  1.7976 -1.3838
  295MOL0     H39773   5.570  10.733   6.840 -1.9359 -1.1055 -1.0124
  295MOL0     H39774   5.372  10.955   6.754 -0.4077  0.2995  0.1680
  295MOL0     H39775   5.447  10.947   6.905 -0.5234  0.3595 -0.4003
  295MOL0     H39776   5.194  10.814   6.692 -0.5900 -0.1419 -0.4269
  295MOL0     H39777   4.994  10.632   6.704  1.5621  0.1614  0.0322
  295MOL0     H39778   4.972  10.529   6.852  1.9620 -0.6555  1.2698
  295MOL0     H39779   4.793  10.722   6.790 -0.6585  0.2742  2.3109
  295MOL0     H39780   4.913  10.832   6.832 -0.9834  0.4372 -0.7227
  295MOL0     H39781   4.905  10.773   7.060 -1.8686  1.4466  0.3639
  295MOL0     H39782   4.846  10.608   7.025 -2.4868  0.4449  2.8366
  295MOL0     H39783   4.683  10.767   7.132  1.1292 -2.0443 -0.3640
  295MOL0     H39784   4.633  10.682   6.989 -0.0167 -1.0406  3.8328
  295MOL0     H39785   4.624  11.071   6.816 -0.5242  0.5631 -0.4314
  295MOL0     H39786   4.344  11.280   6.709  1.3948  1.1215  0.6367
  295MOL0     H39787   4.516  11.243   6.710  0.6817 -0.5738 -0.8515
  295MOL0     H39788   4.405  11.163   6.601 -3.0207  0.7348  0.0517
  295MOL0     H39789   3.929  11.258   6.843  2.1987 -2.1998 -0.0198
  295MOL0     H39790   3.699  11.321   6.736  0.7979  0.6678  0.3452
  295MOL0     H39791   3.459  11.266   6.450 -1.0950 -2.8770  0.9269
  295MOL0     H39792   3.627  11.318   6.484 -1.5237  1.0846 -0.4330
  295MOL0     H39793   3.578  11.246   6.252 -1.3293  0.5102  0.6665
  295MOL0     H39794   3.708  11.172   6.346  0.2323  1.8479  2.6800
  295MOL0     H39795   3.429  11.038   6.270  0.1526  4.0992  1.1266
  295MOL0     H39796   3.548  10.968   6.390  0.4820  0.3828  0.7363
  295MOL0     H39797   3.622  11.025   6.093  1.2656  2.5703  1.2348
  295MOL0     H39798   3.730  10.967   6.206  0.1797 -2.2806 -2.4777
  295MOL0     H39799   3.462  10.828   6.152  0.2349 -0.9777  0.4988
  295MOL0     H39800   3.597  10.769   6.262 -1.0326 -2.3220 -0.3964
  295MOL0     H39801   3.642  10.807   5.961  2.6006 -1.0133 -0.6224
  295MOL0     H39802   3.733  10.712   6.091 -1.2200  2.0406  3.0338
  295MOL0     H39803   3.459  10.624   5.991  0.1139  0.6179  1.1641
  295MOL0     H39804   3.578  10.544   6.098 -0.1994  1.3347  1.6439
  295MOL0     H39805   3.587  10.625   5.801 -1.0668  0.4822  1.4971
  295MOL0     H39806   3.569  10.454   5.857 -0.9425  0.2858 -0.8965
  295MOL0     H39807   3.702  10.922   6.596  0.6636  2.1101 -2.9188
  295MOL0     H39808   3.905  10.869   6.698 -1.3418  0.2337 -1.0008
  295MOL0     H39809   4.199  10.879   6.972 -2.0802 -0.9567 -3.7249
  295MOL0     H39810   4.403  10.765   7.033 -0.9382  1.1786  0.8296
  295MOL0     H39811   6.237  10.543   6.723 -0.5681  1.1493  0.5614
  295MOL0     H39812   6.352  10.395   6.557  0.6878  0.4983 -2.9412
  295MOL0     H39813   6.735  10.359   6.265 -1.6420  0.4996  1.1614
  295MOL0     H39814   6.863  10.188   6.128 -0.1526 -0.0820 -0.1517
  295MOL0     H39815   6.662   9.853   6.007  0.1161  2.1805  2.5202
  295MOL0     H39816   6.677   9.909   5.844 -0.3405 -1.5454  0.7552
  295MOL0     H39817   6.797   9.728   5.829 -0.0631 -1.7855  2.2604
  295MOL0     H39818   6.862   9.729   5.989 -1.2774 -1.5164 -1.1206
  295MOL0     H39819   6.958   9.968   5.833  2.8108  2.4242  2.1445
  295MOL0     H39820   7.008   9.803   5.757 -0.6625 -3.0338  2.5840
  295MOL0     H39821   7.099   9.753   5.984 -1.9904 -0.8934 -1.6255
  295MOL0     H39822   7.064   9.918   6.027 -2.6526 -1.7597  0.4444
  295MOL0     H39823   7.339   9.994   5.716  0.0838  2.1507  1.9049
  295MOL0     H39824   6.491  10.028   5.998 -3.4461 -0.7823  4.8267
  295MOL0     H39825   6.368  10.178   6.105 -0.5654 -0.1131  0.7555
  296MOL0     O39826   9.856   6.865   1.543  0.1977 -0.5439  0.0070
  296MOL0     C39827   9.967   6.848   1.503 -1.0824 -0.0604 -0.0668
  296MOL0     O39828  10.006   6.763   1.397  0.1779  0.3688  0.6561
  296MOL0     C39829   9.920   6.685   1.318  0.2302 -0.2972 -0.2596
  296MOL0     C39830   9.787   6.728   1.295  0.2251  0.4177  0.4673
  296MOL0     C39831   9.699   6.647   1.225  0.3982  0.5511  0.3797
  296MOL0     C39832   9.742   6.537   1.153 -0.0352 -0.1359 -0.6199
  296MOL0     O39833   9.638   6.464   1.100  0.4128 -0.2897 -0.1923
  296MOL0     C39834   9.669   6.336   1.049 -0.2622  0.3617  0.3808
  296MOL0     C39835   9.542   6.274   0.985  0.5046  0.1788 -0.0935
  296MOL0     C39836   9.511   6.305   0.834  0.2506 -0.8871  0.0616
  296MOL0     C39837   9.415   6.207   0.786  0.2929  0.4209 -0.2242
  296MOL0     C39838   9.354   6.228   0.643  0.1903  0.3453 -0.2205
  296MOL0     C39839   9.209   6.176   0.634 -0.5283 -0.1050  0.2206
  296MOL0     C39840   9.162   6.177   0.491  0.3135 -0.5250  0.1236
  296MOL0     C39841   9.028   6.109   0.463 -0.3167  0.0457  0.4150
  296MOL0     N39842   8.986   6.088   0.319 -0.2786 -0.3899  0.5382
  296MOL0     C39843   8.992   6.187   0.229 -0.6742 -0.0209  0.2160
  296MOL0     C39844   8.976   6.113   0.115 -0.3113 -0.1934  0.4376
  296MOL0     C39845   8.984   6.167  -0.024 -0.0439  0.1790 -0.6583
  296MOL0     C39846   8.852   6.227  -0.074 -0.0511 -0.4708 -0.6119
  296MOL0     C39847   8.726   6.139  -0.048 -0.6646  0.2498 -0.2075
  296MOL0     C39848   8.598   6.223  -0.081 -0.2729  0.6458 -0.8868
  296MOL0     O39849   8.488   6.131  -0.109  0.3223  0.2335 -0.5417
  296MOL0     C39850   8.370   6.178  -0.156  0.6411  0.0188 -0.0230
  296MOL0     C39851   8.330   6.315  -0.150 -0.1215 -0.8372 -0.0912
  296MOL0     C39852   8.208   6.355  -0.203  0.1668 -0.1343 -0.1299
  296MOL0     C39853   8.186   6.502  -0.198 -0.1171 -0.1594 -0.1042
  296MOL0     C39854   8.116   6.259  -0.250 -0.1156  0.0477  0.3397
  296MOL0     C39855   7.986   6.296  -0.304  0.7362 -0.6252 -0.6242
  296MOL0     O39856   7.921   6.209  -0.385  0.4483 -1.0115 -0.1186
  296MOL0     C39857   7.799   6.254  -0.438 -0.4592 -0.1356 -0.5637
  296MOL0     C39858   7.679   6.210  -0.375 -0.4651  0.0037  0.0491
  296MOL0     C39859   7.554   6.266  -0.412 -0.6438 -0.3481 -1.0946
  296MOL0     C39860   7.549   6.362  -0.520 -0.7199 -0.2162 -0.5888
  296MOL0     O39861   7.434   6.426  -0.559  0.1560  0.5155  0.0666
  296MOL0     C39862   7.302   6.367  -0.518 -0.1172 -0.0874 -1.0355
  296MOL0     C39863   7.181   6.434  -0.587  0.1519  0.5010  0.3200
  296MOL0     C39864   7.049   6.367  -0.551  0.7839 -0.1625  0.4464
  296MOL0     C39865   6.995   6.406  -0.415  0.3480 -0.8488 -0.1229
  296MOL0     C39866   6.843   6.374  -0.390 -0.4175 -0.6335  0.5090
  296MOL0     C39867   6.820   6.229  -0.355  0.2030 -0.3794  0.0905
  296MOL0     C39868   6.683   6.181  -0.383 -0.0029 -0.8782 -0.3293
  296MOL0     C39869   6.674   6.030  -0.376 -0.0193  0.2750  0.0490
  296MOL0    Cl39870   6.721   5.973  -0.217  0.1093 -0.1034  0.0274
  296MOL0     C39871   7.666   6.391  -0.593 -0.8340 -0.3057 -0.6871
  296MOL0     C39872   7.795   6.344  -0.546 -0.3115 -0.4121  0.1658
  296MOL0     O39873   7.933   6.398  -0.261  0.4517 -0.3753  0.2686
  296MOL0     C39874   8.154   6.129  -0.264 -0.8418 -0.2152  0.6175
  296MOL0     C39875   8.278   6.080  -0.217 -0.7199 -0.2958 -0.4188
  296MOL0     N39876   8.956   5.982   0.134  0.0825  0.0217 -0.3800
  296MOL0     N39877   8.973   5.964   0.268 -0.0321 -0.2665 -0.0353
  296MOL0     C39878   9.880   6.500   1.165 -0.1837 -0.3378  0.4449
  296MOL0     C39879   9.969   6.570   1.249  0.3466  0.1078  0.1991
  296MOL0     C39880  10.068   6.935   1.558 -0.7883 -0.0259 -0.7415
  296MOL0     C39881  10.031   7.023   1.665 -0.2437  1.2157 -0.0524
  296MOL0     C39882  10.128   7.101   1.721 -0.8285 -0.3921 -0.3413
  296MOL0     C39883  10.260   7.099   1.677  0.1397  0.0787  0.4436
  296MOL0     O39884  10.362   7.187   1.724 -0.3926  0.2633 -0.4146
  296MOL0     C39885  10.336   7.262   1.849  0.0278 -0.3038 -0.0676
  296MOL0     C39886  10.468   7.264   1.919 -0.4085  0.4988  0.1144
  296MOL0     C39887  10.582   7.332   1.837 -0.8039 -0.0767  0.5241
  296MOL0     C39888  10.703   7.336   1.930 -0.2372  0.4876  0.5685
  296MOL0     C39889  10.814   7.416   1.883  0.8027  0.2468  0.2969
  296MOL0     C39890  10.903   7.490   1.845 -0.1077  0.9728  0.4136
  296MOL0     C39891  10.301   7.013   1.569  0.7976 -0.4298 -0.6081
  296MOL0     C39892  10.200   6.934   1.507 -1.2874  0.1135  0.1502
  296MOL0     H39893   9.746   6.823   1.328  0.4948  0.2899  1.2139
  296MOL0     H39894   9.603   6.688   1.197  0.8007  2.2900  1.4023
  296MOL0     H39895   9.738   6.325   0.965 -0.3245 -1.6346  0.5513
  296MOL0     H39896   9.707   6.262   1.120  0.6932 -4.7600 -4.7587
  296MOL0     H39897   9.572   6.170   0.977 -2.2763 -0.8584  1.5126
  296MOL0     H39898   9.451   6.283   1.046  0.9042  1.7477  0.3261
  296MOL0     H39899   9.477   6.409   0.833 -0.4584 -1.0866  1.4504
  296MOL0     H39900   9.607   6.306   0.781 -0.3738  1.0942 -1.1619
  296MOL0     H39901   9.454   6.105   0.783 -3.3407 -1.0966 -2.4651
  296MOL0     H39902   9.331   6.215   0.855  1.6162 -0.3620  1.5380
  296MOL0     H39903   9.365   6.329   0.604  0.8676  0.0059 -0.9399
  296MOL0     H39904   9.414   6.168   0.573 -1.4848  0.7932 -2.1061
  296MOL0     H39905   9.209   6.075   0.676 -0.8940 -0.2645 -0.1524
  296MOL0     H39906   9.133   6.231   0.690  0.7644  1.4381  0.5288
  296MOL0     H39907   9.151   6.285   0.476 -0.0542 -0.7476 -1.4207
  296MOL0     H39908   9.240   6.129   0.432 -0.1054  0.0432 -0.9251
  296MOL0     H39909   8.954   6.175   0.509 -1.7020 -0.7654 -0.5951
  296MOL0     H39910   9.021   6.010   0.508  1.7354 -0.6643 -0.6961
  296MOL0     H39911   9.017   6.292   0.241 -0.1716 -0.0654 -0.4471
  296MOL0     H39912   9.055   6.250  -0.035 -1.3812  2.8072  5.8267
  296MOL0     H39913   9.009   6.085  -0.093 -0.2258 -1.4557  1.1478
  296MOL0     H39914   8.867   6.251  -0.180 -0.6987  0.0709 -0.5903
  296MOL0     H39915   8.839   6.320  -0.017 -0.8543 -0.8922 -0.0959
  296MOL0     H39916   8.717   6.111   0.057  1.1216 -1.0448 -0.3425
  296MOL0     H39917   8.732   6.041  -0.097  1.4187  0.7370 -1.0213
  296MOL0     H39918   8.617   6.285  -0.170  2.9978  1.2838  0.1013
  296MOL0     H39919   8.572   6.287   0.003  1.3712  1.0681 -0.6657
  296MOL0     H39920   8.395   6.393  -0.111  0.9972 -1.6003 -0.3925
  296MOL0     H39921   8.282   6.554  -0.195  0.8019 -1.8115  1.2802
  296MOL0     H39922   8.137   6.546  -0.285  2.9628  1.2889 -1.2464
  296MOL0     H39923   8.130   6.526  -0.106 -1.2769 -2.0700 -0.2591
  296MOL0     H39924   7.679   6.141  -0.291 -1.8255 -1.0085 -0.7426
  296MOL0     H39925   7.473   6.234  -0.348  0.1793 -2.2286 -0.9524
  296MOL0     H39926   7.300   6.258  -0.527  2.5689 -0.1068 -2.2470
  296MOL0     H39927   7.293   6.376  -0.409  1.5867 -4.2793 -0.3594
  296MOL0     H39928   7.181   6.541  -0.569 -0.7123  0.1039  3.1594
  296MOL0     H39929   7.196   6.415  -0.694  1.0883 -4.2793  1.0794
  296MOL0     H39930   7.063   6.259  -0.554  2.0362  0.0010 -0.1728
  296MOL0     H39931   6.975   6.380  -0.631 -0.0503 -3.8703  0.4221
  296MOL0     H39932   7.061   6.376  -0.334  1.5184  1.0544 -0.2938
  296MOL0     H39933   7.015   6.514  -0.418  0.5724 -0.7961  2.0095
  296MOL0     H39934   6.792   6.404  -0.482  0.2442  1.1141  0.6628
  296MOL0     H39935   6.813   6.449  -0.316 -1.8801  0.4479 -1.0894
  296MOL0     H39936   6.898   6.172  -0.407  0.2156 -0.9783  0.7545
  296MOL0     H39937   6.840   6.219  -0.248  0.9092  1.4444  0.1635
  296MOL0     H39938   6.648   6.209  -0.484  0.8868  1.3858 -0.0782
  296MOL0     H39939   6.616   6.221  -0.306 -2.7967  0.6246 -3.2192
  296MOL0     H39940   6.734   5.987  -0.456 -0.5869 -0.8856  0.2308
  296MOL0     H39941   6.569   6.004  -0.394 -0.3925  0.5804  1.6217
  296MOL0     H39942   7.667   6.472  -0.666 -0.1084  0.8292  0.5324
  296MOL0     H39943   7.883   6.387  -0.594 -0.5061 -0.1167  0.0667
  296MOL0     H39944   8.100   6.072  -0.338  0.6431 -0.5975 -0.2258
  296MOL0     H39945   8.306   5.977  -0.233  1.9076  0.3647 -0.5356
  296MOL0     H39946   9.917   6.416   1.107 -2.1852 -1.9376  1.3373
  296MOL0     H39947  10.070   6.537   1.269  0.0546 -1.0298 -0.0761
  296MOL0     H39948   9.929   7.031   1.702  0.2419  1.0144  1.3844
  296MOL0     H39949  10.093   7.178   1.790 -0.7556  0.6167 -1.4026
  296MOL0     H39950  10.298   7.358   1.813 -2.0086 -1.0833 -0.1515
  296MOL0     H39951  10.259   7.230   1.919 -0.6701  0.1962 -0.5904
  296MOL0     H39952  10.505   7.166   1.952  2.2499  1.2395 -0.4313
  296MOL0     H39953  10.452   7.322   2.010 -0.6752  1.3604 -0.4711
  296MOL0     H39954  10.565   7.436   1.806  0.4746  0.4462  1.4574
  296MOL0     H39955  10.605   7.276   1.746  0.2211  3.5772 -1.6639
  296MOL0     H39956  10.739   7.234   1.944 -1.6254 -0.3509 -1.4667
  296MOL0     H39957  10.680   7.371   2.031  0.6802  0.0948  0.9225
  296MOL0     H39958  10.977   7.562   1.815  1.9577 -0.8031  0.9924
  296MOL0     H39959  10.406   7.014   1.543  1.2237  1.4037  0.9770
  296MOL0     H39960  10.230   6.879   1.418  0.9244  2.1247 -0.4619
  297MOL0     O39961   5.277   3.613   4.571  0.0606 -0.7328 -1.1273
  297MOL0     C39962   5.230   3.511   4.526  0.2704 -0.3387 -0.4080
  297MOL0     O39963   5.092   3.481   4.512 -0.1825 -0.2902 -0.0657
  297MOL0     C39964   5.003   3.572   4.570  0.1216 -0.0897  0.4036
  297MOL0     C39965   5.016   3.627   4.698  0.7608 -0.2987 -0.5393
  297MOL0     C39966   4.921   3.715   4.755 -0.1249 -0.3949  0.8729
  297MOL0     C39967   4.802   3.730   4.685  0.0949 -0.4933  1.0791
  297MOL0     O39968   4.704   3.790   4.754  0.3803 -0.2526 -0.0030
  297MOL0     C39969   4.611   3.859   4.670  0.9653  0.0014 -0.9260
  297MOL0     C39970   4.512   3.938   4.764 -0.0481  0.0462  0.0314
  297MOL0     C39971   4.428   3.835   4.841 -0.7516  0.2317  0.4004
  297MOL0     C39972   4.283   3.888   4.864  0.1977  0.1348 -0.0978
  297MOL0     C39973   4.199   3.884   4.739 -0.4744 -0.3319  0.5949
  297MOL0     C39974   4.053   3.917   4.777 -0.3584  0.9400 -0.4367
  297MOL0     C39975   3.974   3.916   4.654 -0.7214  0.3110  0.1415
  297MOL0     C39976   3.817   3.926   4.678 -0.2517 -0.9265 -0.2627
  297MOL0     N39977   3.781   4.068   4.715 -0.3307  1.1259 -0.0547
  297MOL0     C39978   3.684   4.110   4.797 -0.5210 -0.3772  0.0756
  297MOL0     C39979   3.689   4.245   4.786  0.3218  0.7450 -0.2900
  297MOL0     C39980   3.595   4.340   4.865  0.5958  0.4244 -1.1151
  297MOL0     C39981   3.450   4.335   4.821 -0.9038 -0.6324 -0.6365
  297MOL0     C39982   3.356   4.432   4.907 -0.4603  0.3140  0.2678
  297MOL0     C39983   3.235   4.450   4.833  1.1892 -0.5195  0.5749
  297MOL0     O39984   3.159   4.332   4.821  0.0081 -0.5144  0.0763
  297MOL0     C39985   3.102   4.306   4.696 -0.2419 -0.2504  0.4017
  297MOL0     C39986   3.075   4.173   4.667 -0.7398 -0.3141 -0.2527
  297MOL0     C39987   2.985   4.142   4.563 -0.0532  0.1539 -0.0279
  297MOL0     C39988   2.942   4.006   4.555 -0.2013 -0.1215 -0.2453
  297MOL0     C39989   2.938   4.241   4.477  0.6372  0.1334 -0.1017
  297MOL0     C39990   2.827   4.217   4.370 -0.2583  0.0361  0.4296
  297MOL0     O39991   2.763   4.328   4.330 -0.8510 -0.5832  0.1536
  297MOL0     C39992   2.634   4.328   4.291 -0.0307 -0.6832  0.2700
  297MOL0     C39993   2.573   4.456   4.277 -0.5779  0.1572  0.2399
  297MOL0     C39994   2.436   4.464   4.228 -0.0859 -0.6222  0.4335
  297MOL0     C39995   2.360   4.348   4.221  0.0200 -0.4657 -0.8184
  297MOL0     O39996   2.223   4.350   4.203 -0.2117  0.0647  0.3220
  297MOL0     C39997   2.150   4.456   4.270  0.1022  0.8145  0.0686
  297MOL0     C39998   1.997   4.433   4.250 -0.6328  0.2047 -0.0186
  297MOL0     C39999   1.950   4.350   4.368 -0.4000 -0.3469 -0.2243
  297MOL0     C40000   1.795   4.324   4.339 -1.0290  0.0231 -0.6233
  297MOL0     C40001   1.720   4.232   4.432  0.2459  0.4929 -0.5503
  297MOL0     C40002   1.722   4.279   4.576 -0.0687  1.7534  0.3329
  297MOL0     C40003   1.664   4.170   4.664  0.3912  0.3516  0.9459
  297MOL0     C40004   1.628   4.219   4.801 -0.0794  1.0257 -0.7091
  297MOL0    Cl40005   1.563   4.082   4.901  0.0530  0.3094  0.1636
  297MOL0     C40006   2.422   4.220   4.249  0.3232 -0.7421 -0.2405
  297MOL0     C40007   2.552   4.211   4.278 -0.5463  0.0590 -0.7041
  297MOL0     O40008   2.803   4.109   4.323 -0.4778  0.1271 -0.7418
  297MOL0     C40009   2.980   4.374   4.498  0.4560 -0.4601 -1.2420
  297MOL0     C40010   3.059   4.407   4.609 -1.3044 -0.2324  0.5113
  297MOL0     N40011   3.781   4.272   4.693 -0.2881  0.5306 -0.3125
  297MOL0     N40012   3.827   4.166   4.639 -0.5383 -0.6495 -0.4533
  297MOL0     C40013   4.785   3.671   4.566  0.4408  0.3004  0.3321
  297MOL0     C40014   4.879   3.595   4.504  0.7649 -0.0678 -0.4022
  297MOL0     C40015   5.322   3.400   4.502  1.2063 -1.0677 -0.8051
  297MOL0     C40016   5.272   3.275   4.457 -0.5729 -0.6899  0.8146
  297MOL0     C40017   5.367   3.173   4.442  0.3740 -0.0898 -0.8793
  297MOL0     C40018   5.507   3.191   4.469 -0.5120  0.8710  0.2525
  297MOL0     O40019   5.582   3.077   4.445  0.4526 -0.9348 -0.0054
  297MOL0     C40020   5.722   3.071   4.475  0.8138 -0.3292 -0.7382
  297MOL0     C40021   5.745   3.071   4.630 -0.4877 -1.0499 -0.0360
  297MOL0     C40022   5.901   3.058   4.657  0.6019  0.0131 -0.8997
  297MOL0     C40023   5.934   2.912   4.704  0.2321 -0.4507 -1.1418
  297MOL0     C40024   5.941   2.814   4.600  0.2738 -0.0732  0.3373
  297MOL0     C40025   5.945   2.745   4.502  0.0266  0.0638  0.0895
  297MOL0     C40026   5.548   3.305   4.516 -0.8299  0.5648 -0.0367
  297MOL0     C40027   5.460   3.412   4.531 -0.0295 -0.0726 -0.1102
  297MOL0     H40028   5.099   3.605   4.764 -0.2407 -0.1787  0.7954
  297MOL0     H40029   4.939   3.749   4.857  0.4957 -0.1187  0.6796
  297MOL0     H40030   4.669   3.931   4.612  1.3410  0.2694 -0.2259
  297MOL0     H40031   4.537   3.807   4.608 -1.3384  2.4650 -0.4540
  297MOL0     H40032   4.570   4.002   4.831 -1.1840  2.4454 -1.1793
  297MOL0     H40033   4.444   4.009   4.718 -0.3760 -0.1616  0.1879
  297MOL0     H40034   4.429   3.741   4.784  0.9612  0.8859 -0.7098
  297MOL0     H40035   4.479   3.814   4.935  0.2505  0.8745  0.0076
  297MOL0     H40036   4.240   3.823   4.940  0.6947 -1.9373 -1.4962
  297MOL0     H40037   4.296   3.993   4.893  0.8858  0.0686 -0.1479
  297MOL0     H40038   4.238   3.951   4.662  2.7821 -0.0616  2.3158
  297MOL0     H40039   4.202   3.784   4.694 -3.9926 -0.8888  1.3286
  297MOL0     H40040   4.014   3.832   4.835 -1.3786 -0.6849 -3.3094
  297MOL0     H40041   4.045   4.009   4.836 -0.8858  1.5263 -1.4023
  297MOL0     H40042   4.008   3.997   4.589 -2.0840  2.3492  1.8175
  297MOL0     H40043   3.993   3.817   4.612 -1.0470  0.8045 -1.1962
  297MOL0     H40044   3.792   3.864   4.765 -2.1898  1.4087  0.9757
  297MOL0     H40045   3.768   3.905   4.582  0.9037  2.0484 -1.6109
  297MOL0     H40046   3.617   4.055   4.864  1.0893 -1.0765  1.1870
  297MOL0     H40047   3.605   4.309   4.970  0.1549 -1.9095 -1.6980
  297MOL0     H40048   3.641   4.439   4.855  2.2991  0.3482  3.4232
  297MOL0     H40049   3.410   4.235   4.835 -1.8656  0.0442  1.8004
  297MOL0     H40050   3.447   4.363   4.715 -1.1986  1.0658 -0.2063
  297MOL0     H40051   3.405   4.526   4.935 -0.2520 -0.3012  2.1041
  297MOL0     H40052   3.329   4.386   5.002  3.6701  1.1055  2.0330
  297MOL0     H40053   3.266   4.487   4.734 -0.7295 -0.0197  0.1268
  297MOL0     H40054   3.167   4.518   4.885  0.7039 -2.1660  2.1795
  297MOL0     H40055   3.103   4.093   4.735 -1.4679 -0.3338  0.0348
  297MOL0     H40056   2.833   3.995   4.558  0.0659 -3.7473  0.6073
  297MOL0     H40057   2.976   3.966   4.459  2.1062  1.9624 -0.4125
  297MOL0     H40058   2.979   3.944   4.637  0.1990  0.4211 -0.0092
  297MOL0     H40059   2.635   4.544   4.288  1.1440 -0.7721 -1.3767
  297MOL0     H40060   2.389   4.560   4.206  1.2518 -0.3449 -1.5544
  297MOL0     H40061   2.174   4.443   4.376 -1.0800  1.6159  0.4590
  297MOL0     H40062   2.170   4.556   4.232  1.2008  1.2000  1.5444
  297MOL0     H40063   1.940   4.526   4.240 -0.3237  0.4709  0.6774
  297MOL0     H40064   1.988   4.381   4.154  0.6152  1.7744 -1.0419
  297MOL0     H40065   1.955   4.408   4.460 -1.2896 -0.1725 -0.2757
  297MOL0     H40066   2.010   4.259   4.366 -0.7638 -0.6414  1.3851
  297MOL0     H40067   1.755   4.426   4.350 -0.1083  0.5998 -2.2559
  297MOL0     H40068   1.773   4.293   4.237 -1.3417  2.0634 -1.2169
  297MOL0     H40069   1.768   4.133   4.434 -0.8967 -0.1225 -1.6522
  297MOL0     H40070   1.622   4.224   4.385  0.0476 -1.0548  0.0660
  297MOL0     H40071   1.827   4.284   4.606 -0.5699  2.6966  2.0663
  297MOL0     H40072   1.669   4.375   4.583  0.4651  2.0280  0.7042
  297MOL0     H40073   1.736   4.088   4.669  0.2825 -0.1491 -2.6136
  297MOL0     H40074   1.582   4.128   4.605  0.6093 -0.5605  1.2827
  297MOL0     H40075   1.556   4.301   4.788  0.3002  1.0886 -2.6258
  297MOL0     H40076   1.713   4.253   4.862  0.7565 -0.0366 -1.2474
  297MOL0     H40077   2.353   4.137   4.250 -1.4348  0.5425 -3.0358
  297MOL0     H40078   2.591   4.110   4.293  3.2419  1.4445 -0.1154
  297MOL0     H40079   2.939   4.459   4.444 -0.4884  0.0491  0.2420
  297MOL0     H40080   3.090   4.507   4.634  1.9232 -1.3799  1.6635
  297MOL0     H40081   4.687   3.669   4.518  0.6633 -1.0779 -0.1026
  297MOL0     H40082   4.844   3.536   4.420 -1.8353  1.7125 -0.7037
  297MOL0     H40083   5.166   3.255   4.441 -1.5502  2.1311  2.9603
  297MOL0     H40084   5.332   3.072   4.421 -0.7083 -0.4991  2.3095
  297MOL0     H40085   5.757   2.974   4.438 -2.1121 -1.9281  0.3350
  297MOL0     H40086   5.775   3.150   4.422  2.1911  1.0034  2.3592
  297MOL0     H40087   5.684   2.989   4.670 -2.0995 -0.0085 -0.2767
  297MOL0     H40088   5.707   3.165   4.671 -0.0362 -1.6786  1.9255
  297MOL0     H40089   5.918   3.124   4.743 -0.7735  1.9390 -1.9962
  297MOL0     H40090   5.973   3.097   4.584  0.9602  0.3237 -0.3843
  297MOL0     H40091   5.879   2.878   4.792 -0.4392  1.1052 -0.9325
  297MOL0     H40092   6.038   2.917   4.739 -0.0415 -2.0189 -0.0028
  297MOL0     H40093   5.954   2.698   4.406  0.2070  2.4221 -1.1230
  297MOL0     H40094   5.653   3.323   4.537 -0.3434 -2.5843  0.6674
  297MOL0     H40095   5.503   3.505   4.567 -2.1230  1.6047 -1.7323
  298MOL0     O40096  10.099   6.683   9.042 -0.1834 -0.2415 -0.1784
  298MOL0     C40097  10.100   6.566   9.059 -0.1077  0.2885 -0.2817
  298MOL0     O40098  10.003   6.484   9.028 -0.6328  0.1950  0.0156
  298MOL0     C40099   9.870   6.517   9.019 -0.2457 -0.3579  0.4910
  298MOL0     C40100   9.802   6.428   8.940 -0.3991 -0.0320 -0.6735
  298MOL0     C40101   9.664   6.446   8.903 -0.2393  0.1567 -0.2330
  298MOL0     C40102   9.605   6.565   8.945  0.3810  0.6234 -0.4888
  298MOL0     O40103   9.474   6.581   8.921 -0.3446  0.3608 -0.9516
  298MOL0     C40104   9.423   6.565   8.790  0.2020  0.2769 -0.0633
  298MOL0     C40105   9.285   6.621   8.789  0.2055 -0.3301  0.2320
  298MOL0     C40106   9.195   6.579   8.909  0.0081  0.2888  0.4429
  298MOL0     C40107   9.049   6.604   8.900 -0.2748 -0.7659  0.0602
  298MOL0     C40108   8.978   6.505   8.796 -0.2816 -0.2237 -0.5783
  298MOL0     C40109   8.827   6.488   8.822  0.8137 -0.2027  0.0657
  298MOL0     C40110   8.799   6.419   8.956 -1.0937 -1.2689  0.0533
  298MOL0     C40111   8.653   6.391   8.974  1.2040 -0.1629  0.2048
  298MOL0     N40112   8.551   6.502   8.982 -0.0490  0.0051  0.1356
  298MOL0     C40113   8.420   6.504   8.947  1.3040  1.3628  0.3770
  298MOL0     C40114   8.373   6.621   8.990  0.1856 -0.1342 -0.0293
  298MOL0     C40115   8.232   6.681   8.995  0.2792 -0.2675  0.2292
  298MOL0     C40116   8.192   6.713   8.851  0.4444  0.6592 -0.2150
  298MOL0     C40117   8.064   6.798   8.851 -0.6431  0.5354  0.0558
  298MOL0     C40118   8.012   6.790   8.701 -0.8157  0.4428  0.4159
  298MOL0     O40119   7.887   6.852   8.670 -0.2095 -0.7921 -0.0958
  298MOL0     C40120   7.877   6.991   8.664 -0.0565  0.8036 -0.3010
  298MOL0     C40121   7.753   7.042   8.625  0.4478  1.1785 -0.9640
  298MOL0     C40122   7.718   7.180   8.636 -0.1587 -0.3843  0.4163
  298MOL0     C40123   7.594   7.219   8.560  0.9770 -0.5906  0.5020
  298MOL0     C40124   7.810   7.267   8.691  0.6451  1.0327 -0.4289
  298MOL0     C40125   7.777   7.410   8.704  0.3782 -1.1372 -0.3388
  298MOL0     O40126   7.646   7.456   8.713 -0.2629 -0.1899  0.2675
  298MOL0     C40127   7.617   7.590   8.728 -0.2367 -0.3250 -0.3597
  298MOL0     C40128   7.627   7.672   8.849  0.1822 -0.2665 -0.7609
  298MOL0     C40129   7.577   7.805   8.846 -0.1894 -0.2115  0.0083
  298MOL0     C40130   7.504   7.854   8.737  0.1692  0.4328  0.1010
  298MOL0     O40131   7.453   7.981   8.732  0.1755 -0.0723 -0.3015
  298MOL0     C40132   7.360   8.030   8.828 -0.4445 -0.2795 -0.1672
  298MOL0     C40133   7.439   8.133   8.917  0.6590  0.9401  0.9424
  298MOL0     C40134   7.337   8.234   8.965  1.4709 -0.2563 -0.1385
  298MOL0     C40135   7.403   8.357   9.035  0.0735 -0.1219  0.0657
  298MOL0     C40136   7.300   8.469   9.070 -0.5551  0.1873  0.2244
  298MOL0     C40137   7.214   8.433   9.186  0.3216 -0.2175 -0.3492
  298MOL0     C40138   7.132   8.558   9.224 -0.6754 -0.0523 -0.0274
  298MOL0     C40139   7.022   8.523   9.329  0.4313  0.1336  0.1537
  298MOL0    Cl40140   7.073   8.551   9.495 -0.1247 -0.0881  0.3195
  298MOL0     C40141   7.490   7.771   8.628  0.2323  0.5267  0.6555
  298MOL0     C40142   7.546   7.637   8.620  0.1802 -0.2108  0.0972
  298MOL0     O40143   7.874   7.483   8.730  0.3832  0.7437 -0.8689
  298MOL0     C40144   7.938   7.216   8.724 -0.5145  0.4540  0.2530
  298MOL0     C40145   7.974   7.086   8.692  0.1352  0.8085 -0.3526
  298MOL0     N40146   8.478   6.700   9.034 -0.9859  0.1153  0.0277
  298MOL0     N40147   8.581   6.618   9.047  0.5579 -0.3130 -0.7174
  298MOL0     C40148   9.676   6.657   9.024  0.1987  0.6980 -0.3689
  298MOL0     C40149   9.811   6.633   9.067  0.8284 -0.0460  0.5363
  298MOL0     C40150  10.230   6.510   9.107  0.0183  0.6400  0.1388
  298MOL0     C40151  10.247   6.365   9.097  0.0596 -0.3150 -0.5197
  298MOL0     C40152  10.378   6.319   9.116  0.2466  0.1410  0.4990
  298MOL0     C40153  10.490   6.401   9.139  0.2350 -0.8707 -0.9386
  298MOL0     O40154  10.614   6.346   9.160  0.3570  0.3562 -0.2855
  298MOL0     C40155  10.647   6.340   9.301  1.1424  0.2982  0.0362
  298MOL0     C40156  10.790   6.304   9.328  0.0110 -0.0674  0.1794
  298MOL0     C40157  10.841   6.383   9.447 -0.0697  0.2402 -0.1707
  298MOL0     C40158  10.964   6.310   9.509 -0.2884 -0.2757  0.7486
  298MOL0     C40159  11.095   6.340   9.436 -0.1518 -0.4273 -0.1290
  298MOL0     C40160  11.195   6.354   9.365  0.4472  0.3975  0.0736
  298MOL0     C40161  10.477   6.537   9.145  0.8420 -0.5438  0.0952
  298MOL0     C40162  10.344   6.592   9.124 -0.9218 -0.1563  0.6817
  298MOL0     H40163   9.864   6.349   8.899  2.1527  0.8335  1.2573
  298MOL0     H40164   9.607   6.364   8.860  0.6275 -0.9037  0.5784
  298MOL0     H40165   9.493   6.604   8.716  0.7929 -1.6919 -0.6016
  298MOL0     H40166   9.416   6.456   8.781  1.5201  0.0107  1.4710
  298MOL0     H40167   9.297   6.730   8.791 -1.5089 -0.1118  0.3311
  298MOL0     H40168   9.243   6.597   8.692  1.8350  2.7664 -1.4003
  298MOL0     H40169   9.206   6.471   8.923  4.0155  0.3373 -0.8930
  298MOL0     H40170   9.233   6.633   8.996 -0.5226 -0.2767  1.0391
  298MOL0     H40171   9.008   6.593   9.001 -2.6759  2.6272 -0.3581
  298MOL0     H40172   9.034   6.708   8.869  0.2357 -1.5653 -3.2932
  298MOL0     H40173   8.988   6.555   8.699 -2.4639  1.9903  0.2333
  298MOL0     H40174   9.018   6.403   8.787 -1.3169 -0.5144 -2.6525
  298MOL0     H40175   8.780   6.586   8.827 -0.3210 -0.6571 -1.1677
  298MOL0     H40176   8.777   6.429   8.745 -0.8733  1.1535  0.0844
  298MOL0     H40177   8.859   6.329   8.953  1.4917  0.3769 -0.6650
  298MOL0     H40178   8.830   6.484   9.039  1.3695  1.0530 -2.4930
  298MOL0     H40179   8.625   6.329   9.060  0.1802 -0.3968 -0.2753
  298MOL0     H40180   8.625   6.333   8.885  1.3540  0.3615 -0.1930
  298MOL0     H40181   8.359   6.429   8.898 -1.6883  3.1758  1.0407
  298MOL0     H40182   8.157   6.610   9.033  0.9875 -2.1912 -1.7594
  298MOL0     H40183   8.246   6.774   9.050  1.5193 -2.4517  3.9515
  298MOL0     H40184   8.160   6.620   8.805 -0.1918  1.2180 -0.9215
  298MOL0     H40185   8.266   6.750   8.780  0.8194 -1.0924 -0.7811
  298MOL0     H40186   8.099   6.900   8.870 -0.5132  0.6765 -0.8891
  298MOL0     H40187   7.986   6.762   8.918 -2.0863  1.1627 -1.2246
  298MOL0     H40188   8.005   6.683   8.680 -1.5435 -0.1132  3.1218
  298MOL0     H40189   8.090   6.829   8.634 -1.5464 -1.4534 -1.6578
  298MOL0     H40190   7.667   6.981   8.600 -0.7423  1.6499  1.6438
  298MOL0     H40191   7.529   7.288   8.615  0.8853 -1.6953  1.8252
  298MOL0     H40192   7.624   7.275   8.471  0.8754  0.1122  0.9047
  298MOL0     H40193   7.529   7.137   8.528  0.8082 -0.0209 -0.6433
  298MOL0     H40194   7.660   7.635   8.945  0.7443  0.2462 -0.7457
  298MOL0     H40195   7.580   7.855   8.942  0.3204 -0.8654  0.3383
  298MOL0     H40196   7.276   8.079   8.777  0.0244 -0.7163 -1.3931
  298MOL0     H40197   7.324   7.952   8.895  0.1865 -1.3490 -1.0571
  298MOL0     H40198   7.475   8.080   9.006  0.0767 -0.5808  0.3242
  298MOL0     H40199   7.527   8.176   8.868  1.8478 -2.4627 -0.2324
  298MOL0     H40200   7.269   8.191   9.039  0.6607 -1.8633 -1.7412
  298MOL0     H40201   7.280   8.275   8.881 -2.4235 -0.0584  2.3455
  298MOL0     H40202   7.468   8.329   9.118  1.6333  1.1125 -0.6946
  298MOL0     H40203   7.479   8.396   8.968  0.5062  3.0688  2.2113
  298MOL0     H40204   7.244   8.505   8.984  1.3999  1.1928 -0.6976
  298MOL0     H40205   7.347   8.560   9.109 -0.7152 -0.5963  2.4351
  298MOL0     H40206   7.154   8.343   9.169  2.1109 -1.3062 -1.1967
  298MOL0     H40207   7.270   8.405   9.276 -2.5650  1.2030  2.0504
  298MOL0     H40208   7.095   8.603   9.131  0.1107 -0.5501 -0.6051
  298MOL0     H40209   7.197   8.629   9.275  0.3534  0.6051 -2.1155
  298MOL0     H40210   6.977   8.424   9.322  3.0190 -1.2452  1.6136
  298MOL0     H40211   6.938   8.590   9.307 -0.7307 -1.2513  0.1969
  298MOL0     H40212   7.430   7.802   8.543 -0.3520 -1.8271  0.1558
  298MOL0     H40213   7.518   7.580   8.531 -0.2569  0.2049 -0.0412
  298MOL0     H40214   8.015   7.283   8.759  1.1789 -1.5532  0.5691
  298MOL0     H40215   8.077   7.056   8.710  0.3658  0.6139 -1.8366
  298MOL0     H40216   9.628   6.752   9.044 -0.2664  1.1299 -3.1530
  298MOL0     H40217   9.864   6.710   9.122 -1.6922  1.5663  0.9357
  298MOL0     H40218  10.172   6.292   9.068 -0.2514 -0.3969  0.4732
  298MOL0     H40219  10.405   6.214   9.118  2.6992  0.7227  1.6967
  298MOL0     H40220  10.636   6.437   9.350  2.2620 -0.7061  2.4605
  298MOL0     H40221  10.576   6.276   9.354  2.9003 -1.2331  0.6512
  298MOL0     H40222  10.856   6.334   9.246 -1.0714  2.1896  0.0491
  298MOL0     H40223  10.790   6.195   9.332 -0.1172 -0.0527  0.5657
  298MOL0     H40224  10.765   6.403   9.523  2.8878  3.8176  2.2361
  298MOL0     H40225  10.874   6.481   9.412 -0.1842 -0.3340 -1.9506
  298MOL0     H40226  10.953   6.201   9.498 -1.6830 -0.4492  3.0852
  298MOL0     H40227  10.969   6.324   9.617  1.1670  2.5690  0.3912
  298MOL0     H40228  11.279   6.369   9.300  0.2925  1.9761  0.2000
  298MOL0     H40229  10.560   6.603   9.169  0.3275 -0.0873  0.6443
  298MOL0     H40230  10.345   6.701   9.127 -0.2432 -0.0940 -0.8116
  299MOL0     O40231  10.601   4.438   6.977  0.9788 -0.1471  0.3374
  299MOL0     C40232  10.702   4.514   6.967 -0.0128  0.0217  0.5874
  299MOL0     O40233  10.699   4.645   6.921 -0.0548  1.1981  0.1473
  299MOL0     C40234  10.582   4.714   6.886 -0.1609  0.3017 -0.0808
  299MOL0     C40235  10.578   4.797   6.776 -1.0416 -0.1825 -0.4000
  299MOL0     C40236  10.462   4.877   6.748 -0.1718  0.4207  0.1783
  299MOL0     C40237  10.351   4.876   6.838 -0.1731  0.0511  0.1070
  299MOL0     O40238  10.268   4.984   6.818  0.3046  0.7239 -0.0482
  299MOL0     C40239  10.128   4.976   6.859  0.5378  0.2219 -0.2118
  299MOL0     C40240  10.041   4.933   6.742  0.1496 -0.3452  0.2501
  299MOL0     C40241  10.033   5.035   6.636  0.5910 -0.6945 -0.2991
  299MOL0     C40242   9.965   5.157   6.691 -0.7963 -0.1254  0.2208
  299MOL0     C40243   9.941   5.251   6.581 -0.1752  0.1511  0.7630
  299MOL0     C40244   9.848   5.367   6.622  0.4228 -0.1713  0.5011
  299MOL0     C40245   9.805   5.460   6.507 -0.3233  0.0324  0.2777
  299MOL0     C40246   9.708   5.559   6.570  0.0567 -0.6052 -0.4455
  299MOL0     N40247   9.567   5.517   6.546  0.2522  0.1801  0.2096
  299MOL0     C40248   9.505   5.524   6.427 -0.6552 -0.8286 -0.3783
  299MOL0     C40249   9.375   5.482   6.447 -0.1478  0.3034 -0.4371
  299MOL0     C40250   9.276   5.476   6.337 -0.6311  0.9879 -0.9697
  299MOL0     C40251   9.132   5.475   6.393  0.2256  0.9961 -0.8039
  299MOL0     C40252   9.032   5.477   6.277  0.2582 -0.7499  0.3687
  299MOL0     C40253   8.882   5.469   6.308 -0.3488  0.6721  0.2108
  299MOL0     O40254   8.869   5.331   6.333  0.3022  0.1935  0.2701
  299MOL0     C40255   8.746   5.276   6.349 -0.1504  0.7097  0.2389
  299MOL0     C40256   8.628   5.347   6.369 -0.1188 -0.1844 -0.0248
  299MOL0     C40257   8.491   5.288   6.376 -1.5910  0.8255  0.2584
  299MOL0     C40258   8.367   5.370   6.402 -0.1876 -0.3620  0.1003
  299MOL0     C40259   8.494   5.140   6.358  0.0962 -0.5745  0.0370
  299MOL0     C40260   8.371   5.061   6.367  0.2208 -0.2845 -0.8018
  299MOL0     O40261   8.376   4.941   6.307  0.5140 -0.0452 -0.1476
  299MOL0     C40262   8.262   4.867   6.318  0.4136 -0.0413  0.5044
  299MOL0     C40263   8.188   4.840   6.429 -0.0877  1.2615  1.0674
  299MOL0     C40264   8.078   4.745   6.428 -0.3108 -0.1114  0.2682
  299MOL0     C40265   8.042   4.686   6.310 -0.7157 -1.3961  0.3084
  299MOL0     O40266   7.932   4.601   6.313  0.1877 -0.0079 -0.1452
  299MOL0     C40267   7.865   4.561   6.193 -0.6062  0.7463  0.5292
  299MOL0     C40268   7.741   4.477   6.220  0.1136  0.0486 -0.6596
  299MOL0     C40269   7.635   4.473   6.111  0.0523 -0.5547  0.5298
  299MOL0     C40270   7.501   4.410   6.157  0.3950  0.3458 -0.3550
  299MOL0     C40271   7.386   4.414   6.060  0.1104 -0.2044  0.1067
  299MOL0     C40272   7.241   4.413   6.107  0.7224  0.0808  0.5289
  299MOL0     C40273   7.136   4.374   5.998 -0.5191 -0.1680 -0.2306
  299MOL0     C40274   7.133   4.227   5.968 -1.2475 -0.6653  0.4338
  299MOL0    Cl40275   7.109   4.095   6.099 -0.2830 -0.2402  0.1021
  299MOL0     C40276   8.119   4.720   6.185  0.2666 -0.5486 -0.0399
  299MOL0     C40277   8.222   4.811   6.194  0.3319 -0.3783 -0.0839
  299MOL0     O40278   8.270   5.111   6.424 -0.3772  0.2374  0.4603
  299MOL0     C40279   8.615   5.076   6.347  0.1986 -0.1128 -0.4825
  299MOL0     C40280   8.737   5.140   6.331  0.0304 -0.3453  0.7879
  299MOL0     N40281   9.368   5.448   6.583  0.0369  0.0149 -0.2354
  299MOL0     N40282   9.483   5.449   6.633  0.2899  0.2032 -0.9306
  299MOL0     C40283  10.348   4.783   6.937 -0.6075 -1.0808 -0.3674
  299MOL0     C40284  10.465   4.711   6.969 -0.8327 -0.2307  0.8042
  299MOL0     C40285  10.827   4.460   7.024 -0.2597 -0.2410 -0.4243
  299MOL0     C40286  10.846   4.325   7.045 -0.0543 -0.0990  0.3351
  299MOL0     C40287  10.971   4.273   7.106  0.5132 -0.0797  0.0046
  299MOL0     C40288  11.069   4.363   7.136 -0.6425 -0.1910 -0.2114
  299MOL0     O40289  11.189   4.324   7.186  0.3547 -0.3734  0.7181
  299MOL0     C40290  11.267   4.237   7.115 -0.2410 -0.0989  0.2315
  299MOL0     C40291  11.403   4.307   7.100  0.4357  0.2490  0.6200
  299MOL0     C40292  11.418   4.425   6.995 -0.1916  0.1211 -0.6207
  299MOL0     C40293  11.396   4.375   6.853 -1.4159 -0.3034  0.5411
  299MOL0     C40294  11.259   4.377   6.808  0.0603  0.3437  0.3965
  299MOL0     C40295  11.145   4.374   6.784  0.0279  0.0184  1.2939
  299MOL0     C40296  11.038   4.492   7.120 -0.2140 -0.6363  0.1943
  299MOL0     C40297  10.926   4.544   7.061 -0.1051  0.0901 -1.1220
  299MOL0     H40298  10.676   4.805   6.729 -0.5398  2.1274  0.8779
  299MOL0     H40299  10.471   4.948   6.667  1.7352 -1.4715 -1.3807
  299MOL0     H40300  10.115   4.902   6.939  0.7539 -0.9212 -1.2076
  299MOL0     H40301  10.092   5.072   6.896 -0.3139  0.1854 -0.9111
  299MOL0     H40302  10.078   4.842   6.695  2.0674 -0.1961  1.3905
  299MOL0     H40303   9.939   4.914   6.775  0.5016 -1.8843  0.5041
  299MOL0     H40304  10.125   5.050   6.579  0.8843  2.0534  0.7254
  299MOL0     H40305   9.964   4.990   6.564  0.7479  1.7988 -2.1350
  299MOL0     H40306   9.873   5.124   6.741  0.9810 -2.0232  2.4464
  299MOL0     H40307  10.025   5.220   6.757 -0.5147  0.1204 -0.2661
  299MOL0     H40308  10.037   5.289   6.547 -0.6774  1.0577  0.3214
  299MOL0     H40309   9.898   5.193   6.499  1.3396 -3.1587  2.1163
  299MOL0     H40310   9.772   5.328   6.689  2.5559 -0.0860  3.1155
  299MOL0     H40311   9.911   5.426   6.689  0.3346  0.2061  0.2552
  299MOL0     H40312   9.883   5.528   6.471 -0.7996  0.8211  0.6989
  299MOL0     H40313   9.760   5.407   6.422  1.8126 -0.8851 -0.3572
  299MOL0     H40314   9.733   5.656   6.526  2.8918 -1.2566 -0.4470
  299MOL0     H40315   9.724   5.580   6.676  0.1363 -0.0670 -0.5618
  299MOL0     H40316   9.561   5.559   6.341  0.7437 -2.4970 -0.1992
  299MOL0     H40317   9.296   5.558   6.266 -2.1205  1.9184 -0.3521
  299MOL0     H40318   9.292   5.382   6.283  0.7233 -0.6277  2.0377
  299MOL0     H40319   9.110   5.561   6.457 -2.3655 -0.7197  0.7820
  299MOL0     H40320   9.121   5.385   6.455  0.1587 -0.0766 -2.3142
  299MOL0     H40321   9.060   5.397   6.207  3.5716  1.4421 -1.0544
  299MOL0     H40322   9.047   5.567   6.217  2.2163 -2.2835 -1.6325
  299MOL0     H40323   8.828   5.499   6.218 -0.0280  0.0473 -0.1944
  299MOL0     H40324   8.871   5.535   6.395  3.9378  2.8894 -0.6595
  299MOL0     H40325   8.628   5.455   6.385 -0.8385 -0.2533  0.5010
  299MOL0     H40326   8.393   5.475   6.386 -2.5154  0.4422  1.0805
  299MOL0     H40327   8.282   5.341   6.340 -1.1161 -0.1418  1.2444
  299MOL0     H40328   8.335   5.370   6.507 -1.8929  0.6745 -0.3837
  299MOL0     H40329   8.195   4.883   6.529 -0.4882  1.5343  0.9753
  299MOL0     H40330   8.019   4.728   6.518 -1.3927  1.6185 -0.0670
  299MOL0     H40331   7.826   4.656   6.155 -0.3340 -0.0065 -1.8081
  299MOL0     H40332   7.929   4.508   6.121 -2.7792 -0.3175 -0.7401
  299MOL0     H40333   7.782   4.380   6.253  3.5548  1.6486  0.2527
  299MOL0     H40334   7.692   4.526   6.304 -2.1620 -2.9426 -0.0595
  299MOL0     H40335   7.664   4.417   6.022 -1.7589  0.2722 -0.6551
  299MOL0     H40336   7.603   4.572   6.077 -0.5550 -0.9629 -0.1034
  299MOL0     H40337   7.517   4.309   6.196 -0.8913  0.5472  0.7671
  299MOL0     H40338   7.474   4.470   6.244  3.5667  0.3735  0.7331
  299MOL0     H40339   7.400   4.322   6.003 -0.3552  0.3969 -1.0084
  299MOL0     H40340   7.398   4.511   6.011  1.0700  1.4129  3.2340
  299MOL0     H40341   7.246   4.348   6.195  1.9987 -2.4386 -1.2756
  299MOL0     H40342   7.217   4.518   6.126  1.1857  0.8728 -2.6262
  299MOL0     H40343   7.150   4.434   5.908 -2.4569 -0.5927 -0.8511
  299MOL0     H40344   7.037   4.405   6.031 -0.5762  0.4705 -0.9785
  299MOL0     H40345   7.230   4.208   5.921 -0.1335  2.3289  1.3075
  299MOL0     H40346   7.049   4.207   5.900  0.1526 -1.3038 -1.2026
  299MOL0     H40347   8.094   4.674   6.090 -1.6721 -1.5985  0.9013
  299MOL0     H40348   8.283   4.838   6.109 -2.0841 -1.5312 -2.3212
  299MOL0     H40349   8.618   4.968   6.356 -1.7004 -0.1878 -0.2722
  299MOL0     H40350   8.830   5.086   6.314  0.4211  0.4237  0.3984
  299MOL0     H40351  10.265   4.768   7.005  0.0739  0.7009  0.9433
  299MOL0     H40352  10.470   4.642   7.053  2.3269  2.0337  2.7226
  299MOL0     H40353  10.772   4.251   7.018 -1.2748  1.6390 -1.3987
  299MOL0     H40354  10.989   4.169   7.131  1.2441  0.1085  0.3006
  299MOL0     H40355  11.273   4.143   7.170 -1.3158 -1.6827 -2.1843
  299MOL0     H40356  11.226   4.211   7.017  2.5185 -0.1501 -1.0299
  299MOL0     H40357  11.485   4.238   7.082 -0.8509 -1.5487  1.3168
  299MOL0     H40358  11.421   4.352   7.198  0.0012  0.2594  0.6996
  299MOL0     H40359  11.519   4.466   7.006 -0.9941  1.8263  1.2053
  299MOL0     H40360  11.340   4.498   7.020 -2.5213 -2.7056  1.0715
  299MOL0     H40361  11.430   4.273   6.836  2.8150  1.0802 -0.4739
  299MOL0     H40362  11.453   4.433   6.780 -1.5716 -1.3544 -0.4332
  299MOL0     H40363  11.044   4.359   6.753 -0.5340 -0.8448  3.4001
  299MOL0     H40364  11.103   4.574   7.150  1.2434 -1.0715 -1.5667
  299MOL0     H40365  10.916   4.650   7.043 -0.7100  0.3098  0.3074
  300MOL0     O40366  10.067   4.026  10.704 -0.6021  0.1525 -0.6322
  300MOL0     C40367  10.068   4.140  10.747 -0.2585  0.1791  0.2677
  300MOL0     O40368   9.972   4.236  10.712  0.0889  0.7959 -0.2339
  300MOL0     C40369   9.859   4.199  10.640  0.2750  0.2323  0.1581
  300MOL0     C40370   9.827   4.272  10.529  0.0655  0.1308 -0.1427
  300MOL0     C40371   9.719   4.233  10.458 -0.4961  0.4155 -0.8051
  300MOL0     C40372   9.636   4.131  10.499 -0.1297 -0.7761 -0.3002
  300MOL0     O40373   9.520   4.090  10.434  1.4471  0.1372 -0.3326
  300MOL0     C40374   9.543   4.054  10.295 -0.6666  0.0755 -0.8970
  300MOL0     C40375   9.411   4.048  10.229  0.5954  0.1188 -0.0455
  300MOL0     C40376   9.341   4.180  10.223 -0.1000  0.0583  0.5784
  300MOL0     C40377   9.210   4.158  10.141  0.2416  0.2419 -0.2167
  300MOL0     C40378   9.154   4.294  10.078  0.0128  0.5576  1.8357
  300MOL0     C40379   9.027   4.284   9.995 -0.1947 -0.0647 -0.2145
  300MOL0     C40380   8.985   4.421   9.948  0.2140  0.1723  0.4695
  300MOL0     C40381   8.886   4.412   9.830  0.5350  0.5458 -0.4109
  300MOL0     N40382   8.754   4.411   9.893  0.1367 -0.0630 -0.4469
  300MOL0     C40383   8.689   4.537   9.911  0.3879 -0.4312 -0.4195
  300MOL0     C40384   8.562   4.492   9.951 -0.1697 -0.0778 -0.2128
  300MOL0     C40385   8.439   4.577   9.982 -0.4611 -0.3424  0.1013
  300MOL0     C40386   8.314   4.493   9.949  0.0899 -0.2983 -0.6161
  300MOL0     C40387   8.193   4.565  10.007 -0.2859  0.4732 -0.9858
  300MOL0     C40388   8.064   4.510   9.948  0.3124  0.1042  0.0824
  300MOL0     O40389   7.961   4.615   9.970 -0.3782  0.4436  0.3247
  300MOL0     C40390   7.828   4.597   9.927 -0.3274 -0.3346  0.3811
  300MOL0     C40391   7.787   4.486   9.863 -0.8012  0.0491 -0.4849
  300MOL0     C40392   7.648   4.463   9.834  0.3709  0.4754  0.9514
  300MOL0     C40393   7.617   4.319   9.791 -0.3477 -0.4405 -0.1046
  300MOL0     C40394   7.551   4.568   9.849  1.0131 -0.8526 -0.1175
  300MOL0     C40395   7.406   4.551   9.828  0.1939  0.4430  0.0210
  300MOL0     O40396   7.346   4.669   9.830 -0.1423  1.1525 -0.5274
  300MOL0     C40397   7.208   4.683   9.835  0.5366  0.6033 -0.0952
  300MOL0     C40398   7.132   4.647   9.723  0.6640 -0.0330  0.1975
  300MOL0     C40399   6.995   4.685   9.708  0.3652 -0.1797 -0.6538
  300MOL0     C40400   6.940   4.758   9.818  0.4336 -0.3218  0.2860
  300MOL0     O40401   6.809   4.788   9.809 -0.2360 -0.7560 -0.2587
  300MOL0     C40402   6.729   4.806   9.927 -0.1401  0.5846  0.1843
  300MOL0     C40403   6.573   4.795   9.899  0.4004 -0.0301  0.7540
  300MOL0     C40404   6.502   4.811  10.035  0.5499  0.3602 -0.7892
  300MOL0     C40405   6.350   4.788  10.002 -0.5256 -0.3955 -0.3217
  300MOL0     C40406   6.265   4.777  10.131  0.1912 -0.2129 -0.4364
  300MOL0     C40407   6.263   4.903  10.228 -0.8885 -0.3746  0.3948
  300MOL0     C40408   6.142   4.897  10.314 -0.5718  0.5975  0.2304
  300MOL0     C40409   6.133   4.977  10.434 -0.4073 -0.1225 -0.0974
  300MOL0    Cl40410   6.005   4.918  10.541 -0.2408 -0.0142  0.2055
  300MOL0     C40411   7.018   4.796   9.928 -0.1934  0.1089 -1.2126
  300MOL0     C40412   7.153   4.762   9.934 -0.4898  0.2287  0.2951
  300MOL0     O40413   7.354   4.443   9.802 -0.1519  0.9143 -0.1073
  300MOL0     C40414   7.603   4.690   9.907 -0.2538  0.1962 -0.3458
  300MOL0     C40415   7.735   4.702   9.944  0.1121 -0.6098  0.1804
  300MOL0     N40416   8.556   4.355   9.935  0.3660  0.4377 -0.0374
  300MOL0     N40417   8.659   4.312   9.874  0.4982 -0.4691  0.3787
  300MOL0     C40418   9.654   4.066  10.614 -0.1870  0.1879  0.3762
  300MOL0     C40419   9.775   4.099  10.690  0.3937 -0.3938  0.2401
  300MOL0     C40420  10.186   4.199  10.815  0.6157  0.0157 -0.2130
  300MOL0     C40421  10.190   4.336  10.855  0.4322 -0.0354 -0.2436
  300MOL0     C40422  10.297   4.381  10.935  0.9812  0.3111  0.0847
  300MOL0     C40423  10.413   4.299  10.952  1.3871 -0.2425 -0.1546
  300MOL0     O40424  10.506   4.350  11.035  0.3861 -0.6393 -0.4538
  300MOL0     C40425  10.624   4.267  11.050  0.1890  0.7929 -0.3801
  300MOL0     C40426  10.718   4.311  11.169 -0.3130 -0.3177 -0.4843
  300MOL0     C40427  10.820   4.419  11.115  0.6674 -0.3735 -0.4201
  300MOL0     C40428  10.925   4.455  11.233  0.9077  0.4172  0.0678
  300MOL0     C40429  11.038   4.523  11.168  0.6601 -0.1456  0.6841
  300MOL0     C40430  11.135   4.587  11.122  0.2039  0.2474  0.3500
  300MOL0     C40431  10.420   4.175  10.891  0.7375 -0.0125  0.0669
  300MOL0     C40432  10.300   4.128  10.833 -0.7927  0.5472 -0.6156
  300MOL0     H40433   9.881   4.364  10.508  2.4790 -0.7227  1.8294
  300MOL0     H40434   9.689   4.287  10.368 -2.6436 -0.5904 -0.7654
  300MOL0     H40435   9.614   4.121  10.247  0.1427  0.8029  1.1874
  300MOL0     H40436   9.585   3.953  10.298  2.2208  1.1653 -1.4777
  300MOL0     H40437   9.422   4.004  10.130 -0.5239 -0.5215  0.0955
  300MOL0     H40438   9.358   3.978  10.294 -0.5638  2.8869  2.2143
  300MOL0     H40439   9.326   4.234  10.317  0.1229  2.1719 -0.5431
  300MOL0     H40440   9.407   4.242  10.162  0.8999 -1.2713  0.2664
  300MOL0     H40441   9.224   4.095  10.053  1.6765  1.8464 -1.1997
  300MOL0     H40442   9.139   4.102  10.203  0.9426  2.8926  3.3255
  300MOL0     H40443   9.141   4.365  10.160 -0.9562 -0.5134  2.6297
  300MOL0     H40444   9.238   4.328  10.016  1.0102 -3.2780  0.7963
  300MOL0     H40445   9.043   4.211   9.916  2.4649 -0.5083  0.6524
  300MOL0     H40446   8.957   4.250  10.072  1.9026 -1.4585  1.1895
  300MOL0     H40447   8.934   4.475  10.029  1.5380 -0.3042  1.6637
  300MOL0     H40448   9.072   4.482   9.926  0.7494 -0.9484 -0.6090
  300MOL0     H40449   8.887   4.324   9.765 -1.1564 -0.0360  0.2870
  300MOL0     H40450   8.886   4.506   9.775 -1.7357  0.4443 -0.6900
  300MOL0     H40451   8.732   4.636   9.901 -2.0542  0.7034 -0.5200
  300MOL0     H40452   8.441   4.619  10.083 -0.4490 -1.7686  0.7194
  300MOL0     H40453   8.441   4.668   9.921  1.3668  1.1971  2.2710
  300MOL0     H40454   8.315   4.394   9.994 -0.9297 -0.0575 -0.0515
  300MOL0     H40455   8.313   4.486   9.840  0.8412 -0.9644 -0.5898
  300MOL0     H40456   8.212   4.671   9.989 -2.7260  0.7386 -2.3646
  300MOL0     H40457   8.208   4.543  10.113 -1.3603 -3.8658 -1.5393
  300MOL0     H40458   8.039   4.411   9.987  1.2581  0.5237  1.8812
  300MOL0     H40459   8.086   4.505   9.841  2.7613 -1.5767  0.5813
  300MOL0     H40460   7.853   4.402   9.840 -0.3265  0.5345 -0.9234
  300MOL0     H40461   7.565   4.326   9.695  0.0450  0.4688 -0.2529
  300MOL0     H40462   7.695   4.246   9.770 -0.0509  0.6508 -3.1833
  300MOL0     H40463   7.539   4.285   9.861 -0.2331  2.5357  1.6231
  300MOL0     H40464   7.184   4.588   9.648  2.7767  0.3849  1.2517
  300MOL0     H40465   6.932   4.649   9.627  0.4859 -0.7593 -0.4948
  300MOL0     H40466   6.750   4.729  10.002 -0.2837 -0.2321 -0.5937
  300MOL0     H40467   6.765   4.901   9.967 -0.3705 -0.1858  2.3966
  300MOL0     H40468   6.538   4.868   9.825  1.9274 -0.1838 -0.1596
  300MOL0     H40469   6.545   4.694   9.865 -3.7778  1.1032  0.2947
  300MOL0     H40470   6.526   4.912  10.071  0.4649  0.6758 -1.5890
  300MOL0     H40471   6.544   4.736  10.102  0.2632  1.4483  0.6728
  300MOL0     H40472   6.309   4.865   9.935 -0.4257 -1.4931 -1.6990
  300MOL0     H40473   6.339   4.696   9.945  0.6559 -1.5271  1.2196
  300MOL0     H40474   6.309   4.691  10.183  1.4080  0.1253 -0.8518
  300MOL0     H40475   6.165   4.737  10.115 -0.1925  1.2120 -1.8322
  300MOL0     H40476   6.347   4.905  10.298 -1.9323 -1.5462  1.7414
  300MOL0     H40477   6.256   4.990  10.162 -1.7004 -2.5781 -2.6453
  300MOL0     H40478   6.138   4.799  10.362 -1.3541  1.3104  1.6704
  300MOL0     H40479   6.054   4.916  10.251 -0.5010  0.4594  0.0870
  300MOL0     H40480   6.103   5.079  10.406 -3.5027 -0.9242 -0.0759
  300MOL0     H40481   6.222   4.979  10.496 -0.6439 -1.6038  0.3236
  300MOL0     H40482   6.973   4.839  10.016 -2.9710  0.0229 -2.4708
  300MOL0     H40483   7.224   4.783  10.013  2.4673 -1.8393 -1.5962
  300MOL0     H40484   7.532   4.763   9.944  1.3377  0.7435  1.8356
  300MOL0     H40485   7.752   4.800   9.988 -2.0207 -0.7673  1.4776
  300MOL0     H40486   9.594   3.982  10.648  0.2225 -0.6258 -0.8453
  300MOL0     H40487   9.802   4.038  10.776 -1.4079 -0.0750  1.0680
  300MOL0     H40488  10.115   4.412  10.834  1.6745  1.4135  0.4206
  300MOL0     H40489  10.299   4.481  10.978  3.3537 -0.5989  2.3421
  300MOL0     H40490  10.595   4.169  11.091  0.3600 -0.3346 -2.8246
  300MOL0     H40491  10.665   4.263  10.949 -1.8928 -1.1915 -1.2444
  300MOL0     H40492  10.766   4.220  11.206 -0.8177 -0.7341 -0.8339
  300MOL0     H40493  10.659   4.359  11.247  1.3581  0.0324  0.6103
  300MOL0     H40494  10.760   4.505  11.082 -0.8910  0.2898  3.6236
  300MOL0     H40495  10.879   4.380  11.031  0.7032  1.4596 -1.2966
  300MOL0     H40496  10.953   4.363  11.286 -1.5499 -1.2312 -1.2743
  300MOL0     H40497  10.888   4.531  11.303  1.7789  2.7047 -1.8268
  300MOL0     H40498  11.216   4.647  11.086 -0.2631  0.4245 -0.4242
  300MOL0     H40499  10.501   4.103  10.890  1.7623  1.0490  1.4611
  300MOL0     H40500  10.299   4.020  10.816 -1.7128  1.0879 -5.3736
  301MOL0     O40501   1.407   2.700   9.006 -0.6585 -0.4971 -0.0094
  301MOL0     C40502   1.473   2.669   8.907  0.3915 -0.6438 -0.0748
  301MOL0     O40503   1.456   2.720   8.780  0.1052  0.6595 -0.3497
  301MOL0     C40504   1.364   2.825   8.770  0.6130 -0.1445 -0.2725
  301MOL0     C40505   1.386   2.956   8.810  0.1061  0.5709  0.8567
  301MOL0     C40506   1.298   3.060   8.768  1.0256 -0.4505 -0.2395
  301MOL0     C40507   1.178   3.031   8.695  0.0980 -0.5897 -0.6786
  301MOL0     O40508   1.094   3.134   8.638 -0.1588  0.1775 -0.1186
  301MOL0     C40509   0.973   3.103   8.564  0.5680  0.2462 -0.0541
  301MOL0     C40510   0.902   3.231   8.526  0.0319  0.1678 -0.5078
  301MOL0     C40511   0.802   3.272   8.640  0.1228 -0.8278  0.0488
  301MOL0     C40512   0.757   3.418   8.604  1.4338 -0.1818 -0.6217
  301MOL0     C40513   0.655   3.486   8.706 -0.1961 -0.6031  0.7431
  301MOL0     C40514   0.523   3.423   8.700 -0.0642 -0.5317  0.0203
  301MOL0     C40515   0.411   3.492   8.770  0.5665 -0.5164 -0.3019
  301MOL0     C40516   0.269   3.428   8.755 -0.6275  0.5320 -0.3804
  301MOL0     N40517   0.244   3.318   8.853  0.1917  0.3924  0.0047
  301MOL0     C40518   0.295   3.198   8.848 -0.1863 -0.3244  0.1943
  301MOL0     C40519   0.250   3.139   8.960 -0.1517  0.5454  0.3776
  301MOL0     C40520   0.301   3.009   9.009  0.3952  0.2125  0.1551
  301MOL0     C40521   0.188   2.910   9.019 -0.1408 -0.1388  0.1046
  301MOL0     C40522   0.173   2.844   9.153  0.2028 -0.0592 -0.7571
  301MOL0     C40523   0.083   2.713   9.145  0.1537 -0.0580  0.1063
  301MOL0     O40524   0.048   2.674   9.284 -0.3528 -0.1734  0.0907
  301MOL0     C40525   0.148   2.616   9.362  0.7191 -0.5908  0.1210
  301MOL0     C40526   0.266   2.560   9.326 -1.1021  0.3970  1.0500
  301MOL0     C40527   0.354   2.494   9.411 -0.7484  0.6986  0.2049
  301MOL0     C40528   0.477   2.442   9.353 -0.4282  0.2037  0.2685
  301MOL0     C40529   0.317   2.475   9.546  0.9913  1.0673  0.0534
  301MOL0     C40530   0.391   2.393   9.649  0.1535  0.5441 -0.4652
  301MOL0     O40531   0.331   2.380   9.767 -0.1845 -0.4349  0.1478
  301MOL0     C40532   0.392   2.309   9.866 -0.0371 -1.0130 -1.3567
  301MOL0     C40533   0.426   2.375   9.985  1.2303  0.1663  0.4569
  301MOL0     C40534   0.483   2.305  10.094  0.5477 -0.4184  0.1863
  301MOL0     C40535   0.509   2.163  10.071 -0.5884 -0.0985 -0.5827
  301MOL0     O40536   0.577   2.083  10.158 -0.2012 -0.0519 -0.8787
  301MOL0     C40537   0.674   2.130  10.257  0.3437  0.0503  0.7770
  301MOL0     C40538   0.709   2.004  10.327  0.0949  0.4503 -0.4563
  301MOL0     C40539   0.831   2.027  10.432 -0.0460  0.4487  0.3904
  301MOL0     C40540   0.959   2.057  10.345 -0.5705 -0.3303 -0.5695
  301MOL0     C40541   1.078   2.083  10.447 -0.0686 -0.5841 -0.0751
  301MOL0     C40542   1.211   2.062  10.376  0.4841  0.4180 -0.2841
  301MOL0     C40543   1.221   2.141  10.248 -0.7145  0.2296  0.1946
  301MOL0     C40544   1.375   2.170  10.225  0.4009  0.4696 -0.2923
  301MOL0    Cl40545   1.487   2.032  10.242  0.2707  0.0520 -0.1112
  301MOL0     C40546   0.460   2.101   9.957  0.3969  0.6531 -0.0861
  301MOL0     C40547   0.396   2.171   9.854 -0.3506 -0.0221 -0.3790
  301MOL0     O40548   0.507   2.351   9.624 -0.0125 -0.3027  0.3698
  301MOL0     C40549   0.189   2.525   9.585 -0.1595  0.1761 -0.5169
  301MOL0     C40550   0.107   2.595   9.492 -0.3010 -1.1949 -1.5033
  301MOL0     N40551   0.176   3.224   9.037 -0.0962  0.1659 -0.1524
  301MOL0     N40552   0.174   3.338   8.973 -0.2638 -0.2444  0.2291
  301MOL0     C40553   1.157   2.898   8.666 -0.3402 -0.4804  0.8166
  301MOL0     C40554   1.244   2.800   8.709 -0.9941  0.0088 -1.7320
  301MOL0     C40555   1.571   2.555   8.926  0.5605  0.2954  0.3421
  301MOL0     C40556   1.582   2.477   9.046  0.1771  0.6792 -0.1692
  301MOL0     C40557   1.693   2.392   9.077 -0.3833 -0.3039 -0.3177
  301MOL0     C40558   1.797   2.383   8.979  0.9462  0.1681  0.7736
  301MOL0     O40559   1.906   2.303   8.984 -0.6801  0.3209 -1.2467
  301MOL0     C40560   1.901   2.197   9.081 -0.0786  0.1486  0.5857
  301MOL0     C40561   2.034   2.117   9.089 -0.1159  0.4930  0.4138
  301MOL0     C40562   2.057   2.035   8.962  0.1200  0.9147  0.6757
  301MOL0     C40563   2.190   1.956   8.977  0.3922  0.2831  0.7220
  301MOL0     C40564   2.162   1.816   8.941 -0.4931  0.4504  0.2542
  301MOL0     C40565   2.145   1.704   8.894  0.1869 -0.5007  0.2022
  301MOL0     C40566   1.782   2.451   8.860 -0.5517  0.1489 -0.8659
  301MOL0     C40567   1.673   2.531   8.828  0.3962 -0.2487  0.4360
  301MOL0     H40568   1.470   2.979   8.875  2.2738  2.0621 -2.2274
  301MOL0     H40569   1.322   3.163   8.791 -0.5750 -0.1197  0.1087
  301MOL0     H40570   0.992   3.043   8.475 -0.6844 -1.4036  0.7440
  301MOL0     H40571   0.903   3.043   8.622 -0.7215 -2.0589 -3.6516
  301MOL0     H40572   0.976   3.311   8.523 -1.3672  1.5831  0.6974
  301MOL0     H40573   0.859   3.212   8.427 -2.0985 -3.5011  0.8967
  301MOL0     H40574   0.717   3.204   8.644  0.7963 -1.6379  2.1220
  301MOL0     H40575   0.850   3.271   8.739  2.7432 -0.6769 -1.1468
  301MOL0     H40576   0.841   3.488   8.597  0.3844  1.2409  0.3292
  301MOL0     H40577   0.707   3.416   8.507 -1.2535  3.3857  0.4801
  301MOL0     H40578   0.681   3.475   8.812 -1.2171 -1.7868  0.9021
  301MOL0     H40579   0.653   3.593   8.687  4.1142 -0.7464 -1.9803
  301MOL0     H40580   0.494   3.425   8.594 -0.2341 -1.4364  0.0469
  301MOL0     H40581   0.532   3.318   8.729  0.0380  0.2347  3.0504
  301MOL0     H40582   0.429   3.486   8.878  0.6669  4.1939  0.1302
  301MOL0     H40583   0.406   3.593   8.729  1.3548  0.2794  1.4424
  301MOL0     H40584   0.267   3.395   8.651 -1.9860  0.4309 -0.3352
  301MOL0     H40585   0.192   3.505   8.769 -2.1072 -0.8188 -0.7936
  301MOL0     H40586   0.356   3.160   8.766 -0.5015 -1.3674  0.4330
  301MOL0     H40587   0.374   2.973   8.936 -0.6581 -2.3783  0.2682
  301MOL0     H40588   0.339   3.036   9.108 -0.1123  2.9589 -0.3208
  301MOL0     H40589   0.224   2.835   8.948  0.9482 -1.0717  1.5832
  301MOL0     H40590   0.091   2.953   8.993  0.4938  3.4957  3.0672
  301MOL0     H40591   0.149   2.918   9.230  2.4229  1.7243 -1.6628
  301MOL0     H40592   0.274   2.814   9.182  2.4047  5.4638 -1.6187
  301MOL0     H40593   0.130   2.628   9.093  0.5922 -0.5104  1.2183
  301MOL0     H40594  -0.009   2.737   9.090  1.6635  1.8428 -1.7441
  301MOL0     H40595   0.305   2.563   9.225  0.7955 -0.5054  1.7084
  301MOL0     H40596   0.561   2.464   9.419 -1.3080  1.5442  0.9831
  301MOL0     H40597   0.474   2.333   9.351 -0.6644  0.2100 -1.2497
  301MOL0     H40598   0.508   2.471   9.252  0.9019 -1.2850  0.2083
  301MOL0     H40599   0.395   2.477  10.004 -0.0173 -0.3435  1.3107
  301MOL0     H40600   0.494   2.360  10.186 -1.3758 -1.4867  1.1019
  301MOL0     H40601   0.758   2.182  10.209  3.6838 -3.3564  2.3517
  301MOL0     H40602   0.632   2.202  10.329  2.5155  0.5855  1.6184
  301MOL0     H40603   0.626   1.977  10.393 -0.9774 -0.6561 -2.1691
  301MOL0     H40604   0.732   1.933  10.247  0.9101  2.5141 -2.1625
  301MOL0     H40605   0.835   1.934  10.488 -3.7483 -0.0115  0.1301
  301MOL0     H40606   0.818   2.108  10.505  1.7272  0.6792  0.5134
  301MOL0     H40607   0.978   1.971  10.279  0.6419  1.3560 -2.5453
  301MOL0     H40608   0.946   2.152  10.293  1.1045  0.8561  1.0515
  301MOL0     H40609   1.077   2.008  10.526  1.5483 -0.5751  0.0005
  301MOL0     H40610   1.080   2.180  10.497 -0.6165 -1.5732  1.9740
  301MOL0     H40611   1.292   2.090  10.445 -0.6791  1.9001  0.5435
  301MOL0     H40612   1.233   1.956  10.368  0.0457 -0.1078  3.5780
  301MOL0     H40613   1.166   2.235  10.247  0.6741  1.0823 -1.0202
  301MOL0     H40614   1.189   2.078  10.164  0.6328  1.6532 -1.4750
  301MOL0     H40615   1.398   2.241  10.304  2.0780 -0.0411 -0.2892
  301MOL0     H40616   1.378   2.218  10.127 -2.4812  2.5085  0.4900
  301MOL0     H40617   0.479   1.995   9.950  1.4644  0.8196  0.1669
  301MOL0     H40618   0.361   2.113   9.768 -1.2927 -1.7494  1.0932
  301MOL0     H40619   0.137   2.504   9.677 -2.4639 -0.6143 -1.9087
  301MOL0     H40620   0.009   2.633   9.518 -0.5825 -1.8000 -1.6490
  301MOL0     H40621   1.075   2.869   8.601  1.4089  0.0425 -1.7619
  301MOL0     H40622   1.232   2.697   8.678  1.1992 -0.9717  0.3306
  301MOL0     H40623   1.501   2.486   9.118  0.4533 -2.3120  0.6731
  301MOL0     H40624   1.709   2.347   9.174  0.8224 -1.7596 -1.1530
  301MOL0     H40625   1.881   2.239   9.180  0.2187  1.3136  0.1723
  301MOL0     H40626   1.816   2.130   9.069  1.4365 -1.3177 -3.3256
  301MOL0     H40627   2.031   2.049   9.174 -1.1578 -1.9574 -1.4877
  301MOL0     H40628   2.121   2.182   9.101  1.4898 -1.2234 -1.3031
  301MOL0     H40629   2.079   2.103   8.879  0.5407  0.3615  0.3269
  301MOL0     H40630   1.969   1.983   8.925  0.6707  0.3971  0.0592
  301MOL0     H40631   2.217   1.952   9.082  2.3065 -3.5342  0.2517
  301MOL0     H40632   2.269   1.992   8.911  0.5534  1.5812  1.5897
  301MOL0     H40633   2.123   1.603   8.865  0.2340 -0.0632 -1.4132
  301MOL0     H40634   1.851   2.424   8.781  1.5845 -4.7138  2.1760
  301MOL0     H40635   1.668   2.590   8.737  0.8026  2.1317  1.8481
  302MOL0     O40636   5.115   3.673  11.300  0.4072  0.4960 -0.4186
  302MOL0     C40637   5.098   3.649  11.180 -0.3581 -0.0709  0.2149
  302MOL0     O40638   5.018   3.713  11.094 -0.4892 -0.6316 -0.0731
  302MOL0     C40639   4.902   3.772  11.135 -0.1008  0.0018 -0.1904
  302MOL0     C40640   4.825   3.741  11.249 -0.0469  1.4513 -0.6319
  302MOL0     C40641   4.705   3.797  11.269 -0.6539 -0.8886 -0.2630
  302MOL0     C40642   4.650   3.902  11.189  0.0929  0.0900 -0.2249
  302MOL0     O40643   4.541   3.973  11.229 -0.2337 -0.1853  0.9826
  302MOL0     C40644   4.571   4.034  11.357  0.3433  0.2167 -0.5714
  302MOL0     C40645   4.468   4.140  11.379  0.0885  1.0198  0.3702
  302MOL0     C40646   4.493   4.218  11.501  0.7425 -0.7844  0.2839
  302MOL0     C40647   4.387   4.329  11.522 -0.5234 -0.4594 -0.6705
  302MOL0     C40648   4.407   4.430  11.405 -0.4086 -0.0721  0.8324
  302MOL0     C40649   4.353   4.563  11.457  0.2054  0.1498  0.0717
  302MOL0     C40650   4.199   4.555  11.482  0.2704 -0.3183 -0.0361
  302MOL0     C40651   4.150   4.690  11.556 -0.6549 -0.0208 -0.3543
  302MOL0     N40652   4.127   4.805  11.463  0.2703  0.3114  0.0818
  302MOL0     C40653   4.102   4.937  11.502  0.5405 -0.3960  0.4117
  302MOL0     C40654   4.068   5.002  11.376 -1.2648 -0.2051 -0.3295
  302MOL0     C40655   4.013   5.132  11.351 -1.3567 -0.8942  0.2841
  302MOL0     C40656   3.864   5.138  11.368 -0.5350 -0.2737  0.9748
  302MOL0     C40657   3.815   5.279  11.375  0.6358 -0.0035  0.5794
  302MOL0     C40658   3.670   5.292  11.388  0.0807 -0.0404 -0.1332
  302MOL0     O40659   3.643   5.433  11.407 -0.0783  0.3708 -0.9032
  302MOL0     C40660   3.509   5.466  11.404 -0.0146 -0.1523 -0.5211
  302MOL0     C40661   3.403   5.378  11.417  0.5265 -0.4225  0.8769
  302MOL0     C40662   3.268   5.413  11.422 -0.9524  0.6515 -0.2480
  302MOL0     C40663   3.168   5.301  11.406 -0.3308  0.0831 -0.0966
  302MOL0     C40664   3.235   5.547  11.420 -0.0668 -1.1634  0.1719
  302MOL0     C40665   3.096   5.601  11.437 -0.5681 -0.3585 -0.1736
  302MOL0     O40666   3.086   5.739  11.439  0.0465  0.0607 -0.5160
  302MOL0     C40667   2.961   5.789  11.409  0.0008 -0.9593  0.2235
  302MOL0     C40668   2.920   5.795  11.279  0.0175 -0.1657 -0.9911
  302MOL0     C40669   2.792   5.836  11.244  0.6557 -0.6033  0.3156
  302MOL0     C40670   2.707   5.894  11.342 -0.8202  0.7525 -0.1710
  302MOL0     O40671   2.584   5.944  11.315 -0.3227 -0.1366 -0.3627
  302MOL0     C40672   2.581   6.049  11.211  0.1698  0.2759  0.1368
  302MOL0     C40673   2.444   6.105  11.199 -0.2716 -0.5827 -0.2754
  302MOL0     C40674   2.385   6.168  11.330 -0.1555  0.1461  0.1776
  302MOL0     C40675   2.232   6.172  11.327  0.3657 -0.0518  0.2774
  302MOL0     C40676   2.168   6.296  11.256 -0.4893  0.0566  0.3819
  302MOL0     C40677   2.016   6.299  11.272  0.4162  0.7322 -0.0541
  302MOL0     C40678   1.949   6.427  11.226 -0.6840  0.1470 -0.0315
  302MOL0     C40679   1.954   6.455  11.077  0.5024 -0.3057 -0.0626
  302MOL0    Cl40680   1.867   6.324  10.988  0.0037  0.3654  0.3555
  302MOL0     C40681   2.741   5.881  11.478 -0.7569  0.8221 -0.1290
  302MOL0     C40682   2.868   5.826  11.509  0.0804 -0.6429 -0.2566
  302MOL0     O40683   2.995   5.532  11.456 -0.7044  0.7102 -1.1136
  302MOL0     C40684   3.345   5.638  11.402 -0.5503 -0.8232  0.3756
  302MOL0     C40685   3.481   5.599  11.400  0.5206  0.7861  0.3699
  302MOL0     N40686   4.088   4.907  11.275  0.2605 -0.4135  0.3387
  302MOL0     N40687   4.121   4.790  11.329  0.5188 -0.0101  0.2273
  302MOL0     C40688   4.709   3.929  11.069  0.1789 -0.1142  0.1574
  302MOL0     C40689   4.839   3.872  11.048 -0.3634  0.6439 -0.9353
  302MOL0     C40690   5.198   3.562  11.115  0.5709 -0.2396 -0.5516
  302MOL0     C40691   5.225   3.584  10.982 -0.2275 -0.5759 -0.1775
  302MOL0     C40692   5.313   3.505  10.909 -0.2290  0.7098  0.4011
  302MOL0     C40693   5.377   3.395  10.976 -0.0405  0.3080  0.4745
  302MOL0     O40694   5.463   3.315  10.903  0.2865 -0.8783  0.7334
  302MOL0     C40695   5.514   3.355  10.770 -1.0031 -0.1180  0.0113
  302MOL0     C40696   5.646   3.278  10.716  0.2446  0.6080  0.1789
  302MOL0     C40697   5.779   3.317  10.786 -0.1192  0.4376 -0.1258
  302MOL0     C40698   5.912   3.256  10.727 -0.3140  0.9582 -0.1836
  302MOL0     C40699   5.929   3.113  10.757 -0.3137  0.2346  0.2457
  302MOL0     C40700   5.945   2.988  10.764  0.8398 -0.4248 -1.0719
  302MOL0     C40701   5.353   3.361  11.110  0.2213  0.4420 -0.8619
  302MOL0     C40702   5.256   3.451  11.177 -0.3791  0.9191 -0.1289
  302MOL0     H40703   4.863   3.664  11.316  0.4973 -0.2334 -2.7663
  302MOL0     H40704   4.653   3.771  11.360 -0.0517 -0.0152  0.3397
  302MOL0     H40705   4.543   3.956  11.429 -0.7077  0.6196 -0.5339
  302MOL0     H40706   4.672   4.075  11.367  1.3118 -2.4299  1.8517
  302MOL0     H40707   4.479   4.209  11.295 -0.3440 -1.0815 -1.5192
  302MOL0     H40708   4.367   4.097  11.372  0.3743  0.4255 -0.1590
  302MOL0     H40709   4.483   4.146  11.583  2.8473 -0.5551  0.8157
  302MOL0     H40710   4.595   4.256  11.510  0.7485 -0.6784 -0.2027
  302MOL0     H40711   4.284   4.293  11.510 -0.4948 -0.7295 -0.0896
  302MOL0     H40712   4.405   4.378  11.617  0.1701 -0.4563 -0.8042
  302MOL0     H40713   4.513   4.437  11.380 -0.2973 -2.5898  0.2801
  302MOL0     H40714   4.352   4.394  11.318  1.1203  0.5508 -0.4389
  302MOL0     H40715   4.404   4.590  11.550 -2.2304  1.7290  1.0685
  302MOL0     H40716   4.356   4.646  11.386  0.7050  1.0738  1.1430
  302MOL0     H40717   4.154   4.535  11.385  2.4087 -3.2689 -0.5624
  302MOL0     H40718   4.163   4.481  11.555 -1.4438  1.3737  0.9511
  302MOL0     H40719   4.211   4.736  11.634 -0.6811  1.2035 -1.0326
  302MOL0     H40720   4.054   4.664  11.602 -0.3822 -0.4973 -0.0424
  302MOL0     H40721   4.104   4.988  11.598  0.5729 -0.6773  0.5612
  302MOL0     H40722   4.062   5.199  11.422 -1.8106 -1.1260  0.8229
  302MOL0     H40723   4.035   5.169  11.251  0.6885  0.6087  1.2117
  302MOL0     H40724   3.837   5.100  11.468 -0.0172 -0.0430  1.2038
  302MOL0     H40725   3.803   5.085  11.295  0.0819  1.7900 -1.1568
  302MOL0     H40726   3.854   5.348  11.299  0.9447 -1.0862 -0.2693
  302MOL0     H40727   3.848   5.321  11.471  1.1112  1.7979 -0.3379
  302MOL0     H40728   3.618   5.233  11.465 -0.1295  0.1679 -0.1118
  302MOL0     H40729   3.625   5.253  11.296 -0.3002 -1.9296  0.7945
  302MOL0     H40730   3.424   5.272  11.411 -0.4292 -0.5308 -2.3807
  302MOL0     H40731   3.122   5.292  11.505 -0.8595 -1.9985 -0.4860
  302MOL0     H40732   3.093   5.321  11.329  0.1741 -3.0906 -1.6129
  302MOL0     H40733   3.222   5.211  11.373  1.4427  0.8605  0.5857
  302MOL0     H40734   2.999   5.761  11.212  0.4052  0.3059 -0.7764
  302MOL0     H40735   2.759   5.849  11.141 -2.6541 -1.7082  1.1212
  302MOL0     H40736   2.627   6.140  11.251 -1.5705  0.9989  0.5794
  302MOL0     H40737   2.622   6.021  11.114 -0.6762  1.5858 -0.6248
  302MOL0     H40738   2.429   6.179  11.120 -1.8519 -0.5470  0.0213
  302MOL0     H40739   2.388   6.015  11.172  2.0123 -2.5652  1.1978
  302MOL0     H40740   2.425   6.269  11.336 -2.4814  1.2482 -1.2594
  302MOL0     H40741   2.416   6.110  11.417 -0.2968 -0.3431 -0.0929
  302MOL0     H40742   2.189   6.078  11.292  2.1851 -0.4883 -0.8672
  302MOL0     H40743   2.208   6.187  11.433  3.2829 -1.1438  1.1946
  302MOL0     H40744   2.210   6.307  11.155  3.0853 -0.8598  1.6342
  302MOL0     H40745   2.205   6.383  11.310 -1.2651  1.2499 -0.9415
  302MOL0     H40746   1.972   6.206  11.235  2.3539 -1.3787  2.5043
  302MOL0     H40747   1.981   6.304  11.376 -4.4670  0.0761 -1.4495
  302MOL0     H40748   2.005   6.508  11.274  0.9627 -1.2742  0.5441
  302MOL0     H40749   1.848   6.440  11.266  0.4750  0.6675  3.0528
  302MOL0     H40750   2.058   6.462  11.042  0.3786  3.1919 -0.0717
  302MOL0     H40751   1.906   6.551  11.058 -0.0147 -0.5504 -0.0001
  302MOL0     H40752   2.667   5.920  11.548 -0.3375  0.5475  0.4735
  302MOL0     H40753   2.893   5.826  11.614 -0.6513  2.0022 -0.0129
  302MOL0     H40754   3.333   5.746  11.394 -0.9923 -0.9030 -0.0924
  302MOL0     H40755   3.563   5.669  11.398 -1.3319  3.1445  1.6229
  302MOL0     H40756   4.678   4.010  11.004  2.9605  1.2659  0.4427
  302MOL0     H40757   4.897   3.907  10.963 -1.3773  1.7688 -1.1832
  302MOL0     H40758   5.180   3.669  10.932  0.6990 -0.1507 -0.3123
  302MOL0     H40759   5.331   3.526  10.804  1.0620  0.1957  0.5040
  302MOL0     H40760   5.438   3.346  10.691  0.3111  0.6699 -1.4056
  302MOL0     H40761   5.532   3.462  10.780  1.9754 -0.7500  3.4176
  302MOL0     H40762   5.651   3.304  10.610 -3.6662 -2.7443 -1.0989
  302MOL0     H40763   5.622   3.173  10.730  0.3238  0.3784 -1.2459
  302MOL0     H40764   5.768   3.293  10.893 -1.6477  0.1928 -0.3105
  302MOL0     H40765   5.791   3.425  10.793 -0.1273  0.5958 -2.1375
  302MOL0     H40766   5.993   3.303  10.782 -1.0208 -1.1392  2.9631
  302MOL0     H40767   5.923   3.282  10.621 -0.4767 -2.5260 -1.2025
  302MOL0     H40768   5.947   2.881  10.762 -0.0385 -0.4509 -1.0081
  302MOL0     H40769   5.396   3.273  11.155 -0.5759 -1.9197 -4.3275
  302MOL0     H40770   5.229   3.413  11.275  0.0658  1.3256  0.1539
  303MOL0     O40771   2.507   8.824   8.763  0.4800 -0.0349 -0.5101
  303MOL0     C40772   2.598   8.786   8.830  0.3350 -0.8122 -1.1443
  303MOL0     O40773   2.587   8.777   8.970  0.0794  0.9579 -0.3213
  303MOL0     C40774   2.457   8.772   9.016 -0.0942  0.2924  0.1588
  303MOL0     C40775   2.423   8.859   9.119  0.0962 -0.0812  0.0661
  303MOL0     C40776   2.299   8.850   9.180 -0.2361  0.6727  0.0812
  303MOL0     C40777   2.208   8.754   9.146  0.6676 -0.8386  0.0578
  303MOL0     O40778   2.082   8.731   9.206 -0.6944 -0.0152  0.0950
  303MOL0     C40779   2.069   8.766   9.345 -0.6423 -0.0155  0.2408
  303MOL0     C40780   1.941   8.698   9.405 -0.9241  1.0302 -0.3185
  303MOL0     C40781   1.813   8.746   9.344 -0.4796 -0.4284 -0.4943
  303MOL0     C40782   1.695   8.660   9.396 -0.0383 -0.4996  0.6764
  303MOL0     C40783   1.566   8.718   9.343  0.0625  0.3706  0.7825
  303MOL0     C40784   1.457   8.609   9.348  0.8005 -0.1660  0.2571
  303MOL0     C40785   1.422   8.557   9.488  0.0156 -0.0039  0.6316
  303MOL0     C40786   1.291   8.470   9.486  0.3001  0.5009  1.3104
  303MOL0     N40787   1.162   8.520   9.453  0.1895 -0.5303 -0.3472
  303MOL0     C40788   1.092   8.626   9.519 -0.2981  0.0966  0.1497
  303MOL0     C40789   0.973   8.634   9.453  0.0600  0.3635  0.1908
  303MOL0     C40790   0.864   8.729   9.488 -0.1834  0.5265 -0.3994
  303MOL0     C40791   0.762   8.750   9.381  0.1138  0.2523  0.4385
  303MOL0     C40792   0.632   8.818   9.420  0.6746  0.5526 -0.3825
  303MOL0     C40793   0.558   8.734   9.526  0.6049  0.0669  0.7494
  303MOL0     O40794   0.423   8.790   9.518 -0.5254 -0.2086  0.0173
  303MOL0     C40795   0.325   8.706   9.475 -0.1140  0.0071 -0.4985
  303MOL0     C40796   0.334   8.620   9.363  0.6368  0.4015 -0.1022
  303MOL0     C40797   0.225   8.551   9.324 -0.6584  0.0560 -0.3283
  303MOL0     C40798   0.247   8.443   9.218 -0.9075 -0.4276  1.2331
  303MOL0     C40799   0.098   8.576   9.381  0.4208 -0.3376 -0.1246
  303MOL0     C40800  -0.029   8.526   9.312 -0.3818 -0.8778 -0.1112
  303MOL0     O40801  -0.141   8.508   9.391 -0.5417  0.2734  0.5041
  303MOL0     C40802  -0.266   8.526   9.337 -0.0634 -0.1913  0.1458
  303MOL0     C40803  -0.308   8.638   9.264  0.5332 -0.8163 -0.3997
  303MOL0     C40804  -0.433   8.633   9.204  0.3575 -0.4982 -0.2788
  303MOL0     C40805  -0.516   8.525   9.208 -0.2267 -0.0367  0.7492
  303MOL0     O40806  -0.631   8.529   9.129 -0.7062 -0.4593 -0.5351
  303MOL0     C40807  -0.726   8.423   9.124  0.9951 -0.5996 -0.4483
  303MOL0     C40808  -0.837   8.468   9.039 -0.9663 -0.2128  0.3430
  303MOL0     C40809  -0.950   8.532   9.134 -0.2749 -0.4682 -0.1829
  303MOL0     C40810  -1.027   8.644   9.061 -0.8579  1.2687  0.6596
  303MOL0     C40811  -1.137   8.722   9.142 -0.7259 -0.0502  0.0884
  303MOL0     C40812  -1.236   8.658   9.239  0.5251  0.9275 -0.1166
  303MOL0     C40813  -1.349   8.751   9.281  0.4061 -0.6877  1.6265
  303MOL0     C40814  -1.464   8.673   9.346 -0.2089 -0.5366  0.6475
  303MOL0    Cl40815  -1.548   8.572   9.214  0.5604  0.1266 -0.2044
  303MOL0     C40816  -0.466   8.404   9.269  0.0233  0.5225  0.0228
  303MOL0     C40817  -0.337   8.410   9.333  0.3544 -0.0828 -0.3996
  303MOL0     O40818  -0.033   8.501   9.190  0.0237 -0.2438  0.2253
  303MOL0     C40819   0.087   8.658   9.492  0.1535  1.1811  0.6004
  303MOL0     C40820   0.197   8.731   9.534  0.3454  0.0543 -0.4485
  303MOL0     N40821   0.974   8.554   9.343 -0.5876  0.6674  0.8098
  303MOL0     N40822   1.081   8.487   9.345 -0.1298  0.3990 -1.3151
  303MOL0     C40823   2.242   8.666   9.043  0.1547 -0.0508 -0.7731
  303MOL0     C40824   2.366   8.674   8.979 -0.0884  0.1340  0.1876
  303MOL0     C40825   2.722   8.761   8.758  0.0210  0.3710 -0.5198
  303MOL0     C40826   2.848   8.775   8.825 -0.3010 -0.1021  0.1672
  303MOL0     C40827   2.966   8.769   8.743 -0.9924 -0.3559 -0.7679
  303MOL0     C40828   2.974   8.748   8.608 -0.2897  0.7995 -0.4276
  303MOL0     O40829   3.097   8.745   8.547  0.2776 -0.5908 -0.0869
  303MOL0     C40830   3.092   8.705   8.411  0.2211  0.1717 -0.3133
  303MOL0     C40831   3.229   8.640   8.362 -0.8251 -1.0006 -0.1535
  303MOL0     C40832   3.248   8.494   8.400 -0.0369 -0.2612  0.0444
  303MOL0     C40833   3.394   8.450   8.401  1.0733  0.0419 -0.5606
  303MOL0     C40834   3.436   8.444   8.262  0.0657 -0.3554  0.1334
  303MOL0     C40835   3.487   8.436   8.152  0.8184 -0.3193 -0.2718
  303MOL0     C40836   2.853   8.741   8.552 -0.7626  0.1669  0.8048
  303MOL0     C40837   2.730   8.735   8.621  0.3853  0.6163  2.1147
  303MOL0     H40838   2.497   8.928   9.159 -0.4859 -1.1862  3.2947
  303MOL0     H40839   2.281   8.909   9.270 -0.3576 -1.5638  1.6084
  303MOL0     H40840   2.151   8.719   9.400 -0.2644 -0.0521 -0.3412
  303MOL0     H40841   2.075   8.875   9.354  1.7174 -0.1042  0.3728
  303MOL0     H40842   1.955   8.590   9.393  1.2621  1.3524 -1.2301
  303MOL0     H40843   1.935   8.727   9.510  2.0368  0.7631  0.0052
  303MOL0     H40844   1.803   8.851   9.374  0.2544 -0.5816  0.3235
  303MOL0     H40845   1.814   8.728   9.236 -0.9202 -0.7425 -0.4471
  303MOL0     H40846   1.712   8.555   9.371 -0.7269 -0.0930 -1.7458
  303MOL0     H40847   1.700   8.662   9.505  0.1030 -0.9750  0.6826
  303MOL0     H40848   1.543   8.810   9.397  1.3988  1.0882  0.1721
  303MOL0     H40849   1.580   8.751   9.239  0.3436  0.8553  0.9754
  303MOL0     H40850   1.362   8.649   9.312 -1.1939 -2.7793  2.1689
  303MOL0     H40851   1.500   8.529   9.287  0.5323 -1.4406  1.6683
  303MOL0     H40852   1.505   8.489   9.513  1.6816  1.8609  0.4557
  303MOL0     H40853   1.418   8.641   9.558 -0.7697  0.6426 -0.1674
  303MOL0     H40854   1.274   8.416   9.579 -1.6936  3.2988  2.6959
  303MOL0     H40855   1.302   8.393   9.409  2.3158 -0.3816  2.3996
  303MOL0     H40856   1.133   8.689   9.597  1.3408  0.9071 -1.2837
  303MOL0     H40857   0.820   8.689   9.580 -0.3833 -1.6037 -1.3785
  303MOL0     H40858   0.911   8.825   9.512  1.3639 -0.2863 -0.0343
  303MOL0     H40859   0.744   8.659   9.323  1.4921  1.2087 -1.5924
  303MOL0     H40860   0.804   8.808   9.299 -1.5417  0.1560 -0.5364
  303MOL0     H40861   0.572   8.833   9.330 -1.2048  4.7824  1.3055
  303MOL0     H40862   0.641   8.919   9.461 -3.0172  0.7776  0.1848
  303MOL0     H40863   0.593   8.756   9.627  1.1648  1.9304  0.1940
  303MOL0     H40864   0.570   8.628   9.504 -2.4084 -0.4028  0.8407
  303MOL0     H40865   0.429   8.612   9.310  1.1663 -0.1253  0.8947
  303MOL0     H40866   0.335   8.379   9.228 -1.5303 -1.1844  2.0868
  303MOL0     H40867   0.166   8.370   9.220  0.2445 -1.8405 -0.5641
  303MOL0     H40868   0.239   8.485   9.118  1.7373  0.5943  1.3840
  303MOL0     H40869  -0.243   8.725   9.260 -0.6271  0.2316  1.7120
  303MOL0     H40870  -0.464   8.715   9.139  0.1507 -0.9188 -0.7130
  303MOL0     H40871  -0.676   8.342   9.069  2.3966  1.9895 -3.3325
  303MOL0     H40872  -0.750   8.385   9.224  0.9505  1.7553  0.5057
  303MOL0     H40873  -0.800   8.540   8.966  1.5971 -2.7014 -1.0397
  303MOL0     H40874  -0.870   8.386   8.975 -0.9869  0.0220  0.0521
  303MOL0     H40875  -0.895   8.576   9.217 -2.5454 -1.7830  2.1744
  303MOL0     H40876  -1.021   8.454   9.164  1.2053 -1.9742 -0.4114
  303MOL0     H40877  -0.961   8.711   9.005  0.8863 -0.2670  0.7758
  303MOL0     H40878  -1.089   8.591   8.987  0.3101 -0.3450  0.7818
  303MOL0     H40879  -1.196   8.772   9.064 -2.4308 -3.5164 -1.0672
  303MOL0     H40880  -1.071   8.795   9.190  2.1431 -1.9477 -0.6743
  303MOL0     H40881  -1.274   8.573   9.181  2.7860  0.7319 -1.4207
  303MOL0     H40882  -1.181   8.623   9.327  3.5514  3.7656 -0.6849
  303MOL0     H40883  -1.386   8.803   9.192 -2.1176 -2.1904  1.7029
  303MOL0     H40884  -1.314   8.824   9.354 -0.1160 -0.5330  1.7257
  303MOL0     H40885  -1.540   8.743   9.381 -2.5293 -0.0471 -4.4831
  303MOL0     H40886  -1.436   8.611   9.432  2.4457  0.5008  0.6271
  303MOL0     H40887  -0.522   8.312   9.261 -0.6251  0.8550  0.6582
  303MOL0     H40888  -0.303   8.313   9.367 -0.3784 -1.1941 -2.6420
  303MOL0     H40889  -0.010   8.664   9.541  1.3249  1.2231  3.1079
  303MOL0     H40890   0.172   8.800   9.613  2.3037 -1.3488  1.5154
  303MOL0     H40891   2.163   8.595   9.019 -0.0759 -1.1752  2.7795
  303MOL0     H40892   2.368   8.613   8.889  0.9655 -1.0433  0.9899
  303MOL0     H40893   2.848   8.806   8.929 -4.5406  1.5499 -0.1451
  303MOL0     H40894   3.060   8.778   8.797  0.5936 -0.1482 -3.4217
  303MOL0     H40895   3.023   8.622   8.390  0.3790 -0.1612  0.4364
  303MOL0     H40896   3.059   8.784   8.344 -4.4739 -0.9345  0.3670
  303MOL0     H40897   3.311   8.705   8.393 -1.6504  1.0475 -2.0003
  303MOL0     H40898   3.229   8.655   8.254  0.2720  3.9154  0.2685
  303MOL0     H40899   3.180   8.433   8.339 -1.1678 -1.3240  2.2287
  303MOL0     H40900   3.224   8.482   8.506 -2.6153  0.3599 -0.4070
  303MOL0     H40901   3.398   8.348   8.441 -1.2136  0.5965  1.3115
  303MOL0     H40902   3.455   8.509   8.470  1.3769 -2.7157  1.6723
  303MOL0     H40903   3.539   8.430   8.058  0.8534 -0.2733 -0.2555
  303MOL0     H40904   2.841   8.725   8.445 -0.4283 -0.8576  0.8997
  303MOL0     H40905   2.636   8.724   8.569  1.2918 -2.6063  0.9413
  304MOL0     O40906   6.561   1.295  10.978 -0.0229  0.2462 -0.2556
  304MOL0     C40907   6.583   1.288  11.096 -0.4349 -1.0713 -0.7673
  304MOL0     O40908   6.501   1.348  11.197 -0.1275  0.0294  0.1672
  304MOL0     C40909   6.373   1.392  11.184  0.0473 -0.5294  0.9395
  304MOL0     C40910   6.295   1.396  11.296  0.5072 -0.1414  0.8846
  304MOL0     C40911   6.170   1.461  11.303  0.1788  0.7323 -0.4995
  304MOL0     C40912   6.120   1.498  11.185  0.0305 -0.8061 -0.1700
  304MOL0     O40913   5.999   1.556  11.190 -0.2459  0.3071 -0.2850
  304MOL0     C40914   5.916   1.511  11.087  0.5262 -0.0745 -0.2836
  304MOL0     C40915   5.765   1.493  11.128  0.2707 -0.1136  0.0792
  304MOL0     C40916   5.689   1.620  11.080  0.2906  0.5560 -0.2930
  304MOL0     C40917   5.724   1.748  11.162  0.6637  0.8574  0.2056
  304MOL0     C40918   5.657   1.868  11.090 -0.1767  0.3790 -0.2016
  304MOL0     C40919   5.515   1.867  11.142 -0.7202 -0.8193  0.4838
  304MOL0     C40920   5.427   1.978  11.080 -0.5344  0.0020  0.0164
  304MOL0     C40921   5.428   2.100  11.157 -0.4456  0.0133 -0.0326
  304MOL0     N40922   5.339   2.190  11.078  0.0778  0.0789  0.0763
  304MOL0     C40923   5.236   2.256  11.143 -0.5704  0.2965 -0.2610
  304MOL0     C40924   5.174   2.315  11.040 -0.3211  0.1739  0.6435
  304MOL0     C40925   5.043   2.388  11.035 -0.4047 -0.2821  0.0651
  304MOL0     C40926   5.047   2.505  11.132  0.3467  0.0448  0.6104
  304MOL0     C40927   4.920   2.588  11.101 -0.0305  0.2362  0.2952
  304MOL0     C40928   4.914   2.718  11.187 -0.8418 -0.9267 -0.1838
  304MOL0     O40929   4.781   2.757  11.213  0.1401 -0.1381  0.6055
  304MOL0     C40930   4.711   2.794  11.103 -0.8501 -0.1823  0.1434
  304MOL0     C40931   4.573   2.801  11.131  0.7761 -0.5340 -0.4030
  304MOL0     C40932   4.477   2.842  11.033  0.3331 -0.3248  0.2695
  304MOL0     C40933   4.330   2.848  11.058 -0.5633 -0.2486 -0.0194
  304MOL0     C40934   4.528   2.865  10.897  0.0532  0.5419 -0.4526
  304MOL0     C40935   4.435   2.912  10.796  0.3365 -0.0902 -0.4490
  304MOL0     O40936   4.351   3.024  10.823 -0.0771 -0.0437 -0.5550
  304MOL0     C40937   4.287   3.073  10.706  0.2686 -0.6958 -0.3077
  304MOL0     C40938   4.150   3.044  10.701  0.4876 -0.2339  0.5601
  304MOL0     C40939   4.066   3.104  10.606  0.1523 -0.4361 -0.1226
  304MOL0     C40940   4.118   3.187  10.511  0.5904 -0.4276 -0.1088
  304MOL0     O40941   4.021   3.254  10.431  0.0622  0.1145  0.5413
  304MOL0     C40942   4.055   3.389  10.390  0.3416  0.8623 -0.5677
  304MOL0     C40943   3.970   3.445  10.272 -0.5479 -0.1485  0.0750
  304MOL0     C40944   3.824   3.469  10.283 -0.4091  0.3131 -0.1235
  304MOL0     C40945   3.805   3.592  10.368  0.1521 -0.2997  0.7082
  304MOL0     C40946   3.655   3.620  10.372  0.4133  0.3030  0.2418
  304MOL0     C40947   3.592   3.660  10.236 -0.2142  0.2215 -0.4305
  304MOL0     C40948   3.443   3.666  10.253  0.7830 -0.7289  0.4884
  304MOL0     C40949   3.369   3.696  10.120 -0.7501  0.6701 -0.5750
  304MOL0    Cl40950   3.197   3.722  10.164  0.2065 -0.1932 -0.1274
  304MOL0     C40951   4.255   3.214  10.519  0.6119  0.0957  0.0010
  304MOL0     C40952   4.339   3.157  10.611 -0.8332 -0.0787 -0.7364
  304MOL0     O40953   4.438   2.851  10.690  0.1492 -0.0585  0.0587
  304MOL0     C40954   4.664   2.849  10.864  0.6769  0.4008  0.6418
  304MOL0     C40955   4.748   2.806  10.965 -1.2376  0.1584 -0.1664
  304MOL0     N40956   5.256   2.310  10.925  0.2633  0.0539  0.4670
  304MOL0     N40957   5.359   2.241  10.954  1.2967  0.4908  0.3514
  304MOL0     C40958   6.195   1.497  11.066  0.4381  0.1267  0.0531
  304MOL0     C40959   6.322   1.439  11.060 -0.1618 -0.2816 -0.3021
  304MOL0     C40960   6.704   1.223  11.142 -0.0343  0.4491 -1.5027
  304MOL0     C40961   6.721   1.196  11.283  0.0110  0.1331 -0.3360
  304MOL0     C40962   6.833   1.127  11.327 -0.1188 -1.5640 -0.0351
  304MOL0     C40963   6.937   1.098  11.235  1.1169  0.4887 -0.6253
  304MOL0     O40964   7.050   1.039  11.274 -0.3998 -0.2205  0.3854
  304MOL0     C40965   7.082   1.016  11.411  0.1735 -0.3849 -0.2045
  304MOL0     C40966   7.225   0.978  11.421 -0.1612 -0.6113  0.0302
  304MOL0     C40967   7.266   0.843  11.359  0.3565 -0.4312 -0.2590
  304MOL0     C40968   7.415   0.817  11.384 -0.1779 -0.3443 -0.2738
  304MOL0     C40969   7.507   0.915  11.327 -0.0431 -0.7161  0.0110
  304MOL0     C40970   7.580   0.994  11.283 -0.8122  0.0132  0.2221
  304MOL0     C40971   6.922   1.121  11.098  0.3969  0.1992 -0.4015
  304MOL0     C40972   6.805   1.186  11.057  0.0434  0.3589  0.3810
  304MOL0     H40973   6.324   1.349  11.390  1.0765 -2.5328 -0.4184
  304MOL0     H40974   6.104   1.469  11.389 -0.5911 -1.9868 -0.7537
  304MOL0     H40975   5.916   1.587  11.009  0.3527  0.0979 -0.1156
  304MOL0     H40976   5.947   1.417  11.042 -0.3177 -0.1510 -0.7290
  304MOL0     H40977   5.711   1.416  11.073 -1.7568  1.6304 -0.4854
  304MOL0     H40978   5.747   1.482  11.235  0.2069  1.4240  0.2500
  304MOL0     H40979   5.703   1.632  10.972  0.6174 -2.0553 -0.6122
  304MOL0     H40980   5.585   1.586  11.092  0.5788 -0.5008 -0.6773
  304MOL0     H40981   5.705   1.746  11.270 -1.2752  1.1115 -0.0828
  304MOL0     H40982   5.829   1.762  11.138  0.6575  0.5427 -0.0103
  304MOL0     H40983   5.709   1.964  11.095 -2.5429  1.6776  1.0688
  304MOL0     H40984   5.642   1.849  10.983  1.5884 -0.3252 -0.3483
  304MOL0     H40985   5.471   1.769  11.120 -1.7603 -0.1760 -0.4174
  304MOL0     H40986   5.504   1.874  11.250  0.7723  0.6944  0.5714
  304MOL0     H40987   5.452   1.999  10.976  0.6118 -2.5281 -0.2722
  304MOL0     H40988   5.330   1.927  11.078  0.6593 -2.3774 -0.6065
  304MOL0     H40989   5.532   2.133  11.158 -0.1435 -0.9151  0.1456
  304MOL0     H40990   5.392   2.087  11.259  0.7190  3.2127  0.8857
  304MOL0     H40991   5.195   2.237  11.242  0.2595  0.2345  0.0802
  304MOL0     H40992   5.022   2.416  10.931 -1.9107  1.5126  0.8013
  304MOL0     H40993   4.963   2.322  11.069 -2.0670  1.5292 -0.2025
  304MOL0     H40994   5.136   2.566  11.115 -0.4420  1.6820  2.1502
  304MOL0     H40995   5.052   2.465  11.234  1.8832 -1.8972 -0.1422
  304MOL0     H40996   4.826   2.532  11.111 -0.5307  0.4479 -2.3910
  304MOL0     H40997   4.926   2.613  10.995  0.4657 -0.2357  0.2087
  304MOL0     H40998   4.973   2.794  11.135 -1.1113 -0.6650 -0.1106
  304MOL0     H40999   4.958   2.708  11.287  2.8181  0.9311 -1.4371
  304MOL0     H41000   4.536   2.790  11.233 -0.0395 -2.2712 -0.8518
  304MOL0     H41001   4.310   2.799  11.154 -0.1386  1.5659  1.0359
  304MOL0     H41002   4.295   2.951  11.052 -1.8487 -0.6999 -0.7961
  304MOL0     H41003   4.281   2.791  10.979 -2.4071  1.2471 -0.0236
  304MOL0     H41004   4.096   2.975  10.765  3.2477 -2.0155  1.1018
  304MOL0     H41005   3.958   3.089  10.609 -0.1510  1.0706 -1.8784
  304MOL0     H41006   4.048   3.459  10.474  0.0403  2.1145 -1.5913
  304MOL0     H41007   4.161   3.384  10.363  0.3513 -1.8422 -0.2856
  304MOL0     H41008   4.021   3.530  10.225  2.6615 -2.2896 -0.6095
  304MOL0     H41009   3.988   3.372  10.192  0.1709 -0.5975  0.6351
  304MOL0     H41010   3.774   3.382  10.328 -0.2891  1.4376  2.3610
  304MOL0     H41011   3.795   3.470  10.178  2.2205 -2.7945 -1.0305
  304MOL0     H41012   3.844   3.578  10.469  0.0532 -0.8522  0.6712
  304MOL0     H41013   3.861   3.671  10.317  1.0597 -1.0516  0.5212
  304MOL0     H41014   3.631   3.702  10.440  0.2510 -0.3155  0.9376
  304MOL0     H41015   3.612   3.531  10.419  0.4907  0.8957  1.4527
  304MOL0     H41016   3.628   3.763  10.221  0.2540 -0.0321 -1.0856
  304MOL0     H41017   3.620   3.597  10.151 -0.7007  0.6667 -0.9278
  304MOL0     H41018   3.411   3.725  10.340 -1.0543 -0.2562 -0.4495
  304MOL0     H41019   3.429   3.561  10.277  2.8934 -0.8354  1.4337
  304MOL0     H41020   3.371   3.605  10.059 -1.5039 -0.9467  1.7042
  304MOL0     H41021   3.411   3.789  10.080 -3.0756  3.6599  3.3074
  304MOL0     H41022   4.311   3.276  10.448  1.8546 -1.2355 -0.2242
  304MOL0     H41023   4.441   3.184  10.633 -0.4220 -0.3362 -2.2130
  304MOL0     H41024   4.690   2.873  10.762  1.9317  1.2363  1.1423
  304MOL0     H41025   4.852   2.804  10.935 -0.2530  3.7139  2.2895
  304MOL0     H41026   6.143   1.537  10.979 -0.9645 -0.1705  0.7323
  304MOL0     H41027   6.371   1.439  10.963  1.0303  0.3072  0.2820
  304MOL0     H41028   6.642   1.224  11.352  0.7975  0.7521  0.3309
  304MOL0     H41029   6.818   1.094  11.430 -2.9077  2.1216  0.9499
  304MOL0     H41030   7.059   1.102  11.475  2.9602  0.0988  0.2775
  304MOL0     H41031   7.031   0.936  11.464  1.6172  0.6826  3.0564
  304MOL0     H41032   7.246   0.975  11.528  1.4894  0.5193 -0.2211
  304MOL0     H41033   7.282   1.060  11.376  1.0094 -1.8678 -0.8818
  304MOL0     H41034   7.246   0.841  11.252 -2.8189 -2.2081  0.2425
  304MOL0     H41035   7.191   0.774  11.400 -2.0692  1.7559 -0.7593
  304MOL0     H41036   7.436   0.727  11.325  0.2568  0.1214 -0.8410
  304MOL0     H41037   7.432   0.797  11.490  3.3654  2.7163 -0.0528
  304MOL0     H41038   7.631   1.074  11.233  1.1244 -0.3448  1.5249
  304MOL0     H41039   6.999   1.089  11.028  0.8459 -0.3270  0.3202
  304MOL0     H41040   6.783   1.226  10.959  1.1927  2.5035  0.9423
  305MOL0     O41041   8.231   9.764   2.707 -0.5960  0.5403  1.1720
  305MOL0     C41042   8.331   9.771   2.634  0.7880 -0.3334 -0.0177
  305MOL0     O41043   8.348   9.842   2.518 -0.0779  0.0081  0.1502
  305MOL0     C41044   8.236   9.897   2.457  0.4613 -0.8901  0.0618
  305MOL0     C41045   8.247  10.021   2.397 -0.6311  0.5219  0.1008
  305MOL0     C41046   8.129  10.091   2.354 -0.4075  0.0327 -0.2161
  305MOL0     C41047   8.005  10.033   2.366  0.1644 -1.2564 -0.2826
  305MOL0     O41048   7.893  10.100   2.325 -0.4148  0.0683  0.0678
  305MOL0     C41049   7.776  10.103   2.413 -0.2225  0.1732 -0.0524
  305MOL0     C41050   7.676  10.193   2.346  0.7985 -0.1844 -1.0537
  305MOL0     C41051   7.700  10.345   2.380  0.3382  0.2551 -0.2467
  305MOL0     C41052   7.852  10.386   2.374  0.3047  0.0018 -0.5010
  305MOL0     C41053   7.889  10.533   2.396 -0.4514  0.0087 -0.0381
  305MOL0     C41054   7.851  10.559   2.544  0.0956  0.1862 -0.1415
  305MOL0     C41055   7.953  10.644   2.611 -0.1449  0.1863 -0.4200
  305MOL0     C41056   8.095  10.582   2.620  0.1502 -0.1537  0.8170
  305MOL0     N41057   8.100  10.465   2.712  0.7061 -0.0089 -0.1300
  305MOL0     C41058   8.087  10.331   2.673 -0.0961 -0.5079  0.1769
  305MOL0     C41059   8.107  10.266   2.788  0.7221  1.0715 -0.0236
  305MOL0     C41060   8.095  10.112   2.800  0.1007  0.0889  0.1837
  305MOL0     C41061   7.945  10.075   2.829 -0.2661  0.6814  0.2336
  305MOL0     C41062   7.939   9.924   2.857 -0.4935  0.0872  0.4158
  305MOL0     C41063   7.807   9.886   2.923 -1.1729  0.8005 -0.0448
  305MOL0     O41064   7.705   9.968   2.880 -0.2118 -0.0089  0.0890
  305MOL0     C41065   7.627   9.937   2.772 -0.6094 -0.3616  0.5874
  305MOL0     C41066   7.641   9.823   2.694  0.1313  0.1324 -0.4163
  305MOL0     C41067   7.543   9.797   2.584 -0.0585  0.3003  0.3732
  305MOL0     C41068   7.570   9.670   2.501  0.1318 -0.5817 -0.8198
  305MOL0     C41069   7.445   9.894   2.546  0.2774  0.3991  0.1709
  305MOL0     C41070   7.360   9.884   2.434  0.2756  0.4252  0.3378
  305MOL0     O41071   7.359   9.996   2.356  0.3944  0.0438  0.2356
  305MOL0     C41072   7.294   9.997   2.231 -0.3562  0.2454  0.5021
  305MOL0     C41073   7.344   9.917   2.119 -0.3393 -0.3026  0.0550
  305MOL0     C41074   7.291   9.926   1.996 -0.5355 -0.0748 -0.5590
  305MOL0     C41075   7.198  10.017   1.971  0.9536 -0.1634  0.6961
  305MOL0     O41076   7.152  10.029   1.844  0.5004 -0.2553  0.5955
  305MOL0     C41077   7.105  10.161   1.799  0.2704  0.1441 -0.2310
  305MOL0     C41078   7.090  10.168   1.652  0.1036 -0.4285  1.0924
  305MOL0     C41079   7.040  10.297   1.588 -0.3532  1.4686 -0.1938
  305MOL0     C41080   6.888  10.311   1.583 -0.0657  0.3973 -0.6574
  305MOL0     C41081   6.840  10.416   1.492  0.8681 -0.0455  0.4345
  305MOL0     C41082   6.847  10.561   1.541  0.3756 -0.9493  0.4099
  305MOL0     C41083   6.762  10.656   1.461  0.6229 -0.5832  0.1590
  305MOL0     C41084   6.715  10.779   1.544 -0.2300 -0.0734  0.8258
  305MOL0    Cl41085   6.843  10.843   1.645  0.4335  0.1358  0.0222
  305MOL0     C41086   7.143  10.089   2.074 -0.5419  0.1694  0.5996
  305MOL0     C41087   7.198  10.088   2.204  0.8098 -0.7164  0.7932
  305MOL0     O41088   7.306   9.780   2.408 -0.2302 -0.5745 -0.2202
  305MOL0     C41089   7.446  10.008   2.623  0.3059 -0.4437 -0.3780
  305MOL0     C41090   7.534  10.035   2.725 -0.2667  0.0731 -1.0924
  305MOL0     N41091   8.128  10.358   2.889  0.5832  0.9171 -0.4487
  305MOL0     N41092   8.123  10.474   2.842 -0.1375  0.1382 -0.5705
  305MOL0     C41093   7.991   9.907   2.403  0.1989  0.6182 -0.3898
  305MOL0     C41094   8.103   9.837   2.458  0.4944  0.1675 -0.2575
  305MOL0     C41095   8.453   9.704   2.673 -0.7138  0.1767  0.8961
  305MOL0     C41096   8.451   9.586   2.754  0.7404  0.1867 -0.5820
  305MOL0     C41097   8.568   9.523   2.783  0.2808  0.1596 -0.1935
  305MOL0     C41098   8.689   9.569   2.734 -0.8626 -0.4895  0.0688
  305MOL0     O41099   8.798   9.505   2.777 -0.5590  0.7523 -0.8050
  305MOL0     C41100   8.895   9.466   2.676 -0.8526 -0.1576  0.5785
  305MOL0     C41101   9.028   9.407   2.713 -0.2718  0.2613  1.0332
  305MOL0     C41102   9.120   9.515   2.783  0.1608 -0.0392 -0.5198
  305MOL0     C41103   9.268   9.493   2.797  0.0225 -0.3300  0.8396
  305MOL0     C41104   9.339   9.590   2.878 -0.0501 -0.9595 -0.3411
  305MOL0     C41105   9.383   9.677   2.943 -0.8546 -0.6698 -0.2452
  305MOL0     C41106   8.697   9.673   2.647 -0.5732 -0.5540 -0.2999
  305MOL0     C41107   8.578   9.740   2.611  0.1842 -0.1063 -0.9361
  305MOL0     H41108   8.346  10.064   2.388 -0.4073 -0.1782 -1.0244
  305MOL0     H41109   8.145  10.187   2.306  2.2634 -0.7933 -1.1490
  305MOL0     H41110   7.734  10.002   2.418  0.7871 -0.3049 -0.8930
  305MOL0     H41111   7.805  10.128   2.516  0.3547 -0.9004  0.0617
  305MOL0     H41112   7.654  10.166   2.242 -1.1285 -0.1001 -0.6977
  305MOL0     H41113   7.578  10.171   2.389  0.7537  0.0274 -1.0443
  305MOL0     H41114   7.643  10.398   2.303 -0.7235  0.3346  0.5607
  305MOL0     H41115   7.671  10.367   2.484 -2.4665  1.5522 -1.1897
  305MOL0     H41116   7.909  10.329   2.448  0.1782 -1.2433 -1.3424
  305MOL0     H41117   7.878  10.363   2.271  2.5620  2.2398 -0.5149
  305MOL0     H41118   7.997  10.551   2.385 -0.5952  0.2862 -1.1349
  305MOL0     H41119   7.832  10.606   2.338 -0.3327  1.2218  1.3077
  305MOL0     H41120   7.766  10.627   2.537 -0.2680 -0.1395  0.8895
  305MOL0     H41121   7.835  10.471   2.606  0.3912  0.1805 -0.0662
  305MOL0     H41122   7.958  10.744   2.566 -2.1076  0.3965 -0.2608
  305MOL0     H41123   7.912  10.662   2.711 -1.1622 -2.9013 -0.1831
  305MOL0     H41124   8.167  10.656   2.657  0.0803  0.2986  0.0784
  305MOL0     H41125   8.127  10.550   2.521 -1.6884  4.5091 -1.6054
  305MOL0     H41126   8.045  10.273   2.592  1.8423 -2.3193  0.3772
  305MOL0     H41127   8.117  10.069   2.702  1.8326  1.0871  0.0982
  305MOL0     H41128   8.161  10.073   2.877  3.3732  1.6262 -1.6442
  305MOL0     H41129   7.890  10.088   2.735  0.1979  1.1634  0.0256
  305MOL0     H41130   7.922  10.142   2.912  2.2885  1.0549  0.7312
  305MOL0     H41131   8.020   9.884   2.919 -2.0064 -3.4370  0.3464
  305MOL0     H41132   7.959   9.883   2.758 -1.3696 -2.4669  1.2235
  305MOL0     H41133   7.828   9.894   3.030  1.0460 -0.1165 -0.3389
  305MOL0     H41134   7.788   9.781   2.897 -0.3184  0.2048  1.5856
  305MOL0     H41135   7.720   9.749   2.710  1.0802  1.5016  1.7225
  305MOL0     H41136   7.566   9.689   2.393  2.1977  3.3111 -0.3975
  305MOL0     H41137   7.664   9.622   2.532 -2.1548 -2.6632  3.9119
  305MOL0     H41138   7.495   9.600   2.536  0.2555 -0.8642 -1.1100
  305MOL0     H41139   7.425   9.845   2.129  0.5788  0.6196 -0.5655
  305MOL0     H41140   7.313   9.858   1.914 -1.5067 -1.5539  0.3628
  305MOL0     H41141   7.007  10.175   1.847  1.2337 -0.7547  2.1359
  305MOL0     H41142   7.166  10.244   1.836 -0.0572  1.6640 -2.8417
  305MOL0     H41143   7.177  10.125   1.601  0.0210  0.7964 -0.1518
  305MOL0     H41144   7.008  10.098   1.631 -0.9907  0.3979  2.4070
  305MOL0     H41145   7.081  10.307   1.487  1.3055 -1.7033  0.0643
  305MOL0     H41146   7.086  10.376   1.649  1.1530 -0.0279  0.6792
  305MOL0     H41147   6.852  10.220   1.534  3.1966 -0.1860 -2.2784
  305MOL0     H41148   6.851  10.317   1.686  3.2546  1.5422  0.6121
  305MOL0     H41149   6.737  10.395   1.463  1.2777 -1.5268 -0.0354
  305MOL0     H41150   6.880  10.409   1.391  0.1325  3.5009 -0.2501
  305MOL0     H41151   6.819  10.567   1.646  3.6785 -2.5262  1.5045
  305MOL0     H41152   6.952  10.591   1.547 -0.1716  1.5526 -0.9016
  305MOL0     H41153   6.677  10.607   1.412  1.1557 -1.4567  0.1002
  305MOL0     H41154   6.822  10.704   1.383 -0.1025 -0.9640 -0.6513
  305MOL0     H41155   6.631  10.751   1.609 -0.9386  1.2755  0.5241
  305MOL0     H41156   6.686  10.857   1.473 -0.1977 -1.5286 -0.8466
  305MOL0     H41157   7.062  10.160   2.057  0.6622  2.0611  2.2279
  305MOL0     H41158   7.164  10.152   2.284 -1.8890 -0.3056 -0.5688
  305MOL0     H41159   7.372  10.082   2.597 -1.3326 -1.6282  0.6810
  305MOL0     H41160   7.515  10.131   2.771  0.5072  0.2157 -1.0593
  305MOL0     H41161   7.895   9.856   2.404  1.4819 -1.9857 -1.1071
  305MOL0     H41162   8.088   9.737   2.498  2.1359 -0.6994 -1.6725
  305MOL0     H41163   8.360   9.550   2.802  1.4750  1.6178  2.0764
  305MOL0     H41164   8.561   9.447   2.860  2.0676  1.1948  1.0644
  305MOL0     H41165   8.847   9.398   2.604  2.3533  1.0706 -3.0592
  305MOL0     H41166   8.926   9.550   2.613  1.8165  0.7302  2.8667
  305MOL0     H41167   9.072   9.372   2.619 -0.9520 -0.5517  1.0027
  305MOL0     H41168   9.016   9.322   2.781 -0.4035  0.3126  1.0739
  305MOL0     H41169   9.085   9.521   2.886 -1.4408 -2.7952 -0.8111
  305MOL0     H41170   9.109   9.603   2.719  0.3537  0.3811  0.0230
  305MOL0     H41171   9.319   9.482   2.701 -1.3296 -1.3163  0.2096
  305MOL0     H41172   9.272   9.393   2.841 -0.6340 -1.1101 -0.7836
  305MOL0     H41173   9.415   9.750   3.015 -0.4247 -0.7540 -0.3491
  305MOL0     H41174   8.796   9.709   2.620  0.0395 -1.1676  1.0645
  305MOL0     H41175   8.586   9.828   2.548  2.4603 -0.3667 -1.0823
  306MOL0     O41176   0.654   1.622  11.122  0.0662  0.9283  0.3934
  306MOL0     C41177   0.728   1.605  11.217  0.7689 -0.1276 -0.2540
  306MOL0     O41178   0.674   1.565  11.338  0.1540 -0.5947 -0.2691
  306MOL0     C41179   0.534   1.545  11.362 -0.6049  0.2573  0.2555
  306MOL0     C41180   0.420   1.536  11.278  0.0546 -0.2068  0.1533
  306MOL0     C41181   0.292   1.503  11.329 -0.2825 -0.4511  0.3180
  306MOL0     C41182   0.271   1.495  11.462  1.1194  0.0038  0.2596
  306MOL0     O41183   0.139   1.475  11.497 -0.2473 -0.0979 -0.2206
  306MOL0     C41184   0.100   1.465  11.637 -0.8657  0.2563  0.4994
  306MOL0     C41185  -0.044   1.497  11.651 -0.5003 -0.0591  0.2089
  306MOL0     C41186  -0.097   1.629  11.598  0.8746  0.6324 -0.3931
  306MOL0     C41187  -0.247   1.635  11.643  0.4460  0.0626 -0.0703
  306MOL0     C41188  -0.320   1.760  11.591 -0.5705  0.0286  0.0728
  306MOL0     C41189  -0.451   1.793  11.665 -1.0222  0.0318 -0.3767
  306MOL0     C41190  -0.573   1.701  11.611 -1.4926 -0.3828 -0.7742
  306MOL0     C41191  -0.709   1.747  11.679 -0.2118 -0.3748  0.7272
  306MOL0     N41192  -0.803   1.644  11.682 -0.3698 -0.6580 -0.3250
  306MOL0     C41193  -0.892   1.624  11.576  0.5389  0.2611 -0.1897
  306MOL0     C41194  -0.965   1.515  11.614 -0.5147  0.5919 -0.5667
  306MOL0     C41195  -1.087   1.461  11.536  0.4719  0.2159 -0.7285
  306MOL0     C41196  -1.223   1.503  11.596 -0.0809  0.1884 -0.0329
  306MOL0     C41197  -1.238   1.514  11.749 -0.9637  0.1235 -0.1685
  306MOL0     C41198  -1.369   1.469  11.806  0.0516  0.4476 -0.4338
  306MOL0     O41199  -1.468   1.575  11.792  0.0881  0.5044 -0.1156
  306MOL0     C41200  -1.595   1.554  11.822  0.0754 -0.1411  0.4305
  306MOL0     C41201  -1.671   1.674  11.803 -0.1127  0.4531 -0.6580
  306MOL0     C41202  -1.803   1.680  11.839 -0.2245 -0.0152  0.2855
  306MOL0     C41203  -1.864   1.818  11.839 -0.1388 -0.3818  0.4153
  306MOL0     C41204  -1.874   1.564  11.891 -0.7505  0.2195 -0.0187
  306MOL0     C41205  -2.013   1.571  11.945 -1.8050  0.1659  0.0160
  306MOL0     O41206  -2.038   1.460  12.034  0.5751 -1.0306  0.1953
  306MOL0     C41207  -2.158   1.453  12.100  0.1604  0.3964  0.2897
  306MOL0     C41208  -2.165   1.428  12.238 -0.3282  0.3189  0.7090
  306MOL0     C41209  -2.287   1.388  12.306  0.0567  0.5253  0.1225
  306MOL0     C41210  -2.404   1.394  12.240  0.6832 -0.0830  0.5599
  306MOL0     O41211  -2.524   1.361  12.308  0.9438 -0.2179  0.1504
  306MOL0     C41212  -2.652   1.385  12.244 -0.0633  0.6810  0.3519
  306MOL0     C41213  -2.770   1.405  12.339  0.5835 -0.3536  0.4916
  306MOL0     C41214  -2.813   1.283  12.418 -0.0589  0.2525 -0.1829
  306MOL0     C41215  -2.956   1.315  12.467  0.2723  0.1049  0.3961
  306MOL0     C41216  -2.977   1.224  12.595 -0.1156 -0.1961  1.1766
  306MOL0     C41217  -3.125   1.230  12.645 -0.7270  0.0728 -0.0267
  306MOL0     C41218  -3.137   1.155  12.781  0.4259  0.5210 -0.1255
  306MOL0     C41219  -3.287   1.139  12.823 -0.5590 -0.7016 -0.3184
  306MOL0    Cl41220  -3.373   1.045  12.700  0.2087 -0.1746 -0.5310
  306MOL0     C41221  -2.402   1.420  12.100 -0.3068 -0.2494 -0.1447
  306MOL0     C41222  -2.283   1.461  12.032 -1.0326 -0.4004 -0.2552
  306MOL0     O41223  -2.088   1.663  11.917 -0.2036 -0.2143 -0.4630
  306MOL0     C41224  -1.792   1.448  11.900 -0.0930  0.4850 -0.7745
  306MOL0     C41225  -1.654   1.435  11.869  0.0555 -0.5051  0.2421
  306MOL0     N41226  -0.913   1.466  11.734  0.4206 -0.9262  0.5350
  306MOL0     N41227  -0.818   1.554  11.776  0.4043  0.0091 -0.4271
  306MOL0     C41228   0.380   1.507  11.548  0.0896 -0.0256 -0.7705
  306MOL0     C41229   0.510   1.526  11.500  0.2807 -0.5316  0.3938
  306MOL0     C41230   0.871   1.614  11.203 -0.6610 -0.5021 -0.3076
  306MOL0     C41231   0.963   1.603  11.308 -0.0540 -0.0649 -0.4817
  306MOL0     C41232   1.098   1.605  11.294 -0.3604 -0.2114  0.4071
  306MOL0     C41233   1.155   1.637  11.171 -0.4761  0.8382 -0.7115
  306MOL0     O41234   1.293   1.656  11.177 -0.7427  0.1057 -0.1383
  306MOL0     C41235   1.378   1.645  11.060 -1.5781  0.5363  0.4387
  306MOL0     C41236   1.510   1.583  11.099 -0.7987  0.0787 -0.3538
  306MOL0     C41237   1.598   1.551  10.975  0.1795 -0.1556  0.4465
  306MOL0     C41238   1.739   1.499  11.020 -0.2146 -1.3890  1.0676
  306MOL0     C41239   1.811   1.498  10.889  0.6757  0.5952 -0.7946
  306MOL0     C41240   1.863   1.471  10.786  0.2990 -0.0877  0.1622
  306MOL0     C41241   1.078   1.648  11.059 -0.0025 -0.3229 -0.4996
  306MOL0     C41242   0.935   1.634  11.074 -0.5070 -0.2747 -0.2212
  306MOL0     H41243   0.431   1.554  11.172 -0.7745 -3.3828 -0.5796
  306MOL0     H41244   0.207   1.494  11.261  0.9999  2.8555 -1.9987
  306MOL0     H41245   0.116   1.357  11.648  2.3714  0.3269 -1.8932
  306MOL0     H41246   0.166   1.526  11.700  0.1991 -0.5907  0.2409
  306MOL0     H41247  -0.110   1.420  11.610 -1.4423  0.4212  0.7888
  306MOL0     H41248  -0.069   1.508  11.757  0.8211  2.4769  0.3447
  306MOL0     H41249  -0.047   1.717  11.641  0.1262  1.0362 -0.3482
  306MOL0     H41250  -0.092   1.629  11.489 -2.1289 -1.0588 -0.6340
  306MOL0     H41251  -0.303   1.543  11.629 -4.0741  2.5124 -0.1806
  306MOL0     H41252  -0.244   1.640  11.753 -0.7422  1.0430 -0.0502
  306MOL0     H41253  -0.242   1.834  11.609 -1.2932  0.5173  1.3148
  306MOL0     H41254  -0.336   1.742  11.484 -0.8778 -0.8981  0.2645
  306MOL0     H41255  -0.431   1.773  11.771 -0.0414 -5.0336 -1.2575
  306MOL0     H41256  -0.482   1.897  11.648  0.2004  0.5448  0.4252
  306MOL0     H41257  -0.584   1.715  11.503  0.5884 -0.0140 -0.9837
  306MOL0     H41258  -0.557   1.598  11.644 -1.9105  0.5000  2.5710
  306MOL0     H41259  -0.753   1.838  11.639  0.0458  0.0081  1.3049
  306MOL0     H41260  -0.689   1.772  11.783 -0.0117 -1.5791  0.9999
  306MOL0     H41261  -0.909   1.679  11.484 -0.0798 -1.1465 -0.9572
  306MOL0     H41262  -1.076   1.469  11.427  0.5555  3.1302 -0.5688
  306MOL0     H41263  -1.087   1.353  11.553  1.1009  0.5656  1.9160
  306MOL0     H41264  -1.295   1.436  11.549  0.3680  0.0846 -0.5724
  306MOL0     H41265  -1.249   1.603  11.562  0.7837  0.9422  1.4225
  306MOL0     H41266  -1.221   1.618  11.778 -1.7723 -0.5928  3.2260
  306MOL0     H41267  -1.164   1.445  11.791 -1.5484 -0.1360  0.4596
  306MOL0     H41268  -1.331   1.451  11.907 -1.3953 -1.1390 -0.1314
  306MOL0     H41269  -1.411   1.385  11.750  0.6577  1.3014 -2.2706
  306MOL0     H41270  -1.618   1.763  11.770  1.0487  0.6914  1.6540
  306MOL0     H41271  -1.957   1.824  11.782 -0.3998 -3.4356  0.3822
  306MOL0     H41272  -1.888   1.845  11.942  0.0681 -1.1896  0.6820
  306MOL0     H41273  -1.797   1.891  11.791 -1.0318 -0.8237 -1.5996
  306MOL0     H41274  -2.072   1.426  12.294  1.1552 -0.8112 -1.6717
  306MOL0     H41275  -2.283   1.363  12.411 -0.7734  4.3677  1.2552
  306MOL0     H41276  -2.648   1.481  12.192  1.1612 -1.5252 -4.1431
  306MOL0     H41277  -2.674   1.307  12.170 -2.9441 -0.6644  2.4464
  306MOL0     H41278  -2.750   1.495  12.398  1.5125  0.9907 -1.7228
  306MOL0     H41279  -2.864   1.438  12.293  1.1705 -0.0040 -0.4925
  306MOL0     H41280  -2.737   1.261  12.494  0.5907  2.2308 -0.2176
  306MOL0     H41281  -2.817   1.202  12.345 -0.7808 -0.2739  0.4135
  306MOL0     H41282  -2.966   1.422  12.488  0.2224  0.0896  0.4513
  306MOL0     H41283  -3.033   1.294  12.393 -0.7719  0.5150  1.3360
  306MOL0     H41284  -2.915   1.260  12.677 -0.8341 -1.0663  2.1208
  306MOL0     H41285  -2.947   1.120  12.578  0.0174 -0.0059  0.1388
  306MOL0     H41286  -3.160   1.334  12.648  1.1797  0.7538  2.7975
  306MOL0     H41287  -3.187   1.190  12.564  0.6512  1.3838 -1.8087
  306MOL0     H41288  -3.083   1.191  12.869  0.7252  0.7469 -0.3998
  306MOL0     H41289  -3.089   1.059  12.761  1.8081  0.9096  1.2035
  306MOL0     H41290  -3.335   1.237  12.833 -1.3988 -0.9334 -1.8032
  306MOL0     H41291  -3.299   1.087  12.919  1.9502 -0.3414  0.2660
  306MOL0     H41292  -2.486   1.411  12.032 -1.2713 -2.8334  1.2720
  306MOL0     H41293  -2.298   1.471  11.925 -3.4488  0.3418  0.0901
  306MOL0     H41294  -1.847   1.361  11.933 -3.2800  2.5255 -0.2668
  306MOL0     H41295  -1.605   1.338  11.862 -2.1775 -1.5443 -2.8365
  306MOL0     H41296   0.374   1.491  11.655  1.4297 -0.0527 -0.6844
  306MOL0     H41297   0.601   1.530  11.558  0.6547  1.2731 -0.2508
  306MOL0     H41298   0.920   1.586  11.406 -3.6589  4.3623 -0.9576
  306MOL0     H41299   1.165   1.582  11.376 -1.4079 -2.7782  0.6365
  306MOL0     H41300   1.318   1.580  10.995 -0.2515 -1.4341  1.0948
  306MOL0     H41301   1.394   1.744  11.017  3.2135 -0.3133 -0.2255
  306MOL0     H41302   1.497   1.498  11.166  1.4760 -0.2430 -0.2518
  306MOL0     H41303   1.549   1.664  11.162  1.2479  0.1037 -1.5622
  306MOL0     H41304   1.597   1.642  10.914 -3.4613 -0.1238  0.3285
  306MOL0     H41305   1.550   1.472  10.918 -2.5137  1.5834  0.1524
  306MOL0     H41306   1.738   1.397  11.058  1.6460 -0.8566  2.6570
  306MOL0     H41307   1.779   1.566  11.096  0.1902 -1.5365  0.9873
  306MOL0     H41308   1.930   1.456  10.704  0.7546  1.2135  0.2619
  306MOL0     H41309   1.123   1.686  10.968 -2.4081 -1.8847 -2.4783
  306MOL0     H41310   0.874   1.648  10.986  0.4310  2.2811 -0.5316
  307MOL0     O41311  10.674   8.425   7.174 -0.5170 -0.3042 -0.6144
  307MOL0     C41312  10.765   8.351   7.137  0.5452  0.2263  0.7417
  307MOL0     O41313  10.775   8.295   7.013 -0.0090 -0.3201  0.2504
  307MOL0     C41314  10.690   8.329   6.911  0.0931 -0.3512  0.2868
  307MOL0     C41315  10.652   8.228   6.825 -0.1419 -0.0234 -0.1257
  307MOL0     C41316  10.577   8.250   6.711 -0.1601 -0.7931  0.0900
  307MOL0     C41317  10.534   8.381   6.684  0.5938  0.6671 -0.5689
  307MOL0     O41318  10.453   8.387   6.575  0.5299 -0.2008  0.2773
  307MOL0     C41319  10.325   8.450   6.586 -0.5880  0.1894 -0.8238
  307MOL0     C41320  10.249   8.457   6.453  0.3529  0.5355 -1.0770
  307MOL0     C41321  10.100   8.469   6.488 -1.1381  0.4670  0.9875
  307MOL0     C41322  10.013   8.472   6.367  0.0215 -0.7771 -0.6357
  307MOL0     C41323  10.031   8.359   6.267 -0.2864 -0.1678  0.9488
  307MOL0     C41324   9.907   8.360   6.169  0.0571  0.0225 -0.1327
  307MOL0     C41325   9.949   8.272   6.042 -0.2059 -0.2347 -0.3593
  307MOL0     C41326   9.835   8.199   5.990  0.6334  0.4897 -0.0354
  307MOL0     N41327   9.773   8.107   6.093 -0.1620  0.3832 -0.4270
  307MOL0     C41328   9.835   8.003   6.163 -0.6195 -0.4272  0.3169
  307MOL0     C41329   9.736   7.945   6.239 -0.3958  0.8203  0.9523
  307MOL0     C41330   9.748   7.829   6.328  0.0937 -0.0927  1.1056
  307MOL0     C41331   9.824   7.869   6.463  0.0871  0.2260  0.2764
  307MOL0     C41332   9.883   7.740   6.515 -0.9882  0.9091  0.2034
  307MOL0     C41333   9.963   7.754   6.648  1.2416  0.1409 -0.3691
  307MOL0     O41334  10.050   7.867   6.636 -0.0908  0.4178  0.2661
  307MOL0     C41335  10.174   7.850   6.574 -0.9069  0.0595  0.6104
  307MOL0     C41336  10.225   7.957   6.503  0.2353 -0.1333 -0.0910
  307MOL0     C41337  10.338   7.945   6.427  0.7347 -0.5749  1.2647
  307MOL0     C41338  10.385   8.068   6.344 -0.1361  0.0922  0.3377
  307MOL0     C41339  10.419   7.829   6.433  0.2122  0.0268  0.5416
  307MOL0     C41340  10.551   7.812   6.371 -0.1803 -0.3350 -0.1400
  307MOL0     O41341  10.653   7.806   6.462  0.5327 -0.5529 -0.0310
  307MOL0     C41342  10.785   7.809   6.415 -1.2827  0.6416 -0.4803
  307MOL0     C41343  10.832   7.885   6.306 -0.5367  0.0668  0.6073
  307MOL0     C41344  10.964   7.863   6.246 -0.1649 -0.2117 -1.0384
  307MOL0     C41345  11.051   7.765   6.306  0.1891 -0.6159  0.1595
  307MOL0     O41346  11.173   7.751   6.234  0.1215 -0.0497 -0.4012
  307MOL0     C41347  11.264   7.645   6.273 -0.1538 -0.0835  0.1337
  307MOL0     C41348  11.371   7.687   6.377  0.6652  0.1262  0.1901
  307MOL0     C41349  11.473   7.574   6.399  0.5164  0.7770  0.1539
  307MOL0     C41350  11.579   7.607   6.504 -0.0343 -0.2116  0.1962
  307MOL0     C41351  11.708   7.534   6.478  0.5727 -0.5590  0.4270
  307MOL0     C41352  11.787   7.550   6.606 -0.5643 -0.9667 -0.5611
  307MOL0     C41353  11.923   7.491   6.577 -0.3032 -0.2991  0.0783
  307MOL0     C41354  12.019   7.459   6.693 -0.1735 -0.2837 -0.1859
  307MOL0    Cl41355  11.969   7.564   6.833  0.0858  0.3734 -0.2899
  307MOL0     C41356  11.003   7.689   6.417 -0.2532  0.5032 -0.3388
  307MOL0     C41357  10.871   7.710   6.459 -0.7322  0.3034 -0.8462
  307MOL0     O41358  10.561   7.813   6.252  0.0535  0.2631  0.3479
  307MOL0     C41359  10.364   7.727   6.508 -0.5693 -0.2229  0.2100
  307MOL0     C41360  10.245   7.729   6.583  0.4625 -0.8918  0.6703
  307MOL0     N41361   9.627   8.031   6.230 -0.1432 -0.3946  0.6222
  307MOL0     N41362   9.647   8.122   6.141  0.2803  0.2049 -0.3347
  307MOL0     C41363  10.569   8.482   6.777  0.6891 -0.0744  0.1750
  307MOL0     C41364  10.650   8.463   6.887  0.4365  0.5140  0.7362
  307MOL0     C41365  10.854   8.291   7.242  0.0550  0.6814 -0.0002
  307MOL0     C41366  10.841   8.331   7.376 -0.5337  0.4511  0.0665
  307MOL0     C41367  10.922   8.278   7.473  0.0642  0.5849 -0.7925
  307MOL0     C41368  11.018   8.182   7.441  0.3093  0.7103  0.0604
  307MOL0     O41369  11.094   8.132   7.543 -0.2742 -0.3592 -0.0608
  307MOL0     C41370  11.205   8.036   7.524  0.1516 -0.5483 -0.1993
  307MOL0     C41371  11.327   8.113   7.490 -0.3677  0.0523 -0.2983
  307MOL0     C41372  11.371   8.218   7.596 -0.0345  0.4719  0.4558
  307MOL0     C41373  11.471   8.309   7.537  0.2259 -0.6297 -0.2826
  307MOL0     C41374  11.597   8.240   7.505 -0.0784  0.0545 -0.3178
  307MOL0     C41375  11.705   8.182   7.503  0.1113 -0.6378 -0.5318
  307MOL0     C41376  11.032   8.132   7.306  0.6172  0.7136 -0.0221
  307MOL0     C41377  10.946   8.185   7.207 -0.2615  0.0887 -0.0975
  307MOL0     H41378  10.692   8.129   6.848 -1.2864  0.0458  2.5216
  307MOL0     H41379  10.560   8.188   6.624 -1.9372  2.1224 -1.8203
  307MOL0     H41380  10.274   8.383   6.655  0.2718 -0.6304 -0.9561
  307MOL0     H41381  10.341   8.549   6.628  1.8315 -0.3797 -0.2238
  307MOL0     H41382  10.287   8.544   6.397 -0.4690  3.3736  2.4075
  307MOL0     H41383  10.268   8.367   6.393  1.3972  0.1497 -0.1932
  307MOL0     H41384  10.067   8.384   6.548 -0.1415 -1.0241 -0.5105
  307MOL0     H41385  10.084   8.564   6.540 -0.6777  0.3393  1.3646
  307MOL0     H41386   9.911   8.460   6.407  0.8647 -0.0339  1.9670
  307MOL0     H41387  10.016   8.575   6.330  1.5685 -0.5036  0.1792
  307MOL0     H41388  10.130   8.373   6.223 -0.9505  0.2403 -0.4672
  307MOL0     H41389  10.035   8.258   6.309  1.7523 -1.1167 -1.2916
  307MOL0     H41390   9.813   8.335   6.218 -0.8835  1.1617 -1.2937
  307MOL0     H41391   9.888   8.462   6.133  0.8210  0.5135  0.7858
  307MOL0     H41392   9.985   8.340   5.965 -2.1444  0.5741 -0.6025
  307MOL0     H41393  10.029   8.199   6.057 -0.3530 -0.0622  1.4763
  307MOL0     H41394   9.874   8.151   5.900  1.4937 -0.8177  1.0028
  307MOL0     H41395   9.768   8.283   5.968  0.7579  1.8833  3.9450
  307MOL0     H41396   9.938   7.973   6.144  0.1938  3.0138 -1.6150
  307MOL0     H41397   9.644   7.799   6.346  0.1367 -1.4078 -0.6140
  307MOL0     H41398   9.794   7.748   6.271  2.0339  0.8918  1.1683
  307MOL0     H41399   9.753   7.903   6.539  0.7814  1.5320  0.3627
  307MOL0     H41400   9.905   7.940   6.446  0.4925 -0.7710 -2.5593
  307MOL0     H41401   9.955   7.702   6.442 -1.1689 -3.4104  1.9561
  307MOL0     H41402   9.801   7.668   6.522  1.2779 -2.0948 -1.6975
  307MOL0     H41403  10.012   7.658   6.668 -0.1229 -1.5416 -4.2169
  307MOL0     H41404   9.891   7.779   6.727  0.6026  0.2758 -0.9782
  307MOL0     H41405  10.164   8.047   6.507  0.7279  0.2605 -1.2708
  307MOL0     H41406  10.333   8.061   6.248 -0.9633  1.9803  0.5997
  307MOL0     H41407  10.367   8.167   6.387 -0.1947 -0.0831  0.7204
  307MOL0     H41408  10.493   8.066   6.328 -0.0508  1.2998  0.6803
  307MOL0     H41409  10.776   7.972   6.273  2.9932  1.6750 -1.7267
  307MOL0     H41410  11.010   7.935   6.179  3.1433 -0.0233  1.2317
  307MOL0     H41411  11.217   7.555   6.315  2.4653 -0.6323  2.1323
  307MOL0     H41412  11.321   7.620   6.184  2.6780  0.0910  1.7783
  307MOL0     H41413  11.414   7.778   6.334 -1.0101  0.5971 -0.5598
  307MOL0     H41414  11.328   7.704   6.477 -2.1908  0.1830 -0.9415
  307MOL0     H41415  11.529   7.570   6.305 -0.2587  0.4300 -0.3048
  307MOL0     H41416  11.419   7.484   6.428 -2.0055  2.7361  2.0218
  307MOL0     H41417  11.609   7.711   6.486 -0.4199 -0.5133 -2.6233
  307MOL0     H41418  11.535   7.592   6.603 -4.0876 -0.5276 -1.4700
  307MOL0     H41419  11.766   7.578   6.396  0.1472  1.5134  1.1647
  307MOL0     H41420  11.682   7.429   6.467 -1.4446 -0.2164  1.5245
  307MOL0     H41421  11.802   7.657   6.623  2.9713 -1.1610 -1.7984
  307MOL0     H41422  11.752   7.494   6.693  2.1231  0.2616  1.4293
  307MOL0     H41423  11.986   7.555   6.515  0.0806  0.3703  1.1328
  307MOL0     H41424  11.902   7.397   6.526  0.8816  0.7419 -2.5344
  307MOL0     H41425  12.125   7.472   6.673  0.1572 -3.4643 -1.0142
  307MOL0     H41426  12.000   7.354   6.719  2.2325 -0.7658 -0.1995
  307MOL0     H41427  11.066   7.607   6.451 -1.5104  0.0496  1.0512
  307MOL0     H41428  10.832   7.640   6.532  1.0388 -0.6993 -0.8011
  307MOL0     H41429  10.425   7.639   6.526 -0.9322  0.0002  2.9418
  307MOL0     H41430  10.212   7.658   6.658 -2.1072 -0.3871  0.0928
  307MOL0     H41431  10.529   8.580   6.753  1.1367 -0.0414 -0.4557
  307MOL0     H41432  10.683   8.542   6.955  1.8285  0.6273 -0.0347
  307MOL0     H41433  10.771   8.405   7.415  1.5068  2.6662 -0.2355
  307MOL0     H41434  10.921   8.304   7.578  0.5775  0.6291 -0.7959
  307MOL0     H41435  11.222   7.982   7.618 -0.9304  2.6596  2.0525
  307MOL0     H41436  11.185   7.962   7.446  1.8581 -1.6179  0.3000
  307MOL0     H41437  11.317   8.158   7.391 -1.2103  1.0101  0.1946
  307MOL0     H41438  11.402   8.034   7.491  0.7408  1.0520 -1.1733
  307MOL0     H41439  11.382   8.169   7.693 -0.6389 -1.7127 -0.5203
  307MOL0     H41440  11.288   8.288   7.613  0.3442  0.9288  0.4464
  307MOL0     H41441  11.505   8.392   7.599  2.3399  1.2972 -3.7089
  307MOL0     H41442  11.433   8.359   7.447  1.1405 -1.8319 -1.3698
  307MOL0     H41443  11.795   8.124   7.503  0.5481 -0.0118 -1.7564
  307MOL0     H41444  11.110   8.063   7.276  2.8031  1.9776  2.3337
  307MOL0     H41445  10.953   8.149   7.105 -1.3004 -0.0978 -0.1187
  308MOL0     O41446   6.792   0.447   8.645 -0.7391 -0.2420  0.5613
  308MOL0     C41447   6.786   0.553   8.576  0.5909  0.4599 -0.2266
  308MOL0     O41448   6.667   0.613   8.533  0.2602  0.2236 -0.3751
  308MOL0     C41449   6.558   0.576   8.603  0.0756  0.4137 -0.4299
  308MOL0     C41450   6.543   0.621   8.736  0.5401 -0.9508 -0.6682
  308MOL0     C41451   6.440   0.586   8.817  0.1171 -0.2149  0.7189
  308MOL0     C41452   6.332   0.513   8.760 -0.6442  1.0245  0.0432
  308MOL0     O41453   6.221   0.478   8.828  0.5345  0.0290 -0.5420
  308MOL0     C41454   6.184   0.543   8.958  0.1362 -0.0291  0.6846
  308MOL0     C41455   6.033   0.511   8.985 -0.0413 -0.1020  0.1794
  308MOL0     C41456   5.935   0.583   8.880 -1.4712  0.6307 -0.0247
  308MOL0     C41457   5.786   0.563   8.923  0.7920  0.3227 -0.2895
  308MOL0     C41458   5.669   0.589   8.826 -0.0046  0.3631  0.9469
  308MOL0     C41459   5.712   0.707   8.743  0.3036  0.4423  0.4870
  308MOL0     C41460   5.594   0.751   8.653 -0.0226 -0.6114  0.3410
  308MOL0     C41461   5.622   0.885   8.585  0.1799 -0.2313 -0.2840
  308MOL0     N41462   5.501   0.946   8.521  0.2995 -0.1086 -0.1136
  308MOL0     C41463   5.446   0.894   8.402  0.3276 -0.1648  0.9282
  308MOL0     C41464   5.341   0.976   8.375 -0.2870 -0.3627  0.3302
  308MOL0     C41465   5.257   0.989   8.246  0.0564  0.3101 -0.6908
  308MOL0     C41466   5.109   0.962   8.273 -0.2132 -0.2183 -0.0800
  308MOL0     C41467   5.017   0.986   8.157  0.3571 -0.5126  0.1683
  308MOL0     C41468   4.869   1.012   8.190  0.5020 -0.1833 -0.1245
  308MOL0     O41469   4.812   0.887   8.240 -0.4384  0.0656 -0.1699
  308MOL0     C41470   4.677   0.871   8.238 -0.6969  0.5377  0.2073
  308MOL0     C41471   4.579   0.967   8.216  0.2714 -0.1767  0.5103
  308MOL0     C41472   4.445   0.915   8.214  0.0891 -0.7817  0.7757
  308MOL0     C41473   4.338   1.028   8.191 -0.2213  0.9225 -0.6588
  308MOL0     C41474   4.409   0.782   8.232 -0.3364 -0.7372 -0.3749
  308MOL0     C41475   4.267   0.737   8.242  1.2622 -0.2564 -0.1872
  308MOL0     O41476   4.166   0.797   8.168 -0.9691 -0.1372 -0.0437
  308MOL0     C41477   4.041   0.747   8.180  0.1092 -0.1866  0.1383
  308MOL0     C41478   3.949   0.832   8.246 -0.4456 -0.1427  0.1832
  308MOL0     C41479   3.817   0.797   8.250  0.5378  0.5782  0.0782
  308MOL0     C41480   3.758   0.671   8.200 -0.1368 -0.7325  0.3391
  308MOL0     O41481   3.618   0.653   8.195  0.0616 -0.5663 -0.0316
  308MOL0     C41482   3.542   0.689   8.308  1.1996 -0.1751  0.1690
  308MOL0     C41483   3.392   0.647   8.299 -0.3127  0.1042  0.3498
  308MOL0     C41484   3.311   0.706   8.418 -0.3005 -1.3520  0.1116
  308MOL0     C41485   3.166   0.667   8.388  0.1677 -0.6328 -0.2027
  308MOL0     C41486   3.090   0.761   8.487 -0.3160 -0.6067 -0.0923
  308MOL0     C41487   2.943   0.724   8.497 -0.7980 -0.6126 -0.2915
  308MOL0     C41488   2.852   0.825   8.581  0.5280  0.3768  0.4554
  308MOL0     C41489   2.852   0.960   8.524  0.6522 -0.8774  0.4561
  308MOL0    Cl41490   2.998   1.061   8.555 -0.0644 -0.1126  0.3333
  308MOL0     C41491   3.857   0.590   8.141  0.7484  0.1122  0.2161
  308MOL0     C41492   3.990   0.628   8.130  0.6451 -0.3542  0.8562
  308MOL0     O41493   4.248   0.645   8.314 -0.2439  0.8295 -0.4411
  308MOL0     C41494   4.513   0.696   8.263  0.7514  0.7391  0.5379
  308MOL0     C41495   4.645   0.736   8.261  0.5022  0.9156 -1.5264
  308MOL0     N41496   5.329   1.060   8.481 -0.3155  0.4088  0.4279
  308MOL0     N41497   5.423   1.048   8.565 -1.0461  0.1997  0.7188
  308MOL0     C41498   6.341   0.456   8.630 -1.0886 -0.7233  0.1826
  308MOL0     C41499   6.450   0.492   8.548 -0.2959  0.1332 -0.9200
  308MOL0     C41500   6.914   0.631   8.529  0.9742  0.3994  0.2756
  308MOL0     C41501   6.902   0.744   8.447 -0.3190 -0.8963  0.7574
  308MOL0     C41502   7.004   0.835   8.426 -0.1656  0.6237  1.2907
  308MOL0     C41503   7.134   0.811   8.478 -0.3732 -0.5496  0.1360
  308MOL0     O41504   7.230   0.907   8.449  0.0039  0.3226  0.0348
  308MOL0     C41505   7.350   0.889   8.519 -0.6440 -0.2560  0.0220
  308MOL0     C41506   7.451   0.818   8.438 -0.7765 -0.0012 -0.2675
  308MOL0     C41507   7.584   0.841   8.506 -0.4660  0.3292  0.6983
  308MOL0     C41508   7.703   0.766   8.442 -0.7561 -0.0207 -0.3874
  308MOL0     C41509   7.817   0.806   8.528  0.4384  0.2089  0.2093
  308MOL0     C41510   7.903   0.858   8.599 -0.2150  0.0299  0.8379
  308MOL0     C41511   7.146   0.691   8.551  0.5672 -0.2378  0.3558
  308MOL0     C41512   7.042   0.609   8.586  0.8066  0.2902 -0.0395
  308MOL0     H41513   6.625   0.682   8.774  0.4956  0.9496 -3.2932
  308MOL0     H41514   6.453   0.616   8.920 -1.1318  0.9758  0.5566
  308MOL0     H41515   6.238   0.507   9.047  0.0128 -2.1258 -0.0282
  308MOL0     H41516   6.183   0.651   8.939 -2.5323 -0.0758  0.1524
  308MOL0     H41517   6.018   0.403   8.982 -0.6520 -0.0138 -0.1957
  308MOL0     H41518   5.990   0.541   9.080 -1.2848  0.4222 -0.5340
  308MOL0     H41519   5.962   0.689   8.878  1.7197 -0.0800 -0.4983
  308MOL0     H41520   5.964   0.543   8.782 -1.4832  3.9006 -1.5141
  308MOL0     H41521   5.782   0.459   8.956 -0.9628 -0.0059 -1.3909
  308MOL0     H41522   5.768   0.622   9.013  0.6162 -2.1986  1.4089
  308MOL0     H41523   5.656   0.498   8.766 -3.3237  0.7888  0.8428
  308MOL0     H41524   5.574   0.601   8.878 -1.4836 -1.0316 -1.2528
  308MOL0     H41525   5.723   0.790   8.813  0.5012 -0.6704  1.8140
  308MOL0     H41526   5.806   0.693   8.687  0.2803  2.6377 -0.2130
  308MOL0     H41527   5.583   0.679   8.571  0.5156 -1.0653  0.6599
  308MOL0     H41528   5.504   0.754   8.715 -0.3557 -1.6806 -0.0602
  308MOL0     H41529   5.700   0.874   8.510  0.3231  2.2104 -0.5977
  308MOL0     H41530   5.656   0.944   8.670 -2.2575  1.0243 -0.0865
  308MOL0     H41531   5.497   0.822   8.340  2.6000  2.7648 -0.8757
  308MOL0     H41532   5.273   1.088   8.203  2.2358 -0.8434 -2.8339
  308MOL0     H41533   5.296   0.916   8.173 -1.2327 -0.3334 -0.7585
  308MOL0     H41534   5.071   1.033   8.347  3.6460  0.7486  1.2185
  308MOL0     H41535   5.091   0.861   8.311 -0.3303 -0.3441 -0.4647
  308MOL0     H41536   5.025   0.898   8.092 -0.8517 -0.8519  0.4680
  308MOL0     H41537   5.058   1.075   8.106 -2.7466  1.5226  0.9779
  308MOL0     H41538   4.813   1.059   8.108  0.3991  1.1959  0.7099
  308MOL0     H41539   4.859   1.081   8.274 -0.1669  2.8620 -2.4947
  308MOL0     H41540   4.595   1.074   8.213 -0.5502  0.0718  2.9566
  308MOL0     H41541   4.381   1.125   8.163  1.9284  0.9320  2.2344
  308MOL0     H41542   4.267   0.998   8.113  0.0280  0.9538 -0.8988
  308MOL0     H41543   4.279   1.034   8.282  0.5113  0.0818 -0.1078
  308MOL0     H41544   3.986   0.921   8.295 -0.7379  0.5520 -0.8278
  308MOL0     H41545   3.747   0.872   8.285 -0.0734 -0.2488  0.6732
  308MOL0     H41546   3.585   0.644   8.397 -3.3748 -0.1476  2.7223
  308MOL0     H41547   3.542   0.798   8.320 -0.0203  0.0801 -1.7181
  308MOL0     H41548   3.349   0.684   8.206  0.0206  0.3269  0.2821
  308MOL0     H41549   3.396   0.537   8.300  0.0846  0.1163  1.5073
  308MOL0     H41550   3.319   0.814   8.434 -1.2387 -1.0914 -1.0260
  308MOL0     H41551   3.351   0.670   8.513 -1.7909 -1.6699  0.6444
  308MOL0     H41552   3.138   0.685   8.283  0.3062 -2.8683 -0.6734
  308MOL0     H41553   3.142   0.562   8.407 -1.7782 -0.0385  0.9637
  308MOL0     H41554   3.110   0.861   8.449  3.1342 -0.6134  1.3360
  308MOL0     H41555   3.142   0.761   8.584  0.3302  2.5014 -0.3325
  308MOL0     H41556   2.901   0.728   8.397 -0.9918  0.8778 -0.1623
  308MOL0     H41557   2.929   0.623   8.538  2.0736 -0.6384  0.8680
  308MOL0     H41558   2.873   0.826   8.688 -0.5477 -2.5645  0.8005
  308MOL0     H41559   2.748   0.791   8.578  0.1328  1.5401  0.5176
  308MOL0     H41560   2.763   1.012   8.561  0.6949  1.2693 -2.2019
  308MOL0     H41561   2.843   0.965   8.416  1.3919  4.8508  0.3980
  308MOL0     H41562   3.834   0.488   8.111  0.8569 -0.0968  0.8287
  308MOL0     H41563   4.063   0.568   8.077  1.4162  0.3912  1.0576
  308MOL0     H41564   4.496   0.589   8.263 -1.1974  1.0125  1.5863
  308MOL0     H41565   4.719   0.663   8.288 -2.3466 -0.5106  3.6250
  308MOL0     H41566   6.261   0.399   8.584 -1.4691 -1.7680  2.0406
  308MOL0     H41567   6.465   0.464   8.444 -0.6341  2.3229 -1.6038
  308MOL0     H41568   6.811   0.764   8.391  0.7964  0.5417 -0.6420
  308MOL0     H41569   6.988   0.914   8.354  0.8258 -1.7601 -1.7798
  308MOL0     H41570   7.379   0.992   8.544 -3.7042  1.2810 -2.2147
  308MOL0     H41571   7.339   0.839   8.616 -1.5026  0.7365  0.4541
  308MOL0     H41572   7.462   0.864   8.339 -0.0494  3.3431  1.2326
  308MOL0     H41573   7.429   0.711   8.440  0.1635 -0.2228 -1.0027
  308MOL0     H41574   7.576   0.824   8.613 -1.0641  1.3710  0.8385
  308MOL0     H41575   7.592   0.950   8.502 -1.9154  0.4275 -0.8398
  308MOL0     H41576   7.717   0.802   8.340  1.8004 -0.4892 -0.2926
  308MOL0     H41577   7.689   0.658   8.446 -1.0250  0.0335  0.4152
  308MOL0     H41578   7.972   0.903   8.667  1.1501 -1.9962  0.8837
  308MOL0     H41579   7.246   0.664   8.583  0.1497 -5.2768 -1.6255
  308MOL0     H41580   7.049   0.531   8.661 -1.2223  1.0189  1.0034
  309MOL0     O41581  11.029   1.507   1.183 -0.0283  0.2016  0.2856
  309MOL0     C41582  11.038   1.612   1.121 -0.2902  0.0955 -0.5558
  309MOL0     O41583  10.938   1.706   1.112  0.1403 -0.8334  0.0088
  309MOL0     C41584  10.808   1.684   1.148 -0.3541  0.3939 -0.5093
  309MOL0     C41585  10.737   1.562   1.132  0.2478 -0.4721 -0.1731
  309MOL0     C41586  10.601   1.564   1.170  0.0865 -0.1333  0.4163
  309MOL0     C41587  10.533   1.672   1.222  0.6328  0.2298 -0.2367
  309MOL0     O41588  10.399   1.668   1.249  0.4912 -0.0481  0.2667
  309MOL0     C41589  10.317   1.552   1.212 -0.7929  0.3662 -0.0298
  309MOL0     C41590  10.181   1.585   1.253 -0.4358  0.2512  0.2980
  309MOL0     C41591  10.074   1.513   1.175 -0.0705 -0.3194 -0.0480
  309MOL0     C41592   9.940   1.542   1.243  0.6386  0.6665 -0.4366
  309MOL0     C41593   9.820   1.484   1.164  0.4702 -0.8467 -0.6834
  309MOL0     C41594   9.714   1.477   1.267  1.1072 -0.0181 -0.4648
  309MOL0     C41595   9.612   1.381   1.217  1.1911 -0.6773 -0.0116
  309MOL0     C41596   9.508   1.346   1.313  0.7354  0.4211  0.4794
  309MOL0     N41597   9.406   1.452   1.326 -0.9932  0.4231 -0.3770
  309MOL0     C41598   9.272   1.425   1.343 -1.0382  0.1457 -0.1143
  309MOL0     C41599   9.220   1.543   1.365  0.9038 -0.4593 -0.0352
  309MOL0     C41600   9.078   1.566   1.394  0.3785 -0.3208 -0.1095
  309MOL0     C41601   9.009   1.577   1.253  0.3228 -0.7668  0.4053
  309MOL0     C41602   8.873   1.659   1.264 -0.3371  0.3464  0.1242
  309MOL0     C41603   8.764   1.590   1.344  0.0016 -0.9950  0.8503
  309MOL0     O41604   8.652   1.679   1.351 -0.2053 -0.2696 -0.7094
  309MOL0     C41605   8.533   1.623   1.393 -0.4123 -0.2629  0.5999
  309MOL0     C41606   8.418   1.698   1.383 -0.5550  0.3592 -0.7062
  309MOL0     C41607   8.293   1.659   1.426  1.0664 -0.8507  0.6279
  309MOL0     C41608   8.178   1.750   1.386  0.3595  1.2006  0.6617
  309MOL0     C41609   8.286   1.540   1.497 -0.4331 -0.0728  0.8428
  309MOL0     C41610   8.167   1.501   1.576  0.6721  0.3621 -0.1462
  309MOL0     O41611   8.060   1.580   1.589 -0.1580  0.1181  0.0253
  309MOL0     C41612   7.968   1.585   1.682  0.4157 -0.0984  0.4027
  309MOL0     C41613   7.860   1.665   1.658  0.4149 -1.0095  0.2136
  309MOL0     C41614   7.737   1.658   1.727 -0.1558 -0.6583  0.1446
  309MOL0     C41615   7.729   1.571   1.835  0.1447  0.3236  0.3088
  309MOL0     O41616   7.623   1.555   1.922  0.0799  0.7420  0.6324
  309MOL0     C41617   7.503   1.633   1.876 -0.9168 -0.3252 -0.4034
  309MOL0     C41618   7.386   1.590   1.955 -0.4821 -0.0857 -0.2166
  309MOL0     C41619   7.264   1.668   1.932 -0.5010 -0.0383 -0.2735
  309MOL0     C41620   7.150   1.604   2.009 -0.0387 -0.4246  0.0125
  309MOL0     C41621   7.018   1.677   1.979  0.0478 -0.4165  0.6214
  309MOL0     C41622   7.012   1.808   2.062  0.0655 -0.4316 -0.7219
  309MOL0     C41623   6.910   1.915   2.031  0.1896  0.1285 -0.0538
  309MOL0     C41624   6.767   1.867   2.049 -0.5482 -0.0392  0.3537
  309MOL0    Cl41625   6.649   1.992   2.041  0.1590 -0.1100 -0.1972
  309MOL0     C41626   7.840   1.490   1.873 -0.3083  0.1427  0.0418
  309MOL0     C41627   7.963   1.491   1.794 -0.1715 -0.3791 -0.0531
  309MOL0     O41628   8.176   1.390   1.633 -0.1473  0.8065 -0.2159
  309MOL0     C41629   8.401   1.460   1.510 -0.3639  0.1707  0.5172
  309MOL0     C41630   8.523   1.497   1.451  0.4239  0.0664 -0.2277
  309MOL0     N41631   9.323   1.637   1.370 -0.0097  0.6889  0.3067
  309MOL0     N41632   9.435   1.580   1.332  0.7101  0.3479  0.5397
  309MOL0     C41633  10.607   1.785   1.253 -0.1009 -0.7447 -0.1111
  309MOL0     C41634  10.750   1.793   1.222 -0.3006  0.7863  0.0254
  309MOL0     C41635  11.172   1.655   1.073 -0.5721  0.8632  0.3074
  309MOL0     C41636  11.192   1.767   0.991  0.6673 -0.1188 -0.8885
  309MOL0     C41637  11.319   1.810   0.957 -0.8505 -0.6572 -0.1395
  309MOL0     C41638  11.438   1.746   0.989  0.4188 -0.2490  0.6814
  309MOL0     O41639  11.556   1.793   0.958 -0.4197  0.1982  0.0428
  309MOL0     C41640  11.580   1.927   0.900 -0.3712  0.0662  0.7029
  309MOL0     C41641  11.713   1.947   0.840 -0.1438  0.9402  0.1138
  309MOL0     C41642  11.834   1.936   0.938  0.8785 -0.6081  0.6729
  309MOL0     C41643  11.891   2.065   1.002  0.3410  0.1357  0.4394
  309MOL0     C41644  11.929   2.168   0.898 -0.2562  0.3916  0.1431
  309MOL0     C41645  11.985   2.247   0.835  0.6453 -0.4984 -0.6868
  309MOL0     C41646  11.420   1.631   1.073 -0.1274 -0.1549  0.1820
  309MOL0     C41647  11.292   1.587   1.113  0.8532 -0.4359  0.0832
  309MOL0     H41648  10.778   1.481   1.073 -0.6730 -0.7723 -0.4232
  309MOL0     H41649  10.554   1.469   1.151 -1.7923  0.9500 -0.5689
  309MOL0     H41650  10.320   1.511   1.110 -0.4824 -2.0328  0.8801
  309MOL0     H41651  10.360   1.475   1.277  1.1964  2.2547  1.0385
  309MOL0     H41652  10.178   1.564   1.360  0.2720 -1.1846  0.0716
  309MOL0     H41653  10.166   1.692   1.236  4.1898  1.0479 -0.0528
  309MOL0     H41654  10.073   1.555   1.074  0.0390  0.7805  0.3969
  309MOL0     H41655  10.087   1.404   1.174 -1.5745 -0.5384  0.8575
  309MOL0     H41656   9.947   1.492   1.340 -2.3468  0.9688  0.0280
  309MOL0     H41657   9.933   1.651   1.239 -2.0405  0.5592 -0.3169
  309MOL0     H41658   9.786   1.541   1.077 -0.1672 -0.9591 -0.5101
  309MOL0     H41659   9.845   1.380   1.138 -0.0908 -1.3828  0.8035
  309MOL0     H41660   9.740   1.446   1.369 -0.3195  1.6050  0.4325
  309MOL0     H41661   9.668   1.575   1.278  0.9772  0.1537 -2.3195
  309MOL0     H41662   9.561   1.422   1.129 -0.1182 -0.2187  0.9315
  309MOL0     H41663   9.660   1.286   1.192 -1.5136 -2.5334  1.3620
  309MOL0     H41664   9.561   1.320   1.405  1.1606 -0.8353 -0.0818
  309MOL0     H41665   9.440   1.264   1.289 -2.2353  2.7133  0.6186
  309MOL0     H41666   9.212   1.335   1.340  0.9895 -1.2949  0.2894
  309MOL0     H41667   9.053   1.484   1.461  1.1057 -1.7101 -1.4641
  309MOL0     H41668   9.078   1.662   1.446  0.5298 -0.3628 -0.0304
  309MOL0     H41669   8.987   1.472   1.235 -0.5602 -0.7084  1.0993
  309MOL0     H41670   9.074   1.624   1.179  0.0345 -1.3889 -0.2534
  309MOL0     H41671   8.837   1.655   1.160 -1.5112 -1.4236  0.5587
  309MOL0     H41672   8.886   1.766   1.283 -3.1836  1.6383 -3.8331
  309MOL0     H41673   8.793   1.573   1.448  2.1307  1.5145  0.7707
  309MOL0     H41674   8.740   1.493   1.300  3.3715 -0.8896 -1.6885
  309MOL0     H41675   8.426   1.797   1.340  1.6322  2.3437  3.5781
  309MOL0     H41676   8.217   1.812   1.305  1.5556  0.5056  0.6747
  309MOL0     H41677   8.090   1.693   1.356  0.7822  1.5340 -1.3794
  309MOL0     H41678   8.146   1.818   1.466  1.2123  1.6086  0.6729
  309MOL0     H41679   7.858   1.713   1.561 -0.6270  0.0191  0.7173
  309MOL0     H41680   7.653   1.719   1.694 -1.0990 -1.1505  1.5177
  309MOL0     H41681   7.528   1.738   1.893  2.9037 -1.3905  1.9998
  309MOL0     H41682   7.500   1.629   1.767  5.4470  0.5829 -0.9898
  309MOL0     H41683   7.369   1.485   1.929  0.8578 -0.7316  1.3230
  309MOL0     H41684   7.400   1.595   2.063 -1.4853  1.0644 -0.1050
  309MOL0     H41685   7.242   1.654   1.826  2.4889  0.1372 -1.0283
  309MOL0     H41686   7.283   1.773   1.956  2.8379 -0.9419  1.7825
  309MOL0     H41687   7.151   1.498   1.980  5.3877 -1.0064  1.1324
  309MOL0     H41688   7.164   1.586   2.116 -3.4973 -2.7543  0.2272
  309MOL0     H41689   6.934   1.607   1.993 -1.8929  1.4849 -0.8307
  309MOL0     H41690   7.010   1.696   1.872  3.4128  0.6896  0.4621
  309MOL0     H41691   7.004   1.777   2.166  3.3960  1.9731  0.4030
  309MOL0     H41692   7.105   1.864   2.065 -2.2351  3.8528 -1.3974
  309MOL0     H41693   6.938   1.954   1.932 -0.3590 -0.3959 -0.4269
  309MOL0     H41694   6.922   1.996   2.103  2.1472  0.6083 -0.8417
  309MOL0     H41695   6.761   1.817   2.146  2.0050  2.0177  1.6759
  309MOL0     H41696   6.739   1.803   1.964 -1.0123  2.0601 -1.1398
  309MOL0     H41697   7.815   1.420   1.952 -3.1513 -3.1070 -3.3528
  309MOL0     H41698   8.045   1.426   1.823 -1.5261 -2.5498 -0.8268
  309MOL0     H41699   8.390   1.367   1.566 -2.1444 -0.6392 -1.0215
  309MOL0     H41700   8.608   1.432   1.472 -2.0249 -3.0452  0.8418
  309MOL0     H41701  10.549   1.870   1.287  5.2549  2.3127  2.7282
  309MOL0     H41702  10.806   1.882   1.251 -0.5689 -0.0464  3.4796
  309MOL0     H41703  11.109   1.832   0.968  0.6764  0.7639  1.2921
  309MOL0     H41704  11.328   1.906   0.907  2.2737 -0.8664 -0.1594
  309MOL0     H41705  11.515   1.947   0.814  0.1221 -1.3555 -0.0325
  309MOL0     H41706  11.548   2.004   0.971  0.9811  0.2944  1.0966
  309MOL0     H41707  11.705   2.043   0.787 -1.6625  0.8208  0.0889
  309MOL0     H41708  11.729   1.864   0.770  1.1781  1.0641  0.2383
  309MOL0     H41709  11.914   1.900   0.872  1.0453 -0.5376  0.8370
  309MOL0     H41710  11.820   1.853   1.007  1.8441 -2.8793 -1.6725
  309MOL0     H41711  11.977   2.043   1.065  1.2723  2.8485  0.2696
  309MOL0     H41712  11.824   2.121   1.068 -1.0200  1.0694 -1.6323
  309MOL0     H41713  12.044   2.316   0.778  1.9696  2.1796  3.4940
  309MOL0     H41714  11.511   1.587   1.111  0.9027  1.8163  0.1502
  309MOL0     H41715  11.289   1.499   1.177 -1.0575  0.2009  0.9562
  310MOL0     O41716  10.036  10.604   3.889 -0.3010 -0.0799 -0.3999
  310MOL0     C41717  10.116  10.517   3.922 -0.5065  0.8981  0.0419
  310MOL0     O41718  10.098  10.384   3.930 -0.8343  0.1291  0.3555
  310MOL0     C41719   9.975  10.331   3.912  0.5805 -0.0063 -0.6295
  310MOL0     C41720   9.971  10.202   3.865  0.7009 -0.3161  0.0084
  310MOL0     C41721   9.847  10.136   3.854 -1.4126 -0.1837 -0.5880
  310MOL0     C41722   9.726  10.202   3.879  0.7579  1.1165  1.2477
  310MOL0     O41723   9.625  10.110   3.875 -0.0064 -0.0651  0.7959
  310MOL0     C41724   9.498  10.131   3.931  0.3143  0.7570 -0.1161
  310MOL0     C41725   9.434   9.996   3.934  0.2033  0.5512 -0.0594
  310MOL0     C41726   9.284  10.011   3.973  0.0177 -0.6550  0.5108
  310MOL0     C41727   9.199   9.881   3.986 -0.1703 -0.2486  0.1313
  310MOL0     C41728   9.070   9.915   4.044  0.3391 -0.0098 -0.9592
  310MOL0     C41729   8.968   9.804   4.032  0.4001 -0.4667  0.5993
  310MOL0     C41730   8.832   9.817   4.100 -0.4647 -0.8794 -0.2558
  310MOL0     C41731   8.755   9.945   4.036  0.6419  0.2852 -0.6812
  310MOL0     N41732   8.647   9.993   4.121 -0.1191  0.1670  0.1793
  310MOL0     C41733   8.518   9.956   4.097 -0.1978 -0.6282 -0.0504
  310MOL0     C41734   8.443  10.011   4.200  0.2233 -0.5195  0.7889
  310MOL0     C41735   8.295   9.997   4.211  0.2385 -0.0037 -0.1451
  310MOL0     C41736   8.247   9.866   4.256  0.5474  0.4331  0.2916
  310MOL0     C41737   8.322   9.802   4.376  0.5389 -0.3955  0.4913
  310MOL0     C41738   8.297   9.895   4.498  0.4913 -0.3334  0.4356
  310MOL0     O41739   8.327   9.823   4.620 -0.6248  0.3657 -0.1057
  310MOL0     C41740   8.453   9.819   4.665 -0.6147 -0.2961 -0.8625
  310MOL0     C41741   8.457   9.762   4.799 -0.9574  0.5041  0.0884
  310MOL0     C41742   8.581   9.751   4.863  0.4450 -1.0398  0.4044
  310MOL0     C41743   8.587   9.677   4.995  0.5284  0.5880  0.2291
  310MOL0     C41744   8.705   9.777   4.803 -0.3020  0.1063 -0.2021
  310MOL0     C41745   8.843   9.736   4.854  0.7348 -0.0113  0.7530
  310MOL0     O41746   8.947   9.766   4.768  0.2849  0.3668 -0.4831
  310MOL0     C41747   9.075   9.772   4.818 -0.1851  0.2309 -0.8166
  310MOL0     C41748   9.181   9.727   4.737 -0.1155  0.0498 -0.1147
  310MOL0     C41749   9.307   9.746   4.776 -0.2760 -0.3800  0.0318
  310MOL0     C41750   9.342   9.825   4.885  0.5960  0.2154  0.9414
  310MOL0     O41751   9.467   9.862   4.915  0.7267 -0.1351  0.0250
  310MOL0     C41752   9.571   9.865   4.815 -0.6060 -0.1937  0.2415
  310MOL0     C41753   9.697   9.927   4.886  0.3359 -0.4691  0.3710
  310MOL0     C41754   9.816   9.933   4.796  0.1683 -0.2727  0.7103
  310MOL0     C41755   9.928  10.021   4.861  0.5867 -0.9503  0.6035
  310MOL0     C41756  10.048  10.020   4.776 -0.7693 -0.2182  0.1061
  310MOL0     C41757  10.164  10.088   4.844  0.1798  0.7031  0.1441
  310MOL0     C41758  10.273  10.104   4.737 -0.5895  0.3368  0.9119
  310MOL0     C41759  10.386  10.190   4.796 -0.2131 -0.7764 -0.9206
  310MOL0    Cl41760  10.482  10.242   4.658 -0.1982 -0.5079 -0.0893
  310MOL0     C41761   9.241   9.869   4.971  1.0478 -0.9391 -0.0023
  310MOL0     C41762   9.112   9.832   4.941  0.3895  0.2079 -1.0054
  310MOL0     O41763   8.858   9.687   4.970  0.1941 -0.2337  0.5359
  310MOL0     C41764   8.707   9.849   4.680  0.0155 -0.4627 -0.5737
  310MOL0     C41765   8.582   9.868   4.618 -0.8139 -0.0513 -0.1877
  310MOL0     N41766   8.528  10.074   4.287 -0.5292  0.0046 -0.3593
  310MOL0     N41767   8.649  10.053   4.244 -0.8901 -0.2085 -1.0248
  310MOL0     C41768   9.726  10.329   3.926 -0.0740 -0.0445 -0.0368
  310MOL0     C41769   9.846  10.393   3.941 -0.7768  0.2303 -0.5962
  310MOL0     C41770  10.262  10.548   3.931  0.1800 -0.1209  0.0309
  310MOL0     C41771  10.350  10.478   4.025  0.4675 -0.5162 -0.6001
  310MOL0     C41772  10.485  10.504   4.026 -0.1817  0.1251 -0.1010
  310MOL0     C41773  10.539  10.596   3.933 -0.7814  0.0253  0.0363
  310MOL0     O41774  10.678  10.601   3.910  0.0507 -0.3466 -0.3643
  310MOL0     C41775  10.769  10.571   4.020 -0.2296 -0.7025 -0.1652
  310MOL0     C41776  10.913  10.614   3.974 -0.2543  0.5904  0.3317
  310MOL0     C41777  10.953  10.758   4.001 -0.7831 -0.8116  0.2997
  310MOL0     C41778  11.109  10.784   4.000 -0.3227  0.2882 -0.4784
  310MOL0     C41779  11.135  10.926   4.024  0.8896 -0.4315 -0.2364
  310MOL0     C41780  11.168  11.043   4.050 -0.8281  0.0042  0.9955
  310MOL0     C41781  10.455  10.674   3.854  0.2720  0.6607  0.6391
  310MOL0     C41782  10.318  10.657   3.855  0.8619  0.4130  0.6092
  310MOL0     H41783  10.056  10.145   3.828 -1.9669 -4.3035 -0.5465
  310MOL0     H41784   9.837  10.034   3.817 -2.7637 -0.6767  1.0013
  310MOL0     H41785   9.522  10.151   4.036  1.2068  0.0151 -0.1651
  310MOL0     H41786   9.444  10.214   3.884  1.1159  1.6034  0.4288
  310MOL0     H41787   9.432   9.954   3.834  1.1342  1.9242 -0.6823
  310MOL0     H41788   9.476   9.926   4.007  1.8790  0.9566 -0.5951
  310MOL0     H41789   9.268  10.073   4.062  2.1747  1.6484 -0.5732
  310MOL0     H41790   9.241  10.077   3.898 -0.5520  0.1680  1.5248
  310MOL0     H41791   9.192   9.838   3.885  0.5988 -1.3012  0.5098
  310MOL0     H41792   9.245   9.806   4.051 -0.7868 -0.4303  0.3684
  310MOL0     H41793   9.077   9.939   4.150 -2.1926 -0.4126 -0.6369
  310MOL0     H41794   9.031  10.006   3.997 -1.8634 -1.3469 -1.9026
  310MOL0     H41795   8.946   9.783   3.927 -3.0818  0.1501  1.0860
  310MOL0     H41796   9.001   9.713   4.083 -2.1714 -1.4674  0.6543
  310MOL0     H41797   8.780   9.723   4.080 -1.5224 -0.2949 -0.3492
  310MOL0     H41798   8.850   9.830   4.207  1.5351 -0.5641 -0.5872
  310MOL0     H41799   8.708   9.931   3.939  0.1368  3.7377 -1.0476
  310MOL0     H41800   8.821  10.027   4.009 -0.4077  0.2084 -3.8510
  310MOL0     H41801   8.489   9.892   4.014  0.7439 -0.4283 -0.5411
  310MOL0     H41802   8.258  10.071   4.283 -0.6332 -0.9413  0.4031
  310MOL0     H41803   8.251  10.021   4.114 -1.3474  0.4304  0.6428
  310MOL0     H41804   8.257   9.788   4.180 -1.0799  1.4906 -1.0846
  310MOL0     H41805   8.139   9.862   4.272  0.6586 -1.0337  0.7474
  310MOL0     H41806   8.429   9.795   4.351  0.6172 -0.5834  0.8644
  310MOL0     H41807   8.283   9.705   4.408  2.2343 -0.6041  2.1484
  310MOL0     H41808   8.191   9.920   4.510  0.9627  1.0021  2.1580
  310MOL0     H41809   8.351   9.990   4.494  0.7168 -0.4355  0.9408
  310MOL0     H41810   8.367   9.728   4.850 -0.5212  2.7918  2.6513
  310MOL0     H41811   8.484   9.661   5.029  1.1892 -0.9188  1.6271
  310MOL0     H41812   8.636   9.581   4.978  2.5581  1.0597  2.7250
  310MOL0     H41813   8.642   9.728   5.075 -1.9368  0.9993  1.7765
  310MOL0     H41814   9.158   9.692   4.637  2.6654 -1.6089 -0.2826
  310MOL0     H41815   9.384   9.709   4.710 -1.5873 -0.7357 -1.3482
  310MOL0     H41816   9.586   9.764   4.775 -2.1827 -0.9207  1.3905
  310MOL0     H41817   9.545   9.918   4.723 -0.7852 -1.3102 -0.3645
  310MOL0     H41818   9.656  10.025   4.908 -2.5494 -1.6596  0.7410
  310MOL0     H41819   9.716   9.869   4.977 -1.0382  0.5558  1.3480
  310MOL0     H41820   9.767   9.982   4.711 -2.0555 -0.8934  1.5685
  310MOL0     H41821   9.847   9.833   4.764  2.9239  1.1289 -1.4401
  310MOL0     H41822   9.905  10.128   4.868  1.8376 -0.7330  1.6271
  310MOL0     H41823   9.936   9.988   4.965 -1.7356 -4.6884 -0.1923
  310MOL0     H41824  10.029  10.069   4.680  1.3643  2.2084  0.8049
  310MOL0     H41825  10.083   9.922   4.743 -0.4744 -1.1903  2.9852
  310MOL0     H41826  10.136  10.179   4.896 -2.4439  1.1286 -1.8216
  310MOL0     H41827  10.205  10.017   4.916 -1.5208 -3.7744 -2.8110
  310MOL0     H41828  10.225  10.164   4.659  0.7523  1.1150  0.6362
  310MOL0     H41829  10.305  10.014   4.685 -3.2679  0.1642 -0.6036
  310MOL0     H41830  10.431  10.114   4.861 -0.5101 -0.6153 -0.5201
  310MOL0     H41831  10.349  10.272   4.859  0.6068 -1.3905  0.4144
  310MOL0     H41832   9.262   9.933   5.056  0.9878  1.1152 -1.4481
  310MOL0     H41833   9.028   9.860   5.003 -0.5962 -2.5221 -0.9557
  310MOL0     H41834   8.795   9.897   4.637  0.3583  1.0914  1.6928
  310MOL0     H41835   8.585   9.934   4.532 -0.1440 -0.6777 -0.6519
  310MOL0     H41836   9.627  10.364   3.955 -0.2102  0.8553 -1.4668
  310MOL0     H41837   9.852  10.494   3.979  4.6964 -0.4786  1.2653
  310MOL0     H41838  10.312  10.403   4.094 -2.1091  0.8320 -0.4496
  310MOL0     H41839  10.557  10.450   4.087  2.4646  1.7302 -1.6310
  310MOL0     H41840  10.746  10.633   4.107 -1.6493 -0.9154 -0.3586
  310MOL0     H41841  10.770  10.465   4.048 -0.3141 -1.4394 -2.7166
  310MOL0     H41842  10.921  10.596   3.866 -1.7066  3.1858 -0.2971
  310MOL0     H41843  10.977  10.541   4.026 -0.9537 -1.3841 -1.4534
  310MOL0     H41844  10.917  10.782   4.101  0.6582  0.2511  0.6023
  310MOL0     H41845  10.904  10.825   3.930  1.8751 -0.6225 -1.5335
  310MOL0     H41846  11.149  10.767   3.900  0.2894  1.7867 -0.5167
  310MOL0     H41847  11.155  10.714   4.071 -1.0466  0.8830  0.6072
  310MOL0     H41848  11.193  11.144   4.075  0.3942 -0.8565  3.5429
  310MOL0     H41849  10.496  10.748   3.785 -2.2503  0.5707 -1.1044
  310MOL0     H41850  10.254  10.711   3.786 -0.2734 -0.5890  0.8311
  311MOL0     O41851   1.875   1.895  10.396  0.0694  0.8497 -0.3167
  311MOL0     C41852   1.900   1.808  10.310  0.1347  0.3246  0.0769
  311MOL0     O41853   1.849   1.686  10.311  0.0801  0.7924  0.2823
  311MOL0     C41854   1.722   1.670  10.366  0.3610  0.3656  0.1875
  311MOL0     C41855   1.610   1.720  10.300  0.0742  1.1878  0.3229
  311MOL0     C41856   1.483   1.708  10.354  0.0409  0.0043 -0.4689
  311MOL0     C41857   1.469   1.631  10.476 -0.1881 -0.0247  0.0696
  311MOL0     O41858   1.348   1.607  10.532 -0.3540  0.5744 -0.2659
  311MOL0     C41859   1.245   1.549  10.453  0.0791  0.1220  0.9202
  311MOL0     C41860   1.110   1.610  10.474  0.0413  0.7108  0.4018
  311MOL0     C41861   1.014   1.542  10.385  0.1085 -0.4739 -0.9295
  311MOL0     C41862   0.875   1.608  10.380  0.5971  0.6704 -0.0665
  311MOL0     C41863   0.764   1.521  10.328 -0.5859 -0.8284  0.0496
  311MOL0     C41864   0.721   1.419  10.436 -0.0945  0.0892  0.1157
  311MOL0     C41865   0.599   1.345  10.392  0.0282 -0.5295  0.7477
  311MOL0     C41866   0.557   1.228  10.476  0.7389  0.0212  0.5734
  311MOL0     N41867   0.619   1.105  10.442 -0.2763  0.5397  0.0152
  311MOL0     C41868   0.745   1.067  10.488 -0.1657 -0.7175  0.2009
  311MOL0     C41869   0.759   0.940  10.435  0.5440  0.1860 -0.0149
  311MOL0     C41870   0.880   0.850  10.470  0.7833  0.2036  0.8535
  311MOL0     C41871   0.888   0.728  10.380 -0.3701 -0.2113 -0.3624
  311MOL0     C41872   1.001   0.633  10.419 -0.0886  0.5709  0.1115
  311MOL0     C41873   0.994   0.507  10.340 -0.1853  0.6306  0.4670
  311MOL0     O41874   1.078   0.414  10.414  0.4068  0.0614  0.2018
  311MOL0     C41875   1.201   0.378  10.355  0.0926 -0.3784 -0.2305
  311MOL0     C41876   1.266   0.261  10.396 -0.2200  0.4403 -0.1294
  311MOL0     C41877   1.396   0.220  10.352  0.9194  0.7919 -0.8610
  311MOL0     C41878   1.461   0.100  10.414 -0.0860 -0.2273 -0.1342
  311MOL0     C41879   1.459   0.295  10.247  0.4252 -0.2143  0.0944
  311MOL0     C41880   1.578   0.259  10.178  0.4045 -0.6008 -0.1170
  311MOL0     O41881   1.611   0.337  10.076  0.0319  0.5376 -0.0884
  311MOL0     C41882   1.696   0.289   9.980 -0.1638 -0.1435  0.2705
  311MOL0     C41883   1.700   0.161   9.927  0.1332  0.6773  0.6082
  311MOL0     C41884   1.802   0.122   9.833 -0.6831  0.2328  0.3774
  311MOL0     C41885   1.900   0.213   9.793  0.8904  0.6625  0.4711
  311MOL0     O41886   1.991   0.179   9.699  0.2253  0.4262  0.7716
  311MOL0     C41887   2.120   0.246   9.691 -0.2152  0.1968 -0.2024
  311MOL0     C41888   2.206   0.184   9.584 -0.6139 -0.1873  0.8268
  311MOL0     C41889   2.227   0.035   9.605 -0.0433  1.7495  0.5982
  311MOL0     C41890   2.254  -0.037   9.471  0.0918  0.0787  0.1273
  311MOL0     C41891   2.294  -0.180   9.502 -0.2796  1.0658  0.2027
  311MOL0     C41892   2.284  -0.261   9.372  0.2666  0.1868 -0.6370
  311MOL0     C41893   2.360  -0.393   9.391  0.8446 -0.0100 -0.2127
  311MOL0     C41894   2.344  -0.510   9.285  0.2499  0.3878  0.8184
  311MOL0    Cl41895   2.171  -0.549   9.248  0.1813 -0.1765  0.1867
  311MOL0     C41896   1.891   0.344   9.849 -0.6915  0.7788 -0.0969
  311MOL0     C41897   1.793   0.378   9.940  0.2526  0.9019  0.4059
  311MOL0     O41898   1.645   0.161  10.212  0.3047 -0.7224  1.1080
  311MOL0     C41899   1.396   0.411  10.213 -0.5833  0.9489  0.1159
  311MOL0     C41900   1.276   0.454  10.262  0.0587 -0.1088  0.1801
  311MOL0     N41901   0.656   0.908  10.350  0.5298 -0.2325 -0.5978
  311MOL0     N41902   0.583   1.016  10.348  0.4462  0.1392 -0.1706
  311MOL0     C41903   1.583   1.572  10.535  0.5353 -0.9743  1.0665
  311MOL0     C41904   1.714   1.592  10.480  0.1054  0.9785  0.6645
  311MOL0     C41905   2.001   1.841  10.206 -0.1111 -0.1802  0.1093
  311MOL0     C41906   2.083   1.953  10.222 -0.7490 -0.2589 -0.0646
  311MOL0     C41907   2.185   1.984  10.117  0.9809  0.3429  0.3364
  311MOL0     C41908   2.190   1.896  10.002  0.1802  0.2215 -0.1704
  311MOL0     O41909   2.277   1.912   9.901  0.4255 -1.1828  0.0819
  311MOL0     C41910   2.353   2.029   9.903  0.5590  0.0879  0.4318
  311MOL0     C41911   2.418   2.038   9.770 -0.6256 -0.1556  0.0558
  311MOL0     C41912   2.500   1.908   9.741 -0.5248 -0.5820 -0.3413
  311MOL0     C41913   2.582   1.933   9.613  0.1184 -0.6157 -0.1742
  311MOL0     C41914   2.714   1.864   9.604  0.4371  0.5993 -0.2484
  311MOL0     C41915   2.817   1.808   9.594  0.3762  0.6622 -0.5865
  311MOL0     C41916   2.105   1.788   9.993  0.2388 -0.3175 -0.0721
  311MOL0     C41917   2.013   1.767  10.093  0.7258  1.1805  0.2317
  311MOL0     H41918   1.626   1.762  10.202  1.7927  1.9851  0.9007
  311MOL0     H41919   1.401   1.767  10.313  0.9397  0.9506 -0.9511
  311MOL0     H41920   1.273   1.554  10.348  3.1026  0.9252  1.6653
  311MOL0     H41921   1.227   1.448  10.491 -0.9112 -0.8209 -1.8254
  311MOL0     H41922   1.083   1.586  10.578  1.7319 -0.5979  0.5984
  311MOL0     H41923   1.116   1.717  10.457  1.3286  0.4991 -0.5797
  311MOL0     H41924   1.045   1.545  10.280 -1.1502  1.2883 -1.2898
  311MOL0     H41925   1.009   1.439  10.422 -0.9837 -0.0601  0.1331
  311MOL0     H41926   0.848   1.637  10.482  0.7139 -0.3835  0.2787
  311MOL0     H41927   0.873   1.704  10.329  0.3295  0.2406 -0.8828
  311MOL0     H41928   0.680   1.587  10.301  1.8573  2.2668 -0.5787
  311MOL0     H41929   0.802   1.476  10.237 -3.5208 -3.3840 -0.0810
  311MOL0     H41930   0.803   1.351  10.459 -1.4387 -1.1762  1.4231
  311MOL0     H41931   0.700   1.475  10.528  2.8917 -0.1369  1.0352
  311MOL0     H41932   0.518   1.417  10.385 -0.1030 -0.6259  1.2917
  311MOL0     H41933   0.625   1.302  10.294  1.9671 -0.6074  1.2449
  311MOL0     H41934   0.450   1.217  10.453  0.2811  0.9032  2.1497
  311MOL0     H41935   0.567   1.246  10.583 -1.2748 -0.1216  0.8285
  311MOL0     H41936   0.802   1.124  10.560 -1.0724  0.8348 -0.2513
  311MOL0     H41937   0.976   0.903  10.469  0.0708  1.6701 -1.9517
  311MOL0     H41938   0.866   0.813  10.572  2.8279 -2.0047  0.4129
  311MOL0     H41939   0.917   0.764  10.281 -1.5409 -1.4833 -1.2171
  311MOL0     H41940   0.792   0.676  10.374 -0.6932  0.5570 -3.4150
  311MOL0     H41941   0.999   0.610  10.526 -1.4973 -1.7828 -0.3515
  311MOL0     H41942   1.092   0.686  10.390 -0.3782  0.7317 -0.5189
  311MOL0     H41943   1.019   0.528  10.236  0.9234  1.1871  0.8293
  311MOL0     H41944   0.893   0.464  10.342 -0.7920  2.0164  2.5023
  311MOL0     H41945   1.208   0.181  10.440 -1.5346  0.3752 -1.9011
  311MOL0     H41946   1.415   0.078  10.510  0.0864  1.3977  0.3459
  311MOL0     H41947   1.454   0.009  10.353 -0.9476 -1.3944  1.6404
  311MOL0     H41948   1.562   0.135  10.440 -0.4331 -0.2840  1.3588
  311MOL0     H41949   1.629   0.083   9.953 -0.8719  0.6420 -1.9944
  311MOL0     H41950   1.815   0.019   9.803  1.2332  0.1852  1.2186
  311MOL0     H41951   2.102   0.350   9.664 -0.4568 -0.0177 -0.9046
  311MOL0     H41952   2.157   0.239   9.793 -4.6808 -1.2961  1.5715
  311MOL0     H41953   2.167   0.202   9.484  0.6033 -0.0078  0.3605
  311MOL0     H41954   2.309   0.223   9.583  0.0720 -1.8307 -1.7250
  311MOL0     H41955   2.139  -0.007   9.656  0.2193  0.2694 -0.1285
  311MOL0     H41956   2.310   0.006   9.671 -1.5340 -0.0079  1.8078
  311MOL0     H41957   2.165  -0.028   9.408  1.9706 -1.1587 -2.9496
  311MOL0     H41958   2.332   0.011   9.412  0.6169 -0.3807  0.4339
  311MOL0     H41959   2.230  -0.225   9.578  1.9493 -1.2526  0.8308
  311MOL0     H41960   2.395  -0.188   9.543  1.8913 -1.6385 -4.7357
  311MOL0     H41961   2.181  -0.280   9.341 -0.5475 -0.0374  1.9928
  311MOL0     H41962   2.337  -0.206   9.294  0.2694 -1.2896 -1.7379
  311MOL0     H41963   2.322  -0.433   9.485 -0.4495  1.0206 -0.2610
  311MOL0     H41964   2.469  -0.388   9.400  0.7825  3.2681 -0.2164
  311MOL0     H41965   2.396  -0.591   9.338  0.0283  0.2820  0.8762
  311MOL0     H41966   2.399  -0.478   9.196 -1.8304  0.2159 -0.5993
  311MOL0     H41967   1.971   0.410   9.816  1.9918 -1.7902  0.8669
  311MOL0     H41968   1.788   0.473   9.993  0.9091  0.5594  1.1026
  311MOL0     H41969   1.421   0.478  10.131  1.2277 -0.2430 -0.3772
  311MOL0     H41970   1.244   0.553  10.230  0.3793  0.5281  1.7526
  311MOL0     H41971   1.557   1.516  10.624 -2.1102 -2.4840 -0.4956
  311MOL0     H41972   1.807   1.562  10.526 -0.0762  0.3490  0.6323
  311MOL0     H41973   2.060   2.010  10.311 -3.9322  1.1345 -1.6070
  311MOL0     H41974   2.246   2.071  10.137 -0.4118  1.2675  0.7349
  311MOL0     H41975   2.299   2.124   9.911  1.8782  1.2757 -2.9084
  311MOL0     H41976   2.424   2.021   9.985  1.2937  0.5887 -0.1376
  311MOL0     H41977   2.488   2.122   9.779 -0.3940 -0.4994  1.9842
  311MOL0     H41978   2.345   2.072   9.696  1.3516  0.7093 -1.6007
  311MOL0     H41979   2.433   1.823   9.725 -1.7558  0.4533 -0.8778
  311MOL0     H41980   2.559   1.900   9.833 -2.0488 -1.4245  0.6076
  311MOL0     H41981   2.612   2.038   9.600  0.5031 -0.6674  0.2521
  311MOL0     H41982   2.517   1.904   9.530  0.1407 -0.1599 -0.3550
  311MOL0     H41983   2.911   1.756   9.581 -0.1730  0.0228 -2.2523
  311MOL0     H41984   2.124   1.708   9.921  1.9690  0.1335 -0.1550
  311MOL0     H41985   1.954   1.676  10.086  0.2547  1.6083 -1.8148
  312MOL0     O41986   6.208  10.882   7.977 -0.0997 -0.4595 -0.6758
  312MOL0     C41987   6.274  10.829   8.064  0.3041 -0.3425 -0.5917
  312MOL0     O41988   6.225  10.745   8.160  0.3895 -0.2350 -0.2937
  312MOL0     C41989   6.101  10.686   8.165  0.1403  0.3225  0.2852
  312MOL0     C41990   6.076  10.607   8.273 -0.1785  0.7660 -0.3253
  312MOL0     C41991   5.954  10.534   8.295  0.9656 -0.6192  1.1074
  312MOL0     C41992   5.853  10.542   8.198 -0.0778  0.1994  0.6323
  312MOL0     O41993   5.743  10.461   8.209 -0.1523 -0.9100  0.5981
  312MOL0     C41994   5.736  10.355   8.309 -0.5335  0.2482  0.0114
  312MOL0     C41995   5.595  10.300   8.294 -0.1336  0.3217  0.1603
  312MOL0     C41996   5.480  10.389   8.324 -0.0465  0.1014  0.0235
  312MOL0     C41997   5.346  10.306   8.328  0.7694 -0.8083 -0.2050
  312MOL0     C41998   5.232  10.406   8.352 -1.0650  0.8190  0.1024
  312MOL0     C41999   5.102  10.332   8.331  0.2447 -1.3915 -1.4789
  312MOL0     C42000   4.996  10.436   8.308 -0.7676  0.0556  0.3764
  312MOL0     C42001   4.875  10.370   8.240  0.2017 -0.7484  0.2575
  312MOL0     N42002   4.788  10.291   8.342  0.1281  0.2218  0.3314
  312MOL0     C42003   4.807  10.167   8.397 -0.1616  0.1220 -0.4586
  312MOL0     C42004   4.720  10.155   8.501 -0.4232 -0.2924  0.5175
  312MOL0     C42005   4.718  10.042   8.594  1.0559 -0.4723  0.3029
  312MOL0     C42006   4.702   9.903   8.522 -0.5580  0.8367 -0.8811
  312MOL0     C42007   4.695   9.797   8.633 -0.0384 -0.7895  0.2551
  312MOL0     C42008   4.597   9.679   8.594  0.5124 -0.0310 -0.5800
  312MOL0     O42009   4.451   9.708   8.589 -0.8686 -0.1147 -0.2096
  312MOL0     C42010   4.388   9.743   8.705  0.9575  0.7760  0.3206
  312MOL0     C42011   4.434   9.727   8.839  0.0460  0.4317  0.9115
  312MOL0     C42012   4.363   9.776   8.951  0.0534 -0.3917  0.4252
  312MOL0     C42013   4.429   9.777   9.085 -0.4514 -0.1727  0.3728
  312MOL0     C42014   4.231   9.839   8.925  0.5321 -0.2720  1.3749
  312MOL0     C42015   4.144   9.880   9.033 -0.1343 -0.7667 -0.3808
  312MOL0     O42016   4.032   9.955   8.993  0.4494 -0.4437  0.0107
  312MOL0     C42017   3.933   9.976   9.084  0.4378 -0.3697  0.2988
  312MOL0     C42018   3.953  10.039   9.211 -1.4095 -0.7091  0.6216
  312MOL0     C42019   3.843  10.049   9.296 -0.4420 -0.6476 -0.1637
  312MOL0     C42020   3.719   9.997   9.255 -0.0970 -0.7865 -0.8373
  312MOL0     O42021   3.629  10.022   9.354  0.5773  0.1957  0.3723
  312MOL0     C42022   3.515   9.928   9.374 -0.6025 -1.0945 -0.4967
  312MOL0     C42023   3.385   9.979   9.308  0.1826  0.3822  0.6058
  312MOL0     C42024   3.331  10.108   9.374  0.3075  0.9592 -0.1719
  312MOL0     C42025   3.203  10.163   9.310  0.8386 -0.2148  0.4499
  312MOL0     C42026   3.156  10.300   9.364 -0.1381 -0.1861 -0.0466
  312MOL0     C42027   3.018  10.330   9.321  0.6358  0.2306 -0.3532
  312MOL0     C42028   2.973  10.466   9.366  0.2832  0.4459  0.7225
  312MOL0     C42029   2.834  10.503   9.336  0.1449 -0.4402 -0.6986
  312MOL0    Cl42030   2.815  10.677   9.354  0.3923 -0.1154  0.1590
  312MOL0     C42031   3.706   9.918   9.142  0.0886 -0.9760 -0.7008
  312MOL0     C42032   3.809   9.924   9.049  0.0780  0.0086 -0.0159
  312MOL0     O42033   4.156   9.822   9.146  1.0809  0.1450  0.5814
  312MOL0     C42034   4.194   9.848   8.794  0.1647  0.2669  0.4159
  312MOL0     C42035   4.270   9.805   8.687 -0.6796  0.3571  0.5980
  312MOL0     N42036   4.657  10.279   8.513  0.0844  0.1928 -0.2820
  312MOL0     N42037   4.692  10.352   8.414  0.4670  0.7729  0.6472
  312MOL0     C42038   5.874  10.620   8.086 -0.4848  0.3570 -0.0114
  312MOL0     C42039   5.995  10.687   8.069 -0.0875  0.3110  0.1336
  312MOL0     C42040   6.415  10.861   8.072  0.1953  0.3487  0.0955
  312MOL0     C42041   6.483  10.957   7.994 -0.0455  2.0306 -0.4474
  312MOL0     C42042   6.623  10.978   8.009  0.4947 -0.2926 -0.3581
  312MOL0     C42043   6.694  10.913   8.112 -0.8190 -0.0131  0.6230
  312MOL0     O42044   6.829  10.917   8.120 -0.3486  0.1611 -0.6401
  312MOL0     C42045   6.896  11.033   8.175 -0.4679 -0.6221  1.2017
  312MOL0     C42046   6.950  11.006   8.319 -0.1156  0.2098 -0.1327
  312MOL0     C42047   7.056  10.898   8.334  0.0539  0.2831 -0.5366
  312MOL0     C42048   7.056  10.813   8.464 -0.7455  0.1163  0.4826
  312MOL0     C42049   6.926  10.737   8.490 -0.4220 -0.2182 -0.7234
  312MOL0     C42050   6.824  10.673   8.513  0.0150  0.0530 -0.0793
  312MOL0     C42051   6.628  10.813   8.184 -1.5421  0.4011  0.2366
  312MOL0     C42052   6.489  10.793   8.164  0.2742 -0.3721  0.0353
  312MOL0     H42053   6.166  10.601   8.334  1.1261  2.7585 -1.9555
  312MOL0     H42054   5.932  10.468   8.378 -1.8038 -2.3785 -0.8436
  312MOL0     H42055   5.804  10.275   8.277 -3.4063 -1.9318 -1.0910
  312MOL0     H42056   5.752  10.393   8.411  1.5461  1.0151 -0.5571
  312MOL0     H42057   5.582  10.265   8.191  3.8431  0.5264 -0.5771
  312MOL0     H42058   5.586  10.215   8.363  1.8023  0.6376  0.8926
  312MOL0     H42059   5.496  10.431   8.424 -1.6001 -1.2329  0.9026
  312MOL0     H42060   5.471  10.468   8.249 -1.9467 -1.1724 -1.1709
  312MOL0     H42061   5.331  10.249   8.236 -2.7631  2.5515 -2.0322
  312MOL0     H42062   5.341  10.243   8.417 -3.3458 -0.4140  0.0435
  312MOL0     H42063   5.258  10.452   8.448 -1.6097 -2.3947  1.9453
  312MOL0     H42064   5.244  10.475   8.269  1.3201  1.5227  0.9641
  312MOL0     H42065   5.111  10.256   8.253  0.4206 -5.1261  1.8614
  312MOL0     H42066   5.084  10.273   8.421  1.1776 -0.8859 -0.9517
  312MOL0     H42067   4.961  10.483   8.401 -2.1223  2.1470 -1.1090
  312MOL0     H42068   5.021  10.526   8.251 -2.3129  1.9411  2.4801
  312MOL0     H42069   4.902  10.302   8.158  2.4248  1.6898 -1.1556
  312MOL0     H42070   4.820  10.446   8.185  0.8953 -1.5429 -1.6101
  312MOL0     H42071   4.868  10.087   8.355 -2.5919 -0.7788 -2.5331
  312MOL0     H42072   4.814  10.044   8.646  0.9492  0.1497  0.4857
  312MOL0     H42073   4.629  10.063   8.654 -0.6969 -1.6819 -1.7185
  312MOL0     H42074   4.774   9.876   8.444  0.2893  1.9207 -0.4957
  312MOL0     H42075   4.608   9.899   8.467 -2.2429  0.0436  1.8249
  312MOL0     H42076   4.661   9.838   8.728  2.2861 -0.3540  0.9703
  312MOL0     H42077   4.787   9.743   8.658  0.5826 -0.8425 -1.9826
  312MOL0     H42078   4.596   9.594   8.663 -0.6919  1.7300  1.7319
  312MOL0     H42079   4.640   9.648   8.498  2.5894 -0.0197  0.2946
  312MOL0     H42080   4.527   9.674   8.856 -1.4577 -2.0597  1.9875
  312MOL0     H42081   4.433   9.875   9.134  0.6980 -0.9182  1.8493
  312MOL0     H42082   4.361   9.723   9.152 -3.1514  1.4342 -0.8901
  312MOL0     H42083   4.532   9.742   9.096 -0.4719 -0.7878 -1.2178
  312MOL0     H42084   4.051  10.067   9.250 -1.3357 -1.8798  1.3350
  312MOL0     H42085   3.847  10.096   9.394 -0.1944  0.0902 -0.5174
  312MOL0     H42086   3.549   9.835   9.329  0.6311 -0.0316 -1.8681
  312MOL0     H42087   3.502   9.918   9.482 -1.1241 -1.9491 -0.6322
  312MOL0     H42088   3.422  10.012   9.211 -1.1608 -0.0968 -0.0928
  312MOL0     H42089   3.309   9.904   9.285 -1.1663  2.2191 -1.1448
  312MOL0     H42090   3.412  10.181   9.374 -0.6920  2.1178  1.0799
  312MOL0     H42091   3.303  10.089   9.478 -0.2792  0.2785 -0.4386
  312MOL0     H42092   3.213  10.180   9.202  0.0208  0.7785  0.5215
  312MOL0     H42093   3.124  10.090   9.330  1.3832 -0.6689  0.9788
  312MOL0     H42094   3.222  10.382   9.332  0.3679 -0.8530 -0.7585
  312MOL0     H42095   3.159  10.301   9.473 -0.1442 -2.5690  0.0214
  312MOL0     H42096   3.015  10.320   9.212  1.0808  1.4731 -0.5034
  312MOL0     H42097   2.950  10.252   9.356 -0.6151  0.0542 -2.9546
  312MOL0     H42098   3.038  10.542   9.322 -2.9788  2.8449 -0.4053
  312MOL0     H42099   2.988  10.473   9.474  0.8270  2.2688  0.5603
  312MOL0     H42100   2.778  10.459   9.419  3.7887  0.2395  2.4190
  312MOL0     H42101   2.809  10.481   9.232  3.0447 -1.1409 -1.3434
  312MOL0     H42102   3.618   9.864   9.106  0.1902 -1.8061  0.2278
  312MOL0     H42103   3.787   9.885   8.950 -0.4981 -1.2775  0.5961
  312MOL0     H42104   4.102   9.904   8.777 -0.0898 -0.3145 -0.1739
  312MOL0     H42105   4.245   9.817   8.582  0.8928 -0.8103  0.0434
  312MOL0     H42106   5.795  10.619   8.012 -1.5613 -1.6816  1.0953
  312MOL0     H42107   6.012  10.730   7.971 -0.4502 -0.7626 -0.4252
  312MOL0     H42108   6.424  11.010   7.919 -0.0988 -0.1301 -2.0073
  312MOL0     H42109   6.672  11.059   7.955 -0.6815  0.9137  0.3113
  312MOL0     H42110   6.978  11.068   8.111 -0.4999  0.3164  1.6474
  312MOL0     H42111   6.836  11.124   8.185  2.5344  1.7165 -0.3792
  312MOL0     H42112   6.870  10.991   8.392 -3.0129  1.4852 -2.8320
  312MOL0     H42113   6.992  11.103   8.349 -2.7907  0.6635  2.6176
  312MOL0     H42114   7.151  10.953   8.338 -0.1525  0.6487 -0.6165
  312MOL0     H42115   7.059  10.831   8.248 -3.8330 -1.2640  0.3393
  312MOL0     H42116   7.070  10.877   8.551  1.5692 -0.9116  0.9519
  312MOL0     H42117   7.134  10.737   8.459  1.4873  2.3075 -0.3174
  312MOL0     H42118   6.736  10.613   8.521 -2.0442  2.8235 -0.5292
  312MOL0     H42119   6.694  10.762   8.254 -1.6304  2.0367  1.5535
  312MOL0     H42120   6.442  10.711   8.218 -1.5012 -0.4162 -1.4420
  313MOL0     O42121   7.450   3.426   9.734 -0.1493  0.1400 -0.2309
  313MOL0     C42122   7.451   3.321   9.672 -0.1545  0.5775  0.0770
  313MOL0     O42123   7.347   3.235   9.638  0.4242 -0.1862 -0.1324
  313MOL0     C42124   7.218   3.289   9.617 -0.1363 -0.3523  0.5982
  313MOL0     C42125   7.117   3.254   9.705  0.8248 -0.1220 -0.6461
  313MOL0     C42126   6.995   3.308   9.696  0.0098 -0.6182  0.2184
  313MOL0     C42127   6.969   3.414   9.610 -0.8538 -0.1663  0.3385
  313MOL0     O42128   6.849   3.479   9.603  0.2394  0.0127  0.5983
  313MOL0     C42129   6.724   3.425   9.654 -0.7141 -0.8492  0.5132
  313MOL0     C42130   6.649   3.373   9.535  0.5277  1.2097 -0.6768
  313MOL0     C42131   6.512   3.306   9.577 -0.2907 -0.6801  0.3777
  313MOL0     C42132   6.425   3.275   9.456  0.9344  0.3414 -0.2077
  313MOL0     C42133   6.273   3.244   9.485  0.1406 -0.1490  0.0836
  313MOL0     C42134   6.246   3.141   9.587  0.7816  0.0385  0.1473
  313MOL0     C42135   6.100   3.115   9.596 -0.7339 -0.4160  0.1100
  313MOL0     C42136   6.069   3.014   9.704  0.5776  0.7741  0.6020
  313MOL0     N42137   5.921   2.975   9.696 -0.4478  0.0850  0.2000
  313MOL0     C42138   5.828   3.032   9.776 -0.5722 -0.2123  0.0191
  313MOL0     C42139   5.707   2.986   9.723 -0.0628 -0.2099  0.4248
  313MOL0     C42140   5.570   3.014   9.780  0.6487 -0.6463 -0.2114
  313MOL0     C42141   5.457   3.056   9.678 -0.0389 -0.0905  0.5224
  313MOL0     C42142   5.319   3.079   9.752  0.4427  0.4617 -0.4193
  313MOL0     C42143   5.194   3.068   9.665 -0.7172 -0.5592 -1.4698
  313MOL0     O42144   5.081   3.135   9.736 -0.1159 -0.2562 -0.5169
  313MOL0     C42145   4.967   3.145   9.668 -0.5064 -0.1069  0.2604
  313MOL0     C42146   4.956   3.167   9.531 -0.5186 -0.1224 -0.6612
  313MOL0     C42147   4.836   3.178   9.466 -1.3020 -0.1123  0.8770
  313MOL0     C42148   4.851   3.180   9.315  0.1068 -0.8725  0.1176
  313MOL0     C42149   4.714   3.191   9.531  0.6108  0.0309  0.4864
  313MOL0     C42150   4.577   3.215   9.462 -0.2028 -0.2780 -0.1283
  313MOL0     O42151   4.463   3.228   9.545  0.6739  0.5653 -0.1932
  313MOL0     C42152   4.335   3.227   9.484 -0.0660 -0.6482 -0.4285
  313MOL0     C42153   4.304   3.154   9.363  0.8328 -0.4929 -0.1875
  313MOL0     C42154   4.174   3.137   9.315  0.2965 -0.1779  0.0313
  313MOL0     C42155   4.067   3.196   9.392 -0.5221  0.1450 -0.9673
  313MOL0     O42156   3.938   3.178   9.336 -0.5550 -0.6661  0.3614
  313MOL0     C42157   3.825   3.226   9.410  1.1229  0.2548 -0.2251
  313MOL0     C42158   3.692   3.204   9.337 -1.1014  0.8728 -0.3452
  313MOL0     C42159   3.667   3.061   9.301  0.1214 -0.9491  0.8020
  313MOL0     C42160   3.524   3.036   9.239  0.3738 -0.3865  0.6927
  313MOL0     C42161   3.500   2.886   9.214  0.2860 -0.0275 -0.1936
  313MOL0     C42162   3.373   2.847   9.134 -0.8676  0.1306  0.1581
  313MOL0     C42163   3.375   2.702   9.092  0.5115  0.0844  0.3233
  313MOL0     C42164   3.234   2.663   9.038 -0.6198 -0.3846  0.4468
  313MOL0    Cl42165   3.094   2.716   9.155 -0.0146  0.2681  0.3765
  313MOL0     C42166   4.097   3.257   9.510 -0.1651 -0.1325 -0.3182
  313MOL0     C42167   4.230   3.272   9.559 -0.0525 -0.5464 -0.2578
  313MOL0     O42168   4.572   3.251   9.342 -0.6860 -0.3797  0.3171
  313MOL0     C42169   4.726   3.185   9.675  0.6468  0.2940  1.0141
  313MOL0     C42170   4.843   3.152   9.735  0.0392 -0.6726 -0.5244
  313MOL0     N42171   5.737   2.898   9.621 -0.1834 -0.6056 -0.3749
  313MOL0     N42172   5.866   2.888   9.601 -0.0671 -0.4710  0.6408
  313MOL0     C42173   7.069   3.450   9.518  0.6053 -0.4801 -0.0523
  313MOL0     C42174   7.192   3.383   9.516  0.2673 -0.0489  0.1363
  313MOL0     C42175   7.583   3.267   9.631  0.4867  0.6675 -0.6921
  313MOL0     C42176   7.703   3.336   9.665  0.5205  0.7536  0.4084
  313MOL0     C42177   7.826   3.273   9.644  0.2479  0.3999 -0.2310
  313MOL0     C42178   7.834   3.146   9.592 -0.6058 -0.8211  0.6419
  313MOL0     O42179   7.954   3.074   9.574  0.3938 -0.6228 -0.5642
  313MOL0     C42180   8.074   3.140   9.542 -0.2205 -0.2336 -0.2305
  313MOL0     C42181   8.188   3.044   9.524 -0.3988 -0.5034  0.2893
  313MOL0     C42182   8.255   2.998   9.651 -0.0897 -0.3439  0.2612
  313MOL0     C42183   8.346   2.876   9.646 -0.5397 -0.2049 -0.0470
  313MOL0     C42184   8.336   2.809   9.777  0.5029 -0.3273 -0.5375
  313MOL0     C42185   8.332   2.757   9.891  0.2761  0.0578 -0.4170
  313MOL0     C42186   7.719   3.083   9.550 -0.2250  0.9747  0.0980
  313MOL0     C42187   7.596   3.141   9.574 -0.3010  0.0135 -0.1167
  313MOL0     H42188   7.128   3.170   9.774 -1.1215  0.0172 -0.1032
  313MOL0     H42189   6.913   3.281   9.763 -0.2301 -1.2797 -0.3319
  313MOL0     H42190   6.734   3.362   9.743  1.2867 -0.1650  0.8227
  313MOL0     H42191   6.668   3.513   9.688  1.6796  0.4072  1.3961
  313MOL0     H42192   6.633   3.467   9.481 -2.8213  1.1142 -0.0697
  313MOL0     H42193   6.713   3.300   9.484  0.5853 -1.3683  2.7057
  313MOL0     H42194   6.533   3.209   9.623  2.4489 -0.0791  0.5376
  313MOL0     H42195   6.451   3.373   9.639 -1.8397  0.3757 -2.1209
  313MOL0     H42196   6.418   3.356   9.382 -1.7527 -0.1871 -0.6558
  313MOL0     H42197   6.477   3.194   9.404 -0.4640 -0.3261 -0.6240
  313MOL0     H42198   6.216   3.334   9.511 -1.7776 -1.7386  1.7518
  313MOL0     H42199   6.237   3.208   9.388  2.1613 -2.2435  0.0285
  313MOL0     H42200   6.289   3.045   9.558 -3.0111 -1.8703  0.2325
  313MOL0     H42201   6.290   3.168   9.683  0.2034  1.1932  0.1038
  313MOL0     H42202   6.041   3.202   9.626 -0.3376 -1.5331  4.8641
  313MOL0     H42203   6.054   3.083   9.502 -4.8111 -0.4484  1.8804
  313MOL0     H42204   6.102   3.051   9.801 -1.9545  0.6859  1.5651
  313MOL0     H42205   6.125   2.922   9.688 -0.0192  0.4220  0.4775
  313MOL0     H42206   5.859   3.101   9.854  3.1784 -0.8649 -0.6903
  313MOL0     H42207   5.542   2.927   9.840  0.9367 -0.9589 -0.5218
  313MOL0     H42208   5.577   3.094   9.854 -0.6914 -0.5159 -0.1975
  313MOL0     H42209   5.447   2.967   9.615 -0.2032  1.2090 -1.3317
  313MOL0     H42210   5.474   3.151   9.627  0.5673  0.1643  1.1876
  313MOL0     H42211   5.321   3.179   9.798  1.3325 -1.2614  3.6897
  313MOL0     H42212   5.313   3.018   9.843  0.8361  2.6661  1.1826
  313MOL0     H42213   5.168   2.965   9.640 -1.3314 -1.1033  1.1361
  313MOL0     H42214   5.214   3.130   9.576  1.8421  1.0149  0.0813
  313MOL0     H42215   5.043   3.157   9.466  0.4963 -0.6267  0.7184
  313MOL0     H42216   4.769   3.119   9.277 -1.5249  1.2728  0.0148
  313MOL0     H42217   4.855   3.284   9.280  4.3012 -1.0877 -0.5966
  313MOL0     H42218   4.942   3.132   9.279  0.0031 -0.9518 -0.0393
  313MOL0     H42219   4.384   3.098   9.315  2.0485  1.6720 -0.8100
  313MOL0     H42220   4.148   3.073   9.231  0.6754  1.2382 -1.2017
  313MOL0     H42221   3.824   3.174   9.507 -0.6115  1.7153  0.6036
  313MOL0     H42222   3.831   3.334   9.424 -0.7209  0.4360 -0.6166
  313MOL0     H42223   3.613   3.245   9.400 -2.4347  0.7491 -1.8733
  313MOL0     H42224   3.692   3.267   9.247  0.0409  0.8430 -0.3792
  313MOL0     H42225   3.688   3.005   9.393  0.5490  0.4581  1.5830
  313MOL0     H42226   3.743   3.040   9.225 -3.8414 -2.7807 -3.0771
  313MOL0     H42227   3.457   3.078   9.314  0.1332  2.3147 -0.9044
  313MOL0     H42228   3.505   3.106   9.157 -2.1794 -0.2183  1.3658
  313MOL0     H42229   3.499   2.833   9.310 -2.8674 -0.1227 -0.1476
  313MOL0     H42230   3.582   2.850   9.151 -0.1075 -0.2280 -0.6056
  313MOL0     H42231   3.287   2.865   9.199 -0.7735 -0.1079  0.3483
  313MOL0     H42232   3.361   2.913   9.047  2.2494  2.5211  1.3597
  313MOL0     H42233   3.396   2.633   9.175  0.8261  0.0989  0.2606
  313MOL0     H42234   3.453   2.685   9.017  3.2845 -3.0463  3.5367
  313MOL0     H42235   3.241   2.554   9.029  0.4562 -0.2717 -0.3067
  313MOL0     H42236   3.213   2.713   8.943  0.5236 -0.8244 -0.0610
  313MOL0     H42237   4.013   3.294   9.567 -0.1271 -0.3586 -0.1129
  313MOL0     H42238   4.248   3.319   9.655 -5.1308  0.6474  0.4104
  313MOL0     H42239   4.638   3.197   9.739 -0.8204 -1.9318 -0.4413
  313MOL0     H42240   4.843   3.131   9.842 -3.0064  0.7843 -0.1454
  313MOL0     H42241   7.045   3.529   9.448 -1.3390 -1.8901 -1.0875
  313MOL0     H42242   7.262   3.411   9.439 -2.6738 -1.0005 -3.1281
  313MOL0     H42243   7.693   3.437   9.704 -1.5209 -0.2201  2.6583
  313MOL0     H42244   7.918   3.320   9.676 -0.0509  0.6240  0.3144
  313MOL0     H42245   8.050   3.201   9.454 -0.2627  0.9589  0.5853
  313MOL0     H42246   8.095   3.213   9.620  0.8410  0.6241 -1.2715
  313MOL0     H42247   8.267   3.091   9.464 -0.6642 -1.9130 -1.2410
  313MOL0     H42248   8.147   2.966   9.460 -2.6381  1.5614 -0.9556
  313MOL0     H42249   8.168   2.987   9.717 -0.9736 -0.0201 -0.8350
  313MOL0     H42250   8.316   3.079   9.691  1.4562 -1.4430  0.2240
  313MOL0     H42251   8.452   2.898   9.630 -0.3551 -0.4449  0.8023
  313MOL0     H42252   8.295   2.815   9.571 -2.3725  0.3147  0.7302
  313MOL0     H42253   8.342   2.705   9.984  0.6153 -3.4425 -2.2515
  313MOL0     H42254   7.737   2.982   9.513  1.5557  0.7276  1.4891
  313MOL0     H42255   7.511   3.079   9.546  0.8455 -0.9422 -1.6054
  314MOL0     O42256   2.176   8.147   6.566 -0.4042  0.7384  0.7749
  314MOL0     C42257   2.139   8.139   6.683 -0.8499 -0.5980 -0.6610
  314MOL0     O42258   2.213   8.169   6.791 -0.0182 -0.4243  0.1185
  314MOL0     C42259   2.344   8.212   6.790 -0.0971 -0.2839  0.6820
  314MOL0     C42260   2.434   8.218   6.686 -0.1819 -0.4452 -0.3531
  314MOL0     C42261   2.568   8.264   6.704  0.9266 -0.8992  0.9500
  314MOL0     C42262   2.612   8.315   6.819  0.1662  0.3071 -0.0083
  314MOL0     O42263   2.742   8.355   6.848 -0.0156 -0.9167  0.0944
  314MOL0     C42264   2.841   8.329   6.751  0.0675  0.1119  0.1548
  314MOL0     C42265   2.978   8.320   6.821  0.0855 -0.0726  0.1687
  314MOL0     C42266   3.087   8.289   6.717  0.5124  0.4920 -0.6666
  314MOL0     C42267   3.223   8.290   6.765 -0.2413 -0.5714 -0.2169
  314MOL0     C42268   3.324   8.203   6.679  1.0928  0.0910 -0.2105
  314MOL0     C42269   3.398   8.308   6.581  0.2746 -0.2712 -0.2497
  314MOL0     C42270   3.492   8.227   6.484  0.4938  0.4083  0.4563
  314MOL0     C42271   3.612   8.161   6.555  0.8334 -0.1952 -0.1699
  314MOL0     N42272   3.694   8.261   6.624 -0.5758 -0.0941 -0.6462
  314MOL0     C42273   3.785   8.332   6.560  0.1819 -0.5792 -0.2903
  314MOL0     C42274   3.842   8.406   6.662  0.9216 -0.7541 -0.3002
  314MOL0     C42275   3.951   8.504   6.647  0.0863 -0.0373 -0.5820
  314MOL0     C42276   3.922   8.619   6.546 -0.2796  0.3248 -0.4454
  314MOL0     C42277   4.045   8.707   6.570 -0.0793  0.7963  0.1169
  314MOL0     C42278   4.041   8.830   6.477 -0.2758 -1.1491 -0.9926
  314MOL0     O42279   3.906   8.876   6.441  0.1423 -0.4886  0.0340
  314MOL0     C42280   3.898   8.980   6.354  0.4355 -0.2378 -0.2016
  314MOL0     C42281   4.003   9.056   6.294  0.0764  0.3521 -0.1772
  314MOL0     C42282   3.973   9.141   6.191 -1.0230 -0.0232 -1.2833
  314MOL0     C42283   4.097   9.232   6.155  0.6106 -0.2444 -0.1467
  314MOL0     C42284   3.845   9.155   6.140  0.7827  0.4324  0.3219
  314MOL0     C42285   3.804   9.238   6.019 -0.0981 -0.3199 -0.6445
  314MOL0     O42286   3.879   9.216   5.905  0.8550  0.1425  0.3317
  314MOL0     C42287   3.888   9.322   5.812  0.4261  0.3766  0.1431
  314MOL0     C42288   3.912   9.299   5.674 -0.6084 -0.0341  0.2439
  314MOL0     C42289   3.910   9.407   5.579  0.6942  0.6514  0.1983
  314MOL0     C42290   3.870   9.534   5.621 -0.7155 -0.0143  0.5638
  314MOL0     O42291   3.863   9.637   5.530 -0.0993 -0.4904 -0.0077
  314MOL0     C42292   3.724   9.656   5.499 -1.0295  0.0916  0.0624
  314MOL0     C42293   3.714   9.739   5.367  1.6751  0.3297 -0.0169
  314MOL0     C42294   3.732   9.647   5.244 -1.0494 -0.8733  0.2467
  314MOL0     C42295   3.772   9.703   5.103  0.2291 -0.1745 -0.0188
  314MOL0     C42296   3.924   9.753   5.109 -0.3680  0.5821 -0.9447
  314MOL0     C42297   3.961   9.828   4.985 -0.3565  0.4603 -0.4521
  314MOL0     C42298   4.104   9.869   4.999  0.0898 -1.2885 -0.1064
  314MOL0     C42299   4.160   9.911   4.866 -0.0353 -0.5413  0.3453
  314MOL0    Cl42300   4.079  10.062   4.813 -0.0536  0.1096  0.0472
  314MOL0     C42301   3.855   9.557   5.753  0.5552  1.1960 -0.6039
  314MOL0     C42302   3.879   9.455   5.853  0.3904  0.2570  0.7490
  314MOL0     O42303   3.696   9.302   6.029 -0.9327 -0.0839  0.4988
  314MOL0     C42304   3.746   9.073   6.200 -0.1326  0.0322  0.5258
  314MOL0     C42305   3.768   8.997   6.309 -0.9398  0.5736 -0.1540
  314MOL0     N42306   3.778   8.373   6.783 -0.2685 -0.4226 -0.3189
  314MOL0     N42307   3.683   8.290   6.760 -0.2440  0.2925  0.6892
  314MOL0     C42308   2.518   8.319   6.926 -0.5328  0.1000  0.3113
  314MOL0     C42309   2.387   8.267   6.905 -0.6313 -0.0703 -0.1618
  314MOL0     C42310   2.014   8.056   6.707  0.8875 -0.0733 -0.6370
  314MOL0     C42311   1.949   8.074   6.833  0.2175 -0.0619 -0.6675
  314MOL0     C42312   1.833   8.005   6.863  0.2519 -0.6045  0.1082
  314MOL0     C42313   1.771   7.924   6.766  0.4428 -0.1006  0.1729
  314MOL0     O42314   1.656   7.861   6.775 -0.7976 -0.2789 -0.4685
  314MOL0     C42315   1.593   7.846   6.899  0.4335 -0.9120 -1.1250
  314MOL0     C42316   1.473   7.747   6.890 -0.1763  0.3302  0.3466
  314MOL0     C42317   1.385   7.747   7.024 -0.8412 -0.3765 -0.2267
  314MOL0     C42318   1.281   7.634   7.020 -0.7310  0.6323  0.1264
  314MOL0     C42319   1.351   7.499   7.032  0.7078  0.6212 -0.1632
  314MOL0     C42320   1.403   7.390   7.055  0.5777 -0.1431  1.0595
  314MOL0     C42321   1.834   7.914   6.631  0.0803 -0.8388  0.7148
  314MOL0     C42322   1.957   7.981   6.607 -0.3484 -0.3070  0.6528
  314MOL0     H42323   2.397   8.182   6.590 -2.0292  0.1772  0.0847
  314MOL0     H42324   2.619   8.250   6.610  0.0110  0.4623  0.2260
  314MOL0     H42325   2.832   8.236   6.696  0.3282  0.6578 -0.8339
  314MOL0     H42326   2.834   8.410   6.677 -0.8671 -0.4392 -0.3747
  314MOL0     H42327   3.001   8.419   6.862 -3.0757  1.5112 -1.4852
  314MOL0     H42328   2.968   8.255   6.908 -2.1086  0.4155  0.3524
  314MOL0     H42329   3.076   8.192   6.669  1.2960  1.2223 -2.3763
  314MOL0     H42330   3.064   8.360   6.637 -1.2715  1.7146  0.8213
  314MOL0     H42331   3.265   8.390   6.782 -2.7794  0.6363 -0.5306
  314MOL0     H42332   3.226   8.241   6.863  0.8843 -2.8080 -1.2923
  314MOL0     H42333   3.404   8.169   6.744  3.7383  2.4796 -1.9682
  314MOL0     H42334   3.271   8.125   6.624  1.8781  0.9398 -2.2659
  314MOL0     H42335   3.326   8.368   6.525 -1.3077 -0.9261  0.9996
  314MOL0     H42336   3.460   8.376   6.641 -0.6167 -1.4511  2.1729
  314MOL0     H42337   3.431   8.144   6.447 -0.0632  0.5964  0.9455
  314MOL0     H42338   3.526   8.297   6.407  2.6249  1.0045  1.8442
  314MOL0     H42339   3.682   8.106   6.491  2.3116  1.1476  0.2319
  314MOL0     H42340   3.574   8.100   6.637 -1.6276  1.1829 -0.1990
  314MOL0     H42341   3.818   8.328   6.457  3.0337 -1.5379  0.5732
  314MOL0     H42342   3.970   8.546   6.746 -1.7599  0.1022 -0.2530
  314MOL0     H42343   4.041   8.453   6.612  0.2136  0.8175 -1.5584
  314MOL0     H42344   3.827   8.666   6.570 -1.5521 -1.3694 -1.9143
  314MOL0     H42345   3.923   8.581   6.443 -0.1649  0.3357 -0.4487
  314MOL0     H42346   4.138   8.654   6.549  0.7269  1.1230  2.5250
  314MOL0     H42347   4.063   8.732   6.675  0.8433 -0.2727  0.2347
  314MOL0     H42348   4.088   8.808   6.381 -0.8895 -1.9162 -1.1312
  314MOL0     H42349   4.087   8.917   6.523 -1.9366 -1.1433  0.7875
  314MOL0     H42350   4.100   9.042   6.342 -0.5949  0.7197  1.3435
  314MOL0     H42351   4.177   9.161   6.136 -0.2016 -1.9768  2.2823
  314MOL0     H42352   4.080   9.298   6.070  0.5832  0.0303  0.0705
  314MOL0     H42353   4.117   9.304   6.235  4.1299  0.8376 -1.8099
  314MOL0     H42354   3.930   9.200   5.633 -1.7179  0.3798 -1.3369
  314MOL0     H42355   3.936   9.389   5.475 -2.0564 -2.9057 -0.0911
  314MOL0     H42356   3.683   9.558   5.472 -0.0230 -0.3463  0.0527
  314MOL0     H42357   3.669   9.703   5.580 -0.0302  1.1129  0.1700
  314MOL0     H42358   3.615   9.783   5.354  0.7950 -2.2857 -3.2106
  314MOL0     H42359   3.767   9.835   5.373  1.4052  0.5059 -0.4010
  314MOL0     H42360   3.635   9.598   5.241 -0.5351 -1.8803 -0.3304
  314MOL0     H42361   3.807   9.574   5.277  1.3103  1.7351  1.1176
  314MOL0     H42362   3.761   9.626   5.026 -1.1802  0.9208 -0.9577
  314MOL0     H42363   3.708   9.783   5.064  0.4083 -0.1839 -0.3363
  314MOL0     H42364   3.983   9.661   5.106  2.1357  2.0073  0.9364
  314MOL0     H42365   3.939   9.802   5.205  0.2896  1.6659 -1.5811
  314MOL0     H42366   3.945   9.752   4.909  1.5322 -1.3241  0.8239
  314MOL0     H42367   3.897   9.917   4.980  0.3950  1.1377  1.1296
  314MOL0     H42368   4.163   9.806   5.066  0.3741 -0.6531  0.2503
  314MOL0     H42369   4.105   9.960   5.060 -1.6544 -0.9001 -0.5983
  314MOL0     H42370   4.157   9.839   4.784  0.0411  2.4420 -2.5047
  314MOL0     H42371   4.265   9.935   4.884  1.0195 -2.4135 -2.6379
  314MOL0     H42372   3.854   9.660   5.788  0.1252  0.6855  0.9561
  314MOL0     H42373   3.875   9.479   5.958 -3.2767  1.2155  0.5070
  314MOL0     H42374   3.644   9.073   6.164 -1.0250  1.1061  2.8494
  314MOL0     H42375   3.684   8.943   6.352 -0.1220 -1.3325 -0.8614
  314MOL0     H42376   2.535   8.368   7.021 -2.0708  2.1727 -0.4194
  314MOL0     H42377   2.322   8.278   6.992 -1.7999 -0.0063 -1.0112
  314MOL0     H42378   1.999   8.137   6.906  0.4439 -0.9155 -0.0781
  314MOL0     H42379   1.796   8.006   6.965  0.1558  1.2531  0.0959
  314MOL0     H42380   1.666   7.810   6.973  0.8761 -1.0379 -1.6161
  314MOL0     H42381   1.553   7.939   6.940  0.6386 -1.6109  0.7917
  314MOL0     H42382   1.514   7.647   6.873 -0.2568  0.5166 -1.0621
  314MOL0     H42383   1.405   7.781   6.812 -0.3850  3.5768  1.7757
  314MOL0     H42384   1.342   7.847   7.030 -1.1449 -0.5602  0.7621
  314MOL0     H42385   1.450   7.730   7.111  1.7295 -0.7014 -2.0852
  314MOL0     H42386   1.220   7.627   6.929 -1.0894 -3.1398  0.4652
  314MOL0     H42387   1.221   7.649   7.110 -0.3402 -2.3030  0.9935
  314MOL0     H42388   1.469   7.306   7.061 -0.2540 -1.0479 -1.3298
  314MOL0     H42389   1.780   7.859   6.555  0.3875  2.1479 -1.8309
  314MOL0     H42390   1.998   7.975   6.506 -1.1934  0.3219  0.2549
  315MOL0     O42391   1.654   8.832   6.939  0.6279 -0.2261  0.5549
  315MOL0     C42392   1.745   8.864   6.855  0.5572  0.4702  0.0542
  315MOL0     O42393   1.723   8.861   6.724 -0.0726 -0.0416 -0.4081
  315MOL0     C42394   1.599   8.904   6.671 -0.2853  0.4163  0.5751
  315MOL0     C42395   1.501   8.975   6.737 -0.4334 -0.4168  0.3895
  315MOL0     C42396   1.384   9.010   6.659 -0.8109 -0.5980 -0.7621
  315MOL0     C42397   1.375   8.964   6.528  1.1377 -0.2556  0.8434
  315MOL0     O42398   1.257   8.991   6.459 -0.0632  0.2262  0.0673
  315MOL0     C42399   1.148   8.903   6.494  0.0244  0.1292 -0.2924
  315MOL0     C42400   1.022   8.975   6.451 -0.2724 -0.0991 -0.7420
  315MOL0     C42401   0.893   8.898   6.502 -0.2480  0.3444 -0.2988
  315MOL0     C42402   0.770   8.994   6.498  0.2201 -0.8728 -0.5017
  315MOL0     C42403   0.647   8.912   6.531 -0.1039  0.0722  0.2409
  315MOL0     C42404   0.512   8.982   6.534 -0.5912  0.2185 -0.2453
  315MOL0     C42405   0.390   8.876   6.533 -0.4141 -0.2881 -0.0115
  315MOL0     C42406   0.256   8.941   6.545 -0.1184 -0.0090  0.3172
  315MOL0     N42407   0.210   9.056   6.454 -0.4649  0.3475  0.0379
  315MOL0     C42408   0.161   9.179   6.498 -0.2680  0.0164  0.2802
  315MOL0     C42409   0.124   9.245   6.388 -0.2611 -0.1630  0.5777
  315MOL0     C42410   0.057   9.380   6.398  0.2436  0.6644  0.7465
  315MOL0     C42411  -0.088   9.366   6.455  0.3502 -0.5986  0.9467
  315MOL0     C42412  -0.182   9.398   6.343 -0.0225  0.1572  0.3876
  315MOL0     C42413  -0.328   9.393   6.377 -0.3143 -0.2344 -0.5181
  315MOL0     O42414  -0.393   9.405   6.246  0.2926  0.0607 -0.3815
  315MOL0     C42415  -0.529   9.408   6.245 -0.1206 -0.7529 -1.3743
  315MOL0     C42416  -0.614   9.368   6.349 -0.1226 -0.0038  0.2413
  315MOL0     C42417  -0.754   9.386   6.337  0.4767  0.5505  0.9970
  315MOL0     C42418  -0.830   9.352   6.459  0.2626 -0.7985 -0.0049
  315MOL0     C42419  -0.808   9.447   6.216 -0.0010  0.3227 -1.0402
  315MOL0     C42420  -0.953   9.465   6.191  0.0704 -0.2208  0.1744
  315MOL0     O42421  -0.980   9.459   6.055  0.5755 -0.2692 -0.5352
  315MOL0     C42422  -1.107   9.475   6.014  0.0377 -0.1420  1.2498
  315MOL0     C42423  -1.118   9.524   5.875  0.5478  0.7713  0.0713
  315MOL0     C42424  -1.239   9.525   5.812 -0.1178  0.2879  0.6954
  315MOL0     C42425  -1.351   9.481   5.882  1.0600 -0.1334  0.2495
  315MOL0     O42426  -1.468   9.443   5.815  0.7646 -0.6913 -0.2664
  315MOL0     C42427  -1.520   9.521   5.712 -0.0860  1.1719 -0.1284
  315MOL0     C42428  -1.639   9.434   5.651  0.3550 -0.5384 -0.6734
  315MOL0     C42429  -1.675   9.510   5.521  1.1256  0.8414 -0.7126
  315MOL0     C42430  -1.797   9.452   5.450 -0.2974  0.1419  0.1274
  315MOL0     C42431  -1.782   9.492   5.299 -0.3338 -0.2682 -0.4504
  315MOL0     C42432  -1.916   9.472   5.228 -0.9567  0.3378 -0.7766
  315MOL0     C42433  -1.914   9.554   5.097 -0.4211 -0.6369  1.0147
  315MOL0     C42434  -1.834   9.509   4.975  0.3086  0.0582  0.7049
  315MOL0    Cl42435  -1.857   9.331   4.953 -0.1178  0.1893 -0.2759
  315MOL0     C42436  -1.347   9.439   6.012  0.3648 -0.5991  0.0969
  315MOL0     C42437  -1.229   9.431   6.077 -0.6244 -0.7211  0.6312
  315MOL0     O42438  -1.026   9.489   6.283 -0.6068 -0.6967 -1.1796
  315MOL0     C42439  -0.714   9.507   6.124 -0.2786  0.2764 -1.3411
  315MOL0     C42440  -0.575   9.482   6.135  0.0112  0.4300  0.1753
  315MOL0     N42441   0.144   9.164   6.277  0.5884 -0.0584  0.1114
  315MOL0     N42442   0.198   9.053   6.316 -0.6052 -0.2690 -0.4216
  315MOL0     C42443   1.472   8.888   6.472  0.4066 -1.0531 -0.3152
  315MOL0     C42444   1.585   8.863   6.542 -0.1930  0.6339 -0.0870
  315MOL0     C42445   1.884   8.880   6.908  0.7597 -0.7781 -0.6939
  315MOL0     C42446   1.919   8.873   7.047  0.0311  0.1061  0.4616
  315MOL0     C42447   2.050   8.891   7.093  0.3730  0.0185  0.2813
  315MOL0     C42448   2.154   8.918   7.004  0.3043 -0.4841 -0.3061
  315MOL0     O42449   2.285   8.944   7.045 -0.0905 -0.3505 -0.0798
  315MOL0     C42450   2.316   8.980   7.181  0.6714 -0.2495  0.6697
  315MOL0     C42451   2.461   9.029   7.189  0.2744  0.2666  0.7044
  315MOL0     C42452   2.506   9.059   7.337  0.5616  0.6369 -0.2477
  315MOL0     C42453   2.502   9.211   7.358  0.5802  0.0308  0.1394
  315MOL0     C42454   2.562   9.249   7.487 -0.2202  0.7972  0.0177
  315MOL0     C42455   2.624   9.274   7.592 -0.0924 -0.2547 -0.8019
  315MOL0     C42456   2.115   8.940   6.872 -0.0614 -0.4388  0.1023
  315MOL0     C42457   1.984   8.922   6.824  0.3853 -0.9839  0.9431
  315MOL0     H42458   1.514   9.021   6.834  0.1410  0.1493  0.0556
  315MOL0     H42459   1.307   9.074   6.701 -2.4380 -1.1121 -2.8245
  315MOL0     H42460   1.154   8.809   6.440  0.2821  0.5435 -1.0007
  315MOL0     H42461   1.149   8.888   6.602 -2.0107  0.3519 -0.1984
  315MOL0     H42462   1.027   9.073   6.500 -0.1556 -0.4570 -0.0198
  315MOL0     H42463   1.019   8.994   6.344  1.9522  0.1106 -0.8233
  315MOL0     H42464   0.876   8.807   6.444  0.9794 -0.0892  0.0152
  315MOL0     H42465   0.912   8.860   6.602  0.0026  0.4834 -0.2922
  315MOL0     H42466   0.778   9.084   6.560  1.2882  0.1247 -2.0080
  315MOL0     H42467   0.766   9.024   6.393  2.1647  1.3423 -0.0274
  315MOL0     H42468   0.642   8.829   6.459  0.9707  1.2255 -1.2367
  315MOL0     H42469   0.667   8.870   6.630  1.3244  0.9550  0.3536
  315MOL0     H42470   0.515   9.048   6.621  1.8533 -2.2342  1.6947
  315MOL0     H42471   0.494   9.040   6.442 -1.9642  0.1355 -0.0614
  315MOL0     H42472   0.395   8.815   6.443  2.5276  0.4440 -0.4753
  315MOL0     H42473   0.395   8.808   6.618  1.4888 -1.6692 -1.1429
  315MOL0     H42474   0.242   8.984   6.645 -1.7529 -0.8648  0.5015
  315MOL0     H42475   0.181   8.860   6.551 -1.6625  1.3419 -0.0113
  315MOL0     H42476   0.173   9.229   6.594 -0.9705  0.5245  0.1097
  315MOL0     H42477   0.099   9.455   6.466 -0.3715  2.0304 -0.3374
  315MOL0     H42478   0.055   9.429   6.301  3.2208 -2.7158 -1.2872
  315MOL0     H42479  -0.102   9.423   6.547  1.1083 -1.6536  1.7313
  315MOL0     H42480  -0.093   9.262   6.487  3.7296 -0.4123  2.4641
  315MOL0     H42481  -0.166   9.315   6.273 -0.0599 -0.9389  1.6383
  315MOL0     H42482  -0.169   9.493   6.291 -1.9528 -0.4970 -1.4273
  315MOL0     H42483  -0.358   9.459   6.459  0.8894 -0.0159 -0.2487
  315MOL0     H42484  -0.346   9.290   6.411  3.3158 -1.1589 -1.0495
  315MOL0     H42485  -0.576   9.313   6.435 -0.7586 -0.2044  0.3987
  315MOL0     H42486  -0.778   9.299   6.540 -1.4722  0.2284  1.8807
  315MOL0     H42487  -0.863   9.445   6.507 -1.3901 -0.6644 -1.3216
  315MOL0     H42488  -0.923   9.305   6.428 -0.2205  0.8287 -1.1500
  315MOL0     H42489  -1.030   9.557   5.820  0.8668  0.0746  0.1607
  315MOL0     H42490  -1.257   9.553   5.709 -1.5896  3.3057  1.6496
  315MOL0     H42491  -1.564   9.609   5.760 -0.6669  2.1964 -2.4156
  315MOL0     H42492  -1.447   9.548   5.636  0.6113 -1.2297 -0.3914
  315MOL0     H42493  -1.613   9.329   5.634  4.5362  0.3183 -0.7698
  315MOL0     H42494  -1.732   9.444   5.708  0.3682  2.3902 -1.0425
  315MOL0     H42495  -1.589   9.512   5.454  3.6115  0.9472  2.2841
  315MOL0     H42496  -1.708   9.610   5.552 -0.8795 -0.4698  1.7699
  315MOL0     H42497  -1.798   9.342   5.443 -4.7907 -0.0269  0.4531
  315MOL0     H42498  -1.890   9.485   5.496 -2.1623 -0.0267 -3.2245
  315MOL0     H42499  -1.702   9.431   5.257 -0.2935 -1.1206  0.8023
  315MOL0     H42500  -1.768   9.600   5.294 -2.8648  0.0931 -0.9623
  315MOL0     H42501  -1.926   9.365   5.209 -1.2115 -0.2888  2.3649
  315MOL0     H42502  -1.990   9.526   5.288 -0.1367  1.9978 -1.1911
  315MOL0     H42503  -1.886   9.655   5.128 -0.7704  0.4631 -1.9422
  315MOL0     H42504  -2.016   9.572   5.062  0.1360  0.5533 -0.0955
  315MOL0     H42505  -1.731   9.531   5.005 -0.1366  3.6909  0.0146
  315MOL0     H42506  -1.868   9.556   4.882  1.2111 -3.1504 -1.4464
  315MOL0     H42507  -1.439   9.409   6.060 -0.3013 -1.4407 -1.6320
  315MOL0     H42508  -1.234   9.390   6.178  3.8039 -0.5117  1.1059
  315MOL0     H42509  -0.758   9.552   6.035  1.5742  0.0652 -2.4092
  315MOL0     H42510  -0.509   9.516   6.056 -0.6739  0.8675 -0.2135
  315MOL0     H42511   1.471   8.861   6.367 -1.5338  0.0059 -0.6187
  315MOL0     H42512   1.656   8.798   6.492 -1.7838 -1.6761  0.5467
  315MOL0     H42513   1.835   8.855   7.113 -1.2257 -1.4175 -1.4646
  315MOL0     H42514   2.074   8.876   7.198 -0.8503  1.8273  0.8779
  315MOL0     H42515   2.246   9.062   7.198 -0.6495 -1.0464 -0.6745
  315MOL0     H42516   2.296   8.896   7.248 -0.3927  0.5052  1.3232
  315MOL0     H42517   2.485   9.115   7.125  2.0413 -1.5584 -1.2569
  315MOL0     H42518   2.520   8.948   7.145 -3.5297 -2.7577  0.6282
  315MOL0     H42519   2.596   9.010   7.373  0.4798  3.1117  4.0439
  315MOL0     H42520   2.432   9.014   7.404  0.6160  0.5151 -0.2703
  315MOL0     H42521   2.401   9.251   7.354  0.1865 -0.7936  1.4600
  315MOL0     H42522   2.567   9.265   7.288 -0.4502  4.3476  2.1945
  315MOL0     H42523   2.661   9.293   7.691 -3.2240 -1.6478  0.7534
  315MOL0     H42524   2.195   8.953   6.799  0.4899  1.8416  1.0347
  315MOL0     H42525   1.962   8.913   6.718  1.1250  1.1376  0.5612
  316MOL0     O42526   6.761   9.292   2.615  0.0889  1.0325  0.0932
  316MOL0     C42527   6.857   9.367   2.604  0.4694  0.2598  0.0048
  316MOL0     O42528   6.854   9.501   2.626 -0.0413 -0.1793  0.1144
  316MOL0     C42529   6.723   9.556   2.629  0.0222  0.0469 -0.7218
  316MOL0     C42530   6.672   9.620   2.743  0.3516  0.5115 -0.2631
  316MOL0     C42531   6.540   9.666   2.746  0.3612 -0.8743  0.1027
  316MOL0     C42532   6.457   9.661   2.630  0.0439  0.2630 -0.4609
  316MOL0     O42533   6.322   9.694   2.630  0.4244  0.6009  0.0039
  316MOL0     C42534   6.270   9.752   2.746 -0.5694  0.8077  0.2319
  316MOL0     C42535   6.124   9.789   2.730 -0.4713  0.0712  0.2289
  316MOL0     C42536   6.024   9.681   2.683  0.0006  0.2548  0.8288
  316MOL0     C42537   5.873   9.710   2.711 -0.4102  0.2664  0.3009
  316MOL0     C42538   5.834   9.692   2.859 -0.0572 -0.2845  0.1379
  316MOL0     C42539   5.686   9.695   2.873  0.4064 -0.3875 -0.4978
  316MOL0     C42540   5.656   9.700   3.025  0.3259  0.1392  0.5676
  316MOL0     C42541   5.510   9.670   3.064 -0.6661  0.0338  0.4830
  316MOL0     N42542   5.400   9.744   2.997  1.2523  0.2914  0.1052
  316MOL0     C42543   5.277   9.765   3.054 -0.5486  0.0993  0.2557
  316MOL0     C42544   5.201   9.813   2.956 -0.3851  0.3918 -0.3582
  316MOL0     C42545   5.057   9.837   2.967  0.1272 -0.8359  0.2808
  316MOL0     C42546   4.984   9.783   2.842 -0.7461 -0.2881  0.4263
  316MOL0     C42547   4.836   9.825   2.851 -0.9656 -0.1592  0.7029
  316MOL0     C42548   4.743   9.733   2.763  0.4105 -0.3229  0.1989
  316MOL0     O42549   4.611   9.722   2.811 -0.2048 -0.3247  0.2276
  316MOL0     C42550   4.532   9.616   2.786  0.0312 -0.6520 -0.1456
  316MOL0     C42551   4.525   9.548   2.668  0.0095  0.2271  0.7119
  316MOL0     C42552   4.432   9.451   2.643  0.0659  0.1108  0.7199
  316MOL0     C42553   4.444   9.384   2.510 -0.9279 -0.4634 -0.4159
  316MOL0     C42554   4.324   9.433   2.730  0.3314 -0.1450 -0.3061
  316MOL0     C42555   4.197   9.355   2.709  0.1691 -0.7165 -1.1456
  316MOL0     O42556   4.115   9.340   2.816 -0.5906 -0.6550  0.5163
  316MOL0     C42557   3.994   9.275   2.818 -0.6846 -0.2881 -0.3828
  316MOL0     C42558   3.880   9.329   2.879  0.0088 -0.1389  0.0693
  316MOL0     C42559   3.761   9.264   2.901  0.2854  0.3945  0.4720
  316MOL0     C42560   3.747   9.134   2.840  0.1636 -0.0952 -0.4044
  316MOL0     O42561   3.631   9.062   2.834  0.2536  0.3203  0.6271
  316MOL0     C42562   3.503   9.134   2.853 -0.6598 -0.3430 -0.0246
  316MOL0     C42563   3.403   9.049   2.791  0.2473 -0.2898 -0.2579
  316MOL0     C42564   3.424   9.044   2.642  0.3023  0.0295 -0.5041
  316MOL0     C42565   3.318   8.942   2.605  1.6040 -0.1017 -0.1023
  316MOL0     C42566   3.324   8.922   2.452  0.0910  0.3108 -0.0681
  316MOL0     C42567   3.201   8.850   2.406 -0.0570 -0.5074  0.0697
  316MOL0     C42568   3.068   8.927   2.419 -0.5970  0.0816  0.1278
  316MOL0     C42569   2.959   8.875   2.335 -0.3434 -0.0166 -0.6322
  316MOL0    Cl42570   2.906   8.714   2.400  0.4522 -0.1137  0.0070
  316MOL0     C42571   3.851   9.079   2.773 -0.2026  0.3760  0.4966
  316MOL0     C42572   3.974   9.141   2.766 -0.0722  0.2138 -0.9591
  316MOL0     O42573   4.192   9.298   2.604  0.1642  0.1928 -0.1632
  316MOL0     C42574   4.334   9.497   2.855 -0.0091  0.8712 -0.0602
  316MOL0     C42575   4.439   9.583   2.883  0.3152 -0.1343 -0.4341
  316MOL0     N42576   5.279   9.819   2.839 -0.9166  0.1164 -0.0143
  316MOL0     N42577   5.393   9.776   2.867  0.5060  0.1512 -0.0574
  316MOL0     C42578   6.519   9.628   2.505  0.6960  1.0872 -0.1017
  316MOL0     C42579   6.647   9.568   2.512 -0.0713  0.2112 -0.1739
  316MOL0     C42580   6.995   9.319   2.571 -0.5212  1.2456 -0.0571
  316MOL0     C42581   7.098   9.412   2.564 -0.2172 -0.1122 -0.0019
  316MOL0     C42582   7.231   9.369   2.552  0.1963  0.0422 -0.1497
  316MOL0     C42583   7.262   9.229   2.547  0.5239 -0.3110  0.3235
  316MOL0     O42584   7.377   9.169   2.500  0.4497  0.3948 -0.1441
  316MOL0     C42585   7.485   9.265   2.496  0.0670  0.1639 -1.4380
  316MOL0     C42586   7.612   9.203   2.447 -1.2336 -0.3647 -0.1260
  316MOL0     C42587   7.660   9.103   2.547 -0.7090  0.1687 -0.7159
  316MOL0     C42588   7.788   9.040   2.517 -0.2446 -0.2113  0.5423
  316MOL0     C42589   7.814   8.920   2.605 -0.3264  0.1961  0.0558
  316MOL0     C42590   7.850   8.822   2.662  0.3824  1.2597 -0.6500
  316MOL0     C42591   7.147   9.138   2.544  0.4479  0.1245 -0.0183
  316MOL0     C42592   7.015   9.184   2.553 -0.2192  0.7049 -0.6152
  316MOL0     H42593   6.725   9.606   2.836 -0.9641  0.7702  0.5510
  316MOL0     H42594   6.497   9.701   2.839  2.6904 -0.1587  0.9793
  316MOL0     H42595   6.272   9.677   2.826  0.3773  1.3494  0.7218
  316MOL0     H42596   6.329   9.841   2.767  0.2836  0.1961  0.4727
  316MOL0     H42597   6.090   9.825   2.827  0.3458  1.4673  0.0207
  316MOL0     H42598   6.125   9.869   2.655 -0.7657  0.4501  0.6272
  316MOL0     H42599   6.024   9.680   2.574 -1.5105  1.7791  0.7710
  316MOL0     H42600   6.063   9.588   2.727  0.9210  0.0614 -0.3571
  316MOL0     H42601   5.829   9.801   2.670 -4.1506 -0.9679  1.1988
  316MOL0     H42602   5.818   9.628   2.663 -0.7724  0.0818  1.0089
  316MOL0     H42603   5.881   9.610   2.913  1.2460  0.3111 -0.0413
  316MOL0     H42604   5.871   9.781   2.912 -3.2532  0.3641  1.5074
  316MOL0     H42605   5.652   9.783   2.818 -2.1062 -0.4343  0.8367
  316MOL0     H42606   5.644   9.609   2.821  1.1992 -1.2344  0.2308
  316MOL0     H42607   5.717   9.630   3.082  0.9610 -1.8751 -2.3652
  316MOL0     H42608   5.659   9.805   3.056  0.4732  0.7551 -1.4342
  316MOL0     H42609   5.501   9.688   3.172 -2.9082  0.9132  0.1824
  316MOL0     H42610   5.496   9.561   3.058 -1.2073 -0.1155  3.0087
  316MOL0     H42611   5.248   9.750   3.158  2.4468 -1.0570  1.0218
  316MOL0     H42612   5.012   9.792   3.057 -0.4006  0.0942  0.5042
  316MOL0     H42613   5.049   9.947   2.967  1.2363 -0.7416 -0.4830
  316MOL0     H42614   4.992   9.674   2.837  2.0319 -0.1000 -2.2209
  316MOL0     H42615   5.025   9.818   2.747  0.6693 -0.1457  1.0736
  316MOL0     H42616   4.808   9.930   2.838  0.0614  0.1192  0.6623
  316MOL0     H42617   4.818   9.794   2.955  2.1234 -0.4918  1.2301
  316MOL0     H42618   4.789   9.634   2.759 -0.1814 -0.6871  1.8550
  316MOL0     H42619   4.734   9.771   2.661 -1.4060 -0.9218  0.1033
  316MOL0     H42620   4.603   9.546   2.592 -1.3335 -0.7369 -0.6836
  316MOL0     H42621   4.553   9.378   2.498 -0.7904  0.8718 -0.0111
  316MOL0     H42622   4.407   9.282   2.496  1.6872 -1.1707 -3.3472
  316MOL0     H42623   4.407   9.448   2.430 -0.9804  0.3384  0.2344
  316MOL0     H42624   3.882   9.431   2.917 -0.8324  0.0936 -0.4887
  316MOL0     H42625   3.679   9.304   2.960  0.3391  0.3568  0.5718
  316MOL0     H42626   3.481   9.146   2.960  2.2952 -0.2511  0.6768
  316MOL0     H42627   3.504   9.233   2.806  0.3649 -0.5685 -0.5036
  316MOL0     H42628   3.402   8.954   2.846  0.1453 -0.1052  0.0559
  316MOL0     H42629   3.305   9.093   2.809  2.0215  3.4961  1.1549
  316MOL0     H42630   3.525   9.004   2.625  0.2222 -0.0139 -0.8864
  316MOL0     H42631   3.411   9.142   2.595 -0.4937 -0.3808 -1.1671
  316MOL0     H42632   3.334   8.849   2.659  2.3626  0.8303  1.3216
  316MOL0     H42633   3.222   8.980   2.642  1.8771  0.7252 -0.2105
  316MOL0     H42634   3.409   8.863   2.418 -0.2717 -0.0441 -0.3788
  316MOL0     H42635   3.331   9.016   2.396  0.9028  1.3708  1.7374
  316MOL0     H42636   3.209   8.838   2.298 -0.7200  2.2409 -0.3517
  316MOL0     H42637   3.192   8.748   2.447 -0.0141 -0.2537  0.7163
  316MOL0     H42638   3.092   9.031   2.393  0.5120 -0.3242 -0.5203
  316MOL0     H42639   3.040   8.923   2.524  2.8237  1.5020  1.2424
  316MOL0     H42640   2.977   8.859   2.229 -0.1368 -0.7735 -0.4868
  316MOL0     H42641   2.877   8.947   2.341  0.6162  1.0078  1.1727
  316MOL0     H42642   3.830   8.984   2.725 -2.1197  0.1597  1.6513
  316MOL0     H42643   4.058   9.083   2.727  0.0280  0.5477 -1.2427
  316MOL0     H42644   4.256   9.478   2.928  1.2786  0.5163  1.2826
  316MOL0     H42645   4.449   9.637   2.976 -2.1000 -2.0197  1.0458
  316MOL0     H42646   6.470   9.605   2.411  1.3388  1.5661 -0.5559
  316MOL0     H42647   6.699   9.534   2.424  1.8614 -2.8772  1.9526
  316MOL0     H42648   7.085   9.520   2.570  4.7949  0.6673  2.0053
  316MOL0     H42649   7.308   9.444   2.538 -0.9666  1.1287 -0.9164
  316MOL0     H42650   7.461   9.352   2.434 -1.4248  0.2204 -0.8309
  316MOL0     H42651   7.499   9.302   2.598  1.1286  1.3726 -1.9966
  316MOL0     H42652   7.705   9.261   2.445  0.3752 -2.7941 -1.3147
  316MOL0     H42653   7.589   9.151   2.353 -1.9063  2.8986 -1.8983
  316MOL0     H42654   7.587   9.021   2.547  1.6589 -2.0396 -0.9578
  316MOL0     H42655   7.669   9.159   2.641 -1.1550 -1.2950  0.2247
  316MOL0     H42656   7.874   9.106   2.534 -1.4997  1.7038 -0.3247
  316MOL0     H42657   7.787   9.010   2.412 -3.1652  1.9838 -0.1781
  316MOL0     H42658   7.897   8.746   2.721  0.5435  1.4415 -0.5418
  316MOL0     H42659   7.151   9.035   2.509 -0.9554  0.6838 -1.9560
  316MOL0     H42660   6.926   9.123   2.543  0.0483 -0.1341  1.5404
  317MOL0     O42661   7.967   1.227   8.602 -0.1487 -0.5332  0.0696
  317MOL0     C42662   8.001   1.196   8.486 -0.5002 -0.4979 -0.2397
  317MOL0     O42663   8.128   1.193   8.441 -0.4806  0.5298 -0.0989
  317MOL0     C42664   8.228   1.220   8.530  0.8218  1.3200 -0.2395
  317MOL0     C42665   8.263   1.355   8.564 -0.5124  0.2784  1.0152
  317MOL0     C42666   8.353   1.385   8.664  0.4462  0.3958  0.2955
  317MOL0     C42667   8.407   1.281   8.731  0.2708  0.3620 -0.1530
  317MOL0     O42668   8.492   1.326   8.829  0.1023  0.4381 -0.2605
  317MOL0     C42669   8.611   1.251   8.846  0.1255 -0.3143 -0.3381
  317MOL0     C42670   8.701   1.323   8.949 -0.3497  0.5279  0.3000
  317MOL0     C42671   8.647   1.297   9.089  0.3186 -1.1010  0.7938
  317MOL0     C42672   8.728   1.357   9.207 -0.0342  0.8059 -0.4949
  317MOL0     C42673   8.672   1.328   9.348  0.4524  0.2108 -0.7229
  317MOL0     C42674   8.535   1.386   9.381 -0.5272  0.9601  0.2376
  317MOL0     C42675   8.539   1.539   9.391 -0.2578  1.2801  0.5560
  317MOL0     C42676   8.390   1.576   9.405  0.3081  0.2505  0.2482
  317MOL0     N42677   8.387   1.716   9.439  0.5477  0.8124 -0.7457
  317MOL0     C42678   8.289   1.766   9.523 -0.3209 -0.2709  0.5492
  317MOL0     C42679   8.272   1.894   9.478 -0.5146  0.5909  0.2867
  317MOL0     C42680   8.149   1.962   9.510 -0.5986  0.7494 -0.6312
  317MOL0     C42681   8.111   2.056   9.400  0.1232 -0.3670  0.1356
  317MOL0     C42682   7.975   2.138   9.427 -0.1142  0.2849  0.6400
  317MOL0     C42683   7.961   2.241   9.313  0.4068 -0.3388 -0.0126
  317MOL0     O42684   7.982   2.177   9.189  0.2357  0.2442 -0.6502
  317MOL0     C42685   7.865   2.111   9.140 -0.3818 -1.1076 -0.1560
  317MOL0     C42686   7.734   2.139   9.163  0.1092 -0.0398 -0.1163
  317MOL0     C42687   7.625   2.063   9.103 -0.1150 -0.5239  0.5692
  317MOL0     C42688   7.491   2.094   9.153  0.4709 -0.0260  0.1493
  317MOL0     C42689   7.654   1.964   9.011  0.1951 -0.4866  0.1664
  317MOL0     C42690   7.554   1.886   8.940 -0.6730  0.1442  0.5114
  317MOL0     O42691   7.583   1.753   8.909 -0.0753 -0.4408 -0.0889
  317MOL0     C42692   7.515   1.682   8.804  0.0831 -0.6994 -0.6208
  317MOL0     C42693   7.500   1.550   8.828 -0.1462  0.9608  0.1173
  317MOL0     C42694   7.446   1.473   8.727 -0.8145  0.5410 -0.2736
  317MOL0     C42695   7.414   1.520   8.599  0.5445 -0.5933 -0.1967
  317MOL0     O42696   7.363   1.447   8.492 -0.3657  0.4874 -0.2550
  317MOL0     C42697   7.327   1.312   8.522  0.2566  0.3230  0.0946
  317MOL0     C42698   7.205   1.283   8.613  0.6166 -0.4877 -0.1440
  317MOL0     C42699   7.070   1.332   8.547  0.2192  0.0430 -0.3570
  317MOL0     C42700   6.970   1.231   8.481 -0.1004  0.3967 -0.7448
  317MOL0     C42701   6.835   1.301   8.459  0.0090  0.8137  0.1881
  317MOL0     C42702   6.732   1.223   8.378  0.0873 -0.1107  0.5583
  317MOL0     C42703   6.587   1.277   8.370  0.1955  0.4390 -0.3268
  317MOL0     C42704   6.521   1.210   8.252  0.8862 -0.1850 -0.4994
  317MOL0    Cl42705   6.545   1.323   8.109 -0.2294 -0.4696  0.1410
  317MOL0     C42706   7.443   1.652   8.580 -0.2708  0.5001  0.6377
  317MOL0     C42707   7.486   1.734   8.673  0.7361  0.7319 -0.1926
  317MOL0     O42708   7.452   1.942   8.900  0.1423 -0.0297 -0.7850
  317MOL0     C42709   7.793   1.955   8.979 -1.2958 -0.6369  0.8071
  317MOL0     C42710   7.892   2.018   9.052  0.1557 -0.5055  0.0272
  317MOL0     N42711   8.372   1.916   9.390  0.2787 -0.0445  0.5167
  317MOL0     N42712   8.444   1.812   9.368 -0.3279 -0.0937  0.0052
  317MOL0     C42713   8.369   1.147   8.708  0.1496  0.3835  0.2363
  317MOL0     C42714   8.275   1.119   8.607 -0.4774  0.7781  0.3751
  317MOL0     C42715   7.887   1.170   8.398 -0.4504  1.0364  1.1785
  317MOL0     C42716   7.899   1.141   8.261 -0.7090 -0.1012 -0.0958
  317MOL0     C42717   7.794   1.124   8.178  0.2596 -0.7230  0.1457
  317MOL0     C42718   7.667   1.126   8.223 -0.4308  0.7330  0.0207
  317MOL0     O42719   7.565   1.094   8.138 -0.3613  0.3097 -0.7632
  317MOL0     C42720   7.429   1.119   8.174  1.0973 -0.1649 -0.2808
  317MOL0     C42721   7.315   1.125   8.070  0.0002 -0.3161 -0.3466
  317MOL0     C42722   7.275   0.990   8.028 -0.1764 -0.1115 -0.0624
  317MOL0     C42723   7.175   0.981   7.900  0.1133  0.1306  0.0683
  317MOL0     C42724   7.058   1.071   7.928 -0.1931 -0.5077  0.1751
  317MOL0     C42725   6.966   1.133   7.981 -0.7013 -0.2198  0.0080
  317MOL0     C42726   7.649   1.167   8.357 -0.2067 -1.1020 -0.0950
  317MOL0     C42727   7.752   1.191   8.442 -0.5984 -0.0402 -0.4943
  317MOL0     H42728   8.219   1.431   8.500 -2.2427 -1.2843  0.2789
  317MOL0     H42729   8.383   1.486   8.689 -0.5349  0.1519  2.8295
  317MOL0     H42730   8.597   1.147   8.874  4.0051 -1.9597 -3.5658
  317MOL0     H42731   8.667   1.247   8.752  0.7999 -1.7610  0.1020
  317MOL0     H42732   8.807   1.299   8.939  0.5113  3.0370  2.2731
  317MOL0     H42733   8.691   1.430   8.929 -1.9677 -0.0043 -2.2011
  317MOL0     H42734   8.550   1.347   9.095 -0.0231 -1.5461 -0.5097
  317MOL0     H42735   8.646   1.188   9.098 -1.8061 -1.4956 -2.4989
  317MOL0     H42736   8.825   1.308   9.199 -1.2664 -1.9792  0.3839
  317MOL0     H42737   8.732   1.466   9.204 -2.7223  1.0829  1.4899
  317MOL0     H42738   8.644   1.222   9.359 -1.0634  0.8586  3.4024
  317MOL0     H42739   8.746   1.349   9.426  1.4360 -2.5264 -0.8106
  317MOL0     H42740   8.466   1.347   9.307 -0.7512 -4.6339  2.8934
  317MOL0     H42741   8.505   1.351   9.481 -0.0382 -0.2515 -0.0261
  317MOL0     H42742   8.591   1.580   9.477 -1.3852  2.0464  0.8988
  317MOL0     H42743   8.585   1.572   9.297  0.7105 -0.7013  0.2805
  317MOL0     H42744   8.345   1.525   9.491 -1.9562  1.1273 -0.3518
  317MOL0     H42745   8.333   1.557   9.314  0.1403 -1.1370  0.6092
  317MOL0     H42746   8.212   1.714   9.578 -1.4538  1.1084  0.3361
  317MOL0     H42747   8.061   1.898   9.528  1.2777 -1.8254  0.0488
  317MOL0     H42748   8.172   2.012   9.604 -0.4989  0.6115 -0.5836
  317MOL0     H42749   8.092   1.997   9.310 -0.3203 -0.0964  0.0516
  317MOL0     H42750   8.193   2.125   9.380 -0.3226  0.6466  1.6374
  317MOL0     H42751   7.989   2.196   9.518  1.2521  0.8474  0.0975
  317MOL0     H42752   7.887   2.073   9.425  1.0857 -1.4053 -1.2739
  317MOL0     H42753   8.036   2.321   9.313 -1.8100  1.8720 -0.9160
  317MOL0     H42754   7.865   2.293   9.315 -0.4640 -1.8496 -0.8820
  317MOL0     H42755   7.710   2.225   9.226  4.5298  0.4229  1.2917
  317MOL0     H42756   7.443   2.001   9.181  0.0298 -0.8539 -3.0262
  317MOL0     H42757   7.476   2.156   9.242 -0.7183 -0.3351  0.1745
  317MOL0     H42758   7.428   2.133   9.073 -1.1433 -1.8666  0.4473
  317MOL0     H42759   7.510   1.508   8.928 -1.0949  2.0982  0.7244
  317MOL0     H42760   7.432   1.372   8.763  0.2983  0.2798 -0.5430
  317MOL0     H42761   7.299   1.260   8.430  1.5404 -2.6536  1.2802
  317MOL0     H42762   7.408   1.254   8.568  0.4318 -1.2483 -2.0408
  317MOL0     H42763   7.191   1.177   8.632  0.3120 -0.1957  1.3748
  317MOL0     H42764   7.209   1.328   8.713  1.4223 -1.8248  0.4421
  317MOL0     H42765   7.109   1.399   8.471  1.3532 -0.1013  0.0774
  317MOL0     H42766   7.010   1.380   8.625 -1.0718  1.5656 -2.2025
  317MOL0     H42767   7.009   1.179   8.393 -1.6594 -3.9364  0.8864
  317MOL0     H42768   6.952   1.156   8.558  0.9195  2.0223  1.1676
  317MOL0     H42769   6.858   1.393   8.403  0.9028 -0.1721 -1.1355
  317MOL0     H42770   6.807   1.326   8.562  0.7279  0.8848  0.3705
  317MOL0     H42771   6.775   1.216   8.277 -0.0636 -2.2910  0.5879
  317MOL0     H42772   6.727   1.119   8.411 -0.5860  0.9818  4.4397
  317MOL0     H42773   6.585   1.386   8.364  0.6016  0.7386  3.1549
  317MOL0     H42774   6.525   1.252   8.456  0.0174 -0.5668 -0.7358
  317MOL0     H42775   6.412   1.210   8.265  0.9420 -0.9134  0.0326
  317MOL0     H42776   6.556   1.109   8.230 -1.4334 -0.5283 -3.1364
  317MOL0     H42777   7.433   1.709   8.488 -1.6187 -3.8205 -2.2015
  317MOL0     H42778   7.500   1.841   8.664 -0.6981  0.9552  0.0356
  317MOL0     H42779   7.825   1.884   8.903 -1.0478 -0.2572  0.5556
  317MOL0     H42780   7.993   1.997   9.019  0.1318 -0.1488 -0.2730
  317MOL0     H42781   8.396   1.056   8.762 -2.8045 -1.9311 -1.8580
  317MOL0     H42782   8.243   1.017   8.593  1.5569  0.2114 -0.4689
  317MOL0     H42783   7.994   1.144   8.209 -1.4116  0.0911 -1.3827
  317MOL0     H42784   7.809   1.102   8.073 -0.3299  1.1909 -0.3782
  317MOL0     H42785   7.402   1.058   8.261 -1.2499  1.8566  0.5257
  317MOL0     H42786   7.441   1.220   8.213  1.1678 -1.0059  2.0465
  317MOL0     H42787   7.331   1.194   7.987 -0.2927  3.2633  2.3137
  317MOL0     H42788   7.228   1.166   8.122 -1.1286  0.7605 -2.9307
  317MOL0     H42789   7.231   0.949   8.119  1.2137 -1.8960 -0.1353
  317MOL0     H42790   7.363   0.927   8.013 -0.2609 -0.5963  1.3432
  317MOL0     H42791   7.136   0.884   7.868  0.3476  0.1522 -0.2907
  317MOL0     H42792   7.230   1.012   7.810  0.2387 -0.0071  0.0975
  317MOL0     H42793   6.879   1.186   8.014 -0.2158 -0.3916  1.6418
  317MOL0     H42794   7.552   1.175   8.405  0.4104 -0.4511  1.1039
  317MOL0     H42795   7.723   1.227   8.540  1.4889  1.7354 -0.4656
  318MOL0     O42796   4.536   6.638   7.799  0.3309 -0.5635 -0.0486
  318MOL0     C42797   4.611   6.610   7.890  0.0519  0.6533  0.4596
  318MOL0     O42798   4.587   6.523   7.993 -0.8329 -0.0585 -0.0734
  318MOL0     C42799   4.464   6.463   7.996  0.6947  0.2181 -0.1702
  318MOL0     C42800   4.436   6.346   7.920  0.0075  1.2613  0.1782
  318MOL0     C42801   4.308   6.281   7.941  0.3110  0.7823  0.2049
  318MOL0     C42802   4.212   6.341   8.018  0.7424 -0.6833  0.2305
  318MOL0     O42803   4.094   6.270   8.039  0.5527 -0.4711  0.5126
  318MOL0     C42804   3.979   6.335   7.977  0.3504 -0.2848  0.3451
  318MOL0     C42805   3.892   6.404   8.078  0.3285  0.1180  0.4313
  318MOL0     C42806   3.747   6.415   8.031 -0.8568  0.8591  0.6353
  318MOL0     C42807   3.666   6.489   8.128  0.4194 -0.1678 -0.5959
  318MOL0     C42808   3.674   6.641   8.105  0.9309 -0.3794 -0.7406
  318MOL0     C42809   3.581   6.705   8.210  0.1839  0.6282 -0.2910
  318MOL0     C42810   3.558   6.859   8.194 -0.6607 -0.0429 -0.4783
  318MOL0     C42811   3.484   6.919   8.317 -1.0004 -0.4044  0.2303
  318MOL0     N42812   3.335   6.910   8.323  0.4682 -0.3674  0.0826
  318MOL0     C42813   3.241   6.828   8.381 -0.2342  0.3854 -0.3036
  318MOL0     C42814   3.122   6.879   8.341 -0.1718  0.3919  0.1904
  318MOL0     C42815   2.994   6.833   8.376  0.2014 -0.0005  0.5278
  318MOL0     C42816   2.945   6.739   8.264  0.4129  0.1577 -0.0233
  318MOL0     C42817   2.863   6.811   8.163  0.2997 -0.7514  0.0657
  318MOL0     C42818   2.824   6.718   8.046 -0.2704  0.2282 -0.6664
  318MOL0     O42819   2.724   6.771   7.955  0.6061 -0.0611 -0.0379
  318MOL0     C42820   2.587   6.742   7.968  0.2836  0.5825  0.1161
  318MOL0     C42821   2.520   6.771   7.851 -0.5840  0.2340  0.3263
  318MOL0     C42822   2.382   6.741   7.839 -0.5131 -0.9025 -0.3481
  318MOL0     C42823   2.301   6.770   7.709  0.4472  0.3241  0.5355
  318MOL0     C42824   2.317   6.683   7.951 -0.6132 -0.8168 -0.0197
  318MOL0     C42825   2.173   6.637   7.946 -0.5008 -0.0867  0.4286
  318MOL0     O42826   2.088   6.745   7.933 -0.1906 -0.7922  1.0232
  318MOL0     C42827   1.959   6.721   7.917 -0.0069  0.5300  0.2260
  318MOL0     C42828   1.894   6.754   7.795 -0.1295 -0.5196  0.6901
  318MOL0     C42829   1.759   6.726   7.786  0.7274 -1.0364  0.0441
  318MOL0     C42830   1.680   6.690   7.894 -0.4214  0.3954  0.3737
  318MOL0     O42831   1.546   6.676   7.893  0.3703  0.2726 -0.3459
  318MOL0     C42832   1.474   6.704   7.773  1.5263  0.0838 -0.4065
  318MOL0     C42833   1.328   6.724   7.807 -0.0234 -0.4167  0.3938
  318MOL0     C42834   1.240   6.739   7.681 -0.2548  0.7373 -0.2951
  318MOL0     C42835   1.091   6.769   7.726 -0.9815 -0.3856 -0.8723
  318MOL0     C42836   0.998   6.791   7.607 -0.5089 -0.0888 -1.0198
  318MOL0     C42837   0.858   6.820   7.655  0.4080 -0.1873 -0.2238
  318MOL0     C42838   0.762   6.836   7.533 -0.0743  0.3441 -0.5118
  318MOL0     C42839   0.621   6.802   7.581  0.1692  0.7321  1.0863
  318MOL0    Cl42840   0.559   6.945   7.673 -0.4243  0.2118  0.1605
  318MOL0     C42841   1.742   6.662   8.014  0.5926 -0.7074 -0.5660
  318MOL0     C42842   1.881   6.674   8.021  0.2786  0.1164  0.4599
  318MOL0     O42843   2.143   6.521   7.933 -0.4615 -0.1772 -0.8233
  318MOL0     C42844   2.386   6.671   8.071  0.4801  0.9802 -0.8354
  318MOL0     C42845   2.521   6.696   8.072 -0.6125  0.0084  0.1442
  318MOL0     N42846   3.149   6.984   8.251 -0.5818  0.0016 -0.6395
  318MOL0     N42847   3.267   6.990   8.236 -0.7143 -0.2663  0.5667
  318MOL0     C42848   4.238   6.458   8.080  0.5941  0.1062  0.2411
  318MOL0     C42849   4.364   6.512   8.077 -0.5450  0.5123  1.2713
  318MOL0     C42850   4.742   6.670   7.891 -0.4714  0.5161  0.2214
  318MOL0     C42851   4.853   6.591   7.936  0.6500  0.2681  0.3127
  318MOL0     C42852   4.980   6.652   7.938  0.6758  0.5800 -0.0983
  318MOL0     C42853   5.003   6.774   7.876 -1.2453 -0.7346 -0.2906
  318MOL0     O42854   5.134   6.827   7.854  0.7018 -0.1159  0.0492
  318MOL0     C42855   5.255   6.790   7.922 -0.1592 -1.8918 -1.3810
  318MOL0     C42856   5.373   6.849   7.851  0.6040  0.6155  0.4450
  318MOL0     C42857   5.400   7.003   7.874  0.1836  0.2616  0.1728
  318MOL0     C42858   5.448   7.051   8.004  0.1356 -0.3225 -0.1777
  318MOL0     C42859   5.592   7.029   8.040  0.0840  0.2978  0.4154
  318MOL0     C42860   5.707   7.010   8.062 -0.7069 -0.4149 -1.2594
  318MOL0     C42861   4.899   6.855   7.841 -0.3063 -0.5083 -0.6696
  318MOL0     C42862   4.767   6.805   7.849 -0.3727  0.2134  0.2558
  318MOL0     H42863   4.498   6.299   7.844 -1.4600 -1.3452  0.4812
  318MOL0     H42864   4.292   6.185   7.891  4.0325  0.8117 -1.4107
  318MOL0     H42865   4.008   6.413   7.905  1.6442 -2.8668 -2.1191
  318MOL0     H42866   3.919   6.258   7.928 -1.7951  3.3238 -3.3221
  318MOL0     H42867   3.894   6.337   8.165  0.1236 -1.8017 -0.9979
  318MOL0     H42868   3.942   6.496   8.110  2.9367 -0.5508 -1.3945
  318MOL0     H42869   3.740   6.454   7.929  3.3282 -0.9459 -0.5784
  318MOL0     H42870   3.712   6.312   8.017  0.5500  0.4744 -0.2209
  318MOL0     H42871   3.560   6.468   8.109 -0.4135  4.5763 -2.4865
  318MOL0     H42872   3.699   6.465   8.230 -1.8940 -1.9442 -0.1692
  318MOL0     H42873   3.774   6.684   8.118  1.6420 -1.3926 -2.5324
  318MOL0     H42874   3.624   6.665   8.011 -2.0701 -3.0485  0.0094
  318MOL0     H42875   3.490   6.645   8.200  3.0201 -4.0137 -1.3000
  318MOL0     H42876   3.609   6.675   8.311 -1.7088 -3.3687 -0.7651
  318MOL0     H42877   3.660   6.899   8.188  0.1251 -1.9440 -0.3327
  318MOL0     H42878   3.509   6.868   8.096  0.7145  1.7367 -1.0672
  318MOL0     H42879   3.516   7.024   8.326 -1.5000 -0.1359 -0.9256
  318MOL0     H42880   3.513   6.863   8.407 -0.5641 -0.2085  0.2145
  318MOL0     H42881   3.249   6.748   8.455 -4.0048 -0.7978 -1.0002
  318MOL0     H42882   3.014   6.766   8.460 -0.1589  0.9772  1.4057
  318MOL0     H42883   2.916   6.908   8.389 -1.6653 -1.0346 -3.3068
  318MOL0     H42884   2.876   6.675   8.320  0.0655  0.9465  0.4771
  318MOL0     H42885   3.031   6.688   8.220  0.5089 -2.7631  3.0694
  318MOL0     H42886   2.924   6.892   8.123 -1.0468  0.1239 -0.2637
  318MOL0     H42887   2.780   6.853   8.219  3.5825  3.3345  2.4453
  318MOL0     H42888   2.797   6.620   8.086  3.2346 -0.4511  0.3877
  318MOL0     H42889   2.908   6.701   7.977  0.3689  2.5838 -0.5635
  318MOL0     H42890   2.577   6.806   7.765  2.0554  1.6512  2.4886
  318MOL0     H42891   2.338   6.851   7.646 -1.0235 -2.2250 -4.0604
  318MOL0     H42892   2.297   6.686   7.639 -0.1503  1.0209 -0.2767
  318MOL0     H42893   2.197   6.795   7.733  0.4170 -1.6786  2.9831
  318MOL0     H42894   1.958   6.779   7.711  1.2540 -0.7469  1.6348
  318MOL0     H42895   1.711   6.738   7.689 -3.5869 -2.3995  1.7920
  318MOL0     H42896   1.502   6.791   7.714 -0.7072 -0.0677 -1.7855
  318MOL0     H42897   1.486   6.615   7.711 -0.3813 -1.2701  1.0410
  318MOL0     H42898   1.301   6.649   7.881 -0.1685 -0.7817 -0.0248
  318MOL0     H42899   1.333   6.819   7.861 -1.5898  0.8100 -1.5003
  318MOL0     H42900   1.233   6.646   7.623  0.7584  0.7722 -0.4903
  318MOL0     H42901   1.285   6.822   7.626  0.5256 -0.8605 -2.2173
  318MOL0     H42902   1.062   6.686   7.791  5.3942 -0.6173  2.4569
  318MOL0     H42903   1.093   6.870   7.769  1.3912 -1.3655  1.6127
  318MOL0     H42904   1.001   6.692   7.560  3.7289  0.9731 -3.5660
  318MOL0     H42905   1.037   6.871   7.543 -0.9111  1.5102  0.6357
  318MOL0     H42906   0.827   6.741   7.723 -0.9966  0.5903  0.0863
  318MOL0     H42907   0.864   6.905   7.724  2.1075 -3.5274  4.1319
  318MOL0     H42908   0.803   6.768   7.457  2.5328  0.8074  0.3715
  318MOL0     H42909   0.757   6.938   7.494  1.9101  0.7917  0.2576
  318MOL0     H42910   0.623   6.701   7.623  0.7846 -0.7967 -2.3250
  318MOL0     H42911   0.551   6.795   7.497 -0.6288 -0.0501  1.8000
  318MOL0     H42912   1.696   6.624   8.105  0.6215 -0.1360 -0.3041
  318MOL0     H42913   1.933   6.647   8.113 -0.5086 -0.0226  0.8747
  318MOL0     H42914   2.336   6.626   8.156 -0.3042  2.1311 -0.6661
  318MOL0     H42915   2.583   6.676   8.158 -1.9525  1.3340  1.4780
  318MOL0     H42916   4.163   6.510   8.139  1.4197 -1.1264  2.4790
  318MOL0     H42917   4.379   6.606   8.129 -0.3401 -0.4881  3.0669
  318MOL0     H42918   4.840   6.491   7.977  0.2549 -0.0637 -0.5879
  318MOL0     H42919   5.063   6.586   7.962 -0.2674  0.2020  2.3839
  318MOL0     H42920   5.267   6.820   8.027  2.6113 -1.1314 -1.8213
  318MOL0     H42921   5.258   6.681   7.920  1.2794 -1.9262  0.3316
  318MOL0     H42922   5.357   6.833   7.744 -2.3534 -0.1147  0.9089
  318MOL0     H42923   5.462   6.793   7.882  0.1888  0.5653  1.5632
  318MOL0     H42924   5.303   7.049   7.855  0.4888  0.3529 -1.3217
  318MOL0     H42925   5.473   7.045   7.804  3.3808 -1.0883  2.4526
  318MOL0     H42926   5.385   7.007   8.082  2.6253 -1.0185  1.5311
  318MOL0     H42927   5.429   7.159   8.009  0.0017 -0.3982  1.2248
  318MOL0     H42928   5.803   6.963   8.068 -1.3491 -1.6310  0.0926
  318MOL0     H42929   4.910   6.955   7.801  0.3728 -0.7831 -1.2135
  318MOL0     H42930   4.687   6.872   7.818  0.2496  2.3774  2.9522
  319MOL0     O42931   8.628   6.621   2.454 -0.6154  0.6565 -0.6568
  319MOL0     C42932   8.641   6.739   2.416  0.3719 -0.0938  0.1139
  319MOL0     O42933   8.539   6.832   2.426 -0.6360  0.0253 -0.2608
  319MOL0     C42934   8.418   6.784   2.408 -0.6901  0.6106 -0.0802
  319MOL0     C42935   8.386   6.745   2.280  0.1971  1.1379  0.1405
  319MOL0     C42936   8.260   6.679   2.270  0.2351 -0.2043  0.5500
  319MOL0     C42937   8.172   6.664   2.379 -0.5576 -0.3452 -0.1787
  319MOL0     O42938   8.046   6.603   2.377  0.1321 -0.6253 -0.0595
  319MOL0     C42939   7.971   6.582   2.252  0.8346 -1.1514 -0.2190
  319MOL0     C42940   7.822   6.565   2.293 -0.0699 -0.0543 -0.1768
  319MOL0     C42941   7.768   6.688   2.370 -0.2397  0.0928  0.0170
  319MOL0     C42942   7.628   6.679   2.434 -0.4236  0.4215 -0.0902
  319MOL0     C42943   7.615   6.797   2.535 -0.3928  0.2034  0.3226
  319MOL0     C42944   7.482   6.786   2.614  0.0081  0.0055  0.0531
  319MOL0     C42945   7.357   6.785   2.531  0.1990 -0.6292 -0.3920
  319MOL0     C42946   7.236   6.809   2.608 -0.1965 -0.2260 -0.0351
  319MOL0     N42947   7.111   6.834   2.535  0.1771  0.3993  0.3799
  319MOL0     C42948   7.070   6.937   2.442 -0.1723  0.9254 -0.1354
  319MOL0     C42949   6.935   6.910   2.420  0.2364 -0.3026  0.7568
  319MOL0     C42950   6.847   6.987   2.326 -0.7953  0.1177  0.6094
  319MOL0     C42951   6.759   7.092   2.405 -0.1428  0.0643 -0.0649
  319MOL0     C42952   6.674   7.166   2.302  0.1466  0.0742  0.8062
  319MOL0     C42953   6.592   7.282   2.357 -0.4518  0.1204 -0.1510
  319MOL0     O42954   6.461   7.247   2.419  0.6149 -0.3559  0.1079
  319MOL0     C42955   6.358   7.218   2.334 -0.2779 -0.4156  0.3775
  319MOL0     C42956   6.236   7.193   2.395  0.0780  0.0151  0.5300
  319MOL0     C42957   6.108   7.175   2.333 -0.4297  0.7799  0.0940
  319MOL0     C42958   5.984   7.171   2.416  0.7584  0.8391  0.0390
  319MOL0     C42959   6.110   7.182   2.187 -0.3435  0.3512  0.9157
  319MOL0     C42960   5.997   7.143   2.098 -0.2906 -0.0354 -0.8099
  319MOL0     O42961   6.030   7.133   1.969 -0.4992  0.2638  0.1299
  319MOL0     C42962   5.924   7.073   1.893 -0.8387 -0.5929 -0.0374
  319MOL0     C42963   5.955   6.943   1.839 -0.0142 -0.5994 -0.0103
  319MOL0     C42964   5.852   6.883   1.759  0.6674 -0.0526  0.5520
  319MOL0     C42965   5.732   6.955   1.733 -0.0532  0.8545 -0.8992
  319MOL0     O42966   5.643   6.903   1.640  0.2937 -0.0201 -0.5956
  319MOL0     C42967   5.553   6.989   1.579  0.4785 -0.8095  0.0382
  319MOL0     C42968   5.466   6.906   1.474  0.6069  0.4801  0.0332
  319MOL0     C42969   5.424   6.999   1.364  0.8770 -0.3395  0.5630
  319MOL0     C42970   5.352   6.923   1.245  0.4272  0.4205  0.5233
  319MOL0     C42971   5.312   7.017   1.135 -0.1247  0.9800 -0.2866
  319MOL0     C42972   5.243   6.950   1.024  0.1209 -0.7490  0.8393
  319MOL0     C42973   5.226   7.054   0.923  0.4664 -0.6371 -0.2915
  319MOL0     C42974   5.175   7.004   0.789  0.0222 -0.7602  0.0512
  319MOL0    Cl42975   5.266   6.879   0.720 -0.3601  0.0212 -0.3285
  319MOL0     C42976   5.706   7.080   1.794  0.5194 -0.5951 -0.6782
  319MOL0     C42977   5.801   7.131   1.873 -0.5358  0.1757  0.0091
  319MOL0     O42978   5.885   7.123   2.148 -0.6234 -0.2400  0.5850
  319MOL0     C42979   6.237   7.194   2.122  0.7166  0.6017  0.2507
  319MOL0     C42980   6.358   7.210   2.198 -0.0668 -0.1074  0.3925
  319MOL0     N42981   6.902   6.786   2.494  0.1725 -0.0511 -0.0442
  319MOL0     N42982   7.011   6.742   2.548  0.3093 -0.8251  0.0093
  319MOL0     C42983   8.217   6.712   2.501  0.9605 -0.1207 -1.0963
  319MOL0     C42984   8.341   6.763   2.522  0.2439 -0.3620  0.4440
  319MOL0     C42985   8.775   6.780   2.372  0.4392  0.3297  0.5694
  319MOL0     C42986   8.877   6.687   2.332 -0.2192  0.4141 -0.0106
  319MOL0     C42987   8.994   6.727   2.275 -0.0784  0.4331 -0.2579
  319MOL0     C42988   9.020   6.857   2.247  0.2632  0.3801  0.5331
  319MOL0     O42989   9.120   6.894   2.161 -0.1982  0.1571  0.1581
  319MOL0     C42990   9.251   6.836   2.178  0.4069 -0.0056  0.6180
  319MOL0     C42991   9.299   6.880   2.319 -0.1082  0.1329 -0.1714
  319MOL0     C42992   9.447   6.835   2.349  0.4555  0.0776 -0.0896
  319MOL0     C42993   9.557   6.906   2.271  0.3319  0.4667 -0.2250
  319MOL0     C42994   9.545   7.046   2.290  0.3758 -0.9068  0.0969
  319MOL0     C42995   9.542   7.167   2.311  0.0622  1.3223  0.4105
  319MOL0     C42996   8.929   6.955   2.284  0.6594 -0.1954  0.2031
  319MOL0     C42997   8.801   6.909   2.332 -0.2573 -0.3635 -1.1628
  319MOL0     H42998   8.451   6.758   2.194  0.0483 -4.1243 -1.1669
  319MOL0     H42999   8.235   6.648   2.169  1.3582 -0.0200  0.2054
  319MOL0     H43000   7.980   6.664   2.181 -1.5470 -2.4927 -2.1999
  319MOL0     H43001   8.002   6.493   2.197 -2.2190 -0.9507 -2.4838
  319MOL0     H43002   7.766   6.553   2.200  0.8573  3.8462 -1.4134
  319MOL0     H43003   7.809   6.472   2.350  1.8319 -0.2913 -0.0549
  319MOL0     H43004   7.831   6.714   2.456 -1.1734 -1.6768  1.2912
  319MOL0     H43005   7.777   6.779   2.310  2.0476  0.3338  0.6276
  319MOL0     H43006   7.550   6.679   2.358  0.3453 -3.5330 -1.1214
  319MOL0     H43007   7.617   6.576   2.469  0.8664 -0.5858 -2.3808
  319MOL0     H43008   7.702   6.796   2.601  1.3154 -0.5308 -1.8210
  319MOL0     H43009   7.605   6.896   2.489  0.6307  1.4783  2.6538
  319MOL0     H43010   7.488   6.693   2.671 -0.7326 -0.5940 -0.8205
  319MOL0     H43011   7.488   6.871   2.683  4.5432 -0.3441  0.3629
  319MOL0     H43012   7.370   6.868   2.461  0.9548 -0.3068  0.1121
  319MOL0     H43013   7.340   6.683   2.495  0.4863 -1.0856  0.7193
  319MOL0     H43014   7.256   6.897   2.670  1.0225 -0.3483 -0.2218
  319MOL0     H43015   7.207   6.725   2.672 -1.8426  1.3774  1.3988
  319MOL0     H43016   7.129   7.012   2.391  1.9925 -0.8316 -0.3639
  319MOL0     H43017   6.920   7.046   2.270 -2.4871  3.3001  1.5389
  319MOL0     H43018   6.800   6.920   2.253  1.6701 -1.5600  0.4248
  319MOL0     H43019   6.829   7.159   2.457 -0.1618 -1.4548  2.0536
  319MOL0     H43020   6.688   7.053   2.477 -0.8257  1.9915  0.3741
  319MOL0     H43021   6.610   7.085   2.268  0.7778  0.3763 -1.2370
  319MOL0     H43022   6.744   7.211   2.230 -0.1072 -1.6356 -0.5670
  319MOL0     H43023   6.578   7.358   2.280 -1.3786 -0.8352 -0.9631
  319MOL0     H43024   6.654   7.328   2.434 -1.0623 -0.2091  0.5610
  319MOL0     H43025   6.231   7.199   2.503  1.4030 -1.9674  0.7614
  319MOL0     H43026   5.942   7.070   2.417  2.7882 -0.0983 -1.3955
  319MOL0     H43027   6.005   7.201   2.519 -1.2985  1.3929  0.3295
  319MOL0     H43028   5.921   7.247   2.370  0.2184  0.8129  0.7289
  319MOL0     H43029   6.055   6.902   1.848  1.0183  2.1058  1.9831
  319MOL0     H43030   5.864   6.786   1.713 -1.8546  0.2787 -1.0417
  319MOL0     H43031   5.472   7.026   1.642 -0.5203  1.0658 -2.2063
  319MOL0     H43032   5.606   7.077   1.541 -0.2240 -0.4735 -0.1759
  319MOL0     H43033   5.539   6.836   1.431  0.2978  0.6484 -0.7855
  319MOL0     H43034   5.380   6.860   1.524  1.1623 -1.2393 -0.5068
  319MOL0     H43035   5.513   7.056   1.336  1.3041 -1.2909 -0.0445
  319MOL0     H43036   5.358   7.081   1.397  0.1849  1.4091 -4.3353
  319MOL0     H43037   5.425   6.858   1.194 -1.7451 -0.3290 -1.8297
  319MOL0     H43038   5.262   6.873   1.280 -1.0055  2.2727 -0.3797
  319MOL0     H43039   5.405   7.063   1.102  0.0321  0.9321  0.0833
  319MOL0     H43040   5.246   7.088   1.185 -2.4060 -2.1250  1.4878
  319MOL0     H43041   5.297   6.858   0.999  0.1648 -1.6282  3.7678
  319MOL0     H43042   5.144   6.913   1.052 -1.4106  0.5176 -2.4370
  319MOL0     H43043   5.320   7.108   0.911  0.7675 -1.1629 -0.3475
  319MOL0     H43044   5.157   7.135   0.946  2.8813  1.8630 -1.3014
  319MOL0     H43045   5.175   7.089   0.720 -1.6381 -1.5265 -0.9370
  319MOL0     H43046   5.072   6.971   0.804 -0.1801 -0.4198 -0.5401
  319MOL0     H43047   5.614   7.133   1.775 -1.1217 -0.7619  4.9521
  319MOL0     H43048   5.789   7.229   1.918 -0.7699 -0.5227  1.5619
  319MOL0     H43049   6.244   7.203   2.014  1.9585 -0.9640  0.1556
  319MOL0     H43050   6.458   7.217   2.155  0.4305 -2.4804  1.0277
  319MOL0     H43051   8.147   6.686   2.580 -0.0316 -0.7394 -2.1557
  319MOL0     H43052   8.386   6.786   2.618  1.5913 -0.4574 -0.1411
  319MOL0     H43053   8.857   6.581   2.333  0.4785  0.2847  0.3858
  319MOL0     H43054   9.059   6.647   2.240  0.0917  0.0570  0.8627
  319MOL0     H43055   9.261   6.728   2.161  3.2495  0.4007 -0.8822
  319MOL0     H43056   9.316   6.871   2.097  0.7102 -0.4789  0.6475
  319MOL0     H43057   9.238   6.830   2.395  0.7969 -2.0188 -0.7938
  319MOL0     H43058   9.304   6.989   2.333  1.4174  0.1885 -0.8746
  319MOL0     H43059   9.457   6.727   2.333  1.3703 -0.0609  1.2396
  319MOL0     H43060   9.454   6.842   2.458  3.8356 -0.2831 -0.1865
  319MOL0     H43061   9.552   6.883   2.164  0.0059 -1.8094  0.2196
  319MOL0     H43062   9.659   6.875   2.295  0.2279 -0.4610 -0.9304
  319MOL0     H43063   9.541   7.274   2.322 -1.8979  1.4263 -0.3725
  319MOL0     H43064   8.942   7.059   2.259 -0.6005 -0.2353 -0.7019
  319MOL0     H43065   8.734   6.993   2.346 -1.3968 -1.5471  1.1161
  320MOL0     O43066  10.237  10.682   7.366  0.4364 -0.3417  0.2550
  320MOL0     C43067  10.297  10.589   7.309 -0.6606  0.7074 -0.6601
  320MOL0     O43068  10.247  10.490   7.224  0.8190  0.1246  0.1657
  320MOL0     C43069  10.110  10.503   7.198 -0.6371  1.0331  0.4269
  320MOL0     C43070  10.076  10.498   7.066 -0.5370 -0.4036  0.0417
  320MOL0     C43071   9.949  10.512   7.020 -0.0477 -0.5401 -0.3491
  320MOL0     C43072   9.843  10.534   7.112  1.1195 -0.2299 -0.0960
  320MOL0     O43073   9.714  10.560   7.076 -0.3073  0.1244 -0.0438
  320MOL0     C43074   9.685  10.587   6.936  0.1492 -0.3233  0.1311
  320MOL0     C43075   9.548  10.638   6.919  0.0250 -0.9323  0.8084
  320MOL0     C43076   9.436  10.558   6.985 -0.4552 -0.3221  0.3790
  320MOL0     C43077   9.312  10.628   6.946  0.4712  0.4503  0.1719
  320MOL0     C43078   9.180  10.572   7.002 -0.8108  0.6005 -0.0211
  320MOL0     C43079   9.064  10.667   6.975  0.1322 -0.0924 -0.0177
  320MOL0     C43080   8.930  10.615   7.035  0.2815 -0.3098 -0.5534
  320MOL0     C43081   8.810  10.691   6.965  0.0614 -0.1538  0.3890
  320MOL0     N43082   8.681  10.687   7.045  0.3016 -0.7524 -0.8595
  320MOL0     C43083   8.667  10.741   7.171 -0.4137  0.9601  0.2821
  320MOL0     C43084   8.537  10.714   7.206 -0.0911  0.6578  0.8404
  320MOL0     C43085   8.482  10.763   7.329 -1.0075  0.7214 -0.2317
  320MOL0     C43086   8.347  10.826   7.304 -0.0611  0.1074  0.4474
  320MOL0     C43087   8.280  10.873   7.440 -0.5904 -0.5009  0.4747
  320MOL0     C43088   8.137  10.919   7.401  0.3340  0.0039  0.0594
  320MOL0     O43089   8.054  10.801   7.395  0.7269  0.0857 -0.7113
  320MOL0     C43090   7.925  10.811   7.422 -0.1292 -0.1851  0.8326
  320MOL0     C43091   7.829  10.860   7.334 -0.0682 -1.0527 -0.3517
  320MOL0     C43092   7.693  10.861   7.362  1.1021 -0.6629 -0.6859
  320MOL0     C43093   7.605  10.925   7.259 -0.3407 -0.2353  0.3718
  320MOL0     C43094   7.652  10.813   7.491  0.2388 -0.3029 -0.4199
  320MOL0     C43095   7.514  10.829   7.540  0.3445 -1.6298 -1.2763
  320MOL0     O43096   7.484  10.735   7.633 -0.0936 -0.2433  0.5975
  320MOL0     C43097   7.352  10.728   7.682 -0.1016  0.4942  0.5854
  320MOL0     C43098   7.237  10.750   7.599  0.0128 -0.9104  0.0144
  320MOL0     C43099   7.109  10.745   7.655  0.6661  0.5089 -0.5925
  320MOL0     C43100   7.096  10.705   7.785 -1.1369 -0.6278 -0.1120
  320MOL0     O43101   6.975  10.711   7.849  0.7085  0.2473  0.4953
  320MOL0     C43102   6.852  10.666   7.780  0.0100  0.0875  0.5530
  320MOL0     C43103   6.764  10.787   7.731 -0.0354  0.4563  0.1584
  320MOL0     C43104   6.608  10.746   7.734 -0.1102 -0.2271 -0.7974
  320MOL0     C43105   6.588  10.628   7.640  0.5029  0.0803 -0.5728
  320MOL0     C43106   6.444  10.638   7.584 -0.5059  0.5482  0.1908
  320MOL0     C43107   6.336  10.594   7.686 -0.1475 -1.1576 -0.9212
  320MOL0     C43108   6.199  10.551   7.618 -0.0300 -0.4866  0.2950
  320MOL0     C43109   6.092  10.642   7.671 -0.0564  0.2673  0.1968
  320MOL0    Cl43110   6.136  10.816   7.654  0.0104 -0.8372 -0.6828
  320MOL0     C43111   7.208  10.672   7.858  0.9179 -0.0958 -0.2729
  320MOL0     C43112   7.337  10.681   7.808  0.7057 -0.1552  0.1155
  320MOL0     O43113   7.452  10.934   7.515  0.3407  0.1962  0.0988
  320MOL0     C43114   7.746  10.754   7.577  0.3694 -0.0825 -1.1155
  320MOL0     C43115   7.878  10.749   7.537  0.3401 -0.4156 -0.3404
  320MOL0     N43116   8.474  10.653   7.102  0.5940 -0.3118  0.0826
  320MOL0     N43117   8.564  10.629   7.008  0.6747 -0.9710  0.1101
  320MOL0     C43118   9.870  10.536   7.255  0.0598 -0.3232 -0.1683
  320MOL0     C43119  10.009  10.525   7.294  0.2469  0.5637  0.0274
  320MOL0     C43120  10.442  10.573   7.346 -0.7383 -0.9466  0.8133
  320MOL0     C43121  10.507  10.631   7.451 -0.2767  0.6977 -0.0685
  320MOL0     C43122  10.647  10.625   7.474  0.2848 -0.5540 -0.4547
  320MOL0     C43123  10.733  10.568   7.383 -0.1428 -0.5656  0.2967
  320MOL0     O43124  10.864  10.554   7.421 -0.4385 -0.4417  0.1366
  320MOL0     C43125  10.940  10.466   7.341  0.0945  0.2036 -0.2671
  320MOL0     C43126  11.017  10.528   7.230  0.1557  1.1644 -0.8275
  320MOL0     C43127  11.101  10.415   7.164 -0.7837  0.7077  0.1609
  320MOL0     C43128  11.237  10.388   7.235  0.1947  0.3898  0.3744
  320MOL0     C43129  11.328  10.489   7.205  0.7164 -0.9072  0.0109
  320MOL0     C43130  11.416  10.575   7.194  0.2611  0.8459 -0.0412
  320MOL0     C43131  10.675  10.515   7.266  0.5219 -1.2898 -0.2253
  320MOL0     C43132  10.535  10.518   7.248 -0.6258  0.4807 -0.4942
  320MOL0     H43133  10.155  10.501   6.991 -0.0061  1.3230  0.6194
  320MOL0     H43134   9.936  10.515   6.912  0.2373  2.2372 -0.3791
  320MOL0     H43135   9.751  10.669   6.904 -1.1705  1.0275  0.7115
  320MOL0     H43136   9.701  10.493   6.883 -2.5244 -0.6017 -0.3228
  320MOL0     H43137   9.548  10.744   6.948 -1.0471 -0.6725 -0.0317
  320MOL0     H43138   9.531  10.625   6.811 -1.7489 -2.3906  1.2205
  320MOL0     H43139   9.434  10.454   6.952 -1.2105 -0.0400 -0.4829
  320MOL0     H43140   9.450  10.559   7.094  1.2755 -0.6960  0.1901
  320MOL0     H43141   9.329  10.724   6.994  0.6388 -0.4020  1.8975
  320MOL0     H43142   9.313  10.626   6.836  2.8288 -3.6613  0.0427
  320MOL0     H43143   9.160  10.479   6.948 -1.5674  1.1190 -0.6641
  320MOL0     H43144   9.187  10.543   7.107 -1.2508 -0.1501 -0.1899
  320MOL0     H43145   9.095  10.769   7.001  1.2788  0.4216 -2.9800
  320MOL0     H43146   9.057  10.678   6.866 -0.2854 -0.6331 -0.0485
  320MOL0     H43147   8.920  10.509   7.010 -2.5715 -0.6652  1.5834
  320MOL0     H43148   8.930  10.632   7.143  1.9028 -0.5193 -0.4877
  320MOL0     H43149   8.784  10.632   6.877 -0.7490 -2.3734  2.0165
  320MOL0     H43150   8.846  10.789   6.933  0.3721 -0.6870 -0.9515
  320MOL0     H43151   8.742  10.785   7.235  0.3496 -1.3661  1.0996
  320MOL0     H43152   8.494  10.683   7.403  0.6120  0.4942 -0.7195
  320MOL0     H43153   8.553  10.838   7.365  1.7656 -2.5395  1.7029
  320MOL0     H43154   8.275  10.754   7.265 -0.7335  1.3882 -0.7451
  320MOL0     H43155   8.358  10.906   7.230 -0.9602 -0.0674  0.1110
  320MOL0     H43156   8.340  10.959   7.472 -0.5340 -1.0042  1.7634
  320MOL0     H43157   8.281  10.792   7.513  0.4729  0.9681  2.1729
  320MOL0     H43158   8.138  10.970   7.304  1.9789  3.4942  1.7589
  320MOL0     H43159   8.108  10.995   7.474  1.0744  0.0034  0.3606
  320MOL0     H43160   7.867  10.917   7.251  1.5819  0.8250  1.5856
  320MOL0     H43161   7.498  10.906   7.263 -1.1745  3.3809 -0.9000
  320MOL0     H43162   7.616  11.034   7.264  0.1032 -0.3407  2.2713
  320MOL0     H43163   7.642  10.898   7.159 -1.3087 -0.8086  0.1577
  320MOL0     H43164   7.246  10.790   7.499 -1.8541  2.8974  1.1921
  320MOL0     H43165   7.015  10.769   7.606  0.0872 -2.7534 -1.3178
  320MOL0     H43166   6.869  10.594   7.699 -2.9264  0.6532 -0.7185
  320MOL0     H43167   6.795  10.608   7.853  2.9731  0.5781  3.4925
  320MOL0     H43168   6.778  10.874   7.795  0.6171  0.3816  0.1216
  320MOL0     H43169   6.802  10.820   7.634  1.0506  1.3214  0.8483
  320MOL0     H43170   6.564  10.834   7.687 -0.6378 -1.7248 -3.2856
  320MOL0     H43171   6.575  10.725   7.836  5.2574  0.3974  1.3930
  320MOL0     H43172   6.664  10.627   7.561  1.1645 -2.3059  0.0108
  320MOL0     H43173   6.595  10.531   7.691  0.4768  0.5554  0.3463
  320MOL0     H43174   6.437  10.561   7.506  0.1866 -0.4585  1.0859
  320MOL0     H43175   6.425  10.741   7.553  1.8731  1.0162  0.1093
  320MOL0     H43176   6.378  10.512   7.745 -0.4426 -0.8685 -0.3092
  320MOL0     H43177   6.320  10.676   7.756 -0.9848 -1.9876 -0.1196
  320MOL0     H43178   6.174  10.449   7.646  0.9422 -0.4854  1.2260
  320MOL0     H43179   6.198  10.554   7.508 -0.2215  2.9276  0.2617
  320MOL0     H43180   6.075  10.611   7.775  1.1508  2.4214  1.1139
  320MOL0     H43181   6.000  10.627   7.613  0.7281 -2.3112 -0.4985
  320MOL0     H43182   7.190  10.644   7.961  0.5138 -0.0200 -0.3230
  320MOL0     H43183   7.419  10.671   7.878 -0.8062  1.9188  2.3438
  320MOL0     H43184   7.713  10.712   7.672 -2.7845  1.1287 -1.5568
  320MOL0     H43185   7.951  10.715   7.610  2.2327  2.3704 -0.7690
  320MOL0     H43186   9.804  10.565   7.336  1.0796  1.8364 -0.0351
  320MOL0     H43187  10.035  10.538   7.399  1.7153  0.3813 -0.2932
  320MOL0     H43188  10.447  10.680   7.527 -1.1096  1.4159 -1.1723
  320MOL0     H43189  10.698  10.651   7.566 -0.0066  0.9866 -0.7056
  320MOL0     H43190  11.016  10.418   7.405  3.2553  0.3140 -3.6016
  320MOL0     H43191  10.889  10.376   7.306  1.3138 -0.6395  0.0249
  320MOL0     H43192  11.086  10.598   7.277  0.4014 -0.5096  1.5056
  320MOL0     H43193  10.953  10.585   7.162  2.5905  2.8187 -1.8968
  320MOL0     H43194  11.116  10.435   7.058 -0.6989 -1.0321 -0.1922
  320MOL0     H43195  11.039  10.324   7.164 -0.3805  0.4226 -1.0940
  320MOL0     H43196  11.261  10.285   7.208  2.4857  0.1259  3.0281
  320MOL0     H43197  11.226  10.387   7.343 -2.5077  0.8977  0.1777
  320MOL0     H43198  11.493  10.650   7.188  0.2068  0.9215  0.1933
  320MOL0     H43199  10.735  10.461   7.192 -0.5167  0.8352 -2.7893
  320MOL0     H43200  10.489  10.484   7.155  0.9901  0.1467 -1.2104
  321MOL0     O43201   6.853  11.051  11.069  0.0793 -0.0805  0.2009
  321MOL0     C43202   6.952  10.996  11.032 -0.4985 -0.3957 -0.1783
  321MOL0     O43203   7.004  10.996  10.908 -0.0377  0.0272 -0.0215
  321MOL0     C43204   6.934  11.044  10.796  0.2425 -0.5204 -0.0117
  321MOL0     C43205   6.794  11.054  10.797 -0.9743  0.2533 -0.3136
  321MOL0     C43206   6.729  11.119  10.690 -0.1369  0.0836 -0.8698
  321MOL0     C43207   6.797  11.164  10.577 -0.3982 -0.6663 -0.5233
  321MOL0     O43208   6.732  11.217  10.465  0.1128 -0.5617  0.0809
  321MOL0     C43209   6.596  11.256  10.479  0.4415 -0.0892  0.0248
  321MOL0     C43210   6.572  11.353  10.366 -0.4763 -0.2208  0.5133
  321MOL0     C43211   6.419  11.390  10.368  0.4691 -0.0592 -0.0781
  321MOL0     C43212   6.377  11.474  10.248 -0.1736 -0.0720 -0.2915
  321MOL0     C43213   6.228  11.468  10.213 -0.3224  0.2364  1.0079
  321MOL0     C43214   6.145  11.501  10.331  0.3846  0.2090  0.4633
  321MOL0     C43215   5.996  11.541  10.295 -0.1662  0.5943 -0.4585
  321MOL0     C43216   5.989  11.677  10.238  0.6434 -1.2228  0.5958
  321MOL0     N43217   5.845  11.713  10.251 -0.9107  0.1881  0.0278
  321MOL0     C43218   5.800  11.810  10.342 -0.2357  0.6162 -0.2636
  321MOL0     C43219   5.684  11.849  10.294  0.1998 -0.6287  0.9899
  321MOL0     C43220   5.592  11.936  10.380  0.1822 -0.7821  0.4261
  321MOL0     C43221   5.473  12.005  10.304 -0.3232  0.3714  0.1344
  321MOL0     C43222   5.364  11.900  10.263 -0.1159 -0.2794 -0.4217
  321MOL0     C43223   5.248  11.951  10.186  0.6740 -0.4107 -1.0572
  321MOL0     O43224   5.176  12.038  10.272  0.1116  0.2681 -0.5386
  321MOL0     C43225   5.046  12.075  10.254 -0.2610 -0.4150 -0.2649
  321MOL0     C43226   4.995  12.088  10.129  0.5386  0.4487  0.3811
  321MOL0     C43227   4.862  12.128  10.107  0.1723 -0.5747  0.2444
  321MOL0     C43228   4.812  12.123   9.963 -0.1064 -1.5926 -0.2020
  321MOL0     C43229   4.778  12.180  10.210  0.1955  0.2245  0.1154
  321MOL0     C43230   4.640  12.237  10.194 -0.0471  0.6084 -0.6254
  321MOL0     O43231   4.560  12.227  10.309  0.2942 -0.3452  0.0104
  321MOL0     C43232   4.425  12.250  10.306  0.0758  0.0539 -0.8674
  321MOL0     C43233   4.341  12.201  10.207  0.7372 -0.1232 -0.0017
  321MOL0     C43234   4.199  12.207  10.219 -0.6987 -0.6516  0.6178
  321MOL0     C43235   4.144  12.274  10.327 -0.0720 -0.9732 -0.0980
  321MOL0     O43236   4.012  12.276  10.356  0.5576  0.6596 -0.4794
  321MOL0     C43237   3.920  12.187  10.286 -0.8616 -0.4323  0.2025
  321MOL0     C43238   3.783  12.200  10.346 -0.0534 -0.2530  0.5375
  321MOL0     C43239   3.675  12.107  10.293 -0.7399 -0.3235  0.7047
  321MOL0     C43240   3.581  12.047  10.409 -0.2360 -0.1424  0.9302
  321MOL0     C43241   3.471  11.956  10.343  0.1467  0.3131  0.1692
  321MOL0     C43242   3.371  11.897  10.440  1.2372 -0.9945 -0.1121
  321MOL0     C43243   3.271  12.012  10.499 -0.7179  0.3556  0.5697
  321MOL0     C43244   3.268  11.990  10.645  0.4494  0.0790 -0.0182
  321MOL0    Cl43245   3.215  11.825  10.700 -0.1075  0.1720 -0.0559
  321MOL0     C43246   4.227  12.333  10.416 -0.1849 -0.8740  0.1012
  321MOL0     C43247   4.365  12.312  10.416  0.6303 -0.4430 -0.6174
  321MOL0     O43248   4.602  12.277  10.093  0.2020 -0.0605  0.0064
  321MOL0     C43249   4.832  12.179  10.338 -0.2480  0.6522  0.4966
  321MOL0     C43250   4.961  12.123  10.361 -0.4892 -0.7657  0.0738
  321MOL0     N43251   5.650  11.768  10.183  0.1321  0.3151 -0.1564
  321MOL0     N43252   5.750  11.685  10.157  1.0668 -0.4427  0.0830
  321MOL0     C43253   6.931  11.147  10.572 -0.5654 -0.9406  0.0685
  321MOL0     C43254   7.006  11.102  10.682  0.7404  0.8909 -1.0934
  321MOL0     C43255   7.018  10.911  11.129  0.0849 -0.6174 -1.1900
  321MOL0     C43256   7.113  10.804  11.093  0.1020 -0.3007 -0.0347
  321MOL0     C43257   7.176  10.724  11.190  0.2048 -0.5596  0.0797
  321MOL0     C43258   7.164  10.761  11.320 -0.0430  0.1045 -0.7318
  321MOL0     O43259   7.239  10.710  11.421  0.0674  0.4433  0.0224
  321MOL0     C43260   7.238  10.571  11.434  0.5305  0.3261 -0.1788
  321MOL0     C43261   7.316  10.517  11.555  0.1841  0.1756 -0.1885
  321MOL0     C43262   7.263  10.557  11.691 -0.1339 -0.1311 -0.1380
  321MOL0     C43263   7.170  10.451  11.750  0.8477  0.1565 -0.2516
  321MOL0     C43264   7.257  10.357  11.816 -0.1967  0.5006  0.4093
  321MOL0     C43265   7.325  10.271  11.868 -0.7452 -0.1483  0.2779
  321MOL0     C43266   7.092  10.871  11.360 -0.2099  0.4113 -0.4906
  321MOL0     C43267   7.007  10.938  11.267 -0.3785 -0.1656 -0.2968
  321MOL0     H43268   6.734  11.040  10.886 -0.0670  1.8214  0.5908
  321MOL0     H43269   6.622  11.135  10.695 -0.0605  0.2853  0.3617
  321MOL0     H43270   6.533  11.167  10.480  1.3729 -0.7764 -0.6095
  321MOL0     H43271   6.590  11.307  10.575  0.1107 -0.9389  0.4700
  321MOL0     H43272   6.627  11.447  10.356  1.0975 -1.2347 -0.7794
  321MOL0     H43273   6.590  11.293  10.276  1.6980 -2.8254  2.5107
  321MOL0     H43274   6.363  11.297  10.371 -1.9898  1.3663  3.1348
  321MOL0     H43275   6.399  11.447  10.459  1.1453 -0.0795  0.0905
  321MOL0     H43276   6.405  11.578  10.263 -2.6243  0.7119 -0.7358
  321MOL0     H43277   6.423  11.446  10.153 -0.4793 -2.3283  0.1522
  321MOL0     H43278   6.212  11.537  10.129 -0.4583 -2.4120 -1.2649
  321MOL0     H43279   6.196  11.372  10.172  1.4703  0.3197 -0.7650
  321MOL0     H43280   6.134  11.408  10.386 -1.1059  0.6060  0.8833
  321MOL0     H43281   6.187  11.586  10.386 -0.3660  1.0109 -0.1593
  321MOL0     H43282   5.954  11.470  10.224  2.1092 -0.8423 -0.4648
  321MOL0     H43283   5.941  11.529  10.389 -0.3389  1.4441 -0.4439
  321MOL0     H43284   6.030  11.682  10.137 -0.4325  1.3581  0.2218
  321MOL0     H43285   6.043  11.749  10.300  1.9023 -3.4599  2.2824
  321MOL0     H43286   5.851  11.841  10.433 -1.1295  1.9970 -0.2018
  321MOL0     H43287   5.556  11.881  10.467 -0.3008  0.0442  0.7591
  321MOL0     H43288   5.649  12.017  10.425 -1.6780  1.2998 -0.7441
  321MOL0     H43289   5.517  12.045  10.213  1.1805 -3.0139 -0.7617
  321MOL0     H43290   5.428  12.086  10.362 -2.6738  0.6092 -1.8413
  321MOL0     H43291   5.327  11.853  10.355 -4.5383  2.2311 -0.6110
  321MOL0     H43292   5.403  11.820  10.200 -0.7368  0.5803 -1.9745
  321MOL0     H43293   5.182  11.867  10.162 -0.6413  0.3650 -0.3355
  321MOL0     H43294   5.284  12.004  10.098 -1.2246  1.1444 -0.9863
  321MOL0     H43295   5.053  12.045  10.048 -0.4826 -2.1236  0.8894
  321MOL0     H43296   4.827  12.220   9.915  0.3344 -2.6445 -2.3318
  321MOL0     H43297   4.862  12.051   9.897  1.6164 -0.3410 -0.3169
  321MOL0     H43298   4.704  12.103   9.968 -0.3846  0.0689  2.4312
  321MOL0     H43299   4.373  12.145  10.120  0.3162 -1.8171  0.9038
  321MOL0     H43300   4.138  12.150  10.149  0.7564 -2.4011  0.7099
  321MOL0     H43301   3.928  12.217  10.181  3.5044 -1.8034 -0.0706
  321MOL0     H43302   3.964  12.087  10.299  3.7195  1.3693  0.3592
  321MOL0     H43303   3.786  12.169  10.451  0.5841 -0.4914  0.4473
  321MOL0     H43304   3.755  12.304  10.322  1.2908 -0.5095 -2.6418
  321MOL0     H43305   3.728  12.025  10.244 -0.4179  1.3685 -2.0222
  321MOL0     H43306   3.617  12.152  10.212  0.3409 -0.4971 -0.1892
  321MOL0     H43307   3.631  11.995  10.491 -0.3980  0.5725  1.4971
  321MOL0     H43308   3.545  12.139  10.457 -2.8694 -2.2497  3.3631
  321MOL0     H43309   3.526  11.881  10.286  0.1009 -0.9866  1.7689
  321MOL0     H43310   3.423  12.025  10.273  2.1543  0.4851 -1.1408
  321MOL0     H43311   3.310  11.826  10.384 -1.0118  0.3744  0.4659
  321MOL0     H43312   3.437  11.844  10.509 -0.1079  0.1757  2.2100
  321MOL0     H43313   3.173  11.994  10.453 -0.1562 -0.7410 -0.2626
  321MOL0     H43314   3.303  12.114  10.477  1.3848 -0.5808 -1.0770
  321MOL0     H43315   3.203  12.067  10.688  2.3199  0.3950  2.3920
  321MOL0     H43316   3.364  12.020  10.688  1.3660 -0.7406 -1.4056
  321MOL0     H43317   4.183  12.389  10.498 -1.0307  0.6108 -1.3134
  321MOL0     H43318   4.428  12.355  10.493 -1.4715  0.3940  0.7175
  321MOL0     H43319   4.782  12.224  10.424  0.1437  1.0684  0.5114
  321MOL0     H43320   4.998  12.113  10.463  1.1277  4.5201  0.3187
  321MOL0     H43321   6.984  11.179  10.483  0.5106 -1.2104  0.5943
  321MOL0     H43322   7.113  11.114  10.681  0.6513  2.2792  0.9609
  321MOL0     H43323   7.136  10.776  10.991  0.8082 -1.2186  0.3608
  321MOL0     H43324   7.241  10.642  11.162 -0.9105 -1.0747 -1.1034
  321MOL0     H43325   7.136  10.534  11.440  0.5210  0.3560 -0.1619
  321MOL0     H43326   7.282  10.531  11.342 -0.6637  1.1503 -1.1417
  321MOL0     H43327   7.419  10.552  11.552  0.2855 -0.1526 -0.6900
  321MOL0     H43328   7.314  10.407  11.553 -0.3203  0.1809 -0.2650
  321MOL0     H43329   7.211  10.652  11.679 -0.8424 -0.4949 -0.0086
  321MOL0     H43330   7.352  10.586  11.748  0.3615  0.8435 -1.3584
  321MOL0     H43331   7.105  10.415  11.669  0.6969 -0.5841  0.1982
  321MOL0     H43332   7.109  10.502  11.826 -0.0012 -1.1249 -0.0478
  321MOL0     H43333   7.380  10.204  11.931 -0.7384 -0.3334  0.0795
  321MOL0     H43334   7.080  10.894  11.465 -0.9431  1.3640 -0.7708
  321MOL0     H43335   6.939  11.011  11.311  0.8955  1.1290 -0.4096
  322MOL0     O43336   0.238   1.110   4.487 -0.5461 -0.2346  0.0967
  322MOL0     C43337   0.278   1.191   4.572  0.1362 -0.0416 -0.6518
  322MOL0     O43338   0.209   1.236   4.667 -1.1293  0.0415 -0.4118
  322MOL0     C43339   0.090   1.190   4.717  0.3253 -0.4423 -0.0153
  322MOL0     C43340   0.027   1.062   4.692  0.2345 -0.8878 -0.3451
  322MOL0     C43341  -0.074   1.015   4.773  0.9593  0.0341 -0.5282
  322MOL0     C43342  -0.144   1.105   4.857  0.1893  0.6540 -0.2276
  322MOL0     O43343  -0.261   1.078   4.929 -0.5142 -0.1606  0.1297
  322MOL0     C43344  -0.267   0.953   4.994  0.9794  1.0117  0.1299
  322MOL0     C43345  -0.148   0.925   5.098 -0.3263  0.6558 -1.0396
  322MOL0     C43346  -0.144   0.774   5.141 -0.8366 -0.2492 -0.0177
  322MOL0     C43347   0.002   0.751   5.201 -0.5512  0.0978  0.2703
  322MOL0     C43348   0.005   0.621   5.280 -0.1488  0.7976 -0.4970
  322MOL0     C43349   0.134   0.609   5.360 -0.3200  0.2708 -0.2801
  322MOL0     C43350   0.129   0.478   5.430  0.5209  0.4723 -1.3338
  322MOL0     C43351   0.247   0.453   5.527  0.4381  0.0881  0.5590
  322MOL0     N43352   0.204   0.362   5.631  0.4757  0.5182 -0.1125
  322MOL0     C43353   0.176   0.232   5.604  0.5253 -0.2504  0.3687
  322MOL0     C43354   0.108   0.192   5.710 -0.5544  0.4337  0.1850
  322MOL0     C43355   0.041   0.055   5.720 -0.1469  0.1654  0.3050
  322MOL0     C43356  -0.102   0.070   5.664  0.4132  0.3811 -0.1547
  322MOL0     C43357  -0.208  -0.006   5.754 -0.0630 -0.4289 -0.2095
  322MOL0     C43358  -0.318  -0.050   5.653 -0.5294 -1.0315  0.0113
  322MOL0     O43359  -0.400  -0.145   5.717  0.4285 -0.4187  0.1939
  322MOL0     C43360  -0.493  -0.097   5.810  0.1997 -0.3906  0.8849
  322MOL0     C43361  -0.609  -0.033   5.760 -0.3069  0.2962  0.5989
  322MOL0     C43362  -0.722  -0.020   5.843  0.9230  0.3184  0.1012
  322MOL0     C43363  -0.831   0.062   5.784  0.1733 -0.4411 -0.2361
  322MOL0     C43364  -0.728  -0.072   5.977 -0.0433  0.3358 -0.6353
  322MOL0     C43365  -0.858  -0.074   6.049 -0.0415 -0.6380 -0.1256
  322MOL0     O43366  -0.980  -0.075   5.981 -0.4489 -0.2841  0.3262
  322MOL0     C43367  -1.103  -0.107   6.033  0.5287 -0.3710  0.4033
  322MOL0     C43368  -1.150  -0.121   6.160  0.1375  0.2065 -0.3439
  322MOL0     C43369  -1.287  -0.148   6.196 -0.4421  0.9440  0.2231
  322MOL0     C43370  -1.385  -0.166   6.091 -1.1280  0.8485  0.8242
  322MOL0     O43371  -1.510  -0.201   6.128 -0.0415 -0.3115 -0.3790
  322MOL0     C43372  -1.621  -0.186   6.033 -1.5111  0.7095 -1.3423
  322MOL0     C43373  -1.743  -0.250   6.087 -0.2253  0.6290  0.0550
  322MOL0     C43374  -1.853  -0.146   6.106 -0.2586  0.0046 -0.4190
  322MOL0     C43375  -1.982  -0.214   6.145  0.3225  0.8756  0.0773
  322MOL0     C43376  -2.101  -0.112   6.125 -0.8116  0.1724  0.2675
  322MOL0     C43377  -2.226  -0.177   6.123  0.3994  0.4219 -0.1526
  322MOL0     C43378  -2.328  -0.059   6.114 -0.9145  0.2847  0.2626
  322MOL0     C43379  -2.475  -0.100   6.099 -0.2843  0.6217 -0.4736
  322MOL0    Cl43380  -2.594   0.032   6.114  0.1382  0.1017 -0.3735
  322MOL0     C43381  -1.333  -0.167   5.961  0.6101  0.1130 -0.3543
  322MOL0     C43382  -1.203  -0.133   5.936 -1.2107  0.8083 -1.1754
  322MOL0     O43383  -0.847  -0.083   6.168  0.4868 -0.0775  0.0108
  322MOL0     C43384  -0.609  -0.129   6.024 -0.5203 -0.3427 -0.4349
  322MOL0     C43385  -0.499  -0.151   5.940  0.4783 -0.4678 -0.0552
  322MOL0     N43386   0.097   0.292   5.809 -0.3248 -0.1451 -0.1587
  322MOL0     N43387   0.159   0.399   5.761 -0.2636  1.1021 -0.3277
  322MOL0     C43388  -0.089   1.232   4.873  0.2614  0.2082 -0.5335
  322MOL0     C43389   0.032   1.274   4.821 -0.4386 -0.0458  0.6702
  322MOL0     C43390   0.422   1.229   4.555  0.1946 -0.9438 -0.3154
  322MOL0     C43391   0.514   1.157   4.486  0.1270  0.0254  0.4394
  322MOL0     C43392   0.650   1.206   4.465  0.2536 -0.6604 -0.8186
  322MOL0     C43393   0.685   1.339   4.500 -0.0266 -0.2213 -0.1424
  322MOL0     O43394   0.806   1.397   4.480  0.3408  0.3144  0.6017
  322MOL0     C43395   0.910   1.325   4.403  0.5162  0.4398 -0.6296
  322MOL0     C43396   1.019   1.430   4.381 -0.6758 -0.0112 -0.4861
  322MOL0     C43397   1.119   1.472   4.490 -0.2104 -0.4426  0.0439
  322MOL0     C43398   1.270   1.435   4.463  0.3218 -0.8168  0.2894
  322MOL0     C43399   1.331   1.533   4.383 -0.4717 -0.3835  0.0721
  322MOL0     C43400   1.400   1.605   4.315 -0.1870  0.0727 -0.8995
  322MOL0     C43401   0.586   1.407   4.570 -0.2749 -1.0190  0.0166
  322MOL0     C43402   0.457   1.359   4.597  0.0261 -0.0204  1.1702
  322MOL0     H43403   0.075   0.985   4.633 -0.8699 -2.9806  1.3647
  322MOL0     H43404  -0.110   0.914   4.753 -1.1835  0.2257  1.8507
  322MOL0     H43405  -0.363   0.945   5.046  1.4033 -0.7963  0.7180
  322MOL0     H43406  -0.260   0.874   4.919 -2.9955  1.0192 -0.4829
  322MOL0     H43407  -0.045   0.951   5.073 -0.3416  4.6389  2.1199
  322MOL0     H43408  -0.178   0.983   5.185 -0.8687 -0.0034 -0.7775
  322MOL0     H43409  -0.213   0.751   5.223  0.5228 -1.5942  0.7982
  322MOL0     H43410  -0.157   0.708   5.055 -1.2508 -0.5788  0.2908
  322MOL0     H43411   0.070   0.741   5.116 -1.4745  0.9669 -0.5903
  322MOL0     H43412   0.041   0.828   5.268  3.5620 -2.0796  0.6785
  322MOL0     H43413  -0.081   0.627   5.346 -1.6667  2.6743 -2.5159
  322MOL0     H43414  -0.011   0.539   5.209  0.4974 -0.9618  1.2591
  322MOL0     H43415   0.220   0.626   5.295  0.9516  0.6726  1.4283
  322MOL0     H43416   0.133   0.697   5.426  1.1854  1.5750 -1.8771
  322MOL0     H43417   0.042   0.474   5.497  1.7673  2.2921  0.5095
  322MOL0     H43418   0.120   0.391   5.364 -2.5710  0.2743 -0.8220
  322MOL0     H43419   0.287   0.542   5.578 -1.6741  0.5135  1.6252
  322MOL0     H43420   0.322   0.390   5.479 -0.3198 -0.4760  0.0898
  322MOL0     H43421   0.188   0.185   5.507 -0.6995  0.8921 -0.3671
  322MOL0     H43422   0.080  -0.028   5.662 -1.6129  0.1097 -0.6708
  322MOL0     H43423   0.036   0.031   5.826 -0.8373  1.9223  0.7146
  322MOL0     H43424  -0.102   0.026   5.564  1.6405 -2.5456  1.0152
  322MOL0     H43425  -0.131   0.175   5.669  0.6732  0.4279  0.5392
  322MOL0     H43426  -0.257   0.060   5.825  1.0315 -0.2854  0.4366
  322MOL0     H43427  -0.167  -0.094   5.805 -1.4271 -0.5387  0.7569
  322MOL0     H43428  -0.273  -0.100   5.566  0.5246 -1.9472  1.0523
  322MOL0     H43429  -0.379   0.036   5.622  1.5837 -0.1292 -1.8688
  322MOL0     H43430  -0.604  -0.015   5.653  2.8758 -2.3706  0.1404
  322MOL0     H43431  -0.790   0.113   5.696 -2.7322  0.0315 -1.4424
  322MOL0     H43432  -0.908   0.003   5.732 -1.1948  2.9952 -2.5214
  322MOL0     H43433  -0.872   0.133   5.856 -0.7958 -2.0269  0.8405
  322MOL0     H43434  -1.087  -0.124   6.248 -0.0819  1.3056 -0.1358
  322MOL0     H43435  -1.315  -0.140   6.301 -0.2424  0.7853  0.2871
  322MOL0     H43436  -1.630  -0.080   6.011  1.3926  1.0181 -1.4506
  322MOL0     H43437  -1.593  -0.236   5.940 -0.7753  0.3441 -0.9354
  322MOL0     H43438  -1.783  -0.321   6.014  0.0833  0.1399  0.3553
  322MOL0     H43439  -1.723  -0.320   6.169 -0.8798  0.4483  0.0717
  322MOL0     H43440  -1.865  -0.089   6.013 -0.0825 -2.8611 -2.3409
  322MOL0     H43441  -1.809  -0.085   6.185  2.9796  0.9566 -2.7185
  322MOL0     H43442  -2.002  -0.309   6.095  1.7334  0.2392  0.6816
  322MOL0     H43443  -1.982  -0.234   6.253  1.4173  2.2454  0.3625
  322MOL0     H43444  -2.086  -0.061   6.029 -0.6188 -0.8435 -0.2622
  322MOL0     H43445  -2.090  -0.035   6.202  2.8155 -0.7259  0.8519
  322MOL0     H43446  -2.233  -0.230   6.027  1.2283 -0.0418  0.0368
  322MOL0     H43447  -2.239  -0.247   6.205 -2.8963  1.8861  0.7235
  322MOL0     H43448  -2.310  -0.008   6.019 -1.6985  1.6187  0.8070
  322MOL0     H43449  -2.324   0.015   6.194  0.3955  0.8557 -0.2974
  322MOL0     H43450  -2.510  -0.176   6.170 -1.6775  0.3037 -1.4653
  322MOL0     H43451  -2.481  -0.153   6.004 -0.5669 -0.7356  0.2787
  322MOL0     H43452  -1.390  -0.212   5.879  1.8740 -0.9391 -0.6882
  322MOL0     H43453  -1.176  -0.142   5.831  0.4947  2.2605 -0.9069
  322MOL0     H43454  -0.609  -0.164   6.127  1.5923  1.1829  0.1498
  322MOL0     H43455  -0.409  -0.203   5.971  0.7247 -0.0929 -0.1291
  322MOL0     H43456  -0.138   1.297   4.944  1.1516 -0.6615  0.9351
  322MOL0     H43457   0.080   1.371   4.828  1.1627 -0.6813 -0.8987
  322MOL0     H43458   0.488   1.059   4.447 -2.3599  1.2901 -1.3597
  322MOL0     H43459   0.715   1.128   4.426 -1.5711 -2.8924  0.3688
  322MOL0     H43460   0.966   1.243   4.450  1.9530  1.9249  0.3399
  322MOL0     H43461   0.864   1.298   4.308 -1.6031  0.1921  0.3955
  322MOL0     H43462   0.974   1.524   4.347  1.3729  1.6147  1.0440
  322MOL0     H43463   1.080   1.383   4.303  1.3954  2.9124 -0.8049
  322MOL0     H43464   1.088   1.428   4.585  0.6508  0.9690  1.0193
  322MOL0     H43465   1.109   1.581   4.489  0.2276 -0.3724 -2.3326
  322MOL0     H43466   1.270   1.336   4.419 -2.5886 -2.0823  2.7593
  322MOL0     H43467   1.315   1.433   4.563  1.6590  0.4591 -0.2380
  322MOL0     H43468   1.460   1.681   4.269 -0.2547  0.5696 -0.1788
  322MOL0     H43469   0.625   1.505   4.594 -1.9445 -0.0465 -1.0504
  322MOL0     H43470   0.387   1.423   4.649 -0.7414  0.8089 -0.7778
  323MOL0     O43471   3.238   3.032   1.658  0.1554 -0.4060  0.0422
  323MOL0     C43472   3.213   3.083   1.764 -0.0064 -0.0281 -0.8554
  323MOL0     O43473   3.089   3.099   1.817 -0.3771 -0.9259  1.0627
  323MOL0     C43474   2.978   3.045   1.763  0.4126  0.1542  1.2371
  323MOL0     C43475   2.966   2.921   1.689  0.0148 -0.2133  0.6672
  323MOL0     C43476   2.840   2.873   1.640 -0.4813 -1.0337  0.6462
  323MOL0     C43477   2.722   2.949   1.679 -1.0255 -0.2152  0.2358
  323MOL0     O43478   2.603   2.903   1.631 -0.0169 -0.1284 -0.3458
  323MOL0     C43479   2.507   2.996   1.582 -0.0649 -0.0129 -0.1774
  323MOL0     C43480   2.407   2.922   1.490 -0.1619 -0.7913 -0.1845
  323MOL0     C43481   2.295   3.009   1.442  0.4928  0.2031 -0.4403
  323MOL0     C43482   2.170   2.921   1.436 -0.8517  0.1041 -1.3593
  323MOL0     C43483   2.037   2.993   1.412 -0.8909 -0.4846  0.0801
  323MOL0     C43484   2.004   3.114   1.505  0.0478  0.1707 -0.2962
  323MOL0     C43485   1.864   3.156   1.470 -0.2435 -0.4434 -0.3515
  323MOL0     C43486   1.756   3.075   1.546  0.0278  0.2515  0.8154
  323MOL0     N43487   1.620   3.100   1.488 -0.0434  0.4397  0.5874
  323MOL0     C43488   1.545   3.001   1.430  0.0617 -0.6702 -0.5338
  323MOL0     C43489   1.413   3.040   1.439  0.2958  0.4017 -0.5254
  323MOL0     C43490   1.301   2.952   1.383 -0.4641  1.5328 -0.4671
  323MOL0     C43491   1.279   2.946   1.233 -0.3848  0.4861  0.3105
  323MOL0     C43492   1.225   3.085   1.181 -0.2293 -0.1268  0.0641
  323MOL0     C43493   1.145   3.064   1.046  0.2126 -0.5641  1.0659
  323MOL0     O43494   1.076   3.186   1.019  0.0693 -0.8894  0.0473
  323MOL0     C43495   0.999   3.195   0.907  0.0704 -1.3376 -0.2001
  323MOL0     C43496   0.950   3.084   0.843 -0.0621 -0.4199  0.3809
  323MOL0     C43497   0.876   3.098   0.718 -0.4362  0.2258 -0.0932
  323MOL0     C43498   0.875   2.968   0.646  0.0715 -0.1307 -0.3655
  323MOL0     C43499   0.836   3.231   0.677  0.9249 -0.0774 -0.3244
  323MOL0     C43500   0.748   3.262   0.557 -0.0170 -0.9304  0.1791
  323MOL0     O43501   0.704   3.152   0.502  0.1344  0.1389 -0.7198
  323MOL0     C43502   0.655   3.159   0.370 -0.6700 -0.3183 -0.9127
  323MOL0     C43503   0.720   3.083   0.278  0.5181 -0.6423  0.3435
  323MOL0     C43504   0.673   3.076   0.149 -0.3010  0.3646 -0.1089
  323MOL0     C43505   0.554   3.147   0.109 -0.1423 -0.3735  0.3493
  323MOL0     O43506   0.486   3.124  -0.011  0.2213 -0.3448  0.0847
  323MOL0     C43507   0.491   3.223  -0.115 -0.1947  0.1277  0.4350
  323MOL0     C43508   0.379   3.202  -0.216 -0.1450 -0.2293  0.4928
  323MOL0     C43509   0.372   3.295  -0.339 -0.3430  0.3888  0.0747
  323MOL0     C43510   0.397   3.444  -0.314 -0.1988  0.3001 -0.0706
  323MOL0     C43511   0.361   3.529  -0.430 -0.2296  0.1181 -1.1462
  323MOL0     C43512   0.419   3.482  -0.560 -0.5710 -0.0383  0.6014
  323MOL0     C43513   0.444   3.590  -0.663  0.1009  0.3666 -0.5233
  323MOL0     C43514   0.322   3.665  -0.719 -0.6578  0.5382  0.3464
  323MOL0    Cl43515   0.236   3.554  -0.831  0.3321 -0.5736  0.2419
  323MOL0     C43516   0.488   3.230   0.200 -0.1838 -0.1337 -0.1614
  323MOL0     C43517   0.533   3.228   0.333 -0.6553  0.7003  0.3362
  323MOL0     O43518   0.727   3.384   0.519 -0.1333  0.1960 -0.2838
  323MOL0     C43519   0.890   3.342   0.751  0.5746  0.1040 -0.1570
  323MOL0     C43520   0.962   3.325   0.866 -1.0346  0.1647  0.2715
  323MOL0     N43521   1.404   3.163   1.498 -1.2463 -0.1900  0.0153
  323MOL0     N43522   1.530   3.195   1.530 -0.7079  0.4355 -0.4993
  323MOL0     C43523   2.727   3.066   1.766 -0.2329  0.2253 -0.2724
  323MOL0     C43524   2.854   3.110   1.801 -1.1973 -0.3776 -0.6388
  323MOL0     C43525   3.324   3.132   1.853 -0.2670 -0.4588  0.7303
  323MOL0     C43526   3.291   3.201   1.976  0.4190  0.4401 -0.4898
  323MOL0     C43527   3.402   3.247   2.053  0.5382 -0.3209 -0.2846
  323MOL0     C43528   3.535   3.218   2.037  0.1214 -0.4940  0.3485
  323MOL0     O43529   3.625   3.253   2.129  0.0121 -0.0961  0.3066
  323MOL0     C43530   3.749   3.189   2.112  0.2469  0.4282  0.0422
  323MOL0     C43531   3.847   3.236   2.215 -0.1276  0.4721 -0.5139
  323MOL0     C43532   3.829   3.181   2.357 -0.2209  0.6168 -0.6818
  323MOL0     C43533   3.912   3.253   2.451  0.3018 -0.0947  0.4106
  323MOL0     C43534   4.048   3.205   2.461 -0.8901  0.6272  0.2861
  323MOL0     C43535   4.152   3.157   2.488 -0.3620 -0.6312 -0.6557
  323MOL0     C43536   3.565   3.153   1.916 -0.5479  0.5564 -0.4044
  323MOL0     C43537   3.463   3.110   1.832  0.8255  0.8099 -0.1116
  323MOL0     H43538   3.051   2.859   1.664 -1.2947 -2.1129  0.7069
  323MOL0     H43539   2.829   2.779   1.588 -3.6117 -0.6392  0.4106
  323MOL0     H43540   2.448   3.041   1.663 -1.2721 -1.2416 -0.3267
  323MOL0     H43541   2.552   3.080   1.528  0.4633  0.5820  1.1513
  323MOL0     H43542   2.459   2.868   1.410 -0.5730  1.7027 -2.2373
  323MOL0     H43543   2.368   2.837   1.548 -2.8811  0.5510  0.0757
  323MOL0     H43544   2.286   3.089   1.516 -1.7867 -0.3456 -0.0310
  323MOL0     H43545   2.323   3.044   1.342 -0.4797  1.4182 -0.3126
  323MOL0     H43546   2.176   2.847   1.356 -2.6139 -1.2432 -0.3043
  323MOL0     H43547   2.164   2.875   1.535  1.4985  2.2491 -0.0884
  323MOL0     H43548   2.028   3.021   1.307  1.0919  1.1830  0.2934
  323MOL0     H43549   1.968   2.912   1.438 -0.5359  0.3238  4.4311
  323MOL0     H43550   2.015   3.076   1.607  1.1195 -1.7758 -1.0820
  323MOL0     H43551   2.080   3.191   1.491  0.4519  0.4993  2.9883
  323MOL0     H43552   1.849   3.259   1.501  1.0968 -1.2448  3.5029
  323MOL0     H43553   1.850   3.148   1.362  1.1250 -2.4568 -0.4523
  323MOL0     H43554   1.746   3.106   1.650 -0.8555  1.4870  0.3902
  323MOL0     H43555   1.773   2.968   1.530  0.9545  0.7268 -2.0962
  323MOL0     H43556   1.594   2.911   1.394  4.1635  1.0665  0.0589
  323MOL0     H43557   1.330   2.851   1.414 -3.9244  0.3809 -0.5253
  323MOL0     H43558   1.209   2.976   1.437 -0.2060  0.6648  0.3890
  323MOL0     H43559   1.193   2.879   1.226  0.0979 -0.0254 -0.9429
  323MOL0     H43560   1.371   2.914   1.183 -0.9914 -1.0963  0.1690
  323MOL0     H43561   1.312   3.150   1.173  0.8467 -1.1417  2.5072
  323MOL0     H43562   1.165   3.129   1.261  1.1918  0.0601  1.0615
  323MOL0     H43563   1.079   2.981   1.073  0.7287 -1.4679 -0.3126
  323MOL0     H43564   1.211   3.026   0.968  1.1028  0.1225  1.4689
  323MOL0     H43565   0.963   2.981   0.873  3.7231 -0.2546 -0.2239
  323MOL0     H43566   0.857   2.885   0.715  1.4399 -0.1909 -0.0470
  323MOL0     H43567   0.790   2.961   0.578 -3.2988 -0.5875  3.4763
  323MOL0     H43568   0.975   2.955   0.605 -0.2368  1.5080 -1.7670
  323MOL0     H43569   0.815   3.032   0.292  1.2884 -0.1114 -2.2678
  323MOL0     H43570   0.729   3.027   0.071 -0.1222  1.0649 -0.4276
  323MOL0     H43571   0.479   3.324  -0.074 -3.5279 -0.7064  1.7828
  323MOL0     H43572   0.589   3.214  -0.163 -0.7893 -0.5876 -0.6866
  323MOL0     H43573   0.373   3.097  -0.246 -0.5997  0.1102 -0.6702
  323MOL0     H43574   0.286   3.225  -0.162 -2.2483 -3.5979 -1.3023
  323MOL0     H43575   0.271   3.279  -0.377  0.3325 -2.9488 -0.7101
  323MOL0     H43576   0.451   3.266  -0.409 -0.1500  1.6285 -0.2390
  323MOL0     H43577   0.336   3.477  -0.229 -0.3801  0.5000 -0.2780
  323MOL0     H43578   0.501   3.454  -0.280 -0.1708  0.6252 -0.2556
  323MOL0     H43579   0.406   3.624  -0.400  2.8944 -2.3645  3.2258
  323MOL0     H43580   0.253   3.541  -0.434  0.0686  4.8602 -0.0588
  323MOL0     H43581   0.524   3.458  -0.539  0.0537  1.4451 -0.6501
  323MOL0     H43582   0.376   3.391  -0.603 -1.0234 -0.9725  2.8951
  323MOL0     H43583   0.509   3.544  -0.738 -0.7339 -1.2780 -0.2854
  323MOL0     H43584   0.527   3.651  -0.626  0.7528 -1.0880  0.4788
  323MOL0     H43585   0.358   3.749  -0.778  4.5161 -2.3562 -1.3137
  323MOL0     H43586   0.272   3.698  -0.628 -0.6134 -0.8662  0.9112
  323MOL0     H43587   0.401   3.282   0.159 -1.0050 -0.9359  0.5191
  323MOL0     H43588   0.499   3.285   0.419  0.9422  1.6439  0.3784
  323MOL0     H43589   0.864   3.442   0.718 -4.1378 -1.3208 -1.5918
  323MOL0     H43590   0.996   3.407   0.929  3.3553 -0.7731 -0.5316
  323MOL0     H43591   2.644   3.133   1.786 -0.2094  0.1161  0.1989
  323MOL0     H43592   2.863   3.196   1.866  0.7880  0.1246 -1.4958
  323MOL0     H43593   3.193   3.226   2.015  0.2084  0.7408 -1.2014
  323MOL0     H43594   3.386   3.298   2.147  1.1762  0.2540 -0.4840
  323MOL0     H43595   3.730   3.083   2.131 -1.6725  1.4257  5.5892
  323MOL0     H43596   3.801   3.198   2.016  0.1435 -1.4787 -0.2436
  323MOL0     H43597   3.829   3.343   2.219  1.0016  0.6442  0.4957
  323MOL0     H43598   3.952   3.211   2.195  0.0991  1.6791 -0.9109
  323MOL0     H43599   3.859   3.076   2.363 -0.9375  0.2098 -3.2053
  323MOL0     H43600   3.726   3.186   2.392 -0.0687 -1.3613  0.1666
  323MOL0     H43601   3.862   3.249   2.548 -2.3986 -0.3220 -0.8976
  323MOL0     H43602   3.918   3.358   2.419 -1.1096 -0.9690 -3.3195
  323MOL0     H43603   4.247   3.116   2.515 -0.2325  0.8256  1.3062
  323MOL0     H43604   3.664   3.142   1.874 -0.5094 -1.1675  0.0900
  323MOL0     H43605   3.496   3.057   1.744 -2.8134  1.9074 -2.3564
  324MOL0     O43606   2.463   3.489   9.376  0.9667  0.1770  0.0865
  324MOL0     C43607   2.501   3.573   9.461 -0.3453 -0.2078  0.5336
  324MOL0     O43608   2.443   3.684   9.504 -0.0236 -0.3293  0.2051
  324MOL0     C43609   2.332   3.725   9.441 -1.1769 -0.7114  0.3103
  324MOL0     C43610   2.211   3.707   9.508  0.0261  0.4058  0.0107
  324MOL0     C43611   2.091   3.735   9.444 -0.3633  0.0483 -0.0207
  324MOL0     C43612   2.096   3.807   9.326 -0.1785 -0.9675  0.2054
  324MOL0     O43613   1.983   3.855   9.263 -0.1727  0.1358  0.2948
  324MOL0     C43614   1.870   3.898   9.339 -0.0876  1.6330 -0.0529
  324MOL0     C43615   1.848   4.048   9.307 -0.7751  0.1018  0.7201
  324MOL0     C43616   1.793   4.078   9.168 -0.1992  0.1820  1.0756
  324MOL0     C43617   1.793   4.226   9.132 -0.0257 -0.1600  0.8468
  324MOL0     C43618   1.733   4.257   8.992 -0.7944 -0.0383 -0.5837
  324MOL0     C43619   1.776   4.166   8.874  0.4689  0.8499  0.0638
  324MOL0     C43620   1.726   4.242   8.750  0.1379  0.1488  0.7159
  324MOL0     C43621   1.679   4.137   8.635 -0.0327 -0.1913 -0.4031
  324MOL0     N43622   1.639   4.205   8.515 -0.2158 -0.8159  0.0719
  324MOL0     C43623   1.529   4.289   8.505 -0.5452 -0.3453 -0.4667
  324MOL0     C43624   1.544   4.343   8.378 -0.0235  0.1393  0.2602
  324MOL0     C43625   1.467   4.462   8.314 -0.5473 -0.2230 -0.0601
  324MOL0     C43626   1.320   4.450   8.334  0.3530 -0.2223 -0.3729
  324MOL0     C43627   1.229   4.550   8.268 -0.6883 -0.2033 -0.2726
  324MOL0     C43628   1.077   4.524   8.270 -0.7568  0.3506 -0.1788
  324MOL0     O43629   1.016   4.649   8.243  0.4887 -0.6436 -0.3019
  324MOL0     C43630   0.885   4.665   8.273 -0.1609 -0.0802 -0.3804
  324MOL0     C43631   0.821   4.571   8.348  0.0128  0.1261 -0.1324
  324MOL0     C43632   0.698   4.600   8.404  0.5205  0.6486  0.6228
  324MOL0     C43633   0.639   4.488   8.491  0.7559 -0.4707 -0.0740
  324MOL0     C43634   0.634   4.723   8.374  0.0401  0.5054  0.1303
  324MOL0     C43635   0.503   4.756   8.434  0.1682  0.0818  1.0256
  324MOL0     O43636   0.482   4.891   8.457 -0.0453  0.0525 -0.1825
  324MOL0     C43637   0.354   4.934   8.470  0.1441 -0.1651 -0.4350
  324MOL0     C43638   0.315   4.996   8.591 -0.4232 -0.4545 -0.1148
  324MOL0     C43639   0.195   5.058   8.603 -0.0262 -0.4283 -0.2114
  324MOL0     C43640   0.102   5.054   8.500  0.1403 -0.5154  0.4039
  324MOL0     O43641  -0.020   5.115   8.528  0.1988 -0.0875  0.2812
  324MOL0     C43642  -0.092   5.133   8.407  0.0281  0.7381  0.1015
  324MOL0     C43643  -0.205   5.219   8.437  1.3051  0.1909  0.3454
  324MOL0     C43644  -0.289   5.244   8.305  0.5999  0.2293  0.5476
  324MOL0     C43645  -0.419   5.330   8.321  0.4463 -0.2459 -0.0747
  324MOL0     C43646  -0.480   5.372   8.185 -0.1839 -0.2327  0.8027
  324MOL0     C43647  -0.610   5.450   8.199 -0.2765  0.7027 -0.1165
  324MOL0     C43648  -0.665   5.500   8.070  0.3729 -0.2928  1.4143
  324MOL0     C43649  -0.820   5.502   8.067 -0.3808  0.6264 -0.6833
  324MOL0    Cl43650  -0.863   5.334   8.073  0.3892  0.1280  0.1035
  324MOL0     C43651   0.144   4.996   8.379  0.2286  0.1370 -0.0602
  324MOL0     C43652   0.269   4.930   8.364  0.0423  0.0589 -0.0650
  324MOL0     O43653   0.416   4.675   8.432 -0.4094 -0.0451 -0.4422
  324MOL0     C43654   0.705   4.816   8.304 -0.3698 -1.1650  0.3510
  324MOL0     C43655   0.823   4.792   8.248  0.2479  0.2461 -0.2941
  324MOL0     N43656   1.648   4.288   8.309 -0.0575 -0.2533  0.2483
  324MOL0     N43657   1.710   4.211   8.394 -0.1061 -0.0281 -1.1642
  324MOL0     C43658   2.218   3.846   9.265 -0.1837 -1.0070  0.8498
  324MOL0     C43659   2.339   3.794   9.319 -0.0793  0.2385 -0.6496
  324MOL0     C43660   2.625   3.551   9.527 -0.1787 -0.3546  0.0090
  324MOL0     C43661   2.710   3.447   9.490 -0.1806 -0.5836  0.2451
  324MOL0     C43662   2.834   3.416   9.543  0.5483  0.5684 -0.8916
  324MOL0     C43663   2.867   3.492   9.658  0.3946 -0.1068  0.7596
  324MOL0     O43664   2.984   3.494   9.727 -0.7052 -0.4862  0.1525
  324MOL0     C43665   3.069   3.376   9.720 -0.1202  0.7430  0.4545
  324MOL0     C43666   3.003   3.251   9.777  0.6943 -0.2444 -0.2123
  324MOL0     C43667   3.073   3.204   9.904 -0.6064  0.5216 -0.4111
  324MOL0     C43668   3.043   3.294  10.025 -0.0837  0.3583 -0.9955
  324MOL0     C43669   3.175   3.310  10.095 -0.2552  0.2217  0.4076
  324MOL0     C43670   3.272   3.326  10.165 -0.2470  0.2418  0.1089
  324MOL0     C43671   2.784   3.592   9.709  0.7589  1.1564 -0.6877
  324MOL0     C43672   2.663   3.623   9.646 -0.7121  0.6445 -0.0778
  324MOL0     H43673   2.208   3.659   9.605 -1.9225  4.1072  1.9726
  324MOL0     H43674   1.996   3.704   9.485 -0.7505  2.0440  0.7007
  324MOL0     H43675   1.786   3.836   9.305 -0.0236  0.4195  1.8102
  324MOL0     H43676   1.874   3.886   9.448 -0.2002  2.3171  0.0313
  324MOL0     H43677   1.772   4.081   9.379 -0.0847 -0.7861  1.9031
  324MOL0     H43678   1.936   4.112   9.321  0.9873 -1.3845 -2.4857
  324MOL0     H43679   1.847   4.017   9.095  0.5998  0.9923  0.9739
  324MOL0     H43680   1.691   4.040   9.179  0.3119 -1.4706  0.4758
  324MOL0     H43681   1.744   4.277   9.215  2.5068 -0.5641  2.7331
  324MOL0     H43682   1.896   4.262   9.128  0.7240 -2.2371 -1.1970
  324MOL0     H43683   1.624   4.257   8.988 -0.9329 -1.2949  1.8137
  324MOL0     H43684   1.749   4.363   8.968  0.5247 -0.5434 -2.0925
  324MOL0     H43685   1.880   4.133   8.872  0.1840 -0.6305  3.4046
  324MOL0     H43686   1.716   4.074   8.882  0.7239  0.5824 -0.9244
  324MOL0     H43687   1.646   4.311   8.778 -0.2643 -0.6520  1.6254
  324MOL0     H43688   1.801   4.308   8.706 -1.7541  0.3056 -2.5721
  324MOL0     H43689   1.590   4.081   8.667  0.8344 -0.1146  2.4561
  324MOL0     H43690   1.760   4.067   8.608  1.3838  0.3051  2.1756
  324MOL0     H43691   1.467   4.331   8.584 -0.1877 -3.0993  1.3985
  324MOL0     H43692   1.494   4.554   8.368  1.2743 -0.7466 -0.0012
  324MOL0     H43693   1.490   4.460   8.208  1.1182 -2.7308  0.2802
  324MOL0     H43694   1.296   4.447   8.441 -1.6085  0.1785 -0.7739
  324MOL0     H43695   1.292   4.356   8.288  0.6870  0.2887 -1.6674
  324MOL0     H43696   1.260   4.545   8.163 -1.5381 -1.5989 -0.4870
  324MOL0     H43697   1.245   4.648   8.314 -2.5516  0.0461 -0.0771
  324MOL0     H43698   1.049   4.481   8.367  2.6892 -0.4360  0.5850
  324MOL0     H43699   1.043   4.462   8.186  1.7363  1.2973 -2.0334
  324MOL0     H43700   0.855   4.468   8.342 -2.0852 -0.6596  0.5053
  324MOL0     H43701   0.626   4.511   8.597  1.1870 -2.5655  0.4821
  324MOL0     H43702   0.549   4.456   8.438  3.0204  0.0024 -4.7172
  324MOL0     H43703   0.701   4.399   8.488  0.4975 -0.6218 -1.3750
  324MOL0     H43704   0.380   5.001   8.677  0.9082 -1.4997 -1.0177
  324MOL0     H43705   0.162   5.118   8.687 -0.1413 -0.3101 -0.3410
  324MOL0     H43706  -0.038   5.187   8.329 -0.4145  1.2350  0.1296
  324MOL0     H43707  -0.126   5.034   8.374  3.9523 -1.0557  0.9263
  324MOL0     H43708  -0.274   5.168   8.505  1.2673 -1.7842 -1.0933
  324MOL0     H43709  -0.173   5.320   8.465 -0.2896  0.8382 -0.0466
  324MOL0     H43710  -0.320   5.151   8.257 -3.2688  1.0467  1.1145
  324MOL0     H43711  -0.224   5.286   8.228  1.5721  2.1965  2.3249
  324MOL0     H43712  -0.484   5.267   8.383 -0.3344 -0.8062 -1.4208
  324MOL0     H43713  -0.409   5.422   8.379 -1.6743  1.2375 -1.9158
  324MOL0     H43714  -0.487   5.279   8.128  2.4508 -1.4661  2.2693
  324MOL0     H43715  -0.409   5.443   8.140 -2.6183  1.9947  0.2317
  324MOL0     H43716  -0.693   5.391   8.240 -0.6504  0.5793 -1.0241
  324MOL0     H43717  -0.591   5.533   8.267 -0.1177  0.1596  0.5195
  324MOL0     H43718  -0.637   5.444   7.981  0.8124  1.0593  0.6688
  324MOL0     H43719  -0.635   5.605   8.056 -0.9707 -0.0701 -0.1004
  324MOL0     H43720  -0.862   5.553   7.980  1.7051  1.9589 -0.9985
  324MOL0     H43721  -0.842   5.555   8.160  0.3080 -1.1344  0.5393
  324MOL0     H43722   0.081   4.987   8.291  0.2211 -1.8928  0.1070
  324MOL0     H43723   0.303   4.895   8.267 -1.5273  1.2547 -1.0894
  324MOL0     H43724   0.663   4.914   8.284  2.7642  0.1778 -0.2147
  324MOL0     H43725   0.875   4.860   8.182  1.9232  1.4683  2.1573
  324MOL0     H43726   2.212   3.903   9.172  1.4906  1.8885  2.3875
  324MOL0     H43727   2.437   3.807   9.275  0.5327 -2.9461 -0.4741
  324MOL0     H43728   2.671   3.379   9.414 -0.9934 -0.1294  0.2424
  324MOL0     H43729   2.895   3.335   9.503 -1.0937 -1.2536  0.1502
  324MOL0     H43730   3.106   3.347   9.621  1.3055 -1.2239  1.4976
  324MOL0     H43731   3.161   3.399   9.775  1.7878 -2.1365 -1.2593
  324MOL0     H43732   3.023   3.167   9.710  3.3272  0.4895 -0.4542
  324MOL0     H43733   2.894   3.262   9.782  0.5222 -0.6109 -2.3322
  324MOL0     H43734   3.177   3.192   9.871 -0.5400 -2.6822  0.6911
  324MOL0     H43735   3.049   3.104   9.940 -1.4518 -0.2816 -2.9525
  324MOL0     H43736   2.980   3.242  10.098  0.1339 -2.1562 -2.4782
  324MOL0     H43737   3.003   3.392   9.998 -1.9084  0.6691  2.3609
  324MOL0     H43738   3.356   3.342  10.229  0.3531  1.6272 -0.9684
  324MOL0     H43739   2.803   3.647   9.801 -1.7934  1.0597 -0.0262
  324MOL0     H43740   2.608   3.706   9.689  1.5710  1.5751  1.2349
  325MOL0     O43741   7.695   0.564   6.018  0.0512  0.7335  0.5311
  325MOL0     C43742   7.692   0.641   6.112  0.8545  0.6459 -0.3300
  325MOL0     O43743   7.586   0.722   6.141 -0.0982 -0.7062 -0.8297
  325MOL0     C43744   7.471   0.677   6.084  0.4542 -0.2003 -0.5283
  325MOL0     C43745   7.403   0.578   6.156 -0.0660 -0.1584  1.7839
  325MOL0     C43746   7.287   0.512   6.106 -0.3739 -0.9429  0.4767
  325MOL0     C43747   7.258   0.542   5.976 -0.2400 -0.3051 -0.7788
  325MOL0     O43748   7.162   0.464   5.922 -0.2239  0.0664  0.0668
  325MOL0     C43749   7.182   0.419   5.786  0.4635  0.4611  0.5240
  325MOL0     C43750   7.070   0.307   5.769  0.5077 -0.9264 -0.1214
  325MOL0     C43751   6.924   0.358   5.784  0.4758  0.3615  0.3437
  325MOL0     C43752   6.902   0.497   5.720  0.5084  0.0164 -0.3210
  325MOL0     C43753   6.761   0.532   5.693  0.4055 -0.8519 -0.6129
  325MOL0     C43754   6.752   0.663   5.605  0.2933  0.4988  0.0904
  325MOL0     C43755   6.602   0.694   5.571  0.4383 -0.1083  0.0279
  325MOL0     C43756   6.505   0.719   5.691 -0.5821 -1.0203  0.5637
  325MOL0     N43757   6.426   0.596   5.727  0.7968 -0.1754  0.3424
  325MOL0     C43758   6.324   0.599   5.817 -0.1507 -0.0771 -0.1444
  325MOL0     C43759   6.279   0.471   5.834 -0.0943  0.2248  0.0441
  325MOL0     C43760   6.180   0.413   5.931 -0.6605 -0.9162  0.3347
  325MOL0     C43761   6.035   0.405   5.895 -0.7016 -0.2594 -0.4146
  325MOL0     C43762   6.019   0.332   5.755 -0.1571  0.4536  0.6143
  325MOL0     C43763   5.874   0.353   5.704 -0.5667  0.4697 -0.6327
  325MOL0     O43764   5.777   0.312   5.797 -0.0282  0.2469 -0.1744
  325MOL0     C43765   5.647   0.288   5.757 -0.3289 -0.0719 -0.0749
  325MOL0     C43766   5.596   0.298   5.636  0.0735  0.1338  0.8169
  325MOL0     C43767   5.467   0.266   5.601  0.2166 -0.5946 -0.0775
  325MOL0     C43768   5.439   0.275   5.460  0.2212 -0.2336  0.7135
  325MOL0     C43769   5.375   0.229   5.703 -0.0356 -0.5410  0.2907
  325MOL0     C43770   5.240   0.176   5.686 -0.1206 -0.5496 -0.0765
  325MOL0     O43771   5.169   0.161   5.804 -0.4473 -0.4548  0.2112
  325MOL0     C43772   5.033   0.138   5.798 -0.3305 -0.3101 -0.5567
  325MOL0     C43773   4.946   0.199   5.704 -0.3319  0.2016 -0.5155
  325MOL0     C43774   4.806   0.178   5.722 -0.0138  0.3142 -0.0410
  325MOL0     C43775   4.747   0.094   5.817 -0.4777  0.1426  0.1402
  325MOL0     O43776   4.611   0.078   5.833 -0.1707 -0.2303  0.2435
  325MOL0     C43777   4.531   0.162   5.751  0.6773  0.1798  0.1320
  325MOL0     C43778   4.383   0.138   5.764  1.3085 -0.0109 -0.4255
  325MOL0     C43779   4.315   0.220   5.650  0.3830  0.4678 -0.7817
  325MOL0     C43780   4.172   0.166   5.623 -0.5384 -0.1109  0.6647
  325MOL0     C43781   4.107   0.239   5.504 -0.0636 -1.0379  0.0577
  325MOL0     C43782   4.157   0.206   5.360  0.9763  0.0502  0.0781
  325MOL0     C43783   4.105   0.320   5.265 -0.8930  0.0630  0.3966
  325MOL0     C43784   4.232   0.398   5.211 -0.6451  0.1467  0.2496
  325MOL0    Cl43785   4.331   0.301   5.104 -0.5994 -0.0444  0.0097
  325MOL0     C43786   4.835   0.019   5.891 -0.0186 -0.1896 -0.0074
  325MOL0     C43787   4.974   0.043   5.884 -0.0529 -0.1585 -0.4719
  325MOL0     O43788   5.202   0.140   5.578 -0.0490  0.1919 -0.3200
  325MOL0     C43789   5.425   0.256   5.838 -0.2028  0.5087  0.1140
  325MOL0     C43790   5.559   0.278   5.859 -0.7159 -0.2865 -0.2259
  325MOL0     N43791   6.349   0.395   5.746 -0.6266 -0.5110  0.2728
  325MOL0     N43792   6.442   0.467   5.691 -0.1465  1.0855 -0.9364
  325MOL0     C43793   7.319   0.651   5.900  0.4539  1.0106 -1.1000
  325MOL0     C43794   7.424   0.718   5.958  0.1571  0.1854 -0.1508
  325MOL0     C43795   7.820   0.657   6.182 -0.4338 -0.0663 -0.0778
  325MOL0     C43796   7.828   0.718   6.309  0.1128  0.8317 -0.1134
  325MOL0     C43797   7.945   0.736   6.376  0.7508  0.3852 -0.1492
  325MOL0     C43798   8.064   0.686   6.322 -0.0413 -0.2313 -0.1641
  325MOL0     O43799   8.188   0.700   6.364  0.5505 -0.5974  0.2255
  325MOL0     C43800   8.243   0.805   6.450  1.3908 -0.0184  1.2462
  325MOL0     C43801   8.248   0.762   6.601 -0.1606  0.0288 -0.0497
  325MOL0     C43802   8.285   0.876   6.703 -0.1551 -0.1444  0.3945
  325MOL0     C43803   8.263   0.845   6.845 -0.0213 -0.2317  0.4087
  325MOL0     C43804   8.347   0.729   6.886 -0.3197  0.1364  0.6979
  325MOL0     C43805   8.430   0.643   6.901  0.4997  0.0994  0.5670
  325MOL0     C43806   8.049   0.621   6.202 -0.3050 -0.0966 -0.0388
  325MOL0     C43807   7.932   0.600   6.132 -0.5729  0.0442 -0.2911
  325MOL0     H43808   7.461   0.549   6.243  3.2617 -1.6389 -0.7271
  325MOL0     H43809   7.236   0.428   6.151 -1.7325 -0.4571 -0.1127
  325MOL0     H43810   7.168   0.505   5.720 -2.1831 -0.4569 -0.2500
  325MOL0     H43811   7.279   0.370   5.778 -0.0935 -0.7003  0.5761
  325MOL0     H43812   7.094   0.254   5.676  3.1616 -0.6051  0.2932
  325MOL0     H43813   7.093   0.235   5.848  0.3815 -3.5044 -2.2829
  325MOL0     H43814   6.854   0.289   5.736 -0.6822  2.3195 -0.8834
  325MOL0     H43815   6.900   0.363   5.890 -1.3195 -1.4783  0.0967
  325MOL0     H43816   6.952   0.575   5.779  2.4343 -1.8093  0.6097
  325MOL0     H43817   6.955   0.486   5.625  0.3894 -3.1844 -0.1265
  325MOL0     H43818   6.716   0.450   5.636 -1.7865 -0.3755  0.2955
  325MOL0     H43819   6.704   0.533   5.786 -1.0665 -1.1967 -1.4793
  325MOL0     H43820   6.802   0.745   5.657  2.1990 -1.1240  0.9475
  325MOL0     H43821   6.805   0.655   5.510  0.8295  1.0702  0.3353
  325MOL0     H43822   6.603   0.782   5.506 -1.3214  1.6194  2.1640
  325MOL0     H43823   6.562   0.617   5.504 -0.7613  0.4371  0.0838
  325MOL0     H43824   6.432   0.792   5.656  1.0415  0.0663 -0.6712
  325MOL0     H43825   6.560   0.760   5.777 -1.2384  3.2492 -0.8104
  325MOL0     H43826   6.309   0.691   5.873  4.4434  1.3733 -0.8724
  325MOL0     H43827   6.219   0.314   5.958 -1.0842 -1.6653 -1.6458
  325MOL0     H43828   6.189   0.480   6.017 -1.7991  3.5283 -2.6729
  325MOL0     H43829   5.986   0.502   5.885 -1.3672 -0.5410  0.0275
  325MOL0     H43830   5.988   0.348   5.976  2.0378 -1.2443  0.6131
  325MOL0     H43831   6.039   0.226   5.776 -0.8345  0.7664  3.1088
  325MOL0     H43832   6.083   0.361   5.671  0.6888 -2.5796  0.0669
  325MOL0     H43833   5.871   0.288   5.617 -0.8492 -2.4963  1.4203
  325MOL0     H43834   5.863   0.459   5.681  0.7894  0.7744  0.0082
  325MOL0     H43835   5.669   0.324   5.560  0.7988  5.1153  2.8806
  325MOL0     H43836   5.503   0.349   5.412  0.9512 -3.0142 -3.1386
  325MOL0     H43837   5.469   0.180   5.413 -2.4359 -1.7576  1.8463
  325MOL0     H43838   5.336   0.302   5.434  0.9569  0.7295 -1.4240
  325MOL0     H43839   4.981   0.258   5.620  1.2016 -0.5605 -0.4451
  325MOL0     H43840   4.742   0.227   5.649 -0.1468  0.0855 -0.0775
  325MOL0     H43841   4.542   0.269   5.765 -0.9627  0.6749 -1.8932
  325MOL0     H43842   4.544   0.135   5.646 -1.2804  0.9719 -0.3561
  325MOL0     H43843   4.347   0.035   5.761 -1.7870  0.8777  1.3350
  325MOL0     H43844   4.361   0.174   5.865  0.0861  1.6147 -1.2115
  325MOL0     H43845   4.378   0.211   5.561  0.2770 -4.4994 -0.6304
  325MOL0     H43846   4.310   0.327   5.673 -0.2192  0.4981 -1.0245
  325MOL0     H43847   4.193   0.064   5.591  3.8271  0.7937 -0.0674
  325MOL0     H43848   4.116   0.160   5.716  0.4241 -0.2080  1.2511
  325MOL0     H43849   4.134   0.343   5.523  1.5594 -1.6394  1.3062
  325MOL0     H43850   3.998   0.233   5.509 -0.0262 -0.9299  1.1824
  325MOL0     H43851   4.266   0.212   5.369  1.0189 -1.2162  0.5179
  325MOL0     H43852   4.117   0.107   5.338  1.8425 -0.6374  1.4928
  325MOL0     H43853   4.046   0.395   5.319  2.1716  2.7202  0.3199
  325MOL0     H43854   4.040   0.289   5.182 -0.5348  0.0841  0.1050
  325MOL0     H43855   4.297   0.433   5.291  3.4856 -0.3544 -2.5997
  325MOL0     H43856   4.205   0.489   5.157  1.2467  0.6168  0.0406
  325MOL0     H43857   4.788  -0.051   5.958 -0.0423  0.3809  0.5801
  325MOL0     H43858   5.041   0.006   5.961  0.2349  1.8247  0.2998
  325MOL0     H43859   5.359   0.238   5.922 -0.3071  3.3180  0.7579
  325MOL0     H43860   5.596   0.276   5.961 -2.0548 -1.2839  0.2589
  325MOL0     H43861   7.273   0.680   5.806 -0.6805  2.5928 -0.1084
  325MOL0     H43862   7.491   0.779   5.898 -0.2134 -0.1149 -0.8765
  325MOL0     H43863   7.740   0.760   6.359 -0.3754  4.0356 -3.2386
  325MOL0     H43864   7.936   0.787   6.471 -0.5098  0.5945 -0.3597
  325MOL0     H43865   8.341   0.842   6.418 -0.1773  1.5232 -2.2649
  325MOL0     H43866   8.185   0.896   6.432  0.3177 -0.5423  1.8827
  325MOL0     H43867   8.314   0.675   6.609  0.4434  0.5464  0.7780
  325MOL0     H43868   8.148   0.734   6.635  0.4237  1.2585  2.9348
  325MOL0     H43869   8.220   0.960   6.676 -1.7715 -0.4417  3.0066
  325MOL0     H43870   8.391   0.901   6.691 -0.3486  1.0655  0.9983
  325MOL0     H43871   8.157   0.818   6.855 -0.8631  1.9768 -1.6648
  325MOL0     H43872   8.290   0.930   6.908  3.7342 -2.1374  1.6721
  325MOL0     H43873   8.505   0.567   6.912 -1.4949 -2.0477  0.0859
  325MOL0     H43874   8.140   0.586   6.154 -0.2427 -0.1638  0.1252
  325MOL0     H43875   7.935   0.537   6.044 -1.5100 -0.8332  0.2948
  326MOL0     O43876   2.872   0.694   1.451  0.0590  0.0819  0.0287
  326MOL0     C43877   2.908   0.596   1.522 -0.2065 -0.9185  0.2187
  326MOL0     O43878   2.828   0.532   1.614  0.0082 -0.1097  1.0440
  326MOL0     C43879   2.709   0.588   1.650  0.5060 -0.3576 -0.7908
  326MOL0     C43880   2.595   0.509   1.665 -0.3161  0.6303  0.2126
  326MOL0     C43881   2.471   0.559   1.707  0.1960 -0.1664 -0.7805
  326MOL0     C43882   2.455   0.691   1.741 -0.4064 -0.1106  0.5786
  326MOL0     O43883   2.331   0.750   1.774 -0.5389  0.2729 -0.9947
  326MOL0     C43884   2.262   0.695   1.876  0.3734  0.3728  0.0968
  326MOL0     C43885   2.114   0.725   1.861 -0.4630 -0.6668  0.2535
  326MOL0     C43886   2.047   0.635   1.766 -0.2136 -0.6912  0.4185
  326MOL0     C43887   1.929   0.698   1.696 -0.9069 -0.6290 -0.3352
  326MOL0     C43888   1.815   0.739   1.791 -0.3569 -0.3714  0.3685
  326MOL0     C43889   1.682   0.754   1.719 -0.1895  0.3824 -0.4914
  326MOL0     C43890   1.554   0.781   1.801 -0.8415 -0.2634 -0.2613
  326MOL0     C43891   1.430   0.777   1.712 -0.1516 -0.6369  0.8997
  326MOL0     N43892   1.304   0.791   1.791  0.0255 -0.4366  0.5774
  326MOL0     C43893   1.240   0.908   1.837 -0.4298  0.2341 -0.4963
  326MOL0     C43894   1.125   0.864   1.893 -0.3948  0.3100 -0.1251
  326MOL0     C43895   1.021   0.949   1.960  0.3699  0.1939 -0.6558
  326MOL0     C43896   0.940   1.010   1.854  0.7373  0.3026 -0.1201
  326MOL0     C43897   0.824   1.098   1.916 -1.0935  0.8731  1.0613
  326MOL0     C43898   0.776   1.209   1.819 -0.1077  0.0084 -0.8848
  326MOL0     O43899   0.658   1.292   1.857  0.2519 -0.4202  0.4109
  326MOL0     C43900   0.526   1.257   1.824  0.2524 -0.3217  0.1021
  326MOL0     C43901   0.437   1.354   1.858  0.4009  1.3231 -0.5781
  326MOL0     C43902   0.303   1.351   1.817  0.2407 -0.2345  0.5536
  326MOL0     C43903   0.213   1.471   1.867 -0.8363 -0.0136 -0.1423
  326MOL0     C43904   0.262   1.251   1.720 -0.4084  0.2399 -0.3268
  326MOL0     C43905   0.127   1.245   1.662 -0.3979 -0.2271 -0.3896
  326MOL0     O43906   0.111   1.165   1.555 -0.0498 -0.2018  0.3685
  326MOL0     C43907  -0.018   1.158   1.511  0.5975 -0.2567  0.0082
  326MOL0     C43908  -0.080   1.262   1.450 -0.0046 -0.5700  0.6864
  326MOL0     C43909  -0.206   1.257   1.399 -0.2338 -0.5799 -0.0620
  326MOL0     C43910  -0.284   1.144   1.414 -0.3146  0.1266 -0.4868
  326MOL0     O43911  -0.408   1.116   1.362  0.7650 -0.0834 -0.1800
  326MOL0     C43912  -0.464   1.226   1.287 -0.4161 -0.3946 -0.1695
  326MOL0     C43913  -0.602   1.196   1.221  0.3271  0.6694  0.4687
  326MOL0     C43914  -0.708   1.180   1.319  0.2656 -0.2797 -0.2007
  326MOL0     C43915  -0.845   1.150   1.240 -0.6956  0.9863  0.3115
  326MOL0     C43916  -0.950   1.109   1.347  0.2214  0.6966  0.3978
  326MOL0     C43917  -1.090   1.161   1.323  0.0281  0.2806  0.2729
  326MOL0     C43918  -1.186   1.119   1.440 -0.6356 -0.1458 -0.3088
  326MOL0     C43919  -1.314   1.199   1.439  0.7340 -0.1751 -0.8940
  326MOL0    Cl43920  -1.399   1.143   1.288  0.1043 -0.1021  0.1557
  326MOL0     C43921  -0.225   1.030   1.485 -0.0349 -0.4691 -0.2085
  326MOL0     C43922  -0.087   1.038   1.526 -0.7375 -0.3471  0.4525
  326MOL0     O43923   0.041   1.304   1.715  0.4570  0.1262  0.3990
  326MOL0     C43924   0.357   1.146   1.685  0.5808 -0.1313  0.3146
  326MOL0     C43925   0.488   1.152   1.740 -1.0771 -0.6914  0.7731
  326MOL0     N43926   1.132   0.725   1.879  0.2352  0.0605 -0.0474
  326MOL0     N43927   1.232   0.678   1.819  0.1558  0.8041 -0.0938
  326MOL0     C43928   2.570   0.774   1.744 -0.1535  0.5976 -0.5784
  326MOL0     C43929   2.694   0.724   1.699  0.0730 -0.1554  0.3180
  326MOL0     C43930   3.039   0.534   1.487  0.3204  0.2822 -0.6357
  326MOL0     C43931   3.067   0.405   1.528  0.0860 -0.2938 -1.1152
  326MOL0     C43932   3.187   0.341   1.492 -0.1902  0.4890 -0.1314
  326MOL0     C43933   3.279   0.408   1.413  0.6903  0.0834 -0.0884
  326MOL0     O43934   3.403   0.363   1.376  0.1270  0.3366  0.5189
  326MOL0     C43935   3.443   0.236   1.422  0.3356 -0.1246  0.3409
  326MOL0     C43936   3.597   0.232   1.412  0.8177  0.0125  0.2139
  326MOL0     C43937   3.666   0.352   1.476  0.8676  0.7928  0.3979
  326MOL0     C43938   3.819   0.358   1.451 -0.1006  0.9865 -0.7411
  326MOL0     C43939   3.887   0.222   1.453 -0.1639  0.1939  0.1112
  326MOL0     C43940   3.939   0.108   1.475  1.7330 -0.1134  0.8666
  326MOL0     C43941   3.250   0.531   1.364  0.1979 -0.0537  0.4777
  326MOL0     C43942   3.126   0.595   1.398  0.5682 -0.0573  0.6136
  326MOL0     H43943   2.608   0.404   1.643  1.3879  1.2504 -2.1055
  326MOL0     H43944   2.390   0.487   1.713 -0.4192  0.6104  1.1555
  326MOL0     H43945   2.275   0.587   1.878 -1.4111  0.1444  0.8550
  326MOL0     H43946   2.298   0.745   1.967 -2.1475  1.4664  0.5646
  326MOL0     H43947   2.069   0.715   1.960 -0.5935 -1.6133  0.1072
  326MOL0     H43948   2.101   0.829   1.831  0.1817 -0.3937  0.8744
  326MOL0     H43949   2.122   0.605   1.693 -0.9907 -1.6226 -0.0180
  326MOL0     H43950   2.012   0.542   1.811 -2.0001 -1.2843 -1.9523
  326MOL0     H43951   1.951   0.791   1.643 -0.4019  0.7944  2.2004
  326MOL0     H43952   1.890   0.623   1.626 -0.0091 -3.2795  1.7976
  326MOL0     H43953   1.802   0.657   1.862  0.4940  2.0274  3.5221
  326MOL0     H43954   1.850   0.820   1.855  1.1610 -0.7534  0.0694
  326MOL0     H43955   1.689   0.839   1.652 -1.5139  2.6800  2.0790
  326MOL0     H43956   1.662   0.661   1.664  0.7074 -0.1541  0.0478
  326MOL0     H43957   1.551   0.707   1.881  2.7362 -1.3079 -0.9248
  326MOL0     H43958   1.564   0.883   1.837  2.2506 -0.4661 -0.3162
  326MOL0     H43959   1.432   0.678   1.666 -0.3646 -0.4097  0.3888
  326MOL0     H43960   1.439   0.849   1.630  0.4340 -2.5719 -0.8095
  326MOL0     H43961   1.272   1.011   1.827  0.7919  0.0796  1.3471
  326MOL0     H43962   0.959   0.888   2.025 -0.6286  2.1154  0.2943
  326MOL0     H43963   1.073   1.024   2.022  1.1110 -1.4339  0.7645
  326MOL0     H43964   0.898   0.933   1.789  2.5285  0.0112 -0.9820
  326MOL0     H43965   1.015   1.067   1.800  2.9197 -1.6764  0.6278
  326MOL0     H43966   0.866   1.154   2.000  0.2958 -0.0361  0.9946
  326MOL0     H43967   0.739   1.038   1.949 -1.1923 -0.7099 -1.7314
  326MOL0     H43968   0.771   1.182   1.713 -2.0806 -2.3580 -0.2698
  326MOL0     H43969   0.862   1.277   1.824 -0.6531  0.6313  1.1961
  326MOL0     H43970   0.468   1.426   1.933 -2.7695  0.0689  2.1954
  326MOL0     H43971   0.172   1.519   1.778  1.6517  2.4940 -0.0731
  326MOL0     H43972   0.138   1.437   1.939 -0.9383  0.3584 -0.0697
  326MOL0     H43973   0.277   1.551   1.905 -0.5871 -0.2718 -0.0112
  326MOL0     H43974  -0.026   1.354   1.433  0.1418 -0.5115  1.4549
  326MOL0     H43975  -0.240   1.358   1.377  0.1035 -0.7080 -1.2345
  326MOL0     H43976  -0.477   1.311   1.355  1.0469  0.8412 -1.3542
  326MOL0     H43977  -0.391   1.235   1.206 -1.0405  0.2131 -0.6825
  326MOL0     H43978  -0.630   1.274   1.149  2.9641 -0.9588 -2.5671
  326MOL0     H43979  -0.587   1.103   1.166  2.2679  1.6111 -0.7420
  326MOL0     H43980  -0.715   1.275   1.372 -2.2050 -1.6646  2.1961
  326MOL0     H43981  -0.697   1.096   1.388  1.3783  0.4289  0.5119
  326MOL0     H43982  -0.871   1.241   1.185 -1.4980  0.2535 -0.5647
  326MOL0     H43983  -0.815   1.067   1.176 -1.5759  0.7336  0.2154
  326MOL0     H43984  -0.907   1.151   1.438  1.9483 -0.5877  0.2181
  326MOL0     H43985  -0.953   1.000   1.353 -0.1554  0.7099  0.4842
  326MOL0     H43986  -1.078   1.269   1.341 -0.7308  0.4847 -0.3786
  326MOL0     H43987  -1.136   1.136   1.227  2.6568 -1.6639 -0.5642
  326MOL0     H43988  -1.131   1.131   1.533 -0.7693 -2.1779  0.0826
  326MOL0     H43989  -1.216   1.014   1.428 -3.9404  0.7071 -0.1822
  326MOL0     H43990  -1.282   1.303   1.433  0.8454  0.1217  2.7586
  326MOL0     H43991  -1.371   1.186   1.532  0.1028 -1.9009 -1.4864
  326MOL0     H43992  -0.271   0.936   1.514  4.2391 -3.2237 -1.4056
  326MOL0     H43993  -0.041   0.948   1.567 -1.0438 -0.8821 -0.3559
  326MOL0     H43994   0.332   1.071   1.611  1.7322  2.8527 -3.4165
  326MOL0     H43995   0.562   1.094   1.687  1.1036  3.7218 -1.6539
  326MOL0     H43996   2.568   0.874   1.787  1.5997 -0.5643  2.5829
  326MOL0     H43997   2.773   0.795   1.676 -0.1428  0.0366  0.1612
  326MOL0     H43998   3.001   0.354   1.597  0.1348  0.4929 -0.4750
  326MOL0     H43999   3.202   0.249   1.548 -1.0562  0.0701 -0.5694
  326MOL0     H44000   3.417   0.225   1.528 -1.1572 -0.0237  0.0045
  326MOL0     H44001   3.390   0.158   1.365 -0.5066  2.2017 -2.2608
  326MOL0     H44002   3.629   0.214   1.309  1.6109  0.4907  0.3707
  326MOL0     H44003   3.623   0.140   1.465  0.1703 -0.0664  0.4107
  326MOL0     H44004   3.648   0.339   1.583 -0.0589  1.1742  0.3085
  326MOL0     H44005   3.618   0.446   1.445  1.3453  1.1180  0.6435
  326MOL0     H44006   3.865   0.407   1.537  0.4099 -1.4011  0.4234
  326MOL0     H44007   3.848   0.409   1.358  0.7561 -1.3326 -1.8341
  326MOL0     H44008   3.972   0.006   1.479 -0.4832 -0.8794  0.9366
  326MOL0     H44009   3.306   0.598   1.300 -0.4317  0.5049  0.4989
  326MOL0     H44010   3.100   0.689   1.352 -1.4691  0.1451  2.0622
  327MOL0     O44011   3.345   3.694  10.596  0.1802 -1.0719  0.7509
  327MOL0     C44012   3.280   3.652  10.688 -0.4731 -0.0415 -0.1253
  327MOL0     O44013   3.144   3.651  10.700 -0.4611 -0.3134 -0.0785
  327MOL0     C44014   3.060   3.648  10.596 -0.4725 -0.0246  0.8098
  327MOL0     C44015   2.929   3.687  10.620  0.4655  1.2284 -0.1985
  327MOL0     C44016   2.834   3.688  10.519 -0.1418  0.2927  0.1375
  327MOL0     C44017   2.866   3.647  10.394 -0.5504 -0.5684 -0.1603
  327MOL0     O44018   2.765   3.645  10.300  0.1185  0.4634  0.2847
  327MOL0     C44019   2.807   3.690  10.172  0.5405  0.2848 -0.5670
  327MOL0     C44020   2.700   3.750  10.097  0.7852 -0.3449  0.5191
  327MOL0     C44021   2.595   3.644  10.042 -0.5533 -0.5066  0.1412
  327MOL0     C44022   2.467   3.706   9.995  0.1482  0.5809  0.6434
  327MOL0     C44023   2.471   3.834   9.915  0.7471  0.0793 -0.2501
  327MOL0     C44024   2.334   3.885   9.873 -0.1334 -0.4686  0.0503
  327MOL0     C44025   2.340   4.008   9.776  1.9810  0.0001  0.6803
  327MOL0     C44026   2.206   4.032   9.701 -0.0868  0.9687  0.0254
  327MOL0     N44027   2.120   4.119   9.787  0.0318  0.0781 -0.0073
  327MOL0     C44028   2.146   4.251   9.819  0.9246  0.1360  0.1602
  327MOL0     C44029   2.035   4.281   9.904 -0.4549  0.4317  0.5675
  327MOL0     C44030   1.994   4.413   9.966  0.1116  0.0277  0.6637
  327MOL0     C44031   1.912   4.502   9.867 -0.8386  0.4514  0.5490
  327MOL0     C44032   1.895   4.646   9.912  0.2123 -0.3153 -0.7332
  327MOL0     C44033   1.802   4.659  10.034  0.8543  0.2769  0.3810
  327MOL0     O44034   1.663   4.664   9.984  0.2532  0.1494 -0.1593
  327MOL0     C44035   1.566   4.733  10.046  0.4762 -0.4025  0.0897
  327MOL0     C44036   1.443   4.709   9.992  0.3526 -0.6222  0.6102
  327MOL0     C44037   1.333   4.785  10.035 -1.4650  0.7103 -0.7749
  327MOL0     C44038   1.195   4.758   9.976 -0.5353  0.6005  0.2873
  327MOL0     C44039   1.349   4.882  10.143 -0.2386 -0.5425  0.2293
  327MOL0     C44040   1.249   4.988  10.184  0.0601  0.2317  0.4051
  327MOL0     O44041   1.293   5.087  10.266  1.0626 -0.1898  0.8113
  327MOL0     C44042   1.214   5.197  10.285  0.6317 -0.0210 -0.0455
  327MOL0     C44043   1.178   5.291  10.185  0.6049  0.5899  0.4104
  327MOL0     C44044   1.081   5.390  10.216  0.9419  0.0174  0.7724
  327MOL0     C44045   1.036   5.401  10.348  0.6505  0.1230 -0.1987
  327MOL0     O44046   0.940   5.498  10.372 -0.1822  0.6725 -0.2616
  327MOL0     C44047   0.975   5.621  10.430  0.9164  0.8035 -0.1954
  327MOL0     C44048   0.914   5.732  10.345  0.6806  0.8132  0.2245
  327MOL0     C44049   0.754   5.733  10.367  0.1670  0.4536  0.4850
  327MOL0     C44050   0.696   5.803  10.249  0.7361 -0.2246 -0.6979
  327MOL0     C44051   0.545   5.819  10.261  0.1069  0.0002 -0.3645
  327MOL0     C44052   0.482   5.863  10.125  0.4649  0.5199  0.2731
  327MOL0     C44053   0.334   5.911  10.155 -0.9361  0.3362  0.6376
  327MOL0     C44054   0.229   5.813  10.105  1.3762 -0.0549  0.7316
  327MOL0    Cl44055   0.064   5.889  10.124 -0.0408  0.5652 -0.1991
  327MOL0     C44056   1.087   5.319  10.452  0.3546  0.3837  0.0786
  327MOL0     C44057   1.173   5.220  10.422  0.1763 -0.5322  0.0677
  327MOL0     O44058   1.144   4.983  10.122 -0.1434  0.5249  0.1462
  327MOL0     C44059   1.473   4.893  10.199  0.1525 -0.2589 -0.4761
  327MOL0     C44060   1.579   4.815  10.155 -0.2356  0.0001  0.3064
  327MOL0     N44061   1.962   4.167   9.923  0.9936 -1.1287 -0.1447
  327MOL0     N44062   2.017   4.068   9.857  0.0640 -0.1390 -1.1743
  327MOL0     C44063   2.991   3.585  10.372 -0.5620  0.7396 -0.0149
  327MOL0     C44064   3.085   3.588  10.471 -1.0829  0.5124 -0.1032
  327MOL0     C44065   3.363   3.630  10.802 -1.1901 -0.7143 -0.7598
  327MOL0     C44066   3.482   3.553  10.794 -0.2288 -0.4257  0.0567
  327MOL0     C44067   3.556   3.530  10.914 -0.2394  0.4385  0.4753
  327MOL0     C44068   3.517   3.582  11.042  1.1070 -0.4033 -0.9833
  327MOL0     O44069   3.593   3.546  11.144 -0.1165 -1.4505  0.4026
  327MOL0     C44070   3.530   3.540  11.273  0.3636  0.5795 -0.0717
  327MOL0     C44071   3.612   3.481  11.383  0.2130  0.0778  1.2494
  327MOL0     C44072   3.735   3.555  11.418  0.7663 -0.4541  0.0543
  327MOL0     C44073   3.725   3.626  11.554  0.5780 -0.0771  0.3064
  327MOL0     C44074   3.622   3.735  11.553  0.4815 -0.1933  0.6596
  327MOL0     C44075   3.548   3.828  11.549  0.3829 -0.7195 -0.4743
  327MOL0     C44076   3.389   3.640  11.047  0.0351  0.0826 -0.2486
  327MOL0     C44077   3.315   3.667  10.927 -0.8098  0.2370 -0.8826
  327MOL0     H44078   2.887   3.719  10.715 -1.2176 -0.1855 -0.4202
  327MOL0     H44079   2.730   3.716  10.535  0.0006  0.8714  0.0602
  327MOL0     H44080   2.882   3.769  10.175 -0.8322  1.6133  0.3304
  327MOL0     H44081   2.849   3.605  10.117  2.2453  0.7505 -0.0256
  327MOL0     H44082   2.645   3.823  10.158 -1.5984  1.4455 -3.3846
  327MOL0     H44083   2.750   3.800  10.014  2.4203  1.2926  2.3706
  327MOL0     H44084   2.643   3.597   9.956 -2.0672  1.6853 -2.0496
  327MOL0     H44085   2.566   3.566  10.113  1.3941 -0.8608  0.6242
  327MOL0     H44086   2.419   3.620   9.947 -0.8002  0.0071  2.5059
  327MOL0     H44087   2.410   3.733  10.085  1.9416 -0.3815  2.1253
  327MOL0     H44088   2.520   3.917   9.966 -0.9294 -0.6092  2.8096
  327MOL0     H44089   2.530   3.818   9.825  0.4113  1.0655 -0.6588
  327MOL0     H44090   2.286   3.796   9.832  1.1193 -2.0855  1.8489
  327MOL0     H44091   2.285   3.908   9.968  0.7733 -3.2078  1.3141
  327MOL0     H44092   2.368   4.092   9.840  0.5536 -1.0681  2.8349
  327MOL0     H44093   2.409   3.989   9.693  0.2179 -0.1138 -0.8335
  327MOL0     H44094   2.154   3.936   9.687  0.6787  0.7220 -1.2606
  327MOL0     H44095   2.223   4.067   9.599 -0.8647 -0.4309 -0.6225
  327MOL0     H44096   2.220   4.327   9.796  1.0758  0.0990  0.5131
  327MOL0     H44097   1.938   4.391  10.058  2.7039 -0.7593  2.1675
  327MOL0     H44098   2.085   4.459  10.007  0.2505  0.8643 -0.5468
  327MOL0     H44099   1.818   4.449   9.853  0.0617 -1.3654  1.1540
  327MOL0     H44100   1.961   4.502   9.769  0.4518 -1.3599  1.1633
  327MOL0     H44101   1.862   4.699   9.822 -0.4581 -2.1867 -1.6455
  327MOL0     H44102   1.992   4.691   9.938  0.0503 -0.9789  1.1701
  327MOL0     H44103   1.828   4.755  10.079 -0.6746 -1.0035  4.4380
  327MOL0     H44104   1.798   4.577  10.106 -4.9277  1.6477  2.1059
  327MOL0     H44105   1.434   4.641   9.909  0.5675 -1.5555  1.3362
  327MOL0     H44106   1.199   4.686   9.894 -1.9495 -2.1482  2.4845
  327MOL0     H44107   1.121   4.723  10.049 -1.4524  0.8739 -0.4791
  327MOL0     H44108   1.164   4.844   9.915  2.0512  1.7363  0.4496
  327MOL0     H44109   1.218   5.285  10.085 -0.5301 -0.6520  0.0091
  327MOL0     H44110   1.044   5.463  10.146  0.8539 -1.2110 -0.5060
  327MOL0     H44111   0.937   5.629  10.533 -2.9665  0.1549 -1.4252
  327MOL0     H44112   1.085   5.629  10.428  1.1180 -1.5369 -2.0806
  327MOL0     H44113   0.947   5.834  10.365  2.0101  0.7962 -1.6265
  327MOL0     H44114   0.933   5.706  10.241 -1.1924  0.1608  0.0196
  327MOL0     H44115   0.721   5.791  10.454  0.8291  0.8821  0.4539
  327MOL0     H44116   0.711   5.633  10.378 -2.3451  1.5370  1.1964
  327MOL0     H44117   0.743   5.902  10.252  1.3057 -0.4631 -1.3053
  327MOL0     H44118   0.719   5.748  10.157 -0.0210 -1.7340 -0.0156
  327MOL0     H44119   0.517   5.886  10.343  0.8631  1.9898 -1.6559
  327MOL0     H44120   0.489   5.727  10.283  0.9443 -0.1349  1.3501
  327MOL0     H44121   0.544   5.941  10.079  1.9983 -0.1276  1.1668
  327MOL0     H44122   0.479   5.791  10.044 -0.0766  1.2461 -0.3644
  327MOL0     H44123   0.335   5.998  10.089  0.9123 -0.0938  0.0364
  327MOL0     H44124   0.308   5.923  10.260 -3.1586  2.0753 -0.0416
  327MOL0     H44125   0.254   5.718  10.153 -1.0001 -1.1929 -0.1342
  327MOL0     H44126   0.246   5.796   9.999  2.8115 -0.3103  0.9828
  327MOL0     H44127   1.042   5.342  10.548 -2.1174 -0.5479 -0.7705
  327MOL0     H44128   1.207   5.156  10.503 -2.3666 -0.7754  1.0216
  327MOL0     H44129   1.497   4.954  10.286  0.0800 -0.1334 -0.5454
  327MOL0     H44130   1.674   4.834  10.204 -0.6659 -0.4505  1.3261
  327MOL0     H44131   3.001   3.531  10.278 -0.6314  1.7721 -0.6333
  327MOL0     H44132   3.176   3.531  10.455 -0.4777  1.5566 -0.4738
  327MOL0     H44133   3.512   3.511  10.698  0.2374  0.3897 -0.1605
  327MOL0     H44134   3.641   3.464  10.913  0.5925  1.3774  2.5025
  327MOL0     H44135   3.516   3.645  11.301  4.0763  0.4154  3.3005
  327MOL0     H44136   3.439   3.479  11.270  1.2295 -0.7705  0.3122
  327MOL0     H44137   3.642   3.381  11.351 -2.7967 -1.0813  1.6152
  327MOL0     H44138   3.544   3.475  11.469 -0.1308 -0.4785  0.9519
  327MOL0     H44139   3.758   3.634  11.346 -2.0608  0.7998  0.3736
  327MOL0     H44140   3.815   3.481  11.412  0.6082 -0.6597  0.4890
  327MOL0     H44141   3.820   3.675  11.576  0.6865 -0.3758  0.5141
  327MOL0     H44142   3.709   3.540  11.620 -2.4642 -1.4016 -1.8706
  327MOL0     H44143   3.465   3.896  11.553  1.4040  1.0750 -4.5918
  327MOL0     H44144   3.341   3.663  11.142  0.1482  1.0481 -0.4200
  327MOL0     H44145   3.213   3.702  10.923 -0.5807  0.8833 -1.1343
  328MOL0     O44146   6.534   1.829   4.730 -0.2908  0.2751  0.3385
  328MOL0     C44147   6.629   1.805   4.804 -0.5700 -0.6677  0.0216
  328MOL0     O44148   6.645   1.852   4.928 -0.0357 -0.2758 -0.6390
  328MOL0     C44149   6.541   1.921   4.975 -0.3625  0.1670  0.4855
  328MOL0     C44150   6.515   2.046   4.935 -0.0694  0.2272 -0.4609
  328MOL0     C44151   6.409   2.117   4.986  0.6360 -0.9701 -0.1539
  328MOL0     C44152   6.327   2.058   5.080  0.8364 -0.8706  0.7285
  328MOL0     O44153   6.215   2.126   5.142 -0.3039 -0.4862 -0.4019
  328MOL0     C44154   6.156   2.242   5.076 -0.0964 -0.1296  0.2830
  328MOL0     C44155   6.050   2.311   5.168  0.7693  0.3307 -0.4545
  328MOL0     C44156   5.936   2.217   5.195 -0.2356 -0.8105 -1.0297
  328MOL0     C44157   5.817   2.287   5.265  0.2328  0.2057  0.2602
  328MOL0     C44158   5.838   2.379   5.389 -0.6797  0.1801  0.2993
  328MOL0     C44159   5.718   2.473   5.412  1.0661  0.1812 -0.6762
  328MOL0     C44160   5.598   2.410   5.485 -0.8293  0.2325  0.0426
  328MOL0     C44161   5.470   2.486   5.442 -0.0673  0.3112  0.6519
  328MOL0     N44162   5.359   2.443   5.520 -0.6335 -0.0118 -0.6903
  328MOL0     C44163   5.266   2.515   5.589 -0.3620  0.6943  0.5663
  328MOL0     C44164   5.185   2.425   5.645  0.0874 -0.0959  0.2197
  328MOL0     C44165   5.077   2.460   5.746 -0.2167 -0.5079  0.1010
  328MOL0     C44166   4.963   2.533   5.681  0.2246  0.1071  0.3178
  328MOL0     C44167   4.835   2.491   5.753  0.0121  0.4774 -0.5453
  328MOL0     C44168   4.706   2.570   5.729 -0.1567 -0.1878  0.8738
  328MOL0     O44169   4.592   2.513   5.800  0.4746 -0.1597 -0.4699
  328MOL0     C44170   4.460   2.559   5.781  0.0133  0.1958  1.0043
  328MOL0     C44171   4.421   2.658   5.694  0.7158 -0.0596  0.1596
  328MOL0     C44172   4.291   2.698   5.685  0.7232 -0.3754  0.0770
  328MOL0     C44173   4.243   2.801   5.580 -0.3306 -0.5267  0.4289
  328MOL0     C44174   4.195   2.631   5.771 -0.0162  0.0093  0.6242
  328MOL0     C44175   4.048   2.657   5.770  0.0434 -0.9065 -0.4424
  328MOL0     O44176   3.975   2.602   5.874 -0.4245  0.1641 -0.1496
  328MOL0     C44177   3.853   2.652   5.898  0.9620  0.7240 -0.0034
  328MOL0     C44178   3.833   2.770   5.972  0.0650  0.1724 -0.4751
  328MOL0     C44179   3.706   2.823   5.993  0.2571  0.0312 -0.6766
  328MOL0     C44180   3.592   2.753   5.956 -0.1303  0.2034  0.0435
  328MOL0     O44181   3.469   2.793   5.980 -0.0246  0.5805 -0.3025
  328MOL0     C44182   3.450   2.928   5.929 -0.2169  0.6449  1.1347
  328MOL0     C44183   3.368   3.007   6.019 -0.0284  0.0680 -0.0890
  328MOL0     C44184   3.223   2.958   6.017  0.4881  0.0156  0.1249
  328MOL0     C44185   3.140   3.054   6.108 -0.6540 -0.6104 -0.5374
  328MOL0     C44186   2.981   3.053   6.096  0.4386  0.0146  0.1278
  328MOL0     C44187   2.911   2.917   6.124  0.1790 -0.3711  0.3855
  328MOL0     C44188   2.763   2.908   6.092  0.2155  0.5229  0.1516
  328MOL0     C44189   2.694   2.768   6.093  0.4067 -0.0928 -0.3663
  328MOL0    Cl44190   2.785   2.676   5.979  0.0580 -0.0109 -0.2045
  328MOL0     C44191   3.611   2.630   5.890  0.3247  0.7877 -0.1005
  328MOL0     C44192   3.735   2.586   5.856  0.2047 -0.4539  0.7091
  328MOL0     O44193   4.007   2.749   5.697  0.4611 -0.3664 -0.2730
  328MOL0     C44194   4.241   2.532   5.861 -0.2339 -0.7783 -0.7704
  328MOL0     C44195   4.375   2.501   5.865 -0.2116  0.0664 -0.2330
  328MOL0     N44196   5.228   2.301   5.597 -0.3082 -0.8399 -0.2368
  328MOL0     N44197   5.335   2.314   5.524  1.0611  0.3329  0.7269
  328MOL0     C44198   6.362   1.934   5.138 -0.3533 -0.1339 -0.1656
  328MOL0     C44199   6.468   1.862   5.083 -0.1206 -0.6990 -0.5093
  328MOL0     C44200   6.731   1.710   4.748  0.4456  0.3649 -1.4135
  328MOL0     C44201   6.731   1.659   4.616  0.1452 -0.2729 -0.3471
  328MOL0     C44202   6.829   1.558   4.581  0.0913 -0.1018  0.5418
  328MOL0     C44203   6.923   1.512   4.676  0.4860 -1.1625  0.2380
  328MOL0     O44204   7.000   1.414   4.634  0.5969 -0.9485 -0.3867
  328MOL0     C44205   7.080   1.350   4.733 -1.1233  0.0848  0.4002
  328MOL0     C44206   7.137   1.218   4.685  0.1857  0.3626  0.0702
  328MOL0     C44207   7.203   1.141   4.808  0.3085 -0.3436 -0.2352
  328MOL0     C44208   7.313   1.042   4.767 -0.4979 -0.0827  1.1501
  328MOL0     C44209   7.252   0.929   4.684  0.0823 -0.4524 -0.4691
  328MOL0     C44210   7.205   0.827   4.641 -0.7778 -0.1627 -0.1176
  328MOL0     C44211   6.931   1.576   4.800  0.3608  0.7334 -0.8401
  328MOL0     C44212   6.832   1.665   4.842  0.9798 -0.3712  0.5433
  328MOL0     H44213   6.568   2.086   4.850  0.7957 -0.3595 -0.2155
  328MOL0     H44214   6.384   2.212   4.940 -1.8639 -0.8648  1.2102
  328MOL0     H44215   6.232   2.319   5.056 -1.1272  1.2158  1.3237
  328MOL0     H44216   6.106   2.208   4.985  0.0226  1.9322 -0.6195
  328MOL0     H44217   6.096   2.343   5.262  1.9071 -1.0823 -0.4955
  328MOL0     H44218   6.022   2.404   5.117  2.0499  1.7916  1.3947
  328MOL0     H44219   5.912   2.156   5.108  1.5570 -2.1288 -0.6721
  328MOL0     H44220   5.968   2.152   5.278  0.2308 -1.8805 -2.0218
  328MOL0     H44221   5.764   2.351   5.193 -1.4098 -0.5871  0.6983
  328MOL0     H44222   5.742   2.210   5.287 -0.2528 -0.2745 -2.6253
  328MOL0     H44223   5.859   2.318   5.477 -0.1599 -1.3849 -0.8552
  328MOL0     H44224   5.924   2.446   5.375  2.2611 -3.1871  0.8235
  328MOL0     H44225   5.753   2.557   5.472  1.8477 -1.1868  0.8547
  328MOL0     H44226   5.677   2.502   5.315  0.2814  0.9403 -0.1363
  328MOL0     H44227   5.602   2.303   5.467  2.1697  0.2151  0.3206
  328MOL0     H44228   5.613   2.418   5.593 -2.0787  1.7586  0.1573
  328MOL0     H44229   5.452   2.454   5.338 -0.4885 -1.2392  1.1689
  328MOL0     H44230   5.492   2.592   5.455 -3.9368  1.1284  1.8904
  328MOL0     H44231   5.245   2.621   5.599 -1.8559  0.3467  1.4130
  328MOL0     H44232   5.052   2.364   5.793 -2.1325  1.3432  3.1608
  328MOL0     H44233   5.137   2.520   5.815 -0.9249 -0.7537  0.9469
  328MOL0     H44234   4.957   2.519   5.573 -2.0540 -0.9916  0.5326
  328MOL0     H44235   4.973   2.641   5.693  0.1471  1.1924 -6.1480
  328MOL0     H44236   4.852   2.491   5.861  1.7475 -3.0102 -0.6836
  328MOL0     H44237   4.803   2.388   5.733 -2.6080  1.2825 -0.8311
  328MOL0     H44238   4.693   2.568   5.620  0.9514  2.2634  0.6355
  328MOL0     H44239   4.722   2.675   5.755  2.5063  0.2253 -1.8957
  328MOL0     H44240   4.500   2.705   5.637  0.5306  2.4938  1.8204
  328MOL0     H44241   4.319   2.857   5.525 -0.4509  0.5197  1.2949
  328MOL0     H44242   4.169   2.755   5.515  2.1209 -0.0240 -2.9707
  328MOL0     H44243   4.191   2.878   5.638  0.9327  1.3784 -0.8225
  328MOL0     H44244   3.916   2.831   6.005  1.0043 -1.9328  1.2745
  328MOL0     H44245   3.692   2.908   6.059 -0.6686 -1.1887  0.7518
  328MOL0     H44246   3.537   2.994   5.931  0.0890  0.2795  0.3409
  328MOL0     H44247   3.412   2.920   5.827 -1.1277  1.7533  1.3616
  328MOL0     H44248   3.411   2.990   6.118  0.7645  0.0705 -0.4244
  328MOL0     H44249   3.381   3.107   5.977 -0.5412 -0.5227 -1.7471
  328MOL0     H44250   3.220   2.853   6.047  0.6331 -1.4225 -4.1618
  328MOL0     H44251   3.183   2.959   5.915 -0.9248 -4.5948  0.3581
  328MOL0     H44252   3.160   3.029   6.212 -1.4860 -3.6272 -1.0184
  328MOL0     H44253   3.175   3.153   6.077  2.5590 -1.4849 -0.0712
  328MOL0     H44254   2.955   3.083   5.994 -1.7649 -1.1826  0.2854
  328MOL0     H44255   2.945   3.134   6.161  1.2828  0.7086 -0.2489
  328MOL0     H44256   2.961   2.839   6.066  1.4587  1.1758 -0.6958
  328MOL0     H44257   2.917   2.895   6.231 -2.5292  1.4986  1.0214
  328MOL0     H44258   2.752   2.943   5.989  0.5530 -3.7041 -1.5556
  328MOL0     H44259   2.712   2.973   6.162  0.1068 -0.3591  0.9155
  328MOL0     H44260   2.586   2.779   6.074  0.5496 -1.4073 -2.2360
  328MOL0     H44261   2.706   2.710   6.185  3.4505  0.4755 -0.3022
  328MOL0     H44262   3.519   2.589   5.847  0.6364 -0.2961  0.2214
  328MOL0     H44263   3.763   2.500   5.796 -3.2081 -1.8316  0.9121
  328MOL0     H44264   4.179   2.480   5.934  2.2950 -1.6805  0.8788
  328MOL0     H44265   4.408   2.432   5.942  2.7269  1.0040 -0.5091
  328MOL0     H44266   6.304   1.889   5.218  0.2518  0.1414  0.4484
  328MOL0     H44267   6.498   1.765   5.121  0.3442 -0.3235  0.0910
  328MOL0     H44268   6.645   1.680   4.552 -0.2377 -5.2284 -1.8491
  328MOL0     H44269   6.828   1.522   4.479 -0.6008 -0.9227  0.8241
  328MOL0     H44270   7.165   1.405   4.774  0.6272 -2.3962  0.3166
  328MOL0     H44271   7.023   1.315   4.819  3.4933 -2.2166  2.8640
  328MOL0     H44272   7.211   1.242   4.609  0.1497  2.9474  0.7249
  328MOL0     H44273   7.052   1.161   4.647 -1.0174  1.0459  1.6055
  328MOL0     H44274   7.130   1.100   4.877 -0.4200  0.5906 -0.4397
  328MOL0     H44275   7.257   1.211   4.872 -1.0916  1.9854 -1.4795
  328MOL0     H44276   7.361   1.005   4.858  0.7675  1.9495  1.3692
  328MOL0     H44277   7.391   1.093   4.709 -2.2531  1.3138 -0.0756
  328MOL0     H44278   7.181   0.729   4.605  0.2138 -0.2833 -0.4957
  328MOL0     H44279   7.003   1.551   4.878  0.0331  1.2480 -0.3637
  328MOL0     H44280   6.843   1.707   4.942  2.5341  1.5962 -0.3969
  329MOL0     O44281   4.460   2.587   5.066 -0.0480 -0.6306  0.3077
  329MOL0     C44282   4.547   2.505   5.022 -0.1080 -0.3835 -0.5114
  329MOL0     O44283   4.536   2.369   5.052  0.1459  0.7521  0.9151
  329MOL0     C44284   4.418   2.314   5.105  0.1406  0.1261  0.4931
  329MOL0     C44285   4.283   2.356   5.077  0.9005  0.1660  0.1764
  329MOL0     C44286   4.171   2.274   5.112  0.5597 -1.0137 -0.4660
  329MOL0     C44287   4.183   2.149   5.174  0.3950 -0.4665 -0.0878
  329MOL0     O44288   4.089   2.072   5.216  0.3560 -0.9338  0.2102
  329MOL0     C44289   3.967   2.129   5.285  0.1382  0.2310  0.4688
  329MOL0     C44290   3.848   2.108   5.197 -0.5658  0.0360 -0.2644
  329MOL0     C44291   3.749   2.219   5.210  0.1160 -0.0131 -0.1021
  329MOL0     C44292   3.624   2.181   5.125 -0.1283 -0.1455 -0.3759
  329MOL0     C44293   3.488   2.262   5.161  0.2847  0.5597  0.4855
  329MOL0     C44294   3.377   2.272   5.055 -0.5351 -0.1471 -0.8233
  329MOL0     C44295   3.249   2.346   5.109 -0.0478 -0.5869  0.3569
  329MOL0     C44296   3.155   2.247   5.167  0.2017 -0.6967 -0.2593
  329MOL0     N44297   3.032   2.305   5.210 -0.6799  0.0158  0.6930
  329MOL0     C44298   3.010   2.330   5.343  0.7360 -0.6744  0.4186
  329MOL0     C44299   2.889   2.391   5.344  0.2568  0.5618  0.0279
  329MOL0     C44300   2.825   2.464   5.464 -0.0409  0.4345 -0.5238
  329MOL0     C44301   2.814   2.389   5.596 -0.0194 -0.5782 -0.2822
  329MOL0     C44302   2.752   2.478   5.706  0.4289 -0.0474 -0.3105
  329MOL0     C44303   2.601   2.516   5.680  0.4641 -0.4534 -0.7456
  329MOL0     O44304   2.515   2.396   5.669  0.8471 -0.3331  0.1515
  329MOL0     C44305   2.383   2.419   5.631  0.7560 -1.0563  0.8098
  329MOL0     C44306   2.298   2.307   5.593  0.2185 -0.3557 -0.1902
  329MOL0     C44307   2.166   2.320   5.546  0.2001 -0.9802  0.3514
  329MOL0     C44308   2.088   2.201   5.513 -1.0774  0.1407 -0.1316
  329MOL0     C44309   2.114   2.453   5.535 -0.0338  1.2099  0.8098
  329MOL0     C44310   1.966   2.485   5.507  0.6318  0.1431  0.0096
  329MOL0     O44311   1.932   2.613   5.495 -0.1452  0.5832 -0.4592
  329MOL0     C44312   1.809   2.633   5.440 -0.6278  0.2303  0.2331
  329MOL0     C44313   1.792   2.644   5.304 -0.0769 -0.0278 -0.5205
  329MOL0     C44314   1.667   2.682   5.262 -0.4561  0.6023  0.1587
  329MOL0     C44315   1.555   2.690   5.340 -0.4760 -0.9219  0.6110
  329MOL0     O44316   1.444   2.727   5.273  0.2366  0.3909 -0.4481
  329MOL0     C44317   1.337   2.791   5.351  0.4139  0.0328 -0.2783
  329MOL0     C44318   1.372   2.935   5.371 -0.4131  0.3220  0.7340
  329MOL0     C44319   1.252   3.010   5.435  0.0301 -0.0914  0.0009
  329MOL0     C44320   1.141   3.049   5.332 -0.0776 -0.2107  0.8883
  329MOL0     C44321   1.015   3.126   5.393  0.0432  0.2177  0.0780
  329MOL0     C44322   0.908   3.167   5.282  0.4086  0.4315  0.3898
  329MOL0     C44323   0.797   3.245   5.349  0.2970 -0.7297 -0.1432
  329MOL0     C44324   0.710   3.314   5.249 -0.4007  0.3769  0.0059
  329MOL0    Cl44325   0.577   3.212   5.174 -0.6166 -0.2247 -0.1314
  329MOL0     C44326   1.574   2.679   5.474  0.1868 -0.7479 -0.6794
  329MOL0     C44327   1.699   2.648   5.523  0.0447  0.3413  0.5077
  329MOL0     O44328   1.889   2.394   5.500 -0.1937 -0.0953 -0.3198
  329MOL0     C44329   2.194   2.557   5.558 -1.0713 -0.6101 -0.0114
  329MOL0     C44330   2.330   2.548   5.603  0.6371 -1.0611  0.1345
  329MOL0     N44331   2.840   2.395   5.212  0.1689  0.6582  0.0394
  329MOL0     N44332   2.929   2.346   5.131  0.3647  0.1058 -0.3968
  329MOL0     C44333   4.312   2.108   5.195  0.1343 -0.5816 -0.2516
  329MOL0     C44334   4.428   2.191   5.169 -0.4438 -0.4492 -0.5331
  329MOL0     C44335   4.657   2.556   4.928 -0.0644  0.0267 -0.0775
  329MOL0     C44336   4.722   2.681   4.949  1.4474  0.6490 -0.1345
  329MOL0     C44337   4.818   2.726   4.853  0.9202  0.0230 -0.5174
  329MOL0     C44338   4.838   2.649   4.739 -1.0465 -0.1663  0.4559
  329MOL0     O44339   4.936   2.711   4.662  0.3771  0.3371  0.3241
  329MOL0     C44340   5.019   2.625   4.571 -0.2417  0.3742  0.1888
  329MOL0     C44341   5.169   2.664   4.577  0.0959 -0.6651 -0.4747
  329MOL0     C44342   5.222   2.668   4.727 -0.2365 -0.2605  0.6889
  329MOL0     C44343   5.370   2.686   4.734 -0.0771  0.1949 -0.6646
  329MOL0     C44344   5.403   2.701   4.884  0.1832  0.1650  0.1572
  329MOL0     C44345   5.454   2.716   4.993 -0.0399  0.1988 -0.5628
  329MOL0     C44346   4.788   2.523   4.724  0.8702 -0.5859 -0.0398
  329MOL0     C44347   4.695   2.478   4.814 -0.6467  0.0008 -0.0563
  329MOL0     H44348   4.269   2.441   5.011 -0.1860  0.9153  1.3313
  329MOL0     H44349   4.073   2.317   5.093  1.2527 -0.2002 -2.5071
  329MOL0     H44350   3.948   2.080   5.381 -2.1804  1.0891  0.5153
  329MOL0     H44351   3.989   2.234   5.308 -0.2356  0.5371 -0.5347
  329MOL0     H44352   3.887   2.105   5.095 -2.7435  2.5919 -1.2920
  329MOL0     H44353   3.810   2.007   5.213 -1.1410  0.3654  0.5348
  329MOL0     H44354   3.730   2.225   5.317  1.4458 -2.3051  0.3167
  329MOL0     H44355   3.782   2.322   5.196 -1.0699  0.6119  1.4792
  329MOL0     H44356   3.652   2.184   5.019  1.0174  2.2819 -0.0820
  329MOL0     H44357   3.607   2.076   5.149 -0.8426  0.3270  1.3173
  329MOL0     H44358   3.443   2.224   5.253 -0.4210  1.5685  0.5697
  329MOL0     H44359   3.506   2.368   5.182  0.1796  0.9939 -1.3713
  329MOL0     H44360   3.420   2.343   4.984  1.5474  0.8709  1.2752
  329MOL0     H44361   3.360   2.171   5.017  2.3812 -0.3948 -1.6775
  329MOL0     H44362   3.270   2.415   5.191 -0.1393  0.4286 -0.4585
  329MOL0     H44363   3.202   2.407   5.031  0.8568  0.3453  0.5334
  329MOL0     H44364   3.200   2.186   5.246 -1.1960  1.7047  2.6142
  329MOL0     H44365   3.133   2.167   5.096  0.3943 -1.7339  0.8129
  329MOL0     H44366   3.076   2.318   5.429 -1.0150  0.0689  1.9358
  329MOL0     H44367   2.868   2.565   5.463  1.0492  0.0083 -2.4661
  329MOL0     H44368   2.720   2.481   5.436 -1.1923 -1.0244  2.5153
  329MOL0     H44369   2.914   2.365   5.634  0.5434  1.3022 -0.4782
  329MOL0     H44370   2.761   2.295   5.579 -3.1301  0.1987  3.5229
  329MOL0     H44371   2.807   2.572   5.723 -1.9690  1.4877 -0.6098
  329MOL0     H44372   2.752   2.433   5.806  0.0814  3.0000  1.2063
  329MOL0     H44373   2.599   2.570   5.585  0.2047  0.4895 -0.2192
  329MOL0     H44374   2.571   2.584   5.760  2.5218  1.3666 -1.4043
  329MOL0     H44375   2.341   2.208   5.603  1.8826  0.1935 -1.5462
  329MOL0     H44376   2.019   2.179   5.595 -1.0099  0.2549 -0.0433
  329MOL0     H44377   2.027   2.222   5.424 -0.7573 -1.3140 -0.7134
  329MOL0     H44378   2.153   2.120   5.480 -0.0891  1.0801 -0.5778
  329MOL0     H44379   1.869   2.625   5.231  0.0471  1.4583 -0.7911
  329MOL0     H44380   1.647   2.681   5.155  0.8069  0.2964 -0.0881
  329MOL0     H44381   1.243   2.764   5.302  1.7701 -1.1149 -2.4045
  329MOL0     H44382   1.307   2.744   5.446 -0.1311  2.6318  0.9258
  329MOL0     H44383   1.462   2.943   5.433 -0.0519  2.1352  0.0438
  329MOL0     H44384   1.398   2.981   5.275 -1.0178  0.0123  0.4168
  329MOL0     H44385   1.285   3.095   5.496  1.0975  1.1903 -2.2305
  329MOL0     H44386   1.209   2.947   5.513  0.9818 -1.2823 -0.4040
  329MOL0     H44387   1.178   3.116   5.254 -2.7702 -0.1993 -0.4757
  329MOL0     H44388   1.101   2.963   5.277 -0.2498  1.2022 -1.3032
  329MOL0     H44389   1.046   3.217   5.444  2.8547  2.3062 -4.7067
  329MOL0     H44390   0.952   3.066   5.460  0.8866  0.7096  1.3364
  329MOL0     H44391   0.957   3.226   5.204 -1.0888  1.7765  0.4127
  329MOL0     H44392   0.870   3.075   5.239  0.5459  0.2354  0.6800
  329MOL0     H44393   0.829   3.322   5.420 -0.9632 -0.6345  0.3401
  329MOL0     H44394   0.734   3.175   5.404  1.6449 -1.1636  0.8942
  329MOL0     H44395   0.765   3.371   5.173  0.2416  1.0103  0.9216
  329MOL0     H44396   0.656   3.389   5.308  0.4153  0.0432  1.2156
  329MOL0     H44397   1.502   2.708   5.550  1.1690 -0.9117  0.3339
  329MOL0     H44398   1.717   2.653   5.630  2.5351 -0.8378  0.2075
  329MOL0     H44399   2.161   2.659   5.539 -1.7531 -1.1164 -1.7855
  329MOL0     H44400   2.376   2.646   5.605 -1.7995  0.1238  1.3917
  329MOL0     H44401   4.318   2.013   5.248 -0.3888  0.0747  0.9947
  329MOL0     H44402   4.529   2.153   5.178 -0.7648 -1.2346 -0.0364
  329MOL0     H44403   4.681   2.748   5.024  0.6638 -0.8988  0.8702
  329MOL0     H44404   4.857   2.827   4.864 -2.8201  1.5286  0.4678
  329MOL0     H44405   5.006   2.517   4.583 -0.9641  0.5341  0.9307
  329MOL0     H44406   4.990   2.645   4.468  1.8475 -1.7557 -0.9024
  329MOL0     H44407   5.192   2.756   4.522  0.8998 -0.0695  0.8215
  329MOL0     H44408   5.223   2.589   4.518  2.0076 -0.4182  0.8688
  329MOL0     H44409   5.185   2.587   4.790 -0.0599 -1.3426 -0.5489
  329MOL0     H44410   5.173   2.754   4.773 -1.1804 -0.6129  0.3684
  329MOL0     H44411   5.401   2.776   4.680  0.6777 -0.4076 -1.2604
  329MOL0     H44412   5.424   2.606   4.684 -1.7576 -0.8669 -0.8616
  329MOL0     H44413   5.488   2.739   5.092 -0.2522  0.8270 -0.6355
  329MOL0     H44414   4.814   2.466   4.635  1.5139 -0.0083 -0.2334
  329MOL0     H44415   4.653   2.378   4.806  2.3219 -1.2711 -1.3098
  330MOL0     O44416   8.834   0.434   1.136  0.0049  0.4409 -0.2007
  330MOL0     C44417   8.928   0.442   1.059 -0.1930  0.1155  0.2803
  330MOL0     O44418   8.919   0.443   0.923  0.9660  0.2016  0.1126
  330MOL0     C44419   8.794   0.431   0.862  0.1180 -0.4476 -0.2432
  330MOL0     C44420   8.731   0.540   0.793 -1.0209  0.6645 -0.7108
  330MOL0     C44421   8.608   0.519   0.735 -0.2542 -0.6552 -0.0742
  330MOL0     C44422   8.545   0.389   0.737 -0.1497 -0.4434 -0.1655
  330MOL0     O44423   8.429   0.390   0.673  0.1738  0.6297  0.4922
  330MOL0     C44424   8.359   0.265   0.651 -0.0951  0.2256 -0.5459
  330MOL0     C44425   8.213   0.295   0.635 -0.1871  0.0306  0.0189
  330MOL0     C44426   8.143   0.163   0.578  0.1686  0.4024 -0.7237
  330MOL0     C44427   7.997   0.189   0.542  1.2732 -0.9286  0.5775
  330MOL0     C44428   7.916   0.069   0.502  0.5883  0.0652  1.1801
  330MOL0     C44429   7.910  -0.039   0.610  0.8367  0.0660 -0.2828
  330MOL0     C44430   7.800  -0.145   0.602  0.0328  0.4698  0.1552
  330MOL0     C44431   7.666  -0.102   0.662  0.4797 -0.0592 -0.5236
  330MOL0     N44432   7.554  -0.162   0.582 -0.7098 -0.0016 -0.3596
  330MOL0     C44433   7.427  -0.116   0.552 -0.5032 -0.1215 -0.0702
  330MOL0     C44434   7.371  -0.217   0.492  0.3277  0.0593 -0.8769
  330MOL0     C44435   7.236  -0.202   0.437 -0.4869  0.3674 -0.4344
  330MOL0     C44436   7.145  -0.331   0.455 -0.6636 -0.5468 -0.1497
  330MOL0     C44437   6.992  -0.331   0.455 -0.8277  0.7504  0.8313
  330MOL0     C44438   6.930  -0.239   0.549  0.5134  0.5094  0.4515
  330MOL0     O44439   6.788  -0.247   0.524 -0.0103 -0.3469 -0.0658
  330MOL0     C44440   6.690  -0.175   0.596 -0.4152  0.2594 -0.1342
  330MOL0     C44441   6.714  -0.082   0.695  0.3468 -1.5176  0.1749
  330MOL0     C44442   6.598  -0.017   0.753 -0.5676 -0.9271 -0.5975
  330MOL0     C44443   6.630   0.097   0.858 -0.3932 -1.0519 -0.3084
  330MOL0     C44444   6.471  -0.041   0.697 -0.4246 -0.1062 -0.0258
  330MOL0     C44445   6.344   0.029   0.738 -0.0514 -0.2304 -0.0358
  330MOL0     O44446   6.234   0.030   0.649  0.9004 -0.3260  1.0367
  330MOL0     C44447   6.121   0.092   0.692  0.1818 -0.0913  0.5622
  330MOL0     C44448   6.017  -0.001   0.700 -0.7112 -0.5932 -0.4183
  330MOL0     C44449   5.889   0.030   0.739  0.2204 -0.2645  1.0345
  330MOL0     C44450   5.867   0.162   0.771 -0.1079 -0.0150 -0.0724
  330MOL0     O44451   5.742   0.212   0.798 -0.6717 -0.3290  0.5465
  330MOL0     C44452   5.701   0.212   0.935 -0.1775 -0.2038 -0.9544
  330MOL0     C44453   5.562   0.276   0.936 -0.1074 -0.4485  0.0940
  330MOL0     C44454   5.464   0.181   0.869  0.1020 -0.7129 -0.4338
  330MOL0     C44455   5.392   0.073   0.946 -0.1442  0.6747  0.6257
  330MOL0     C44456   5.279   0.128   1.040 -0.6136  0.5637 -0.6832
  330MOL0     C44457   5.225  -0.000   1.110 -0.1765  0.7791 -0.1315
  330MOL0     C44458   5.111   0.046   1.199  0.2658 -0.1285  0.6223
  330MOL0     C44459   5.025  -0.072   1.239 -0.8497 -0.1442 -0.2480
  330MOL0    Cl44460   4.885   0.002   1.333 -0.3473  0.0656  0.0811
  330MOL0     C44461   5.963   0.259   0.746  0.1599  0.3319 -0.0585
  330MOL0     C44462   6.093   0.224   0.697  0.8773 -0.3563  0.2958
  330MOL0     O44463   6.351   0.082   0.849 -0.8098 -0.1615 -0.5587
  330MOL0     C44464   6.456  -0.133   0.594 -0.2406  0.5188  0.3876
  330MOL0     C44465   6.564  -0.199   0.549  0.2536  0.2742  0.3269
  330MOL0     N44466   7.458  -0.327   0.485  0.1783  0.1311  0.2629
  330MOL0     N44467   7.568  -0.286   0.540  0.5064  0.5191  0.3635
  330MOL0     C44468   8.609   0.283   0.798  0.0914 -0.4561  0.3199
  330MOL0     C44469   8.722   0.308   0.869 -0.1641 -0.5044 -0.4869
  330MOL0     C44470   9.063   0.451   1.119 -0.5388  0.8720 -0.3054
  330MOL0     C44471   9.072   0.463   1.261 -0.3425  0.2576 -0.3078
  330MOL0     C44472   9.197   0.461   1.317 -0.4231 -0.2494 -0.3992
  330MOL0     C44473   9.319   0.458   1.245 -0.4878 -0.5581 -0.0620
  330MOL0     O44474   9.445   0.468   1.303 -0.1990  0.0241  0.5021
  330MOL0     C44475   9.458   0.474   1.449  0.7547 -0.2719  1.1292
  330MOL0     C44476   9.592   0.418   1.474  0.2352 -0.1777 -0.3552
  330MOL0     C44477   9.644   0.485   1.602  1.4146 -0.1162  0.4151
  330MOL0     C44478   9.771   0.419   1.648  0.4870 -0.0712 -0.5013
  330MOL0     C44479   9.813   0.473   1.780  0.2310  0.2571  0.6337
  330MOL0     C44480   9.872   0.515   1.876 -0.6745  0.9691  0.5410
  330MOL0     C44481   9.310   0.451   1.105 -0.5600  0.2309  0.3690
  330MOL0     C44482   9.181   0.438   1.039 -0.7888  0.0194  0.2896
  330MOL0     H44483   8.775   0.639   0.788  0.0470  0.2815  0.5771
  330MOL0     H44484   8.576   0.606   0.678  2.2092 -0.2758 -0.9751
  330MOL0     H44485   8.404   0.229   0.558  0.7259 -3.0543  0.9937
  330MOL0     H44486   8.379   0.186   0.723  1.6054 -0.3195 -1.5425
  330MOL0     H44487   8.160   0.327   0.725  0.1901  1.1032 -0.1226
  330MOL0     H44488   8.221   0.371   0.556  2.4271  0.8558  0.9340
  330MOL0     H44489   8.182   0.118   0.486 -3.9051 -0.6836 -2.1544
  330MOL0     H44490   8.152   0.086   0.654  0.4624 -1.3214 -2.4153
  330MOL0     H44491   7.945   0.236   0.627 -0.6489 -0.9675 -0.5135
  330MOL0     H44492   8.002   0.262   0.461 -3.3062 -0.8474  0.1101
  330MOL0     H44493   7.817   0.102   0.469  0.2734  0.3716  2.3716
  330MOL0     H44494   7.962   0.021   0.416 -0.7811  1.4867 -0.4323
  330MOL0     H44495   8.002  -0.098   0.604  1.0805  0.4020  0.0671
  330MOL0     H44496   7.901   0.002   0.711 -1.3056  0.7744 -0.7170
  330MOL0     H44497   7.779  -0.189   0.504 -2.0102  0.0908  0.7161
  330MOL0     H44498   7.839  -0.233   0.654  0.4743  0.4391 -0.2167
  330MOL0     H44499   7.646   0.005   0.647 -1.8054 -0.4111 -0.3258
  330MOL0     H44500   7.669  -0.121   0.770  0.9246  1.8639 -0.1544
  330MOL0     H44501   7.377  -0.022   0.571  3.0749  2.2111 -1.2972
  330MOL0     H44502   7.193  -0.117   0.490 -0.7124 -1.1923  2.0260
  330MOL0     H44503   7.237  -0.172   0.332 -2.0432 -1.3581 -1.0010
  330MOL0     H44504   7.182  -0.380   0.545 -0.6748  0.7886  0.6178
  330MOL0     H44505   7.175  -0.407   0.382 -0.0701 -0.1976 -0.2743
  330MOL0     H44506   6.949  -0.430   0.475 -0.7408  0.1551 -1.6036
  330MOL0     H44507   6.953  -0.306   0.356  0.7472  0.3148  0.0569
  330MOL0     H44508   6.969  -0.138   0.537 -2.3072  1.5237 -0.8290
  330MOL0     H44509   6.948  -0.271   0.652  1.1319  2.9778  1.1749
  330MOL0     H44510   6.817  -0.054   0.714  0.1331  0.8889 -1.6639
  330MOL0     H44511   6.563   0.097   0.945  0.7730  0.3269  0.6352
  330MOL0     H44512   6.728   0.074   0.902 -0.5031 -2.8071 -0.9069
  330MOL0     H44513   6.625   0.197   0.814  0.8230  1.2896  4.2724
  330MOL0     H44514   6.048  -0.103   0.679 -1.6201 -1.4298  1.9269
  330MOL0     H44515   5.814  -0.049   0.743  0.4086 -0.3982  2.6727
  330MOL0     H44516   5.682   0.108   0.966 -3.6022  0.9236  1.2625
  330MOL0     H44517   5.765   0.260   1.010  1.0021  0.5875 -2.4129
  330MOL0     H44518   5.528   0.299   1.037 -0.2739  0.9277 -0.2441
  330MOL0     H44519   5.573   0.368   0.877 -0.1016 -1.2991 -1.2861
  330MOL0     H44520   5.498   0.126   0.781  0.2364 -0.0712 -0.7865
  330MOL0     H44521   5.381   0.238   0.825 -0.1922  0.7277  1.8243
  330MOL0     H44522   5.342  -0.000   0.882 -0.6551  0.3080  1.4255
  330MOL0     H44523   5.466   0.009   0.995  0.9977  0.3234 -1.4377
  330MOL0     H44524   5.205   0.170   0.972 -0.3168 -1.1767 -2.1405
  330MOL0     H44525   5.322   0.203   1.109  1.1207 -1.1241  0.1730
  330MOL0     H44526   5.188  -0.071   1.035  1.8595 -3.9910  2.9035
  330MOL0     H44527   5.299  -0.052   1.172  0.7314  1.2494 -0.7971
  330MOL0     H44528   5.049   0.120   1.146  3.1290  2.1090  0.1662
  330MOL0     H44529   5.143   0.095   1.291  2.0067  0.8805 -0.4502
  330MOL0     H44530   5.081  -0.135   1.308 -3.4049 -1.7661  0.4757
  330MOL0     H44531   4.993  -0.134   1.155 -2.5239  0.6654 -0.2566
  330MOL0     H44532   5.940   0.365   0.759  3.5409  1.1268  0.3056
  330MOL0     H44533   6.169   0.300   0.679  1.7915 -1.4188 -0.4870
  330MOL0     H44534   6.358  -0.165   0.560  0.8551 -0.7976 -1.6994
  330MOL0     H44535   6.556  -0.264   0.462  2.3568 -2.0313  1.7297
  330MOL0     H44536   8.578   0.179   0.803 -2.0604  0.2010  3.1723
  330MOL0     H44537   8.767   0.233   0.934 -0.0249  0.0916  0.1175
  330MOL0     H44538   8.983   0.484   1.319 -0.7491  2.4532 -1.6463
  330MOL0     H44539   9.187   0.461   1.426 -1.1636  1.6049 -0.4233
  330MOL0     H44540   9.453   0.574   1.495  0.1929 -0.5158  1.6187
  330MOL0     H44541   9.377   0.415   1.493 -1.9316  0.5040 -2.3646
  330MOL0     H44542   9.661   0.440   1.392 -1.4773 -1.2746 -2.1926
  330MOL0     H44543   9.589   0.309   1.477  1.8111 -0.2183  0.7857
  330MOL0     H44544   9.565   0.452   1.670 -0.5440 -0.2256 -1.7933
  330MOL0     H44545   9.651   0.594   1.594  0.9219  0.0618  2.1099
  330MOL0     H44546   9.846   0.427   1.569  0.1471 -3.0507 -1.2640
  330MOL0     H44547   9.745   0.313   1.650 -0.4950  0.1619 -0.1457
  330MOL0     H44548   9.941   0.550   1.951 -1.0491  0.8213  0.9609
  330MOL0     H44549   9.393   0.437   1.036 -2.7402  0.2092 -2.4341
  330MOL0     H44550   9.180   0.425   0.931 -0.3642  2.4017 -0.0468
  331MOL0     O44551   2.587   5.094  10.844  0.1437 -0.2993 -0.7815
  331MOL0     C44552   2.610   5.096  10.967  0.0760  0.0893  0.2183
  331MOL0     O44553   2.516   5.094  11.064 -0.2027  0.1240  0.4597
  331MOL0     C44554   2.390   5.103  11.015  0.3395 -0.4266 -0.2371
  331MOL0     C44555   2.320   5.001  10.954 -0.8617  0.1366  0.2969
  331MOL0     C44556   2.196   5.032  10.907 -0.4053 -0.2158  0.1279
  331MOL0     C44557   2.132   5.158  10.936 -0.3775  0.3065  1.4065
  331MOL0     O44558   1.994   5.173  10.900  0.0055 -0.2268  0.0871
  331MOL0     C44559   1.959   5.286  10.824  0.4493 -0.1998  0.4733
  331MOL0     C44560   1.818   5.327  10.862  0.1227 -0.8534  0.0985
  331MOL0     C44561   1.805   5.356  11.011  0.1733  0.1786 -0.7029
  331MOL0     C44562   1.723   5.253  11.098 -0.3437  0.5194 -0.3364
  331MOL0     C44563   1.695   5.299  11.243  0.3783  0.2362  0.8456
  331MOL0     C44564   1.614   5.206  11.334 -0.0732 -0.1077 -0.4978
  331MOL0     C44565   1.472   5.163  11.293 -0.2564  0.5051 -0.2421
  331MOL0     C44566   1.374   5.274  11.294  0.5348 -0.0321 -0.8625
  331MOL0     N44567   1.242   5.228  11.310 -0.6785 -0.2514 -0.3209
  331MOL0     C44568   1.141   5.300  11.362 -0.5936  0.2090 -1.1118
  331MOL0     C44569   1.036   5.219  11.352  0.2272  0.6476 -0.1050
  331MOL0     C44570   0.897   5.250  11.379 -0.3580 -0.3833  0.6514
  331MOL0     C44571   0.808   5.132  11.404  0.5518  0.4240 -0.1731
  331MOL0     C44572   0.668   5.174  11.435 -0.4391 -0.0879  0.3247
  331MOL0     C44573   0.590   5.035  11.464 -0.4823  0.7562 -0.2033
  331MOL0     O44574   0.627   4.981  11.595  0.2749 -0.3367 -0.2185
  331MOL0     C44575   0.526   4.918  11.660  0.4758  0.9551  0.6882
  331MOL0     C44576   0.459   4.811  11.590 -0.0446 -0.7786 -1.0525
  331MOL0     C44577   0.349   4.738  11.652 -0.8658 -0.5967  0.3410
  331MOL0     C44578   0.286   4.649  11.554 -0.3535 -0.1996 -0.2994
  331MOL0     C44579   0.317   4.763  11.787  0.5110  0.0022  0.5102
  331MOL0     C44580   0.212   4.685  11.870 -0.6362 -0.3775  1.0290
  331MOL0     O44581   0.136   4.598  11.803 -0.3426  0.1500  0.0822
  331MOL0     C44582   0.056   4.533  11.888  1.2541 -0.3762 -0.0259
  331MOL0     C44583  -0.065   4.594  11.921 -0.8014  0.1907 -1.1678
  331MOL0     C44584  -0.173   4.519  11.975  0.0150  0.3813 -0.3534
  331MOL0     C44585  -0.159   4.378  11.997 -0.5852  0.3121  0.6510
  331MOL0     O44586  -0.256   4.296  12.047  0.4201  0.2855  0.2615
  331MOL0     C44587  -0.379   4.357  12.094 -0.6462  0.5322 -0.7397
  331MOL0     C44588  -0.475   4.231  12.129 -0.3807 -0.7133 -0.1699
  331MOL0     C44589  -0.442   4.149  12.257  0.4100  0.0766 -0.0292
  331MOL0     C44590  -0.470   4.216  12.387  0.0300 -0.3379  0.2361
  331MOL0     C44591  -0.440   4.109  12.503  0.0448 -0.8112  0.1366
  331MOL0     C44592  -0.519   4.170  12.620  0.5109  0.0574  0.5776
  331MOL0     C44593  -0.521   4.084  12.745 -0.3844 -0.3609 -0.6358
  331MOL0     C44594  -0.596   3.955  12.736  0.4074  0.2078  0.2387
  331MOL0    Cl44595  -0.769   3.967  12.700  0.1093 -0.1825 -0.1542
  331MOL0     C44596  -0.036   4.322  11.971 -0.9342  0.0705 -0.1348
  331MOL0     C44597   0.069   4.399  11.918 -1.0593  0.4636 -0.2961
  331MOL0     O44598   0.215   4.702  11.992 -0.2433 -0.1552 -0.3985
  331MOL0     C44599   0.389   4.865  11.854 -0.5500  0.3748 -0.0356
  331MOL0     C44600   0.499   4.932  11.791  0.5573 -0.6843 -0.1675
  331MOL0     N44601   1.083   5.101  11.288  0.0173  0.0154 -0.3137
  331MOL0     N44602   1.210   5.107  11.267  0.1097  0.4916 -1.6239
  331MOL0     C44603   2.206   5.258  10.998 -0.0163 -0.6237 -0.4897
  331MOL0     C44604   2.338   5.229  11.044 -0.4573  0.1999  0.4490
  331MOL0     C44605   2.750   5.088  11.003  0.1276  0.0794 -0.2015
  331MOL0     C44606   2.790   5.096  11.141  0.1586  0.6245  0.2390
  331MOL0     C44607   2.928   5.097  11.163  0.2244  0.4504  0.3733
  331MOL0     C44608   3.017   5.074  11.068  0.0277 -0.1106 -0.1162
  331MOL0     O44609   3.150   5.053  11.098 -0.2342  0.5447 -0.1468
  331MOL0     C44610   3.243   5.150  11.049  0.1869  0.7501 -0.2453
  331MOL0     C44611   3.357   5.057  10.999 -0.2729 -0.5963  1.5617
  331MOL0     C44612   3.460   5.130  10.907 -0.2181  0.2530  0.3275
  331MOL0     C44613   3.581   5.044  10.866 -0.3153  0.2925 -0.6140
  331MOL0     C44614   3.667   5.005  10.983  0.1763  0.0424  0.3099
  331MOL0     C44615   3.736   4.956  11.072 -1.0080  0.6909  0.4949
  331MOL0     C44616   2.983   5.039  10.937  0.4640 -0.1288 -0.5796
  331MOL0     C44617   2.849   5.055  10.907 -0.2843 -0.1453 -0.4650
  331MOL0     H44618   2.349   4.896  10.947  3.5952  1.2973 -2.2942
  331MOL0     H44619   2.137   4.952  10.864  0.4273 -0.0701 -1.3682
  331MOL0     H44620   2.022   5.375  10.835 -0.9806  1.1701 -1.5158
  331MOL0     H44621   1.956   5.262  10.717 -1.1554 -2.0459  0.8991
  331MOL0     H44622   1.786   5.418  10.809 -1.4101 -1.3939  0.0600
  331MOL0     H44623   1.749   5.250  10.828  1.0224 -0.9485 -1.6659
  331MOL0     H44624   1.902   5.364  11.060 -0.0740  1.6438 -0.3775
  331MOL0     H44625   1.754   5.453  11.022  1.3410  0.5834  1.7980
  331MOL0     H44626   1.627   5.228  11.051 -0.2789 -0.6632  0.1355
  331MOL0     H44627   1.770   5.155  11.103  0.3227  0.8837  1.8094
  331MOL0     H44628   1.791   5.340  11.276  2.4079 -1.0649 -2.8566
  331MOL0     H44629   1.632   5.388  11.244  1.1460  0.8391 -1.0062
  331MOL0     H44630   1.679   5.119  11.348 -0.7638 -0.4480  0.7396
  331MOL0     H44631   1.605   5.247  11.435  2.8065 -0.4811  0.0049
  331MOL0     H44632   1.467   5.116  11.194 -0.2505  1.0218 -0.4907
  331MOL0     H44633   1.439   5.089  11.367 -1.2732  1.6809  0.5106
  331MOL0     H44634   1.386   5.328  11.200  1.3307  2.7279  0.7078
  331MOL0     H44635   1.386   5.352  11.370 -3.7769  1.1112 -1.0907
  331MOL0     H44636   1.150   5.401  11.401  2.9774 -0.3211 -0.1898
  331MOL0     H44637   0.894   5.302  11.475  0.4788 -0.9203  0.9791
  331MOL0     H44638   0.852   5.320  11.308  0.4165 -1.3208 -0.8251
  331MOL0     H44639   0.842   5.071  11.488 -1.6582  1.2764  1.4253
  331MOL0     H44640   0.812   5.069  11.315 -0.2996 -2.7124  1.8307
  331MOL0     H44641   0.634   5.225  11.343  4.4281 -0.5647 -2.0639
  331MOL0     H44642   0.672   5.239  11.522  1.2883 -2.5930  2.2455
  331MOL0     H44643   0.600   4.959  11.386 -1.6913 -0.1376  0.4825
  331MOL0     H44644   0.487   5.065  11.484 -0.0045  1.8357  0.7231
  331MOL0     H44645   0.486   4.806  11.485  0.7356  1.8404 -1.0315
  331MOL0     H44646   0.330   4.550  11.541  1.9743  0.9989 -2.3442
  331MOL0     H44647   0.180   4.638  11.582 -0.1627 -0.9287  0.1701
  331MOL0     H44648   0.289   4.686  11.451 -1.5607  2.3953  0.5282
  331MOL0     H44649  -0.081   4.697  11.892  2.5564  1.9378  2.2812
  331MOL0     H44650  -0.269   4.568  11.990 -1.3470 -2.0552 -0.5573
  331MOL0     H44651  -0.357   4.418  12.182  0.9042 -0.0742 -0.6751
  331MOL0     H44652  -0.418   4.418  12.012  2.7602  1.3967 -1.8747
  331MOL0     H44653  -0.573   4.279  12.139  0.9107  2.2638 -0.8006
  331MOL0     H44654  -0.476   4.172  12.038 -1.4973  1.0328 -1.3515
  331MOL0     H44655  -0.337   4.121  12.249  1.0799  2.5084 -0.6951
  331MOL0     H44656  -0.501   4.057  12.256  0.3122  0.1204  0.8790
  331MOL0     H44657  -0.408   4.305  12.396  1.5759 -0.9102 -3.2628
  331MOL0     H44658  -0.574   4.251  12.383  0.3922  0.7570  0.0753
  331MOL0     H44659  -0.332   4.107  12.520  0.4387  3.1844 -0.7257
  331MOL0     H44660  -0.479   4.009  12.483  2.5236 -1.6589 -0.8426
  331MOL0     H44661  -0.472   4.265  12.646 -1.4482  2.3738 -3.3644
  331MOL0     H44662  -0.624   4.188  12.595  1.3526  3.4082 -1.2485
  331MOL0     H44663  -0.579   4.138  12.820  2.4478  0.1741  1.3634
  331MOL0     H44664  -0.418   4.066  12.776 -0.1949 -0.3890 -1.2598
  331MOL0     H44665  -0.610   3.917  12.838 -3.5730  0.9571  0.1287
  331MOL0     H44666  -0.534   3.889  12.675  0.4850  1.4968 -1.1186
  331MOL0     H44667  -0.020   4.215  11.986  1.5864  0.3627 -0.2770
  331MOL0     H44668   0.173   4.366  11.910 -0.7744 -0.2130  3.9274
  331MOL0     H44669   0.392   4.867  11.962  1.9597 -2.0386  0.0523
  331MOL0     H44670   0.565   5.005  11.837 -0.1464  0.4292 -0.8484
  331MOL0     H44671   2.164   5.354  11.025 -0.9179 -0.2530 -2.9347
  331MOL0     H44672   2.396   5.311  11.086  0.6730 -0.6675  0.6513
  331MOL0     H44673   2.722   5.115  11.224 -2.2823 -0.8124 -1.3166
  331MOL0     H44674   2.967   5.122  11.261  0.6273  2.0369 -0.1672
  331MOL0     H44675   3.208   5.222  10.974 -1.3054  0.6181  0.2952
  331MOL0     H44676   3.285   5.212  11.129 -4.2116  0.4111  2.6783
  331MOL0     H44677   3.320   4.986  10.925  2.5376  0.6270 -1.2666
  331MOL0     H44678   3.400   5.004  11.084  0.1258 -1.0995  1.0594
  331MOL0     H44679   3.498   5.219  10.958 -0.9840 -0.1980  1.7309
  331MOL0     H44680   3.405   5.160  10.817 -0.7219  1.1069  0.9091
  331MOL0     H44681   3.642   5.113  10.806 -2.2989  1.6386 -1.1786
  331MOL0     H44682   3.566   4.954  10.806  2.4310 -0.0097 -0.9867
  331MOL0     H44683   3.810   4.915  11.137 -0.5637  0.7459  0.0283
  331MOL0     H44684   3.046   5.021  10.851 -1.5647  0.5565 -2.2785
  331MOL0     H44685   2.816   5.039  10.805  0.5935 -2.3316 -0.4463
  332MOL0     O44686   8.652   8.559   9.692  0.0728  0.4965 -0.1465
  332MOL0     C44687   8.695   8.540   9.576 -0.6953  0.2378 -0.3772
  332MOL0     O44688   8.672   8.424   9.499 -0.1898 -0.0255 -0.1880
  332MOL0     C44689   8.608   8.312   9.557  0.3264  0.8054 -0.1794
  332MOL0     C44690   8.643   8.186   9.489 -0.3419 -0.1620 -0.1246
  332MOL0     C44691   8.567   8.078   9.508  0.4908  0.3347  0.6244
  332MOL0     C44692   8.458   8.074   9.602 -0.1616  0.7929  0.8988
  332MOL0     O44693   8.374   7.966   9.588 -0.5240 -0.1926 -0.4886
  332MOL0     C44694   8.417   7.859   9.684 -0.1593 -0.3946  0.1978
  332MOL0     C44695   8.289   7.796   9.736 -0.2796  0.3594  0.4259
  332MOL0     C44696   8.214   7.698   9.637  0.1675 -0.3853  0.4386
  332MOL0     C44697   8.062   7.713   9.655  0.2870 -0.7153 -0.7507
  332MOL0     C44698   7.978   7.597   9.584 -0.0722 -0.1763  0.0061
  332MOL0     C44699   8.012   7.458   9.621  0.3153 -0.5569 -0.5384
  332MOL0     C44700   7.911   7.360   9.561  0.3175  0.7221 -0.4257
  332MOL0     C44701   7.936   7.209   9.596 -0.0967  0.1486 -0.0456
  332MOL0     N44702   7.850   7.172   9.716  0.0594 -0.4814  0.3270
  332MOL0     C44703   7.872   7.220   9.845  0.1756 -0.2855 -0.1957
  332MOL0     C44704   7.775   7.154   9.924  1.2196 -0.0705  0.9632
  332MOL0     C44705   7.752   7.169  10.074  0.1951  0.7243  0.2799
  332MOL0     C44706   7.832   7.065  10.161 -0.5671 -0.7797  0.0762
  332MOL0     C44707   7.804   6.920  10.137  0.9546  0.9345  0.5714
  332MOL0     C44708   7.665   6.886  10.187 -1.1254 -1.1742  0.5678
  332MOL0     O44709   7.658   6.880  10.327  0.0287 -0.5367 -0.2912
  332MOL0     C44710   7.536   6.925  10.381 -0.0076 -0.4872 -0.6236
  332MOL0     C44711   7.437   6.834  10.418 -0.3770 -0.1482 -1.0081
  332MOL0     C44712   7.305   6.868  10.458  0.0352  0.3979 -0.1058
  332MOL0     C44713   7.210   6.755  10.485  0.0686  0.1683 -0.5827
  332MOL0     C44714   7.268   6.998  10.478 -0.2902 -0.8992  0.5908
  332MOL0     C44715   7.137   7.062  10.533 -0.6885  0.2257  0.1113
  332MOL0     O44716   7.058   6.983  10.613 -0.1326 -0.1505  0.7249
  332MOL0     C44717   6.920   6.987  10.605  0.5145  0.8854 -0.5279
  332MOL0     C44718   6.838   7.061  10.522 -0.0376  0.6573 -0.6402
  332MOL0     C44719   6.706   7.034  10.513 -0.1028  0.7127 -0.4409
  332MOL0     C44720   6.642   6.925  10.577  0.5081 -1.2380 -0.0148
  332MOL0     O44721   6.506   6.893  10.556 -0.3804  0.2439 -0.4905
  332MOL0     C44722   6.415   6.995  10.509 -0.3250  0.1137  0.6595
  332MOL0     C44723   6.389   6.997  10.355  0.2502 -0.1476 -0.8686
  332MOL0     C44724   6.287   7.104  10.327 -0.0139  0.1420 -1.2865
  332MOL0     C44725   6.343   7.251  10.355 -0.2578  1.1715 -0.2752
  332MOL0     C44726   6.264   7.363  10.283  0.7245 -0.1280 -0.9834
  332MOL0     C44727   6.110   7.374  10.320 -0.3142 -0.3385  0.2157
  332MOL0     C44728   6.073   7.407  10.468 -0.2438 -0.0913 -0.5960
  332MOL0     C44729   5.926   7.427  10.493  0.3454  0.4749 -1.0404
  332MOL0    Cl44730   5.837   7.536  10.371 -0.0164 -0.2827 -0.1133
  332MOL0     C44731   6.727   6.843  10.658  0.0838 -0.6396  0.2548
  332MOL0     C44732   6.861   6.878  10.675  0.1834  0.1227 -0.9561
  332MOL0     O44733   7.116   7.182  10.519  0.0310 -0.1944  0.5018
  332MOL0     C44734   7.373   7.092  10.441 -0.1192  0.0853 -0.1477
  332MOL0     C44735   7.505   7.061  10.382 -0.5215  0.1217 -0.4025
  332MOL0     N44736   7.701   7.073   9.839  0.1514 -0.4675 -0.3294
  332MOL0     N44737   7.751   7.077   9.719  0.2672  0.6441 -0.0593
  332MOL0     C44738   8.429   8.188   9.675 -0.5672  0.1264  0.9978
  332MOL0     C44739   8.497   8.305   9.653  0.4385  0.3774  0.3336
  332MOL0     C44740   8.785   8.644   9.516  0.4309  0.1133  0.4915
  332MOL0     C44741   8.831   8.758   9.580  0.2730 -0.3844  0.3340
  332MOL0     C44742   8.921   8.840   9.515  0.9252 -0.8962  0.1275
  332MOL0     C44743   8.960   8.829   9.383  0.2917  0.3331 -1.1257
  332MOL0     O44744   9.039   8.929   9.328 -0.0289 -0.2870  0.0099
  332MOL0     C44745   9.119   8.897   9.217  0.0503  0.5221 -0.9439
  332MOL0     C44746   9.037   8.904   9.089 -0.1597 -0.3630 -0.0844
  332MOL0     C44747   9.119   8.861   8.967 -0.6656 -0.4354 -0.6089
  332MOL0     C44748   9.201   8.974   8.900  0.7042 -0.3581  0.7465
  332MOL0     C44749   9.100   9.072   8.848 -0.1440  0.7773  0.4397
  332MOL0     C44750   9.029   9.166   8.815 -0.5772 -0.7916 -0.5943
  332MOL0     C44751   8.917   8.711   9.320 -0.7738  0.1362  0.1028
  332MOL0     C44752   8.829   8.622   9.378  0.7431  0.0846 -0.8123
  332MOL0     H44753   8.721   8.196   9.413  0.7752 -1.0143  0.8726
  332MOL0     H44754   8.574   7.983   9.455  2.1716 -0.6981  2.5381
  332MOL0     H44755   8.489   7.791   9.638 -0.4269  1.1603 -2.7606
  332MOL0     H44756   8.477   7.903   9.764  0.0366 -2.4564  1.2570
  332MOL0     H44757   8.299   7.729   9.821 -4.3332 -2.3232 -0.8997
  332MOL0     H44758   8.217   7.876   9.756 -1.1659  0.0431 -1.3024
  332MOL0     H44759   8.238   7.727   9.535 -1.8924  2.7180  0.7053
  332MOL0     H44760   8.252   7.599   9.665 -0.6809 -0.4491  1.4395
  332MOL0     H44761   8.044   7.723   9.762  1.6381  0.8036 -0.6235
  332MOL0     H44762   8.045   7.811   9.610 -2.2147 -1.0030 -0.5944
  332MOL0     H44763   7.873   7.618   9.605 -0.2248  0.7734 -1.5727
  332MOL0     H44764   7.999   7.617   9.479 -0.2859 -1.4588 -0.2969
  332MOL0     H44765   8.113   7.450   9.582  0.6577 -0.2995  0.2761
  332MOL0     H44766   8.014   7.443   9.729 -3.3266  0.2908 -0.2021
  332MOL0     H44767   7.807   7.388   9.580  0.6588  2.2940 -0.7994
  332MOL0     H44768   7.930   7.367   9.454  0.3487 -1.3499 -0.6083
  332MOL0     H44769   8.038   7.180   9.623  0.4717  0.6205 -1.5660
  332MOL0     H44770   7.896   7.155   9.510  1.6092 -0.0665 -0.7381
  332MOL0     H44771   7.928   7.309   9.873 -2.0301  1.4051 -0.8187
  332MOL0     H44772   7.780   7.269  10.106 -0.6504  0.9105  0.4697
  332MOL0     H44773   7.646   7.165  10.101 -0.3234  0.3093 -1.6424
  332MOL0     H44774   7.808   7.076  10.267 -0.0983  0.3638  0.0768
  332MOL0     H44775   7.937   7.087  10.138 -1.3726  1.1440 -2.0974
  332MOL0     H44776   7.874   6.856  10.191 -0.1406 -0.3552  0.5049
  332MOL0     H44777   7.806   6.891  10.031  1.6692  0.0686  0.8100
  332MOL0     H44778   7.651   6.788  10.140 -2.8453 -0.4320 -0.5558
  332MOL0     H44779   7.593   6.958  10.148 -0.1689 -0.5085 -0.0193
  332MOL0     H44780   7.453   6.727  10.412 -0.4740 -0.2603  0.3345
  332MOL0     H44781   7.183   6.750  10.591 -3.0939 -1.4268 -1.3254
  332MOL0     H44782   7.118   6.780  10.431 -1.2575 -0.7560  1.1157
  332MOL0     H44783   7.233   6.651  10.458  0.7836  0.6235 -1.7916
  332MOL0     H44784   6.880   7.142  10.463  2.3787 -0.6087 -0.7848
  332MOL0     H44785   6.646   7.089  10.442  0.6710  0.0860 -1.6188
  332MOL0     H44786   6.323   6.976  10.564  0.2856 -4.1529  0.5546
  332MOL0     H44787   6.448   7.092  10.546 -1.8559  2.7034 -4.0258
  332MOL0     H44788   6.482   7.031  10.309 -0.7593  3.9592 -0.2788
  332MOL0     H44789   6.351   6.901  10.319  2.4382 -0.6325 -2.0380
  332MOL0     H44790   6.197   7.090  10.388  0.5807 -1.7889 -0.7767
  332MOL0     H44791   6.261   7.095  10.221 -0.4072 -0.0246 -1.1795
  332MOL0     H44792   6.340   7.277  10.462 -0.0276 -0.4374  0.1425
  332MOL0     H44793   6.445   7.252  10.317 -0.2906 -1.6698 -0.5945
  332MOL0     H44794   6.274   7.352  10.175  1.5335 -3.1062 -0.6875
  332MOL0     H44795   6.310   7.457  10.316  0.5986 -0.1914 -0.6163
  332MOL0     H44796   6.073   7.443  10.243  2.7234 -1.8248 -2.8629
  332MOL0     H44797   6.075   7.274  10.297 -0.4573 -1.2332  3.7721
  332MOL0     H44798   6.136   7.490  10.501  2.0094 -1.9559  0.0283
  332MOL0     H44799   6.096   7.326  10.539 -0.0074  2.4780  2.4972
  332MOL0     H44800   5.907   7.445  10.599 -1.8511  0.1360 -1.3262
  332MOL0     H44801   5.900   7.321  10.486  0.7888 -0.0076  2.7002
  332MOL0     H44802   6.677   6.760  10.706 -0.2402 -0.3961  0.3419
  332MOL0     H44803   6.915   6.820  10.749 -0.6309  1.4644  0.7540
  332MOL0     H44804   7.358   7.197  10.464  0.9009  0.8257 -2.5674
  332MOL0     H44805   7.584   7.133  10.367 -0.1659 -0.1815 -0.0203
  332MOL0     H44806   8.345   8.182   9.744 -0.4470  1.0173  1.2363
  332MOL0     H44807   8.461   8.394   9.703 -1.7569  2.1855 -3.8893
  332MOL0     H44808   8.815   8.784   9.684 -2.5590 -1.5479  0.2802
  332MOL0     H44809   8.956   8.925   9.573  3.4343  0.3051 -2.8393
  332MOL0     H44810   9.199   8.970   9.203 -0.4899  1.2730 -0.1964
  332MOL0     H44811   9.165   8.798   9.222 -2.3550 -0.7129 -1.5597
  332MOL0     H44812   8.998   9.006   9.087  1.2794  0.2988  2.0071
  332MOL0     H44813   8.946   8.844   9.083  1.0022 -2.2362  0.1801
  332MOL0     H44814   9.042   8.829   8.897  0.7736 -0.9967 -2.0099
  332MOL0     H44815   9.185   8.777   8.990  2.2422  1.9829  0.6037
  332MOL0     H44816   9.269   8.949   8.818 -1.0148 -0.5907 -0.6708
  332MOL0     H44817   9.259   9.027   8.977 -0.2652  1.7110  0.1374
  332MOL0     H44818   8.968   9.250   8.789  1.2154  0.8932  0.3787
  332MOL0     H44819   8.954   8.691   9.220 -0.0099 -1.2135  0.6337
  332MOL0     H44820   8.785   8.534   9.333  0.7944 -1.0889  1.3008
  333MOL0     O44821   7.255   8.528   8.658  0.1852  0.3853  0.0746
  333MOL0     C44822   7.368   8.566   8.646 -0.1063 -0.1235  0.1867
  333MOL0     O44823   7.403   8.696   8.636 -0.3055 -0.3617 -0.6066
  333MOL0     C44824   7.299   8.789   8.667  0.1376  0.1615  0.1234
  333MOL0     C44825   7.256   8.891   8.579 -0.7839  0.4630  0.0990
  333MOL0     C44826   7.145   8.969   8.615  0.3674  0.0084  0.4102
  333MOL0     C44827   7.087   8.965   8.739 -0.3813 -0.1335 -0.3246
  333MOL0     O44828   6.989   9.052   8.784 -0.3568 -0.0893 -0.0226
  333MOL0     C44829   6.923   9.145   8.685  0.0251  0.3652  0.4299
  333MOL0     C44830   6.822   9.239   8.770  0.0597  0.6934  0.2792
  333MOL0     C44831   6.734   9.329   8.678 -0.0412  0.2070 -0.2954
  333MOL0     C44832   6.647   9.427   8.767  1.8373  0.4341 -0.1432
  333MOL0     C44833   6.521   9.352   8.834 -0.2022 -0.5952  0.9248
  333MOL0     C44834   6.416   9.312   8.735 -0.3684  0.4437  0.4648
  333MOL0     C44835   6.272   9.311   8.797 -0.2248  0.2836 -0.0461
  333MOL0     C44836   6.170   9.237   8.713  0.4286  0.6986  0.4173
  333MOL0     N44837   6.055   9.217   8.799  0.5209  0.4009 -0.0234
  333MOL0     C44838   5.966   9.316   8.841  0.0629 -0.8011 -0.5239
  333MOL0     C44839   5.894   9.242   8.939 -0.1594 -1.0940  0.9300
  333MOL0     C44840   5.801   9.317   9.031 -0.1373 -0.5178  0.7938
  333MOL0     C44841   5.649   9.286   9.014 -0.5821 -0.4653 -0.5532
  333MOL0     C44842   5.561   9.333   9.126  0.7766 -0.6549 -0.2041
  333MOL0     C44843   5.414   9.271   9.115 -0.1357  0.6052 -0.1879
  333MOL0     O44844   5.351   9.323   8.998 -0.5353 -0.3432  0.4969
  333MOL0     C44845   5.218   9.348   8.989 -0.8847 -0.0250  0.0031
  333MOL0     C44846   5.134   9.273   8.909  0.5220  0.3875  0.3506
  333MOL0     C44847   4.998   9.298   8.895 -0.0179 -0.0230  0.4192
  333MOL0     C44848   4.915   9.215   8.796  0.6550  0.0915  0.7015
  333MOL0     C44849   4.944   9.400   8.978  0.0120 -0.9322  0.0692
  333MOL0     C44850   4.794   9.433   8.983 -0.0464  0.2014 -0.5387
  333MOL0     O44851   4.705   9.330   8.956 -0.9700  1.0264  0.4553
  333MOL0     C44852   4.582   9.330   9.004  0.9984  0.5344  0.1726
  333MOL0     C44853   4.467   9.358   8.923 -0.1015  0.5866 -0.3532
  333MOL0     C44854   4.338   9.378   8.985  0.2813 -0.0302 -0.1153
  333MOL0     C44855   4.314   9.352   9.117 -0.9376  0.8929 -0.0150
  333MOL0     O44856   4.193   9.362   9.168  0.8057  0.2031  0.2360
  333MOL0     C44857   4.183   9.439   9.280 -0.0472  0.4265  0.1664
  333MOL0     C44858   4.034   9.475   9.303 -0.4351 -0.2617  0.2105
  333MOL0     C44859   3.951   9.351   9.331 -0.6649 -0.4178  0.0497
  333MOL0     C44860   3.813   9.403   9.343 -0.6136  0.0218  0.1939
  333MOL0     C44861   3.706   9.289   9.357  0.4848 -0.9792 -0.2901
  333MOL0     C44862   3.573   9.360   9.319 -0.3357  0.6989  0.3885
  333MOL0     C44863   3.449   9.271   9.337 -0.6135  0.5649  0.2736
  333MOL0     C44864   3.330   9.349   9.272  0.5971 -0.3149 -0.5067
  333MOL0    Cl44865   3.319   9.515   9.343 -0.5648 -0.1701  0.0855
  333MOL0     C44866   4.425   9.312   9.193 -0.5082  0.5856 -0.4608
  333MOL0     C44867   4.555   9.299   9.137  0.1749  0.2850  0.3315
  333MOL0     O44868   4.765   9.549   9.008  0.3643  0.5202  0.2129
  333MOL0     C44869   5.033   9.485   9.048  0.0688 -0.5278  0.4813
  333MOL0     C44870   5.163   9.465   9.050 -1.3040  0.4367  0.5369
  333MOL0     N44871   5.938   9.110   8.945  0.4194 -0.3013 -0.1376
  333MOL0     N44872   6.031   9.094   8.856 -0.0257 -0.5907  0.5541
  333MOL0     C44873   7.129   8.863   8.820 -0.3586 -0.3045 -0.0442
  333MOL0     C44874   7.236   8.782   8.794  0.7293 -0.2679  0.4939
  333MOL0     C44875   7.467   8.456   8.614 -0.0219  0.0631  0.3045
  333MOL0     C44876   7.422   8.330   8.573 -0.5862 -1.1566  0.8069
  333MOL0     C44877   7.513   8.235   8.532  0.8272 -0.6527  0.3047
  333MOL0     C44878   7.645   8.266   8.531 -0.9670  0.2498 -0.3616
  333MOL0     O44879   7.754   8.180   8.511  0.0598  0.5217 -0.5459
  333MOL0     C44880   7.729   8.038   8.518 -0.2842  0.7410  0.7198
  333MOL0     C44881   7.860   7.961   8.533  0.0510  0.0338 -0.0274
  333MOL0     C44882   7.895   7.906   8.668  0.8649 -0.2269 -0.6924
  333MOL0     C44883   7.901   8.017   8.774 -0.5570  0.3786 -1.1153
  333MOL0     C44884   7.997   7.984   8.877 -0.0656 -0.3394 -0.0869
  333MOL0     C44885   8.066   7.946   8.964 -0.2042 -0.8036 -0.3892
  333MOL0     C44886   7.691   8.399   8.562  0.2556 -0.0547 -0.7984
  333MOL0     C44887   7.599   8.497   8.592  0.5107 -0.3208 -1.1284
  333MOL0     H44888   7.319   8.911   8.493 -0.9758 -1.2519 -0.4712
  333MOL0     H44889   7.098   9.035   8.543 -1.3882 -0.0803  1.4081
  333MOL0     H44890   6.992   9.219   8.643 -0.2260  1.2376  1.5260
  333MOL0     H44891   6.858   9.094   8.614 -3.1788  0.1265  3.2948
  333MOL0     H44892   6.763   9.172   8.833  1.5495 -3.1910 -2.0837
  333MOL0     H44893   6.879   9.304   8.837  2.1991  2.1897 -2.7293
  333MOL0     H44894   6.794   9.388   8.609 -0.8530  0.1048 -1.1045
  333MOL0     H44895   6.668   9.270   8.614 -0.3169 -0.9418  0.9983
  333MOL0     H44896   6.705   9.467   8.851  0.5956  2.1561 -0.0349
  333MOL0     H44897   6.617   9.503   8.695  1.2439 -1.0628 -1.5199
  333MOL0     H44898   6.569   9.271   8.889  1.3668 -0.3870 -0.0960
  333MOL0     H44899   6.472   9.429   8.894  0.1584 -0.5153  1.1161
  333MOL0     H44900   6.420   9.383   8.652 -1.4839  0.1127  0.1153
  333MOL0     H44901   6.428   9.210   8.695 -0.7775  0.3431  0.5948
  333MOL0     H44902   6.273   9.252   8.889  0.5793 -1.9795 -1.4337
  333MOL0     H44903   6.226   9.408   8.819  0.2029  0.1118  1.7624
  333MOL0     H44904   6.187   9.132   8.689 -1.8733  0.2669  0.4862
  333MOL0     H44905   6.151   9.284   8.617  2.1289  1.1375  0.2551
  333MOL0     H44906   5.959   9.420   8.814 -0.0618 -0.6692 -0.0019
  333MOL0     H44907   5.831   9.282   9.131  1.0381  0.9274  0.9971
  333MOL0     H44908   5.818   9.424   9.018 -0.4607 -0.6837 -1.2040
  333MOL0     H44909   5.645   9.177   9.026 -0.1454 -0.5342 -1.0298
  333MOL0     H44910   5.619   9.318   8.913  1.3767  0.8638 -0.7498
  333MOL0     H44911   5.559   9.442   9.133  2.4465 -0.6673  5.7844
  333MOL0     H44912   5.601   9.301   9.223 -4.3867 -0.6650  2.2985
  333MOL0     H44913   5.354   9.289   9.205  0.1208  0.3770  0.0333
  333MOL0     H44914   5.419   9.163   9.097  1.2181  0.9959 -2.4792
  333MOL0     H44915   5.176   9.189   8.854 -1.5239 -0.5131  0.0562
  333MOL0     H44916   4.865   9.130   8.842 -0.2019 -0.9665 -1.9705
  333MOL0     H44917   4.836   9.265   8.739  1.8727 -0.1598 -1.3424
  333MOL0     H44918   4.975   9.173   8.714  1.6021  2.1030  0.2769
  333MOL0     H44919   4.479   9.376   8.816  1.0595  2.4861  0.0562
  333MOL0     H44920   4.252   9.421   8.935  0.4985  1.2575  0.5553
  333MOL0     H44921   4.220   9.381   9.365  2.6949  2.2901  0.3963
  333MOL0     H44922   4.238   9.534   9.272  0.5004  0.0094 -1.4831
  333MOL0     H44923   4.033   9.539   9.392 -2.3055  0.4661 -0.2862
  333MOL0     H44924   4.013   9.526   9.209  3.1608  0.8814 -0.0986
  333MOL0     H44925   3.985   9.299   9.421 -1.0951  1.5658  1.4351
  333MOL0     H44926   3.948   9.278   9.250 -3.5276 -0.2229 -0.1409
  333MOL0     H44927   3.803   9.475   9.425  3.4677  0.8177  0.1844
  333MOL0     H44928   3.790   9.464   9.255 -0.8561  2.6248  1.9601
  333MOL0     H44929   3.696   9.265   9.464  0.4201  4.1728  1.1512
  333MOL0     H44930   3.734   9.204   9.295  0.8435 -1.2239  0.1994
  333MOL0     H44931   3.560   9.445   9.386  0.5480  1.4349 -0.3378
  333MOL0     H44932   3.589   9.394   9.216  2.9534 -1.6728 -0.0485
  333MOL0     H44933   3.421   9.243   9.439 -0.1181 -1.6608 -0.1531
  333MOL0     H44934   3.470   9.178   9.285 -1.4435  0.8373 -0.5771
  333MOL0     H44935   3.234   9.307   9.302  1.2401 -0.8426  0.9311
  333MOL0     H44936   3.351   9.342   9.165  3.2228 -0.1632 -0.0630
  333MOL0     H44937   4.422   9.276   9.295  3.8191 -1.4527 -0.8335
  333MOL0     H44938   4.642   9.271   9.195  0.4486 -0.5898 -0.4817
  333MOL0     H44939   4.988   9.572   9.096  3.0680  1.2920  0.2405
  333MOL0     H44940   5.222   9.544   9.097 -2.9996  1.3032  1.2976
  333MOL0     H44941   7.070   8.854   8.910  1.6438 -1.4925  1.2433
  333MOL0     H44942   7.257   8.706   8.868  0.4725  0.1858  1.0391
  333MOL0     H44943   7.315   8.313   8.569 -1.0047  1.2006 -2.2462
  333MOL0     H44944   7.484   8.134   8.504 -0.6053  0.2914 -1.9488
  333MOL0     H44945   7.670   8.020   8.608  1.4264  0.1136  1.7546
  333MOL0     H44946   7.664   8.018   8.432 -1.0098  3.4085  0.5556
  333MOL0     H44947   7.945   8.022   8.501  0.5643 -1.2387 -1.1931
  333MOL0     H44948   7.862   7.872   8.470 -0.7558 -0.2103  0.2772
  333MOL0     H44949   7.992   7.857   8.655  0.9828  0.2063 -1.5328
  333MOL0     H44950   7.827   7.828   8.700 -0.7880 -0.1239 -3.6065
  333MOL0     H44951   7.799   8.036   8.811  0.1060 -0.4536  1.3578
  333MOL0     H44952   7.934   8.110   8.729 -0.5825  2.3598  2.5532
  333MOL0     H44953   8.145   7.901   9.020  0.6433  0.7256 -0.3176
  333MOL0     H44954   7.797   8.421   8.556  0.3072  0.6506  1.7313
  333MOL0     H44955   7.629   8.597   8.620  1.4318 -1.1195  0.9348
  334MOL0     O44956   0.033   4.878   6.493  0.0599  0.3903 -0.0688
  334MOL0     C44957  -0.000   4.832   6.603 -0.1080  0.4250  0.1902
  334MOL0     O44958  -0.128   4.838   6.656 -0.4101 -0.6577  0.0100
  334MOL0     C44959  -0.234   4.895   6.585 -0.2457  0.0351 -0.3688
  334MOL0     C44960  -0.237   4.949   6.445  0.1204  0.5135  0.2830
  334MOL0     C44961  -0.358   4.984   6.388  0.1994 -0.6654  0.0974
  334MOL0     C44962  -0.476   4.988   6.463 -0.1636  0.2355 -1.3193
  334MOL0     O44963  -0.588   5.043   6.407 -0.5723 -0.3333  0.3661
  334MOL0     C44964  -0.709   4.965   6.424  0.4788 -1.2472 -0.5305
  334MOL0     C44965  -0.828   5.043   6.371 -0.2519 -0.2874 -0.1835
  334MOL0     C44966  -0.852   5.166   6.451  0.3022 -0.6005 -1.0498
  334MOL0     C44967  -0.982   5.234   6.403  0.8686 -0.6111  0.3775
  334MOL0     C44968  -0.957   5.327   6.281  1.1771  0.5028  0.1189
  334MOL0     C44969  -1.089   5.388   6.236  0.3460 -0.2236  0.7766
  334MOL0     C44970  -1.183   5.286   6.169 -0.0367 -0.3476  0.5023
  334MOL0     C44971  -1.321   5.272   6.236  0.1212 -0.3368  0.2088
  334MOL0     N44972  -1.381   5.162   6.167  0.5933  0.0648 -0.3098
  334MOL0     C44973  -1.495   5.177   6.091  0.3685 -0.4202 -0.5239
  334MOL0     C44974  -1.519   5.047   6.051  1.1111 -0.9919  1.2471
  334MOL0     C44975  -1.611   5.006   5.939  0.3562 -1.0619 -0.4463
  334MOL0     C44976  -1.564   5.054   5.803 -0.0106  0.4183  0.2813
  334MOL0     C44977  -1.686   5.057   5.706  0.4794  0.5985 -0.5115
  334MOL0     C44978  -1.660   5.105   5.563  0.3541  0.7723  0.4441
  334MOL0     O44979  -1.791   5.140   5.516 -0.6799 -0.6676 -0.5419
  334MOL0     C44980  -1.863   5.057   5.429 -0.0092 -0.3876 -0.6316
  334MOL0     C44981  -1.816   4.970   5.335  0.0173 -0.1729  0.5509
  334MOL0     C44982  -1.900   4.874   5.263 -0.6752 -0.5059  0.2747
  334MOL0     C44983  -1.833   4.773   5.172 -0.3439 -0.0391 -0.3060
  334MOL0     C44984  -2.042   4.894   5.262  0.2526  0.1969  0.1990
  334MOL0     C44985  -2.146   4.816   5.189 -0.7897  0.2309 -0.3322
  334MOL0     O44986  -2.264   4.823   5.243  0.3140  0.6981  0.1844
  334MOL0     C44987  -2.380   4.766   5.203 -0.1708 -0.5164 -0.2499
  334MOL0     C44988  -2.395   4.670   5.099  0.6167  0.0697  0.2994
  334MOL0     C44989  -2.521   4.627   5.067  0.4811  0.0310 -1.1762
  334MOL0     C44990  -2.637   4.689   5.116  0.1776  0.0206  0.1685
  334MOL0     O44991  -2.765   4.665   5.075 -0.2673  0.9797  0.1461
  334MOL0     C44992  -2.790   4.604   4.944  0.9471 -1.2797 -0.6907
  334MOL0     C44993  -2.920   4.520   4.951 -0.1256  0.3916 -0.2744
  334MOL0     C44994  -3.039   4.617   4.929  0.3399  0.2225  0.3795
  334MOL0     C44995  -3.157   4.550   4.996  0.4933  0.4022  0.7627
  334MOL0     C44996  -3.287   4.639   4.993 -0.6225 -0.8404  0.7166
  334MOL0     C44997  -3.357   4.630   4.854  0.0809  0.4721 -0.6587
  334MOL0     C44998  -3.505   4.665   4.857 -0.9017  0.4389  0.6000
  334MOL0     C44999  -3.537   4.804   4.867  0.4721 -0.4230 -0.3747
  334MOL0    Cl45000  -3.707   4.822   4.817  0.1780 -0.4682  0.1123
  334MOL0     C45001  -2.617   4.790   5.213  0.3974 -0.9174 -0.1441
  334MOL0     C45002  -2.496   4.827   5.260 -0.3156  0.1394 -0.4762
  334MOL0     O45003  -2.119   4.770   5.076  0.2365 -0.1294 -1.1798
  334MOL0     C45004  -2.089   5.000   5.346  0.1406  0.1262  0.8170
  334MOL0     C45005  -2.001   5.070   5.430  0.2396  0.0518  0.5015
  334MOL0     N45006  -1.428   4.967   6.103  0.2527  0.0259  0.8760
  334MOL0     N45007  -1.345   5.034   6.179 -0.7567  0.2498 -0.8300
  334MOL0     C45008  -0.473   4.940   6.597  0.6074  1.4178  0.2960
  334MOL0     C45009  -0.353   4.892   6.655 -0.6010 -1.2302  0.1603
  334MOL0     C45010   0.110   4.777   6.692  0.0388 -1.1248  0.1679
  334MOL0     C45011   0.084   4.736   6.828  0.1476 -0.4372  0.1778
  334MOL0     C45012   0.186   4.717   6.921  0.2222  0.4774  0.2734
  334MOL0     C45013   0.316   4.742   6.879 -0.1101  0.4914  0.6810
  334MOL0     O45014   0.411   4.731   6.975 -0.0068  0.3818 -0.4449
  334MOL0     C45015   0.494   4.847   6.978 -0.2994  0.4279  0.3987
  334MOL0     C45016   0.632   4.807   6.935 -0.0812  0.0582 -0.1312
  334MOL0     C45017   0.724   4.924   6.961  0.0953  0.3886 -0.5780
  334MOL0     C45018   0.865   4.883   6.931 -0.2905 -0.3952  0.4078
  334MOL0     C45019   0.891   4.815   6.804  0.4383  0.1268 -0.0172
  334MOL0     C45020   0.904   4.778   6.691  0.5975  0.5505 -0.3614
  334MOL0     C45021   0.345   4.775   6.742  0.4341 -0.3287  0.3150
  334MOL0     C45022   0.244   4.792   6.648  0.5965  0.4877  0.2296
  334MOL0     H45023  -0.154   4.957   6.375 -3.2248 -0.2612 -4.1889
  334MOL0     H45024  -0.363   5.020   6.286 -4.7719 -3.5312 -1.0241
  334MOL0     H45025  -0.700   4.870   6.371  0.0554 -1.0377 -0.9841
  334MOL0     H45026  -0.736   4.942   6.528 -0.3882 -0.6246 -0.5988
  334MOL0     H45027  -0.805   5.082   6.271 -0.8503  1.2642  0.2553
  334MOL0     H45028  -0.916   4.978   6.361 -1.3153  0.9615  0.6235
  334MOL0     H45029  -0.877   5.141   6.554 -1.0463  2.0073 -0.6654
  334MOL0     H45030  -0.764   5.230   6.452  1.4517 -2.1058  0.8380
  334MOL0     H45031  -1.053   5.157   6.372  1.0190  0.1946 -2.2720
  334MOL0     H45032  -1.015   5.301   6.483  1.7785 -0.1852  0.4086
  334MOL0     H45033  -0.894   5.408   6.319 -0.6384  0.9660  2.3619
  334MOL0     H45034  -0.913   5.277   6.195  0.3621 -0.0297  0.0064
  334MOL0     H45035  -1.149   5.432   6.317 -2.6681  1.0355 -1.9358
  334MOL0     H45036  -1.067   5.465   6.162 -1.8823 -1.0036 -0.8121
  334MOL0     H45037  -1.197   5.313   6.064 -0.5939  3.9873  1.5024
  334MOL0     H45038  -1.143   5.185   6.159 -0.8491 -1.0149  3.2101
  334MOL0     H45039  -1.380   5.363   6.224  0.4793 -0.2649 -1.2055
  334MOL0     H45040  -1.299   5.255   6.342  0.6857  1.9254  0.5026
  334MOL0     H45041  -1.555   5.266   6.073  2.3686  0.7494 -1.7997
  334MOL0     H45042  -1.630   4.899   5.939  1.4890 -1.2822  0.5694
  334MOL0     H45043  -1.711   5.038   5.969  1.6598  0.7895  2.2963
  334MOL0     H45044  -1.485   4.984   5.773 -0.3434 -0.5991  1.6685
  334MOL0     H45045  -1.525   5.155   5.812  3.6726 -0.8128 -0.1585
  334MOL0     H45046  -1.748   5.137   5.747  1.2421  0.8657  0.1594
  334MOL0     H45047  -1.736   4.960   5.708 -1.1491  1.3580  2.9281
  334MOL0     H45048  -1.619   5.030   5.495 -3.5087  0.6441 -2.0750
  334MOL0     H45049  -1.592   5.190   5.573 -0.7966  1.6042  1.4931
  334MOL0     H45050  -1.710   4.952   5.321 -0.1943 -2.9265  1.8114
  334MOL0     H45051  -1.847   4.666   5.193  2.1906 -0.8867 -2.3114
  334MOL0     H45052  -1.853   4.792   5.066  0.2625 -0.2229 -0.4583
  334MOL0     H45053  -1.725   4.791   5.173 -0.5933  1.5555  0.5896
  334MOL0     H45054  -2.304   4.639   5.048  0.4313  0.8675 -0.5525
  334MOL0     H45055  -2.532   4.550   4.992  2.4098 -0.3544 -1.1117
  334MOL0     H45056  -2.788   4.685   4.871  1.7124 -0.5535  0.1049
  334MOL0     H45057  -2.724   4.523   4.913  2.9731 -0.8055  1.9077
  334MOL0     H45058  -2.908   4.445   4.871  0.6706 -0.9900  1.0742
  334MOL0     H45059  -2.925   4.463   5.044 -1.3747 -1.9430 -1.6506
  334MOL0     H45060  -3.066   4.638   4.825 -2.7652 -0.8621  0.8595
  334MOL0     H45061  -3.016   4.713   4.977 -1.2038  1.1926 -0.7501
  334MOL0     H45062  -3.179   4.452   4.953 -0.6142  0.8968  0.1596
  334MOL0     H45063  -3.135   4.551   5.103 -1.9734  4.2744  1.4556
  334MOL0     H45064  -3.254   4.739   5.023  1.0975 -1.4983  1.0941
  334MOL0     H45065  -3.352   4.605   5.074 -0.8747 -2.2674 -0.0534
  334MOL0     H45066  -3.303   4.699   4.789  0.1134 -0.4922 -1.6778
  334MOL0     H45067  -3.342   4.531   4.811 -0.8603 -0.1593  0.4090
  334MOL0     H45068  -3.551   4.599   4.931 -1.6418 -0.6328 -0.7588
  334MOL0     H45069  -3.547   4.639   4.759 -2.4013  1.9979  0.7764
  334MOL0     H45070  -3.477   4.863   4.797 -2.5177  0.6404 -2.2368
  334MOL0     H45071  -3.524   4.829   4.973 -0.3856 -2.3152  0.2198
  334MOL0     H45072  -2.711   4.827   5.251  1.6615  2.0710  0.4270
  334MOL0     H45073  -2.473   4.905   5.333  0.2610  0.1575 -0.6805
  334MOL0     H45074  -2.195   5.022   5.347  0.3739  2.1432 -2.7950
  334MOL0     H45075  -2.049   5.132   5.506 -2.5321 -4.7946  3.2120
  334MOL0     H45076  -0.566   4.930   6.653  0.1097  0.5457 -0.6541
  334MOL0     H45077  -0.349   4.856   6.757 -1.0815  2.3937  1.6022
  334MOL0     H45078  -0.017   4.744   6.866 -0.2889 -2.1443 -0.5148
  334MOL0     H45079   0.151   4.692   7.021 -1.4346  2.0093  0.1154
  334MOL0     H45080   0.464   4.933   6.917 -0.3371  2.4262  3.0693
  334MOL0     H45081   0.501   4.893   7.077 -2.2111 -1.2610  1.3732
  334MOL0     H45082   0.629   4.775   6.831 -1.3982 -0.1204 -0.0576
  334MOL0     H45083   0.671   4.721   6.989 -0.2840  1.2499  2.0645
  334MOL0     H45084   0.710   4.956   7.065  2.2845 -0.9559  0.1987
  334MOL0     H45085   0.698   5.007   6.895  1.8869  1.2790 -0.2364
  334MOL0     H45086   0.905   4.825   7.015 -0.3831  0.0967  0.7962
  334MOL0     H45087   0.927   4.973   6.934  2.6211 -2.2226 -0.2630
  334MOL0     H45088   0.931   4.758   6.589  1.8256 -1.2335  0.2552
  334MOL0     H45089   0.441   4.799   6.697  1.0804 -1.8335  0.8211
  334MOL0     H45090   0.254   4.833   6.547 -1.3278  3.7927  1.2293
  335MOL0     O45091   8.654   5.777   1.143 -0.6010 -0.1227 -0.4693
  335MOL0     C45092   8.681   5.894   1.182 -1.0018 -0.1935  0.0318
  335MOL0     O45093   8.607   6.010   1.157 -0.2587 -0.3633  0.9755
  335MOL0     C45094   8.506   6.012   1.069 -0.4585 -0.5576  0.1694
  335MOL0     C45095   8.400   6.099   1.089  0.3381 -0.4739 -0.3519
  335MOL0     C45096   8.294   6.112   0.989  0.0057 -0.8622  0.4632
  335MOL0     C45097   8.295   6.036   0.870 -0.6881  0.0520 -0.2822
  335MOL0     O45098   8.184   6.037   0.792  0.7447  0.1758  0.3154
  335MOL0     C45099   8.196   5.970   0.661  0.0260  0.1948  0.0748
  335MOL0     C45100   8.072   6.009   0.575  0.9470 -1.2272 -0.0645
  335MOL0     C45101   7.937   5.970   0.631 -1.4238  0.1154  0.0266
  335MOL0     C45102   7.847   6.083   0.697  0.1022  1.1587 -0.1004
  335MOL0     C45103   7.749   5.996   0.776 -0.3164 -0.3967 -0.1562
  335MOL0     C45104   7.640   6.087   0.840  1.0803 -0.4478  0.1372
  335MOL0     C45105   7.534   5.998   0.907  0.0117  0.0356 -0.1474
  335MOL0     C45106   7.476   5.889   0.817 -0.4717 -0.2470  0.4101
  335MOL0     N45107   7.337   5.858   0.847  0.6313 -0.4987  0.8997
  335MOL0     C45108   7.278   5.834   0.973  0.5737  0.2988 -0.5222
  335MOL0     C45109   7.145   5.823   0.952 -0.3541 -0.1126  0.6194
  335MOL0     C45110   7.030   5.777   1.040  0.3987 -0.1744  0.5826
  335MOL0     C45111   6.948   5.897   1.083  0.6435  0.4794 -0.0841
  335MOL0     C45112   6.853   5.872   1.190 -0.5906  0.9322 -0.6029
  335MOL0     C45113   6.789   5.994   1.233 -0.4848 -0.5711 -0.5805
  335MOL0     O45114   6.749   6.070   1.112 -1.0045 -0.4386  0.2133
  335MOL0     C45115   6.631   6.055   1.054  1.0682 -0.1812 -0.0133
  335MOL0     C45116   6.602   6.142   0.947 -0.5830  0.2013  0.3744
  335MOL0     C45117   6.476   6.146   0.885 -0.3536  1.0507  0.2838
  335MOL0     C45118   6.468   6.226   0.754 -0.3593  0.8075  0.6768
  335MOL0     C45119   6.376   6.054   0.930  0.5949 -0.6916  0.0316
  335MOL0     C45120   6.248   6.028   0.852 -0.0990  0.5228 -0.5217
  335MOL0     O45121   6.222   6.085   0.734 -0.1448 -0.6327 -0.8460
  335MOL0     C45122   6.097   6.076   0.687 -0.0171  0.6501 -0.2122
  335MOL0     C45123   6.009   6.184   0.687  0.1326  0.0978 -1.0957
  335MOL0     C45124   5.899   6.183   0.601  0.0133 -0.1764  0.3425
  335MOL0     C45125   5.867   6.067   0.525  1.1017  0.4226  0.5304
  335MOL0     O45126   5.772   6.062   0.427  0.4363 -0.1210 -0.2878
  335MOL0     C45127   5.659   6.153   0.445  0.1498 -0.9840 -0.4022
  335MOL0     C45128   5.597   6.145   0.306  0.0520  0.0252 -0.2269
  335MOL0     C45129   5.474   6.224   0.314  0.0442 -0.0610  0.3340
  335MOL0     C45130   5.396   6.220   0.179 -0.4459 -0.4698  0.1469
  335MOL0     C45131   5.278   6.316   0.168 -0.3959 -0.4992 -0.0854
  335MOL0     C45132   5.176   6.270   0.053 -0.8145  0.0784  0.2671
  335MOL0     C45133   5.061   6.362   0.035  0.9369 -0.8595 -0.0555
  335MOL0     C45134   5.105   6.503  -0.022  0.3393  0.3178 -0.3784
  335MOL0    Cl45135   4.964   6.612  -0.056 -0.0073 -0.4324 -0.4258
  335MOL0     C45136   5.947   5.956   0.528 -0.9573 -0.2325 -0.4880
  335MOL0     C45137   6.061   5.960   0.608 -0.5819 -0.0696 -0.5843
  335MOL0     O45138   6.167   5.962   0.913  0.5422  0.4698 -0.5210
  335MOL0     C45139   6.403   5.975   1.039  0.2688  0.2064 -0.5942
  335MOL0     C45140   6.529   5.967   1.096 -0.1780 -0.1834  0.2177
  335MOL0     N45141   7.125   5.842   0.810 -0.3244 -1.0792  0.9277
  335MOL0     N45142   7.242   5.859   0.752  0.7530 -0.5193  0.6948
  335MOL0     C45143   8.402   5.948   0.850 -0.1661  0.8552  0.0994
  335MOL0     C45144   8.510   5.940   0.942 -0.5497 -1.5186  0.0875
  335MOL0     C45145   8.780   5.908   1.293  0.0637  0.4953 -0.4746
  335MOL0     C45146   8.898   5.842   1.281 -0.6741  0.2365 -0.6599
  335MOL0     C45147   8.998   5.844   1.388  0.2728  0.1427 -1.1768
  335MOL0     C45148   8.975   5.923   1.505  0.1122 -0.2390 -0.0253
  335MOL0     O45149   9.074   5.940   1.596 -0.3096 -0.6835 -0.8062
  335MOL0     C45150   9.031   5.907   1.730 -0.3862 -0.3648  0.8881
  335MOL0     C45151   9.095   6.018   1.810 -0.1518 -0.4281 -0.5562
  335MOL0     C45152   9.250   6.026   1.804  0.0337  0.5836 -0.3573
  335MOL0     C45153   9.310   6.089   1.675  0.0106 -0.4386 -0.6140
  335MOL0     C45154   9.441   6.148   1.700 -0.3293  0.2214  0.7017
  335MOL0     C45155   9.540   6.215   1.705 -1.3934  0.0468  0.1549
  335MOL0     C45156   8.861   6.006   1.506  0.7333  0.2059 -0.2836
  335MOL0     C45157   8.766   5.995   1.405  0.8431  0.0028  0.1455
  335MOL0     H45158   8.412   6.172   1.169 -0.1161 -0.0486 -0.6643
  335MOL0     H45159   8.219   6.185   1.017  0.8886 -1.1643  4.2710
  335MOL0     H45160   8.281   6.015   0.608  1.5420 -1.1510  1.2524
  335MOL0     H45161   8.199   5.861   0.669  1.0497  0.1574 -0.6227
  335MOL0     H45162   8.068   6.117   0.562 -1.8437 -0.9851  1.8104
  335MOL0     H45163   8.089   5.968   0.475  1.8022 -0.8213 -0.0883
  335MOL0     H45164   7.869   5.923   0.559 -0.3197 -2.6412  0.6550
  335MOL0     H45165   7.958   5.892   0.705 -0.3294 -1.6096 -1.9998
  335MOL0     H45166   7.900   6.149   0.766 -0.3787  2.0464 -0.5539
  335MOL0     H45167   7.796   6.150   0.627 -1.1002  0.4673  0.0799
  335MOL0     H45168   7.702   5.924   0.709 -1.1055  1.2451 -1.4492
  335MOL0     H45169   7.808   5.941   0.850  1.4439  0.3019 -0.9879
  335MOL0     H45170   7.689   6.140   0.922  2.0484 -2.2506  0.7733
  335MOL0     H45171   7.597   6.149   0.761  0.2270 -0.0119  0.9281
  335MOL0     H45172   7.583   5.945   0.989 -0.9899  1.3764  1.3870
  335MOL0     H45173   7.456   6.067   0.939 -1.6671 -1.6678 -0.4052
  335MOL0     H45174   7.537   5.799   0.826  0.8269  0.3361 -1.7819
  335MOL0     H45175   7.479   5.924   0.713  1.8848 -2.4712 -0.3559
  335MOL0     H45176   7.323   5.819   1.070  0.9637 -0.5503 -0.8209
  335MOL0     H45177   6.977   5.702   0.980  3.7904 -0.7781 -1.9100
  335MOL0     H45178   7.061   5.730   1.134  0.7448  0.7214  0.9220
  335MOL0     H45179   6.898   5.928   0.991 -1.1650  1.0239  1.0085
  335MOL0     H45180   7.011   5.981   1.113 -1.6959  1.4017  2.7368
  335MOL0     H45181   6.904   5.841   1.282  0.7060  2.4566 -0.7604
  335MOL0     H45182   6.789   5.791   1.154  0.1436 -1.7748  3.5225
  335MOL0     H45183   6.863   6.053   1.289  0.0586 -1.5313 -0.2573
  335MOL0     H45184   6.696   5.979   1.289  0.9873 -0.3148  2.0839
  335MOL0     H45185   6.675   6.217   0.919  0.2897 -0.3571  1.1346
  335MOL0     H45186   6.486   6.166   0.665  0.6411 -0.2608  1.5761
  335MOL0     H45187   6.373   6.280   0.746  0.5143  2.3532  0.0858
  335MOL0     H45188   6.546   6.301   0.732 -0.7423  1.1287  0.3881
  335MOL0     H45189   6.029   6.275   0.743 -3.8708 -0.2600  1.2251
  335MOL0     H45190   5.838   6.273   0.593 -2.2024 -1.7154 -1.0989
  335MOL0     H45191   5.594   6.124   0.528 -0.3772 -0.2472 -0.5453
  335MOL0     H45192   5.689   6.258   0.453 -1.7593 -0.2361 -2.1034
  335MOL0     H45193   5.670   6.171   0.228  1.1210 -1.1658  0.3402
  335MOL0     H45194   5.579   6.040   0.283 -3.8503  0.7293 -1.1762
  335MOL0     H45195   5.496   6.328   0.337  3.2604  0.0366 -2.4445
  335MOL0     H45196   5.416   6.194   0.401  1.1787 -0.1759  1.0752
  335MOL0     H45197   5.468   6.246   0.101 -1.0342  1.2917  0.1516
  335MOL0     H45198   5.347   6.124   0.158 -2.1905  0.6559 -1.2521
  335MOL0     H45199   5.318   6.418   0.161  1.9865 -1.3351  0.1965
  335MOL0     H45200   5.225   6.314   0.263  0.7662  0.0147  0.6024
  335MOL0     H45201   5.227   6.246  -0.040  1.9030  0.0776  1.6648
  335MOL0     H45202   5.131   6.178   0.091 -0.3889 -0.1166  0.2964
  335MOL0     H45203   5.010   6.365   0.131  1.0283  0.9964 -0.0258
  335MOL0     H45204   4.983   6.317  -0.027 -0.8250  2.0469 -0.1540
  335MOL0     H45205   5.147   6.494  -0.122 -1.5284 -1.0533 -1.0949
  335MOL0     H45206   5.169   6.553   0.052 -0.9357  0.6053  0.5604
  335MOL0     H45207   5.915   5.873   0.465  0.5351  0.5535 -2.3679
  335MOL0     H45208   6.131   5.877   0.608  0.6051  0.8947 -1.5616
  335MOL0     H45209   6.319   5.926   1.087 -1.1609  3.6631  0.6761
  335MOL0     H45210   6.554   5.893   1.170  2.1962 -0.5477 -0.8296
  335MOL0     H45211   8.412   5.881   0.765 -2.5068 -0.2048  0.5725
  335MOL0     H45212   8.590   5.870   0.921  0.3615  0.2486 -2.9267
  335MOL0     H45213   8.919   5.787   1.190  0.3639  1.1700 -1.0077
  335MOL0     H45214   9.095   5.796   1.393  0.8512  1.4099  0.8164
  335MOL0     H45215   8.925   5.918   1.750 -0.1198  1.3229  1.4984
  335MOL0     H45216   9.049   5.803   1.762  0.0265  0.7328  4.6977
  335MOL0     H45217   9.068   5.999   1.914  3.0055  0.1622  0.4722
  335MOL0     H45218   9.044   6.113   1.791 -0.9113  0.0462  3.2332
  335MOL0     H45219   9.305   5.932   1.810  0.0859  0.6163 -0.3264
  335MOL0     H45220   9.284   6.091   1.885 -0.8428 -0.3302  0.7706
  335MOL0     H45221   9.239   6.167   1.644 -0.0081  0.3712  1.3516
  335MOL0     H45222   9.310   6.030   1.583 -1.4877  0.3338 -1.1484
  335MOL0     H45223   9.633   6.268   1.714 -1.4515  0.2397 -0.3651
  335MOL0     H45224   8.840   6.075   1.587 -2.7910  0.2895 -1.0845
  335MOL0     H45225   8.678   6.058   1.403  0.4893 -0.4863 -1.0718
  336MOL0     O45226   7.271   8.203   1.295 -0.5474  0.4361  0.4945
  336MOL0     C45227   7.290   8.110   1.379 -0.0524 -0.0537 -0.4802
  336MOL0     O45228   7.212   7.996   1.394 -0.1624 -0.9032 -0.2184
  336MOL0     C45229   7.094   7.992   1.324  1.0297  0.7576  0.2983
  336MOL0     C45230   7.082   7.939   1.189 -0.1991 -0.0412 -0.5231
  336MOL0     C45231   6.953   7.960   1.124  0.1157  0.1053  0.2693
  336MOL0     C45232   6.845   8.019   1.196  0.1301 -0.3871  1.5296
  336MOL0     O45233   6.732   8.031   1.119  0.1073  0.5477  0.3908
  336MOL0     C45234   6.605   8.014   1.187 -0.9739  0.7568  0.4498
  336MOL0     C45235   6.482   8.014   1.088  0.1464 -0.2648  0.8544
  336MOL0     C45236   6.366   8.094   1.152 -0.0072  0.1050 -0.0946
  336MOL0     C45237   6.236   8.079   1.067  0.8712  0.2351  0.6977
  336MOL0     C45238   6.131   8.167   1.119 -0.4884  0.1820  0.0264
  336MOL0     C45239   6.008   8.176   1.021 -0.2559  0.3904 -0.2828
  336MOL0     C45240   5.898   8.267   1.083  0.4055 -0.4625 -0.1934
  336MOL0     C45241   5.772   8.300   0.994 -0.6735 -0.1587  0.9412
  336MOL0     N45242   5.793   8.403   0.883 -0.5236  1.1836  0.5800
  336MOL0     C45243   5.709   8.502   0.848  0.0242 -0.3838  0.1979
  336MOL0     C45244   5.768   8.576   0.757 -1.0335 -0.7193 -0.0460
  336MOL0     C45245   5.731   8.696   0.665  0.0853  0.5656 -0.0079
  336MOL0     C45246   5.593   8.670   0.596 -0.0645  0.2397  0.1192
  336MOL0     C45247   5.546   8.776   0.498  0.4510  0.6122 -0.0368
  336MOL0     C45248   5.502   8.903   0.566 -0.5005 -0.2278 -1.5137
  336MOL0     O45249   5.399   8.899   0.673  0.4908 -1.1340  0.2192
  336MOL0     C45250   5.336   9.009   0.707  0.1182 -0.8463  0.2721
  336MOL0     C45251   5.382   9.143   0.691 -0.0361 -0.9122  0.5215
  336MOL0     C45252   5.301   9.246   0.722 -0.2427 -0.0391 -1.0713
  336MOL0     C45253   5.340   9.387   0.703  0.2691 -0.1336 -0.3027
  336MOL0     C45254   5.169   9.226   0.777 -0.5367  0.3860  0.3786
  336MOL0     C45255   5.069   9.338   0.808 -0.2271 -0.9885  0.6165
  336MOL0     O45256   4.967   9.303   0.895 -0.7969 -0.4690  0.3669
  336MOL0     C45257   4.845   9.356   0.878 -0.0857 -0.0095  0.5891
  336MOL0     C45258   4.773   9.370   0.754 -0.0555 -0.7775  0.0546
  336MOL0     C45259   4.635   9.406   0.761  0.6086  1.5328  0.0784
  336MOL0     C45260   4.568   9.438   0.876 -0.6722 -0.1860  1.1901
  336MOL0     O45261   4.437   9.475   0.865  1.2461  0.1280  0.2139
  336MOL0     C45262   4.375   9.562   0.963 -0.1541 -1.2599  0.1963
  336MOL0     C45263   4.424   9.701   0.939  0.0501  0.2388 -0.9636
  336MOL0     C45264   4.341   9.809   1.002 -0.0005 -0.6557 -0.2498
  336MOL0     C45265   4.401   9.950   0.969  0.6780  0.1682  0.0643
  336MOL0     C45266   4.349   9.996   0.838  0.0275  0.7519  0.8804
  336MOL0     C45267   4.417  10.133   0.795  0.5197  0.0816 -0.6212
  336MOL0     C45268   4.369  10.191   0.662  0.5745  0.0889  0.2520
  336MOL0     C45269   4.436  10.325   0.637  0.0560 -0.3216 -0.3013
  336MOL0    Cl45270   4.601  10.303   0.564  0.2598  0.3660 -0.0994
  336MOL0     C45271   4.635   9.432   0.990 -0.4975  0.7684 -1.2103
  336MOL0     C45272   4.771   9.383   0.995 -0.4940 -0.0104  0.5317
  336MOL0     O45273   5.073   9.449   0.748 -0.7115 -0.3780  1.1613
  336MOL0     C45274   5.121   9.091   0.782 -0.1276 -0.8371 -0.6397
  336MOL0     C45275   5.209   8.990   0.749  0.3830 -0.6901  0.5747
  336MOL0     N45276   5.899   8.520   0.738  0.4008  0.0258 -0.0308
  336MOL0     N45277   5.904   8.420   0.814 -0.2645  0.1603  0.3088
  336MOL0     C45278   6.860   8.052   1.333  0.6325 -0.0735  0.2394
  336MOL0     C45279   6.981   8.039   1.395 -0.0153  0.2427 -0.6663
  336MOL0     C45280   7.416   8.114   1.457  0.4818  0.3327  0.2000
  336MOL0     C45281   7.492   8.227   1.445  0.3098  0.5289 -0.9536
  336MOL0     C45282   7.611   8.236   1.513 -0.2301  0.9246 -0.1883
  336MOL0     C45283   7.646   8.141   1.609 -0.2039 -0.1503  0.1907
  336MOL0     O45284   7.771   8.140   1.664  0.5264  1.1968 -0.0069
  336MOL0     C45285   7.833   8.267   1.674 -0.6891  0.5083 -0.0568
  336MOL0     C45286   7.944   8.277   1.780  0.5578 -0.3327 -0.8436
  336MOL0     C45287   7.898   8.248   1.925 -0.3069  0.1280 -0.9296
  336MOL0     C45288   7.981   8.312   2.037 -0.3154 -0.0364  0.1489
  336MOL0     C45289   8.114   8.259   2.034 -0.5906  0.5645 -0.1447
  336MOL0     C45290   8.225   8.207   2.051 -0.0746  0.4880 -0.4852
  336MOL0     C45291   7.568   8.024   1.618 -0.7529  0.4319  0.9291
  336MOL0     C45292   7.454   8.009   1.543 -0.8429  0.0026  0.0061
  336MOL0     H45293   7.165   7.885   1.144 -0.6222 -1.7398  0.6468
  336MOL0     H45294   6.928   7.928   1.024  1.4865  1.5402 -0.5727
  336MOL0     H45295   6.608   7.919   1.241  0.5933 -1.4976 -3.1929
  336MOL0     H45296   6.595   8.088   1.267  1.1720 -0.9870  2.4990
  336MOL0     H45297   6.511   8.051   0.989  0.2599 -2.3655  0.0512
  336MOL0     H45298   6.448   7.912   1.069  0.9978 -0.3585 -0.2917
  336MOL0     H45299   6.361   8.066   1.258  1.1854  0.2065  0.0058
  336MOL0     H45300   6.387   8.200   1.140  0.4725 -0.1448 -1.7181
  336MOL0     H45301   6.264   8.101   0.963  1.4326 -1.2608  0.5105
  336MOL0     H45302   6.204   7.975   1.074 -3.7302  1.2883 -1.1008
  336MOL0     H45303   6.098   8.134   1.218  0.4287 -1.0975 -0.0688
  336MOL0     H45304   6.167   8.269   1.129 -1.3646  0.5804 -0.7375
  336MOL0     H45305   6.025   8.233   0.929 -4.2300  1.4019 -0.5687
  336MOL0     H45306   5.970   8.075   1.001 -1.0399  0.5676  0.2731
  336MOL0     H45307   5.868   8.223   1.178  1.1004 -0.7561 -0.1032
  336MOL0     H45308   5.938   8.363   1.116 -0.1773 -0.9755  2.1546
  336MOL0     H45309   5.695   8.347   1.055  0.1515  3.9016 -0.8280
  336MOL0     H45310   5.735   8.207   0.950  2.6896 -0.6890 -1.0961
  336MOL0     H45311   5.617   8.516   0.905  0.4417 -1.6599  1.2359
  336MOL0     H45312   5.718   8.787   0.722  2.8744  2.6043 -2.3108
  336MOL0     H45313   5.800   8.730   0.587 -1.1985  1.2106 -0.8973
  336MOL0     H45314   5.518   8.666   0.675 -1.9487  0.3122 -1.6009
  336MOL0     H45315   5.604   8.575   0.543 -0.7128  0.1995  0.0550
  336MOL0     H45316   5.464   8.734   0.439  0.8282 -2.2796  1.3009
  336MOL0     H45317   5.618   8.791   0.418 -0.4213 -0.4816 -1.0639
  336MOL0     H45318   5.481   8.978   0.489  0.0418  0.8739 -0.6173
  336MOL0     H45319   5.598   8.932   0.609 -1.1342  1.2542 -1.0226
  336MOL0     H45320   5.480   9.163   0.649  0.2660  0.6342  1.8790
  336MOL0     H45321   5.272   9.415   0.622 -0.9817 -0.2664  0.6662
  336MOL0     H45322   5.325   9.450   0.791  0.7409  1.3957 -1.2717
  336MOL0     H45323   5.436   9.412   0.657 -0.8967 -1.9797 -4.0979
  336MOL0     H45324   4.817   9.342   0.659  0.0959 -0.1916 -0.0491
  336MOL0     H45325   4.573   9.407   0.672 -0.1979 -2.0734  0.4397
  336MOL0     H45326   4.267   9.571   0.948  0.0783  0.1425 -0.7432
  336MOL0     H45327   4.387   9.526   1.066  0.1088 -1.3419  0.1382
  336MOL0     H45328   4.526   9.707   0.979  0.3787 -2.8829 -1.0496
  336MOL0     H45329   4.442   9.710   0.832 -0.6912  0.6547 -1.0545
  336MOL0     H45330   4.323   9.786   1.107 -1.7814 -3.3642 -1.0677
  336MOL0     H45331   4.243   9.800   0.954  0.3659  0.6869 -1.3436
  336MOL0     H45332   4.373  10.021   1.048  0.2320  1.8991 -1.5976
  336MOL0     H45333   4.509   9.933   0.966  0.6751  0.2398 -0.5643
  336MOL0     H45334   4.240  10.009   0.838 -0.3788 -1.7806 -1.5821
  336MOL0     H45335   4.362   9.915   0.765 -1.6155  1.6083 -0.4502
  336MOL0     H45336   4.390  10.211   0.867  3.3921 -1.3582  2.2836
  336MOL0     H45337   4.525  10.116   0.791  0.2676 -2.4574  0.7506
  336MOL0     H45338   4.260  10.194   0.668  0.1080 -4.1818 -1.8930
  336MOL0     H45339   4.396  10.119   0.584 -1.7078 -0.0296 -0.4821
  336MOL0     H45340   4.447  10.392   0.723 -5.2395 -0.4763  0.8659
  336MOL0     H45341   4.378  10.396   0.578  0.0400  1.5340  1.8012
  336MOL0     H45342   4.587   9.458   1.084  2.3555  2.5122 -0.1177
  336MOL0     H45343   4.825   9.360   1.086  0.2944 -2.1076 -0.4054
  336MOL0     H45344   5.019   9.072   0.813 -0.0300  2.6001  2.4438
  336MOL0     H45345   5.168   8.891   0.768 -0.8440  0.1750  2.7591
  336MOL0     H45346   6.780   8.097   1.392  1.4802  0.9025  0.6738
  336MOL0     H45347   6.998   8.069   1.497 -1.7981 -6.1298  2.0326
  336MOL0     H45348   7.469   8.310   1.380 -0.3292  0.6788 -0.5471
  336MOL0     H45349   7.662   8.327   1.485  0.0892  0.2342 -1.9577
  336MOL0     H45350   7.873   8.282   1.574  0.0302 -4.0892 -0.6835
  336MOL0     H45351   7.756   8.341   1.696 -0.9703 -0.3431  2.0651
  336MOL0     H45352   7.978   8.381   1.771 -1.5505  0.3135 -1.8509
  336MOL0     H45353   8.028   8.215   1.748  0.4416 -1.0383  0.1841
  336MOL0     H45354   7.895   8.141   1.949  1.2999  0.0309 -1.0743
  336MOL0     H45355   7.793   8.276   1.935 -1.2097 -3.2153  0.1343
  336MOL0     H45356   7.953   8.287   2.140  3.5773  0.4676  1.4692
  336MOL0     H45357   7.967   8.420   2.026  1.8945  0.3385  0.6549
  336MOL0     H45358   8.321   8.161   2.056  1.5013  3.4572 -0.8572
  336MOL0     H45359   7.597   7.937   1.675  1.2751 -1.4965 -2.7024
  336MOL0     H45360   7.386   7.924   1.545 -0.2777 -0.4730  2.9557
  337MOL0     O45361   3.238   9.017   1.144  0.0508 -0.8433 -0.4785
  337MOL0     C45362   3.233   8.913   1.210  0.2084  0.6242  0.6571
  337MOL0     O45363   3.339   8.823   1.223  0.0772 -0.4527 -0.6032
  337MOL0     C45364   3.462   8.849   1.168  0.6594  0.2197 -0.2646
  337MOL0     C45365   3.565   8.781   1.234  0.4088 -0.0667  0.6269
  337MOL0     C45366   3.695   8.789   1.193  0.6395 -0.3211  0.3354
  337MOL0     C45367   3.727   8.840   1.067  0.0171 -0.2672 -0.3144
  337MOL0     O45368   3.858   8.828   1.021  0.5617  0.3230 -0.3041
  337MOL0     C45369   3.886   8.847   0.885 -0.1172  0.5392  0.1351
  337MOL0     C45370   4.010   8.769   0.851  1.2610  0.1157  0.5519
  337MOL0     C45371   4.127   8.803   0.948 -0.2089 -0.0614  0.2474
  337MOL0     C45372   4.264   8.777   0.886  0.4045  0.1022  0.1516
  337MOL0     C45373   4.319   8.894   0.813 -0.0663 -0.2639 -0.0471
  337MOL0     C45374   4.460   8.872   0.742 -0.3142 -0.6364 -0.2189
  337MOL0     C45375   4.503   9.023   0.691  0.6692  0.7754 -0.0216
  337MOL0     C45376   4.659   9.033   0.662 -0.0776 -0.2570 -1.1227
  337MOL0     N45377   4.740   8.976   0.774  0.2125 -1.5427  0.3873
  337MOL0     C45378   4.719   8.995   0.908  0.9028 -0.0824  0.1391
  337MOL0     C45379   4.810   8.911   0.967  0.4111  0.0006 -0.4706
  337MOL0     C45380   4.829   8.893   1.110  0.2152  0.0110  0.1941
  337MOL0     C45381   4.715   8.801   1.161 -0.5675 -0.3678  0.3989
  337MOL0     C45382   4.730   8.660   1.114 -0.1593  0.9022 -0.9249
  337MOL0     C45383   4.594   8.584   1.123 -0.4466 -0.4265  0.2300
  337MOL0     O45384   4.551   8.594   1.258  0.1349 -0.2299 -0.1909
  337MOL0     C45385   4.418   8.578   1.295  0.5391 -0.2686  0.1046
  337MOL0     C45386   4.392   8.568   1.430  0.3623  0.1273 -1.1209
  337MOL0     C45387   4.255   8.553   1.471 -0.2410  0.1625 -0.0166
  337MOL0     C45388   4.242   8.551   1.619  0.3487 -0.7374 -0.2765
  337MOL0     C45389   4.154   8.554   1.381  0.3650 -0.2118 -0.5580
  337MOL0     C45390   4.007   8.551   1.410  0.0982  0.7160 -0.0679
  337MOL0     O45391   3.957   8.503   1.530  0.3395 -0.3578 -0.8690
  337MOL0     C45392   3.825   8.528   1.566 -0.0483 -0.0348 -0.2470
  337MOL0     C45393   3.746   8.640   1.531  0.1273 -0.1881 -0.5667
  337MOL0     C45394   3.615   8.669   1.586 -0.1646  0.1315 -0.2418
  337MOL0     C45395   3.564   8.572   1.675 -0.5629  0.0393 -0.1068
  337MOL0     O45396   3.448   8.575   1.741  0.0256  0.6407 -0.2610
  337MOL0     C45397   3.374   8.694   1.745 -0.0429  0.7223 -0.3676
  337MOL0     C45398   3.257   8.659   1.835  0.9558 -0.1324  0.7543
  337MOL0     C45399   3.138   8.740   1.790 -0.1800 -0.8759 -0.2049
  337MOL0     C45400   2.995   8.671   1.817 -0.6437 -0.4779 -0.3220
  337MOL0     C45401   2.882   8.772   1.815  0.3823  0.1379  0.1150
  337MOL0     C45402   2.874   8.850   1.948  0.2581  0.0842 -0.0125
  337MOL0     C45403   2.746   8.938   1.960 -0.1462  0.2680 -0.7195
  337MOL0     C45404   2.755   9.029   2.082 -0.1018  0.0012 -0.2319
  337MOL0    Cl45405   2.600   9.102   2.091  0.6230 -0.6240 -0.2195
  337MOL0     C45406   3.633   8.450   1.696 -0.8634  0.1244  0.9697
  337MOL0     C45407   3.768   8.440   1.658  0.2316  0.4065  0.3432
  337MOL0     O45408   3.937   8.593   1.314 -0.0458 -0.1111  0.5174
  337MOL0     C45409   4.176   8.563   1.249  0.6652 -0.2464  0.5073
  337MOL0     C45410   4.311   8.573   1.206 -0.3901  0.7104 -0.4510
  337MOL0     N45411   4.885   8.847   0.870 -0.4615 -0.2880  0.4134
  337MOL0     N45412   4.833   8.878   0.750  0.5533  0.3763 -0.9239
  337MOL0     C45413   3.627   8.904   0.994 -0.3708 -0.2911  0.8668
  337MOL0     C45414   3.496   8.908   1.043 -0.2082 -0.2487 -0.4453
  337MOL0     C45415   3.100   8.872   1.273 -0.8866 -0.7132  0.5473
  337MOL0     C45416   3.091   8.750   1.347  0.1026  0.5689  0.5332
  337MOL0     C45417   2.967   8.716   1.397 -0.1298  0.4647 -0.3808
  337MOL0     C45418   2.855   8.795   1.374 -0.4274  0.4549  0.3750
  337MOL0     O45419   2.725   8.776   1.418 -0.1536  0.3737  0.2780
  337MOL0     C45420   2.699   8.650   1.481 -0.5974 -0.0914 -0.4161
  337MOL0     C45421   2.540   8.637   1.484 -0.2166  0.3681 -0.2517
  337MOL0     C45422   2.465   8.764   1.528  0.2057  0.1924 -0.2000
  337MOL0     C45423   2.321   8.724   1.561  0.1396 -0.4827 -0.9126
  337MOL0     C45424   2.236   8.846   1.581 -0.2698 -0.6068 -0.8551
  337MOL0     C45425   2.164   8.941   1.607 -0.0890  0.7865 -0.3338
  337MOL0     C45426   2.874   8.923   1.317  0.8163  0.4144 -0.6901
  337MOL0     C45427   2.994   8.956   1.263 -0.0300  0.5657 -0.3201
  337MOL0     H45428   3.538   8.728   1.325 -1.9472 -0.7125 -0.3711
  337MOL0     H45429   3.765   8.740   1.260 -2.0053 -1.5007  2.4236
  337MOL0     H45430   3.802   8.824   0.818 -0.8374  2.4757  0.2925
  337MOL0     H45431   3.907   8.954   0.871 -0.2932  0.7885  1.6157
  337MOL0     H45432   3.995   8.661   0.855  0.0662  0.3156  1.8162
  337MOL0     H45433   4.031   8.812   0.752  1.7659  0.6444  0.8788
  337MOL0     H45434   4.127   8.909   0.973 -1.8392  0.6355 -2.3294
  337MOL0     H45435   4.114   8.733   1.031 -0.0982 -1.3210 -0.7663
  337MOL0     H45436   4.332   8.756   0.969  0.9552 -0.7511 -0.4988
  337MOL0     H45437   4.269   8.691   0.818  0.2383 -0.0914  0.3856
  337MOL0     H45438   4.248   8.927   0.736  2.0093  1.1738 -1.4757
  337MOL0     H45439   4.344   8.977   0.880  1.5001 -0.2154 -0.6335
  337MOL0     H45440   4.536   8.825   0.804  0.1647 -0.4226 -0.6332
  337MOL0     H45441   4.443   8.804   0.658 -0.6578 -0.7145 -0.0880
  337MOL0     H45442   4.441   9.039   0.603  2.3155 -0.0991 -1.4040
  337MOL0     H45443   4.471   9.097   0.765 -1.4339 -2.4373  2.6204
  337MOL0     H45444   4.681   9.140   0.662 -2.4988  0.3521  1.1802
  337MOL0     H45445   4.688   8.981   0.570  0.4178 -0.4131 -0.8850
  337MOL0     H45446   4.654   9.060   0.965  0.6398 -0.6004  0.4472
  337MOL0     H45447   4.930   8.853   1.123 -0.1613 -0.9371  0.2698
  337MOL0     H45448   4.826   8.986   1.168  1.0329 -0.3621  0.8467
  337MOL0     H45449   4.614   8.829   1.131 -1.6481  0.5771  4.3763
  337MOL0     H45450   4.707   8.809   1.270 -4.8522 -0.0004  0.1977
  337MOL0     H45451   4.807   8.614   1.177 -0.8174  0.3623 -0.4993
  337MOL0     H45452   4.771   8.659   1.012  1.6394 -0.7609 -0.2593
  337MOL0     H45453   4.591   8.479   1.093 -1.7787 -0.2160 -0.4443
  337MOL0     H45454   4.526   8.639   1.057 -0.9193  0.1020  1.1348
  337MOL0     H45455   4.478   8.574   1.496 -0.5482 -1.9715  0.3524
  337MOL0     H45456   4.189   8.462   1.653  1.5876 -1.4952 -0.2805
  337MOL0     H45457   4.340   8.547   1.667  0.0777  0.6699  0.4684
  337MOL0     H45458   4.183   8.636   1.656 -0.1176 -2.1308  2.4685
  337MOL0     H45459   3.782   8.722   1.470  0.1042  1.1309  1.1075
  337MOL0     H45460   3.567   8.760   1.551 -4.0514 -0.7089  2.3653
  337MOL0     H45461   3.424   8.777   1.796  0.7979  0.3139 -0.5125
  337MOL0     H45462   3.352   8.728   1.643 -0.0947  0.4968 -0.4316
  337MOL0     H45463   3.234   8.553   1.818  0.6681 -0.5140  3.1679
  337MOL0     H45464   3.275   8.664   1.943 -0.2980  0.4587  0.9535
  337MOL0     H45465   3.142   8.761   1.683  2.5309  0.2436  0.0310
  337MOL0     H45466   3.144   8.836   1.842 -1.0799 -0.0454 -1.5679
  337MOL0     H45467   2.995   8.591   1.742 -0.0715 -2.3054  1.5273
  337MOL0     H45468   2.995   8.629   1.918  1.2289  1.3983  0.5116
  337MOL0     H45469   2.794   8.710   1.795  1.7428 -1.1421 -2.6087
  337MOL0     H45470   2.894   8.839   1.729 -1.3243  1.5441  0.9182
  337MOL0     H45471   2.868   8.773   2.025  1.4308 -0.8476 -0.8242
  337MOL0     H45472   2.957   8.914   1.978 -1.4988  2.1835  0.6662
  337MOL0     H45473   2.660   8.871   1.954  0.9601 -1.5614  1.7773
  337MOL0     H45474   2.743   9.005   1.874  0.0407  0.1500 -0.8188
  337MOL0     H45475   2.834   9.104   2.077  0.3396 -0.2759  1.7717
  337MOL0     H45476   2.771   8.952   2.158  3.2907 -0.2317 -1.0500
  337MOL0     H45477   3.587   8.361   1.736  0.9187 -1.5845 -0.5808
  337MOL0     H45478   3.829   8.362   1.702  0.4501  0.7776  0.7024
  337MOL0     H45479   4.108   8.535   1.170  0.0421 -0.3936  1.0916
  337MOL0     H45480   4.317   8.573   1.098 -1.1599  0.5282 -0.4976
  337MOL0     H45481   3.647   8.954   0.900 -0.9156 -2.0570 -0.2135
  337MOL0     H45482   3.420   8.941   0.972 -0.9785 -0.2882  0.3469
  337MOL0     H45483   3.178   8.688   1.363 -0.4493 -0.6212 -0.9293
  337MOL0     H45484   2.960   8.624   1.453  1.6427  0.3882 -0.2471
  337MOL0     H45485   2.737   8.568   1.420 -1.6909 -1.3513  0.5245
  337MOL0     H45486   2.741   8.638   1.581 -2.7367 -0.0193  0.5632
  337MOL0     H45487   2.512   8.548   1.541  0.1904  0.9098  0.8215
  337MOL0     H45488   2.508   8.624   1.380 -4.8451  2.5295  0.6434
  337MOL0     H45489   2.457   8.839   1.449 -1.8771  1.4873  1.1238
  337MOL0     H45490   2.508   8.807   1.619 -3.3675 -0.3282  1.9332
  337MOL0     H45491   2.320   8.668   1.655 -0.5242 -1.5206 -1.5214
  337MOL0     H45492   2.266   8.662   1.489 -0.5335  1.9053 -2.5713
  337MOL0     H45493   2.103   9.029   1.619  1.9693  2.3835 -0.8238
  337MOL0     H45494   2.801   9.001   1.302  0.5985  0.1233 -1.1425
  337MOL0     H45495   3.008   9.048   1.207  1.8600 -1.1464 -2.8304
  338MOL0     O45496  10.082   3.591  10.674 -0.0922 -0.5665  0.2188
  338MOL0     C45497  10.140   3.674  10.600  0.2039 -0.9550 -0.3422
  338MOL0     O45498  10.092   3.708  10.470 -0.4113  1.3249  0.1919
  338MOL0     C45499   9.961   3.671  10.441 -0.1757  0.4832 -0.5745
  338MOL0     C45500   9.950   3.575  10.347 -0.1307 -0.4658 -0.0410
  338MOL0     C45501   9.825   3.539  10.297 -0.1748 -0.2222 -0.1465
  338MOL0     C45502   9.712   3.603  10.344 -0.2211 -0.1466 -0.1617
  338MOL0     O45503   9.585   3.559  10.307 -0.1521 -0.3302 -0.7978
  338MOL0     C45504   9.566   3.538  10.170  0.1442 -1.2017  0.1066
  338MOL0     C45505   9.417   3.514  10.124 -0.6048 -0.4615 -0.5830
  338MOL0     C45506   9.322   3.634  10.145  0.4996  1.1072 -0.3234
  338MOL0     C45507   9.243   3.625  10.279  0.2007 -1.5115  0.1856
  338MOL0     C45508   9.147   3.749  10.296 -0.1705  0.9246  0.9860
  338MOL0     C45509   9.137   3.793  10.445  0.2769  0.5789  0.2571
  338MOL0     C45510   9.079   3.681  10.534 -0.8144  0.0108 -0.2039
  338MOL0     C45511   8.936   3.648  10.499  0.6012  0.4439  0.1461
  338MOL0     N45512   8.877   3.545  10.595 -0.3825  0.2503  0.0027
  338MOL0     C45513   8.792   3.571  10.701  0.2964  0.3671 -0.8679
  338MOL0     C45514   8.750   3.456  10.756  0.8074 -0.7406 -0.4241
  338MOL0     C45515   8.673   3.418  10.879 -0.1405 -0.9046  0.1621
  338MOL0     C45516   8.529   3.468  10.886  0.0880 -0.1575 -0.1179
  338MOL0     C45517   8.452   3.397  10.998 -0.1209 -0.0249 -0.3100
  338MOL0     C45518   8.323   3.461  11.019 -0.9472 -0.1143 -0.0158
  338MOL0     O45519   8.232   3.475  10.905 -0.4981 -0.1352  0.3791
  338MOL0     C45520   8.110   3.539  10.932  0.2810 -0.1130 -0.4038
  338MOL0     C45521   8.062   3.576  11.057 -0.1361  0.2570 -0.0040
  338MOL0     C45522   7.932   3.620  11.086  0.0555 -0.0217  0.4778
  338MOL0     C45523   7.880   3.649  11.231  0.5557 -0.6989 -0.0057
  338MOL0     C45524   7.842   3.635  10.967 -0.4667 -0.7980 -0.2904
  338MOL0     C45525   7.708   3.700  10.975  0.4228 -0.9692 -0.4919
  338MOL0     O45526   7.614   3.644  10.893 -0.6030  0.3384 -0.4162
  338MOL0     C45527   7.485   3.695  10.901 -0.5377  0.1124  0.2301
  338MOL0     C45528   7.422   3.695  11.024  0.2796 -0.0242 -0.4529
  338MOL0     C45529   7.288   3.739  11.032 -0.3428 -0.2385 -0.4299
  338MOL0     C45530   7.226   3.789  10.921  0.6584  0.1418 -0.0145
  338MOL0     O45531   7.104   3.848  10.937 -0.3925  0.4007  0.1243
  338MOL0     C45532   7.056   3.940  10.840 -0.6022 -0.2433 -0.2703
  338MOL0     C45533   6.946   4.032  10.891 -0.2746  0.7762  0.0051
  338MOL0     C45534   6.820   3.947  10.932  0.0317 -0.0606 -0.1249
  338MOL0     C45535   6.693   4.024  10.900  0.7525 -0.6706  0.3230
  338MOL0     C45536   6.573   3.948  10.877 -0.1220  0.3761 -0.4832
  338MOL0     C45537   6.514   3.904  11.010 -0.0851  0.5230 -0.4168
  338MOL0     C45538   6.394   3.814  10.992  0.4007 -0.7383  0.0879
  338MOL0     C45539   6.334   3.779  11.128 -0.4167 -0.6193  0.1723
  338MOL0    Cl45540   6.445   3.664  11.213  0.3324 -0.1697 -0.1858
  338MOL0     C45541   7.284   3.778  10.795  0.4646  0.4267 -0.1846
  338MOL0     C45542   7.412   3.726  10.786  0.7585 -1.4322  0.4423
  338MOL0     O45543   7.686   3.794  11.059  0.2200 -0.5107 -0.6550
  338MOL0     C45544   7.886   3.596  10.839  0.3465  0.3997 -0.0907
  338MOL0     C45545   8.020   3.547  10.822  0.0704  0.2390 -0.2078
  338MOL0     N45546   8.795   3.361  10.663 -0.6204 -0.7732 -0.3398
  338MOL0     N45547   8.862   3.412  10.570 -0.1589  0.8959  0.5257
  338MOL0     C45548   9.724   3.696  10.451  0.1054 -0.1666  0.4466
  338MOL0     C45549   9.850   3.733  10.496  0.2513  0.9472 -0.1244
  338MOL0     C45550  10.263   3.743  10.648 -0.0979  0.4872  0.5969
  338MOL0     C45551  10.302   3.721  10.784 -0.1384  0.4352  0.6863
  338MOL0     C45552  10.421   3.784  10.823 -0.6189 -0.1847  0.3313
  338MOL0     C45553  10.503   3.856  10.732  0.0441 -0.4091 -0.1275
  338MOL0     O45554  10.632   3.913  10.769  0.0654 -0.7190  0.2838
  338MOL0     C45555  10.728   3.815  10.824  0.2565  0.7988  0.4413
  338MOL0     C45556  10.809   3.876  10.945 -0.3909  0.7570 -0.0032
  338MOL0     C45557  10.885   4.008  10.911 -0.3463  0.7165 -0.0535
  338MOL0     C45558  10.980   4.041  11.019 -0.6646  0.4172 -0.1299
  338MOL0     C45559  11.058   4.163  11.000  0.3357  0.7388  0.3287
  338MOL0     C45560  11.120   4.271  10.986 -0.3490  0.2829 -0.0897
  338MOL0     C45561  10.461   3.870  10.597  0.4216  0.6422 -0.0836
  338MOL0     C45562  10.334   3.817  10.560  0.7267 -0.1732 -0.3141
  338MOL0     H45563  10.037   3.521  10.310 -1.2954 -1.8616 -0.8351
  338MOL0     H45564   9.815   3.457  10.227 -0.4451 -1.5670  1.4119
  338MOL0     H45565   9.600   3.621  10.107  3.5754 -1.8709  0.8669
  338MOL0     H45566   9.630   3.458  10.133 -0.6817 -1.6449 -0.3969
  338MOL0     H45567   9.426   3.491  10.017  0.2184 -1.2453 -0.3641
  338MOL0     H45568   9.381   3.428  10.182 -1.8267 -1.3098 -2.4830
  338MOL0     H45569   9.378   3.727  10.140  3.5544 -0.5598  0.2252
  338MOL0     H45570   9.263   3.633  10.053  2.8098 -0.2078 -1.8873
  338MOL0     H45571   9.189   3.530  10.277 -1.9874 -0.3709  0.8376
  338MOL0     H45572   9.314   3.631  10.362 -1.7938  1.0415  1.8885
  338MOL0     H45573   9.179   3.839  10.243 -1.7195  1.4879  0.9524
  338MOL0     H45574   9.055   3.712  10.248  0.7751  1.6063 -1.5293
  338MOL0     H45575   9.237   3.814  10.485  0.3721  2.1055 -0.6988
  338MOL0     H45576   9.079   3.885  10.454  2.9904  2.4624 -0.1974
  338MOL0     H45577   9.138   3.589  10.540 -0.1117  0.5318  1.9791
  338MOL0     H45578   9.086   3.724  10.635  1.8216 -0.3957 -0.1481
  338MOL0     H45579   8.931   3.600  10.401 -1.5551  1.7519 -0.4395
  338MOL0     H45580   8.881   3.742  10.505  0.3345  0.3515 -0.7156
  338MOL0     H45581   8.756   3.667  10.736 -2.5892 -0.3616 -1.6169
  338MOL0     H45582   8.679   3.310  10.899  0.2785 -0.7650  0.8391
  338MOL0     H45583   8.735   3.467  10.955  2.2115 -3.2306 -0.0979
  338MOL0     H45584   8.483   3.447  10.789 -1.8768  0.6621  0.6036
  338MOL0     H45585   8.527   3.575  10.904 -1.3253  0.0532 -1.3237
  338MOL0     H45586   8.517   3.398  11.086 -0.1121 -3.7207 -0.1053
  338MOL0     H45587   8.425   3.292  10.981 -1.0168 -0.5586  3.4924
  338MOL0     H45588   8.335   3.557  11.070 -2.3391  0.1798 -0.2082
  338MOL0     H45589   8.266   3.411  11.097 -2.1136  1.6270  0.3115
  338MOL0     H45590   8.126   3.561  11.143  1.8737 -0.6512 -1.5732
  338MOL0     H45591   7.855   3.756  11.231 -2.6589 -1.2356 -3.7162
  338MOL0     H45592   7.789   3.592  11.253  0.8292 -0.0570  3.3000
  338MOL0     H45593   7.957   3.625  11.304  1.8922  2.2744 -0.2930
  338MOL0     H45594   7.466   3.659  11.116 -0.1764 -0.5926 -0.4518
  338MOL0     H45595   7.240   3.741  11.129  1.1559  1.7119  0.3350
  338MOL0     H45596   7.140   3.994  10.795 -1.8533  1.2110 -0.9599
  338MOL0     H45597   7.014   3.877  10.761 -1.1384 -0.6323  0.3115
  338MOL0     H45598   6.998   4.094  10.965  1.2087  2.2581 -2.1363
  338MOL0     H45599   6.925   4.095  10.804 -1.8679 -1.1880 -1.1121
  338MOL0     H45600   6.826   3.936  11.040  0.8174 -2.2683 -0.3226
  338MOL0     H45601   6.814   3.854  10.873  1.7699 -0.7254  0.6733
  338MOL0     H45602   6.675   4.100  10.977 -1.1584  1.7301 -2.2845
  338MOL0     H45603   6.707   4.073  10.803 -2.5866 -1.8253 -0.9131
  338MOL0     H45604   6.592   3.868  10.805 -0.6893 -0.4446  0.2466
  338MOL0     H45605   6.502   4.019  10.834  1.0737  2.4402  0.7685
  338MOL0     H45606   6.593   3.842  11.053 -0.8589 -1.0691 -1.2204
  338MOL0     H45607   6.500   3.988  11.079  2.3537  0.5664  0.1019
  338MOL0     H45608   6.418   3.716  10.951  3.5874 -0.4384  1.0129
  338MOL0     H45609   6.321   3.865  10.928  0.8889 -0.7609 -0.4904
  338MOL0     H45610   6.239   3.730  11.109 -0.3176 -1.3606  1.4511
  338MOL0     H45611   6.313   3.865  11.192  0.0281 -1.1465  1.0483
  338MOL0     H45612   7.225   3.802  10.707  0.4893  2.1907  0.2364
  338MOL0     H45613   7.462   3.716  10.691  3.1059 -0.7117  1.5180
  338MOL0     H45614   7.828   3.603  10.748 -0.2155 -0.2224  0.2131
  338MOL0     H45615   8.056   3.511  10.727  3.1967 -0.4121  1.0975
  338MOL0     H45616   9.643   3.743  10.506 -1.1979  0.3181 -1.7558
  338MOL0     H45617   9.861   3.812  10.570  0.1261  0.2872  0.6134
  338MOL0     H45618  10.245   3.668  10.860 -0.3817  2.9762  2.4063
  338MOL0     H45619  10.471   3.765  10.918  2.1882 -0.3005 -1.0466
  338MOL0     H45620  10.677   3.720  10.841 -0.6966  1.1414 -0.4071
  338MOL0     H45621  10.797   3.790  10.744  0.6875 -0.8365  1.2701
  338MOL0     H45622  10.872   3.794  10.981  0.2531  1.5396  0.6765
  338MOL0     H45623  10.744   3.902  11.029 -0.5378 -1.1285  0.5099
  338MOL0     H45624  10.815   4.088  10.885  1.4201  2.2038 -0.3577
  338MOL0     H45625  10.935   4.006  10.814 -0.6467  0.3922 -0.2058
  338MOL0     H45626  11.047   3.960  11.046  1.1890  0.9372 -2.7566
  338MOL0     H45627  10.923   4.069  11.108  2.1749  1.8534  1.3875
  338MOL0     H45628  11.162   4.367  10.967 -0.5717  0.2500 -0.7976
  338MOL0     H45629  10.527   3.927  10.532  2.8901 -0.3201  1.4748
  338MOL0     H45630  10.294   3.838  10.461  1.9688  1.0149 -0.6053
  339MOL0     O45631   6.641   6.564   7.014 -0.9892 -0.5359  0.1118
  339MOL0     C45632   6.571   6.627   6.931 -0.2667  0.5996  0.6589
  339MOL0     O45633   6.617   6.734   6.851  0.5615  0.2976 -0.9364
  339MOL0     C45634   6.750   6.735   6.838  0.3993 -0.2635  0.5911
  339MOL0     C45635   6.824   6.791   6.945  0.6218 -0.5817  0.3332
  339MOL0     C45636   6.961   6.807   6.934 -0.2575  0.0647 -0.9956
  339MOL0     C45637   7.031   6.770   6.817 -0.7856  0.2634 -0.3369
  339MOL0     O45638   7.165   6.795   6.811 -0.2011 -0.2693  0.0714
  339MOL0     C45639   7.247   6.678   6.792  0.0266  0.1335 -0.4056
  339MOL0     C45640   7.397   6.701   6.838 -0.5166  0.0356 -0.3872
  339MOL0     C45641   7.481   6.580   6.803 -0.0096  0.0367  0.1080
  339MOL0     C45642   7.629   6.589   6.853  0.4093 -0.5511  0.0671
  339MOL0     C45643   7.702   6.677   6.753 -0.2790  0.1137  0.5116
  339MOL0     C45644   7.852   6.685   6.785 -0.3895 -0.7015 -0.3254
  339MOL0     C45645   7.927   6.787   6.685 -0.9480 -0.8369 -0.0730
  339MOL0     C45646   8.006   6.708   6.574 -0.6198 -0.8275 -1.4962
  339MOL0     N45647   7.937   6.684   6.445 -0.7425 -0.3731 -0.3816
  339MOL0     C45648   7.991   6.722   6.325  1.0466  0.0173  0.4424
  339MOL0     C45649   7.897   6.669   6.235  0.4275  0.8330  0.6211
  339MOL0     C45650   7.894   6.688   6.089  0.7417 -0.4261  0.6472
  339MOL0     C45651   7.787   6.794   6.055 -0.2655 -0.4293 -0.0373
  339MOL0     C45652   7.752   6.798   5.901  0.0955  0.4175 -0.5795
  339MOL0     C45653   7.646   6.906   5.868  1.0000 -0.0941  0.3349
  339MOL0     O45654   7.627   6.897   5.724  0.2071 -0.1237 -0.2061
  339MOL0     C45655   7.498   6.882   5.690 -0.0693  0.2697  0.5115
  339MOL0     C45656   7.450   6.773   5.625  0.3565 -0.4552 -1.0378
  339MOL0     C45657   7.318   6.749   5.612 -0.8122 -0.1184 -0.3858
  339MOL0     C45658   7.274   6.619   5.545  0.2321  0.5586 -0.8124
  339MOL0     C45659   7.221   6.848   5.659 -0.7623  0.2083  0.1377
  339MOL0     C45660   7.077   6.836   5.638 -0.0286 -0.0648  0.1748
  339MOL0     O45661   7.031   6.704   5.632 -0.2102 -0.4224  0.0868
  339MOL0     C45662   6.902   6.674   5.628  0.3545  0.0236  0.2944
  339MOL0     C45663   6.855   6.578   5.719  0.5526 -0.4875  0.3403
  339MOL0     C45664   6.723   6.542   5.720  0.2079 -0.1809  0.4845
  339MOL0     C45665   6.625   6.605   5.647 -0.7566 -0.0376  0.4473
  339MOL0     O45666   6.493   6.569   5.670 -0.1121 -0.3693  0.4739
  339MOL0     C45667   6.393   6.619   5.574 -0.4473 -0.2623 -0.6115
  339MOL0     C45668   6.266   6.550   5.578  0.8357  0.2035 -1.4249
  339MOL0     C45669   6.183   6.576   5.703  0.1477  0.1238 -0.0796
  339MOL0     C45670   6.123   6.718   5.706  0.8394  0.0534  0.7006
  339MOL0     C45671   6.036   6.721   5.824  0.1298 -0.5303  0.4163
  339MOL0     C45672   5.966   6.862   5.827 -0.5071 -1.1448  0.2528
  339MOL0     C45673   5.927   6.879   5.965  0.2310 -0.9276 -0.5494
  339MOL0     C45674   5.862   7.020   5.966  0.0701 -0.7474 -0.0805
  339MOL0    Cl45675   5.753   7.039   6.103 -0.2506  0.1226 -0.2041
  339MOL0     C45676   6.673   6.710   5.556 -0.3165 -0.3327 -0.3137
  339MOL0     C45677   6.803   6.746   5.550 -0.8013 -0.0147 -0.0518
  339MOL0     O45678   7.004   6.934   5.658  0.1262  0.4258 -0.5258
  339MOL0     C45679   7.265   6.968   5.724 -0.1878 -0.5575  0.3166
  339MOL0     C45680   7.402   6.983   5.728 -0.5530 -0.0565  0.7821
  339MOL0     N45681   7.798   6.602   6.310  1.0271  0.3790  0.2242
  339MOL0     N45682   7.829   6.604   6.432  0.5340 -0.0514 -0.6561
  339MOL0     C45683   6.950   6.713   6.709  0.4196  0.3989  0.1245
  339MOL0     C45684   6.811   6.681   6.722 -0.1711 -0.0706 -0.0587
  339MOL0     C45685   6.435   6.582   6.918  0.1019 -0.3220  0.2620
  339MOL0     C45686   6.348   6.648   6.829 -0.9102  0.6622 -0.1501
  339MOL0     C45687   6.216   6.608   6.821  0.4432 -0.7313 -0.0159
  339MOL0     C45688   6.171   6.489   6.889  0.0746 -0.3007  0.6533
  339MOL0     O45689   6.044   6.435   6.866  0.1148 -0.4569 -0.1393
  339MOL0     C45690   5.951   6.499   6.768  0.3407  0.3424  0.3732
  339MOL0     C45691   5.827   6.409   6.752  0.0967  0.2483  0.0542
  339MOL0     C45692   5.750   6.433   6.625 -0.2929  0.0076 -0.2091
  339MOL0     C45693   5.686   6.571   6.622 -0.7722 -0.5816  0.4433
  339MOL0     C45694   5.568   6.583   6.718  0.3998  0.6668  0.8198
  339MOL0     C45695   5.473   6.590   6.789  0.5251  0.8699  0.1825
  339MOL0     C45696   6.262   6.420   6.963 -0.5534  0.4845 -0.5568
  339MOL0     C45697   6.388   6.461   6.977 -0.2312  0.7470 -0.2117
  339MOL0     H45698   6.771   6.830   7.032 -0.7847 -1.2408 -0.1964
  339MOL0     H45699   7.011   6.851   7.020 -0.7473  0.8455 -1.0992
  339MOL0     H45700   7.211   6.601   6.861 -1.3065  3.4130  2.9092
  339MOL0     H45701   7.263   6.654   6.686  0.6726  1.9759 -0.7633
  339MOL0     H45702   7.435   6.793   6.792 -0.8397  0.4859  0.2334
  339MOL0     H45703   7.401   6.728   6.944  0.5017  0.4258 -0.5106
  339MOL0     H45704   7.423   6.498   6.846 -0.7395  0.6582  0.3359
  339MOL0     H45705   7.488   6.560   6.695 -0.0376 -0.9997  0.2948
  339MOL0     H45706   7.645   6.625   6.956 -2.5815  0.8873  0.1313
  339MOL0     H45707   7.675   6.490   6.856 -3.3683 -2.4893 -0.1554
  339MOL0     H45708   7.685   6.617   6.663 -0.8868 -3.8035  2.9624
  339MOL0     H45709   7.667   6.780   6.738 -2.0278 -0.7979 -2.7296
  339MOL0     H45710   7.862   6.712   6.891 -3.3166 -1.5220  0.2625
  339MOL0     H45711   7.896   6.586   6.777 -0.0770 -0.6175  0.3038
  339MOL0     H45712   7.851   6.851   6.638 -0.0487  1.2737  1.1981
  339MOL0     H45713   7.988   6.859   6.741 -2.8286 -0.0110  0.9981
  339MOL0     H45714   8.044   6.612   6.611 -2.2303 -0.6741  0.7788
  339MOL0     H45715   8.093   6.764   6.542  1.9179 -3.2873  0.5272
  339MOL0     H45716   8.084   6.775   6.306  2.2728 -2.2203 -0.1294
  339MOL0     H45717   7.984   6.737   6.050  0.2870  0.3876  0.5870
  339MOL0     H45718   7.875   6.600   6.027  0.1415 -0.1016  0.3518
  339MOL0     H45719   7.813   6.897   6.079 -0.6998 -0.1931 -0.5652
  339MOL0     H45720   7.698   6.767   6.111 -1.1538  0.3913 -1.0143
  339MOL0     H45721   7.707   6.701   5.880  3.0555 -0.6096 -2.7808
  339MOL0     H45722   7.837   6.800   5.833 -0.7649 -1.1517 -1.7614
  339MOL0     H45723   7.683   7.006   5.893 -0.2868  1.3290 -2.9974
  339MOL0     H45724   7.551   6.894   5.921  0.9734 -0.4682  0.2052
  339MOL0     H45725   7.522   6.695   5.601 -0.2476 -1.0576 -0.9276
  339MOL0     H45726   7.357   6.560   5.507  1.0248 -2.2436  4.3228
  339MOL0     H45727   7.236   6.561   5.630  0.5816 -0.3486 -1.2636
  339MOL0     H45728   7.205   6.632   5.462  1.8087 -3.6350 -3.0694
  339MOL0     H45729   6.932   6.532   5.780 -0.6931 -0.4302  2.0227
  339MOL0     H45730   6.670   6.467   5.779 -1.3842  1.1925  0.8663
  339MOL0     H45731   6.379   6.726   5.588  0.5065 -0.3509  1.2817
  339MOL0     H45732   6.428   6.615   5.470 -0.6548  0.8037 -0.7271
  339MOL0     H45733   6.216   6.581   5.486  2.2971 -1.4728 -2.8605
  339MOL0     H45734   6.281   6.442   5.569  0.8817  0.2621 -2.1377
  339MOL0     H45735   6.251   6.555   5.786 -0.3026 -1.5689 -0.0946
  339MOL0     H45736   6.100   6.508   5.723 -0.1298  0.4863  0.0143
  339MOL0     H45737   6.204   6.792   5.710  1.2133  0.0979 -3.3566
  339MOL0     H45738   6.065   6.734   5.615  2.8423  0.7427 -0.5220
  339MOL0     H45739   6.082   6.698   5.920 -0.4874  1.5828  1.2649
  339MOL0     H45740   5.962   6.642   5.804  0.6683 -1.7652  2.9692
  339MOL0     H45741   6.032   6.946   5.803 -1.2119 -0.3792  0.9355
  339MOL0     H45742   5.891   6.855   5.748 -0.7064 -3.1977  0.5550
  339MOL0     H45743   6.012   6.890   6.033 -1.3066  3.1382  1.0412
  339MOL0     H45744   5.854   6.814   6.013 -1.1478  2.0469  1.7205
  339MOL0     H45745   5.803   7.038   5.876 -0.5671 -3.3023 -0.2380
  339MOL0     H45746   5.938   7.099   5.971  2.2441 -2.7295  0.1209
  339MOL0     H45747   6.603   6.756   5.487  0.4184  0.1476 -0.7567
  339MOL0     H45748   6.834   6.825   5.482 -0.4918 -0.3745 -0.3326
  339MOL0     H45749   7.201   7.047   5.763  2.0803  0.1383  3.0134
  339MOL0     H45750   7.446   7.072   5.771  1.5947  1.7370 -4.3607
  339MOL0     H45751   7.004   6.696   6.617  0.9961 -0.7064  0.6435
  339MOL0     H45752   6.767   6.620   6.644 -0.4749 -0.3906  0.3580
  339MOL0     H45753   6.386   6.734   6.774 -0.1613  1.2807  1.2583
  339MOL0     H45754   6.141   6.657   6.761 -0.5931 -0.2775  1.5825
  339MOL0     H45755   5.924   6.600   6.801 -0.8939 -0.8157  3.1657
  339MOL0     H45756   5.998   6.516   6.670  1.0210 -1.4784  0.3419
  339MOL0     H45757   5.754   6.410   6.834  0.4787 -2.2734  0.5004
  339MOL0     H45758   5.855   6.304   6.745  0.4061  0.3782 -0.6836
  339MOL0     H45759   5.679   6.350   6.613  3.9111 -4.6343  3.1076
  339MOL0     H45760   5.823   6.422   6.544  0.0047 -1.0582  0.1964
  339MOL0     H45761   5.665   6.611   6.523 -3.7794  0.9031  1.5563
  339MOL0     H45762   5.759   6.639   6.668  0.5512 -1.1743 -0.7184
  339MOL0     H45763   5.387   6.612   6.849 -1.0366 -0.9930 -1.2432
  339MOL0     H45764   6.237   6.325   7.010  0.8228  0.2241 -0.3227
  339MOL0     H45765   6.456   6.396   7.030  1.0209  1.5693 -0.7605
  340MOL0     O45766   3.660   1.650   4.408 -0.0760 -0.3092 -0.6407
  340MOL0     C45767   3.656   1.573   4.506  0.7710 -1.2114  0.3425
  340MOL0     O45768   3.543   1.538   4.570  0.8558  0.9695 -0.5487
  340MOL0     C45769   3.430   1.605   4.545  0.5839 -0.1193  0.4056
  340MOL0     C45770   3.313   1.529   4.500 -0.4357  0.5370 -0.1093
  340MOL0     C45771   3.184   1.584   4.482 -0.2129  0.4058 -0.0217
  340MOL0     C45772   3.170   1.718   4.501  1.1157  0.7918 -0.9120
  340MOL0     O45773   3.049   1.780   4.453  0.9245 -0.2190 -0.5095
  340MOL0     C45774   2.929   1.705   4.462 -0.0721 -0.0895  0.4600
  340MOL0     C45775   2.824   1.798   4.404  0.8746  0.5889  0.4790
  340MOL0     C45776   2.675   1.751   4.416 -0.1039  0.6803  0.4963
  340MOL0     C45777   2.583   1.866   4.457 -0.8119  0.1342 -0.0745
  340MOL0     C45778   2.440   1.825   4.467 -0.0879  0.3563 -0.4644
  340MOL0     C45779   2.385   1.743   4.348 -0.2831  0.2281  0.3483
  340MOL0     C45780   2.232   1.729   4.345 -0.0085 -0.3137 -0.0379
  340MOL0     C45781   2.162   1.858   4.311 -0.1881  0.0202 -0.3016
  340MOL0     N45782   2.018   1.847   4.301  0.2719  0.0628 -0.7061
  340MOL0     C45783   1.937   1.869   4.195  0.5718 -0.5167 -0.1529
  340MOL0     C45784   1.824   1.802   4.208 -0.0981  0.0450  0.2319
  340MOL0     C45785   1.699   1.813   4.119  0.2676 -0.3226  0.1712
  340MOL0     C45786   1.715   1.768   3.972 -0.3003  0.6587 -0.9384
  340MOL0     C45787   1.768   1.622   3.961  0.5308  0.2557 -0.1295
  340MOL0     C45788   1.663   1.529   4.029 -0.6401 -1.0095 -0.2264
  340MOL0     O45789   1.543   1.526   3.965  0.1012 -0.8740 -0.2279
  340MOL0     C45790   1.434   1.443   3.995  0.0557 -0.0922 -1.2589
  340MOL0     C45791   1.330   1.426   3.907  0.2350  0.1100 -0.5561
  340MOL0     C45792   1.220   1.344   3.932  0.1516  0.0226  0.7483
  340MOL0     C45793   1.113   1.339   3.822 -0.3307 -0.0512  0.3651
  340MOL0     C45794   1.209   1.262   4.045 -0.1315  0.8393 -0.2414
  340MOL0     C45795   1.089   1.176   4.093 -0.3473 -0.9534 -0.2926
  340MOL0     O45796   0.973   1.194   4.021 -0.6288 -0.0704 -0.7672
  340MOL0     C45797   0.864   1.111   4.046 -0.7436 -0.3981  0.0853
  340MOL0     C45798   0.840   1.020   4.148  0.7494 -0.0838  0.3888
  340MOL0     C45799   0.724   0.944   4.147 -0.0444 -0.5589  0.0447
  340MOL0     C45800   0.631   0.956   4.048  0.0817  0.2257 -0.0679
  340MOL0     O45801   0.508   0.890   4.034  0.7391  0.8333 -0.0275
  340MOL0     C45802   0.468   0.796   4.140  0.7844 -0.2346  0.4205
  340MOL0     C45803   0.328   0.739   4.104 -0.1265 -0.1007 -0.9385
  340MOL0     C45804   0.339   0.650   3.974  0.0112 -0.2836  0.5765
  340MOL0     C45805   0.207   0.568   3.956 -0.2875  0.7940  0.1195
  340MOL0     C45806   0.198   0.484   3.824  0.5171 -0.4198 -1.1877
  340MOL0     C45807   0.080   0.391   3.805 -0.5594  0.5704  0.1311
  340MOL0     C45808   0.090   0.326   3.669 -0.3344  0.5392 -0.1053
  340MOL0     C45809  -0.047   0.256   3.651 -0.1784 -0.5226 -0.7816
  340MOL0    Cl45810  -0.056   0.105   3.750 -0.1501  0.1094 -0.4946
  340MOL0     C45811   0.648   1.057   3.957  1.0456 -0.1476 -1.4620
  340MOL0     C45812   0.753   1.134   3.960 -0.2225  0.0335 -0.9258
  340MOL0     O45813   1.110   1.095   4.191 -0.2293 -0.1878 -0.1851
  340MOL0     C45814   1.321   1.270   4.130  0.3277  0.1089 -0.0343
  340MOL0     C45815   1.436   1.359   4.111 -0.4842  0.1498  0.0618
  340MOL0     N45816   1.829   1.730   4.321 -0.0802  0.3477  0.1969
  340MOL0     N45817   1.942   1.759   4.375  0.0634  0.1547 -0.0880
  340MOL0     C45818   3.276   1.799   4.540 -0.2061  0.7360 -0.2948
  340MOL0     C45819   3.403   1.740   4.573  0.2154 -0.5885 -0.2273
  340MOL0     C45820   3.780   1.504   4.556 -0.3807 -0.3199  0.1905
  340MOL0     C45821   3.777   1.398   4.646 -0.1515  0.0892 -0.4698
  340MOL0     C45822   3.902   1.348   4.694  0.6313  0.1074  0.0047
  340MOL0     C45823   4.024   1.400   4.661 -0.2878 -0.3235 -1.3465
  340MOL0     O45824   4.147   1.348   4.704 -0.1562  0.0090  0.0851
  340MOL0     C45825   4.150   1.249   4.804  0.3851 -0.3300 -0.0142
  340MOL0     C45826   4.290   1.258   4.866 -0.1553  0.5936 -0.5211
  340MOL0     C45827   4.320   1.398   4.929  0.2446  0.4664  0.3407
  340MOL0     C45828   4.223   1.444   5.031  0.0588  0.2096  0.0448
  340MOL0     C45829   4.276   1.580   5.073 -0.4107  0.2588 -0.3195
  340MOL0     C45830   4.319   1.690   5.109  0.8596 -0.4740  0.2524
  340MOL0     C45831   4.025   1.508   4.570  0.4353 -0.2331 -0.1705
  340MOL0     C45832   3.904   1.555   4.514 -0.6012 -0.7240 -1.2370
  340MOL0     H45833   3.328   1.423   4.480 -2.3390  0.7251 -3.1983
  340MOL0     H45834   3.097   1.519   4.474 -1.2235  1.7720 -0.5801
  340MOL0     H45835   2.934   1.615   4.401 -2.8421 -0.4255  0.5651
  340MOL0     H45836   2.906   1.670   4.563 -0.8967 -0.3919  0.1828
  340MOL0     H45837   2.823   1.896   4.453 -0.0501  1.3381 -0.9701
  340MOL0     H45838   2.857   1.810   4.301  0.5074 -0.9949  0.1570
  340MOL0     H45839   2.644   1.712   4.318 -1.3318  1.8860  0.3651
  340MOL0     H45840   2.669   1.670   4.488 -0.5777  1.0513  0.8824
  340MOL0     H45841   2.611   1.904   4.556  1.2409  1.7735 -1.1978
  340MOL0     H45842   2.588   1.948   4.385 -3.9103  2.0466  1.6422
  340MOL0     H45843   2.417   1.773   4.561 -2.3511 -1.1041 -1.7347
  340MOL0     H45844   2.387   1.921   4.471  0.2996  0.5286  1.6757
  340MOL0     H45845   2.404   1.800   4.257 -1.1716  1.0782  0.6867
  340MOL0     H45846   2.434   1.645   4.340 -1.4281 -0.6249  2.7981
  340MOL0     H45847   2.202   1.656   4.269  2.4476 -1.6915  0.2142
  340MOL0     H45848   2.199   1.695   4.444  1.0771  2.4737  1.3848
  340MOL0     H45849   2.215   1.898   4.225  1.1666  2.3679  1.5186
  340MOL0     H45850   2.182   1.937   4.383  2.6715 -0.2600 -0.7045
  340MOL0     H45851   1.949   1.944   4.118 -1.2788  1.9151  1.7643
  340MOL0     H45852   1.613   1.757   4.154 -2.1339  0.8269 -3.3269
  340MOL0     H45853   1.659   1.915   4.124 -3.2929 -1.6118  0.1988
  340MOL0     H45854   1.785   1.837   3.925 -2.4138  1.0107 -3.7931
  340MOL0     H45855   1.621   1.783   3.919 -1.6031  0.6274  1.2520
  340MOL0     H45856   1.862   1.614   4.016  0.5558 -1.0269 -0.3340
  340MOL0     H45857   1.799   1.599   3.859 -0.5169 -1.3782 -0.1281
  340MOL0     H45858   1.659   1.549   4.137  3.0764  1.7402 -0.4139
  340MOL0     H45859   1.707   1.430   4.016  0.0662 -0.7950  0.4390
  340MOL0     H45860   1.343   1.495   3.825 -0.4622  1.8733  0.7452
  340MOL0     H45861   1.103   1.234   3.794 -1.0975  0.3775 -1.0689
  340MOL0     H45862   1.022   1.380   3.867  0.5033  0.4141  1.6974
  340MOL0     H45863   1.133   1.412   3.743  1.8497 -1.2489 -0.2530
  340MOL0     H45864   0.918   0.993   4.219 -0.2358 -2.2049  0.7330
  340MOL0     H45865   0.716   0.877   4.232 -3.4794  0.8332  1.0070
  340MOL0     H45866   0.545   0.718   4.142  2.9402  1.8084  1.3625
  340MOL0     H45867   0.464   0.853   4.233  0.8544  2.4417 -1.1172
  340MOL0     H45868   0.302   0.675   4.190 -4.5324  3.7471  1.0684
  340MOL0     H45869   0.260   0.825   4.104 -2.3709 -1.7523 -0.1531
  340MOL0     H45870   0.421   0.578   3.986 -0.2147 -0.4793  0.9602
  340MOL0     H45871   0.365   0.707   3.884  2.4238 -0.8463  0.8536
  340MOL0     H45872   0.193   0.493   4.034  2.1213 -2.7639 -2.4828
  340MOL0     H45873   0.125   0.640   3.950 -0.2733  0.7080 -2.4777
  340MOL0     H45874   0.275   0.407   3.816  1.0355  0.0869 -1.1697
  340MOL0     H45875   0.209   0.545   3.734 -0.5661  0.3843 -0.8068
  340MOL0     H45876   0.083   0.307   3.875  3.4361 -1.2641 -1.9549
  340MOL0     H45877  -0.014   0.447   3.809 -0.3065  1.0214 -0.1346
  340MOL0     H45878   0.176   0.259   3.663  1.5859  2.9598 -0.7376
  340MOL0     H45879   0.095   0.402   3.591  3.6476  1.4151  0.7994
  340MOL0     H45880  -0.058   0.242   3.543  1.9290  0.5321 -1.1895
  340MOL0     H45881  -0.131   0.319   3.681  1.4343  1.4431 -0.2166
  340MOL0     H45882   0.565   1.062   3.888 -0.9683 -3.5628  0.4001
  340MOL0     H45883   0.759   1.199   3.874 -0.3522  0.5592 -0.5387
  340MOL0     H45884   1.318   1.215   4.223  0.8769 -0.7427 -0.5064
  340MOL0     H45885   1.516   1.371   4.183 -2.2298  1.1557  1.9388
  340MOL0     H45886   3.259   1.903   4.565 -0.2540  0.3290  1.5074
  340MOL0     H45887   3.491   1.802   4.588  0.6053 -0.1234 -3.5834
  340MOL0     H45888   3.685   1.350   4.676 -0.3783  0.9628  0.2847
  340MOL0     H45889   3.897   1.259   4.756  0.3071  0.8834  1.1309
  340MOL0     H45890   4.074   1.263   4.881 -1.7677 -4.0272 -1.2136
  340MOL0     H45891   4.132   1.159   4.744  2.3400  1.8678 -4.3211
  340MOL0     H45892   4.365   1.241   4.788 -2.0554  0.5015 -2.4301
  340MOL0     H45893   4.303   1.185   4.946 -0.3432  2.3249  1.1847
  340MOL0     H45894   4.340   1.476   4.855  1.5742  0.9000  1.1089
  340MOL0     H45895   4.425   1.390   4.961  0.8178  0.6715 -1.4093
  340MOL0     H45896   4.224   1.380   5.120 -1.5140 -0.4592 -0.3954
  340MOL0     H45897   4.121   1.448   4.992  0.2010  1.5019 -0.2433
  340MOL0     H45898   4.346   1.785   5.152  0.5533 -0.6525  0.8388
  340MOL0     H45899   4.122   1.553   4.553  1.7684 -2.1849  1.8894
  340MOL0     H45900   3.919   1.635   4.442 -2.1791  0.3164 -0.4883
  341MOL0     O45901   6.681   4.744   4.030  0.4670  0.3576  0.3052
  341MOL0     C45902   6.797   4.777   4.051  0.0888 -0.1389  0.0477
  341MOL0     O45903   6.883   4.862   3.983 -0.2950  0.4755 -0.5633
  341MOL0     C45904   6.860   4.888   3.855 -0.4812  0.6176  0.1357
  341MOL0     C45905   6.742   4.872   3.776 -0.7205 -0.4905  0.4480
  341MOL0     C45906   6.744   4.919   3.642  0.4599 -0.1331 -0.5928
  341MOL0     C45907   6.852   4.978   3.580 -0.3653  0.4223 -0.2862
  341MOL0     O45908   6.844   5.014   3.452  0.0813 -0.8565  0.5295
  341MOL0     C45909   6.725   5.073   3.405 -0.0493  0.3383  0.5195
  341MOL0     C45910   6.680   5.201   3.475 -0.2840  0.2076  0.8491
  341MOL0     C45911   6.528   5.211   3.490 -1.0975 -0.0202  0.3050
  341MOL0     C45912   6.451   5.233   3.356  1.3527 -0.3279  0.1692
  341MOL0     C45913   6.302   5.252   3.384 -0.1590 -0.7675  0.7216
  341MOL0     C45914   6.264   5.362   3.476  1.2441 -1.1865  0.6082
  341MOL0     C45915   6.144   5.448   3.437  0.4813  0.1732  0.6584
  341MOL0     C45916   6.016   5.372   3.430 -0.2157  0.4588  0.4372
  341MOL0     N45917   5.903   5.459   3.424 -0.0284 -1.0382  0.2244
  341MOL0     C45918   5.846   5.488   3.305  0.0771 -0.2268  0.8541
  341MOL0     C45919   5.760   5.590   3.334  0.4944  0.8098 -0.1438
  341MOL0     C45920   5.685   5.668   3.224  0.1708  0.0052 -0.7541
  341MOL0     C45921   5.546   5.596   3.192  0.0409  0.6301 -0.8225
  341MOL0     C45922   5.492   5.664   3.069 -0.6783  0.1433  0.5403
  341MOL0     C45923   5.349   5.621   3.023 -0.1729  0.3002 -0.6756
  341MOL0     O45924   5.245   5.659   3.126 -0.0427  0.3142 -0.1556
  341MOL0     C45925   5.117   5.637   3.086  0.4602  0.0289 -0.8534
  341MOL0     C45926   5.070   5.588   2.967 -0.7512  0.4639  0.4559
  341MOL0     C45927   4.927   5.573   2.935  0.2024  0.1308  0.0604
  341MOL0     C45928   4.884   5.512   2.801 -0.2423  0.0913 -0.0782
  341MOL0     C45929   4.834   5.625   3.029  0.5618 -0.4218  0.0430
  341MOL0     C45930   4.684   5.612   3.016  0.1917  0.0312 -0.5162
  341MOL0     O45931   4.618   5.654   3.132 -0.7336 -0.2568  0.1644
  341MOL0     C45932   4.490   5.611   3.154 -0.3563  0.1273 -0.8017
  341MOL0     C45933   4.462   5.472   3.191  0.0018 -0.2796  0.3020
  341MOL0     C45934   4.337   5.424   3.233 -0.8712  0.0403  0.2396
  341MOL0     C45935   4.230   5.517   3.243  0.0151 -0.1238  0.1711
  341MOL0     O45936   4.097   5.484   3.260 -0.3794 -0.0212 -0.1875
  341MOL0     C45937   4.060   5.346   3.254  0.0872 -0.1894  0.0072
  341MOL0     C45938   3.904   5.343   3.261  0.5212 -0.4218  0.0399
  341MOL0     C45939   3.835   5.409   3.136 -0.2242  1.1900 -0.5107
  341MOL0     C45940   3.691   5.369   3.136 -0.5563  0.2227 -1.0873
  341MOL0     C45941   3.600   5.447   3.033 -0.6524 -0.1900  0.9944
  341MOL0     C45942   3.614   5.398   2.888  0.3597 -0.3570  0.2688
  341MOL0     C45943   3.503   5.445   2.804 -0.0403 -0.4207 -0.3243
  341MOL0     C45944   3.537   5.587   2.743 -0.8201  0.8427 -1.4826
  341MOL0    Cl45945   3.408   5.648   2.628 -0.1973 -0.2147 -0.5194
  341MOL0     C45946   4.257   5.652   3.196 -0.1944  0.0344 -1.1271
  341MOL0     C45947   4.388   5.697   3.152  0.6069  0.3188 -0.5091
  341MOL0     O45948   4.628   5.568   2.915 -0.1017  0.0543 -0.9005
  341MOL0     C45949   4.883   5.694   3.144  0.2774  1.0408  0.3631
  341MOL0     C45950   5.015   5.681   3.178 -0.1593  0.6532 -0.2663
  341MOL0     N45951   5.750   5.602   3.469 -0.2170 -0.1457 -0.2245
  341MOL0     N45952   5.838   5.525   3.525  0.1780 -0.3245  0.6789
  341MOL0     C45953   6.967   4.990   3.654 -0.0097  0.2380  0.1063
  341MOL0     C45954   6.971   4.944   3.789  0.6497 -0.2041  0.0446
  341MOL0     C45955   6.866   4.726   4.174  0.4766  0.9866  0.1083
  341MOL0     C45956   7.005   4.723   4.171 -0.0004  0.5430  0.0458
  341MOL0     C45957   7.078   4.671   4.281  0.0354 -0.3921  0.6172
  341MOL0     C45958   6.998   4.623   4.388  0.0969  0.7730 -0.8485
  341MOL0     O45959   7.070   4.587   4.508 -0.1876 -0.1152  0.7193
  341MOL0     C45960   7.098   4.689   4.595  0.6041  0.1757  0.2564
  341MOL0     C45961   7.066   4.649   4.741 -0.2752 -0.0723 -0.2816
  341MOL0     C45962   7.156   4.728   4.836  0.6217 -0.3161 -0.6817
  341MOL0     C45963   7.307   4.708   4.826  0.2891  0.0318  0.9232
  341MOL0     C45964   7.338   4.570   4.854  0.7785  0.2313 -0.6543
  341MOL0     C45965   7.369   4.450   4.864 -0.3454  0.8931  0.5029
  341MOL0     C45966   6.863   4.612   4.390  1.4497 -1.3884  1.0916
  341MOL0     C45967   6.788   4.665   4.277  0.1184 -0.2850 -0.1908
  341MOL0     H45968   6.652   4.824   3.811 -1.5938  2.1911  2.1911
  341MOL0     H45969   6.651   4.912   3.588 -1.2166  1.8107  1.8018
  341MOL0     H45970   6.727   5.095   3.297 -0.3351  2.1191  0.8400
  341MOL0     H45971   6.638   5.007   3.409 -0.7816  1.1768 -0.8562
  341MOL0     H45972   6.735   5.206   3.570  2.6932  4.5287 -0.7708
  341MOL0     H45973   6.700   5.290   3.414 -0.9090 -0.7254 -0.7801
  341MOL0     H45974   6.481   5.120   3.528 -1.8474 -0.9347 -2.5995
  341MOL0     H45975   6.511   5.294   3.560 -0.1925  0.0094  0.4983
  341MOL0     H45976   6.497   5.318   3.305  2.2271 -0.0749  1.3343
  341MOL0     H45977   6.454   5.155   3.279 -0.0397  0.5573 -0.8419
  341MOL0     H45978   6.257   5.263   3.285  1.4904 -2.1325 -0.2406
  341MOL0     H45979   6.251   5.160   3.410 -1.2606  0.0289  1.4439
  341MOL0     H45980   6.245   5.314   3.573  0.3656 -1.1319  0.4707
  341MOL0     H45981   6.349   5.430   3.482  0.5953 -0.4517  2.1265
  341MOL0     H45982   6.145   5.518   3.521  0.6886  0.6792  0.2454
  341MOL0     H45983   6.182   5.491   3.344  0.4143  1.4956  1.2135
  341MOL0     H45984   6.002   5.318   3.525 -1.0234 -0.0877  0.0207
  341MOL0     H45985   6.010   5.305   3.344  0.3632  0.2216  0.5756
  341MOL0     H45986   5.858   5.446   3.205 -2.5748 -0.3111  0.5136
  341MOL0     H45987   5.667   5.770   3.261 -1.9463  0.0594 -1.7469
  341MOL0     H45988   5.737   5.682   3.129  1.7858 -0.3402  0.0459
  341MOL0     H45989   5.470   5.614   3.269  2.2059  0.4074  1.5327
  341MOL0     H45990   5.556   5.488   3.182 -2.0361  0.1497  1.3459
  341MOL0     H45991   5.569   5.654   2.992  0.0978  0.3002  1.2766
  341MOL0     H45992   5.491   5.770   3.097  1.6545 -0.0336  1.5275
  341MOL0     H45993   5.349   5.514   2.998  0.9927  0.4820 -1.5425
  341MOL0     H45994   5.330   5.672   2.928  0.7526 -0.8779 -1.5235
  341MOL0     H45995   5.147   5.554   2.899  1.6151  2.3171  2.0569
  341MOL0     H45996   4.818   5.576   2.741 -2.3399 -2.5557 -0.7975
  341MOL0     H45997   4.976   5.485   2.749 -0.0152 -2.0471  1.3253
  341MOL0     H45998   4.822   5.422   2.805  0.8717 -0.6399  1.8854
  341MOL0     H45999   4.548   5.407   3.179 -0.8410 -0.9676 -2.8057
  341MOL0     H46000   4.314   5.319   3.250  1.5375 -0.7870 -1.0325
  341MOL0     H46001   4.091   5.312   3.155 -3.8049  0.5743 -1.6831
  341MOL0     H46002   4.101   5.286   3.336  0.3261  0.5125  0.4039
  341MOL0     H46003   3.886   5.235   3.257  1.5307 -0.5638 -1.2271
  341MOL0     H46004   3.867   5.388   3.353  0.3426  0.0887 -0.2799
  341MOL0     H46005   3.881   5.362   3.049 -0.8076 -3.1185  1.2716
  341MOL0     H46006   3.839   5.518   3.140 -0.2749  1.1931 -0.5600
  341MOL0     H46007   3.666   5.262   3.132 -0.5043  0.2392 -2.1892
  341MOL0     H46008   3.642   5.398   3.230 -2.0105 -2.7519 -0.8016
  341MOL0     H46009   3.628   5.552   3.030 -1.0776 -0.0554  1.4747
  341MOL0     H46010   3.495   5.439   3.063 -1.2176  1.4468 -0.4136
  341MOL0     H46011   3.713   5.403   2.843  0.8636 -0.9781  1.2431
  341MOL0     H46012   3.605   5.289   2.896  1.1703 -0.3787  1.1793
  341MOL0     H46013   3.403   5.452   2.847 -0.2141 -0.6575 -0.6873
  341MOL0     H46014   3.493   5.379   2.718 -1.1152  0.4555 -0.9063
  341MOL0     H46015   3.633   5.584   2.692 -1.5075 -0.4822 -2.7936
  341MOL0     H46016   3.552   5.662   2.822  0.8117  2.0971 -2.9215
  341MOL0     H46017   4.182   5.730   3.190  0.9894  1.2957 -0.1406
  341MOL0     H46018   4.403   5.798   3.114  1.8559 -1.5277 -5.7642
  341MOL0     H46019   4.833   5.755   3.219 -2.5000  0.6011 -0.9965
  341MOL0     H46020   5.050   5.721   3.273 -1.1610 -0.2666  0.5097
  341MOL0     H46021   7.053   5.029   3.601 -0.4571  0.0106 -0.7950
  341MOL0     H46022   7.066   4.959   3.839  2.1590  1.8997 -3.1363
  341MOL0     H46023   7.065   4.781   4.101 -0.1766  2.2559  1.2624
  341MOL0     H46024   7.186   4.676   4.290 -0.0175 -0.4196  1.2754
  341MOL0     H46025   7.202   4.721   4.590  0.2810  1.3735  0.8802
  341MOL0     H46026   7.035   4.773   4.564 -0.6415 -1.6431 -2.6688
  341MOL0     H46027   7.084   4.542   4.753 -3.8283 -0.8073 -0.5605
  341MOL0     H46028   6.961   4.653   4.772 -0.0468 -4.0524  1.5829
  341MOL0     H46029   7.128   4.695   4.937  0.6261  1.2523 -0.1341
  341MOL0     H46030   7.127   4.834   4.837 -0.6812 -0.5688 -3.3036
  341MOL0     H46031   7.364   4.767   4.899  1.3345  1.4589 -0.9728
  341MOL0     H46032   7.333   4.737   4.724 -1.1214  0.9499  0.7834
  341MOL0     H46033   7.384   4.345   4.849 -0.6554  0.4310  3.0022
  341MOL0     H46034   6.818   4.566   4.478  2.1442 -0.1894  2.1108
  341MOL0     H46035   6.680   4.673   4.276  0.1225  0.9137  2.3729
  342MOL0     O46036  10.552   4.482   3.853  0.2747 -0.3815 -0.2082
  342MOL0     C46037  10.574   4.376   3.920 -0.2920 -0.5919 -0.4601
  342MOL0     O46038  10.500   4.262   3.912  0.2923  0.2423  0.5006
  342MOL0     C46039  10.412   4.238   3.811  0.0558  0.5464 -0.7138
  342MOL0     C46040  10.308   4.326   3.791 -0.0490  0.2686  0.1135
  342MOL0     C46041  10.227   4.305   3.675 -0.2226  0.0500 -0.3765
  342MOL0     C46042  10.243   4.189   3.594  0.4524  0.7873 -0.2854
  342MOL0     O46043  10.158   4.161   3.487 -0.1331  0.3986  0.4263
  342MOL0     C46044  10.022   4.137   3.515  0.3096  0.4362 -0.0351
  342MOL0     C46045   9.960   3.987   3.511 -0.6573 -1.1010  0.3883
  342MOL0     C46046  10.048   3.877   3.573  1.2931  0.7314 -0.1524
  342MOL0     C46047  10.022   3.862   3.725  1.2147  0.1107 -0.2625
  342MOL0     C46048  10.077   3.723   3.777  0.3611  0.4157 -0.4627
  342MOL0     C46049  10.025   3.686   3.915  0.3444  0.4752 -0.6174
  342MOL0     C46050  10.067   3.542   3.961 -0.5202 -0.4982  0.4393
  342MOL0     C46051  10.058   3.419   3.866 -1.2073 -0.0071 -0.3867
  342MOL0     N46052   9.932   3.345   3.881 -0.0480 -0.0057  0.1049
  342MOL0     C46053   9.810   3.377   3.826 -0.6294 -0.5872  0.3550
  342MOL0     C46054   9.741   3.270   3.854 -0.0064  0.5416  0.9001
  342MOL0     C46055   9.594   3.247   3.822  0.0574 -0.2480 -0.1969
  342MOL0     C46056   9.510   3.203   3.946  0.2754  0.5254 -0.3175
  342MOL0     C46057   9.362   3.212   3.927  0.0098  0.3713  0.3655
  342MOL0     C46058   9.279   3.179   4.054  0.3209  0.7165  0.3189
  342MOL0     O46059   9.327   3.265   4.156  0.6721 -0.6309 -0.8981
  342MOL0     C46060   9.248   3.263   4.266  0.4065 -0.6763  0.3374
  342MOL0     C46061   9.145   3.368   4.263 -0.1715  0.2628  0.1447
  342MOL0     C46062   9.055   3.379   4.373 -0.0122 -0.2576  0.0922
  342MOL0     C46063   8.948   3.491   4.367  0.7174 -0.4989  1.0820
  342MOL0     C46064   9.051   3.280   4.481 -0.2816  0.5391  0.4718
  342MOL0     C46065   8.950   3.283   4.590 -0.1424  0.7736  0.6790
  342MOL0     O46066   8.940   3.398   4.657  0.8612  0.0081  0.5183
  342MOL0     C46067   8.849   3.403   4.759 -0.8991  0.0913 -0.5206
  342MOL0     C46068   8.895   3.471   4.876  0.7156  0.5468  0.2207
  342MOL0     C46069   8.803   3.491   4.977  0.0715  0.3009  0.3973
  342MOL0     C46070   8.675   3.430   4.977 -0.4144  0.1839  0.0942
  342MOL0     O46071   8.584   3.449   5.068  0.3066  0.8893 -0.1421
  342MOL0     C46072   8.624   3.495   5.195 -0.7101 -0.2424 -0.3091
  342MOL0     C46073   8.500   3.501   5.286 -0.4141 -0.4983 -0.1164
  342MOL0     C46074   8.424   3.361   5.310 -0.4493 -0.2815  0.4187
  342MOL0     C46075   8.518   3.245   5.362 -0.0974  0.7334  0.0011
  342MOL0     C46076   8.435   3.120   5.355 -0.1037 -0.4749 -0.0412
  342MOL0     C46077   8.518   2.994   5.399  0.0731 -0.8374  0.1746
  342MOL0     C46078   8.454   2.857   5.377 -0.1439  0.4387 -0.7201
  342MOL0     C46079   8.528   2.747   5.444 -0.8149 -0.8383 -0.6885
  342MOL0    Cl46080   8.682   2.681   5.371 -0.1114  0.3779 -0.1367
  342MOL0     C46081   8.632   3.358   4.869  0.2231  0.2456 -0.2318
  342MOL0     C46082   8.717   3.350   4.760  0.0748  0.6934  0.1214
  342MOL0     O46083   8.891   3.179   4.615  0.4818 -0.9122  1.1227
  342MOL0     C46084   9.142   3.170   4.465 -0.3328 -0.0961 -0.7990
  342MOL0     C46085   9.248   3.165   4.365  0.7728 -0.5265 -0.1621
  342MOL0     N46086   9.816   3.170   3.908 -0.9108  0.3092 -0.6461
  342MOL0     N46087   9.932   3.214   3.919 -0.2890  0.0379  0.0880
  342MOL0     C46088  10.349   4.102   3.625 -0.8536 -0.8377 -0.4516
  342MOL0     C46089  10.431   4.124   3.736 -0.7927  0.1400  0.5623
  342MOL0     C46090  10.697   4.384   3.999  0.2623 -0.1333 -0.0990
  342MOL0     C46091  10.779   4.495   4.008 -0.6211 -0.4083 -0.0830
  342MOL0     C46092  10.902   4.501   4.077  0.3844  0.3139 -0.3338
  342MOL0     C46093  10.949   4.388   4.141 -0.4600  0.2281 -0.0588
  342MOL0     O46094  11.061   4.385   4.215  0.5265 -0.3747  0.5021
  342MOL0     C46095  11.148   4.498   4.232  0.0879  0.3585  0.0513
  342MOL0     C46096  11.288   4.459   4.282  0.4668 -0.5214 -0.0092
  342MOL0     C46097  11.365   4.407   4.167 -0.3742 -1.0589  0.9530
  342MOL0     C46098  11.517   4.415   4.191 -0.0298  0.1009  0.7579
  342MOL0     C46099  11.549   4.331   4.307  0.1481  0.3154 -0.9342
  342MOL0     C46100  11.588   4.263   4.404  0.2950 -0.0233  0.6792
  342MOL0     C46101  10.866   4.273   4.129 -0.7135 -0.0671  0.1520
  342MOL0     C46102  10.740   4.273   4.066 -0.9278 -0.2967 -0.4448
  342MOL0     H46103  10.295   4.413   3.855  1.0924  1.0610 -0.6721
  342MOL0     H46104  10.155   4.382   3.649  0.7478  0.6707 -1.3432
  342MOL0     H46105   9.991   4.179   3.611  2.3262  1.1700  0.3383
  342MOL0     H46106   9.968   4.191   3.436 -0.1360 -0.0412 -0.0583
  342MOL0     H46107   9.865   4.004   3.563  0.2377  0.6947  1.5245
  342MOL0     H46108   9.948   3.953   3.408  1.4121  0.6325 -0.4951
  342MOL0     H46109  10.016   3.782   3.529 -1.2169  0.7142  1.5386
  342MOL0     H46110  10.154   3.902   3.556  1.3634  0.8496  0.4447
  342MOL0     H46111  10.070   3.942   3.783 -0.6403  0.2643  1.1099
  342MOL0     H46112   9.914   3.865   3.738  0.6426 -3.6080 -2.5248
  342MOL0     H46113  10.035   3.651   3.707 -1.1118 -0.1154  0.9030
  342MOL0     H46114  10.186   3.733   3.787  0.0578  2.1605  2.5339
  342MOL0     H46115  10.054   3.753   3.997 -1.9978  0.9083 -0.0678
  342MOL0     H46116   9.916   3.681   3.921  0.2610  2.4479  3.8248
  342MOL0     H46117  10.175   3.553   3.969 -0.2677 -1.3593 -1.3454
  342MOL0     H46118  10.017   3.525   4.057 -3.4283  0.8541 -0.6848
  342MOL0     H46119  10.134   3.353   3.911 -0.5770  1.6395  1.1007
  342MOL0     H46120  10.090   3.433   3.762 -0.4509 -2.9133 -0.6458
  342MOL0     H46121   9.771   3.463   3.772 -1.3436 -0.0083  1.7294
  342MOL0     H46122   9.558   3.333   3.764  0.8081 -0.2671 -0.7172
  342MOL0     H46123   9.576   3.167   3.750 -3.1782 -1.8266  2.1562
  342MOL0     H46124   9.533   3.267   4.032  1.6481 -1.0156  0.5181
  342MOL0     H46125   9.531   3.103   3.984 -1.0017 -0.0148 -0.9928
  342MOL0     H46126   9.323   3.139   3.855  0.2880  0.8001 -0.2277
  342MOL0     H46127   9.332   3.313   3.898  2.5161  0.7022 -1.3586
  342MOL0     H46128   9.288   3.072   4.078  0.3782  0.3157 -1.3283
  342MOL0     H46129   9.176   3.195   4.023  0.3393 -1.9873 -1.4872
  342MOL0     H46130   9.145   3.440   4.182  2.0068 -1.3760 -1.4197
  342MOL0     H46131   8.939   3.532   4.267  2.7256  0.9724  1.4441
  342MOL0     H46132   8.853   3.453   4.407  1.4146 -1.4983  1.8542
  342MOL0     H46133   8.981   3.574   4.430  1.8078 -1.5414  1.9540
  342MOL0     H46134   8.999   3.502   4.882  0.7900  0.2627  0.4037
  342MOL0     H46135   8.851   3.537   5.063  0.4775 -1.0948  0.9599
  342MOL0     H46136   8.701   3.433   5.241 -0.1718  1.5341  1.3441
  342MOL0     H46137   8.655   3.600   5.192  1.0888 -0.7431 -0.0686
  342MOL0     H46138   8.534   3.549   5.378  0.6984  0.3482 -0.9203
  342MOL0     H46139   8.438   3.576   5.235  0.9296  1.1429  0.5391
  342MOL0     H46140   8.370   3.324   5.223  0.8722 -1.0741 -0.1056
  342MOL0     H46141   8.346   3.372   5.386 -1.6526 -1.7570 -0.5394
  342MOL0     H46142   8.602   3.220   5.296  1.3101 -1.6472  2.4774
  342MOL0     H46143   8.560   3.254   5.463 -1.5644 -2.8162  1.0619
  342MOL0     H46144   8.406   3.111   5.250  0.0361 -2.0498  0.0253
  342MOL0     H46145   8.355   3.125   5.430  2.0669 -0.2383  2.3861
  342MOL0     H46146   8.612   2.997   5.343 -0.9773  1.5815 -1.6573
  342MOL0     H46147   8.526   3.014   5.506 -1.5090  1.7887 -0.1035
  342MOL0     H46148   8.464   2.826   5.273  0.9772 -0.4928 -0.3539
  342MOL0     H46149   8.352   2.853   5.417  0.4628 -1.4218  0.7688
  342MOL0     H46150   8.468   2.656   5.450 -0.4169 -1.4582 -4.1500
  342MOL0     H46151   8.564   2.784   5.541 -1.6916 -2.6878  0.3991
  342MOL0     H46152   8.531   3.318   4.869 -0.7493  2.4359  1.9098
  342MOL0     H46153   8.672   3.286   4.685 -0.1974 -0.4286  1.2201
  342MOL0     H46154   9.137   3.088   4.537  0.6293  1.5038  1.2134
  342MOL0     H46155   9.307   3.075   4.352  0.1142 -0.7545 -1.8818
  342MOL0     H46156  10.358   4.015   3.561 -0.8934  1.3853 -3.6716
  342MOL0     H46157  10.509   4.052   3.758 -0.1871 -0.8762 -3.9146
  342MOL0     H46158  10.750   4.593   3.971  2.1488  0.7457  0.6139
  342MOL0     H46159  10.948   4.599   4.079 -0.4836  0.7260  0.8030
  342MOL0     H46160  11.153   4.559   4.141 -2.1388 -1.0129 -1.0719
  342MOL0     H46161  11.094   4.566   4.299 -0.1273  0.9842 -0.7357
  342MOL0     H46162  11.271   4.378   4.354 -1.9794  0.3280  0.4726
  342MOL0     H46163  11.332   4.545   4.334 -0.5935 -0.7502  1.3118
  342MOL0     H46164  11.342   4.476   4.085 -3.5905 -1.5453  1.3048
  342MOL0     H46165  11.320   4.313   4.135 -3.5753  0.8378 -0.7022
  342MOL0     H46166  11.556   4.516   4.205 -0.7486  0.1664  2.5958
  342MOL0     H46167  11.580   4.366   4.116 -0.0010  1.9290 -0.4724
  342MOL0     H46168  11.595   4.201   4.490  1.8072 -1.4030 -0.3745
  342MOL0     H46169  10.894   4.176   4.170 -0.7333 -1.0666 -2.0196
  342MOL0     H46170  10.677   4.186   4.075 -0.5274 -0.3681  4.9566
  343MOL0     O46171   3.217   5.259   1.499  0.5747 -0.0869  0.5249
  343MOL0     C46172   3.246   5.348   1.422 -0.4442  0.0865 -0.5432
  343MOL0     O46173   3.163   5.444   1.388 -0.2794 -0.3169  0.4630
  343MOL0     C46174   3.061   5.482   1.469 -0.1882 -0.8187 -0.2629
  343MOL0     C46175   3.080   5.493   1.611  0.4334  0.5405  0.1987
  343MOL0     C46176   2.980   5.532   1.700  0.3570  0.6365  0.1515
  343MOL0     C46177   2.854   5.570   1.647 -0.8910 -0.1051 -0.0846
  343MOL0     O46178   2.764   5.630   1.731  0.2178  0.0605 -0.7860
  343MOL0     C46179   2.691   5.542   1.819  0.1475  0.3326  0.0448
  343MOL0     C46180   2.613   5.612   1.925 -0.3338  0.7495 -0.5170
  343MOL0     C46181   2.537   5.522   2.002  0.7880 -0.2224 -0.7350
  343MOL0     C46182   2.624   5.453   2.116  0.1323  0.1742  0.2011
  343MOL0     C46183   2.534   5.346   2.185 -0.1522  0.0904  0.3766
  343MOL0     C46184   2.407   5.391   2.260 -0.3540  0.1450 -0.3192
  343MOL0     C46185   2.326   5.268   2.314 -0.6945  0.0106 -0.7345
  343MOL0     C46186   2.301   5.164   2.214 -0.2808 -0.1969  0.1666
  343MOL0     N46187   2.177   5.089   2.255 -0.6825 -0.0842  1.1197
  343MOL0     C46188   2.166   5.021   2.374  0.1965 -0.1358  0.4765
  343MOL0     C46189   2.031   4.993   2.386 -1.1706 -1.0879  0.7218
  343MOL0     C46190   1.976   4.915   2.494  0.0078 -0.4580  0.5776
  343MOL0     C46191   1.871   4.816   2.451 -0.1356 -0.4688  0.1814
  343MOL0     C46192   1.737   4.892   2.442  0.1815  0.5722 -0.3084
  343MOL0     C46193   1.637   4.810   2.364 -0.7720 -0.2669  0.7255
  343MOL0     O46194   1.506   4.872   2.367 -0.1507 -0.3955 -0.0083
  343MOL0     C46195   1.408   4.782   2.354  0.0594  0.2176  0.6417
  343MOL0     C46196   1.354   4.735   2.234  0.2543 -0.1095  0.5003
  343MOL0     C46197   1.238   4.653   2.239 -0.7644 -0.4859 -0.1063
  343MOL0     C46198   1.190   4.602   2.098  0.4633  0.2992 -0.7470
  343MOL0     C46199   1.179   4.626   2.364  0.2821 -0.0783 -0.3664
  343MOL0     C46200   1.073   4.525   2.373 -0.3045  1.0054  0.8937
  343MOL0     O46201   1.087   4.401   2.312 -0.5968  0.2767 -0.4766
  343MOL0     C46202   0.968   4.342   2.282  0.5638 -0.4064  0.0297
  343MOL0     C46203   0.871   4.406   2.206  0.5140  0.0769 -0.3179
  343MOL0     C46204   0.773   4.329   2.142 -0.3708  1.1016  0.2649
  343MOL0     C46205   0.765   4.192   2.149  0.6485 -1.1036  0.0863
  343MOL0     O46206   0.680   4.124   2.062 -0.4046 -0.0354 -0.7447
  343MOL0     C46207   0.661   3.983   2.077  0.5226 -0.7285 -0.1515
  343MOL0     C46208   0.572   3.926   1.961 -0.3981 -0.4648  0.1118
  343MOL0     C46209   0.435   3.989   1.941  1.2085  0.5755 -0.5221
  343MOL0     C46210   0.379   3.926   1.805  0.1310 -0.1972  0.0507
  343MOL0     C46211   0.242   3.980   1.764 -0.5621  0.3368 -0.9199
  343MOL0     C46212   0.131   3.915   1.852 -0.4140 -0.1354  0.7374
  343MOL0     C46213   0.000   3.976   1.841 -0.1066 -0.5011 -0.0787
  343MOL0     C46214  -0.082   3.922   1.721 -0.7245 -0.3071  0.3658
  343MOL0    Cl46215  -0.219   4.034   1.666  0.3692  0.3311  0.0282
  343MOL0     C46216   0.856   4.127   2.230 -0.1247  0.3812 -0.1809
  343MOL0     C46217   0.960   4.205   2.291 -0.3842 -0.7840  0.1678
  343MOL0     O46218   0.970   4.569   2.420 -0.4290 -0.6176 -0.1140
  343MOL0     C46219   1.243   4.672   2.482 -0.2041  0.6107  0.3823
  343MOL0     C46220   1.351   4.752   2.469 -0.2444  0.5069  0.1462
  343MOL0     N46221   1.970   5.054   2.283 -0.1330 -1.0018  1.1499
  343MOL0     N46222   2.056   5.121   2.209  1.0448 -0.3198  0.0176
  343MOL0     C46223   2.844   5.582   1.507  0.6359  0.0955 -0.3081
  343MOL0     C46224   2.941   5.525   1.420 -0.4043  0.5126  0.6970
  343MOL0     C46225   3.372   5.355   1.355 -0.5605 -0.1007  0.2537
  343MOL0     C46226   3.485   5.264   1.374  0.0949  0.3695  0.7672
  343MOL0     C46227   3.609   5.270   1.301  0.7953  0.0939  0.0165
  343MOL0     C46228   3.633   5.370   1.212  0.5707  0.1855  0.1172
  343MOL0     O46229   3.761   5.372   1.146 -0.2713  0.9872  0.2975
  343MOL0     C46230   3.800   5.485   1.067  0.2641 -0.1093 -0.0156
  343MOL0     C46231   3.951   5.485   1.026  0.1025 -0.5014 -0.3760
  343MOL0     C46232   4.042   5.472   1.148 -0.2323  0.0717 -0.4096
  343MOL0     C46233   4.188   5.489   1.103 -0.9456 -0.0050 -0.6497
  343MOL0     C46234   4.282   5.536   1.207 -1.3239  0.4897 -0.0806
  343MOL0     C46235   4.368   5.571   1.286 -0.2081  0.2409  0.1635
  343MOL0     C46236   3.538   5.474   1.195  0.6542  0.9352 -0.3130
  343MOL0     C46237   3.410   5.462   1.258  0.4139 -0.1326 -0.1815
  343MOL0     H46238   3.169   5.465   1.667 -0.9425 -0.8069  1.8383
  343MOL0     H46239   3.012   5.531   1.804  0.0983  0.0260  0.2266
  343MOL0     H46240   2.623   5.490   1.751  1.6813  0.9583 -2.0906
  343MOL0     H46241   2.763   5.472   1.860 -1.2059  0.3341  2.6113
  343MOL0     H46242   2.686   5.668   1.984 -0.2460  1.1345 -0.9944
  343MOL0     H46243   2.540   5.684   1.889  0.3251  1.2425 -0.8771
  343MOL0     H46244   2.465   5.585   2.055  1.5121  0.9962 -1.1713
  343MOL0     H46245   2.475   5.452   1.945  0.9481 -0.6690 -0.3692
  343MOL0     H46246   2.709   5.401   2.071  0.3274  1.3697 -0.8716
  343MOL0     H46247   2.657   5.534   2.180  0.9959  1.3432 -1.6310
  343MOL0     H46248   2.513   5.276   2.104  1.4263  0.5654 -0.4854
  343MOL0     H46249   2.600   5.293   2.253  1.2160  0.4371 -0.6517
  343MOL0     H46250   2.437   5.452   2.346  1.0312  2.2005 -2.1569
  343MOL0     H46251   2.339   5.451   2.198 -2.3959 -1.2285  0.4875
  343MOL0     H46252   2.397   5.226   2.386 -1.0531 -0.1100 -0.4511
  343MOL0     H46253   2.233   5.296   2.363 -1.6069 -2.4008 -0.9175
  343MOL0     H46254   2.380   5.088   2.204 -1.7251 -1.8215  0.6316
  343MOL0     H46255   2.292   5.208   2.115  1.5555 -1.2776 -0.5344
  343MOL0     H46256   2.245   4.984   2.439 -0.1876 -1.6089  0.1460
  343MOL0     H46257   2.057   4.860   2.544 -0.8065 -1.9235  0.3541
  343MOL0     H46258   1.943   4.989   2.567 -1.3264 -1.5277  1.1113
  343MOL0     H46259   1.857   4.744   2.533  1.7127  1.6996  2.5553
  343MOL0     H46260   1.909   4.774   2.357  0.3303  1.6477 -0.6285
  343MOL0     H46261   1.748   4.986   2.387  0.9945 -0.3886 -1.8675
  343MOL0     H46262   1.690   4.911   2.539  2.1033 -1.3291  1.0977
  343MOL0     H46263   1.629   4.712   2.413 -3.4900 -1.1534 -1.2753
  343MOL0     H46264   1.655   4.777   2.261 -0.7346  1.1813  0.2361
  343MOL0     H46265   1.384   4.772   2.136  0.7514 -0.9964  0.3025
  343MOL0     H46266   1.089   4.560   2.096 -0.6182  2.5023  1.5186
  343MOL0     H46267   1.188   4.688   2.030  0.0239  1.5994  0.8397
  343MOL0     H46268   1.255   4.522   2.061 -1.8510 -1.8369 -0.4623
  343MOL0     H46269   0.866   4.507   2.168 -2.1969 -0.8335 -2.7814
  343MOL0     H46270   0.709   4.381   2.070  0.0261  2.1971  0.6732
  343MOL0     H46271   0.750   3.919   2.073  1.2454  0.2614 -3.6698
  343MOL0     H46272   0.598   3.971   2.165 -0.2262  1.0354 -0.4194
  343MOL0     H46273   0.635   3.937   1.872  0.2036 -0.4332  0.5311
  343MOL0     H46274   0.567   3.817   1.970 -0.6410 -0.4188  0.5564
  343MOL0     H46275   0.441   4.097   1.924  2.8364  0.5188 -0.4672
  343MOL0     H46276   0.368   3.962   2.023  1.1734  3.0936  0.3687
  343MOL0     H46277   0.461   3.947   1.735  0.9610  0.0876  1.0844
  343MOL0     H46278   0.377   3.817   1.811  1.6070 -0.2985 -0.7280
  343MOL0     H46279   0.230   3.941   1.663 -2.0904 -1.6344 -0.0653
  343MOL0     H46280   0.228   4.088   1.774 -1.3195  0.3168 -1.6302
  343MOL0     H46281   0.123   3.811   1.820 -4.3438  0.5184 -0.9476
  343MOL0     H46282   0.160   3.917   1.958  1.4659  6.7556  0.6131
  343MOL0     H46283   0.017   4.084   1.836  1.4597 -0.6591  0.8048
  343MOL0     H46284  -0.057   3.953   1.931 -1.9243 -0.0463 -1.0679
  343MOL0     H46285  -0.136   3.829   1.742  0.0973 -0.5155  1.6392
  343MOL0     H46286  -0.009   3.900   1.642  1.3244 -0.5033  2.2453
  343MOL0     H46287   0.868   4.019   2.229 -2.1888  0.0118  2.4205
  343MOL0     H46288   1.038   4.151   2.343  0.7783  2.7569  2.4914
  343MOL0     H46289   1.212   4.641   2.582  1.1039 -0.8015  0.3885
  343MOL0     H46290   1.396   4.785   2.563  1.3355 -0.3413 -0.2756
  343MOL0     H46291   2.752   5.623   1.466 -0.1279  0.0401  1.2915
  343MOL0     H46292   2.931   5.529   1.312  0.6497 -2.6994  0.3848
  343MOL0     H46293   3.466   5.180   1.440 -0.4071 -1.7627 -1.8786
  343MOL0     H46294   3.685   5.194   1.310 -0.5315 -1.7041 -2.5654
  343MOL0     H46295   3.733   5.508   0.984 -2.0911 -0.9610  1.5563
  343MOL0     H46296   3.789   5.576   1.126 -0.6918  0.0656 -0.4439
  343MOL0     H46297   3.984   5.574   0.972 -1.8421  0.5769  0.0971
  343MOL0     H46298   3.970   5.392   0.972  0.6125  0.3061 -1.6263
  343MOL0     H46299   4.029   5.369   1.183  1.6739 -0.5639 -1.3919
  343MOL0     H46300   4.015   5.550   1.219  2.7558  3.1897 -2.3742
  343MOL0     H46301   4.191   5.562   1.021 -2.5906  0.9076  0.0607
  343MOL0     H46302   4.228   5.395   1.063 -1.8728 -0.0144 -1.6179
  343MOL0     H46303   4.441   5.601   1.359  0.7861  0.2748 -0.8264
  343MOL0     H46304   3.561   5.553   1.125 -0.6703  0.6731 -1.0964
  343MOL0     H46305   3.332   5.530   1.226 -0.4323 -1.6511 -1.4899
  344MOL0     O46306   2.202  10.908   8.648  0.1555  0.7043  0.4714
  344MOL0     C46307   2.226  10.872   8.536  0.0175  0.1193 -0.1130
  344MOL0     O46308   2.129  10.832   8.441  0.1922 -0.5144 -0.2554
  344MOL0     C46309   1.998  10.853   8.485 -0.0133  0.2905  0.1170
  344MOL0     C46310   1.939  10.981   8.484  1.2491  0.7642 -0.1042
  344MOL0     C46311   1.807  11.003   8.518 -0.6184  1.0877  0.0665
  344MOL0     C46312   1.727  10.898   8.553 -0.0829  0.1110  0.0381
  344MOL0     O46313   1.598  10.929   8.561  0.3357 -0.0059  0.0925
  344MOL0     C46314   1.508  10.847   8.481 -1.0032 -0.8226 -0.2412
  344MOL0     C46315   1.361  10.900   8.481 -0.2682 -0.3549 -0.1035
  344MOL0     C46316   1.260  10.800   8.423  0.4013  0.8653 -0.0337
  344MOL0     C46317   1.114  10.815   8.475  0.5131 -0.0344 -0.2829
  344MOL0     C46318   1.052  10.949   8.433  0.5506  0.1429 -0.5216
  344MOL0     C46319   0.902  10.959   8.468 -0.0296  0.7382  0.2130
  344MOL0     C46320   0.844  11.091   8.429  0.3757  0.5178 -0.5262
  344MOL0     C46321   0.710  11.099   8.507  0.3120  1.4434  0.0676
  344MOL0     N46322   0.640  11.224   8.481  0.7095  0.4051  1.0384
  344MOL0     C46323   0.505  11.236   8.458 -0.0521 -0.3303 -0.0927
  344MOL0     C46324   0.479  11.366   8.488  0.1952 -0.2818 -0.4389
  344MOL0     C46325   0.331  11.413   8.499 -0.4182 -0.7229 -0.1908
  344MOL0     C46326   0.231  11.322   8.576  0.6164  0.1879  0.1113
  344MOL0     C46327   0.291  11.290   8.709  0.5736  0.7498 -0.2594
  344MOL0     C46328   0.181  11.235   8.802 -0.9468  0.4231  0.8256
  344MOL0     O46329   0.092  11.346   8.821 -0.7777 -0.2192  0.5506
  344MOL0     C46330  -0.039  11.326   8.849 -0.3467 -0.1997 -0.2753
  344MOL0     C46331  -0.087  11.219   8.920  0.1720  0.6495 -0.1591
  344MOL0     C46332  -0.222  11.213   8.951  0.3803  0.3585  0.4749
  344MOL0     C46333  -0.259  11.082   9.022  0.3366 -1.3588  1.0797
  344MOL0     C46334  -0.310  11.320   8.913  0.0304  0.0149  0.3532
  344MOL0     C46335  -0.451  11.317   8.957  0.3069  0.9992 -0.6648
  344MOL0     O46336  -0.533  11.389   8.873  0.0833 -0.4148  0.2494
  344MOL0     C46337  -0.666  11.400   8.907  0.0635 -0.4417 -0.1395
  344MOL0     C46338  -0.699  11.500   8.998  0.3005 -0.1103  0.0672
  344MOL0     C46339  -0.835  11.525   9.028 -0.4940 -0.2762  0.1473
  344MOL0     C46340  -0.936  11.439   8.982  0.3684 -0.4737  0.4404
  344MOL0     O46341  -1.065  11.476   9.015 -0.0104  0.5990 -0.4026
  344MOL0     C46342  -1.181  11.437   8.938 -0.2256  0.3731 -0.4214
  344MOL0     C46343  -1.228  11.300   8.984  0.2471 -0.9577 -0.0194
  344MOL0     C46344  -1.377  11.277   8.947  1.3198  0.0517  0.3501
  344MOL0     C46345  -1.412  11.129   8.934 -1.0322  0.5938  0.0593
  344MOL0     C46346  -1.549  11.110   8.895  0.2102 -0.0706  0.0500
  344MOL0     C46347  -1.648  11.100   9.016  0.1012  1.0002  0.0187
  344MOL0     C46348  -1.785  11.052   8.972  0.7959 -0.4932 -0.3201
  344MOL0     C46349  -1.866  11.023   9.096  0.2129 -0.0717  0.0721
  344MOL0    Cl46350  -2.028  10.996   9.049  0.4597  0.1066  0.3420
  344MOL0     C46351  -0.896  11.336   8.897  1.1564  0.6235  1.2003
  344MOL0     C46352  -0.764  11.312   8.857 -0.7042 -0.6055 -0.6808
  344MOL0     O46353  -0.483  11.259   9.058  0.8389 -0.3738  0.4227
  344MOL0     C46354  -0.258  11.429   8.840 -0.2800  0.2784  0.6880
  344MOL0     C46355  -0.124  11.436   8.809  0.8197  0.0691  0.0385
  344MOL0     N46356   0.597  11.441   8.500  0.1630 -0.0889 -0.0682
  344MOL0     N46357   0.689  11.348   8.499 -0.8674  0.2250 -1.2051
  344MOL0     C46358   1.785  10.764   8.565 -0.1754 -0.8566 -0.0462
  344MOL0     C46359   1.914  10.746   8.520  0.3286 -0.5509  0.0923
  344MOL0     C46360   2.365  10.879   8.509 -0.4569  0.0345  0.1435
  344MOL0     C46361   2.408  10.880   8.375 -0.4262  0.4203  0.7805
  344MOL0     C46362   2.544  10.899   8.345  0.0396  1.2671  0.1257
  344MOL0     C46363   2.639  10.916   8.436 -0.4415  0.4718 -0.5641
  344MOL0     O46364   2.770  10.923   8.413 -0.7193 -0.2597 -0.3659
  344MOL0     C46365   2.815  10.980   8.286  0.3035 -0.4669 -0.1072
  344MOL0     C46366   2.953  11.046   8.304  0.3949 -0.2456 -0.9595
  344MOL0     C46367   2.947  11.169   8.395  0.0324  0.2206  0.6416
  344MOL0     C46368   3.076  11.254   8.393  0.1273  0.5564  0.3145
  344MOL0     C46369   3.096  11.328   8.261  0.2580  0.7194 -0.0280
  344MOL0     C46370   3.106  11.350   8.139 -0.2123  0.4520 -0.6437
  344MOL0     C46371   2.608  10.909   8.572 -0.1606 -0.1854 -0.0456
  344MOL0     C46372   2.470  10.886   8.608 -0.7539  0.2997  0.6881
  344MOL0     H46373   2.002  11.066   8.460  2.1060 -0.0748 -0.8638
  344MOL0     H46374   1.760  11.101   8.514 -1.3698  0.7134 -0.6654
  344MOL0     H46375   1.534  10.838   8.375 -1.6653  0.7938 -0.5708
  344MOL0     H46376   1.502  10.745   8.519  0.9260 -1.0337 -0.3914
  344MOL0     H46377   1.338  10.921   8.585 -0.0598  2.1110 -0.4962
  344MOL0     H46378   1.351  10.986   8.413  0.0266 -2.4131 -2.9709
  344MOL0     H46379   1.276  10.814   8.315  2.0679  1.3065  0.2349
  344MOL0     H46380   1.287  10.697   8.446 -0.7534  0.6584  0.4658
  344MOL0     H46381   1.055  10.732   8.434 -0.4594 -0.2970  1.5275
  344MOL0     H46382   1.107  10.796   8.582 -2.1048 -0.5042 -0.4759
  344MOL0     H46383   1.104  11.027   8.488  1.1048  0.7370 -1.8444
  344MOL0     H46384   1.070  10.968   8.326  0.3603  1.9025 -0.2707
  344MOL0     H46385   0.855  10.882   8.407  0.8141  1.7546 -1.8320
  344MOL0     H46386   0.886  10.940   8.575  1.7213 -0.5258  0.2993
  344MOL0     H46387   0.909  11.174   8.456  0.5404  0.7835 -1.6877
  344MOL0     H46388   0.823  11.097   8.322  0.6960 -1.7928 -0.7618
  344MOL0     H46389   0.711  11.081   8.614 -2.9177 -0.5649 -0.1219
  344MOL0     H46390   0.655  11.023   8.450  3.6885 -1.8372  0.7736
  344MOL0     H46391   0.427  11.165   8.433  0.9427 -1.6204  0.3383
  344MOL0     H46392   0.335  11.515   8.540 -1.2409 -0.5428 -0.5523
  344MOL0     H46393   0.300  11.415   8.394  0.2183 -2.2552 -0.4361
  344MOL0     H46394   0.212  11.226   8.526 -4.9312  0.5432  0.8817
  344MOL0     H46395   0.137  11.376   8.562  0.1460 -1.1190 -2.3492
  344MOL0     H46396   0.332  11.380   8.756  1.5130  0.7721 -1.0783
  344MOL0     H46397   0.359  11.205   8.695 -1.0667 -0.4480 -1.4327
  344MOL0     H46398   0.234  11.216   8.896  1.3031 -0.0465 -0.4540
  344MOL0     H46399   0.148  11.140   8.760  0.2338  0.1863  0.3882
  344MOL0     H46400  -0.018  11.140   8.945 -0.5368  0.4675  1.3383
  344MOL0     H46401  -0.235  11.100   9.128  1.5967  1.6747  0.3908
  344MOL0     H46402  -0.363  11.049   9.014 -0.7557  1.7086  1.3696
  344MOL0     H46403  -0.187  11.007   8.987  3.5230  1.7354  0.4186
  344MOL0     H46404  -0.615  11.552   9.044 -1.8037  3.1108  0.6214
  344MOL0     H46405  -0.870  11.606   9.092  2.5025  1.1798  0.1022
  344MOL0     H46406  -1.258  11.514   8.952 -0.0424  0.9338 -2.1991
  344MOL0     H46407  -1.165  11.441   8.830  1.6681  0.8156 -0.1462
  344MOL0     H46408  -1.159  11.230   8.937  1.0390 -1.5504  1.9257
  344MOL0     H46409  -1.213  11.283   9.091  0.4682  2.6956  0.6607
  344MOL0     H46410  -1.392  11.334   8.855  2.7302 -0.8254 -0.4613
  344MOL0     H46411  -1.445  11.334   9.011 -0.1905  0.5160 -1.6062
  344MOL0     H46412  -1.354  11.093   8.850  0.6361 -0.0071  1.4160
  344MOL0     H46413  -1.374  11.082   9.026  0.6706  0.1069 -0.8596
  344MOL0     H46414  -1.567  11.014   8.845 -0.8370 -1.2265  2.5047
  344MOL0     H46415  -1.577  11.192   8.828  1.2927 -0.6841 -1.2179
  344MOL0     H46416  -1.607  11.023   9.082 -1.1029 -0.6457 -1.0912
  344MOL0     H46417  -1.666  11.195   9.068 -4.4696  0.2744  0.2236
  344MOL0     H46418  -1.785  10.964   8.907 -0.1373  0.7736 -2.1199
  344MOL0     H46419  -1.826  11.127   8.904 -4.5731 -3.2981 -0.7110
  344MOL0     H46420  -1.862  11.108   9.164 -1.2468 -1.0506  1.4320
  344MOL0     H46421  -1.816  10.950   9.159  4.5534  1.4237 -1.2645
  344MOL0     H46422  -0.965  11.263   8.855  2.7393 -0.6650  0.7176
  344MOL0     H46423  -0.738  11.228   8.795  2.0755 -0.1286 -0.2744
  344MOL0     H46424  -0.314  11.514   8.801 -2.0812 -1.4491 -0.6901
  344MOL0     H46425  -0.081  11.514   8.748  0.2095  1.7259  1.6204
  344MOL0     H46426   1.716  10.683   8.583 -0.1140 -1.2246 -1.3548
  344MOL0     H46427   1.947  10.644   8.498 -2.6890 -0.8987 -4.0165
  344MOL0     H46428   2.337  10.877   8.293 -0.7548  2.5892  0.9333
  344MOL0     H46429   2.574  10.889   8.241  0.1443  0.2021  0.2504
  344MOL0     H46430   2.818  10.914   8.198 -1.2730  1.8172 -1.9829
  344MOL0     H46431   2.755  11.067   8.259  2.8664  1.5018  0.2330
  344MOL0     H46432   2.993  11.078   8.208 -0.0418 -2.5512 -1.9881
  344MOL0     H46433   3.028  10.983   8.352  2.7548  2.1828 -1.2272
  344MOL0     H46434   2.937  11.129   8.496  0.1535 -1.7809 -0.0875
  344MOL0     H46435   2.865  11.238   8.375 -0.8894 -0.2325  2.6275
  344MOL0     H46436   3.163  11.191   8.410  0.1000  0.9140  1.9281
  344MOL0     H46437   3.068  11.339   8.461 -1.8426  2.1054 -1.6882
  344MOL0     H46438   3.096  11.381   8.037 -0.4933  1.8059 -0.2212
  344MOL0     H46439   2.672  10.932   8.657 -1.5640 -2.3671  1.6997
  344MOL0     H46440   2.441  10.889   8.713  1.6569 -1.2457  1.4848
  345MOL0     O46441   0.425   6.419   1.924 -0.6558 -0.9485 -0.4137
  345MOL0     C46442   0.473   6.516   1.872  0.2640 -0.4036  0.8081
  345MOL0     O46443   0.436   6.572   1.753 -0.0896  0.5272 -0.4459
  345MOL0     C46444   0.333   6.518   1.675 -0.1648 -0.2653  0.2093
  345MOL0     C46445   0.210   6.488   1.727  0.1295 -0.9177 -0.3818
  345MOL0     C46446   0.112   6.423   1.653 -0.0303 -0.2547 -0.0048
  345MOL0     C46447   0.130   6.396   1.516 -1.2082 -0.4662 -0.5468
  345MOL0     O46448   0.020   6.338   1.459 -0.1963  0.6842  0.5216
  345MOL0     C46449   0.038   6.262   1.329 -0.0154 -0.3392  0.4444
  345MOL0     C46450  -0.075   6.273   1.232  0.2949  0.8195 -0.0011
  345MOL0     C46451  -0.041   6.249   1.091  0.3430  1.2049 -0.9110
  345MOL0     C46452  -0.161   6.251   0.987 -0.6689  0.2913 -0.0779
  345MOL0     C46453  -0.105   6.264   0.850  0.3835  0.9459  0.8287
  345MOL0     C46454  -0.210   6.304   0.752  0.4048 -0.0095  0.9881
  345MOL0     C46455  -0.337   6.220   0.741 -0.6990  0.0441 -0.3975
  345MOL0     C46456  -0.448   6.292   0.657  0.4071  0.2231  0.0222
  345MOL0     N46457  -0.576   6.222   0.658 -0.1643 -0.0795  0.0950
  345MOL0     C46458  -0.586   6.082   0.667  0.3427 -0.5228 -0.1822
  345MOL0     C46459  -0.722   6.061   0.661  0.0184 -0.2326 -0.3780
  345MOL0     C46460  -0.803   5.936   0.652 -0.9491 -0.4458 -0.3786
  345MOL0     C46461  -0.904   5.945   0.539  0.5297  0.2621  0.4400
  345MOL0     C46462  -1.028   5.843   0.555  0.2192  0.2346  0.3136
  345MOL0     C46463  -1.122   5.837   0.439 -0.7175 -0.3676  1.3629
  345MOL0     O46464  -1.228   5.740   0.474 -1.1091  0.5492  0.5698
  345MOL0     C46465  -1.293   5.677   0.372  1.0719 -0.2496  0.6284
  345MOL0     C46466  -1.388   5.579   0.419 -0.0766  0.0996  0.5242
  345MOL0     C46467  -1.469   5.507   0.333  0.6525 -0.6014  0.9750
  345MOL0     C46468  -1.581   5.430   0.396 -0.4562 -0.9215  0.5180
  345MOL0     C46469  -1.447   5.527   0.188 -0.2676 -0.0947 -0.1354
  345MOL0     C46470  -1.539   5.463   0.091 -0.6140 -0.4567  0.8088
  345MOL0     O46471  -1.559   5.539  -0.026 -0.2829  0.1893  0.0650
  345MOL0     C46472  -1.641   5.496  -0.128  0.9635 -0.0072  0.1634
  345MOL0     C46473  -1.693   5.366  -0.153  0.6505 -0.1389  0.5883
  345MOL0     C46474  -1.773   5.338  -0.261  0.0728 -0.6982  0.2946
  345MOL0     C46475  -1.823   5.443  -0.342 -0.0522  0.6943  0.4322
  345MOL0     O46476  -1.910   5.423  -0.444 -0.0456  0.1012 -0.9636
  345MOL0     C46477  -2.018   5.335  -0.410  0.0496 -0.0450  0.7447
  345MOL0     C46478  -2.121   5.345  -0.525  0.2304  0.1466 -0.1630
  345MOL0     C46479  -2.183   5.485  -0.530 -0.7065  0.0913  0.6423
  345MOL0     C46480  -2.299   5.491  -0.632  0.9643  0.2288  0.3856
  345MOL0     C46481  -2.314   5.639  -0.685  0.0710  0.0478  0.0700
  345MOL0     C46482  -2.281   5.665  -0.834  0.6415  0.7138 -0.0004
  345MOL0     C46483  -2.343   5.796  -0.876 -0.4318 -0.8774  0.2100
  345MOL0     C46484  -2.292   5.913  -0.792  0.0819  0.1002  0.3077
  345MOL0    Cl46485  -2.330   6.061  -0.879 -0.4395  0.8804 -0.1271
  345MOL0     C46486  -1.774   5.577  -0.316 -0.0482  0.1810 -1.0995
  345MOL0     C46487  -1.685   5.598  -0.212 -0.3710  0.2453  0.3091
  345MOL0     O46488  -1.593   5.355   0.117  0.0036  0.5636 -0.3499
  345MOL0     C46489  -1.342   5.613   0.135  0.1274 -0.6034  0.5784
  345MOL0     C46490  -1.278   5.691   0.235 -0.2440  0.3141  0.1382
  345MOL0     N46491  -0.784   6.186   0.630 -0.3017  0.2229  0.4399
  345MOL0     N46492  -0.700   6.278   0.638 -0.9561  0.0280  0.4727
  345MOL0     C46493   0.252   6.438   1.457  0.4383 -0.6981 -0.1363
  345MOL0     C46494   0.350   6.485   1.539 -0.1525  0.1712 -0.1762
  345MOL0     C46495   0.581   6.576   1.958 -0.5846 -0.9440  0.5038
  345MOL0     C46496   0.611   6.716   1.961 -0.4494  0.0583  0.2815
  345MOL0     C46497   0.705   6.779   2.046  0.1544 -0.0904  0.1246
  345MOL0     C46498   0.768   6.694   2.139 -0.2433 -0.7588 -0.1139
  345MOL0     O46499   0.859   6.742   2.234 -0.2963  0.5770 -0.5761
  345MOL0     C46500   0.864   6.872   2.296  0.2731 -0.6877  0.0455
  345MOL0     C46501   0.733   6.936   2.343 -0.8619  0.5459 -0.6636
  345MOL0     C46502   0.760   7.037   2.453  0.3675 -0.5271 -0.6701
  345MOL0     C46503   0.832   7.171   2.426  0.0009  1.2931 -0.2252
  345MOL0     C46504   0.738   7.242   2.338 -0.2913 -0.3593 -0.3541
  345MOL0     C46505   0.653   7.304   2.276  0.2943 -0.8043 -0.1157
  345MOL0     C46506   0.743   6.555   2.142  0.4457 -0.1396  0.2569
  345MOL0     C46507   0.646   6.499   2.056  0.2310 -0.5691 -0.2374
  345MOL0     H46508   0.212   6.509   1.834 -1.3299  2.8665 -0.9449
  345MOL0     H46509   0.013   6.399   1.690 -0.7825  2.9519  0.3699
  345MOL0     H46510   0.128   6.288   1.273 -1.2920  2.2975 -0.5579
  345MOL0     H46511   0.053   6.157   1.354 -0.1191 -0.1675  1.2805
  345MOL0     H46512  -0.142   6.193   1.263 -1.4435  0.8148 -3.2596
  345MOL0     H46513  -0.128   6.369   1.240  0.1843  0.7584 -0.0130
  345MOL0     H46514   0.019   6.339   1.075 -0.6054  2.4759  1.9656
  345MOL0     H46515   0.011   6.153   1.090 -2.6339 -0.5823  1.1455
  345MOL0     H46516  -0.236   6.172   0.997 -1.9821  1.2619 -1.5919
  345MOL0     H46517  -0.207   6.348   1.008  0.4283  0.6724  0.5799
  345MOL0     H46518  -0.020   6.332   0.860  0.7373  0.5572  0.4592
  345MOL0     H46519  -0.062   6.172   0.811 -0.8818 -0.0677  1.7236
  345MOL0     H46520  -0.248   6.405   0.772 -0.6623  0.0711 -1.1947
  345MOL0     H46521  -0.176   6.302   0.648 -0.8639 -3.7882  0.5123
  345MOL0     H46522  -0.309   6.120   0.708 -2.1178 -0.4221 -0.2293
  345MOL0     H46523  -0.374   6.197   0.841  0.9954 -1.9469 -0.1592
  345MOL0     H46524  -0.413   6.297   0.554 -2.5406 -1.8924 -1.2422
  345MOL0     H46525  -0.459   6.391   0.702 -0.0830  1.0435 -1.8127
  345MOL0     H46526  -0.515   6.001   0.670 -0.0969 -0.9042  2.5289
  345MOL0     H46527  -0.736   5.852   0.633 -1.2137 -0.3303 -1.9583
  345MOL0     H46528  -0.850   5.920   0.749  0.0898 -4.6160 -0.3592
  345MOL0     H46529  -0.867   5.921   0.439  2.2011 -1.7850  1.4679
  345MOL0     H46530  -0.943   6.045   0.522  1.4562  0.4546 -0.6906
  345MOL0     H46531  -1.101   5.882   0.627 -1.2895  1.9598 -2.0142
  345MOL0     H46532  -0.987   5.745   0.581  0.1272 -0.3575 -1.6460
  345MOL0     H46533  -1.063   5.805   0.353  1.0978 -2.8282  3.3549
  345MOL0     H46534  -1.170   5.933   0.416  1.2969  0.2271 -0.7455
  345MOL0     H46535  -1.395   5.577   0.527  0.0046  0.9839  0.5532
  345MOL0     H46536  -1.597   5.332   0.350 -0.1745 -1.2103  1.0297
  345MOL0     H46537  -1.556   5.399   0.498  0.7672 -1.9691 -0.0692
  345MOL0     H46538  -1.664   5.501   0.393  1.3569  1.2741  0.5604
  345MOL0     H46539  -1.658   5.280  -0.097 -0.9946 -0.1960  1.5949
  345MOL0     H46540  -1.798   5.234  -0.281 -1.5701 -0.0619 -1.2964
  345MOL0     H46541  -1.978   5.233  -0.405 -0.6806 -0.3916 -0.1822
  345MOL0     H46542  -2.071   5.353  -0.317 -2.4406 -1.0804 -0.3983
  345MOL0     H46543  -2.080   5.318  -0.622 -0.5663  2.2417 -1.1562
  345MOL0     H46544  -2.196   5.272  -0.492  2.0432  0.0139  4.4800
  345MOL0     H46545  -2.106   5.558  -0.556 -1.5835  1.2076  1.0950
  345MOL0     H46546  -2.224   5.518  -0.434  0.1628 -0.3006  1.1662
  345MOL0     H46547  -2.291   5.421  -0.716  2.1163  0.8254 -0.0127
  345MOL0     H46548  -2.392   5.462  -0.582  0.4847 -0.6143 -0.9389
  345MOL0     H46549  -2.244   5.707  -0.636 -0.5837 -0.7679  2.2404
  345MOL0     H46550  -2.413   5.675  -0.658 -0.0581  1.5263 -2.0977
  345MOL0     H46551  -2.174   5.652  -0.852  0.3405  1.0940 -2.3996
  345MOL0     H46552  -2.324   5.583  -0.892  2.9613 -0.7882  0.2542
  345MOL0     H46553  -2.450   5.775  -0.884 -0.5560  0.1185 -1.2842
  345MOL0     H46554  -2.309   5.815  -0.979 -0.2843  2.8388  0.8374
  345MOL0     H46555  -2.182   5.912  -0.787  0.0631 -1.5270  1.4458
  345MOL0     H46556  -2.332   5.910  -0.690  1.5974  1.3226  0.9765
  345MOL0     H46557  -1.810   5.665  -0.369 -2.7989 -0.4191 -0.3683
  345MOL0     H46558  -1.646   5.696  -0.184  2.1450 -0.6680  0.2312
  345MOL0     H46559  -1.328   5.639   0.031 -0.7606  0.1027  0.6256
  345MOL0     H46560  -1.211   5.767   0.197 -1.3379  0.8706 -0.7543
  345MOL0     H46561   0.268   6.437   1.349  2.5869  1.6548  0.0696
  345MOL0     H46562   0.442   6.500   1.484  1.1555  0.0911  1.8789
  345MOL0     H46563   0.565   6.772   1.880  1.7234 -1.0165 -1.8374
  345MOL0     H46564   0.720   6.886   2.036  1.3086 -0.2623 -0.1350
  345MOL0     H46565   0.922   6.859   2.387 -2.9873 -1.8524  2.1286
  345MOL0     H46566   0.917   6.946   2.235 -3.7007  1.8246 -0.7822
  345MOL0     H46567   0.670   6.853   2.376 -1.3334  1.7227  1.6269
  345MOL0     H46568   0.669   6.980   2.267 -1.5522  0.6191 -0.0474
  345MOL0     H46569   0.815   6.984   2.531 -0.0056  1.7902  1.3253
  345MOL0     H46570   0.667   7.061   2.505  0.1136 -0.6776 -1.0557
  345MOL0     H46571   0.926   7.147   2.374 -0.4434  0.0850 -0.5060
  345MOL0     H46572   0.849   7.222   2.521  1.1164 -1.6931  1.2756
  345MOL0     H46573   0.576   7.348   2.215  0.9881  0.7462  0.0759
  345MOL0     H46574   0.805   6.499   2.211  1.7485 -0.1655 -0.8985
  345MOL0     H46575   0.621   6.393   2.059 -0.7975 -0.4477 -2.4815
  346MOL0     O46576   8.781   6.349   6.387 -0.3748 -0.5484  0.4943
  346MOL0     C46577   8.876   6.272   6.386  0.0558  0.5217 -0.1141
  346MOL0     O46578   8.867   6.138   6.349  0.5041 -0.1588 -0.3548
  346MOL0     C46579   8.737   6.092   6.358 -0.5902  0.5984 -0.6068
  346MOL0     C46580   8.636   6.086   6.258 -0.5994 -0.4954  0.9956
  346MOL0     C46581   8.504   6.046   6.286 -0.3013  0.4196 -0.5888
  346MOL0     C46582   8.469   5.992   6.411 -0.2114 -0.1767  0.0002
  346MOL0     O46583   8.353   5.927   6.430  0.4525  0.5143 -0.4143
  346MOL0     C46584   8.343   5.820   6.529  0.6708  0.3526  0.1302
  346MOL0     C46585   8.203   5.747   6.504  0.6410  0.0821 -0.2428
  346MOL0     C46586   8.082   5.836   6.539  0.2872  0.3725 -0.3671
  346MOL0     C46587   7.955   5.744   6.531  0.4669 -0.7717  0.3723
  346MOL0     C46588   7.834   5.794   6.603  0.0194 -0.9092 -0.0027
  346MOL0     C46589   7.707   5.733   6.548 -0.0033 -0.2186  0.0373
  346MOL0     C46590   7.601   5.739   6.660 -0.3257 -0.3561 -0.1055
  346MOL0     C46591   7.464   5.706   6.613 -0.1952  0.6306 -0.1850
  346MOL0     N46592   7.406   5.790   6.505  0.1735  0.1638  0.1614
  346MOL0     C46593   7.415   5.923   6.481  0.0713  0.4828 -0.1698
  346MOL0     C46594   7.324   5.952   6.386  0.2313 -0.0044  0.4005
  346MOL0     C46595   7.271   6.084   6.342 -0.7600  0.5218 -0.2185
  346MOL0     C46596   7.139   6.076   6.270 -0.2409  0.2854 -1.1818
  346MOL0     C46597   7.023   6.028   6.358 -0.0020  0.1046  0.8437
  346MOL0     C46598   6.876   6.060   6.311  0.8805 -0.4009  0.2323
  346MOL0     O46599   6.790   6.022   6.420  0.2815  0.3692 -0.0563
  346MOL0     C46600   6.682   5.938   6.395 -0.0249 -0.2872 -0.1308
  346MOL0     C46601   6.636   5.858   6.501 -0.9284  0.7804 -0.0111
  346MOL0     C46602   6.519   5.774   6.482  0.4767 -0.2630  0.5512
  346MOL0     C46603   6.451   5.730   6.613 -0.1155 -0.6380  1.4166
  346MOL0     C46604   6.467   5.757   6.348 -0.2867 -0.3453 -0.9926
  346MOL0     C46605   6.342   5.688   6.314  0.0750 -0.6766 -0.1008
  346MOL0     O46606   6.279   5.733   6.206 -0.4917 -0.1604  0.1991
  346MOL0     C46607   6.147   5.710   6.174  0.0900 -0.2405 -0.5749
  346MOL0     C46608   6.108   5.786   6.064 -0.2315 -0.4513 -0.0905
  346MOL0     C46609   5.984   5.769   6.018 -0.5599  0.4371  1.0324
  346MOL0     C46610   5.892   5.684   6.069  0.6079  0.8384  0.1664
  346MOL0     O46611   5.765   5.676   6.014  0.1727 -0.0563  0.0944
  346MOL0     C46612   5.704   5.776   5.925 -0.8949 -0.5947  0.2691
  346MOL0     C46613   5.555   5.734   5.898 -0.3035  0.0648 -1.2056
  346MOL0     C46614   5.478   5.730   6.035  0.3568 -0.7457  0.2024
  346MOL0     C46615   5.331   5.706   6.024 -0.5710  0.3268 -0.3526
  346MOL0     C46616   5.261   5.705   6.170  0.2439  0.5107  0.3295
  346MOL0     C46617   5.110   5.731   6.150 -0.2351 -1.4076  0.3520
  346MOL0     C46618   5.077   5.878   6.173  0.5075 -0.4419 -0.1810
  346MOL0     C46619   4.931   5.919   6.139 -1.0021  0.2613  0.5368
  346MOL0    Cl46620   4.898   5.875   5.957 -0.0726 -0.3630  0.2888
  346MOL0     C46621   5.927   5.609   6.183  0.5847 -0.7648  0.4999
  346MOL0     C46622   6.054   5.617   6.232  1.1688 -0.7648 -0.5536
  346MOL0     O46623   6.306   5.599   6.388  0.2918  0.2949 -0.3272
  346MOL0     C46624   6.513   5.844   6.249  0.2020 -0.4942  0.5553
  346MOL0     C46625   6.611   5.938   6.276 -0.6169  0.9435 -0.9443
  346MOL0     N46626   7.273   5.835   6.339  0.0263  0.2899 -0.2862
  346MOL0     N46627   7.318   5.736   6.414  0.6449 -0.5539 -0.6234
  346MOL0     C46628   8.575   5.996   6.507 -0.2643  0.1569  0.5254
  346MOL0     C46629   8.708   6.046   6.489  0.6987  0.5538  0.5222
  346MOL0     C46630   9.009   6.311   6.445  0.8617 -0.3930  0.0414
  346MOL0     C46631   9.039   6.446   6.452  0.0611  0.8610  0.0883
  346MOL0     C46632   9.160   6.488   6.512 -0.2522 -0.2121 -0.5762
  346MOL0     C46633   9.244   6.394   6.568  0.4448  0.0672  1.5153
  346MOL0     O46634   9.354   6.432   6.651  0.5634  0.6760  0.6174
  346MOL0     C46635   9.381   6.565   6.688 -0.5128 -0.4380 -0.1765
  346MOL0     C46636   9.270   6.607   6.791  0.0439  0.3562  0.8365
  346MOL0     C46637   9.326   6.729   6.878  0.3129  0.6820  0.1657
  346MOL0     C46638   9.422   6.682   6.995  0.3580  0.9027  0.8497
  346MOL0     C46639   9.359   6.611   7.108  0.5969 -0.3969  0.7341
  346MOL0     C46640   9.338   6.546   7.208  0.3236  0.1614  0.6307
  346MOL0     C46641   9.220   6.257   6.552 -0.1912  0.1736  0.6141
  346MOL0     C46642   9.100   6.215   6.496  0.4647  0.0123  0.7792
  346MOL0     H46643   8.664   6.096   6.153 -0.2497  1.3306  1.2361
  346MOL0     H46644   8.421   6.044   6.217 -1.1327 -2.6342  0.3570
  346MOL0     H46645   8.424   5.749   6.514  1.0959  1.0290 -0.8255
  346MOL0     H46646   8.357   5.849   6.634  0.8654 -5.1193  1.9096
  346MOL0     H46647   8.195   5.721   6.398 -0.5875  1.5613 -0.5504
  346MOL0     H46648   8.201   5.658   6.568  1.0729  0.1798 -0.0842
  346MOL0     H46649   8.098   5.878   6.639 -1.3732 -1.2136  0.6379
  346MOL0     H46650   8.087   5.919   6.468 -3.0337  0.8408 -0.2335
  346MOL0     H46651   7.939   5.742   6.423  3.5023 -1.7122 -0.1582
  346MOL0     H46652   7.983   5.647   6.574  3.2539 -0.4815 -0.5466
  346MOL0     H46653   7.841   5.771   6.710 -0.6513 -0.0876  0.2290
  346MOL0     H46654   7.822   5.902   6.593 -0.3751 -0.7217  2.0872
  346MOL0     H46655   7.681   5.794   6.461  0.8654  2.4654  1.5518
  346MOL0     H46656   7.719   5.627   6.525  0.5971 -0.2338  0.4086
  346MOL0     H46657   7.625   5.662   6.733 -3.1732 -1.3102 -0.0712
  346MOL0     H46658   7.592   5.838   6.705  1.7971  0.4874 -1.3673
  346MOL0     H46659   7.403   5.707   6.704  1.1670 -1.1763  0.7949
  346MOL0     H46660   7.472   5.603   6.576  0.8769  0.5811  0.1652
  346MOL0     H46661   7.480   5.997   6.527 -0.3949  0.8834 -0.1455
  346MOL0     H46662   7.257   6.149   6.429 -0.8363  2.0480 -1.3328
  346MOL0     H46663   7.338   6.121   6.264 -0.3618  1.4901  0.5596
  346MOL0     H46664   7.151   6.000   6.193 -0.7942 -2.9428  1.6850
  346MOL0     H46665   7.125   6.178   6.234  2.3144  1.1205 -0.0474
  346MOL0     H46666   7.029   6.079   6.454  0.7816 -2.3840  2.2299
  346MOL0     H46667   7.041   5.920   6.359  2.7073  0.4576 -0.1615
  346MOL0     H46668   6.863   6.001   6.220  1.0470 -4.4918  2.6299
  346MOL0     H46669   6.866   6.165   6.280  1.1292 -0.2972  0.5016
  346MOL0     H46670   6.691   5.873   6.593 -0.9153 -0.1479  0.1420
  346MOL0     H46671   6.465   5.622   6.627  1.5016 -0.6141  0.2716
  346MOL0     H46672   6.507   5.764   6.701 -0.9589 -0.2286  1.8008
  346MOL0     H46673   6.349   5.769   6.621  0.2448  0.3933  1.1829
  346MOL0     H46674   6.173   5.863   6.024 -3.4387  2.6567  0.2179
  346MOL0     H46675   5.954   5.813   5.923  1.1760 -2.2264 -0.9115
  346MOL0     H46676   5.702   5.873   5.977  0.7870 -0.8949  0.9864
  346MOL0     H46677   5.760   5.785   5.831  1.9378  0.8663  1.9339
  346MOL0     H46678   5.508   5.798   5.823  3.4863  0.4558 -3.4631
  346MOL0     H46679   5.558   5.634   5.855 -0.7823 -0.2377 -0.5611
  346MOL0     H46680   5.486   5.832   6.074 -1.7127 -0.3785 -0.1943
  346MOL0     H46681   5.511   5.660   6.112 -0.6111 -1.0648  0.3357
  346MOL0     H46682   5.282   5.777   5.957 -0.5241  1.0530  0.3650
  346MOL0     H46683   5.312   5.613   5.969  1.5286  0.2822 -1.0881
  346MOL0     H46684   5.291   5.790   6.232 -0.0740  0.5191  0.4713
  346MOL0     H46685   5.286   5.611   6.219 -2.0091 -0.2236  0.1529
  346MOL0     H46686   5.077   5.692   6.054  1.6459 -3.9489  0.6381
  346MOL0     H46687   5.047   5.674   6.220 -2.9776  0.4638 -0.4073
  346MOL0     H46688   5.140   5.935   6.104 -0.2902  0.1875 -0.4030
  346MOL0     H46689   5.094   5.922   6.271  1.0752 -2.3908  0.6492
  346MOL0     H46690   4.930   6.027   6.154  2.6005  0.4005  0.6036
  346MOL0     H46691   4.860   5.861   6.199 -2.2476  0.6442 -0.5008
  346MOL0     H46692   5.843   5.554   6.225  0.1418 -0.9562 -0.6100
  346MOL0     H46693   6.079   5.548   6.313 -0.9082 -0.3429  0.5232
  346MOL0     H46694   6.468   5.857   6.151 -1.5356  1.7037  1.5773
  346MOL0     H46695   6.636   6.002   6.192 -3.9644 -1.4186 -4.0830
  346MOL0     H46696   8.556   5.941   6.598  0.3628 -2.7633 -0.9882
  346MOL0     H46697   8.788   6.037   6.560  3.4054 -1.6666 -2.4982
  346MOL0     H46698   8.976   6.524   6.410  1.0793  0.6627 -1.8797
  346MOL0     H46699   9.169   6.595   6.499  0.6136 -0.0894  0.9035
  346MOL0     H46700   9.480   6.566   6.735 -1.6213 -2.9182  2.5424
  346MOL0     H46701   9.383   6.627   6.598  0.1486  0.0579  0.1703
  346MOL0     H46702   9.257   6.528   6.866  1.6923  0.8920  1.7397
  346MOL0     H46703   9.173   6.623   6.744 -0.5023 -2.6124  0.7655
  346MOL0     H46704   9.243   6.782   6.924 -2.1958  1.5103 -4.6575
  346MOL0     H46705   9.370   6.806   6.815  1.0658  0.1921  0.0696
  346MOL0     H46706   9.468   6.768   7.044  1.0209  0.1221  1.6570
  346MOL0     H46707   9.505   6.629   6.947 -1.6424 -0.3451 -1.4001
  346MOL0     H46708   9.316   6.474   7.284 -1.5662 -0.8518 -0.8007
  346MOL0     H46709   9.294   6.187   6.589  0.6099 -0.1293 -1.4514
  346MOL0     H46710   9.070   6.111   6.502  0.2425 -0.1986 -2.5738
  347MOL0     O46711   6.544   8.879   0.716 -0.0937 -0.5588  0.0151
  347MOL0     C46712   6.498   8.802   0.633  1.0481  0.8578 -0.7557
  347MOL0     O46713   6.364   8.801   0.584 -0.0583 -0.8955  0.8327
  347MOL0     C46714   6.270   8.871   0.655  1.1663 -0.2087  0.6722
  347MOL0     C46715   6.286   9.011   0.683  0.9913  0.2648  0.5545
  347MOL0     C46716   6.183   9.066   0.766 -0.9952 -1.1983 -0.0252
  347MOL0     C46717   6.064   8.998   0.802  0.2259  0.9116  0.3031
  347MOL0     O46718   5.967   9.057   0.884  0.1993  0.6437 -0.2088
  347MOL0     C46719   5.833   9.028   0.862  1.0555 -0.3232 -0.6347
  347MOL0     C46720   5.739   9.125   0.937 -0.1231 -0.1187 -0.5033
  347MOL0     C46721   5.601   9.060   0.950  0.7026  0.5440 -0.2820
  347MOL0     C46722   5.512   9.144   1.057 -0.8104 -0.2554  0.6419
  347MOL0     C46723   5.383   9.080   1.090  0.5668 -0.6437  0.5286
  347MOL0     C46724   5.287   9.176   1.160 -0.1286  0.0344 -0.6618
  347MOL0     C46725   5.167   9.106   1.223  0.1012 -0.0540 -0.2284
  347MOL0     C46726   5.075   9.208   1.306  0.7200 -0.9228 -0.5786
  347MOL0     N46727   4.950   9.152   1.345 -0.4975  0.5851  0.0408
  347MOL0     C46728   4.930   9.044   1.420  0.5431 -0.2112  0.2255
  347MOL0     C46729   4.798   9.060   1.460 -0.8529  1.5330 -0.1109
  347MOL0     C46730   4.727   8.958   1.557 -0.4513 -0.1142  0.5491
  347MOL0     C46731   4.591   9.004   1.600 -0.1735 -0.4069 -0.0031
  347MOL0     C46732   4.538   8.920   1.720 -0.2987  0.1760 -0.1164
  347MOL0     C46733   4.392   8.941   1.748  0.7188 -0.2525  0.4745
  347MOL0     O46734   4.359   9.082   1.759 -0.2324 -0.2677 -0.2276
  347MOL0     C46735   4.239   9.119   1.813 -0.3811  0.0480  0.2780
  347MOL0     C46736   4.133   9.037   1.836 -0.8600  0.2795  0.4091
  347MOL0     C46737   4.011   9.074   1.881 -0.4936 -0.8147 -0.0142
  347MOL0     C46738   3.917   8.954   1.929  0.0844 -0.3047  0.4464
  347MOL0     C46739   3.981   9.212   1.885  0.1480 -0.5534  0.4469
  347MOL0     C46740   3.840   9.257   1.907  0.8457 -0.6961  0.1174
  347MOL0     O46741   3.827   9.387   1.932 -0.1226  0.4771  0.0064
  347MOL0     C46742   3.706   9.436   1.965 -0.0565  0.1228  0.4571
  347MOL0     C46743   3.700   9.510   2.082  0.6344 -0.7705  1.9290
  347MOL0     C46744   3.583   9.574   2.122  0.3149  0.0380  0.7094
  347MOL0     C46745   3.461   9.546   2.057 -0.2629  0.3346  0.2150
  347MOL0     O46746   3.343   9.604   2.094  0.4030 -0.2922 -0.0054
  347MOL0     C46747   3.335   9.669   2.221  0.1111  0.5541  0.4518
  347MOL0     C46748   3.198   9.732   2.228  0.0545  0.4913 -0.8536
  347MOL0     C46749   3.167   9.778   2.377 -0.1917  0.8877  0.4906
  347MOL0     C46750   3.042   9.709   2.435 -0.3713  0.6874 -0.4989
  347MOL0     C46751   2.909   9.776   2.380 -0.1059  0.3441 -0.4851
  347MOL0     C46752   2.794   9.680   2.430  0.2092  0.5427 -0.3801
  347MOL0     C46753   2.646   9.726   2.391 -1.0795 -0.3059 -0.3041
  347MOL0     C46754   2.545   9.608   2.413 -0.1763  0.2164  0.1332
  347MOL0    Cl46755   2.379   9.656   2.383  0.1259  0.0192  0.2908
  347MOL0     C46756   3.462   9.464   1.940 -0.4644 -0.1824 -0.4896
  347MOL0     C46757   3.588   9.419   1.900  0.2968 -0.6120  0.6783
  347MOL0     O46758   3.743   9.174   1.898  0.0906 -0.0245 -0.3044
  347MOL0     C46759   4.081   9.307   1.848 -0.4738  0.9309  0.6223
  347MOL0     C46760   4.208   9.254   1.825 -0.2242 -0.0391 -0.8491
  347MOL0     N46761   4.744   9.173   1.403  0.2788 -0.0824 -0.2415
  347MOL0     N46762   4.838   9.222   1.338  0.3124  0.4298 -0.2536
  347MOL0     C46763   6.048   8.861   0.765 -0.2961 -0.1256  0.5496
  347MOL0     C46764   6.149   8.803   0.691 -0.0237  0.3980  1.0816
  347MOL0     C46765   6.593   8.741   0.536 -0.1363  0.1835 -0.0126
  347MOL0     C46766   6.730   8.769   0.538  0.6326 -0.4472 -0.5269
  347MOL0     C46767   6.820   8.709   0.451 -0.5804  0.9362 -0.5691
  347MOL0     C46768   6.774   8.625   0.348  0.2705 -0.1935  0.6700
  347MOL0     O46769   6.877   8.573   0.279  0.1067  0.3658  0.0036
  347MOL0     C46770   6.847   8.495   0.158  0.0079 -1.1462  0.7683
  347MOL0     C46771   6.977   8.484   0.075  1.0900 -0.5462 -0.6810
  347MOL0     C46772   7.074   8.390   0.142 -0.5990  0.7244  0.3908
  347MOL0     C46773   7.188   8.386   0.037  0.4750  0.1937 -0.0024
  347MOL0     C46774   7.306   8.298   0.067 -0.5639 -0.7070  0.3423
  347MOL0     C46775   7.402   8.219   0.088  0.4639  0.5257 -0.2603
  347MOL0     C46776   6.644   8.606   0.341  0.2525  0.8562  0.0022
  347MOL0     C46777   6.551   8.654   0.437 -0.0528  0.0569  0.5737
  347MOL0     H46778   6.375   9.069   0.660  0.3285  1.0627 -0.0774
  347MOL0     H46779   6.192   9.167   0.804 -2.5665 -0.6795 -0.9655
  347MOL0     H46780   5.810   9.032   0.756 -2.1769 -0.3899 -0.0347
  347MOL0     H46781   5.818   8.927   0.900 -2.8378  0.2661 -0.1961
  347MOL0     H46782   5.787   9.136   1.034  0.3692 -0.0854 -0.7437
  347MOL0     H46783   5.724   9.221   0.886 -0.3800  1.0298  1.6259
  347MOL0     H46784   5.548   9.063   0.854 -0.4627  0.7617  0.3554
  347MOL0     H46785   5.620   8.956   0.976  4.9514  0.6853 -1.9876
  347MOL0     H46786   5.561   9.148   1.155 -0.6773 -1.0351  0.6122
  347MOL0     H46787   5.508   9.243   1.011  3.2424 -0.5185 -0.6945
  347MOL0     H46788   5.341   9.035   0.999  0.9281  1.7564 -0.9292
  347MOL0     H46789   5.419   9.000   1.156  0.8869  0.5826  1.8924
  347MOL0     H46790   5.335   9.224   1.245 -0.7500  0.8916 -0.7860
  347MOL0     H46791   5.254   9.249   1.086 -1.4794 -0.1503 -0.2724
  347MOL0     H46792   5.101   9.062   1.147 -3.0689 -2.3805  3.4298
  347MOL0     H46793   5.202   9.023   1.286  1.2352 -2.0407 -3.2431
  347MOL0     H46794   5.049   9.289   1.236 -0.5231 -1.6166 -0.9442
  347MOL0     H46795   5.122   9.254   1.393 -0.0616  1.8281 -1.4821
  347MOL0     H46796   4.990   8.962   1.458 -0.7825 -1.6771 -0.6960
  347MOL0     H46797   4.724   8.859   1.510  2.1797 -0.3108  0.6156
  347MOL0     H46798   4.799   8.947   1.639  1.0869 -0.7894 -0.8132
  347MOL0     H46799   4.529   8.998   1.510 -0.6115 -0.2882  0.2872
  347MOL0     H46800   4.588   9.106   1.642  2.1580 -1.8049  4.1516
  347MOL0     H46801   4.599   8.939   1.808  0.9803  0.2964 -1.0072
  347MOL0     H46802   4.552   8.816   1.691  0.5388 -0.3957  2.1333
  347MOL0     H46803   4.370   8.888   1.841  2.5339 -0.0033  1.0826
  347MOL0     H46804   4.330   8.897   1.669 -0.8350  5.1217 -1.7932
  347MOL0     H46805   4.161   8.933   1.836  1.2578  0.7670  2.0959
  347MOL0     H46806   3.832   8.942   1.862  0.8770  1.0881 -0.8860
  347MOL0     H46807   3.965   8.856   1.937  2.2738  0.7651  1.4700
  347MOL0     H46808   3.887   8.981   2.031  1.3868 -0.6351  0.9461
  347MOL0     H46809   3.790   9.521   2.141  1.6070 -3.1087  1.0002
  347MOL0     H46810   3.595   9.631   2.214  0.2324  0.8836  0.2046
  347MOL0     H46811   3.336   9.590   2.297 -0.5809  0.9362  0.8637
  347MOL0     H46812   3.417   9.739   2.237 -0.8052  2.0052 -0.9279
  347MOL0     H46813   3.181   9.815   2.159 -2.1846 -0.4002 -1.4605
  347MOL0     H46814   3.137   9.643   2.213 -0.1035  0.1052  1.6729
  347MOL0     H46815   3.168   9.887   2.377 -0.1936  0.9195 -1.3749
  347MOL0     H46816   3.245   9.740   2.444 -2.6766 -3.1021  1.4680
  347MOL0     H46817   3.034   9.604   2.407 -0.2564  0.2985  0.8515
  347MOL0     H46818   3.044   9.722   2.544  1.5617 -0.8297 -0.3031
  347MOL0     H46819   2.907   9.784   2.271  1.0393  3.1978 -0.3670
  347MOL0     H46820   2.890   9.870   2.433  0.0350 -2.1874  4.7834
  347MOL0     H46821   2.807   9.577   2.397  0.8618  0.1283  1.0729
  347MOL0     H46822   2.801   9.679   2.539 -0.3578 -1.5790 -0.3229
  347MOL0     H46823   2.643   9.756   2.286 -0.4346 -1.6887 -0.7405
  347MOL0     H46824   2.617   9.810   2.455  0.8039  0.5764 -0.5224
  347MOL0     H46825   2.558   9.566   2.514  3.0228  1.8831  0.5517
  347MOL0     H46826   2.561   9.523   2.347 -1.7466  1.0732 -1.4266
  347MOL0     H46827   3.372   9.455   1.880 -0.7844 -0.4019  0.0203
  347MOL0     H46828   3.581   9.365   1.805 -0.2901 -0.5518  0.6846
  347MOL0     H46829   4.076   9.415   1.844 -0.2569  0.9703  1.2490
  347MOL0     H46830   4.288   9.325   1.803  3.0384 -3.3825 -0.6692
  347MOL0     H46831   5.965   8.796   0.790 -0.2369 -0.1994  0.5554
  347MOL0     H46832   6.131   8.698   0.671  0.4040  0.5597 -0.2986
  347MOL0     H46833   6.781   8.835   0.606  0.7797  0.3309 -1.3727
  347MOL0     H46834   6.927   8.727   0.455 -0.3010 -0.8157  0.7261
  347MOL0     H46835   6.806   8.397   0.185 -3.9773  0.0932 -0.0449
  347MOL0     H46836   6.776   8.549   0.095  0.7518 -0.4303  0.5235
  347MOL0     H46837   7.022   8.583   0.066  0.3556 -0.3214 -2.0657
  347MOL0     H46838   6.948   8.453  -0.026 -4.5178  2.8581 -0.5023
  347MOL0     H46839   7.026   8.293   0.154 -0.3463  0.1734 -2.4180
  347MOL0     H46840   7.120   8.422   0.236 -1.4812  0.5389  0.8960
  347MOL0     H46841   7.241   8.480   0.023  0.2488  0.3370  0.0991
  347MOL0     H46842   7.149   8.339  -0.053 -0.2725  0.7907 -0.0012
  347MOL0     H46843   7.480   8.147   0.084  0.9749  1.1099 -2.1703
  347MOL0     H46844   6.620   8.539   0.258 -0.1747  0.1218  0.7036
  347MOL0     H46845   6.449   8.619   0.424  0.9805 -2.4262 -1.9612
  348MOL0     O46846   9.771   0.344   4.017 -0.4210 -0.5770 -0.0405
  348MOL0     C46847   9.829   0.449   3.985  0.1966 -0.5884 -0.4165
  348MOL0     O46848   9.800   0.528   3.875  0.3116 -0.0731  0.2820
  348MOL0     C46849   9.695   0.488   3.790 -0.1690 -0.2123 -0.3601
  348MOL0     C46850   9.724   0.443   3.663  0.9575 -0.4646  0.5433
  348MOL0     C46851   9.625   0.400   3.577  0.2981 -0.2177 -0.2235
  348MOL0     C46852   9.498   0.400   3.616  0.4859  0.1399  0.1314
  348MOL0     O46853   9.410   0.355   3.522  0.3754 -0.3328 -0.7701
  348MOL0     C46854   9.271   0.383   3.523 -0.4597  0.0103  0.3309
  348MOL0     C46855   9.222   0.345   3.382 -0.8396 -0.3188 -0.6153
  348MOL0     C46856   9.071   0.371   3.385  0.6230 -0.1368 -0.0815
  348MOL0     C46857   8.973   0.248   3.422 -0.6080 -0.3598 -0.0536
  348MOL0     C46858   8.829   0.280   3.416 -0.4062 -0.3092  0.2738
  348MOL0     C46859   8.731   0.156   3.433 -0.6913 -0.8813 -0.1597
  348MOL0     C46860   8.582   0.196   3.436 -0.2098  0.9243 -0.8418
  348MOL0     C46861   8.511   0.061   3.476 -0.1028  0.2387 -0.0742
  348MOL0     N46862   8.367   0.063   3.467 -0.1934 -0.0847  0.3221
  348MOL0     C46863   8.284   0.155   3.543  0.2795 -0.6703 -0.9951
  348MOL0     C46864   8.154   0.102   3.530 -0.7186 -0.3186 -0.1251
  348MOL0     C46865   8.039   0.178   3.585  0.6146 -0.4234 -1.2890
  348MOL0     C46866   8.057   0.281   3.700  0.3533  0.0814 -0.2537
  348MOL0     C46867   7.923   0.329   3.741  0.4644  0.4553 -0.1241
  348MOL0     C46868   7.926   0.463   3.827 -0.1508  0.3443  0.4775
  348MOL0     O46869   7.884   0.568   3.742  0.1705 -0.3588 -0.3103
  348MOL0     C46870   7.745   0.583   3.727  0.3826  0.2460  0.8242
  348MOL0     C46871   7.703   0.678   3.634  0.1524 -0.1205  0.8519
  348MOL0     C46872   7.572   0.696   3.607 -0.3482 -0.0169 -0.5030
  348MOL0     C46873   7.556   0.793   3.493 -0.5024 -0.7642 -0.1706
  348MOL0     C46874   7.476   0.632   3.683 -0.0838 -0.0373 -0.0965
  348MOL0     C46875   7.327   0.643   3.654 -0.0943 -0.3567  0.2679
  348MOL0     O46876   7.279   0.763   3.609  0.0670  0.9323 -0.1572
  348MOL0     C46877   7.145   0.764   3.595 -0.0568 -0.7896  0.9308
  348MOL0     C46878   7.059   0.734   3.703 -0.0539 -0.4387  0.0918
  348MOL0     C46879   6.922   0.750   3.688 -0.0979  1.3939 -0.1440
  348MOL0     C46880   6.867   0.796   3.574 -0.0556 -0.1564 -0.3847
  348MOL0     O46881   6.735   0.823   3.577 -0.2935  0.6153 -0.1262
  348MOL0     C46882   6.655   0.766   3.473  0.5451 -0.2514 -0.3973
  348MOL0     C46883   6.513   0.828   3.448  1.1906  0.6591  0.7332
  348MOL0     C46884   6.448   0.849   3.581  0.0941 -0.2091 -0.9024
  348MOL0     C46885   6.302   0.901   3.559 -1.0050 -0.3341  0.9953
  348MOL0     C46886   6.245   0.946   3.692 -0.3711 -0.6314 -0.0857
  348MOL0     C46887   6.117   1.037   3.690 -0.5214  0.6328  0.7899
  348MOL0     C46888   5.994   0.972   3.614 -0.1654 -0.7824 -0.1537
  348MOL0     C46889   5.987   1.029   3.475  0.6988  0.5433 -0.5250
  348MOL0    Cl46890   5.839   1.013   3.392  0.2156 -0.1796  0.4135
  348MOL0     C46891   6.945   0.831   3.459 -0.8093 -0.8388  0.8753
  348MOL0     C46892   7.087   0.811   3.471 -0.0682  0.0091  1.3637
  348MOL0     O46893   7.267   0.533   3.665 -0.3022 -0.1790 -0.2971
  348MOL0     C46894   7.525   0.532   3.769 -0.2083 -0.1550  0.1269
  348MOL0     C46895   7.658   0.503   3.799  0.3542 -0.5024  0.1358
  348MOL0     N46896   8.160  -0.018   3.457 -0.6654 -0.8181 -0.2758
  348MOL0     N46897   8.290  -0.034   3.425 -0.2810  1.2472 -0.3572
  348MOL0     C46898   9.465   0.444   3.743  0.4738 -0.3356 -0.2250
  348MOL0     C46899   9.563   0.491   3.829 -0.0073  0.2186  0.8830
  348MOL0     C46900   9.949   0.474   4.063 -0.1197  0.4176  0.8562
  348MOL0     C46901   9.952   0.446   4.197  0.3335  0.4926  0.2437
  348MOL0     C46902  10.065   0.474   4.282  0.1770  0.2132  0.3509
  348MOL0     C46903  10.176   0.525   4.221  0.0176 -0.2555 -0.4099
  348MOL0     O46904  10.278   0.554   4.306 -0.4712 -0.6358  0.1950
  348MOL0     C46905  10.386   0.623   4.252 -1.2210 -0.0891  0.3003
  348MOL0     C46906  10.479   0.650   4.369  0.1302  0.5175  0.7852
  348MOL0     C46907  10.546   0.524   4.416  0.2525 -0.2435  0.2530
  348MOL0     C46908  10.602   0.561   4.556  1.0910  0.7180  1.0420
  348MOL0     C46909  10.686   0.443   4.610  1.1430 -0.4613  1.1500
  348MOL0     C46910  10.746   0.353   4.663  0.4612  0.4170  0.0543
  348MOL0     C46911  10.174   0.547   4.083 -0.3164 -0.1566 -0.1257
  348MOL0     C46912  10.063   0.528   4.005  0.3029  0.1751 -0.2899
  348MOL0     H46913   9.831   0.443   3.642  1.1060 -0.7545  1.2493
  348MOL0     H46914   9.661   0.359   3.483 -2.9763 -1.3399 -1.1210
  348MOL0     H46915   9.224   0.334   3.609  2.9032 -0.1108  2.2961
  348MOL0     H46916   9.259   0.492   3.526 -2.0984 -0.0975 -0.8568
  348MOL0     H46917   9.276   0.402   3.306  3.2084  1.7640  3.3210
  348MOL0     H46918   9.242   0.238   3.372 -0.3861 -0.1486 -1.6332
  348MOL0     H46919   9.033   0.440   3.461  0.5680 -1.2380  0.9119
  348MOL0     H46920   9.043   0.414   3.288  3.7911 -0.7176 -1.3785
  348MOL0     H46921   8.993   0.181   3.338 -2.1189 -0.0153 -0.7088
  348MOL0     H46922   9.003   0.205   3.518  0.6541 -1.7255 -1.0041
  348MOL0     H46923   8.800   0.355   3.490 -2.2285 -0.9426  0.2483
  348MOL0     H46924   8.797   0.328   3.323  0.7570  1.6759  0.8454
  348MOL0     H46925   8.739   0.079   3.355 -0.8516  0.8738 -2.0172
  348MOL0     H46926   8.750   0.106   3.528 -0.0577  2.3199  1.5374
  348MOL0     H46927   8.571   0.277   3.508  0.9558  0.5339 -0.2030
  348MOL0     H46928   8.547   0.229   3.337  2.5887  0.4364 -2.0766
  348MOL0     H46929   8.534   0.056   3.583  0.2239  2.7306  0.0325
  348MOL0     H46930   8.556  -0.023   3.421  0.7221  0.1672  0.6780
  348MOL0     H46931   8.316   0.250   3.584  0.3049 -1.2994  0.5112
  348MOL0     H46932   7.993   0.232   3.502  1.4056  0.3751 -1.2219
  348MOL0     H46933   7.977   0.102   3.635  2.5425 -0.1414  1.8066
  348MOL0     H46934   8.108   0.370   3.663  0.2367  1.0271  1.7326
  348MOL0     H46935   8.125   0.238   3.774  0.5077 -0.5282 -0.7350
  348MOL0     H46936   7.864   0.253   3.793  0.8655 -1.7592 -2.6657
  348MOL0     H46937   7.874   0.348   3.645  3.5310 -1.0352 -2.1689
  348MOL0     H46938   8.030   0.489   3.847  0.2465  0.9069 -2.0094
  348MOL0     H46939   7.887   0.453   3.928 -3.6936 -1.8820 -0.9127
  348MOL0     H46940   7.775   0.736   3.577 -0.9809  1.5549  1.0500
  348MOL0     H46941   7.594   0.891   3.522  2.5941 -1.4794 -1.4463
  348MOL0     H46942   7.606   0.757   3.403  1.2487 -0.8364  0.7953
  348MOL0     H46943   7.451   0.818   3.476  0.3500  2.2943 -1.4520
  348MOL0     H46944   7.103   0.709   3.799 -0.3826  0.9802  0.6363
  348MOL0     H46945   6.866   0.719   3.775  0.2274  0.6375 -0.1978
  348MOL0     H46946   6.708   0.766   3.377  0.3310  0.6780 -0.5324
  348MOL0     H46947   6.646   0.658   3.487 -2.0580 -0.2360 -1.4776
  348MOL0     H46948   6.509   0.925   3.398 -2.1904 -0.1585 -0.9017
  348MOL0     H46949   6.458   0.764   3.378 -0.5036  1.3451  1.3925
  348MOL0     H46950   6.509   0.922   3.635 -0.0357 -0.6563 -0.1288
  348MOL0     H46951   6.452   0.756   3.639  4.1803  1.7665  2.5345
  348MOL0     H46952   6.318   0.986   3.493  1.4625  0.4641  2.5173
  348MOL0     H46953   6.230   0.830   3.517  0.3023 -0.1557 -1.7261
  348MOL0     H46954   6.316   1.010   3.745 -0.2667 -0.5999 -0.2626
  348MOL0     H46955   6.223   0.854   3.745  1.9184 -1.5274 -0.5714
  348MOL0     H46956   6.095   1.057   3.795 -0.5122  0.8317  0.7543
  348MOL0     H46957   6.132   1.134   3.642  1.1771 -0.1698 -0.4291
  348MOL0     H46958   5.903   0.997   3.669 -0.2567  2.1762 -1.4750
  348MOL0     H46959   6.004   0.863   3.606  2.4708 -0.5901 -0.2446
  348MOL0     H46960   6.067   0.986   3.415  0.9014  0.0262  0.1100
  348MOL0     H46961   6.009   1.136   3.465 -0.0103  0.7451 -0.0162
  348MOL0     H46962   6.888   0.869   3.374 -0.6340  1.0042  1.5435
  348MOL0     H46963   7.153   0.849   3.394  0.1360 -0.5227  1.2709
  348MOL0     H46964   7.458   0.487   3.841 -0.5980 -1.2543 -0.8973
  348MOL0     H46965   7.669   0.419   3.867  0.4159  1.2726  2.4198
  348MOL0     H46966   9.361   0.431   3.770  0.4669 -2.5408 -1.1204
  348MOL0     H46967   9.543   0.520   3.931  0.7336 -0.7364  1.3159
  348MOL0     H46968   9.854   0.413   4.230 -0.6445 -0.2813 -3.1051
  348MOL0     H46969  10.056   0.465   4.390 -0.2218  0.6100  0.3555
  348MOL0     H46970  10.433   0.564   4.173 -0.3896 -0.3387  0.9724
  348MOL0     H46971  10.345   0.709   4.197 -1.0203 -0.5575 -0.6005
  348MOL0     H46972  10.418   0.702   4.443 -0.2879 -2.8482  3.0037
  348MOL0     H46973  10.550   0.720   4.323 -1.9024  1.9625 -0.2898
  348MOL0     H46974  10.629   0.501   4.348  1.0756  2.6197  0.1280
  348MOL0     H46975  10.481   0.437   4.410 -0.0595  0.0697 -1.5252
  348MOL0     H46976  10.520   0.589   4.622  0.1732  1.8147 -0.5139
  348MOL0     H46977  10.666   0.649   4.546  1.6591  0.2885  0.7932
  348MOL0     H46978  10.798   0.272   4.708  0.7943  0.8676  0.4843
  348MOL0     H46979  10.252   0.587   4.019 -0.2932 -1.5730 -1.0188
  348MOL0     H46980  10.070   0.547   3.898  0.5873  0.7945 -0.1611
  349MOL0     O46981   1.198   3.292   5.061  0.3635  0.5244  0.8106
  349MOL0     C46982   1.242   3.192   5.002  0.5155 -1.3899  0.4350
  349MOL0     O46983   1.162   3.116   4.918 -0.6325  0.1133 -0.2196
  349MOL0     C46984   1.032   3.144   4.893  0.3286 -0.6770  0.5972
  349MOL0     C46985   0.920   3.079   4.944 -1.0826 -0.4503 -0.8039
  349MOL0     C46986   0.794   3.109   4.894  0.5561 -1.6575 -0.7055
  349MOL0     C46987   0.773   3.219   4.801 -0.1152 -0.0102  0.3102
  349MOL0     O46988   0.652   3.241   4.742 -0.1586 -0.6315  0.1695
  349MOL0     C46989   0.566   3.314   4.824 -0.2177 -0.2464  0.0531
  349MOL0     C46990   0.422   3.284   4.784  0.4092 -0.0931 -0.4059
  349MOL0     C46991   0.335   3.345   4.898  0.0733  0.2729  0.4587
  349MOL0     C46992   0.372   3.489   4.936  0.1166 -1.1862  0.1802
  349MOL0     C46993   0.263   3.559   5.020 -0.1720 -0.3882 -0.7712
  349MOL0     C46994   0.275   3.512   5.174 -0.3172  0.1519 -0.4328
  349MOL0     C46995   0.198   3.611   5.260  0.2512 -0.7294 -0.0969
  349MOL0     C46996   0.045   3.581   5.261 -1.1786 -0.6901  0.0208
  349MOL0     N46997  -0.029   3.679   5.345 -0.5015 -0.3577 -0.1278
  349MOL0     C46998  -0.015   3.682   5.479 -0.1781  0.4355  0.4322
  349MOL0     C46999  -0.113   3.764   5.521 -0.4184  0.2289  0.5612
  349MOL0     C47000  -0.140   3.818   5.657 -0.2777 -0.6453 -0.4700
  349MOL0     C47001  -0.208   3.700   5.730 -0.8912 -0.6637 -0.1508
  349MOL0     C47002  -0.204   3.699   5.883  0.4875 -1.3380  0.2841
  349MOL0     C47003  -0.240   3.569   5.946 -0.5386  0.3824 -1.0585
  349MOL0     O47004  -0.371   3.505   5.911  0.0611  0.2320 -0.4037
  349MOL0     C47005  -0.445   3.435   5.998  0.4657 -0.0624  0.2036
  349MOL0     C47006  -0.387   3.362   6.106 -0.2772 -0.5685  0.5578
  349MOL0     C47007  -0.476   3.302   6.196 -0.5307  0.4501  0.0407
  349MOL0     C47008  -0.413   3.252   6.324  0.1185  0.3333 -0.2781
  349MOL0     C47009  -0.615   3.294   6.179  0.0595  0.1113  0.0528
  349MOL0     C47010  -0.706   3.206   6.257 -0.1427  0.6787 -0.7455
  349MOL0     O47011  -0.838   3.211   6.212  0.7048 -0.7607  0.2321
  349MOL0     C47012  -0.941   3.150   6.273  0.3377  0.0193 -0.2760
  349MOL0     C47013  -0.947   3.084   6.397 -0.0691  0.2199  0.0487
  349MOL0     C47014  -1.070   3.050   6.452 -0.0274  0.4406  0.0311
  349MOL0     C47015  -1.189   3.055   6.377 -0.3142 -0.0819  0.1539
  349MOL0     O47016  -1.304   3.006   6.418 -0.1289 -0.6274 -0.5872
  349MOL0     C47017  -1.323   2.925   6.534  0.5644  0.8241 -1.1436
  349MOL0     C47018  -1.469   2.924   6.577 -0.2608  0.1938 -0.8167
  349MOL0     C47019  -1.511   3.054   6.659  0.4443  0.1259  0.7450
  349MOL0     C47020  -1.656   3.066   6.665  0.6191 -0.5009 -0.5120
  349MOL0     C47021  -1.680   3.183   6.762 -0.6859 -0.6645 -0.3624
  349MOL0     C47022  -1.830   3.222   6.769  0.2286 -0.1684 -0.5199
  349MOL0     C47023  -1.884   3.143   6.887  0.4238 -0.1039  0.5049
  349MOL0     C47024  -2.033   3.180   6.915  0.7742 -0.0365  0.6226
  349MOL0    Cl47025  -2.082   3.067   7.045  0.6907  0.4326 -0.3622
  349MOL0     C47026  -1.177   3.104   6.246 -0.4762 -0.8150  0.2631
  349MOL0     C47027  -1.058   3.158   6.199 -0.0678  0.2956 -0.3337
  349MOL0     O47028  -0.664   3.127   6.347 -0.0178  0.2127 -0.2405
  349MOL0     C47029  -0.667   3.360   6.061  0.1515  0.1490 -0.4961
  349MOL0     C47030  -0.580   3.432   5.980 -0.9812  0.2649 -0.2689
  349MOL0     N47031  -0.158   3.831   5.407 -0.3083  0.0597  0.2551
  349MOL0     N47032  -0.102   3.779   5.308  0.0458 -0.2279  0.8081
  349MOL0     C47033   0.882   3.284   4.750  0.3558 -0.6207 -0.7609
  349MOL0     C47034   1.011   3.241   4.790 -0.2139  0.0820 -0.2796
  349MOL0     C47035   1.386   3.145   5.038  0.4113 -0.2592  0.8496
  349MOL0     C47036   1.485   3.224   5.096 -0.0120  0.9570  0.3335
  349MOL0     C47037   1.613   3.166   5.123  0.4945  0.3665 -0.3067
  349MOL0     C47038   1.647   3.036   5.082 -0.5987 -0.3191 -0.1964
  349MOL0     O47039   1.763   2.970   5.098 -0.3726  0.3046 -0.3429
  349MOL0     C47040   1.873   3.049   5.145  1.0885  0.1793  0.0909
  349MOL0     C47041   2.001   2.967   5.154  0.2937 -0.5042 -0.6303
  349MOL0     C47042   2.050   2.926   5.014  0.4214  0.0784  0.2492
  349MOL0     C47043   2.196   2.868   5.027  0.3481  0.4679 -0.1987
  349MOL0     C47044   2.201   2.758   5.125  0.1541 -0.3135  1.4232
  349MOL0     C47045   2.216   2.653   5.188 -0.1908 -0.1189  0.8910
  349MOL0     C47046   1.551   2.960   5.027 -0.4168 -0.5282 -0.9581
  349MOL0     C47047   1.421   3.009   5.003  0.2114 -0.8561 -0.5047
  349MOL0     H47048   0.945   2.999   5.014  3.5886 -0.3837 -2.0903
  349MOL0     H47049   0.713   3.051   4.937  0.4564  0.0286  1.5992
  349MOL0     H47050   0.586   3.310   4.931  3.8845 -2.8890 -0.6130
  349MOL0     H47051   0.583   3.417   4.793  1.3208 -0.2292  0.8819
  349MOL0     H47052   0.381   3.312   4.687  0.1508 -2.1261 -0.9300
  349MOL0     H47053   0.410   3.175   4.790  0.7713 -0.1021  0.3821
  349MOL0     H47054   0.229   3.335   4.876  0.2784  0.4613 -0.6839
  349MOL0     H47055   0.343   3.287   4.991  3.5456 -0.1480  0.0433
  349MOL0     H47056   0.464   3.488   4.995  0.1915 -0.4619  0.0801
  349MOL0     H47057   0.391   3.547   4.846  1.1671 -1.7246  0.0496
  349MOL0     H47058   0.275   3.668   5.014  0.7763 -0.5039 -1.1614
  349MOL0     H47059   0.166   3.531   4.979 -1.2420 -2.0317  2.5160
  349MOL0     H47060   0.241   3.409   5.185  1.3871 -0.4304 -0.1971
  349MOL0     H47061   0.380   3.501   5.206 -0.8178 -2.0473  0.7068
  349MOL0     H47062   0.247   3.596   5.356  1.0927  0.2149 -0.3575
  349MOL0     H47063   0.214   3.717   5.239 -2.7784 -0.1658 -0.0721
  349MOL0     H47064   0.025   3.480   5.299 -0.6888 -0.7347  0.1602
  349MOL0     H47065   0.006   3.580   5.159 -1.6079  1.4053  0.1096
  349MOL0     H47066   0.062   3.635   5.538  0.2739 -1.4749 -1.5723
  349MOL0     H47067  -0.040   3.836   5.698 -0.7129 -0.3045  0.4576
  349MOL0     H47068  -0.200   3.909   5.665  0.9463 -0.0081  2.2700
  349MOL0     H47069  -0.158   3.607   5.701 -3.1291 -1.2902 -2.3753
  349MOL0     H47070  -0.314   3.698   5.705 -1.0327 -0.5485  0.4207
  349MOL0     H47071  -0.282   3.769   5.916  2.0904 -0.4997  2.5474
  349MOL0     H47072  -0.110   3.741   5.920 -0.5777  2.5883 -1.0652
  349MOL0     H47073  -0.240   3.601   6.050 -1.3007  0.3559 -1.0443
  349MOL0     H47074  -0.165   3.493   5.924 -1.1175  0.0678 -2.0672
  349MOL0     H47075  -0.279   3.369   6.112 -0.2837  0.4873 -0.2976
  349MOL0     H47076  -0.397   3.144   6.322  0.9899  0.4348 -2.3220
  349MOL0     H47077  -0.314   3.294   6.342  1.4005 -3.2896  2.3100
  349MOL0     H47078  -0.481   3.287   6.402 -1.5271  1.7407 -2.2360
  349MOL0     H47079  -0.868   3.063   6.468  0.3098 -1.4262 -0.8227
  349MOL0     H47080  -1.065   3.005   6.551 -1.9173 -1.6509 -0.7420
  349MOL0     H47081  -1.297   2.823   6.507  1.5947  1.3401 -2.1826
  349MOL0     H47082  -1.253   2.941   6.616  0.4522  0.9835 -1.0785
  349MOL0     H47083  -1.534   2.922   6.489  0.2269 -0.7560 -1.1721
  349MOL0     H47084  -1.490   2.830   6.628 -1.2834  1.1485  0.5854
  349MOL0     H47085  -1.471   3.146   6.615 -1.0359  0.8190  0.7742
  349MOL0     H47086  -1.464   3.046   6.757  3.2003 -1.5199 -0.5950
  349MOL0     H47087  -1.702   3.094   6.570 -2.1752 -1.0572  0.5737
  349MOL0     H47088  -1.699   2.973   6.704  1.3837 -0.8147 -0.4014
  349MOL0     H47089  -1.635   3.276   6.726 -1.0915 -0.0965  0.5896
  349MOL0     H47090  -1.640   3.160   6.861  1.2862  1.2862 -0.6197
  349MOL0     H47091  -1.838   3.329   6.791 -4.5942 -0.0071 -1.9332
  349MOL0     H47092  -1.879   3.207   6.672 -0.6823 -2.2664  0.2130
  349MOL0     H47093  -1.819   3.154   6.974 -2.4773 -1.0329  2.9697
  349MOL0     H47094  -1.884   3.037   6.860 -3.0066  0.2393 -1.3344
  349MOL0     H47095  -2.099   3.164   6.830  1.1260  3.8121 -0.5997
  349MOL0     H47096  -2.037   3.288   6.935  1.9443  0.8847 -3.2816
  349MOL0     H47097  -1.264   3.125   6.184 -1.3733 -0.7344  1.5162
  349MOL0     H47098  -1.054   3.214   6.106  3.0982  1.3668  0.3162
  349MOL0     H47099  -0.772   3.358   6.035 -0.2342  1.1278  0.8540
  349MOL0     H47100  -0.616   3.487   5.894 -0.7767 -0.7581 -1.0351
  349MOL0     H47101   0.858   3.354   4.671 -3.4035 -0.8498  0.0279
  349MOL0     H47102   1.098   3.295   4.753  0.5670  1.3754  3.0795
  349MOL0     H47103   1.470   3.328   5.120  3.4510  1.2984  1.5104
  349MOL0     H47104   1.689   3.222   5.176  0.6173 -0.4288  0.3824
  349MOL0     H47105   1.894   3.130   5.075  2.1201 -0.5265 -0.4551
  349MOL0     H47106   1.855   3.076   5.249  0.5533  0.9016 -0.1814
  349MOL0     H47107   1.979   2.888   5.226 -0.6953  1.9925  2.0249
  349MOL0     H47108   2.069   3.040   5.200 -2.3417  2.4885 -1.1197
  349MOL0     H47109   2.045   3.007   4.941  1.3547 -0.2694 -0.2167
  349MOL0     H47110   1.980   2.851   4.977 -0.9697  0.7937  1.3191
  349MOL0     H47111   2.269   2.947   5.047  1.7107 -0.6389 -0.6921
  349MOL0     H47112   2.218   2.819   4.932  0.5052 -0.0010  0.0777
  349MOL0     H47113   2.224   2.556   5.233  2.9769  0.7922  2.5288
  349MOL0     H47114   1.578   2.857   5.006  6.2551  0.9107 -1.8022
  349MOL0     H47115   1.344   2.947   4.959 -1.3817 -0.2700  1.3100
  350MOL0     O47116   4.009   6.561   7.220  0.3351  0.5143  0.2709
  350MOL0     C47117   4.113   6.549   7.151  0.9216 -0.0820  0.4965
  350MOL0     O47118   4.120   6.481   7.032  0.5214  0.6118 -0.4558
  350MOL0     C47119   4.016   6.457   6.944 -0.5576  0.1779  0.0038
  350MOL0     C47120   4.047   6.362   6.850  0.0855  1.0264  0.0475
  350MOL0     C47121   3.951   6.317   6.756 -0.9668 -0.0567  0.2855
  350MOL0     C47122   3.829   6.381   6.746 -0.1507 -0.2950  0.1826
  350MOL0     O47123   3.740   6.330   6.653 -0.2471  0.1857 -1.0349
  350MOL0     C47124   3.738   6.187   6.646 -0.4904  0.2994  0.4071
  350MOL0     C47125   3.598   6.136   6.634  0.5458  0.2954 -0.0095
  350MOL0     C47126   3.512   6.171   6.758 -0.6160  0.0370 -0.2706
  350MOL0     C47127   3.370   6.146   6.722  1.0356 -0.0284 -0.0975
  350MOL0     C47128   3.267   6.176   6.836 -0.1101  0.5119  0.4251
  350MOL0     C47129   3.119   6.187   6.791  0.4229  0.0169 -0.2381
  350MOL0     C47130   3.025   6.245   6.904  0.4989  1.4991 -0.4646
  350MOL0     C47131   2.884   6.222   6.858  0.1465  0.6306  0.7964
  350MOL0     N47132   2.788   6.249   6.954 -0.3509 -0.0453 -1.0708
  350MOL0     C47133   2.731   6.159   7.037  0.4605  0.1593  0.1306
  350MOL0     C47134   2.628   6.223   7.102  1.3052  0.2267  0.2650
  350MOL0     C47135   2.523   6.155   7.195 -0.1555 -0.6932  0.5630
  350MOL0     C47136   2.385   6.165   7.120  0.1786  0.6589 -0.6087
  350MOL0     C47137   2.276   6.162   7.218  0.6421 -0.1051 -1.2906
  350MOL0     C47138   2.136   6.168   7.151  1.5790  0.1617  0.1128
  350MOL0     O47139   2.052   6.151   7.264  0.3500  0.1956 -0.0344
  350MOL0     C47140   1.918   6.182   7.253 -0.4244  0.3300 -0.4754
  350MOL0     C47141   1.853   6.234   7.133  0.2438  0.7214 -0.9315
  350MOL0     C47142   1.712   6.247   7.129 -0.5340 -0.4417 -0.5663
  350MOL0     C47143   1.650   6.273   6.999 -0.0400  0.0419  0.7074
  350MOL0     C47144   1.631   6.218   7.244 -0.5062  0.5407 -0.0818
  350MOL0     C47145   1.482   6.240   7.240  0.4417 -0.4369 -0.3054
  350MOL0     O47146   1.410   6.211   7.120  0.2262  0.1911  0.4915
  350MOL0     C47147   1.268   6.227   7.112  0.1803 -0.4466  0.8107
  350MOL0     C47148   1.174   6.250   7.216  0.1882  0.3730  0.6965
  350MOL0     C47149   1.041   6.277   7.181 -0.1381 -0.2075 -0.5571
  350MOL0     C47150   0.996   6.279   7.049 -0.0556 -0.3141 -0.0410
  350MOL0     O47151   0.869   6.310   7.007 -0.2445 -0.4618 -0.5900
  350MOL0     C47152   0.757   6.319   7.099 -0.1665 -0.3729 -0.1074
  350MOL0     C47153   0.632   6.357   7.026 -0.2715 -0.1132  0.0774
  350MOL0     C47154   0.590   6.246   6.935 -0.0967 -0.3916 -0.2694
  350MOL0     C47155   0.462   6.295   6.866 -0.2450  0.3981 -0.6022
  350MOL0     C47156   0.481   6.421   6.785  0.2387  0.8728  0.5318
  350MOL0     C47157   0.386   6.531   6.819 -0.7374 -0.4887 -0.4248
  350MOL0     C47158   0.408   6.644   6.734  0.2869 -0.1458  0.0866
  350MOL0     C47159   0.311   6.770   6.744 -0.5960  0.3153 -0.0479
  350MOL0    Cl47160   0.365   6.844   6.904 -0.0922  0.1394  0.1669
  350MOL0     C47161   1.091   6.246   6.949  0.1144 -0.6900  0.8015
  350MOL0     C47162   1.222   6.224   6.978  0.6290 -0.7179 -0.0652
  350MOL0     O47163   1.437   6.298   7.337 -0.6703 -0.2024  0.0862
  350MOL0     C47164   1.696   6.175   7.360 -0.4626  0.6213  0.2379
  350MOL0     C47165   1.835   6.163   7.365  1.0120  0.7526 -0.3546
  350MOL0     N47166   2.618   6.351   7.050  0.1596  0.9807 -0.4457
  350MOL0     N47167   2.718   6.368   6.970  0.4546 -0.3734  0.5642
  350MOL0     C47168   3.799   6.481   6.831 -0.2263 -0.3779  0.5498
  350MOL0     C47169   3.893   6.521   6.931  0.0038 -0.7111  0.3851
  350MOL0     C47170   4.240   6.593   7.215 -0.2667  0.3306 -0.0987
  350MOL0     C47171   4.250   6.665   7.339  0.1988  0.0076  0.3882
  350MOL0     C47172   4.374   6.690   7.394  0.6062  1.0005  0.3951
  350MOL0     C47173   4.497   6.653   7.329 -0.1807  0.5231  0.1922
  350MOL0     O47174   4.625   6.688   7.366 -0.4643 -0.4503  0.3710
  350MOL0     C47175   4.640   6.795   7.459 -0.8177 -0.1765 -0.5732
  350MOL0     C47176   4.787   6.847   7.465  0.1482 -0.0251 -0.6200
  350MOL0     C47177   4.901   6.741   7.455  0.1706  0.3058 -0.2450
  350MOL0     C47178   5.040   6.790   7.466 -0.8890  1.0655 -0.0036
  350MOL0     C47179   5.059   6.924   7.511  0.4503  0.0502  0.1722
  350MOL0     C47180   5.083   7.032   7.563  0.3583 -0.3806 -0.1169
  350MOL0     C47181   4.479   6.582   7.212 -0.7361  0.8257  0.0294
  350MOL0     C47182   4.356   6.544   7.159 -0.1278  0.3757  0.1143
  350MOL0     H47183   4.138   6.304   6.857 -0.8807 -0.5734  0.0656
  350MOL0     H47184   3.984   6.239   6.688 -1.2261  0.9803 -1.0754
  350MOL0     H47185   3.796   6.163   6.557 -3.3433  0.8544 -1.7658
  350MOL0     H47186   3.779   6.137   6.734 -1.0978 -1.0873 -0.0650
  350MOL0     H47187   3.556   6.177   6.541  2.3685 -2.5841 -2.2823
  350MOL0     H47188   3.605   6.027   6.620  0.3472 -0.3453  3.7814
  350MOL0     H47189   3.535   6.110   6.846 -2.9749 -0.6811 -0.0622
  350MOL0     H47190   3.534   6.272   6.792  0.1598 -1.0831  2.9507
  350MOL0     H47191   3.337   6.211   6.640 -2.7039  0.8059  1.8540
  350MOL0     H47192   3.364   6.042   6.689 -0.2944 -0.3227  0.9556
  350MOL0     H47193   3.289   6.111   6.921 -0.7818  3.1528  2.7330
  350MOL0     H47194   3.300   6.274   6.871 -1.0137  0.2804  2.0123
  350MOL0     H47195   3.110   6.251   6.703 -1.8488 -0.2537 -0.2640
  350MOL0     H47196   3.089   6.089   6.753  2.0145 -0.0858 -1.3497
  350MOL0     H47197   3.048   6.195   6.998  0.0185  1.5454 -0.3227
  350MOL0     H47198   3.032   6.353   6.920 -2.5695  1.8542 -0.9519
  350MOL0     H47199   2.865   6.122   6.818 -1.9096  1.7039 -1.1627
  350MOL0     H47200   2.876   6.297   6.779  1.0529  2.8081  2.6574
  350MOL0     H47201   2.754   6.055   7.060  0.2373  0.2713  0.8914
  350MOL0     H47202   2.558   6.053   7.214  2.9809  0.3176  0.8836
  350MOL0     H47203   2.530   6.214   7.287  1.9111 -0.3212  0.2264
  350MOL0     H47204   2.383   6.080   7.051  5.4854 -0.1165 -0.2437
  350MOL0     H47205   2.365   6.254   7.059 -4.2243 -0.8228 -1.7296
  350MOL0     H47206   2.282   6.250   7.283  0.0260 -1.2229  0.3331
  350MOL0     H47207   2.292   6.075   7.282  1.0772  1.6595  1.1687
  350MOL0     H47208   2.125   6.095   7.070  0.4823  1.9105 -1.4049
  350MOL0     H47209   2.139   6.266   7.102  2.8827  0.6640  1.1390
  350MOL0     H47210   1.913   6.255   7.045 -0.3594 -1.4736 -1.9441
  350MOL0     H47211   1.593   6.186   6.966 -5.1180  1.6974  3.8374
  350MOL0     H47212   1.580   6.356   7.012 -2.3233 -0.8528 -3.8306
  350MOL0     H47213   1.726   6.300   6.925 -0.0153 -0.1860  0.6497
  350MOL0     H47214   1.198   6.256   7.322 -1.5704  0.1453  1.1342
  350MOL0     H47215   0.972   6.279   7.265 -1.6272 -0.0750 -1.7394
  350MOL0     H47216   0.746   6.220   7.145 -4.3142  0.7018  1.6609
  350MOL0     H47217   0.768   6.397   7.174 -0.8696 -1.7325  1.4750
  350MOL0     H47218   0.546   6.378   7.091 -2.0742 -1.0851 -1.8654
  350MOL0     H47219   0.660   6.454   6.984  1.6438 -1.5072 -2.0909
  350MOL0     H47220   0.569   6.151   6.984  3.4946 -0.5094  1.3612
  350MOL0     H47221   0.672   6.237   6.863 -1.6191  3.1893 -2.7555
  350MOL0     H47222   0.413   6.210   6.818  2.7850 -0.7135 -1.9004
  350MOL0     H47223   0.394   6.318   6.949  0.0601 -0.8074  0.0065
  350MOL0     H47224   0.464   6.396   6.680  0.2004 -1.4096  1.0364
  350MOL0     H47225   0.583   6.462   6.784 -0.1871  2.0662 -1.9314
  350MOL0     H47226   0.282   6.498   6.814 -1.0094  0.1974  0.3385
  350MOL0     H47227   0.416   6.558   6.921  3.6987 -4.0999 -0.4622
  350MOL0     H47228   0.385   6.604   6.635  1.0697 -2.5573  0.8254
  350MOL0     H47229   0.510   6.684   6.733  0.5748 -0.8174 -2.1005
  350MOL0     H47230   0.206   6.737   6.739  0.0849 -2.1991  0.8356
  350MOL0     H47231   0.328   6.841   6.663 -0.6889  0.2390 -0.1358
  350MOL0     H47232   1.062   6.238   6.845  2.2654  1.0653 -0.0135
  350MOL0     H47233   1.292   6.200   6.898  1.4752  0.0453  0.4210
  350MOL0     H47234   1.633   6.150   7.445 -2.2016 -3.6188 -1.9915
  350MOL0     H47235   1.860   6.131   7.466 -0.3620 -3.8221 -1.2291
  350MOL0     H47236   3.705   6.532   6.818  0.0470 -0.1081 -0.4357
  350MOL0     H47237   3.860   6.598   7.000  2.3562  0.8917 -0.1798
  350MOL0     H47238   4.164   6.709   7.388 -0.1847  0.2217 -0.4631
  350MOL0     H47239   4.378   6.741   7.490 -0.4944 -0.9295  1.5279
  350MOL0     H47240   4.573   6.878   7.436  0.1960  0.3464 -1.7429
  350MOL0     H47241   4.608   6.769   7.561  1.0263  3.7849  1.2375
  350MOL0     H47242   4.789   6.889   7.567 -1.6544 -0.7549 -0.2550
  350MOL0     H47243   4.796   6.933   7.399  2.7209  0.1503 -0.1487
  350MOL0     H47244   4.895   6.685   7.361  1.6761 -0.0150 -0.1767
  350MOL0     H47245   4.890   6.664   7.532  1.2079 -2.1387 -2.3653
  350MOL0     H47246   5.074   6.778   7.363  0.6097  1.2303  0.4421
  350MOL0     H47247   5.112   6.734   7.526  1.6290  4.1950  0.1689
  350MOL0     H47248   5.093   7.137   7.585 -1.7829  0.1760 -1.5196
  350MOL0     H47249   4.567   6.580   7.148 -0.6125  4.5969 -0.1649
  350MOL0     H47250   4.354   6.482   7.070  1.7214  0.0829  0.2346
  351MOL0     O47251   0.321   0.936   9.935 -0.2164 -0.0644 -0.2519
  351MOL0     C47252   0.354   0.832   9.883 -0.5768 -0.1766  0.6995
  351MOL0     O47253   0.268   0.746   9.821  0.5882 -0.1098  0.3694
  351MOL0     C47254   0.133   0.789   9.807  0.2759  0.6242  0.6241
  351MOL0     C47255   0.028   0.713   9.860 -0.7203 -0.6603  0.0610
  351MOL0     C47256  -0.102   0.755   9.855  0.8455  0.2181  0.1137
  351MOL0     C47257  -0.141   0.879   9.796  0.2994  0.5808  0.2291
  351MOL0     O47258  -0.272   0.923   9.820 -0.1246 -0.4969  0.3108
  351MOL0     C47259  -0.369   0.828   9.860  0.0089 -0.1566  0.4032
  351MOL0     C47260  -0.506   0.884   9.847 -0.0673  0.8744 -0.1195
  351MOL0     C47261  -0.606   0.780   9.924 -0.1634 -0.4610 -0.1392
  351MOL0     C47262  -0.736   0.764   9.842 -0.4346 -0.3761 -0.0073
  351MOL0     C47263  -0.848   0.675   9.882 -0.9042 -0.5850  1.3144
  351MOL0     C47264  -0.967   0.681   9.796  0.7070  0.0182 -0.5199
  351MOL0     C47265  -1.097   0.694   9.873  0.0619 -0.3373 -0.0592
  351MOL0     C47266  -1.214   0.692   9.782  1.3148  0.3937  0.1170
  351MOL0     N47267  -1.345   0.723   9.853 -0.4872  0.8693 -1.0425
  351MOL0     C47268  -1.441   0.638   9.886 -0.7044 -0.5775 -0.1924
  351MOL0     C47269  -1.527   0.709   9.961  0.6014  0.4691 -0.4524
  351MOL0     C47270  -1.648   0.652  10.034  0.5770  0.5941  1.0409
  351MOL0     C47271  -1.771   0.744  10.017  0.0407  0.1921 -0.4989
  351MOL0     C47272  -1.825   0.763   9.871 -0.0875 -0.3148 -0.4171
  351MOL0     C47273  -1.941   0.864   9.886  0.8376 -0.0738  0.2759
  351MOL0     O47274  -2.053   0.781   9.929 -1.0956  0.0414 -0.3323
  351MOL0     C47275  -2.145   0.743   9.833 -0.5937 -0.2754  0.3530
  351MOL0     C47276  -2.119   0.722   9.694 -0.3503 -0.0167  0.8961
  351MOL0     C47277  -2.219   0.692   9.598  0.4086 -1.0342  0.3140
  351MOL0     C47278  -2.175   0.706   9.452 -1.4004  0.4956  0.4226
  351MOL0     C47279  -2.355   0.678   9.640 -0.3662  0.3626 -0.1990
  351MOL0     C47280  -2.460   0.633   9.548 -0.1526  0.2543  0.3657
  351MOL0     O47281  -2.432   0.539   9.453  0.9393 -0.0740 -0.1710
  351MOL0     C47282  -2.528   0.500   9.363 -0.6382  0.5816 -0.4693
  351MOL0     C47283  -2.534   0.545   9.231 -0.1819  0.0212  0.5540
  351MOL0     C47284  -2.634   0.509   9.141 -1.2507 -0.0149 -0.1202
  351MOL0     C47285  -2.733   0.417   9.189 -0.2568  0.4499 -0.0188
  351MOL0     O47286  -2.833   0.386   9.099  0.4325 -0.4351  0.2872
  351MOL0     C47287  -2.947   0.322   9.139 -0.1329  0.0313 -0.7781
  351MOL0     C47288  -3.045   0.294   9.016 -0.7820 -0.8560  0.2073
  351MOL0     C47289  -3.150   0.407   8.997  0.5445 -0.0076  0.3351
  351MOL0     C47290  -3.243   0.376   8.878 -0.2292 -0.5597  0.1583
  351MOL0     C47291  -3.261   0.489   8.781  0.3855  0.5737 -0.6055
  351MOL0     C47292  -3.371   0.582   8.835 -0.2588  0.0985 -0.3384
  351MOL0     C47293  -3.501   0.505   8.855 -0.2174  0.1025  0.5473
  351MOL0     C47294  -3.615   0.602   8.838 -0.9919 -0.9540 -1.3218
  351MOL0    Cl47295  -3.766   0.521   8.790 -0.6823  0.4850  0.4224
  351MOL0     C47296  -2.733   0.383   9.326  0.1943 -0.9102 -0.4658
  351MOL0     C47297  -2.636   0.424   9.416  0.3214  0.0113  0.6264
  351MOL0     O47298  -2.572   0.677   9.565  0.3413  0.2199 -0.0742
  351MOL0     C47299  -2.385   0.701   9.777 -0.1916 -0.8080 -0.3050
  351MOL0     C47300  -2.280   0.738   9.860 -0.3623 -0.1170  0.2520
  351MOL0     N47301  -1.482   0.841   9.970  0.1030  0.0453 -0.3949
  351MOL0     N47302  -1.377   0.841   9.900 -0.3768 -0.1965  0.0277
  351MOL0     C47303  -0.045   0.950   9.736  0.4879 -0.0959 -1.2441
  351MOL0     C47304   0.085   0.910   9.738 -0.2561  0.4961 -0.5733
  351MOL0     C47305   0.495   0.795   9.879  0.1789 -0.3861 -0.7920
  351MOL0     C47306   0.586   0.818   9.985  0.1036 -0.6564 -0.4383
  351MOL0     C47307   0.711   0.775   9.990  0.6775  0.4705 -0.5809
  351MOL0     C47308   0.758   0.688   9.883  0.0282 -0.2157  0.8813
  351MOL0     O47309   0.878   0.640   9.913 -0.9257 -0.3496 -0.5012
  351MOL0     C47310   0.949   0.570   9.813  0.2530 -0.4225  0.0984
  351MOL0     C47311   1.028   0.453   9.861  0.5783  0.0679 -1.1202
  351MOL0     C47312   1.155   0.444   9.785 -0.2855  0.0183 -0.1931
  351MOL0     C47313   1.248   0.325   9.830  0.3555 -0.1918  0.5775
  351MOL0     C47314   1.380   0.317   9.763  1.2654  0.4401 -0.2306
  351MOL0     C47315   1.488   0.320   9.723  0.4369  0.5127 -0.4860
  351MOL0     C47316   0.671   0.666   9.771  0.0351  0.1998  0.1495
  351MOL0     C47317   0.549   0.733   9.771  0.3332  0.1346  0.3948
  351MOL0     H47318   0.047   0.621   9.914  0.5228 -1.6692 -1.9435
  351MOL0     H47319  -0.174   0.689   9.903 -0.0776  1.9800  1.2271
  351MOL0     H47320  -0.368   0.740   9.796 -1.0375  0.8439 -1.0645
  351MOL0     H47321  -0.359   0.786   9.961 -1.2740 -0.9976  0.2110
  351MOL0     H47322  -0.521   0.982   9.894 -2.2023  1.2150 -1.3633
  351MOL0     H47323  -0.544   0.891   9.744  0.4138  0.1224 -0.3523
  351MOL0     H47324  -0.558   0.683   9.939 -1.5600 -1.1442  0.0346
  351MOL0     H47325  -0.637   0.808  10.025  0.2723  0.5515 -0.2684
  351MOL0     H47326  -0.780   0.864   9.831 -3.3829 -1.5385  0.3082
  351MOL0     H47327  -0.703   0.733   9.743 -3.1512 -1.8397 -0.5662
  351MOL0     H47328  -0.812   0.572   9.893  0.2622  0.0300  4.0723
  351MOL0     H47329  -0.891   0.702   9.979  0.7241 -1.4007  2.3163
  351MOL0     H47330  -0.967   0.762   9.723 -1.3273  0.8747  0.3665
  351MOL0     H47331  -0.962   0.589   9.737  2.3748 -1.3366  1.5728
  351MOL0     H47332  -1.112   0.619   9.952 -1.1157  0.1221  0.1790
  351MOL0     H47333  -1.100   0.789   9.928 -4.3478 -0.6714  0.6414
  351MOL0     H47334  -1.230   0.600   9.725  0.4433 -0.2116  1.2980
  351MOL0     H47335  -1.197   0.770   9.708  2.1826  1.9185  1.8446
  351MOL0     H47336  -1.452   0.531   9.874 -1.3655 -0.5162 -0.1940
  351MOL0     H47337  -1.662   0.547  10.007  0.8175  0.9140 -0.4206
  351MOL0     H47338  -1.611   0.641  10.137  1.2458 -3.4609  0.5140
  351MOL0     H47339  -1.741   0.840  10.059 -1.5826  0.5781 -0.1387
  351MOL0     H47340  -1.851   0.711  10.085 -0.7141  3.7221  0.5352
  351MOL0     H47341  -1.861   0.671   9.824  0.7273 -0.7662 -0.1619
  351MOL0     H47342  -1.743   0.793   9.805  0.1570 -1.3410 -0.5932
  351MOL0     H47343  -1.965   0.921   9.796 -2.6978 -0.1363  1.0311
  351MOL0     H47344  -1.912   0.938   9.961 -0.4185  1.7286 -0.9307
  351MOL0     H47345  -2.014   0.722   9.664 -1.2958 -2.2141 -2.9975
  351MOL0     H47346  -2.267   0.710   9.393 -1.2788 -0.3422  0.1507
  351MOL0     H47347  -2.109   0.787   9.420 -1.9642  0.7080 -0.2375
  351MOL0     H47348  -2.135   0.610   9.416 -0.3906  1.6224 -1.6303
  351MOL0     H47349  -2.449   0.605   9.197  2.0386 -1.7762  2.5792
  351MOL0     H47350  -2.635   0.544   9.038  0.7811 -0.9656 -0.5260
  351MOL0     H47351  -2.928   0.224   9.183  0.3632  0.1682 -0.6914
  351MOL0     H47352  -2.995   0.395   9.205  1.3989  0.3718  0.0063
  351MOL0     H47353  -2.988   0.286   8.923 -1.2432 -0.0429 -0.1615
  351MOL0     H47354  -3.105   0.203   9.025 -0.1125 -1.8570 -3.6194
  351MOL0     H47355  -3.097   0.500   8.973 -1.5145  0.8445 -1.1687
  351MOL0     H47356  -3.217   0.419   9.083 -5.2802  1.5577 -3.8274
  351MOL0     H47357  -3.188   0.305   8.815  0.4253  0.9177 -1.0037
  351MOL0     H47358  -3.335   0.324   8.905 -1.0176  0.0953 -1.1449
  351MOL0     H47359  -3.293   0.449   8.684 -0.6913  1.5049 -0.6534
  351MOL0     H47360  -3.164   0.538   8.767  1.1777 -0.9645 -0.7139
  351MOL0     H47361  -3.343   0.634   8.927  2.2770  1.0982 -1.5829
  351MOL0     H47362  -3.393   0.652   8.754 -1.6272  0.5672  0.4100
  351MOL0     H47363  -3.513   0.460   8.954 -2.8864  2.1353  1.2885
  351MOL0     H47364  -3.511   0.424   8.783 -3.9029  0.2196  0.7312
  351MOL0     H47365  -3.588   0.690   8.778  0.9426 -0.6737 -0.1322
  351MOL0     H47366  -3.639   0.646   8.935 -5.5836  1.7814 -3.3371
  351MOL0     H47367  -2.810   0.319   9.368  0.5904 -0.8585  0.3495
  351MOL0     H47368  -2.631   0.391   9.519  2.0840  0.6582  0.7784
  351MOL0     H47369  -2.487   0.693   9.815  0.1010  1.9436  1.2980
  351MOL0     H47370  -2.297   0.751   9.967  1.8504 -1.6365  0.8481
  351MOL0     H47371  -0.068   1.041   9.681 -1.8612  0.5110  0.5815
  351MOL0     H47372   0.157   0.970   9.682  0.0065  0.2093 -0.5488
  351MOL0     H47373   0.555   0.888  10.061  0.1587 -0.0174 -0.9980
  351MOL0     H47374   0.773   0.798  10.076 -0.1400 -2.3863  0.8911
  351MOL0     H47375   0.880   0.534   9.736 -0.1156 -2.4714  1.3279
  351MOL0     H47376   1.012   0.640   9.756 -1.3954  2.2205  1.3479
  351MOL0     H47377   0.972   0.359   9.857  1.5925 -0.7855  1.9517
  351MOL0     H47378   1.055   0.464   9.966  1.4937  2.8091 -1.5597
  351MOL0     H47379   1.203   0.541   9.802  0.4492 -0.2190 -0.8867
  351MOL0     H47380   1.133   0.433   9.679 -2.2994  1.4165  0.0325
  351MOL0     H47381   1.186   0.235   9.826 -1.1741  0.8855 -1.4053
  351MOL0     H47382   1.274   0.338   9.936  1.3620 -0.8672  0.4323
  351MOL0     H47383   1.591   0.330   9.694  0.4479  2.1403 -0.0293
  351MOL0     H47384   0.697   0.589   9.700  0.2397 -0.4078  0.8678
  351MOL0     H47385   0.487   0.710   9.684  1.0923 -0.8473  0.0987
  352MOL0     O47386   7.274   4.597   6.431 -0.4014 -0.3129  0.7966
  352MOL0     C47387   7.265   4.705   6.372  0.7573 -0.1333 -0.3209
  352MOL0     O47388   7.143   4.765   6.355 -0.1904  1.0420 -0.3738
  352MOL0     C47389   7.031   4.714   6.409 -0.7222 -0.5616 -0.1161
  352MOL0     C47390   6.988   4.579   6.396  0.6272 -0.1803 -0.1985
  352MOL0     C47391   6.875   4.538   6.456 -0.0580 -0.3200  0.3808
  352MOL0     C47392   6.783   4.632   6.513 -0.3194 -0.0101 -0.3043
  352MOL0     O47393   6.677   4.568   6.577  0.1378  0.0148  0.1364
  352MOL0     C47394   6.578   4.656   6.640  0.5979  0.9628 -0.3212
  352MOL0     C47395   6.449   4.565   6.665 -0.0267 -1.0114  0.2096
  352MOL0     C47396   6.375   4.540   6.523  0.9267 -0.5872  0.0792
  352MOL0     C47397   6.232   4.483   6.552 -0.1344 -0.4648 -0.0774
  352MOL0     C47398   6.170   4.430   6.425 -0.7887 -0.1898  0.2963
  352MOL0     C47399   6.042   4.345   6.444 -0.3467 -0.1900 -0.0582
  352MOL0     C47400   5.923   4.426   6.492 -0.3846 -0.8638 -0.3111
  352MOL0     C47401   5.798   4.351   6.493  0.3961  0.8637  0.3307
  352MOL0     N47402   5.677   4.430   6.492  0.4659  0.6514  0.5070
  352MOL0     C47403   5.624   4.482   6.373  0.1557  1.1695 -0.2799
  352MOL0     C47404   5.518   4.560   6.409  0.0404  0.3351 -0.4631
  352MOL0     C47405   5.420   4.612   6.305 -0.3326  0.0040 -1.2429
  352MOL0     C47406   5.287   4.615   6.367 -0.0397 -0.4741  0.6889
  352MOL0     C47407   5.231   4.476   6.400 -0.0782  0.0673 -0.0064
  352MOL0     C47408   5.084   4.477   6.426  0.0873 -0.3499 -0.3577
  352MOL0     O47409   5.013   4.502   6.299 -0.2072 -0.2744 -0.9072
  352MOL0     C47410   4.875   4.483   6.295 -0.1344 -0.8107  0.7160
  352MOL0     C47411   4.811   4.524   6.175  0.4784  0.2937 -0.1616
  352MOL0     C47412   4.674   4.549   6.166  0.3985  0.1447 -0.0929
  352MOL0     C47413   4.634   4.610   6.036  0.2782  0.8965  0.6635
  352MOL0     C47414   4.593   4.515   6.275 -0.9551  0.1737 -0.0152
  352MOL0     C47415   4.455   4.554   6.300  0.6289 -0.2660  1.2454
  352MOL0     O47416   4.369   4.471   6.363 -0.2065 -0.1552  0.3250
  352MOL0     C47417   4.235   4.492   6.373  0.4792  0.4663 -0.2342
  352MOL0     C47418   4.185   4.615   6.421  0.2859  0.0544 -0.0806
  352MOL0     C47419   4.050   4.645   6.418 -0.2867 -0.6256 -1.0929
  352MOL0     C47420   3.951   4.560   6.374 -0.2967  0.0647 -0.1034
  352MOL0     O47421   3.819   4.590   6.392  0.2095  0.1648  0.0736
  352MOL0     C47422   3.786   4.718   6.425  0.0043  1.0932 -1.6343
  352MOL0     C47423   3.643   4.725   6.378  0.2329 -0.4196 -0.2755
  352MOL0     C47424   3.582   4.868   6.393  0.6208 -0.5336 -0.5309
  352MOL0     C47425   3.426   4.853   6.372 -0.1439 -0.0346  0.3820
  352MOL0     C47426   3.357   4.971   6.419  0.0918 -0.4503  0.2686
  352MOL0     C47427   3.206   4.953   6.431 -0.0432  0.9059 -0.0026
  352MOL0     C47428   3.136   5.050   6.525  0.6078  0.9935 -0.0194
  352MOL0     C47429   3.076   5.174   6.443 -0.1561 -0.4779 -0.2209
  352MOL0    Cl47430   2.947   5.129   6.323  0.2503 -0.2775 -0.1704
  352MOL0     C47431   3.996   4.432   6.336  0.6107 -0.9585  0.3694
  352MOL0     C47432   4.133   4.399   6.336  0.2859  0.6294 -0.4280
  352MOL0     O47433   4.433   4.671   6.269 -0.1443 -0.4928  0.2611
  352MOL0     C47434   4.656   4.455   6.384 -0.1334 -0.3873 -0.3123
  352MOL0     C47435   4.794   4.449   6.402  0.2467  0.0144 -0.6696
  352MOL0     N47436   5.510   4.564   6.554  0.0816 -0.3054  1.1917
  352MOL0     N47437   5.600   4.477   6.595  0.2252 -0.2325 -0.4356
  352MOL0     C47438   6.815   4.769   6.513  0.3963 -1.2472  0.1444
  352MOL0     C47439   6.944   4.803   6.464  0.9223 -0.8086 -0.3325
  352MOL0     C47440   7.390   4.784   6.329  0.3170 -0.6290 -0.0650
  352MOL0     C47441   7.374   4.884   6.230  0.0163 -0.1477  0.0200
  352MOL0     C47442   7.487   4.959   6.218  0.3616 -0.0840 -0.2455
  352MOL0     C47443   7.619   4.930   6.271  0.7175  0.2381  0.6382
  352MOL0     O47444   7.711   5.022   6.238  0.4871 -0.4335  0.3882
  352MOL0     C47445   7.830   5.017   6.307  0.6956  1.0319 -0.8421
  352MOL0     C47446   7.914   5.130   6.257 -0.1762  0.4381 -0.5605
  352MOL0     C47447   7.957   5.109   6.109  0.1384 -0.0135 -0.4546
  352MOL0     C47448   8.096   5.162   6.084  0.5249 -0.5958  1.3484
  352MOL0     C47449   8.092   5.303   6.087  0.5001 -1.5118  0.5923
  352MOL0     C47450   8.080   5.425   6.096  0.6693 -0.1201  0.3345
  352MOL0     C47451   7.628   4.818   6.348  0.4936  0.3502 -0.2862
  352MOL0     C47452   7.514   4.746   6.379  0.8957  0.2676 -0.8331
  352MOL0     H47453   7.057   4.511   6.347  1.8987 -1.3200  2.9381
  352MOL0     H47454   6.844   4.434   6.462 -3.5315  0.6050  0.7496
  352MOL0     H47455   6.626   4.678   6.736  0.7650 -0.6550  0.0014
  352MOL0     H47456   6.546   4.738   6.575  1.1967  1.8366  0.4609
  352MOL0     H47457   6.479   4.470   6.708  0.2241 -0.4329  1.3427
  352MOL0     H47458   6.382   4.624   6.728  0.3033 -0.9885  0.5405
  352MOL0     H47459   6.365   4.635   6.472 -1.9215  0.0944  1.6844
  352MOL0     H47460   6.433   4.473   6.459 -1.4154 -0.9486 -1.8169
  352MOL0     H47461   6.247   4.399   6.621  1.7102  0.1474  0.3292
  352MOL0     H47462   6.169   4.555   6.604  0.5239  0.4977 -0.5703
  352MOL0     H47463   6.146   4.516   6.362  0.3700 -1.2006 -1.6315
  352MOL0     H47464   6.241   4.371   6.366 -0.5901 -0.4375  0.7802
  352MOL0     H47465   6.028   4.307   6.343  0.6318  1.3263 -0.8079
  352MOL0     H47466   6.067   4.264   6.514 -1.6403 -0.4733  0.0982
  352MOL0     H47467   5.941   4.462   6.593 -2.5606  2.8751 -1.0682
  352MOL0     H47468   5.916   4.516   6.429  0.4771  0.8501  1.9239
  352MOL0     H47469   5.799   4.294   6.587 -3.1337  1.6617  0.9970
  352MOL0     H47470   5.796   4.273   6.417  0.0219  1.8982 -0.7578
  352MOL0     H47471   5.655   4.452   6.274 -1.7405  2.8320 -1.4342
  352MOL0     H47472   5.445   4.715   6.278  0.6056 -0.1154 -0.8715
  352MOL0     H47473   5.427   4.551   6.214  1.8071 -1.5297 -0.1608
  352MOL0     H47474   5.224   4.670   6.297  0.2563  1.5822  1.9617
  352MOL0     H47475   5.286   4.679   6.456 -0.9847  0.5044 -0.0030
  352MOL0     H47476   5.269   4.429   6.491 -2.2529 -0.7454  0.5466
  352MOL0     H47477   5.254   4.399   6.325 -2.2240 -2.4129  1.6561
  352MOL0     H47478   5.054   4.545   6.506  1.5082  2.3270 -1.9599
  352MOL0     H47479   5.058   4.376   6.460 -1.6490  0.2803  0.2727
  352MOL0     H47480   4.860   4.554   6.083 -1.1371  5.2574  0.3414
  352MOL0     H47481   4.525   4.607   6.025  0.5007 -2.2073 -2.4055
  352MOL0     H47482   4.678   4.710   6.043  1.7162  0.2845  0.7001
  352MOL0     H47483   4.681   4.563   5.949 -1.8274 -0.0375 -0.0290
  352MOL0     H47484   4.251   4.693   6.456 -0.6855  0.4318  0.9618
  352MOL0     H47485   4.022   4.745   6.448 -1.6902  0.2787 -4.8052
  352MOL0     H47486   3.797   4.739   6.532 -3.3481 -0.0765 -0.9651
  352MOL0     H47487   3.845   4.784   6.361  1.6972  2.2638  0.9249
  352MOL0     H47488   3.632   4.690   6.275 -0.3510  0.8996 -0.6947
  352MOL0     H47489   3.581   4.658   6.438 -0.6554 -1.7005 -2.4790
  352MOL0     H47490   3.622   4.939   6.321  0.1345  1.6077  1.1939
  352MOL0     H47491   3.619   4.896   6.493  1.4131 -2.1494 -0.3335
  352MOL0     H47492   3.422   4.846   6.263 -2.4156  4.7550 -0.0788
  352MOL0     H47493   3.388   4.771   6.433 -0.5161 -0.7882 -0.8212
  352MOL0     H47494   3.377   5.041   6.337  0.7692  3.1228  3.2320
  352MOL0     H47495   3.398   5.002   6.516 -1.7064 -0.0273  0.9157
  352MOL0     H47496   3.166   4.962   6.329 -0.7533 -0.0349  0.1786
  352MOL0     H47497   3.184   4.855   6.475 -0.9589  2.2043  2.5900
  352MOL0     H47498   3.199   5.092   6.603 -0.4133  1.5379  0.5437
  352MOL0     H47499   3.047   5.007   6.572 -0.2639 -0.9326 -3.0640
  352MOL0     H47500   3.153   5.231   6.390  1.8186 -1.1206  1.7749
  352MOL0     H47501   3.036   5.248   6.512  1.0163  0.7186 -0.7812
  352MOL0     H47502   3.922   4.364   6.294  1.0174 -0.6313 -0.9381
  352MOL0     H47503   4.175   4.303   6.309  1.8295  1.2541 -0.3977
  352MOL0     H47504   4.595   4.431   6.470  3.0522 -2.1864  1.6598
  352MOL0     H47505   4.828   4.416   6.499 -1.1262  0.7479  0.0860
  352MOL0     H47506   6.746   4.849   6.538  1.6897  0.0240 -0.2158
  352MOL0     H47507   6.967   4.909   6.459 -0.0301 -0.5903 -0.2957
  352MOL0     H47508   7.281   4.892   6.175 -1.5107 -4.3565  1.5572
  352MOL0     H47509   7.483   5.049   6.156 -1.5761  1.3493  1.8277
  352MOL0     H47510   7.801   5.018   6.412 -2.6807 -2.9276 -1.4736
  352MOL0     H47511   7.871   4.915   6.299  0.3914  1.0605 -4.4893
  352MOL0     H47512   8.006   5.141   6.316 -0.7685 -0.1779  0.4979
  352MOL0     H47513   7.857   5.223   6.268 -0.4701  0.2307 -0.3241
  352MOL0     H47514   7.877   5.144   6.043  0.9923 -1.4150 -2.2912
  352MOL0     H47515   7.970   5.002   6.089 -1.4018 -0.7142  1.8672
  352MOL0     H47516   8.135   5.133   5.985  3.1481  1.0013  1.8040
  352MOL0     H47517   8.171   5.138   6.160 -0.1399  1.1641  2.6412
  352MOL0     H47518   8.073   5.531   6.088  3.7429  0.0341 -2.6730
  352MOL0     H47519   7.720   4.780   6.391 -1.9147 -3.1284  2.3890
  352MOL0     H47520   7.513   4.661   6.447 -3.9814  1.6006  1.1228
  353MOL0     O47521  10.447   4.290   1.835 -0.3617  0.4316 -0.5427
  353MOL0     C47522  10.511   4.397   1.849  0.2271  0.2553 -0.6487
  353MOL0     O47523  10.456   4.516   1.900 -1.0162  0.1022  0.3759
  353MOL0     C47524  10.323   4.516   1.936  0.6675 -0.7627  0.4887
  353MOL0     C47525  10.215   4.483   1.850 -0.2731 -1.5772  0.0236
  353MOL0     C47526  10.084   4.500   1.889 -0.2429  0.2015  0.1876
  353MOL0     C47527  10.053   4.560   2.010 -0.1867 -0.3797 -0.4925
  353MOL0     O47528   9.924   4.585   2.055 -0.1746 -0.1100  0.1123
  353MOL0     C47529   9.818   4.574   1.966 -0.6216 -0.4358  0.2001
  353MOL0     C47530   9.725   4.696   1.994  0.1959  0.3695  0.0077
  353MOL0     C47531   9.597   4.686   1.915  0.0404 -0.5496 -1.0082
  353MOL0     C47532   9.502   4.597   1.991  0.8871 -0.2863  1.3123
  353MOL0     C47533   9.375   4.555   1.907  0.1467  1.0827 -0.0273
  353MOL0     C47534   9.291   4.661   1.843 -0.3289 -0.4752 -0.4098
  353MOL0     C47535   9.161   4.603   1.798  0.5832 -0.2815  0.4507
  353MOL0     C47536   9.167   4.491   1.696 -0.3301 -0.5314 -0.0786
  353MOL0     N47537   9.035   4.468   1.630  0.4470  0.7408 -0.7206
  353MOL0     C47538   8.924   4.443   1.704  0.4923  0.5148 -0.0506
  353MOL0     C47539   8.822   4.434   1.611  0.4480  0.3979 -0.2761
  353MOL0     C47540   8.677   4.418   1.643  0.4986  0.0723 -0.6752
  353MOL0     C47541   8.594   4.546   1.622  0.4699  0.2010  0.9913
  353MOL0     C47542   8.616   4.665   1.713  0.2179  0.3285  0.2529
  353MOL0     C47543   8.530   4.784   1.672  0.3083 -0.3423 -0.1789
  353MOL0     O47544   8.397   4.736   1.680  0.0654  0.0105  0.0527
  353MOL0     C47545   8.292   4.803   1.619 -0.4540  0.0015  0.0210
  353MOL0     C47546   8.188   4.727   1.571  0.0041  0.0056 -0.0666
  353MOL0     C47547   8.088   4.779   1.488  0.0806 -0.7461 -0.1379
  353MOL0     C47548   7.996   4.681   1.440 -0.0618 -0.3693 -0.4008
  353MOL0     C47549   8.089   4.917   1.457 -0.9913 -0.0799 -0.0210
  353MOL0     C47550   7.976   4.978   1.381  0.0060  0.3694 -0.0828
  353MOL0     O47551   8.012   5.100   1.324 -0.3799 -0.3199 -0.5132
  353MOL0     C47552   7.920   5.167   1.245 -0.6109 -0.2339  0.1421
  353MOL0     C47553   7.873   5.283   1.297 -0.7542 -1.0594  0.3271
  353MOL0     C47554   7.803   5.366   1.215  0.0101  0.1290 -0.0129
  353MOL0     C47555   7.767   5.335   1.078  0.0055 -0.3345  0.3576
  353MOL0     O47556   7.677   5.389   0.990  0.1049  0.0885 -0.0449
  353MOL0     C47557   7.568   5.448   1.059  0.4325  0.4947  0.2401
  353MOL0     C47558   7.467   5.491   0.952  0.1812  0.2150  0.0370
  353MOL0     C47559   7.411   5.365   0.878  0.3038 -0.2566  0.5315
  353MOL0     C47560   7.301   5.400   0.775 -0.2316 -1.1580 -0.2303
  353MOL0     C47561   7.352   5.487   0.651 -0.3836  0.1451 -0.4711
  353MOL0     C47562   7.252   5.484   0.528 -0.6483 -0.7405 -0.4679
  353MOL0     C47563   7.111   5.517   0.569  0.5413  0.5244  0.7390
  353MOL0     C47564   7.028   5.517   0.440  0.6500  0.6909  0.5065
  353MOL0    Cl47565   6.852   5.502   0.494 -0.3962  0.0913  0.1976
  353MOL0     C47566   7.812   5.211   1.024  0.0335 -0.7034 -0.0980
  353MOL0     C47567   7.893   5.134   1.110 -1.0686  0.9915  0.6505
  353MOL0     O47568   7.866   4.922   1.384  0.7146  0.1823 -0.5462
  353MOL0     C47569   8.196   4.996   1.515  0.0603  0.0388 -0.2100
  353MOL0     C47570   8.297   4.942   1.590 -0.2779 -0.5402 -0.6791
  353MOL0     N47571   8.875   4.436   1.486  0.3433  0.1887  0.1874
  353MOL0     N47572   9.001   4.468   1.501 -0.0034  0.6092 -0.7512
  353MOL0     C47573  10.156   4.594   2.100 -0.2208  0.1467 -0.6666
  353MOL0     C47574  10.288   4.573   2.061 -0.4955 -0.1921  0.2252
  353MOL0     C47575  10.651   4.404   1.799  0.5596  0.2957  0.1981
  353MOL0     C47576  10.717   4.297   1.727 -0.1901  0.0140 -0.4159
  353MOL0     C47577  10.850   4.308   1.682  0.4586  0.6866  0.0199
  353MOL0     C47578  10.899   4.432   1.675 -0.2851  0.6713 -0.0298
  353MOL0     O47579  11.020   4.451   1.615  0.1734 -0.0254  0.4313
  353MOL0     C47580  11.129   4.504   1.706 -0.6392  0.2228 -0.0114
  353MOL0     C47581  11.263   4.504   1.628  0.0062  0.5832  0.8580
  353MOL0     C47582  11.301   4.361   1.578  0.2639  0.7457  0.4063
  353MOL0     C47583  11.432   4.358   1.505  0.5134 -0.1363  1.0140
  353MOL0     C47584  11.426   4.442   1.379 -0.2808 -0.4382  0.1898
  353MOL0     C47585  11.433   4.513   1.281  0.4987  0.9122  0.4903
  353MOL0     C47586  10.838   4.540   1.739  0.0994 -0.2207 -0.1069
  353MOL0     C47587  10.718   4.528   1.808  0.1473  0.0084  0.1016
  353MOL0     H47588  10.232   4.453   1.747 -2.7250  1.6179 -1.5047
  353MOL0     H47589  10.010   4.477   1.812 -0.3883 -0.6517  0.5773
  353MOL0     H47590   9.848   4.576   1.861  0.6555 -0.3603  0.5568
  353MOL0     H47591   9.776   4.476   1.994  0.9005 -0.3208  3.2204
  353MOL0     H47592   9.701   4.698   2.101 -4.2810 -2.9204 -0.6236
  353MOL0     H47593   9.783   4.783   1.964 -0.7747  1.7637  1.9419
  353MOL0     H47594   9.552   4.785   1.911  0.8292  0.0140  1.9556
  353MOL0     H47595   9.611   4.655   1.811 -2.2532 -0.3746 -1.4240
  353MOL0     H47596   9.546   4.500   2.015 -1.7786 -1.4705  1.7000
  353MOL0     H47597   9.457   4.642   2.080  1.0696  2.1598  0.2537
  353MOL0     H47598   9.406   4.499   1.818 -2.4778 -0.9067  0.2184
  353MOL0     H47599   9.316   4.481   1.960  2.0102 -2.0848 -2.0024
  353MOL0     H47600   9.271   4.745   1.910 -0.4141 -1.4121  0.7741
  353MOL0     H47601   9.339   4.701   1.753 -0.5949  1.2284  0.1711
  353MOL0     H47602   9.110   4.555   1.882  1.6607 -3.8158 -0.7354
  353MOL0     H47603   9.105   4.689   1.761  3.0163  0.7399 -1.0880
  353MOL0     H47604   9.206   4.399   1.739  0.2427 -1.1100 -1.7465
  353MOL0     H47605   9.244   4.526   1.626 -2.2214  4.0595 -0.2217
  353MOL0     H47606   8.908   4.450   1.811 -1.8569  0.5264 -0.3549
  353MOL0     H47607   8.631   4.335   1.589  0.5963 -1.6362  1.7308
  353MOL0     H47608   8.670   4.380   1.745  1.8019 -1.1979 -1.0335
  353MOL0     H47609   8.487   4.527   1.633 -0.2352  2.8599 -0.4954
  353MOL0     H47610   8.611   4.572   1.517  1.0117 -1.4524  0.6370
  353MOL0     H47611   8.717   4.708   1.705  0.0293  2.0038  4.3115
  353MOL0     H47612   8.611   4.637   1.818  0.1400 -1.7387 -0.2589
  353MOL0     H47613   8.549   4.826   1.573 -1.9588 -2.2248 -1.5388
  353MOL0     H47614   8.545   4.868   1.741  0.8819 -0.4209 -0.2017
  353MOL0     H47615   8.208   4.622   1.586  1.6989  0.4510  1.0934
  353MOL0     H47616   8.053   4.588   1.439  1.5789  0.6008 -0.0824
  353MOL0     H47617   7.904   4.681   1.499  0.5003 -1.0682  0.5070
  353MOL0     H47618   7.981   4.693   1.333  3.1045 -0.1018 -0.8969
  353MOL0     H47619   7.888   5.309   1.401  0.8248  0.4252 -0.2166
  353MOL0     H47620   7.767   5.457   1.261  1.2877  1.3183 -1.2342
  353MOL0     H47621   7.505   5.385   1.122 -0.2689 -0.5282 -1.4176
  353MOL0     H47622   7.599   5.536   1.116  0.3465  0.5290  0.2348
  353MOL0     H47623   7.389   5.553   0.994  0.4167  0.6700 -0.1860
  353MOL0     H47624   7.513   5.546   0.869  0.0937  1.0749  0.5599
  353MOL0     H47625   7.371   5.288   0.944  0.5892 -0.0858  0.9064
  353MOL0     H47626   7.490   5.315   0.821  0.6132  2.4016 -1.5885
  353MOL0     H47627   7.260   5.307   0.732 -3.7558  1.5379 -3.4094
  353MOL0     H47628   7.213   5.444   0.823 -1.3559 -1.1517 -2.1520
  353MOL0     H47629   7.449   5.454   0.614  0.3302 -1.6914  2.6187
  353MOL0     H47630   7.377   5.584   0.695 -1.2599  0.3049 -0.3012
  353MOL0     H47631   7.286   5.551   0.449 -0.2028 -1.8751 -1.2569
  353MOL0     H47632   7.267   5.382   0.491  2.3341 -0.4695 -0.2460
  353MOL0     H47633   7.100   5.617   0.613 -0.0943  0.2624  1.1919
  353MOL0     H47634   7.077   5.443   0.642 -1.2581 -2.1449 -2.5441
  353MOL0     H47635   7.051   5.434   0.373 -2.2518 -0.0872  0.3166
  353MOL0     H47636   7.039   5.613   0.388 -1.1862  1.1008  0.7859
  353MOL0     H47637   7.793   5.189   0.920  1.4238  1.0028 -0.7637
  353MOL0     H47638   7.948   5.042   1.090 -0.4870  1.0678  1.8500
  353MOL0     H47639   8.184   5.102   1.492  1.1991  0.8392  2.5761
  353MOL0     H47640   8.366   5.010   1.638 -3.2171  1.7888  0.5701
  353MOL0     H47641  10.144   4.624   2.203  2.0333  1.8073 -0.8106
  353MOL0     H47642  10.359   4.610   2.135 -0.5567  0.3177  0.0345
  353MOL0     H47643  10.678   4.197   1.719  0.8642 -0.4068 -0.4420
  353MOL0     H47644  10.890   4.234   1.614  1.0964  1.4409 -0.4506
  353MOL0     H47645  11.111   4.610   1.728  0.4829  0.3875  0.1648
  353MOL0     H47646  11.115   4.447   1.799  0.4399 -1.4588 -0.8308
  353MOL0     H47647  11.341   4.549   1.689  1.2182  0.7153 -0.7335
  353MOL0     H47648  11.250   4.578   1.548  0.3157  0.5726  0.7979
  353MOL0     H47649  11.222   4.319   1.514  1.3315  1.5247 -1.5084
  353MOL0     H47650  11.306   4.298   1.667 -3.8459  0.4731  0.6124
  353MOL0     H47651  11.462   4.254   1.489  1.5878  0.1799  0.8523
  353MOL0     H47652  11.513   4.400   1.566  1.7863  0.5660 -1.0376
  353MOL0     H47653  11.420   4.576   1.195 -0.2778 -0.4481 -0.4036
  353MOL0     H47654  10.885   4.637   1.732 -0.2259  0.1030  1.6387
  353MOL0     H47655  10.680   4.622   1.846  0.0968 -0.3919  1.0725
  354MOL0     O47656   2.929  10.972   9.818 -0.8515  0.1173  0.1737
  354MOL0     C47657   3.033  10.934   9.869 -0.2262  0.3211 -0.9185
  354MOL0     O47658   3.045  10.877  10.000  0.4311 -0.9940 -0.2147
  354MOL0     C47659   2.927  10.852  10.072  0.4030  0.1969 -0.0375
  354MOL0     C47660   2.862  10.944  10.152  0.7534  0.3152  0.5521
  354MOL0     C47661   2.748  10.923  10.218 -0.5533  0.1752 -0.4152
  354MOL0     C47662   2.688  10.792  10.206 -0.6871 -0.1685  0.0893
  354MOL0     O47663   2.582  10.748  10.280  0.7363  0.1818  0.4491
  354MOL0     C47664   2.482  10.831  10.332 -0.5254  0.0537  0.2142
  354MOL0     C47665   2.398  10.752  10.433  0.0132 -0.1852 -0.6044
  354MOL0     C47666   2.289  10.838  10.497  0.1987  0.3356  0.3406
  354MOL0     C47667   2.210  10.746  10.599  0.1351 -0.5465  1.1140
  354MOL0     C47668   2.071  10.737  10.539 -0.8143  0.0266 -0.0817
  354MOL0     C47669   2.007  10.613  10.600 -0.0265 -0.1723  0.1625
  354MOL0     C47670   1.860  10.596  10.542  0.4545  0.3491 -0.4406
  354MOL0     C47671   1.789  10.487  10.631 -0.4428 -0.7485 -0.1054
  354MOL0     N47672   1.672  10.444  10.559  0.1379 -0.0216 -0.8461
  354MOL0     C47673   1.670  10.360  10.451  0.5720 -0.6137 -0.4320
  354MOL0     C47674   1.544  10.362  10.406  0.1984 -0.0226  0.0253
  354MOL0     C47675   1.490  10.292  10.290  0.3204  0.6107 -0.6823
  354MOL0     C47676   1.477  10.366  10.163 -1.1507 -0.5377 -0.2541
  354MOL0     C47677   1.366  10.329  10.071  0.2287  0.4961 -0.2346
  354MOL0     C47678   1.397  10.373   9.935  0.3235 -0.0625  0.2708
  354MOL0     O47679   1.391  10.517   9.929 -0.3523 -0.7983 -0.4675
  354MOL0     C47680   1.286  10.601   9.966 -0.1707 -0.6903 -0.3472
  354MOL0     C47681   1.323  10.717  10.032 -0.5650 -0.0829 -0.7504
  354MOL0     C47682   1.219  10.813  10.048 -0.9379  0.1293  0.9037
  354MOL0     C47683   1.267  10.940  10.111 -0.0661 -0.2910 -0.0613
  354MOL0     C47684   1.078  10.778  10.009  0.5313  0.1122  0.9555
  354MOL0     C47685   0.971  10.874  10.015  0.3535 -0.4089  0.7360
  354MOL0     O47686   0.873  10.863   9.925  0.3701  0.2776 -0.1523
  354MOL0     C47687   0.765  10.957   9.930 -0.0901  0.7141  0.3963
  354MOL0     C47688   0.777  11.096   9.954  0.6099  0.1531  0.7872
  354MOL0     C47689   0.657  11.175   9.952  0.4359  0.2296  0.3196
  354MOL0     C47690   0.529  11.125   9.922 -0.2143  0.8575 -0.7440
  354MOL0     O47691   0.430  11.213   9.903 -0.0127 -0.2138  0.4777
  354MOL0     C47692   0.306  11.185   9.834  0.2657 -0.2573  0.0837
  354MOL0     C47693   0.221  11.311   9.808 -0.3739 -0.6465  0.1142
  354MOL0     C47694   0.195  11.389   9.930 -0.4337  0.0721 -0.5668
  354MOL0     C47695   0.146  11.528   9.907 -0.1086  0.2582  1.3123
  354MOL0     C47696   0.012  11.553   9.844  0.3689  0.3799 -0.6559
  354MOL0     C47697   0.009  11.700   9.798 -0.5319  0.1393  0.1065
  354MOL0     C47698  -0.132  11.741   9.740  0.0343  0.4365 -0.8443
  354MOL0     C47699  -0.181  11.652   9.624  0.6988  0.1712  0.3580
  354MOL0    Cl47700  -0.269  11.513   9.686  0.2754 -0.3528 -0.2157
  354MOL0     C47701   0.527  10.986   9.896 -0.1603 -0.3467 -0.7355
  354MOL0     C47702   0.640  10.903   9.901  0.1693 -0.2717 -0.0548
  354MOL0     O47703   0.971  10.958  10.111 -0.3553  0.3094 -0.1004
  354MOL0     C47704   1.047  10.646   9.970  0.4977 -0.4682  0.2222
  354MOL0     C47705   1.156  10.562   9.940  0.3285  0.7917  0.0240
  354MOL0     N47706   1.475  10.445  10.493 -0.2430 -0.4499  0.1044
  354MOL0     N47707   1.552  10.509  10.575 -0.7457 -0.5207 -0.4255
  354MOL0     C47708   2.753  10.702  10.132  0.1878  0.0945 -0.0134
  354MOL0     C47709   2.870  10.723  10.068  1.1275 -0.8019  0.1114
  354MOL0     C47710   3.158  10.950   9.793  0.2530  0.0228  0.6638
  354MOL0     C47711   3.284  10.931   9.863 -0.6563 -0.4277 -0.0670
  354MOL0     C47712   3.405  10.948   9.790  0.1283 -0.1669 -0.4984
  354MOL0     C47713   3.405  10.962   9.647 -0.3175  0.6721 -1.1522
  354MOL0     O47714   3.519  10.958   9.573  1.1961  0.6341  0.5587
  354MOL0     C47715   3.646  10.928   9.627  0.8230  0.5773  0.0123
  354MOL0     C47716   3.743  10.959   9.512  0.1387 -0.1248  0.2174
  354MOL0     C47717   3.875  10.997   9.574 -0.7084  0.3926  0.0685
  354MOL0     C47718   3.987  11.052   9.472  0.2840 -0.6538 -0.0299
  354MOL0     C47719   4.036  10.940   9.385 -0.8943 -0.5974 -0.5102
  354MOL0     C47720   4.072  10.845   9.316 -0.5710  0.3682  0.0211
  354MOL0     C47721   3.284  10.987   9.587  0.0920  0.4466 -0.2340
  354MOL0     C47722   3.159  10.979   9.654  0.1518 -0.9047  0.0932
  354MOL0     H47723   2.905  11.044  10.157  1.9369 -0.1654  0.4471
  354MOL0     H47724   2.688  10.995  10.272 -2.5584 -2.2264  0.7681
  354MOL0     H47725   2.533  10.916  10.379  2.9206 -1.9759  0.4721
  354MOL0     H47726   2.412  10.861  10.253  0.0432  0.0231 -0.3107
  354MOL0     H47727   2.339  10.680  10.375  0.0818 -2.7851  2.3332
  354MOL0     H47728   2.460  10.703  10.509  0.1893 -1.5965 -1.6238
  354MOL0     H47729   2.336  10.915  10.559  1.9583 -1.1836  0.9737
  354MOL0     H47730   2.227  10.882  10.418  1.3729  1.5046  0.0339
  354MOL0     H47731   2.256  10.647  10.604  0.5726 -0.4078  0.1500
  354MOL0     H47732   2.219  10.782  10.701  0.2215  0.7955  0.6561
  354MOL0     H47733   2.012  10.822  10.576  0.9394  0.6167  1.4850
  354MOL0     H47734   2.073  10.739  10.430  2.9508 -0.8081 -0.1605
  354MOL0     H47735   2.064  10.526  10.566 -3.5017 -1.9437 -1.6222
  354MOL0     H47736   2.014  10.633  10.708 -0.5642  2.1671 -0.1772
  354MOL0     H47737   1.810  10.694  10.542 -0.4282 -0.0895  0.6014
  354MOL0     H47738   1.854  10.567  10.437 -0.2863  0.2156 -0.3627
  354MOL0     H47739   1.780  10.532  10.730  1.3349 -1.1193  0.2669
  354MOL0     H47740   1.847  10.395  10.644  1.0357  0.3445  1.3693
  354MOL0     H47741   1.751  10.302  10.407  2.2061 -1.1118  2.8916
  354MOL0     H47742   1.555  10.206  10.270 -1.1413 -0.8082  0.4294
  354MOL0     H47743   1.390  10.266  10.327  0.5938  1.1538  0.4940
  354MOL0     H47744   1.574  10.348  10.116 -1.1472 -0.9669 -0.0935
  354MOL0     H47745   1.473  10.474  10.174  2.4796 -0.1552 -1.3480
  354MOL0     H47746   1.268  10.371  10.095 -1.7160 -2.1940 -2.6120
  354MOL0     H47747   1.357  10.220  10.073  0.9780  0.4168 -0.8075
  354MOL0     H47748   1.324  10.330   9.866 -2.4262 -0.5038  3.2695
  354MOL0     H47749   1.490  10.331   9.895 -0.1381 -0.8046 -0.0315
  354MOL0     H47750   1.426  10.729  10.064 -0.5967 -0.8636 -0.3422
  354MOL0     H47751   1.221  10.959  10.208 -2.7882 -0.4870 -1.2379
  354MOL0     H47752   1.372  10.926  10.142 -0.4000 -1.5984  0.5513
  354MOL0     H47753   1.248  11.022  10.042  0.9325 -0.5008 -0.6087
  354MOL0     H47754   0.873  11.147   9.958  1.7363 -1.7481 -0.3309
  354MOL0     H47755   0.658  11.284   9.959  0.5843  0.3422 -1.0624
  354MOL0     H47756   0.333  11.158   9.731  3.0705 -1.2968  0.9986
  354MOL0     H47757   0.239  11.109   9.876  1.4414 -2.5892 -1.9880
  354MOL0     H47758   0.274  11.379   9.741 -0.1960  1.7483  2.5438
  354MOL0     H47759   0.128  11.283   9.756 -0.1197 -1.2936 -0.0089
  354MOL0     H47760   0.285  11.392   9.992 -0.2367  2.3339 -0.8644
  354MOL0     H47761   0.117  11.329   9.977 -0.1650 -1.1586 -1.6377
  354MOL0     H47762   0.151  11.592   9.996 -1.1192  0.8040  0.9888
  354MOL0     H47763   0.224  11.574   9.844 -1.3435 -0.3366 -0.7456
  354MOL0     H47764  -0.072  11.529   9.910  0.6029 -2.4607 -1.2795
  354MOL0     H47765   0.028  11.484   9.761  2.0676  1.4484 -1.2822
  354MOL0     H47766   0.029  11.770   9.879  0.1773 -0.0167  0.0666
  354MOL0     H47767   0.078  11.706   9.713 -2.2796 -2.7210 -1.6832
  354MOL0     H47768  -0.131  11.848   9.720 -0.1370  0.2550 -1.8381
  354MOL0     H47769  -0.201  11.729   9.824  1.0497 -0.3918 -0.0898
  354MOL0     H47770  -0.090  11.618   9.574  2.3692 -0.3759  3.5134
  354MOL0     H47771  -0.238  11.698   9.543 -1.0821 -2.1058  0.1862
  354MOL0     H47772   0.431  10.936   9.882 -0.4276 -0.0605  0.0080
  354MOL0     H47773   0.630  10.804   9.858 -0.1167  0.6274 -2.2377
  354MOL0     H47774   0.946  10.620   9.939 -0.0921 -0.3479  1.9233
  354MOL0     H47775   1.137  10.472   9.883 -0.5701  1.0529 -0.1072
  354MOL0     H47776   2.707  10.607  10.106 -0.0560  0.4993 -1.1644
  354MOL0     H47777   2.914  10.646  10.006 -0.4519 -2.1118  0.5667
  354MOL0     H47778   3.282  10.923   9.971 -3.1447  0.7277  0.0327
  354MOL0     H47779   3.492  10.948   9.855  0.3045 -1.2257 -0.7087
  354MOL0     H47780   3.680  10.990   9.711  5.0921 -1.0385 -0.2694
  354MOL0     H47781   3.660  10.823   9.654 -1.2149 -0.1162 -1.4002
  354MOL0     H47782   3.700  11.035   9.445 -1.4748 -0.1516  1.1530
  354MOL0     H47783   3.751  10.870   9.450 -1.2804 -1.8877  2.4153
  354MOL0     H47784   3.912  10.907   9.624  1.9982 -0.7377 -3.5846
  354MOL0     H47785   3.843  11.074   9.645 -0.7015  0.7122 -0.2744
  354MOL0     H47786   4.084  11.087   9.508  0.9650 -2.4143 -0.0203
  354MOL0     H47787   3.949  11.136   9.414  1.4868 -0.6081 -0.7864
  354MOL0     H47788   4.114  10.760   9.267  0.9109  1.5627 -0.8707
  354MOL0     H47789   3.277  11.005   9.480 -1.4417 -0.1816 -0.2636
  354MOL0     H47790   3.064  10.999   9.607  0.8177 -0.5064 -1.1473
  355MOL0     O47791   4.190   9.702   7.762  0.3776  0.0916 -0.0314
  355MOL0     C47792   4.258   9.624   7.693 -0.4379 -0.1944 -0.3271
  355MOL0     O47793   4.214   9.507   7.635  0.1179 -0.0074  0.6755
  355MOL0     C47794   4.084   9.480   7.650 -0.1916 -0.4988  0.2594
  355MOL0     C47795   3.986   9.566   7.587 -0.1328  1.2708 -0.0552
  355MOL0     C47796   3.848   9.547   7.611 -0.2943  0.1640 -0.3865
  355MOL0     C47797   3.810   9.435   7.690 -0.0704 -0.1559  0.1658
  355MOL0     O47798   3.680   9.406   7.717  0.0387 -0.0189  0.0437
  355MOL0     C47799   3.582   9.498   7.672  0.4220 -0.1367 -0.1364
  355MOL0     C47800   3.448   9.466   7.746  0.1679 -0.4341 -0.5619
  355MOL0     C47801   3.453   9.476   7.903 -0.6203 -0.1560  0.2824
  355MOL0     C47802   3.335   9.415   7.982  0.7738  0.0515 -0.6167
  355MOL0     C47803   3.205   9.484   7.935  0.4379  0.2423  0.3339
  355MOL0     C47804   3.096   9.442   8.023  0.2855  0.4796 -0.2618
  355MOL0     C47805   2.964   9.501   7.981 -0.2821  0.5344 -0.1917
  355MOL0     C47806   2.853   9.446   8.051 -0.1099 -0.5898 -0.5891
  355MOL0     N47807   2.726   9.498   7.998 -0.0468  0.2994  0.4194
  355MOL0     C47808   2.650   9.601   8.047 -0.4990  0.5553  0.7503
  355MOL0     C47809   2.554   9.622   7.952 -0.0729  0.7213  0.5464
  355MOL0     C47810   2.452   9.730   7.962  0.1591 -0.1261 -1.0320
  355MOL0     C47811   2.305   9.678   7.956  0.3884  0.5949 -0.2603
  355MOL0     C47812   2.205   9.783   7.904  0.2849  0.2490 -0.0416
  355MOL0     C47813   2.066   9.705   7.877  0.7118 -0.6092 -0.7061
  355MOL0     O47814   1.979   9.792   7.799 -0.0804  0.3630  0.1391
  355MOL0     C47815   1.843   9.775   7.798 -0.5825  0.6653  0.6014
  355MOL0     C47816   1.777   9.895   7.775 -0.1000  0.4866  0.3650
  355MOL0     C47817   1.635   9.909   7.770 -0.4912 -0.2207 -0.3476
  355MOL0     C47818   1.581  10.047   7.737 -0.2096 -0.1901  0.5618
  355MOL0     C47819   1.553   9.794   7.803 -0.7034  0.7111 -0.0043
  355MOL0     C47820   1.408   9.803   7.803  0.8101 -0.0634 -0.0805
  355MOL0     O47821   1.342   9.685   7.787  0.3254  0.1945 -0.4268
  355MOL0     C47822   1.208   9.670   7.768 -1.3335  1.0740 -0.6441
  355MOL0     C47823   1.142   9.575   7.851 -0.6153 -0.3003 -0.2666
  355MOL0     C47824   1.005   9.558   7.825 -0.1121  0.2236 -0.7747
  355MOL0     C47825   0.931   9.639   7.730 -0.4178  1.2919 -0.4213
  355MOL0     O47826   0.795   9.637   7.714  0.9501 -0.3690 -1.0185
  355MOL0     C47827   0.717   9.554   7.808  0.2770 -0.1924 -0.5132
  355MOL0     C47828   0.573   9.551   7.774 -0.5182  0.0161 -1.0087
  355MOL0     C47829   0.517   9.693   7.783 -0.0901 -0.7411  0.1405
  355MOL0     C47830   0.370   9.677   7.782  0.2246 -0.0494  0.0163
  355MOL0     C47831   0.303   9.815   7.811 -1.0003 -0.0552  0.0988
  355MOL0     C47832   0.163   9.816   7.862 -0.4710  0.0306  0.5251
  355MOL0     C47833   0.085   9.761   7.744 -0.3025 -0.4280  0.8551
  355MOL0     C47834  -0.063   9.792   7.785 -0.1002  0.0866  0.3000
  355MOL0    Cl47835  -0.176   9.736   7.669  0.3836 -0.2020 -0.3113
  355MOL0     C47836   1.001   9.726   7.652  0.1594  0.1401  0.0845
  355MOL0     C47837   1.138   9.738   7.668 -0.5244  0.0295  0.1500
  355MOL0     O47838   1.342   9.911   7.807  0.8801  0.2509  0.0125
  355MOL0     C47839   1.621   9.669   7.817  0.2395 -0.1719  0.9441
  355MOL0     C47840   1.764   9.655   7.813  0.2585 -0.4322 -0.1951
  355MOL0     N47841   2.571   9.531   7.849 -0.0429  0.1159  0.2536
  355MOL0     N47842   2.663   9.453   7.884 -0.5128  0.2293  0.1036
  355MOL0     C47843   3.908   9.350   7.750 -0.1043  0.0864  1.1430
  355MOL0     C47844   4.047   9.376   7.722 -0.3570 -0.2114  0.4187
  355MOL0     C47845   4.407   9.641   7.697  1.0675  0.4138  0.3464
  355MOL0     C47846   4.489   9.542   7.634 -0.3550  0.0822  0.4031
  355MOL0     C47847   4.620   9.573   7.610  0.9989 -0.3658 -0.3797
  355MOL0     C47848   4.675   9.687   7.665 -0.0820 -0.5221 -0.3543
  355MOL0     O47849   4.811   9.714   7.663  0.3581  0.0918 -0.4683
  355MOL0     C47850   4.885   9.674   7.544 -0.3004  0.9039  1.0204
  355MOL0     C47851   5.036   9.699   7.553 -0.2038  0.3769 -0.4052
  355MOL0     C47852   5.080   9.840   7.588 -0.0750  0.2098 -0.1781
  355MOL0     C47853   5.198   9.844   7.686 -0.1694  0.5469 -0.4492
  355MOL0     C47854   5.321   9.797   7.623 -0.2696 -0.7424 -0.2566
  355MOL0     C47855   5.411   9.747   7.568 -0.3762  0.7301  0.7067
  355MOL0     C47856   4.589   9.784   7.723  0.4195 -0.4356 -0.4182
  355MOL0     C47857   4.457   9.760   7.739 -0.5069 -0.5810 -1.1585
  355MOL0     H47858   4.017   9.649   7.525 -0.9975  0.0628 -2.2498
  355MOL0     H47859   3.778   9.618   7.566 -1.1349 -0.3094  0.1405
  355MOL0     H47860   3.602   9.605   7.685  0.0068  0.5509 -3.9150
  355MOL0     H47861   3.558   9.492   7.566 -2.8871  0.3318  0.5013
  355MOL0     H47862   3.379   9.543   7.710  0.3191  0.7373  1.5119
  355MOL0     H47863   3.407   9.373   7.707 -2.1535 -0.3744  1.4883
  355MOL0     H47864   3.549   9.446   7.944  1.6239  5.0617 -0.3491
  355MOL0     H47865   3.461   9.581   7.932  0.7977 -0.3947  0.8036
  355MOL0     H47866   3.330   9.306   7.988 -0.1887  0.1558  2.9844
  355MOL0     H47867   3.345   9.452   8.085  0.9985 -2.3344  0.2978
  355MOL0     H47868   3.215   9.593   7.935  0.6571  0.3082 -2.3686
  355MOL0     H47869   3.185   9.448   7.834  2.0896 -1.2556  0.4850
  355MOL0     H47870   3.088   9.336   8.049 -1.6011  1.2027  2.6472
  355MOL0     H47871   3.120   9.489   8.119  2.5241 -0.0323 -0.5139
  355MOL0     H47872   2.962   9.609   8.001 -4.7794  0.7172 -0.6669
  355MOL0     H47873   2.952   9.499   7.873  1.6676  2.9919 -0.5579
  355MOL0     H47874   2.868   9.466   8.158 -0.9518 -0.0728 -0.5586
  355MOL0     H47875   2.852   9.336   8.052  0.7278 -0.6443 -2.3266
  355MOL0     H47876   2.668   9.657   8.138  1.7921 -3.1861  2.8587
  355MOL0     H47877   2.468   9.780   8.058  2.8758 -1.7547 -0.5055
  355MOL0     H47878   2.472   9.807   7.887 -0.9519  1.2285  0.0071
  355MOL0     H47879   2.282   9.635   8.054  0.5038  0.1865 -0.4080
  355MOL0     H47880   2.311   9.601   7.878  1.9872 -0.9889  1.3179
  355MOL0     H47881   2.238   9.835   7.814  1.6273 -1.4047 -0.5493
  355MOL0     H47882   2.181   9.859   7.979 -0.0400 -0.0401  0.1546
  355MOL0     H47883   2.023   9.691   7.977  0.3388 -1.9490 -1.0319
  355MOL0     H47884   2.086   9.612   7.824  2.8521  0.4319 -1.8408
  355MOL0     H47885   1.838   9.984   7.776  0.2156  0.3533 -1.5747
  355MOL0     H47886   1.658  10.118   7.707 -1.4955  0.9655 -0.0850
  355MOL0     H47887   1.512  10.047   7.652 -0.1801  1.7873  0.5097
  355MOL0     H47888   1.534  10.081   7.830 -1.3520 -2.6361  0.9626
  355MOL0     H47889   1.199   9.510   7.916 -0.0679 -0.5884 -1.0098
  355MOL0     H47890   0.956   9.473   7.872 -1.7692  1.4027 -0.2815
  355MOL0     H47891   0.739   9.447   7.799 -2.2378 -0.9081  0.8746
  355MOL0     H47892   0.732   9.591   7.910  3.9852  2.2006 -1.7428
  355MOL0     H47893   0.559   9.508   7.674  3.3679 -0.8310 -1.3331
  355MOL0     H47894   0.533   9.486   7.853  0.4034 -1.1520 -1.4664
  355MOL0     H47895   0.565   9.753   7.705  0.1200  2.5192  2.5631
  355MOL0     H47896   0.543   9.748   7.875 -1.7643  0.4530 -0.0562
  355MOL0     H47897   0.342   9.645   7.681  0.0654 -1.2706  0.4332
  355MOL0     H47898   0.338   9.602   7.855  3.0212 -1.0458  0.3422
  355MOL0     H47899   0.303   9.871   7.717 -0.4177 -0.9263 -0.4339
  355MOL0     H47900   0.353   9.877   7.887 -2.6214  0.0162  1.1749
  355MOL0     H47901   0.158   9.762   7.958  1.3378  0.1059  0.7041
  355MOL0     H47902   0.133   9.921   7.869  0.4925  0.4228 -0.9124
  355MOL0     H47903   0.098   9.656   7.715 -0.9959  0.2673 -2.3447
  355MOL0     H47904   0.103   9.816   7.652 -0.7747  2.1270  2.2159
  355MOL0     H47905  -0.053   9.901   7.791  2.6523 -0.0837  0.3090
  355MOL0     H47906  -0.083   9.748   7.883  2.6701  1.0939  1.4320
  355MOL0     H47907   0.953   9.792   7.581  2.9534  0.7880 -1.3343
  355MOL0     H47908   1.195   9.811   7.612  0.5804 -0.8602  0.0665
  355MOL0     H47909   1.562   9.580   7.837 -2.1536  1.3828  1.2197
  355MOL0     H47910   1.809   9.560   7.838 -0.4310 -0.3398  1.5740
  355MOL0     H47911   3.877   9.264   7.809 -2.2170 -0.1130 -0.1638
  355MOL0     H47912   4.128   9.308   7.746  0.5346  1.0294  1.0504
  355MOL0     H47913   4.446   9.453   7.589  1.9477  0.1787 -2.2358
  355MOL0     H47914   4.678   9.507   7.546  0.3583  1.0820 -2.6111
  355MOL0     H47915   4.868   9.574   7.504 -1.7004  1.5809 -0.1713
  355MOL0     H47916   4.870   9.756   7.474  4.9752  1.6769  0.3229
  355MOL0     H47917   5.082   9.678   7.456 -1.6133 -2.8644 -0.5157
  355MOL0     H47918   5.089   9.624   7.613  0.5068  1.2221  0.0359
  355MOL0     H47919   4.993   9.884   7.639 -1.2794 -1.7687 -0.3933
  355MOL0     H47920   5.101   9.896   7.497  3.2415  0.5288  0.6554
  355MOL0     H47921   5.172   9.777   7.769 -0.8415 -0.4659 -1.4585
  355MOL0     H47922   5.214   9.936   7.743  0.6095 -0.1965  0.5935
  355MOL0     H47923   5.485   9.700   7.506  0.1208  0.5831  1.3994
  355MOL0     H47924   4.654   9.868   7.744 -0.0076  0.5035 -2.6143
  355MOL0     H47925   4.393   9.838   7.779  0.8327  0.0635 -0.1973
  356MOL0     O47926   3.605   5.222   7.511  0.1102  0.2798  0.3602
  356MOL0     C47927   3.634   5.112   7.560 -0.4937 -0.5881 -0.5807
  356MOL0     O47928   3.550   5.044   7.653  0.1078  0.2221 -0.0330
  356MOL0     C47929   3.429   5.113   7.686  0.1987  0.6287  0.3025
  356MOL0     C47930   3.316   5.035   7.711 -0.5878 -0.9787  1.4002
  356MOL0     C47931   3.193   5.089   7.749  0.1794  0.3613  0.3771
  356MOL0     C47932   3.185   5.225   7.792 -0.4618  0.4981  0.3493
  356MOL0     O47933   3.065   5.270   7.838 -0.4086 -0.8313  0.1740
  356MOL0     C47934   3.069   5.338   7.972 -0.1894  0.1295  0.3323
  356MOL0     C47935   2.958   5.294   8.069 -0.6011  0.2692  0.2074
  356MOL0     C47936   2.827   5.265   8.009  0.4346  0.8705  0.1066
  356MOL0     C47937   2.735   5.194   8.116 -0.6828  0.1475 -0.1091
  356MOL0     C47938   2.682   5.282   8.231 -0.1984  0.0543 -0.2417
  356MOL0     C47939   2.560   5.372   8.198 -0.3526 -0.8096  0.4306
  356MOL0     C47940   2.517   5.441   8.329 -0.0577  0.4291  0.9470
  356MOL0     C47941   2.407   5.549   8.303  0.2028 -0.2821 -0.4161
  356MOL0     N47942   2.277   5.494   8.321 -0.2466  0.4980 -0.4022
  356MOL0     C47943   2.228   5.407   8.232 -0.0696 -0.4596 -0.1803
  356MOL0     C47944   2.095   5.411   8.254 -0.4266  0.3244 -0.2191
  356MOL0     C47945   2.001   5.340   8.169  0.0923  0.0134 -0.6615
  356MOL0     C47946   1.870   5.423   8.144 -0.0585 -0.1219 -0.7020
  356MOL0     C47947   1.747   5.336   8.163 -0.3982  0.0934 -0.7666
  356MOL0     C47948   1.612   5.407   8.158 -0.1118 -0.1213  0.8333
  356MOL0     O47949   1.551   5.385   8.036  0.3718  0.7879  0.5167
  356MOL0     C47950   1.420   5.436   8.017  0.3208  0.8181  0.6660
  356MOL0     C47951   1.351   5.422   7.893 -1.0418 -0.7222 -0.2279
  356MOL0     C47952   1.217   5.468   7.872  0.0041 -0.2262  0.2071
  356MOL0     C47953   1.172   5.451   7.727  0.8812  0.3391  0.8717
  356MOL0     C47954   1.138   5.529   7.979  0.7416  0.6182 -0.4382
  356MOL0     C47955   1.002   5.562   7.980 -0.3045 -0.1491  0.9981
  356MOL0     O47956   0.949   5.617   8.089 -0.3861 -0.2120 -0.0630
  356MOL0     C47957   0.812   5.652   8.082 -0.2863  0.3798 -0.0094
  356MOL0     C47958   0.765   5.783   8.053  0.1081  0.0555  0.7170
  356MOL0     C47959   0.629   5.811   8.051  1.0150  0.6405  0.1336
  356MOL0     C47960   0.538   5.706   8.080 -0.2198  0.1515 -0.0288
  356MOL0     O47961   0.404   5.717   8.073 -0.2727 -0.6358 -0.9802
  356MOL0     C47962   0.346   5.801   7.972  0.0191 -0.4455 -0.0434
  356MOL0     C47963   0.201   5.757   7.952 -0.0262  0.1505 -0.1152
  356MOL0     C47964   0.124   5.844   7.852 -0.5358 -0.4298 -0.0166
  356MOL0     C47965  -0.009   5.782   7.812  0.2219  0.3420 -0.4953
  356MOL0     C47966  -0.081   5.876   7.713 -0.3357 -0.1274 -0.1454
  356MOL0     C47967  -0.005   5.871   7.582 -0.2788  0.5699 -0.0011
  356MOL0     C47968  -0.003   5.741   7.512  0.6557 -0.0751 -0.3253
  356MOL0     C47969   0.040   5.756   7.366 -0.0514 -0.3841 -0.7845
  356MOL0    Cl47970  -0.091   5.840   7.270  0.2853 -0.2137  0.1363
  356MOL0     C47971   0.584   5.579   8.120 -0.0179 -0.3205  0.2913
  356MOL0     C47972   0.717   5.550   8.120 -0.1528 -0.6044 -0.1248
  356MOL0     O47973   0.931   5.537   7.881 -0.2892 -0.3631  0.0482
  356MOL0     C47974   1.210   5.549   8.094  0.7262 -0.2363 -0.7596
  356MOL0     C47975   1.344   5.511   8.113  0.4693  0.1523  0.2161
  356MOL0     N47976   2.059   5.472   8.367 -0.4334  0.3604 -0.0038
  356MOL0     N47977   2.173   5.535   8.400 -0.6120 -0.6326  0.8351
  356MOL0     C47978   3.302   5.298   7.775  0.4227  0.1422  0.4535
  356MOL0     C47979   3.419   5.242   7.727 -0.4532 -0.3713 -0.1885
  356MOL0     C47980   3.779   5.068   7.545  0.6522  0.4598 -0.0200
  356MOL0     C47981   3.840   4.991   7.643 -0.0375 -0.3053  0.8580
  356MOL0     C47982   3.982   4.972   7.645  0.2035  0.6697  0.1792
  356MOL0     C47983   4.060   5.036   7.552  0.0782  0.4611 -0.2490
  356MOL0     O47984   4.197   5.027   7.534 -0.0856 -0.3314 -0.2424
  356MOL0     C47985   4.272   4.936   7.614 -1.0872  0.8608 -0.0166
  356MOL0     C47986   4.407   4.896   7.548  0.2362  0.6415  0.0201
  356MOL0     C47987   4.502   4.814   7.638 -0.8600 -0.2669 -0.1672
  356MOL0     C47988   4.643   4.886   7.647 -0.3382 -0.7685  0.2314
  356MOL0     C47989   4.749   4.796   7.700  0.4520  0.2211 -0.0527
  356MOL0     C47990   4.828   4.712   7.735  0.6409  0.0954 -0.1017
  356MOL0     C47991   3.995   5.108   7.450  0.0521 -0.4551 -0.2626
  356MOL0     C47992   3.857   5.123   7.451 -0.8132  0.1569  0.2803
  356MOL0     H47993   3.324   4.927   7.700 -2.1819 -1.1339  1.4386
  356MOL0     H47994   3.104   5.027   7.759  1.3559 -1.4975 -0.1482
  356MOL0     H47995   3.167   5.321   8.018  0.6136  0.0122 -1.3362
  356MOL0     H47996   3.055   5.446   7.959 -0.9892 -0.2413 -2.6946
  356MOL0     H47997   3.001   5.209   8.123  2.7379  1.4709 -0.3532
  356MOL0     H47998   2.942   5.372   8.144 -1.7563  3.1574 -2.8097
  356MOL0     H47999   2.778   5.356   7.974  1.8133  1.7881  0.4518
  356MOL0     H48000   2.841   5.205   7.919 -0.2316  0.0893  0.5137
  356MOL0     H48001   2.654   5.150   8.057 -0.2722 -0.5934 -0.1326
  356MOL0     H48002   2.786   5.104   8.152  1.3383  1.2771  0.0165
  356MOL0     H48003   2.646   5.217   8.311  0.5599 -0.9927 -0.7367
  356MOL0     H48004   2.770   5.338   8.262  1.9589 -2.3605 -1.6565
  356MOL0     H48005   2.600   5.447   8.128  1.0765 -0.6934  1.3320
  356MOL0     H48006   2.488   5.319   8.135  1.3730 -0.1341 -2.2877
  356MOL0     H48007   2.488   5.367   8.404  0.2305  0.5285  1.1583
  356MOL0     H48008   2.599   5.504   8.364 -0.2108  0.1102  1.8988
  356MOL0     H48009   2.419   5.597   8.205  1.5129  2.2703  0.8979
  356MOL0     H48010   2.415   5.632   8.374  2.3089 -0.3906 -0.4859
  356MOL0     H48011   2.286   5.370   8.148  0.2252 -3.2303  1.1412
  356MOL0     H48012   2.042   5.312   8.072  0.4346 -0.4280 -0.3946
  356MOL0     H48013   1.981   5.248   8.224  2.4914 -1.2054 -1.7006
  356MOL0     H48014   1.867   5.465   8.043 -0.3290  0.5374 -0.4246
  356MOL0     H48015   1.874   5.510   8.211 -0.2766 -0.3954 -0.3319
  356MOL0     H48016   1.762   5.278   8.254 -2.8012  1.8475  0.8814
  356MOL0     H48017   1.752   5.257   8.087  0.6389  0.4339 -1.0684
  356MOL0     H48018   1.628   5.515   8.165 -1.9105  0.3743 -1.4259
  356MOL0     H48019   1.546   5.364   8.234 -0.3988 -2.2978 -0.5606
  356MOL0     H48020   1.400   5.376   7.808  0.0131  1.0168 -0.6076
  356MOL0     H48021   1.237   5.502   7.656  1.2729 -0.0054  0.9781
  356MOL0     H48022   1.185   5.344   7.709 -1.3732 -0.1818  2.0022
  356MOL0     H48023   1.074   5.484   7.691  2.2783  3.0208 -0.8443
  356MOL0     H48024   0.837   5.861   8.031  0.8257 -1.2510 -1.8207
  356MOL0     H48025   0.600   5.916   8.040 -2.7038 -0.4021 -1.6872
  356MOL0     H48026   0.333   5.906   8.000 -1.7735 -0.5852 -0.2185
  356MOL0     H48027   0.397   5.800   7.875  0.2286  0.4021  0.0501
  356MOL0     H48028   0.204   5.654   7.916 -0.0160  0.2222 -0.3249
  356MOL0     H48029   0.146   5.755   8.046  1.8252  2.6417  1.1516
  356MOL0     H48030   0.188   5.855   7.765  0.2071  2.2075  0.7691
  356MOL0     H48031   0.107   5.941   7.900 -0.3272 -0.4736  0.1454
  356MOL0     H48032   0.016   5.685   7.768  1.0411  0.8271 -1.1309
  356MOL0     H48033  -0.078   5.761   7.894  1.0137 -2.1568 -0.3994
  356MOL0     H48034  -0.083   5.979   7.750 -0.0182 -0.1104 -0.1739
  356MOL0     H48035  -0.184   5.843   7.696 -0.9617  2.1639 -1.3473
  356MOL0     H48036  -0.048   5.943   7.511  1.7942  1.9558  0.0676
  356MOL0     H48037   0.102   5.894   7.583  0.4109 -2.2774  0.0871
  356MOL0     H48038  -0.106   5.702   7.516 -0.3459  2.0400 -2.6442
  356MOL0     H48039   0.061   5.667   7.560 -0.8998 -0.5660  1.1136
  356MOL0     H48040   0.050   5.655   7.325 -2.4354 -1.5165  1.1769
  356MOL0     H48041   0.133   5.810   7.348 -1.7885  3.4055  0.6656
  356MOL0     H48042   0.519   5.499   8.154 -0.6188  0.0037 -0.0710
  356MOL0     H48043   0.755   5.453   8.150  1.4142  0.4022  1.2767
  356MOL0     H48044   1.165   5.609   8.172  1.5557 -1.4553  0.7198
  356MOL0     H48045   1.393   5.528   8.209  1.7266  0.2927 -0.4342
  356MOL0     H48046   3.297   5.401   7.807  3.6356 -0.2625  2.7403
  356MOL0     H48047   3.507   5.304   7.718 -0.1162 -0.9490 -0.9865
  356MOL0     H48048   3.771   4.945   7.714 -3.6389  3.5569  0.2358
  356MOL0     H48049   4.027   4.897   7.709  0.2885  1.4002  0.9935
  356MOL0     H48050   4.291   4.992   7.706 -0.4136 -2.2441  1.8681
  356MOL0     H48051   4.207   4.852   7.640 -2.3695  1.9014  0.2858
  356MOL0     H48052   4.456   4.989   7.518 -0.3620  0.7052 -0.7925
  356MOL0     H48053   4.379   4.843   7.457 -1.6314 -1.2572  1.5892
  356MOL0     H48054   4.505   4.712   7.599  0.1670 -1.0132  1.7109
  356MOL0     H48055   4.456   4.796   7.735 -0.9762  1.5267  0.1429
  356MOL0     H48056   4.641   4.978   7.705  1.5400  0.4137 -1.4586
  356MOL0     H48057   4.680   4.905   7.546  0.2986 -3.7039 -0.1983
  356MOL0     H48058   4.891   4.630   7.765 -2.4684 -1.0205  4.5560
  356MOL0     H48059   4.052   5.155   7.371  0.9463 -3.1074 -1.3372
  356MOL0     H48060   3.827   5.187   7.368  0.2018  1.7126  1.0531
  357MOL0     O48061   6.348   1.610   2.803  0.2895 -0.4651 -0.6508
  357MOL0     C48062   6.412   1.695   2.876 -0.2462 -0.1609 -0.6317
  357MOL0     O48063   6.359   1.795   2.947  0.3787 -0.2928  0.1789
  357MOL0     C48064   6.223   1.786   2.954 -0.1169  0.8975  0.7468
  357MOL0     C48065   6.159   1.709   3.061  1.0186 -0.0221  0.3845
  357MOL0     C48066   6.021   1.702   3.089  0.9611 -0.3874  0.3671
  357MOL0     C48067   5.933   1.770   3.000  0.6469 -1.5969  0.7373
  357MOL0     O48068   5.799   1.777   3.026  0.0697 -0.1555  0.2049
  357MOL0     C48069   5.745   1.652   3.064  0.3774 -0.1468 -0.5193
  357MOL0     C48070   5.590   1.676   3.062  0.5137 -0.4002  0.2897
  357MOL0     C48071   5.509   1.541   3.103 -0.8006 -0.6863 -1.1635
  357MOL0     C48072   5.452   1.495   2.974 -0.0329 -0.4562 -0.5926
  357MOL0     C48073   5.355   1.385   3.011 -0.2031 -0.6661  1.0904
  357MOL0     C48074   5.295   1.325   2.888 -0.2573  1.5797 -0.0949
  357MOL0     C48075   5.237   1.190   2.924 -1.0014 -0.0023  0.5354
  357MOL0     C48076   5.086   1.195   2.969 -0.2837  0.0558 -0.1095
  357MOL0     N48077   4.997   1.212   2.853  0.2291 -0.0973 -1.0799
  357MOL0     C48078   4.910   1.109   2.817 -0.5294 -0.0255 -0.1906
  357MOL0     C48079   4.835   1.171   2.721  0.4959  0.8325  0.1962
  357MOL0     C48080   4.720   1.108   2.650  0.6512  0.9192  0.2253
  357MOL0     C48081   4.676   0.966   2.692 -0.3307  0.3142 -0.0610
  357MOL0     C48082   4.568   0.961   2.808 -0.3484 -0.4295  0.3013
  357MOL0     C48083   4.486   0.833   2.822 -0.4075 -0.1724  1.1985
  357MOL0     O48084   4.402   0.847   2.930  0.4397 -0.2100  0.1996
  357MOL0     C48085   4.299   0.756   2.953 -0.7890 -0.2033 -0.7079
  357MOL0     C48086   4.256   0.654   2.861 -0.7767  0.6702  0.2836
  357MOL0     C48087   4.151   0.562   2.876 -0.0065  0.3614 -0.0789
  357MOL0     C48088   4.147   0.443   2.778  0.4311 -0.9103 -1.0773
  357MOL0     C48089   4.077   0.584   3.001 -0.8879 -0.0846  0.4921
  357MOL0     C48090   3.954   0.503   3.033 -0.0498  0.1403  1.5208
  357MOL0     O48091   3.905   0.402   2.949 -0.6423  0.3616  0.0693
  357MOL0     C48092   3.791   0.336   2.979 -0.0145 -0.5343 -0.4047
  357MOL0     C48093   3.792   0.237   3.078 -0.1076 -0.8700 -0.1532
  357MOL0     C48094   3.671   0.184   3.121  0.2034 -0.4545  1.0759
  357MOL0     C48095   3.551   0.225   3.059  0.2407 -0.8576  0.3337
  357MOL0     O48096   3.435   0.164   3.103 -0.0851  0.3828 -0.1810
  357MOL0     C48097   3.318   0.179   3.020  0.1478  0.3068 -0.3758
  357MOL0     C48098   3.207   0.076   3.073 -0.5182  0.3555  1.5022
  357MOL0     C48099   3.114   0.152   3.160  1.0103 -0.1896  0.0319
  357MOL0     C48100   2.994   0.057   3.183 -0.3841 -0.0527 -0.5636
  357MOL0     C48101   3.038  -0.059   3.274 -0.3240  0.1416  0.2671
  357MOL0     C48102   2.901  -0.123   3.319 -0.1851 -0.0638  0.4729
  357MOL0     C48103   2.914  -0.207   3.443 -0.7207 -0.2152 -0.3714
  357MOL0     C48104   2.783  -0.250   3.514 -0.3903 -0.9410 -0.5360
  357MOL0    Cl48105   2.832  -0.379   3.639  0.0208 -0.2239 -0.1362
  357MOL0     C48106   3.556   0.326   2.961  0.1151  0.1531  0.6858
  357MOL0     C48107   3.674   0.376   2.921  0.5501  0.2033 -0.5907
  357MOL0     O48108   3.898   0.537   3.137 -0.8736 -0.7948 -0.6290
  357MOL0     C48109   4.112   0.693   3.087 -0.0728  0.4520 -0.5428
  357MOL0     C48110   4.220   0.774   3.063  0.9448  0.1785  0.3722
  357MOL0     N48111   4.863   1.304   2.716 -0.4663  0.6682  0.3771
  357MOL0     N48112   4.966   1.328   2.789 -0.1047 -0.4560  0.7332
  357MOL0     C48113   5.996   1.853   2.897  0.7703  1.1972  0.3620
  357MOL0     C48114   6.133   1.853   2.871  0.4604  0.0455  0.3518
  357MOL0     C48115   6.560   1.689   2.875 -0.4778 -0.5270  0.7868
  357MOL0     C48116   6.616   1.564   2.841  0.1690  0.7488  0.0769
  357MOL0     C48117   6.756   1.556   2.839 -0.3788  0.2438 -0.4588
  357MOL0     C48118   6.841   1.651   2.862  0.0676  0.2010 -0.1456
  357MOL0     O48119   6.975   1.620   2.863 -0.0697 -0.7969  0.7792
  357MOL0     C48120   7.061   1.733   2.871  0.3086 -0.3969 -0.6690
  357MOL0     C48121   7.206   1.686   2.836  0.7598  0.0993 -0.2451
  357MOL0     C48122   7.293   1.809   2.799  0.0969  0.8621  0.5962
  357MOL0     C48123   7.437   1.767   2.757 -0.0073  0.4782  0.1808
  357MOL0     C48124   7.517   1.888   2.777  0.2046 -0.3554  0.0718
  357MOL0     C48125   7.585   1.984   2.802  0.4621  0.5708 -0.8079
  357MOL0     C48126   6.785   1.775   2.901  0.2803  0.6029 -0.1457
  357MOL0     C48127   6.641   1.790   2.909  0.2771  0.4629  0.5482
  357MOL0     H48128   6.225   1.658   3.131  0.0575  1.4679  2.4688
  357MOL0     H48129   5.988   1.649   3.177 -3.9554  0.4104 -0.6856
  357MOL0     H48130   5.768   1.581   2.984  4.1718  1.0069 -0.6189
  357MOL0     H48131   5.769   1.609   3.162 -2.8585 -0.8790  0.0718
  357MOL0     H48132   5.550   1.751   3.131  1.0995  0.6165 -0.4533
  357MOL0     H48133   5.560   1.712   2.963  3.1482 -1.5170 -1.0299
  357MOL0     H48134   5.569   1.463   3.150 -1.6803 -2.0120 -2.1632
  357MOL0     H48135   5.427   1.568   3.170  0.0400 -0.6199 -0.1451
  357MOL0     H48136   5.389   1.569   2.924 -1.3518 -1.2721 -0.1698
  357MOL0     H48137   5.533   1.475   2.903  1.0101 -0.0060  0.4483
  357MOL0     H48138   5.406   1.310   3.072 -0.0054  0.4264  2.3027
  357MOL0     H48139   5.276   1.426   3.075 -1.0842 -1.8810  0.8195
  357MOL0     H48140   5.210   1.386   2.856 -2.6318 -1.6071 -0.2889
  357MOL0     H48141   5.376   1.315   2.815  0.4599 -1.0537  0.9587
  357MOL0     H48142   5.245   1.130   2.833  2.3966 -2.3291  2.1741
  357MOL0     H48143   5.288   1.133   3.002 -0.7275 -0.1855  0.2297
  357MOL0     H48144   5.073   1.281   3.035 -2.4280  1.9419 -2.7389
  357MOL0     H48145   5.071   1.101   3.023 -1.3289 -2.5911 -4.4491
  357MOL0     H48146   4.922   1.006   2.852  1.2502  0.4359  0.6422
  357MOL0     H48147   4.636   1.178   2.655  0.8180  1.1254  0.1407
  357MOL0     H48148   4.745   1.097   2.544  0.1750 -1.2477  0.2866
  357MOL0     H48149   4.762   0.909   2.728  1.6300  1.7247 -2.2691
  357MOL0     H48150   4.620   0.920   2.610  1.6782 -2.3393 -0.0754
  357MOL0     H48151   4.500   1.045   2.792  0.5055  0.0871 -0.7863
  357MOL0     H48152   4.620   0.985   2.900  1.4016 -0.9676 -0.5138
  357MOL0     H48153   4.545   0.745   2.850 -0.4309 -1.0541 -1.2980
  357MOL0     H48154   4.444   0.816   2.722 -2.2802  0.9248  1.7582
  357MOL0     H48155   4.282   0.659   2.756 -2.0444 -1.4055 -0.1929
  357MOL0     H48156   4.223   0.458   2.701  1.0460 -1.3265 -0.5658
  357MOL0     H48157   4.167   0.349   2.830 -0.9603 -0.5163  0.2574
  357MOL0     H48158   4.050   0.434   2.729 -0.7522 -0.7407  1.0982
  357MOL0     H48159   3.878   0.203   3.135  1.3509 -0.2673 -1.8691
  357MOL0     H48160   3.677   0.106   3.197  0.8613  0.9654  2.5595
  357MOL0     H48161   3.275   0.280   3.026 -1.2554 -0.3638  1.8864
  357MOL0     H48162   3.348   0.166   2.916  3.4831  2.8484  0.0915
  357MOL0     H48163   3.163   0.022   2.989  0.1824  1.1101  0.6384
  357MOL0     H48164   3.259   0.004   3.138  2.8932 -0.1460 -1.4955
  357MOL0     H48165   3.079   0.235   3.099  1.7237 -1.1421 -1.7408
  357MOL0     H48166   3.158   0.190   3.253  0.5739 -1.6044  0.8561
  357MOL0     H48167   2.921   0.121   3.234  0.8745 -0.2257  1.6023
  357MOL0     H48168   2.963   0.029   3.082  2.9927  1.2163 -2.0931
  357MOL0     H48169   3.088  -0.027   3.366  0.3701 -2.1839  0.7690
  357MOL0     H48170   3.118  -0.125   3.239 -1.3546 -1.5063  0.9505
  357MOL0     H48171   2.823  -0.051   3.341  0.1801 -0.5036  3.6544
  357MOL0     H48172   2.869  -0.186   3.235 -0.0032 -0.7857  0.9349
  357MOL0     H48173   2.978  -0.153   3.514  0.0855  0.7404 -1.7778
  357MOL0     H48174   2.972  -0.296   3.415  3.3462  1.4119  1.9390
  357MOL0     H48175   2.714  -0.304   3.449  0.5983 -1.5050 -1.1478
  357MOL0     H48176   2.744  -0.160   3.562 -0.7788 -1.5025  0.2233
  357MOL0     H48177   3.464   0.366   2.919 -0.2189  0.8963  2.0593
  357MOL0     H48178   3.672   0.460   2.852 -0.5130  0.7544  0.0643
  357MOL0     H48179   4.052   0.704   3.176 -0.4226  0.2595 -0.7493
  357MOL0     H48180   4.224   0.868   3.118 -2.4132  1.1810 -0.8416
  357MOL0     H48181   5.918   1.906   2.843 -1.6401 -1.3114  1.1112
  357MOL0     H48182   6.167   1.913   2.788  1.0629  0.9821  1.2440
  357MOL0     H48183   6.563   1.477   2.804 -2.2676  2.4624 -0.6917
  357MOL0     H48184   6.794   1.459   2.809 -0.5592 -0.2964  1.0110
  357MOL0     H48185   7.044   1.808   2.794  4.1278  0.4371 -0.9184
  357MOL0     H48186   7.060   1.771   2.974 -0.2164 -0.8822 -0.4883
  357MOL0     H48187   7.203   1.620   2.749 -0.3973 -0.0392 -0.1165
  357MOL0     H48188   7.242   1.636   2.926  2.1601  2.1777  0.4405
  357MOL0     H48189   7.301   1.871   2.888  0.0330 -0.3354  1.4611
  357MOL0     H48190   7.246   1.873   2.724 -4.9381 -2.1471  0.7509
  357MOL0     H48191   7.438   1.734   2.653 -0.6769  2.0778 -0.3661
  357MOL0     H48192   7.468   1.682   2.819  0.3029  0.5927  0.1857
  357MOL0     H48193   7.620   2.079   2.836 -1.3836  1.2622 -0.7058
  357MOL0     H48194   6.840   1.863   2.931 -1.4881  1.1248  1.8054
  357MOL0     H48195   6.595   1.882   2.944 -0.2557 -0.6109  2.9351
  358MOL0     O48196   1.992  11.072   6.199  0.3143 -0.1407 -1.0460
  358MOL0     C48197   2.016  11.194   6.191 -0.6106  0.1778 -0.4091
  358MOL0     O48198   1.929  11.299   6.177 -0.6182  0.1608  0.3439
  358MOL0     C48199   1.789  11.277   6.176  0.2674  0.5659 -0.7325
  358MOL0     C48200   1.737  11.212   6.071 -0.1453  0.2610 -0.6815
  358MOL0     C48201   1.606  11.158   6.078 -0.1072  0.0134  0.1891
  358MOL0     C48202   1.519  11.213   6.183 -0.4067  0.2213 -0.3285
  358MOL0     O48203   1.382  11.194   6.196 -0.2534 -0.6798 -0.8912
  358MOL0     C48204   1.317  11.105   6.105  0.0613  0.6047 -0.6984
  358MOL0     C48205   1.178  11.060   6.153  0.8464 -0.0017 -0.4411
  358MOL0     C48206   1.067  11.168   6.171  0.7203  0.1280  0.1015
  358MOL0     C48207   0.931  11.098   6.159  0.0485 -0.0697 -0.0279
  358MOL0     C48208   0.817  11.166   6.221 -0.4076  0.6774 -0.1244
  358MOL0     C48209   0.773  11.284   6.136 -0.3263  0.0034 -0.1844
  358MOL0     C48210   0.695  11.389   6.215 -0.3608 -0.0601  0.2594
  358MOL0     C48211   0.544  11.349   6.257 -0.6781 -0.4380 -0.8702
  358MOL0     N48212   0.459  11.327   6.140  0.0446  0.2311  0.6213
  358MOL0     C48213   0.424  11.199   6.086 -0.4768 -0.1641  0.4694
  358MOL0     C48214   0.328  11.233   6.005 -0.9767  0.5358 -0.2309
  358MOL0     C48215   0.243  11.141   5.937  0.3264  0.0193  0.5520
  358MOL0     C48216   0.139  11.067   6.035  0.5851 -0.2039 -0.3731
  358MOL0     C48217   0.040  11.155   6.105 -0.0554 -0.4042  0.6961
  358MOL0     C48218   0.014  11.087   6.237 -0.1072 -0.0665 -0.3188
  358MOL0     O48219  -0.028  10.946   6.224 -0.4786 -0.4666 -0.0327
  358MOL0     C48220  -0.149  10.912   6.172 -1.0783  0.3214 -0.2878
  358MOL0     C48221  -0.148  10.800   6.080  0.7001 -0.4699  0.6972
  358MOL0     C48222  -0.270  10.764   6.015 -0.3177 -0.2707  0.5416
  358MOL0     C48223  -0.254  10.660   5.910 -0.0764 -0.1039  0.7920
  358MOL0     C48224  -0.390  10.828   6.056  0.4849  0.0714 -0.1996
  358MOL0     C48225  -0.519  10.807   5.976 -0.8604  0.5964 -0.7240
  358MOL0     O48226  -0.634  10.828   6.047 -0.0446 -0.1547  0.5672
  358MOL0     C48227  -0.759  10.817   5.990 -0.1259 -0.4459  1.0092
  358MOL0     C48228  -0.782  10.722   5.885 -0.6355 -0.1386  0.1799
  358MOL0     C48229  -0.911  10.704   5.833 -0.3373  0.1789  0.2654
  358MOL0     C48230  -1.018  10.774   5.882 -1.2712 -0.8045 -0.4232
  358MOL0     O48231  -1.138  10.751   5.818  0.3191 -0.2240 -0.0784
  358MOL0     C48232  -1.256  10.834   5.848 -0.1398  0.3615 -0.4450
  358MOL0     C48233  -1.380  10.773   5.781 -0.9377 -0.3501  0.1501
  358MOL0     C48234  -1.497  10.865   5.793 -0.1584 -0.6703  1.0266
  358MOL0     C48235  -1.623  10.807   5.721 -1.5401 -0.0262  0.9226
  358MOL0     C48236  -1.750  10.877   5.790  0.0472 -0.9700  0.4379
  358MOL0     C48237  -1.893  10.845   5.717  0.0310  0.5622 -0.0815
  358MOL0     C48238  -2.004  10.930   5.786  0.4009 -0.2133  0.2379
  358MOL0     C48239  -2.128  10.857   5.759  0.4857 -0.4272 -0.1200
  358MOL0    Cl48240  -2.258  10.981   5.770  0.1364 -0.2580 -0.3661
  358MOL0     C48241  -0.994  10.869   5.986 -0.1389 -0.3375  0.0146
  358MOL0     C48242  -0.866  10.888   6.044  0.2111 -0.3546 -0.2109
  358MOL0     O48243  -0.507  10.800   5.852  0.7257 -0.6390 -0.0366
  358MOL0     C48244  -0.390  10.924   6.161  0.3651  0.4300 -0.4805
  358MOL0     C48245  -0.268  10.969   6.218 -0.4598 -0.0035 -0.5859
  358MOL0     N48246   0.307  11.372   5.996 -0.3728 -0.2365 -0.1538
  358MOL0     N48247   0.389  11.429   6.083  0.2960  0.2408 -0.2943
  358MOL0     C48248   1.575  11.304   6.279  0.7923  0.1841 -0.7414
  358MOL0     C48249   1.705  11.325   6.284 -0.5698 -0.1410 -0.1586
  358MOL0     C48250   2.160  11.245   6.198 -0.9917  0.1725  0.5123
  358MOL0     C48251   2.199  11.368   6.141  0.3362 -0.8347 -0.3054
  358MOL0     C48252   2.332  11.408   6.133 -0.2231 -0.0588 -0.2061
  358MOL0     C48253   2.443  11.325   6.180 -0.3320  0.1478  1.0205
  358MOL0     O48254   2.579  11.345   6.168  0.0818  0.0029 -0.1195
  358MOL0     C48255   2.631  11.478   6.126 -0.4682  0.2161 -0.7671
  358MOL0     C48256   2.732  11.546   6.220  0.5287  0.0923  0.0160
  358MOL0     C48257   2.873  11.475   6.208  0.1038  0.4858  0.1368
  358MOL0     C48258   2.989  11.548   6.266 -0.0016  0.2285 -0.2990
  358MOL0     C48259   3.011  11.678   6.205  1.1976  1.1210  0.9455
  358MOL0     C48260   3.054  11.781   6.146  0.0628  0.7358 -0.2286
  358MOL0     C48261   2.407  11.212   6.247 -0.0105  0.7931  0.2435
  358MOL0     C48262   2.268  11.170   6.248  0.2147 -0.3858 -0.1669
  358MOL0     H48263   1.809  11.166   6.005  2.3142  0.3640  1.7160
  358MOL0     H48264   1.576  11.080   6.009  2.6660 -1.6689  0.7124
  358MOL0     H48265   1.306  11.168   6.016  2.4732 -0.3030 -1.7209
  358MOL0     H48266   1.372  11.013   6.086  0.6847  0.5272  1.2870
  358MOL0     H48267   1.137  10.993   6.078 -0.0270  1.0150 -0.9031
  358MOL0     H48268   1.197  11.002   6.244  2.2788 -2.9115 -2.4566
  358MOL0     H48269   1.084  11.210   6.271  2.9850  1.0196 -0.6150
  358MOL0     H48270   1.068  11.246   6.095 -2.3276  1.2139  1.0372
  358MOL0     H48271   0.912  11.069   6.056  0.5233 -1.1381  0.1720
  358MOL0     H48272   0.945  11.005   6.215  3.4466  0.1250 -0.3168
  358MOL0     H48273   0.729  11.101   6.223 -0.4568  0.7516  0.1009
  358MOL0     H48274   0.843  11.185   6.325 -1.7889 -2.6841  0.9929
  358MOL0     H48275   0.859  11.339   6.098  1.4998 -1.3746  1.7088
  358MOL0     H48276   0.715  11.254   6.048 -1.9840  0.4657  0.7115
  358MOL0     H48277   0.745  11.439   6.299  2.0814  2.8180 -2.6762
  358MOL0     H48278   0.676  11.466   6.140  2.6636 -1.2159 -1.8633
  358MOL0     H48279   0.508  11.426   6.327  0.1302 -1.4889  0.7641
  358MOL0     H48280   0.546  11.259   6.319 -0.5784  0.1662  0.0371
  358MOL0     H48281   0.458  11.099   6.110 -0.1617  0.3578  2.3621
  358MOL0     H48282   0.188  11.191   5.856 -1.7827  2.0122  3.0247
  358MOL0     H48283   0.312  11.064   5.901 -0.3681 -0.8393  1.0195
  358MOL0     H48284   0.198  11.010   6.108  0.9083  0.1076 -0.3910
  358MOL0     H48285   0.086  10.993   5.974 -0.8940  0.2660  0.3146
  358MOL0     H48286  -0.048  11.171   6.043 -0.5013  0.5608  1.5646
  358MOL0     H48287   0.084  11.254   6.120 -0.7740 -0.0127  0.2446
  358MOL0     H48288  -0.057  11.145   6.297 -0.2859  0.6775 -1.2206
  358MOL0     H48289   0.106  11.091   6.295 -0.5056 -0.0419  0.3225
  358MOL0     H48290  -0.056  10.746   6.061  0.1281 -1.2352  0.0595
  358MOL0     H48291  -0.151  10.632   5.885 -0.4208 -1.7725  1.1137
  358MOL0     H48292  -0.299  10.569   5.950  0.7157 -0.5693  0.6424
  358MOL0     H48293  -0.300  10.689   5.815 -0.2404  2.2385  1.5152
  358MOL0     H48294  -0.701  10.659   5.850 -0.0557  0.4116  0.5074
  358MOL0     H48295  -0.928  10.628   5.757  0.4023 -0.0410  0.3132
  358MOL0     H48296  -1.266  10.847   5.956 -0.9682 -0.0841 -0.4551
  358MOL0     H48297  -1.241  10.932   5.803 -0.4807  0.6180 -0.0067
  358MOL0     H48298  -1.351  10.756   5.677 -1.5173 -1.7471  0.1915
  358MOL0     H48299  -1.389  10.675   5.828  1.4898 -0.1133  1.2561
  358MOL0     H48300  -1.469  10.951   5.731  2.1294 -3.3744 -2.0215
  358MOL0     H48301  -1.506  10.877   5.901  3.0916 -4.0880  1.8769
  358MOL0     H48302  -1.620  10.845   5.619  1.4241  1.3104  1.3990
  358MOL0     H48303  -1.635  10.699   5.731 -0.1018 -0.1591  1.3555
  358MOL0     H48304  -1.743  10.986   5.796  2.2803 -0.9442 -1.3694
  358MOL0     H48305  -1.758  10.852   5.896 -1.2821  0.9817  0.8560
  358MOL0     H48306  -1.886  10.863   5.609 -1.8928 -2.1606 -0.7548
  358MOL0     H48307  -1.904  10.739   5.739  2.2698  0.2721 -0.0677
  358MOL0     H48308  -2.001  11.032   5.747  0.6743  0.9860  3.1672
  358MOL0     H48309  -1.982  10.932   5.893  2.9705 -1.7672 -0.1874
  358MOL0     H48310  -2.148  10.781   5.835 -0.5194 -2.4874 -2.2990
  358MOL0     H48311  -2.134  10.811   5.660 -0.7232 -3.2943  1.1510
  358MOL0     H48312  -1.077  10.925   6.026  0.9359  1.6910 -0.4780
  358MOL0     H48313  -0.839  10.956   6.124 -1.8180 -2.8046  2.8002
  358MOL0     H48314  -0.482  10.974   6.187  0.8021  2.4880 -2.5954
  358MOL0     H48315  -0.269  11.040   6.300  3.2069  0.4092 -0.7499
  358MOL0     H48316   1.519  11.355   6.357  0.8468  0.3927 -0.8380
  358MOL0     H48317   1.754  11.378   6.365 -1.2148  1.0518 -0.5270
  358MOL0     H48318   2.118  11.435   6.115 -1.4043 -2.7218  0.0186
  358MOL0     H48319   2.359  11.492   6.069  0.7325 -1.4749 -1.7571
  358MOL0     H48320   2.664  11.468   6.022 -0.8620 -2.0440 -0.7383
  358MOL0     H48321   2.544  11.543   6.110 -0.4739  0.0267 -1.5812
  358MOL0     H48322   2.695  11.537   6.323  0.4231  0.6331  0.0285
  358MOL0     H48323   2.742  11.655   6.209  2.5621  0.2794  2.7423
  358MOL0     H48324   2.901  11.461   6.104  2.1199  1.3156  0.5248
  358MOL0     H48325   2.883  11.380   6.263  0.3869  1.1443  1.2638
  358MOL0     H48326   3.081  11.490   6.256  0.8277  1.5602 -0.6306
  358MOL0     H48327   2.972  11.566   6.373  2.2873  2.9732 -0.2857
  358MOL0     H48328   3.074  11.877   6.101 -2.5598  2.6547  2.3677
  358MOL0     H48329   2.480  11.139   6.280  0.4430  1.0107 -0.2533
  358MOL0     H48330   2.252  11.070   6.287  2.9048 -1.3303 -1.2639
  359MOL0     O48331   5.133   6.491   0.451  0.0879  0.9211  0.1108
  359MOL0     C48332   5.235   6.559   0.465 -0.0289 -0.6987  0.5535
  359MOL0     O48333   5.251   6.692   0.417  0.4188 -0.0379  0.0006
  359MOL0     C48334   5.151   6.767   0.353  0.2629  0.4851 -0.7267
  359MOL0     C48335   5.042   6.702   0.277 -0.4278 -0.7430  0.0895
  359MOL0     C48336   4.950   6.780   0.207  1.2508  0.2281  0.8605
  359MOL0     C48337   4.948   6.916   0.238  0.0321 -0.8974  0.0238
  359MOL0     O48338   4.861   7.007   0.178 -0.3036 -0.6133 -0.0304
  359MOL0     C48339   4.756   6.971   0.090  0.8028  0.6804 -0.3296
  359MOL0     C48340   4.810   6.983  -0.044 -0.5064  0.6511  0.9962
  359MOL0     C48341   4.715   6.915  -0.144  0.0753 -0.2448  0.8724
  359MOL0     C48342   4.787   6.908  -0.289 -0.0449  0.6041 -1.0895
  359MOL0     C48343   4.694   6.843  -0.395 -0.6023 -0.7234 -0.1594
  359MOL0     C48344   4.699   6.690  -0.399 -0.1746  0.6108  0.1489
  359MOL0     C48345   4.583   6.636  -0.477  0.5336  0.6811  0.5406
  359MOL0     C48346   4.606   6.498  -0.539 -0.2079  0.5147  0.0801
  359MOL0     N48347   4.464   6.457  -0.562 -0.0802 -0.6813 -0.0922
  359MOL0     C48348   4.407   6.345  -0.506 -0.5630 -0.2739 -0.0302
  359MOL0     C48349   4.291   6.335  -0.570  0.1119 -0.0300 -0.3482
  359MOL0     C48350   4.198   6.211  -0.551  0.2227  0.3791 -0.4415
  359MOL0     C48351   4.102   6.181  -0.667  0.1371 -0.8218 -1.0647
  359MOL0     C48352   4.005   6.072  -0.640 -0.5755 -0.1679  0.0043
  359MOL0     C48353   3.893   6.112  -0.556 -0.7847 -0.3992 -0.5645
  359MOL0     O48354   3.768   6.095  -0.621  0.2214  0.6443 -0.7184
  359MOL0     C48355   3.667   6.163  -0.550 -0.0954 -0.1628  0.1699
  359MOL0     C48356   3.598   6.264  -0.620 -0.0319  0.2140  0.1899
  359MOL0     C48357   3.502   6.344  -0.560 -0.3754 -0.0434  0.3134
  359MOL0     C48358   3.419   6.446  -0.647 -0.1307  0.4559  0.2157
  359MOL0     C48359   3.491   6.322  -0.421  0.5370  0.4693  0.3804
  359MOL0     C48360   3.408   6.413  -0.341  0.5139 -0.6593 -0.0062
  359MOL0     O48361   3.394   6.540  -0.395  0.2159  0.3680 -0.3574
  359MOL0     C48362   3.298   6.626  -0.344  0.0276 -0.3300 -0.0301
  359MOL0     C48363   3.167   6.573  -0.337  0.9830 -0.4719  0.1510
  359MOL0     C48364   3.069   6.643  -0.267 -0.3538  0.0614  0.7518
  359MOL0     C48365   3.101   6.763  -0.214 -0.1803  0.0620  0.1123
  359MOL0     O48366   3.002   6.837  -0.152  0.2020 -0.7755  0.1317
  359MOL0     C48367   2.956   6.945  -0.224  0.6919  0.4570  0.4121
  359MOL0     C48368   2.870   6.916  -0.350 -0.1242  0.1583 -0.3410
  359MOL0     C48369   2.815   7.053  -0.413  0.7771  0.6932  0.4752
  359MOL0     C48370   2.744   7.021  -0.547  0.0036  0.8936 -0.5612
  359MOL0     C48371   2.707   7.142  -0.629 -0.5812 -0.4570 -0.6990
  359MOL0     C48372   2.665   7.110  -0.769  0.4259  0.5082 -0.1998
  359MOL0     C48373   2.605   7.224  -0.852  1.0333 -0.1478  0.6133
  359MOL0     C48374   2.598   7.191  -1.004 -0.9392 -0.5640  0.3329
  359MOL0    Cl48375   2.756   7.226  -1.093  0.2905  0.2658 -0.4717
  359MOL0     C48376   3.232   6.814  -0.213 -0.2766 -0.1523 -0.4100
  359MOL0     C48377   3.335   6.746  -0.279 -0.7807 -1.1326  0.0391
  359MOL0     O48378   3.363   6.383  -0.229 -0.2244 -0.4209  0.0878
  359MOL0     C48379   3.551   6.217  -0.348 -0.2390  0.9759 -0.3731
  359MOL0     C48380   3.643   6.139  -0.417  0.6643 -0.1902  0.8741
  359MOL0     N48381   4.271   6.434  -0.657  0.8240  0.0569  0.0119
  359MOL0     N48382   4.379   6.502  -0.664  0.0408 -0.1930  0.0194
  359MOL0     C48383   5.041   6.968   0.325  0.2290  0.1964  0.6454
  359MOL0     C48384   5.148   6.903   0.368  0.6037  0.5100 -0.1734
  359MOL0     C48385   5.344   6.514   0.546  0.5796  0.2159  0.2096
  359MOL0     C48386   5.446   6.608   0.587  0.2865 -0.7214  0.0804
  359MOL0     C48387   5.556   6.579   0.672  0.0436  0.1213  0.6771
  359MOL0     C48388   5.562   6.444   0.718  0.0495  0.0953 -0.0043
  359MOL0     O48389   5.661   6.396   0.806  0.3726 -0.2403  0.5498
  359MOL0     C48390   5.762   6.487   0.850 -0.1070 -0.3251  0.3712
  359MOL0     C48391   5.718   6.582   0.963  0.3608  0.5451  0.1143
  359MOL0     C48392   5.821   6.680   0.995 -0.1954  0.2312 -0.2215
  359MOL0     C48393   5.755   6.796   1.060  0.0685  0.5223 -0.0094
  359MOL0     C48394   5.665   6.871   0.965 -0.1367  0.2255 -0.6065
  359MOL0     C48395   5.594   6.944   0.905  1.2636 -0.0877  0.1041
  359MOL0     C48396   5.463   6.358   0.679  1.3416  0.1980  0.3804
  359MOL0     C48397   5.354   6.386   0.592  0.2482  0.4083  0.6331
  359MOL0     H48398   5.041   6.595   0.258 -0.5633 -1.2721  2.6169
  359MOL0     H48399   4.872   6.731   0.151 -0.4910  2.8130  0.8355
  359MOL0     H48400   4.711   6.873   0.110  1.0464  0.4817 -0.7402
  359MOL0     H48401   4.670   7.038   0.101 -2.1556 -3.0531  2.5061
  359MOL0     H48402   4.823   7.088  -0.069 -0.9320  1.1997  2.9339
  359MOL0     H48403   4.906   6.930  -0.038 -0.2555  0.6703 -1.5615
  359MOL0     H48404   4.692   6.812  -0.115 -0.5256 -0.4116 -0.1673
  359MOL0     H48405   4.628   6.980  -0.151  0.5449  0.3115  0.0952
  359MOL0     H48406   4.811   7.010  -0.319 -1.3006  1.2244 -0.0569
  359MOL0     H48407   4.879   6.850  -0.274 -0.0611  0.9103  0.3331
  359MOL0     H48408   4.592   6.880  -0.379  0.0253  0.5186  1.2473
  359MOL0     H48409   4.730   6.888  -0.488 -2.3925  2.0503  0.3623
  359MOL0     H48410   4.790   6.643  -0.437 -0.3093  0.2263  0.2937
  359MOL0     H48411   4.676   6.656  -0.297 -1.6929  2.3482  0.4334
  359MOL0     H48412   4.506   6.634  -0.399  0.9834  1.1503  1.0083
  359MOL0     H48413   4.550   6.700  -0.560 -1.3681 -4.4468 -3.1538
  359MOL0     H48414   4.650   6.422  -0.474 -0.8493  0.3737  0.3623
  359MOL0     H48415   4.666   6.507  -0.630 -3.7746 -0.4972 -2.6350
  359MOL0     H48416   4.450   6.276  -0.434  2.6676  2.5152  0.9636
  359MOL0     H48417   4.261   6.124  -0.531  1.4961  1.5323  0.8085
  359MOL0     H48418   4.136   6.216  -0.461  2.1314 -1.5850  1.0898
  359MOL0     H48419   4.169   6.151  -0.748  0.9606  2.0674 -1.5584
  359MOL0     H48420   4.052   6.272  -0.701  0.6886  0.4837  1.3642
  359MOL0     H48421   4.048   5.983  -0.593  1.0082  0.9195  0.7066
  359MOL0     H48422   3.962   6.049  -0.738 -1.2760  0.6290  0.1131
  359MOL0     H48423   3.906   6.216  -0.525  2.3394 -1.0497  0.6968
  359MOL0     H48424   3.885   6.054  -0.464 -3.8154  1.7102  0.6562
  359MOL0     H48425   3.615   6.277  -0.726  2.7599 -1.0746  0.3824
  359MOL0     H48426   3.457   6.548  -0.642  0.4640  0.2847 -0.6358
  359MOL0     H48427   3.435   6.418  -0.752  1.4281  0.9519  0.2957
  359MOL0     H48428   3.310   6.445  -0.632 -0.4340 -0.3371 -1.7424
  359MOL0     H48429   3.140   6.477  -0.380 -0.1284 -1.0605  2.0462
  359MOL0     H48430   2.965   6.618  -0.251  0.1940 -1.2937  2.6013
  359MOL0     H48431   2.897   7.018  -0.168  3.5359  2.4614  1.0322
  359MOL0     H48432   3.045   7.005  -0.249  0.7738  0.2142  0.1156
  359MOL0     H48433   2.937   6.869  -0.423 -1.9382 -1.3131 -1.1385
  359MOL0     H48434   2.784   6.854  -0.327 -1.2299  2.4842  2.4013
  359MOL0     H48435   2.896   7.123  -0.435  0.8438 -0.0705 -2.0613
  359MOL0     H48436   2.753   7.100  -0.336 -0.8888 -0.6290  0.0253
  359MOL0     H48437   2.819   6.959  -0.597 -0.4377 -0.9335  0.9558
  359MOL0     H48438   2.656   6.962  -0.520  1.4789 -0.0639  2.6236
  359MOL0     H48439   2.789   7.214  -0.627 -2.4832  1.8923 -2.1332
  359MOL0     H48440   2.616   7.185  -0.586  0.3883  0.8019  0.1655
  359MOL0     H48441   2.756   7.080  -0.823 -0.8645 -1.3017 -1.4645
  359MOL0     H48442   2.596   7.026  -0.768  0.3422  0.5757  0.8317
  359MOL0     H48443   2.655   7.321  -0.841 -1.9658  1.2930  3.4021
  359MOL0     H48444   2.499   7.233  -0.826  0.3336 -1.1796 -1.6052
  359MOL0     H48445   2.531   7.262  -1.055  0.6826  0.5785 -0.3341
  359MOL0     H48446   2.569   7.088  -1.022  0.8327 -1.1304  0.5050
  359MOL0     H48447   3.256   6.908  -0.164 -1.1796 -0.2252  0.1951
  359MOL0     H48448   3.438   6.779  -0.282 -0.2069 -2.2550  3.2448
  359MOL0     H48449   3.554   6.223  -0.240 -1.0404  1.7850 -0.3789
  359MOL0     H48450   3.709   6.072  -0.362  1.9095  0.3689  0.1078
  359MOL0     H48451   5.042   7.076   0.337 -2.0251  0.4542 -0.9585
  359MOL0     H48452   5.231   6.946   0.423  0.3660 -3.5000  4.0313
  359MOL0     H48453   5.441   6.709   0.548 -1.2940 -0.3888  1.0513
  359MOL0     H48454   5.625   6.655   0.706  0.4083  1.3142 -2.4135
  359MOL0     H48455   5.848   6.431   0.888 -1.0194 -1.3123  1.0413
  359MOL0     H48456   5.797   6.544   0.764 -0.0624 -2.6222 -1.2321
  359MOL0     H48457   5.701   6.516   1.049  1.4220 -0.7601 -0.6384
  359MOL0     H48458   5.623   6.629   0.936  1.2474  0.9175 -2.6560
  359MOL0     H48459   5.871   6.712   0.904  3.3025 -1.3714  0.9766
  359MOL0     H48460   5.894   6.642   1.067  1.5641  1.0719 -1.4974
  359MOL0     H48461   5.835   6.858   1.100  2.0440 -1.5394 -0.5734
  359MOL0     H48462   5.698   6.762   1.147 -1.3824  2.6150 -0.0691
  359MOL0     H48463   5.520   7.004   0.855  0.3174  2.1393  3.7071
  359MOL0     H48464   5.453   6.260   0.725 -1.5465  0.6204  0.8634
  359MOL0     H48465   5.276   6.312   0.576  1.5795 -1.1693  1.2273
  360MOL0     O48466   3.657   9.770  10.246  0.2098  0.3666  0.0864
  360MOL0     C48467   3.669   9.652  10.210 -0.2823 -0.6161  0.7642
  360MOL0     O48468   3.578   9.553  10.211 -0.1776  0.3078 -0.2553
  360MOL0     C48469   3.449   9.578  10.261 -0.2147 -0.0288 -0.4217
  360MOL0     C48470   3.418   9.527  10.377 -0.1411  0.0157 -1.0517
  360MOL0     C48471   3.287   9.534  10.421  0.5723 -0.1830  0.5073
  360MOL0     C48472   3.185   9.599  10.339 -0.9793  0.2958 -0.1860
  360MOL0     O48473   3.058   9.591  10.385  0.0208 -0.4028  0.2470
  360MOL0     C48474   2.958   9.651  10.302 -1.6738 -0.1017  0.0815
  360MOL0     C48475   2.840   9.662  10.395 -0.4243  1.0559 -0.1376
  360MOL0     C48476   2.711   9.697  10.317  0.0144 -0.1727  0.4148
  360MOL0     C48477   2.586   9.704  10.408 -0.2185  0.2605  0.0208
  360MOL0     C48478   2.471   9.717  10.324  0.4816 -0.5231 -0.8967
  360MOL0     C48479   2.346   9.753  10.405  0.0501  0.3019  0.5815
  360MOL0     C48480   2.215   9.749  10.331 -0.0193  0.2731  0.0491
  360MOL0     C48481   2.153   9.614  10.305  0.0767 -0.0565 -0.2393
  360MOL0     N48482   2.006   9.640  10.269  0.1098 -0.1005 -0.1143
  360MOL0     C48483   1.957   9.692  10.154 -1.3960 -0.9175  0.0801
  360MOL0     C48484   1.826   9.697  10.169  0.1350 -0.9172  0.3389
  360MOL0     C48485   1.736   9.769  10.075 -0.0817 -0.8813 -0.2627
  360MOL0     C48486   1.617   9.830  10.155  0.4539  1.0218  0.3404
  360MOL0     C48487   1.525   9.925  10.078  0.6275  0.0745 -0.1196
  360MOL0     C48488   1.461   9.858   9.955  0.0040 -0.5686  0.0592
  360MOL0     O48489   1.357   9.931   9.886  0.0977  0.2534  0.0577
  360MOL0     C48490   1.225   9.930   9.923 -0.3380 -0.0560  1.0678
  360MOL0     C48491   1.169   9.871  10.040  0.0172  0.4176  0.4241
  360MOL0     C48492   1.027   9.875  10.071 -0.1332  0.3236 -0.4077
  360MOL0     C48493   0.960   9.794  10.188 -0.2746  0.5997  1.1804
  360MOL0     C48494   0.940   9.937   9.981 -0.6697  0.1092 -0.5832
  360MOL0     C48495   0.795   9.919   9.997  0.7254 -0.5143 -0.1589
  360MOL0     O48496   0.731   9.991  10.100 -0.6303  0.3133  0.3456
  360MOL0     C48497   0.593   9.984  10.118  0.1641 -0.2915 -0.2622
  360MOL0     C48498   0.526  10.107  10.152  0.2819 -0.0656 -0.5809
  360MOL0     C48499   0.385  10.109  10.145  0.5706  0.2331 -0.6655
  360MOL0     C48500   0.307  10.003  10.116  0.6505  0.7358 -0.5360
  360MOL0     O48501   0.167  10.014  10.126 -0.6144  0.0434 -0.1922
  360MOL0     C48502   0.075   9.939  10.046 -0.4413  0.0609 -0.8436
  360MOL0     C48503   0.090   9.983   9.898 -0.0081  0.0002 -0.5097
  360MOL0     C48504   0.003   9.883   9.813 -0.7259 -0.5616 -0.1920
  360MOL0     C48505   0.049   9.891   9.673  0.7624  0.1543 -0.3077
  360MOL0     C48506  -0.049   9.813   9.582 -0.9236  0.1180 -0.4506
  360MOL0     C48507  -0.059   9.660   9.632  0.3767 -0.7099  0.2986
  360MOL0     C48508  -0.165   9.606   9.545  0.5563 -0.1562 -0.3945
  360MOL0     C48509  -0.169   9.455   9.586 -0.9552 -0.2123 -0.6294
  360MOL0    Cl48510  -0.026   9.379   9.534 -0.0489  0.2087 -0.1406
  360MOL0     C48511   0.378   9.881  10.077  0.5458 -1.2941  0.1132
  360MOL0     C48512   0.512   9.872  10.082 -1.3275  0.6277 -0.7579
  360MOL0     O48513   0.746   9.842   9.914 -0.1002 -0.0804 -0.8661
  360MOL0     C48514   0.987  10.012   9.876 -0.5611 -0.0305 -0.0621
  360MOL0     C48515   1.129  10.006   9.851 -0.0212 -0.5588  0.5852
  360MOL0     N48516   1.783   9.642  10.289 -0.2153 -0.3481  0.8264
  360MOL0     N48517   1.895   9.600  10.346  0.1958 -0.5996  0.0504
  360MOL0     C48518   3.230   9.645  10.214  1.0682  0.4561 -0.6413
  360MOL0     C48519   3.359   9.632  10.173  0.7809  0.1977 -0.3368
  360MOL0     C48520   3.799   9.618  10.156  0.0544  0.4895 -0.1051
  360MOL0     C48521   3.833   9.480  10.127 -0.8828  0.3985  0.0791
  360MOL0     C48522   3.961   9.446  10.089  0.1036 -0.0855 -0.5233
  360MOL0     C48523   4.060   9.540  10.085  0.1878  0.0212  0.3852
  360MOL0     O48524   4.183   9.482  10.053 -0.1001  0.4960  0.0632
  360MOL0     C48525   4.310   9.547  10.097  0.2170 -0.7388 -0.5123
  360MOL0     C48526   4.366   9.628   9.983  0.7273 -1.0940  0.0571
  360MOL0     C48527   4.496   9.691  10.028 -0.1019  0.5185 -0.3724
  360MOL0     C48528   4.491   9.812  10.122 -0.1356 -0.7365  0.4304
  360MOL0     C48529   4.635   9.833  10.142  0.9110  0.3341 -0.7163
  360MOL0     C48530   4.754   9.857  10.141 -0.2234  0.0571 -0.2659
  360MOL0     C48531   4.033   9.678  10.100  0.1269  0.5282  0.1827
  360MOL0     C48532   3.899   9.717  10.138  0.8715  0.1184  0.8134
  360MOL0     H48533   3.490   9.475  10.439 -0.0157 -0.5667 -1.6792
  360MOL0     H48534   3.246   9.519  10.520 -1.2332  3.5879  0.5168
  360MOL0     H48535   2.994   9.750  10.274  0.2922 -1.0540 -0.9742
  360MOL0     H48536   2.932   9.593  10.213 -2.4106 -0.4409  0.5012
  360MOL0     H48537   2.819   9.563  10.439 -1.3166  0.7474 -1.2404
  360MOL0     H48538   2.855   9.716  10.489 -0.4559 -0.1909  0.6139
  360MOL0     H48539   2.734   9.794  10.271  0.5352 -0.7608 -0.5944
  360MOL0     H48540   2.687   9.624  10.239 -0.5022 -2.0451  2.2317
  360MOL0     H48541   2.568   9.612  10.464 -1.3585 -0.8755 -2.0713
  360MOL0     H48542   2.583   9.782  10.485 -2.6310  0.4115 -0.1408
  360MOL0     H48543   2.489   9.790  10.245 -0.8984  1.1844  0.2830
  360MOL0     H48544   2.463   9.621  10.273  0.9319 -0.9474 -0.2025
  360MOL0     H48545   2.329   9.698  10.498 -2.2881 -0.4412 -0.2012
  360MOL0     H48546   2.365   9.858  10.428 -1.1354 -0.2095  4.9154
  360MOL0     H48547   2.152   9.817  10.389  1.1441  2.4661 -1.1146
  360MOL0     H48548   2.235   9.799  10.236 -1.0804 -1.3040 -1.0547
  360MOL0     H48549   2.159   9.548  10.392  0.8258 -1.2779 -1.1831
  360MOL0     H48550   2.212   9.567  10.225  0.7249  0.0891  0.1435
  360MOL0     H48551   2.020   9.728  10.073 -1.0508  1.3830  1.3116
  360MOL0     H48552   1.796   9.850  10.032  0.1445  0.1524  1.8994
  360MOL0     H48553   1.716   9.694   9.998 -0.5265  1.0720 -2.1625
  360MOL0     H48554   1.656   9.870  10.249  2.5069 -2.0023  0.9064
  360MOL0     H48555   1.564   9.740  10.187  0.4798  1.4240  1.5811
  360MOL0     H48556   1.576  10.007  10.028 -2.3629  0.5548 -2.6728
  360MOL0     H48557   1.443   9.960  10.142 -2.2419 -0.3530 -3.3150
  360MOL0     H48558   1.409   9.765   9.980 -0.0763 -0.4246  0.4285
  360MOL0     H48559   1.530   9.819   9.879  0.5878  1.5271 -0.5458
  360MOL0     H48560   1.235   9.828  10.116 -2.0246 -1.0143  1.4702
  360MOL0     H48561   0.873   9.843  10.234 -0.8912 -0.3623  1.0776
  360MOL0     H48562   0.927   9.699  10.144 -0.6733  1.3561 -0.1938
  360MOL0     H48563   1.038   9.771  10.261  0.7649  1.6350  0.4166
  360MOL0     H48564   0.586  10.194  10.179 -0.3530  1.1112 -2.7721
  360MOL0     H48565   0.338  10.205  10.160 -1.9104 -0.8485 -1.0191
  360MOL0     H48566   0.090   9.832  10.063  1.1859  0.1789 -1.3655
  360MOL0     H48567  -0.026   9.959  10.082 -0.5234 -1.2021 -0.3099
  360MOL0     H48568   0.048  10.084   9.885 -3.4641 -1.4959 -2.5569
  360MOL0     H48569   0.193   9.983   9.863 -0.1082  1.7659 -0.9000
  360MOL0     H48570  -0.102   9.906   9.830 -0.5979 -0.4285  0.4434
  360MOL0     H48571   0.025   9.780   9.842  0.7494  0.1232  1.2754
  360MOL0     H48572   0.073   9.992   9.639  3.6727 -1.2305 -2.9439
  360MOL0     H48573   0.143   9.837   9.659  0.9364  0.1382  0.8594
  360MOL0     H48574  -0.003   9.819   9.482 -1.8581 -0.1700 -0.9101
  360MOL0     H48575  -0.145   9.864   9.582 -1.9550 -1.5550 -3.4439
  360MOL0     H48576   0.035   9.608   9.611  1.6889  0.5400  2.7066
  360MOL0     H48577  -0.091   9.654   9.736 -1.8119  1.7402 -0.1247
  360MOL0     H48578  -0.150   9.627   9.439  2.3813  0.5990 -0.0216
  360MOL0     H48579  -0.259   9.651   9.576 -0.4927 -4.6265  4.3619
  360MOL0     H48580  -0.263   9.410   9.551 -1.0891  1.1315 -2.1109
  360MOL0     H48581  -0.168   9.463   9.695  1.8787  0.8245 -0.6611
  360MOL0     H48582   0.325   9.787  10.070 -0.8422 -0.5254 -0.2113
  360MOL0     H48583   0.556   9.776  10.060  0.3616  1.1737  0.0304
  360MOL0     H48584   0.925  10.078   9.817  0.2088  1.4809  0.7755
  360MOL0     H48585   1.168  10.065   9.769 -0.2029  0.3777  1.1543
  360MOL0     H48586   3.160   9.676  10.137 -1.4344  1.3373  1.8506
  360MOL0     H48587   3.395   9.651  10.072  0.9935  2.8009  0.1628
  360MOL0     H48588   3.756   9.408  10.152 -3.3165  2.7642 -0.0999
  360MOL0     H48589   3.991   9.343  10.071 -0.5094 -0.0742 -1.7631
  360MOL0     H48590   4.296   9.613  10.184  2.1183 -1.2935  0.2645
  360MOL0     H48591   4.390   9.480  10.130 -0.2011 -1.6769 -1.3450
  360MOL0     H48592   4.292   9.703   9.955  0.9071 -1.4820 -1.5723
  360MOL0     H48593   4.379   9.560   9.898 -2.0997  0.1115 -1.4935
  360MOL0     H48594   4.554   9.724   9.941  4.3042 -2.6324  1.0119
  360MOL0     H48595   4.568   9.622  10.072 -1.6640 -0.4692  0.7622
  360MOL0     H48596   4.444   9.790  10.218  2.3381 -3.1731  1.2040
  360MOL0     H48597   4.442   9.889  10.061  2.3932 -0.6572 -1.6629
  360MOL0     H48598   4.858   9.880  10.145  0.4867 -2.5393 -1.3608
  360MOL0     H48599   4.109   9.754  10.088 -0.8216  1.4223 -0.3152
  360MOL0     H48600   3.869   9.821  10.149  0.0021 -0.1445  1.0106
  361MOL0     O48601   1.347   2.766   4.352  0.1940  0.2895 -0.4732
  361MOL0     C48602   1.438   2.681   4.334  0.3382  0.4945 -0.3557
  361MOL0     O48603   1.420   2.543   4.331  0.5371 -0.1492 -0.4897
  361MOL0     C48604   1.303   2.480   4.347  0.1385 -0.2129  0.4283
  361MOL0     C48605   1.194   2.519   4.274 -0.1964 -0.6699  0.3624
  361MOL0     C48606   1.065   2.463   4.294 -0.4859  0.3422  0.2248
  361MOL0     C48607   1.048   2.366   4.396 -0.0985 -0.2979  0.7335
  361MOL0     O48608   0.930   2.307   4.426 -0.4577 -0.5968 -1.0633
  361MOL0     C48609   0.838   2.399   4.484  0.1360  0.1612 -0.1697
  361MOL0     C48610   0.706   2.315   4.519  0.3922 -0.5744  0.2933
  361MOL0     C48611   0.622   2.293   4.395 -0.1126  0.3983 -0.1796
  361MOL0     C48612   0.496   2.216   4.440  0.2648 -0.0535  0.0250
  361MOL0     C48613   0.392   2.234   4.327 -0.0134 -0.5011  0.3655
  361MOL0     C48614   0.270   2.123   4.360  0.0008 -0.7020 -0.3430
  361MOL0     C48615   0.135   2.163   4.297  1.0423 -0.1718 -0.1133
  361MOL0     C48616   0.141   2.188   4.138  0.2900  0.6815 -0.0177
  361MOL0     N48617   0.004   2.176   4.083 -0.0407 -0.1854  0.7025
  361MOL0     C48618  -0.106   2.249   4.129  0.7732  0.9862  0.0862
  361MOL0     C48619  -0.214   2.200   4.062  1.1633  0.8178 -0.6701
  361MOL0     C48620  -0.357   2.237   4.086  0.6434  0.0690  0.2807
  361MOL0     C48621  -0.442   2.110   4.106 -0.8011 -0.1088  0.3280
  361MOL0     C48622  -0.587   2.147   4.075 -0.6768  0.8199  1.0512
  361MOL0     C48623  -0.646   2.251   4.184  0.0255  0.3975  0.0329
  361MOL0     O48624  -0.670   2.188   4.313 -0.0932  0.1781 -0.0727
  361MOL0     C48625  -0.799   2.127   4.330  0.1517  1.2721  0.4242
  361MOL0     C48626  -0.832   2.079   4.460  0.3579 -0.5955 -0.1254
  361MOL0     C48627  -0.959   2.021   4.496  0.1037  0.0948 -0.8102
  361MOL0     C48628  -0.978   1.972   4.639  0.2098  0.5367  0.5227
  361MOL0     C48629  -1.048   1.991   4.390  0.1972  0.1826  0.0095
  361MOL0     C48630  -1.179   1.922   4.421 -1.0425  0.7222  0.1761
  361MOL0     O48631  -1.277   1.959   4.338  0.1967 -0.4813 -0.4782
  361MOL0     C48632  -1.400   1.915   4.350  0.5934 -0.1308 -0.3994
  361MOL0     C48633  -1.478   1.948   4.458  0.0626  0.2146  0.8416
  361MOL0     C48634  -1.607   1.912   4.454  0.0485  0.1465 -0.0600
  361MOL0     C48635  -1.655   1.828   4.363  0.5481 -0.0341  1.3229
  361MOL0     O48636  -1.785   1.782   4.381 -0.0223  0.1311 -0.2686
  361MOL0     C48637  -1.828   1.688   4.283 -0.8462 -0.5903 -0.4765
  361MOL0     C48638  -1.973   1.639   4.303 -0.0531 -0.0348 -0.3926
  361MOL0     C48639  -2.066   1.753   4.273 -0.3835  0.2233  0.3108
  361MOL0     C48640  -2.213   1.709   4.269  0.0168  0.2520 -0.9160
  361MOL0     C48641  -2.309   1.825   4.292 -0.0815 -1.6781 -0.4044
  361MOL0     C48642  -2.306   1.935   4.183  0.2735 -0.6616 -0.6392
  361MOL0     C48643  -2.327   1.889   4.038 -0.5913  0.6731  0.3496
  361MOL0     C48644  -2.308   2.000   3.935 -0.1574 -0.3921 -0.8755
  361MOL0    Cl48645  -2.289   1.941   3.760  0.3115  0.2789  0.3098
  361MOL0     C48646  -1.572   1.795   4.254  0.1859  0.8740  0.0800
  361MOL0     C48647  -1.443   1.832   4.249 -0.1718  0.4512 -0.1314
  361MOL0     O48648  -1.194   1.836   4.508 -0.4884 -0.1706  0.0134
  361MOL0     C48649  -1.023   2.051   4.268 -0.1272 -0.0954  0.0522
  361MOL0     C48650  -0.906   2.116   4.234 -0.3017 -0.5859 -0.1345
  361MOL0     N48651  -0.164   2.103   3.965  0.4305 -0.6160 -0.1683
  361MOL0     N48652  -0.039   2.107   3.967 -0.3529  0.2324 -0.6411
  361MOL0     C48653   1.152   2.337   4.484  0.2286  0.2618  0.0692
  361MOL0     C48654   1.283   2.393   4.465  0.6976 -0.7559  0.2635
  361MOL0     C48655   1.567   2.733   4.342 -0.3792  0.5869 -0.5763
  361MOL0     C48656   1.674   2.641   4.350  0.9900  0.0681  0.1679
  361MOL0     C48657   1.803   2.696   4.345 -0.9448  0.7658  0.2559
  361MOL0     C48658   1.836   2.831   4.354 -0.0016  0.0945  1.3940
  361MOL0     O48659   1.964   2.890   4.356  0.8895  0.7178  0.1305
  361MOL0     C48660   2.077   2.816   4.304 -0.7544 -0.2851  0.0665
  361MOL0     C48661   2.184   2.917   4.257 -0.3672 -0.0162  0.8412
  361MOL0     C48662   2.307   2.854   4.182 -0.3120 -0.0873 -0.2644
  361MOL0     C48663   2.440   2.944   4.209  0.5764  0.7408  0.2850
  361MOL0     C48664   2.476   2.906   4.351 -0.0311 -0.2085  0.5247
  361MOL0     C48665   2.494   2.871   4.464 -0.1698 -0.3100 -0.1222
  361MOL0     C48666   1.729   2.912   4.357  0.1199  0.6629  0.3881
  361MOL0     C48667   1.596   2.873   4.349 -0.5152 -0.5915 -0.4705
  361MOL0     H48668   1.219   2.590   4.196 -0.3524 -1.2997 -0.2676
  361MOL0     H48669   0.982   2.502   4.237  2.2689  5.0182 -1.1162
  361MOL0     H48670   0.885   2.437   4.575  2.5884 -1.8445 -0.4806
  361MOL0     H48671   0.801   2.482   4.424 -1.8715 -0.3113  0.3346
  361MOL0     H48672   0.729   2.224   4.574 -0.2273 -1.1457 -0.3760
  361MOL0     H48673   0.655   2.367   4.601  1.7831 -0.3390  1.0456
  361MOL0     H48674   0.598   2.387   4.344 -0.9360 -0.3122 -1.1463
  361MOL0     H48675   0.675   2.226   4.326 -0.0970 -0.0912  0.2988
  361MOL0     H48676   0.519   2.114   4.474 -0.4643 -0.1601  0.2250
  361MOL0     H48677   0.445   2.251   4.531 -3.5334 -2.4138 -0.9203
  361MOL0     H48678   0.338   2.329   4.334 -1.2695 -1.2987  2.6654
  361MOL0     H48679   0.437   2.218   4.229  0.7723 -0.1618  0.6635
  361MOL0     H48680   0.287   2.019   4.330 -2.0122 -1.9089  2.2874
  361MOL0     H48681   0.254   2.122   4.468  0.4533  1.7999 -0.1722
  361MOL0     H48682   0.066   2.085   4.332 -0.5806  1.8542  1.4187
  361MOL0     H48683   0.100   2.253   4.349 -1.2700 -1.2325  0.2840
  361MOL0     H48684   0.199   2.110   4.088 -1.5711  0.2006 -1.5543
  361MOL0     H48685   0.181   2.289   4.138  0.9238  0.4399 -0.6229
  361MOL0     H48686  -0.108   2.325   4.206 -1.3010 -0.0653  1.1556
  361MOL0     H48687  -0.363   2.289   4.182 -4.6371 -0.8315  0.7020
  361MOL0     H48688  -0.385   2.308   4.008  1.2153 -0.2955 -0.2610
  361MOL0     H48689  -0.432   2.055   4.200  1.7545  0.2487  0.3311
  361MOL0     H48690  -0.418   2.039   4.026 -0.6987  0.7165 -0.3931
  361MOL0     H48691  -0.639   2.051   4.065  2.1959 -0.6256 -4.7670
  361MOL0     H48692  -0.592   2.195   3.977  0.9736 -1.7072 -0.3893
  361MOL0     H48693  -0.732   2.312   4.152  1.1131  2.8887  1.5370
  361MOL0     H48694  -0.573   2.333   4.192 -2.0354  2.1733  3.7587
  361MOL0     H48695  -0.757   2.101   4.535 -1.0665 -0.2435  1.2672
  361MOL0     H48696  -1.001   1.866   4.657  0.1430  0.7128  1.5900
  361MOL0     H48697  -0.898   2.009   4.704  0.6078 -2.9275  2.2297
  361MOL0     H48698  -1.067   2.019   4.682  0.5326 -0.6261  2.5846
  361MOL0     H48699  -1.439   2.004   4.543 -1.2079 -0.8044  2.1516
  361MOL0     H48700  -1.669   1.945   4.536 -1.4928  0.7542 -1.4146
  361MOL0     H48701  -1.825   1.730   4.182 -0.2863 -0.5695 -0.4533
  361MOL0     H48702  -1.771   1.595   4.293 -0.3771 -0.5157 -2.1993
  361MOL0     H48703  -1.999   1.570   4.223 -1.5763 -1.9160  1.6038
  361MOL0     H48704  -1.987   1.604   4.406  2.7490  1.2324  0.5287
  361MOL0     H48705  -2.051   1.803   4.177  0.0693 -1.3822 -0.4948
  361MOL0     H48706  -2.056   1.834   4.345  0.6985 -1.0665  1.6683
  361MOL0     H48707  -2.222   1.661   4.171  1.1364 -3.2083  0.4935
  361MOL0     H48708  -2.241   1.633   4.342 -2.0019  0.3538 -1.5327
  361MOL0     H48709  -2.287   1.869   4.390 -0.2617 -2.2627 -0.0989
  361MOL0     H48710  -2.409   1.781   4.288 -1.8174  1.9424 -2.4498
  361MOL0     H48711  -2.379   2.016   4.194  0.6377  0.0889 -3.0223
  361MOL0     H48712  -2.217   1.998   4.183 -1.2097  1.6073 -1.4620
  361MOL0     H48713  -2.430   1.855   4.024 -0.8412  2.2752 -2.4160
  361MOL0     H48714  -2.257   1.807   4.018  0.5876  1.2284  1.9946
  361MOL0     H48715  -2.210   2.046   3.951 -0.3547 -0.3082  0.1578
  361MOL0     H48716  -2.378   2.083   3.938  0.3006 -0.0140 -0.2507
  361MOL0     H48717  -1.596   1.721   4.179  0.4991 -0.2377  1.0498
  361MOL0     H48718  -1.387   1.794   4.164  0.8923  0.1348  0.6777
  361MOL0     H48719  -1.090   2.040   4.184 -0.1682 -0.9309  0.1896
  361MOL0     H48720  -0.899   2.161   4.135  2.9820 -0.0469  0.2348
  361MOL0     H48721   1.130   2.261   4.559  1.6639  0.0955  0.3433
  361MOL0     H48722   1.370   2.366   4.523  4.1527  0.1371 -3.9662
  361MOL0     H48723   1.667   2.532   4.353 -1.9620  0.0603 -2.1905
  361MOL0     H48724   1.889   2.630   4.354 -1.2507  0.6495  4.4664
  361MOL0     H48725   2.115   2.763   4.392 -2.1803  1.0186  1.5475
  361MOL0     H48726   2.041   2.748   4.227 -1.0058 -0.3873  0.2701
  361MOL0     H48727   2.213   2.987   4.335  3.4818 -1.4726  0.9304
  361MOL0     H48728   2.132   2.980   4.185  0.6537 -2.3483 -2.1730
  361MOL0     H48729   2.284   2.848   4.075  1.6654 -1.7878 -0.6618
  361MOL0     H48730   2.324   2.750   4.209 -2.6779 -0.5088 -0.1194
  361MOL0     H48731   2.406   3.047   4.217  0.0448  0.6424 -0.5929
  361MOL0     H48732   2.513   2.924   4.130 -3.9453 -2.4086 -3.7042
  361MOL0     H48733   2.497   2.824   4.561 -3.0971 -2.2910 -0.8638
  361MOL0     H48734   1.762   3.016   4.366 -0.4572  0.9700 -0.8952
  361MOL0     H48735   1.512   2.941   4.340 -1.6871 -2.1288 -1.5731
  362MOL0     O48736   4.423   4.252   3.453 -0.5229  0.1437 -0.2246
  362MOL0     C48737   4.451   4.245   3.333  0.1604 -0.0143 -0.6949
  362MOL0     O48738   4.358   4.234   3.223 -0.5128  0.1757 -0.7066
  362MOL0     C48739   4.227   4.218   3.246  0.0222  0.6368 -0.6279
  362MOL0     C48740   4.152   4.273   3.346  0.3425 -0.3883 -0.4851
  362MOL0     C48741   4.018   4.243   3.373  0.1493  0.2819  0.7649
  362MOL0     C48742   3.944   4.163   3.282  0.1872 -0.8417 -1.1670
  362MOL0     O48743   3.806   4.161   3.287  0.0292  0.8531 -0.2913
  362MOL0     C48744   3.732   4.060   3.216  0.0630  0.0760  0.5399
  362MOL0     C48745   3.604   4.031   3.282 -0.0584 -1.0552 -0.7690
  362MOL0     C48746   3.529   3.909   3.228 -0.1541  0.3010  0.2613
  362MOL0     C48747   3.473   3.941   3.086  0.1175  0.2170  0.5209
  362MOL0     C48748   3.376   3.833   3.032 -0.6776 -0.5787  0.5893
  362MOL0     C48749   3.235   3.870   3.085 -0.2081 -0.3298  0.9079
  362MOL0     C48750   3.137   3.760   3.052 -0.4428 -0.4062  0.3890
  362MOL0     C48751   2.983   3.803   3.068 -0.3710  0.0306  0.1024
  362MOL0     N48752   2.902   3.681   3.066  0.3556 -0.4510 -0.3659
  362MOL0     C48753   2.857   3.616   3.181 -0.5735  0.7301 -0.3172
  362MOL0     C48754   2.792   3.505   3.128 -1.1250 -0.3728 -1.1809
  362MOL0     C48755   2.727   3.395   3.200  0.2893  0.0908 -0.1277
  362MOL0     C48756   2.578   3.377   3.174  0.1243 -0.5558 -0.4876
  362MOL0     C48757   2.530   3.319   3.301 -0.5196  0.6024  0.7023
  362MOL0     C48758   2.387   3.264   3.288 -0.7858 -0.2559 -0.6424
  362MOL0     O48759   2.357   3.224   3.420 -1.0309  0.4574 -0.2650
  362MOL0     C48760   2.236   3.160   3.434 -0.0992 -0.5583  1.0343
  362MOL0     C48761   2.228   3.051   3.519 -0.0729 -0.2754 -0.7725
  362MOL0     C48762   2.108   2.979   3.542 -0.8658 -0.0941 -0.1850
  362MOL0     C48763   2.109   2.856   3.631  0.3371 -0.1125 -0.0196
  362MOL0     C48764   1.985   3.028   3.491  0.6219  0.0259  0.4396
  362MOL0     C48765   1.842   2.981   3.525  0.3088  0.4474  0.1984
  362MOL0     O48766   1.741   3.012   3.429  0.4675 -0.6322  0.1958
  362MOL0     C48767   1.616   2.948   3.443  0.9599 -0.7227  0.5173
  362MOL0     C48768   1.521   3.012   3.526 -0.3102  0.0537 -0.2050
  362MOL0     C48769   1.398   2.951   3.566 -0.0345 -0.6967 -0.5109
  362MOL0     C48770   1.383   2.821   3.526  0.2395  0.3251  0.0769
  362MOL0     O48771   1.286   2.738   3.569  0.1269  0.5180  0.1833
  362MOL0     C48772   1.215   2.779   3.682 -0.5492 -0.2406 -0.0029
  362MOL0     C48773   1.162   2.655   3.756  0.3283  1.0414 -0.6585
  362MOL0     C48774   1.031   2.590   3.703 -1.0863 -0.8755  0.2466
  362MOL0     C48775   0.984   2.462   3.765 -0.0151 -0.7506 -0.8240
  362MOL0     C48776   0.857   2.400   3.697 -0.2327 -0.1712 -0.3420
  362MOL0     C48777   0.810   2.285   3.790 -0.0482 -0.3123 -0.2050
  362MOL0     C48778   0.661   2.255   3.754  0.0522 -0.3624 -0.0884
  362MOL0     C48779   0.618   2.120   3.821  0.2951  0.7079  0.2896
  362MOL0    Cl48780   0.570   2.157   3.988 -0.1681 -0.1500 -0.1735
  362MOL0     C48781   1.480   2.759   3.449  0.5772 -0.5953  0.0948
  362MOL0     C48782   1.591   2.822   3.403 -0.0772  0.6239  0.2170
  362MOL0     O48783   1.819   2.917   3.630  0.4550  0.1834  0.0283
  362MOL0     C48784   1.995   3.137   3.402 -0.3242  0.2026  0.5943
  362MOL0     C48785   2.119   3.201   3.371  0.3957  0.8079 -0.1945
  362MOL0     N48786   2.797   3.520   2.991 -0.9535  0.6978  0.5454
  362MOL0     N48787   2.861   3.626   2.960  0.5746  0.7464  0.5397
  362MOL0     C48788   4.021   4.113   3.176 -0.5439 -0.5470  0.7791
  362MOL0     C48789   4.160   4.134   3.159  0.0444 -0.5363 -0.7856
  362MOL0     C48790   4.595   4.222   3.305 -0.2000  0.1126  0.2886
  362MOL0     C48791   4.692   4.246   3.399 -0.5876 -0.2403 -0.8456
  362MOL0     C48792   4.826   4.234   3.372  0.1105  0.0326 -0.1742
  362MOL0     C48793   4.864   4.187   3.251 -1.0894  0.3303 -0.2413
  362MOL0     O48794   5.000   4.181   3.241  0.2167 -0.1186 -0.0663
  362MOL0     C48795   5.056   4.197   3.108 -0.2486  0.2209 -0.5128
  362MOL0     C48796   5.212   4.197   3.110 -0.2303  0.5975 -0.1060
  362MOL0     C48797   5.275   4.299   3.207 -0.2590  0.1582  0.0512
  362MOL0     C48798   5.264   4.448   3.166  0.1291  0.4715 -0.3044
  362MOL0     C48799   5.347   4.516   3.261  0.1673 -0.0078  0.1023
  362MOL0     C48800   5.420   4.572   3.342 -0.1606  1.3472  0.4436
  362MOL0     C48801   4.772   4.155   3.161  0.5762  0.7324  0.0440
  362MOL0     C48802   4.636   4.174   3.188  0.1941 -0.1444  0.3004
  362MOL0     H48803   4.187   4.343   3.421 -0.8456 -2.2030  1.9126
  362MOL0     H48804   3.976   4.304   3.452 -0.8037  3.3424 -1.9051
  362MOL0     H48805   3.711   4.090   3.113 -0.5658  0.7748  0.8659
  362MOL0     H48806   3.800   3.974   3.209 -1.5975 -1.4289  2.1466
  362MOL0     H48807   3.614   4.005   3.388 -2.4397 -0.3252 -0.3021
  362MOL0     H48808   3.536   4.115   3.271  2.6569  1.4694  0.3729
  362MOL0     H48809   3.594   3.822   3.227  0.4536  0.7437 -1.9028
  362MOL0     H48810   3.444   3.891   3.296 -1.1435 -1.7717 -1.4301
  362MOL0     H48811   3.437   4.045   3.086  3.9345  1.6854  1.1148
  362MOL0     H48812   3.564   3.941   3.026  1.3598  1.3408  2.3273
  362MOL0     H48813   3.373   3.838   2.923  0.6168 -0.0239  0.5637
  362MOL0     H48814   3.424   3.745   3.076  2.2529  0.6130  0.0094
  362MOL0     H48815   3.223   3.892   3.192  0.2462  0.9299  0.7079
  362MOL0     H48816   3.207   3.958   3.028 -3.2168 -1.3550  0.6292
  362MOL0     H48817   3.143   3.739   2.945  1.0672  3.4167 -0.4208
  362MOL0     H48818   3.140   3.678   3.124 -0.5745  0.4920  1.4538
  362MOL0     H48819   2.963   3.867   2.982  1.7388  0.6863  0.0551
  362MOL0     H48820   2.969   3.848   3.167  4.7012 -1.2075  1.6652
  362MOL0     H48821   2.888   3.627   3.284 -0.1329  0.3859 -0.4131
  362MOL0     H48822   2.772   3.298   3.180 -0.7303 -0.3062 -0.5287
  362MOL0     H48823   2.731   3.411   3.309  0.6008  2.6525 -0.4422
  362MOL0     H48824   2.569   3.314   3.085  1.2368  0.7506 -1.5807
  362MOL0     H48825   2.529   3.472   3.151  0.2821 -0.4957 -0.5767
  362MOL0     H48826   2.527   3.401   3.373  6.6696  0.9241  1.4308
  362MOL0     H48827   2.600   3.241   3.334  1.5399  1.0324 -2.2063
  362MOL0     H48828   2.387   3.176   3.224  0.6979  0.5327 -1.7993
  362MOL0     H48829   2.322   3.345   3.255 -0.2711 -0.3772 -2.0026
  362MOL0     H48830   2.323   3.026   3.566  0.9135  3.5039 -0.4340
  362MOL0     H48831   2.062   2.875   3.728  0.0813 -2.4940  0.3795
  362MOL0     H48832   2.046   2.779   3.586 -1.3891  0.3357  1.4733
  362MOL0     H48833   2.207   2.816   3.656  0.9002  2.2028  1.8467
  362MOL0     H48834   1.544   3.109   3.569  0.9546 -0.2850 -0.0816
  362MOL0     H48835   1.330   3.003   3.633  1.8572  0.7301  0.3984
  362MOL0     H48836   1.276   2.845   3.745 -0.0816 -0.0189 -0.6833
  362MOL0     H48837   1.133   2.840   3.642  0.3033 -0.9313 -3.0780
  362MOL0     H48838   1.237   2.575   3.759 -0.3388  0.4479  1.7852
  362MOL0     H48839   1.139   2.684   3.859 -3.0913 -1.0923 -0.6550
  362MOL0     H48840   1.044   2.581   3.594  3.8091  2.0630  0.2938
  362MOL0     H48841   0.946   2.659   3.704  0.4567  1.2258 -1.7002
  362MOL0     H48842   1.071   2.395   3.762 -1.0692 -2.3479  1.5339
  362MOL0     H48843   0.964   2.470   3.872 -0.3653 -0.6260 -0.8963
  362MOL0     H48844   0.878   2.373   3.594  2.4836  0.5306 -0.0517
  362MOL0     H48845   0.783   2.481   3.703  1.6274  1.5188  2.3226
  362MOL0     H48846   0.868   2.193   3.775 -0.2893 -0.4907 -0.0427
  362MOL0     H48847   0.817   2.312   3.896 -2.0991 -1.7322  0.3341
  362MOL0     H48848   0.661   2.241   3.646  1.1013 -2.3727  0.1226
  362MOL0     H48849   0.584   2.329   3.778 -0.2312 -1.0720  1.3029
  362MOL0     H48850   0.703   2.052   3.812 -1.1701 -0.9614 -2.1869
  362MOL0     H48851   0.529   2.073   3.780  0.3861 -1.4092  2.3261
  362MOL0     H48852   1.463   2.656   3.420 -0.8175 -0.5420  0.6890
  362MOL0     H48853   1.665   2.765   3.348  2.5815  3.1221  0.9555
  362MOL0     H48854   1.913   3.185   3.350  1.6216  2.5565 -0.4628
  362MOL0     H48855   2.114   3.287   3.305  1.2887  1.4129  0.5057
  362MOL0     H48856   3.979   4.054   3.095  1.3620  1.4553 -1.8722
  362MOL0     H48857   4.208   4.093   3.070 -0.5260 -1.7111 -0.5681
  362MOL0     H48858   4.672   4.272   3.502  3.3671  1.1050 -0.2433
  362MOL0     H48859   4.895   4.246   3.455  1.4990 -0.4290 -1.2231
  362MOL0     H48860   5.014   4.120   3.042 -1.0633 -0.9101  1.2645
  362MOL0     H48861   5.026   4.294   3.068  0.1256  0.8807  0.7562
  362MOL0     H48862   5.256   4.213   3.011  2.1964 -0.4418  0.7281
  362MOL0     H48863   5.254   4.098   3.127 -0.5104  0.7009  1.2866
  362MOL0     H48864   5.380   4.271   3.220 -0.0290  0.9983  0.0837
  362MOL0     H48865   5.224   4.283   3.302 -0.9460  0.3789 -0.2767
  362MOL0     H48866   5.159   4.480   3.164  0.2118  0.7399 -0.3527
  362MOL0     H48867   5.302   4.449   3.064 -2.0426 -0.8199 -1.2046
  362MOL0     H48868   5.496   4.613   3.405  0.3671  2.6726 -0.9981
  362MOL0     H48869   4.798   4.111   3.066  2.0650 -0.0179  0.7620
  362MOL0     H48870   4.575   4.159   3.099  2.4727  0.8465 -1.5527
  363MOL0     O48871   1.192   9.027   2.568 -0.5284 -1.2012  0.2153
  363MOL0     C48872   1.162   8.960   2.669 -0.1966  0.0969  0.6588
  363MOL0     O48873   1.083   9.000   2.769  0.2525 -0.3233 -0.3931
  363MOL0     C48874   1.008   9.117   2.750  0.2817  1.1166  0.4609
  363MOL0     C48875   0.906   9.104   2.652 -0.3143 -0.5296 -0.3125
  363MOL0     C48876   0.826   9.218   2.617 -0.4513 -0.8872 -0.4390
  363MOL0     C48877   0.833   9.345   2.685  0.5536  1.4055 -0.1417
  363MOL0     O48878   0.757   9.451   2.644  0.7552  0.0443  0.2057
  363MOL0     C48879   0.718   9.547   2.739  0.1087 -0.3349  0.3320
  363MOL0     C48880   0.582   9.596   2.723 -0.9808 -0.0415  0.0500
  363MOL0     C48881   0.570   9.684   2.599  0.7923 -0.5064  0.2513
  363MOL0     C48882   0.435   9.742   2.580  0.5818 -0.0408  0.6334
  363MOL0     C48883   0.417   9.808   2.439  0.4593 -0.2616 -0.0997
  363MOL0     C48884   0.274   9.866   2.445 -0.6681  0.1480 -1.0177
  363MOL0     C48885   0.209   9.871   2.307 -0.1363  0.4159  0.2373
  363MOL0     C48886   0.277   9.989   2.229  0.6500 -0.0393  0.5133
  363MOL0     N48887   0.240   9.987   2.086  0.1225  0.7275 -0.2204
  363MOL0     C48888   0.117  10.027   2.043  0.7644  0.1283 -0.3887
  363MOL0     C48889   0.119  10.023   1.905 -0.8452  0.6206 -0.7935
  363MOL0     C48890   0.001  10.069   1.827  0.0027 -0.0561  0.0416
  363MOL0     C48891  -0.127   9.989   1.858  0.5542 -0.6884 -0.5280
  363MOL0     C48892  -0.246  10.028   1.764 -0.3566  0.5586  0.0763
  363MOL0     C48893  -0.378   9.981   1.816  0.4950 -1.5550  0.6677
  363MOL0     O48894  -0.387   9.835   1.826  0.7894 -0.3891  0.3556
  363MOL0     C48895  -0.516   9.792   1.805 -0.2484  0.2702 -0.9339
  363MOL0     C48896  -0.634   9.855   1.842  0.3307  0.4125 -0.4423
  363MOL0     C48897  -0.762   9.802   1.807 -0.0004  0.4004 -0.5186
  363MOL0     C48898  -0.874   9.888   1.859  0.7299  0.0624 -0.6686
  363MOL0     C48899  -0.775   9.688   1.724  0.3407  0.6183  0.7458
  363MOL0     C48900  -0.902   9.627   1.661 -0.0444 -0.6408 -1.0408
  363MOL0     O48901  -1.021   9.650   1.723  0.0116 -0.1366  0.2604
  363MOL0     C48902  -1.127   9.564   1.713  0.3787  0.0619  1.0187
  363MOL0     C48903  -1.255   9.621   1.695  0.1198  0.2586  0.6459
  363MOL0     C48904  -1.364   9.540   1.668 -1.1000  0.1117 -1.2992
  363MOL0     C48905  -1.347   9.402   1.667  0.4621 -0.0166  0.0009
  363MOL0     O48906  -1.447   9.313   1.655  0.4629 -0.2479 -0.0871
  363MOL0     C48907  -1.575   9.372   1.623  0.1486  0.3723  0.0940
  363MOL0     C48908  -1.688   9.264   1.637  0.3377 -0.3222  0.3870
  363MOL0     C48909  -1.670   9.149   1.530 -0.0450  0.6755  0.0276
  363MOL0     C48910  -1.801   9.070   1.520  0.4481  0.2161  1.3575
  363MOL0     C48911  -1.792   8.932   1.448  0.7455 -0.1611 -0.8263
  363MOL0     C48912  -1.927   8.854   1.404 -0.6488 -0.5832  0.3666
  363MOL0     C48913  -1.897   8.709   1.372 -0.3238  0.8254 -0.1005
  363MOL0     C48914  -2.024   8.632   1.351 -0.4844 -0.6122 -0.5134
  363MOL0    Cl48915  -1.981   8.458   1.355  0.4927  0.1790 -0.1741
  363MOL0     C48916  -1.225   9.343   1.690 -0.7642  0.7816  0.6925
  363MOL0     C48917  -1.115   9.423   1.702  0.5254  0.4983 -0.2550
  363MOL0     O48918  -0.889   9.547   1.570 -0.3687  0.9816 -0.1480
  363MOL0     C48919  -0.653   9.631   1.680  0.8691 -0.3146 -0.0853
  363MOL0     C48920  -0.530   9.679   1.726  0.0529  0.5495  0.1325
  363MOL0     N48921   0.235   9.959   1.873  0.2563 -0.4230 -0.3659
  363MOL0     N48922   0.312   9.934   1.984  0.2608  0.1373  0.3508
  363MOL0     C48923   0.929   9.348   2.792 -1.1192 -0.0146  0.6673
  363MOL0     C48924   1.017   9.238   2.825  0.1598 -0.5279  0.8238
  363MOL0     C48925   1.236   8.840   2.685 -0.7076  0.6634 -0.5413
  363MOL0     C48926   1.324   8.789   2.588  0.6389  0.2452  0.0765
  363MOL0     C48927   1.388   8.665   2.597 -0.5596 -0.2204  0.4289
  363MOL0     C48928   1.382   8.592   2.712  0.8411  0.4129 -0.6005
  363MOL0     O48929   1.456   8.475   2.723 -0.5165 -0.0260  0.1290
  363MOL0     C48930   1.454   8.402   2.849 -0.5670  0.2755 -0.0497
  363MOL0     C48931   1.536   8.273   2.841  0.8057 -0.7766  0.6620
  363MOL0     C48932   1.686   8.315   2.835 -0.4209 -0.4148  0.3880
  363MOL0     C48933   1.786   8.200   2.850 -0.7630  0.9158 -0.0470
  363MOL0     C48934   1.779   8.147   2.983 -1.0276  0.4791  0.0735
  363MOL0     C48935   1.774   8.116   3.093 -0.3878  0.0089 -0.1911
  363MOL0     C48936   1.300   8.642   2.815  0.1492  0.7229  0.2928
  363MOL0     C48937   1.222   8.752   2.793 -0.5577  0.6124 -0.3537
  363MOL0     H48938   0.908   9.007   2.604  3.2780 -0.8173  0.1834
  363MOL0     H48939   0.766   9.212   2.526 -1.9253  0.7663  0.3508
  363MOL0     H48940   0.716   9.491   2.833 -2.0030  3.3516  2.6962
  363MOL0     H48941   0.793   9.625   2.756  0.1731 -0.7857  2.3356
  363MOL0     H48942   0.508   9.516   2.721 -0.6388 -0.7259  4.5753
  363MOL0     H48943   0.565   9.642   2.821 -0.6654  0.3168 -0.0613
  363MOL0     H48944   0.647   9.757   2.626  1.4536 -1.5093  1.1830
  363MOL0     H48945   0.598   9.622   2.513 -0.6211 -0.1116 -0.5186
  363MOL0     H48946   0.365   9.660   2.597  1.0575 -0.5353  0.2544
  363MOL0     H48947   0.406   9.816   2.655 -3.7799 -0.0911 -0.7501
  363MOL0     H48948   0.499   9.880   2.433 -1.0589  1.4839 -1.1915
  363MOL0     H48949   0.427   9.729   2.364  1.4890 -1.4700  1.2479
  363MOL0     H48950   0.210   9.807   2.511 -2.3598  0.9697 -1.8345
  363MOL0     H48951   0.280   9.969   2.482 -0.1186 -0.3114  0.1920
  363MOL0     H48952   0.205   9.775   2.256 -0.9955 -1.1715  3.0934
  363MOL0     H48953   0.109   9.906   2.332  0.2866  1.9121 -0.0598
  363MOL0     H48954   0.386   9.981   2.224  0.6510  0.6881 -1.4933
  363MOL0     H48955   0.260  10.079   2.289 -0.5856 -0.0143  0.1488
  363MOL0     H48956   0.029  10.057   2.100  2.3950  0.0984  2.3307
  363MOL0     H48957  -0.012  10.177   1.837  3.2137  0.6551 -2.0530
  363MOL0     H48958   0.028  10.057   1.722  0.8885  0.4061  0.2028
  363MOL0     H48959  -0.153  10.017   1.961  1.3678  0.1106 -0.5326
  363MOL0     H48960  -0.122   9.880   1.847  0.1507 -0.7491 -0.1470
  363MOL0     H48961  -0.221   9.996   1.663  0.8295 -1.8929  1.0746
  363MOL0     H48962  -0.256  10.137   1.772 -1.0497  0.4486  0.9095
  363MOL0     H48963  -0.457  10.005   1.743  0.4404 -1.2363  0.8293
  363MOL0     H48964  -0.406  10.034   1.907  2.3198  0.1067  0.3242
  363MOL0     H48965  -0.619   9.943   1.904 -0.8756 -1.5201  2.7976
  363MOL0     H48966  -0.959   9.879   1.792 -1.6966  1.2915  2.0464
  363MOL0     H48967  -0.900   9.835   1.952 -0.1636  1.1904 -0.2620
  363MOL0     H48968  -0.853   9.992   1.884  2.7938 -1.0592  3.2781
  363MOL0     H48969  -1.267   9.728   1.708 -0.6377  0.1157  1.1810
  363MOL0     H48970  -1.457   9.595   1.656 -1.1361 -0.0020 -1.5433
  363MOL0     H48971  -1.597   9.458   1.687  2.2657 -0.6554  2.3916
  363MOL0     H48972  -1.558   9.414   1.523 -2.6477 -2.1349 -1.5932
  363MOL0     H48973  -1.680   9.215   1.734  0.6207 -1.0261  0.0153
  363MOL0     H48974  -1.789   9.307   1.631  0.5680  0.2306  0.4513
  363MOL0     H48975  -1.587   9.083   1.556  0.2775  0.6405 -1.0412
  363MOL0     H48976  -1.653   9.185   1.428 -2.5042 -3.8598 -2.3427
  363MOL0     H48977  -1.834   9.049   1.622 -1.9610 -0.6773  0.4591
  363MOL0     H48978  -1.880   9.130   1.474  0.1006 -1.6998 -0.7617
  363MOL0     H48979  -1.737   8.865   1.515  0.6986  0.5659 -0.0371
  363MOL0     H48980  -1.738   8.949   1.354  1.3370 -2.9912 -1.0826
  363MOL0     H48981  -2.002   8.856   1.484 -1.3357 -2.0408 -0.2116
  363MOL0     H48982  -1.972   8.913   1.324  0.4123  1.8990  1.4915
  363MOL0     H48983  -1.834   8.674   1.454  0.2605  1.1133 -0.4130
  363MOL0     H48984  -1.836   8.697   1.281  0.2223  1.0990  0.2195
  363MOL0     H48985  -2.076   8.666   1.261  0.5178 -1.1949 -1.3263
  363MOL0     H48986  -2.087   8.655   1.437  0.3234 -1.0809  0.2163
  363MOL0     H48987  -1.219   9.234   1.686  0.4028  0.8765 -0.5316
  363MOL0     H48988  -1.020   9.371   1.689  0.3987  0.0559  0.5086
  363MOL0     H48989  -0.652   9.536   1.627 -0.5901  1.1302 -2.9070
  363MOL0     H48990  -0.440   9.623   1.703  3.0987  3.6291  3.2771
  363MOL0     H48991   0.933   9.436   2.856  1.1336 -0.6985  1.5534
  363MOL0     H48992   1.080   9.247   2.913  3.1293  2.4667 -1.3613
  363MOL0     H48993   1.332   8.842   2.494  0.3490  0.9132  0.4261
  363MOL0     H48994   1.445   8.628   2.512 -0.3489  0.9707  0.0336
  363MOL0     H48995   1.470   8.461   2.940 -3.0497 -3.8954  3.4961
  363MOL0     H48996   1.350   8.368   2.864 -0.0424 -1.1473  0.5688
  363MOL0     H48997   1.505   8.227   2.747 -0.8864  3.0242 -0.8628
  363MOL0     H48998   1.521   8.222   2.937  0.6258  1.4634  1.9019
  363MOL0     H48999   1.709   8.388   2.913  2.0534 -0.5021 -0.1789
  363MOL0     H49000   1.701   8.363   2.738  1.3920  1.2593  1.4304
  363MOL0     H49001   1.890   8.234   2.840 -0.9561  2.0825  1.4729
  363MOL0     H49002   1.756   8.126   2.776  0.6637 -0.5085  0.7247
  363MOL0     H49003   1.749   8.098   3.196  0.4453  1.1858  0.2448
  363MOL0     H49004   1.290   8.589   2.909  1.3205  1.5006  0.8745
  363MOL0     H49005   1.146   8.774   2.868 -2.2025  1.3702 -2.1556
  364MOL0     O49006   8.799   6.620   3.875 -0.3586  0.3103  0.6802
  364MOL0     C49007   8.802   6.689   3.774  0.1738 -1.1362 -0.1811
  364MOL0     O49008   8.690   6.730   3.693  0.5912 -0.0614  0.0403
  364MOL0     C49009   8.567   6.692   3.746  0.2429 -0.0662  0.0129
  364MOL0     C49010   8.469   6.792   3.788 -0.8819 -0.2403 -0.7632
  364MOL0     C49011   8.340   6.755   3.813  0.0182  0.0912  0.3047
  364MOL0     C49012   8.294   6.627   3.807 -0.4862 -0.1032 -0.5922
  364MOL0     O49013   8.166   6.619   3.857  0.2009  0.3650  0.5051
  364MOL0     C49014   8.100   6.489   3.859 -0.1057 -0.3340 -0.5568
  364MOL0     C49015   7.965   6.487   3.942 -0.1299 -0.6438  0.8203
  364MOL0     C49016   7.855   6.578   3.873 -0.6251 -0.2560  0.0920
  364MOL0     C49017   7.710   6.551   3.905 -0.3288 -0.1817 -0.3516
  364MOL0     C49018   7.615   6.610   3.800  0.0910 -0.3620  0.9942
  364MOL0     C49019   7.591   6.762   3.816 -0.6830  0.1316  0.2321
  364MOL0     C49020   7.506   6.822   3.710  0.1431  0.7499  0.4720
  364MOL0     C49021   7.354   6.777   3.710 -0.3509 -0.3401 -0.3190
  364MOL0     N49022   7.271   6.836   3.817  0.1678  0.4019 -1.1213
  364MOL0     C49023   7.273   6.974   3.859 -0.4001 -0.0934  0.4485
  364MOL0     C49024   7.199   6.980   3.969  0.6053 -0.3035  0.3886
  364MOL0     C49025   7.157   7.106   4.053  0.5739 -0.3444  0.7260
  364MOL0     C49026   7.009   7.130   4.032  0.0078  0.4046 -0.3013
  364MOL0     C49027   6.948   7.225   4.134 -0.2792  0.0355 -0.0191
  364MOL0     C49028   6.796   7.226   4.126  0.6144 -1.4995 -0.5976
  364MOL0     O49029   6.748   7.313   4.239 -0.9052 -0.2107  0.3293
  364MOL0     C49030   6.620   7.301   4.278  0.2960 -0.5767  0.0404
  364MOL0     C49031   6.512   7.275   4.191  0.3480  0.9231 -0.5309
  364MOL0     C49032   6.374   7.283   4.235  0.2736  0.4299  0.1789
  364MOL0     C49033   6.261   7.255   4.132 -0.0750  0.3896 -0.8061
  364MOL0     C49034   6.348   7.324   4.369  0.4942  0.7371  0.0158
  364MOL0     C49035   6.208   7.330   4.425 -0.3721  0.0168 -0.0244
  364MOL0     O49036   6.202   7.387   4.551 -0.2244 -0.0981 -0.3942
  364MOL0     C49037   6.082   7.368   4.607  0.1285 -0.4450 -0.5332
  364MOL0     C49038   6.036   7.250   4.665 -0.8355  0.2789  0.4278
  364MOL0     C49039   5.901   7.232   4.709  0.0682 -0.1565 -0.5590
  364MOL0     C49040   5.825   7.342   4.711  0.1076  0.1200  0.2592
  364MOL0     O49041   5.696   7.338   4.757 -0.0292  0.7246 -0.0202
  364MOL0     C49042   5.646   7.219   4.814  0.0280 -0.6006 -0.5327
  364MOL0     C49043   5.496   7.227   4.815  0.0044  0.0148 -0.1940
  364MOL0     C49044   5.430   7.289   4.941  0.1866 -0.0458 -1.0183
  364MOL0     C49045   5.280   7.324   4.925  0.2075  0.0575  0.6688
  364MOL0     C49046   5.186   7.196   4.913 -0.0308  0.6001 -1.2460
  364MOL0     C49047   5.042   7.250   4.898 -0.0581 -0.3362 -0.2561
  364MOL0     C49048   4.948   7.131   4.864  0.8341 -0.2784 -0.1774
  364MOL0     C49049   4.801   7.168   4.844  0.1639  0.0559 -0.3667
  364MOL0    Cl49050   4.742   7.220   4.994 -0.1073 -0.3441  0.4874
  364MOL0     C49051   5.872   7.470   4.663 -0.6149  0.2168 -0.2277
  364MOL0     C49052   6.000   7.478   4.622 -0.4405  0.4716  0.0713
  364MOL0     O49053   6.108   7.292   4.365  0.8580 -0.4560  0.4416
  364MOL0     C49054   6.459   7.369   4.448 -0.5358  0.1133 -0.0836
  364MOL0     C49055   6.592   7.355   4.403  0.5135 -0.4649 -0.6974
  364MOL0     N49056   7.174   6.847   4.008 -0.1396  0.0044  0.6787
  364MOL0     N49057   7.220   6.762   3.920  0.6057  0.0589 -0.4139
  364MOL0     C49058   8.380   6.530   3.774  0.7623 -0.1619  0.2128
  364MOL0     C49059   8.511   6.562   3.744 -0.9966 -0.3779  0.7934
  364MOL0     C49060   8.935   6.709   3.727 -0.2011 -0.8624 -0.1284
  364MOL0     C49061   8.952   6.732   3.588 -0.0052 -0.6642  0.1729
  364MOL0     C49062   9.084   6.756   3.544  0.4385  0.2994 -0.1019
  364MOL0     C49063   9.191   6.767   3.629  0.2410  1.2496  0.7834
  364MOL0     O49064   9.309   6.785   3.564  0.0234  0.6424  0.0538
  364MOL0     C49065   9.430   6.790   3.647 -0.4247  0.0356  0.4993
  364MOL0     C49066   9.549   6.807   3.550  0.0600 -0.1479  0.3668
  364MOL0     C49067   9.677   6.804   3.635 -0.1551  0.0947  0.1159
  364MOL0     C49068   9.713   6.670   3.705  0.5459  0.3749  0.4870
  364MOL0     C49069   9.692   6.551   3.621  0.4947  0.8565 -0.2798
  364MOL0     C49070   9.669   6.447   3.563 -0.2894 -0.7474  0.4367
  364MOL0     C49071   9.167   6.750   3.763 -0.3362 -0.4143 -0.5893
  364MOL0     C49072   9.043   6.717   3.814 -0.1985  1.0208 -0.7061
  364MOL0     H49073   8.503   6.894   3.806  2.1105 -1.5088  1.6295
  364MOL0     H49074   8.268   6.835   3.829 -0.7667 -0.3596 -0.8345
  364MOL0     H49075   8.089   6.458   3.755  0.7397 -2.7378  0.0076
  364MOL0     H49076   8.166   6.425   3.917  0.8351 -0.4789 -1.7485
  364MOL0     H49077   7.939   6.381   3.956 -2.2178 -0.4679 -1.1737
  364MOL0     H49078   7.985   6.529   4.041 -3.4455 -0.8983  1.7131
  364MOL0     H49079   7.888   6.682   3.882  0.2640 -0.5395  0.2218
  364MOL0     H49080   7.851   6.562   3.765  1.2352  1.0498 -0.2295
  364MOL0     H49081   7.694   6.443   3.913  1.7990 -0.7419 -2.4031
  364MOL0     H49082   7.676   6.584   4.004  0.3893 -1.0384  0.2010
  364MOL0     H49083   7.646   6.588   3.697 -1.1955 -1.1255  0.7416
  364MOL0     H49084   7.516   6.564   3.809  0.0624 -0.8340 -1.0678
  364MOL0     H49085   7.568   6.801   3.915 -1.8001 -1.5299  0.6578
  364MOL0     H49086   7.693   6.802   3.804 -0.3631  0.2579  2.9209
  364MOL0     H49087   7.516   6.930   3.721  1.2808  0.6381  0.6828
  364MOL0     H49088   7.555   6.790   3.618 -0.0893 -2.2456  1.2775
  364MOL0     H49089   7.344   6.669   3.692  0.9814 -0.4022 -0.8621
  364MOL0     H49090   7.325   6.821   3.614 -1.2893 -1.9760 -0.8236
  364MOL0     H49091   7.311   7.060   3.805 -1.0813  0.2867  0.5589
  364MOL0     H49092   7.184   7.090   4.158 -1.4480 -1.4732  1.1124
  364MOL0     H49093   7.209   7.196   4.019 -2.0760  0.8635 -0.3920
  364MOL0     H49094   6.958   7.034   4.023  2.9383 -1.7503  3.1856
  364MOL0     H49095   6.996   7.173   3.933  0.6995 -2.6460 -1.8288
  364MOL0     H49096   6.989   7.326   4.130 -0.5128  0.2923  2.4044
  364MOL0     H49097   6.987   7.194   4.231 -1.8903 -1.0290  0.3274
  364MOL0     H49098   6.766   7.122   4.144  1.0957 -1.4568  0.5244
  364MOL0     H49099   6.772   7.257   4.024 -1.9679 -2.5707 -0.3998
  364MOL0     H49100   6.535   7.260   4.086  0.9234  1.6557 -0.5169
  364MOL0     H49101   6.173   7.319   4.142  0.3178  1.0879 -1.7339
  364MOL0     H49102   6.288   7.270   4.027 -1.3784  0.9204 -1.0862
  364MOL0     H49103   6.233   7.149   4.126 -1.1389  0.7370 -2.9834
  364MOL0     H49104   6.107   7.167   4.665 -1.2386 -0.0717  0.4765
  364MOL0     H49105   5.868   7.131   4.734  1.0244 -0.4179 -0.3225
  364MOL0     H49106   5.665   7.135   4.747  1.2324 -1.8221  1.2411
  364MOL0     H49107   5.700   7.204   4.908  3.4297  0.5194 -2.1415
  364MOL0     H49108   5.466   7.287   4.729 -2.2578 -1.8232 -0.7876
  364MOL0     H49109   5.461   7.126   4.794 -1.5677  0.3753  0.5520
  364MOL0     H49110   5.480   7.380   4.975  0.9165 -1.1923  1.1425
  364MOL0     H49111   5.452   7.213   5.017  1.8182 -0.7961 -2.1968
  364MOL0     H49112   5.248   7.390   5.006  0.2515 -2.2073  2.6559
  364MOL0     H49113   5.271   7.375   4.829  1.8127 -1.3358 -0.2784
  364MOL0     H49114   5.191   7.132   5.002 -4.2860  0.8088 -0.6720
  364MOL0     H49115   5.210   7.131   4.828 -1.3953 -0.4931 -0.8279
  364MOL0     H49116   5.013   7.297   4.992  1.2281 -0.0730  0.0294
  364MOL0     H49117   5.047   7.323   4.816 -1.4246 -0.6055 -0.6004
  364MOL0     H49118   4.959   7.060   4.947  0.4826 -0.2318 -0.0903
  364MOL0     H49119   4.988   7.084   4.774  2.1795 -2.4775  1.4585
  364MOL0     H49120   4.741   7.080   4.818  1.4350 -0.7454 -0.6334
  364MOL0     H49121   4.787   7.251   4.775 -0.7739  0.8653  0.7459
  364MOL0     H49122   5.820   7.564   4.674  0.7858  0.8870  1.2301
  364MOL0     H49123   6.043   7.575   4.599 -2.6766  1.6720  0.5598
  364MOL0     H49124   6.435   7.412   4.545 -0.0637 -0.4688  0.2974
  364MOL0     H49125   6.678   7.391   4.459  0.1287  3.2774 -2.2378
  364MOL0     H49126   8.360   6.423   3.783  0.1647 -0.0608  0.1068
  364MOL0     H49127   8.577   6.480   3.718 -1.8565 -1.0406  0.6725
  364MOL0     H49128   8.869   6.718   3.519 -0.4813  0.0106  0.5911
  364MOL0     H49129   9.084   6.764   3.436 -0.6658  1.3176 -0.0533
  364MOL0     H49130   9.426   6.866   3.725  0.2303 -0.6698  1.2305
  364MOL0     H49131   9.430   6.690   3.692  0.6448  0.3698  1.2854
  364MOL0     H49132   9.546   6.908   3.507  0.8716 -0.8981 -1.5483
  364MOL0     H49133   9.547   6.735   3.469  1.5822 -0.3633  0.4868
  364MOL0     H49134   9.659   6.881   3.711  2.7965  1.1289 -0.1086
  364MOL0     H49135   9.773   6.828   3.588  0.8287 -0.6546  1.6567
  364MOL0     H49136   9.633   6.671   3.780 -0.0274 -0.1350 -0.1061
  364MOL0     H49137   9.804   6.657   3.763 -0.0240 -0.4857  1.2200
  364MOL0     H49138   9.652   6.349   3.524 -1.1176  0.6992 -3.2129
  364MOL0     H49139   9.242   6.744   3.841  0.1123 -1.8629 -1.0953
  364MOL0     H49140   9.041   6.702   3.922  0.2557  0.0760 -0.8167
  365MOL0     O49141   6.487   0.603   1.667  0.4700 -0.0771  0.2969
  365MOL0     C49142   6.514   0.488   1.646 -0.6742  0.4556  0.5851
  365MOL0     O49143   6.429   0.385   1.649 -0.7191 -0.2129  0.9653
  365MOL0     C49144   6.293   0.407   1.671 -0.1820 -0.0968 -0.3142
  365MOL0     C49145   6.221   0.355   1.779 -0.1178 -0.8235 -0.7709
  365MOL0     C49146   6.082   0.380   1.792  0.4617 -0.8598 -0.0284
  365MOL0     C49147   6.013   0.444   1.682 -0.5608  0.2214  0.2090
  365MOL0     O49148   5.874   0.448   1.694 -0.0596  0.2203  0.2950
  365MOL0     C49149   5.798   0.528   1.603 -0.0368  0.6329 -0.6128
  365MOL0     C49150   5.649   0.517   1.629 -0.0633 -0.8696  0.4089
  365MOL0     C49151   5.564   0.584   1.512 -1.0299  0.0533 -0.0865
  365MOL0     C49152   5.434   0.636   1.571 -0.4309  0.3815  0.2956
  365MOL0     C49153   5.327   0.528   1.595 -0.1110  0.2020  0.1590
  365MOL0     C49154   5.208   0.578   1.670  0.3096 -0.2011 -0.8013
  365MOL0     C49155   5.087   0.489   1.675  0.7065 -0.1533  0.0997
  365MOL0     C49156   5.003   0.524   1.551  0.3627 -0.3510  0.4977
  365MOL0     N49157   4.879   0.447   1.534  0.4646  1.2939 -0.4068
  365MOL0     C49158   4.862   0.304   1.545 -0.6784 -0.0050 -0.0300
  365MOL0     C49159   4.729   0.286   1.541 -0.0693 -0.7862 -0.5855
  365MOL0     C49160   4.652   0.157   1.565  0.2928  0.1716  0.0249
  365MOL0     C49161   4.495   0.187   1.575 -0.3142  0.2287 -0.0649
  365MOL0     C49162   4.405   0.059   1.605 -0.0401 -0.2392 -1.3457
  365MOL0     C49163   4.374  -0.018   1.474 -0.2595 -0.5277  0.2905
  365MOL0     O49164   4.256  -0.097   1.491  0.0509  0.4790 -0.0787
  365MOL0     C49165   4.250  -0.187   1.590 -0.8544  0.6874 -0.5937
  365MOL0     C49166   4.124  -0.249   1.601 -0.0591 -0.1964  0.3531
  365MOL0     C49167   4.100  -0.358   1.691  0.2039 -0.1777  1.7079
  365MOL0     C49168   3.956  -0.409   1.703 -0.0762 -0.7983  0.1128
  365MOL0     C49169   4.204  -0.415   1.763 -0.4169  0.2104 -1.0376
  365MOL0     C49170   4.196  -0.540   1.853  0.2075  0.2384  0.0625
  365MOL0     O49171   4.306  -0.565   1.934  0.2596 -0.5438  0.0355
  365MOL0     C49172   4.313  -0.664   2.024  0.0583  0.2465  0.1819
  365MOL0     C49173   4.199  -0.723   2.087 -0.2556 -0.1814  0.5009
  365MOL0     C49174   4.214  -0.831   2.170 -0.3803  0.5890  0.1810
  365MOL0     C49175   4.344  -0.884   2.188  0.2495  0.4714 -1.1104
  365MOL0     O49176   4.355  -0.993   2.278  0.0449  0.3407  0.1122
  365MOL0     C49177   4.488  -1.015   2.343 -0.3240 -0.1015  1.3558
  365MOL0     C49178   4.476  -1.105   2.466 -0.4610 -0.2886 -0.8858
  365MOL0     C49179   4.417  -1.240   2.451 -0.2480  0.5564  0.7473
  365MOL0     C49180   4.490  -1.311   2.325 -0.4694 -0.8459 -0.4790
  365MOL0     C49181   4.464  -1.466   2.328 -1.0042  0.3770 -1.8584
  365MOL0     C49182   4.545  -1.535   2.224  0.5620 -0.3327 -0.2710
  365MOL0     C49183   4.508  -1.688   2.226 -0.6961 -0.1964 -1.3233
  365MOL0     C49184   4.462  -1.728   2.080  0.6788 -0.4842 -0.1384
  365MOL0    Cl49185   4.585  -1.724   1.948  0.0051  0.1926  0.4204
  365MOL0     C49186   4.463  -0.827   2.127  0.1533  0.2965 -0.8862
  365MOL0     C49187   4.445  -0.720   2.041  0.5500 -0.1060 -0.8015
  365MOL0     O49188   4.105  -0.623   1.827 -0.2518  0.1074 -1.0642
  365MOL0     C49189   4.328  -0.345   1.753  0.6052  1.1509 -0.9636
  365MOL0     C49190   4.348  -0.242   1.670 -0.1483 -0.3515 -0.0903
  365MOL0     N49191   4.677   0.407   1.520  0.4393 -0.3879  1.6149
  365MOL0     N49192   4.759   0.509   1.530  0.6201 -0.1801 -0.1507
  365MOL0     C49193   6.081   0.485   1.576 -0.2920  0.0436 -0.3109
  365MOL0     C49194   6.224   0.477   1.568  0.2850  0.3566  0.2736
  365MOL0     C49195   6.651   0.457   1.611 -0.6298 -0.4407 -0.6174
  365MOL0     C49196   6.739   0.558   1.556 -1.1090 -0.4289 -0.1216
  365MOL0     C49197   6.873   0.531   1.524 -0.4313  0.4161 -0.7127
  365MOL0     C49198   6.928   0.406   1.555  0.3409 -0.4742  0.1966
  365MOL0     O49199   7.061   0.380   1.531 -0.1474 -0.0538 -0.2761
  365MOL0     C49200   7.140   0.332   1.642 -0.5223  0.3672 -0.3114
  365MOL0     C49201   7.281   0.395   1.635  0.0067  0.1588  0.2530
  365MOL0     C49202   7.285   0.545   1.630 -0.5312  0.2010 -0.8018
  365MOL0     C49203   7.306   0.608   1.771  0.7589 -0.1037  1.2018
  365MOL0     C49204   7.181   0.591   1.851  0.1765 -0.4559 -0.2393
  365MOL0     C49205   7.085   0.566   1.920  0.2891  0.6371 -0.5267
  365MOL0     C49206   6.846   0.300   1.606  0.6907  0.0810 -0.6768
  365MOL0     C49207   6.708   0.326   1.630  0.0708  0.1131  0.3796
  365MOL0     H49208   6.287   0.303   1.848  0.3042 -0.6321 -1.0315
  365MOL0     H49209   6.026   0.349   1.880 -0.8779 -5.0306 -2.1053
  365MOL0     H49210   5.822   0.634   1.612  0.9496  0.4193 -0.6107
  365MOL0     H49211   5.824   0.489   1.504  1.2508 -2.4751  0.8291
  365MOL0     H49212   5.627   0.410   1.635  2.9482 -1.5355  1.0044
  365MOL0     H49213   5.627   0.565   1.724 -1.5502  2.1258 -1.2881
  365MOL0     H49214   5.618   0.670   1.471 -0.5042  2.0959  4.3449
  365MOL0     H49215   5.553   0.506   1.437 -2.2976 -0.3214  0.4657
  365MOL0     H49216   5.464   0.685   1.664  0.0339  0.3868  0.1433
  365MOL0     H49217   5.391   0.716   1.510 -0.5492 -0.5017 -0.8137
  365MOL0     H49218   5.305   0.487   1.496  0.4786 -0.4483  0.2958
  365MOL0     H49219   5.363   0.441   1.650 -1.0435 -0.8067 -0.7758
  365MOL0     H49220   5.243   0.590   1.773 -2.2414 -0.7521  0.1838
  365MOL0     H49221   5.194   0.681   1.637 -0.7349 -0.4448 -1.1495
  365MOL0     H49222   5.111   0.382   1.675  1.6347 -0.0129 -2.4431
  365MOL0     H49223   5.024   0.517   1.760  2.8307 -1.7238  2.3138
  365MOL0     H49224   5.058   0.494   1.461 -3.0299  1.2512 -2.3333
  365MOL0     H49225   4.969   0.628   1.555 -2.5932 -1.2594  1.1373
  365MOL0     H49226   4.938   0.227   1.547 -0.4642  0.0915  3.8765
  365MOL0     H49227   4.666   0.093   1.478  2.1013  2.3567 -1.4252
  365MOL0     H49228   4.688   0.096   1.648 -0.5391 -1.7358 -0.9644
  365MOL0     H49229   4.455   0.242   1.489  0.4470  0.5179 -0.2361
  365MOL0     H49230   4.492   0.256   1.660 -0.4310  0.2253 -0.0660
  365MOL0     H49231   4.317   0.093   1.660 -0.9578 -3.6885 -0.4536
  365MOL0     H49232   4.458  -0.008   1.673 -0.9184  1.2283  0.8792
  365MOL0     H49233   4.461  -0.073   1.438  0.6828 -0.3266  2.1098
  365MOL0     H49234   4.349   0.056   1.398  2.0257  0.7174  0.6508
  365MOL0     H49235   4.038  -0.215   1.544 -0.2809 -0.8279  0.3112
  365MOL0     H49236   3.927  -0.433   1.806 -1.0743  2.4297  0.6995
  365MOL0     H49237   3.879  -0.336   1.679 -0.4570 -0.3382  2.4944
  365MOL0     H49238   3.946  -0.498   1.641 -0.6020  1.0281 -2.6051
  365MOL0     H49239   4.100  -0.678   2.089  0.8281  2.3343  1.7621
  365MOL0     H49240   4.131  -0.876   2.223  0.5325 -0.5345  0.6997
  365MOL0     H49241   4.562  -1.052   2.271 -1.1118  0.4066  0.2545
  365MOL0     H49242   4.528  -0.919   2.375  0.7715  1.0155 -2.7972
  365MOL0     H49243   4.572  -1.098   2.517 -1.2126 -0.0631  0.5326
  365MOL0     H49244   4.406  -1.054   2.532 -0.9086  0.8246 -2.1686
  365MOL0     H49245   4.310  -1.244   2.427 -0.6876 -1.6938  2.6829
  365MOL0     H49246   4.429  -1.305   2.538 -0.4378  0.7608  0.9242
  365MOL0     H49247   4.445  -1.266   2.236  2.3978  0.2845 -1.4571
  365MOL0     H49248   4.597  -1.293   2.322 -0.7694  0.9608 -2.5463
  365MOL0     H49249   4.358  -1.488   2.313 -1.1667 -0.0995 -0.2301
  365MOL0     H49250   4.510  -1.493   2.424 -1.0904  0.6333 -1.7444
  365MOL0     H49251   4.515  -1.490   2.129  1.5941 -0.2575 -0.5771
  365MOL0     H49252   4.653  -1.522   2.232  0.3021  1.6827  0.3912
  365MOL0     H49253   4.426  -1.702   2.297 -1.3575 -2.0699 -2.3640
  365MOL0     H49254   4.587  -1.756   2.260 -0.9814 -0.1848 -0.6284
  365MOL0     H49255   4.381  -1.662   2.049  0.2144 -0.5367  0.9093
  365MOL0     H49256   4.407  -1.823   2.080  0.8293 -0.5752 -0.5061
  365MOL0     H49257   4.559  -0.874   2.145 -0.5021  0.5694  4.9267
  365MOL0     H49258   4.532  -0.680   1.991  2.3681  0.9163  2.8003
  365MOL0     H49259   4.417  -0.368   1.811  0.3691  2.6023  0.0445
  365MOL0     H49260   4.452  -0.213   1.664 -0.0273 -0.2810  1.9048
  365MOL0     H49261   6.033   0.540   1.496 -1.3619 -0.2844  0.0867
  365MOL0     H49262   6.281   0.489   1.476 -1.8611 -6.6042 -2.6373
  365MOL0     H49263   6.694   0.653   1.529  0.2333  0.9487  2.1522
  365MOL0     H49264   6.940   0.609   1.487 -1.1092  1.5238  0.3134
  365MOL0     H49265   7.087   0.360   1.733 -0.0095 -0.8781  0.3999
  365MOL0     H49266   7.149   0.223   1.648 -0.0204  0.4881  2.0967
  365MOL0     H49267   7.316   0.363   1.537 -0.6421  0.0424  0.0513
  365MOL0     H49268   7.343   0.357   1.716 -1.8591 -0.7395  1.3373
  365MOL0     H49269   7.194   0.588   1.588  0.1521  3.4094  0.7356
  365MOL0     H49270   7.365   0.581   1.564 -0.6727 -0.7630 -1.5250
  365MOL0     H49271   7.326   0.713   1.751 -1.3004 -0.0091 -0.8398
  365MOL0     H49272   7.389   0.563   1.827  1.8146 -1.0827 -0.9947
  365MOL0     H49273   7.008   0.531   1.986  2.7944 -3.0986  0.7765
  365MOL0     H49274   6.897   0.209   1.636  2.1542  1.6133  1.8218
  365MOL0     H49275   6.654   0.238   1.665  2.2469 -1.7389 -0.6278
  366MOL0     O49276   6.279   5.003   1.043  0.2263 -0.1010 -0.3645
  366MOL0     C49277   6.389   5.062   1.008 -0.0832 -0.6363 -0.8326
  366MOL0     O49278   6.406   5.189   0.955  0.9335  0.3678 -0.4777
  366MOL0     C49279   6.306   5.274   0.911  0.2949  0.2868 -0.1945
  366MOL0     C49280   6.197   5.239   0.832 -0.3793  0.0196  0.6909
  366MOL0     C49281   6.104   5.338   0.786  0.0156 -0.7967 -0.0619
  366MOL0     C49282   6.114   5.470   0.812 -1.0852 -0.2420 -0.0364
  366MOL0     O49283   6.006   5.551   0.779 -1.6780 -0.6558  0.2197
  366MOL0     C49284   5.967   5.662   0.858  0.7381  0.2159  0.1689
  366MOL0     C49285   5.815   5.654   0.883 -0.1688 -0.3630 -0.1376
  366MOL0     C49286   5.769   5.511   0.925 -0.0311  0.3421 -0.1794
  366MOL0     C49287   5.639   5.511   1.006  0.5109 -0.4054  0.0339
  366MOL0     C49288   5.519   5.553   0.918 -0.1811 -0.1483 -0.2860
  366MOL0     C49289   5.392   5.568   1.007 -0.4223 -0.1417 -0.6836
  366MOL0     C49290   5.269   5.626   0.936  0.1809 -0.3919 -0.0213
  366MOL0     C49291   5.155   5.523   0.908  0.7254 -0.4000  0.3172
  366MOL0     N49292   5.055   5.539   0.805 -0.4950  0.3535  0.5319
  366MOL0     C49293   5.045   5.626   0.698 -0.1427  0.3697 -0.0495
  366MOL0     C49294   4.935   5.590   0.620 -0.3456  0.2549 -1.0095
  366MOL0     C49295   4.897   5.667   0.490  0.6471 -0.4247 -0.3008
  366MOL0     C49296   4.756   5.718   0.515  0.1330  0.3595  0.5607
  366MOL0     C49297   4.736   5.839   0.611 -0.4119 -0.2523  0.3191
  366MOL0     C49298   4.580   5.868   0.612  0.6842 -0.4522  0.3611
  366MOL0     O49299   4.547   5.909   0.480 -0.2861  1.0513  1.3962
  366MOL0     C49300   4.419   5.939   0.459 -0.2509  1.1045  0.5908
  366MOL0     C49301   4.370   5.979   0.326  0.2173  0.5468 -0.2350
  366MOL0     C49302   4.237   6.024   0.300 -0.0656 -0.3030  0.0829
  366MOL0     C49303   4.212   6.083   0.166  0.0792  0.5041  0.7694
  366MOL0     C49304   4.150   6.042   0.405 -0.1233  0.3629 -1.0620
  366MOL0     C49305   4.022   6.119   0.398  0.6333 -0.7787  0.4317
  366MOL0     O49306   3.961   6.144   0.521  0.2461 -0.6121  0.4519
  366MOL0     C49307   3.864   6.244   0.523 -0.6636 -1.2376 -0.1362
  366MOL0     C49308   3.737   6.225   0.480  0.5404 -0.2295 -0.3475
  366MOL0     C49309   3.634   6.321   0.500 -1.0281 -0.0345  0.4317
  366MOL0     C49310   3.667   6.445   0.551 -0.2608 -0.6791  0.3669
  366MOL0     O49311   3.570   6.550   0.569 -0.9788 -0.1290 -0.2130
  366MOL0     C49312   3.456   6.563   0.488  0.7594 -0.6117  0.1413
  366MOL0     C49313   3.331   6.518   0.555 -0.1078  0.8555 -0.4390
  366MOL0     C49314   3.292   6.601   0.678  0.0172 -0.4868 -0.4005
  366MOL0     C49315   3.171   6.544   0.756 -1.1878  0.2044  0.4779
  366MOL0     C49316   3.042   6.569   0.683 -0.3257 -0.0716 -0.9083
  366MOL0     C49317   2.914   6.504   0.753  0.2039  0.2895  0.3743
  366MOL0     C49318   2.797   6.527   0.662  0.3348  0.9654 -0.2864
  366MOL0     C49319   2.677   6.436   0.706  0.1350 -0.5237 -0.1017
  366MOL0    Cl49320   2.676   6.274   0.635 -0.2071  0.0320 -0.0537
  366MOL0     C49321   3.804   6.469   0.582 -0.6544 -0.0462 -0.9714
  366MOL0     C49322   3.900   6.371   0.572 -0.4897  0.0468  0.3790
  366MOL0     O49323   3.976   6.161   0.294 -0.4005  0.3119 -0.2178
  366MOL0     C49324   4.203   6.019   0.537  0.4931  0.4316  0.4737
  366MOL0     C49325   4.327   5.967   0.565 -0.1520  0.2784  0.5460
  366MOL0     N49326   4.870   5.482   0.681 -0.5443  0.1942 -0.3453
  366MOL0     N49327   4.948   5.452   0.784 -0.1815  0.4617 -1.0018
  366MOL0     C49328   6.235   5.503   0.882 -0.1536 -0.0978 -0.6299
  366MOL0     C49329   6.327   5.411   0.929 -0.2755  0.0784 -0.6002
  366MOL0     C49330   6.510   4.990   1.028  0.3541  0.1284 -0.8785
  366MOL0     C49331   6.509   4.866   1.090 -0.0224 -1.2135  0.4684
  366MOL0     C49332   6.636   4.804   1.121  0.9707 -0.5355  0.0890
  366MOL0     C49333   6.757   4.870   1.086  0.7305 -0.0063 -0.2077
  366MOL0     O49334   6.868   4.795   1.127 -0.2943 -0.2052 -0.6443
  366MOL0     C49335   6.999   4.830   1.075 -1.4096 -0.0704 -1.0379
  366MOL0     C49336   7.097   4.715   1.098  0.3946  0.2702  0.1570
  366MOL0     C49337   7.031   4.578   1.081 -0.5982  0.1410 -0.9503
  366MOL0     C49338   7.133   4.467   1.091  0.3640 -0.0811 -0.6324
  366MOL0     C49339   7.091   4.343   1.026  0.1977 -0.5670  0.3583
  366MOL0     C49340   7.052   4.254   0.957 -0.4295 -0.1418  0.0296
  366MOL0     C49341   6.760   4.986   1.009  0.5590 -0.0322  0.1268
  366MOL0     C49342   6.635   5.045   0.986  1.3330 -0.4521  0.6865
  366MOL0     H49343   6.173   5.135   0.815 -0.7231 -0.0074  1.3214
  366MOL0     H49344   6.026   5.319   0.712 -1.6948 -2.5555  2.0652
  366MOL0     H49345   6.020   5.672   0.954  1.1670  1.1134 -0.1529
  366MOL0     H49346   5.992   5.756   0.807  0.1121  1.1913  1.5711
  366MOL0     H49347   5.780   5.731   0.953  2.7830  0.8399  0.1521
  366MOL0     H49348   5.776   5.676   0.783  2.9279 -0.8759 -1.5539
  366MOL0     H49349   5.757   5.443   0.840 -0.9496 -0.4864  0.5789
  366MOL0     H49350   5.841   5.472   0.997 -1.1928 -1.1458  0.2478
  366MOL0     H49351   5.616   5.413   1.049  1.4248 -0.1901  1.0538
  366MOL0     H49352   5.651   5.581   1.090 -2.4720  1.3750 -0.8699
  366MOL0     H49353   5.542   5.647   0.867 -1.4593  0.2476 -0.1828
  366MOL0     H49354   5.503   5.476   0.842  0.1179  2.2502 -2.9371
  366MOL0     H49355   5.375   5.471   1.055  1.6830 -0.7437 -1.0689
  366MOL0     H49356   5.409   5.632   1.094 -1.1165 -1.8443  0.7828
  366MOL0     H49357   5.231   5.710   0.994 -1.7830 -1.1923 -0.0757
  366MOL0     H49358   5.288   5.665   0.835 -1.5759 -2.3613 -1.2034
  366MOL0     H49359   5.091   5.520   0.997 -1.0240  0.5165 -0.8650
  366MOL0     H49360   5.198   5.422   0.903  0.4591 -0.5657  1.1721
  366MOL0     H49361   5.115   5.708   0.690 -0.7295  0.8206 -0.6661
  366MOL0     H49362   4.962   5.754   0.476  1.9917 -1.2233  0.7113
  366MOL0     H49363   4.891   5.607   0.400 -0.5903  0.4835 -0.8492
  366MOL0     H49364   4.684   5.641   0.542 -3.0114  3.0197  0.2981
  366MOL0     H49365   4.726   5.762   0.419  1.8263  3.4456  1.3043
  366MOL0     H49366   4.795   5.918   0.565 -0.2208 -0.3015  0.4808
  366MOL0     H49367   4.775   5.816   0.710  1.0093 -1.5339 -0.5079
  366MOL0     H49368   4.560   5.947   0.684  0.9764  0.4356 -0.5050
  366MOL0     H49369   4.527   5.775   0.634  0.1357 -0.0489  0.7557
  366MOL0     H49370   4.439   5.961   0.244 -0.0840 -3.0215  0.1752
  366MOL0     H49371   4.221   6.191   0.180 -0.1000  0.4533  1.3269
  366MOL0     H49372   4.294   6.058   0.098  0.6860  0.4011  1.5174
  366MOL0     H49373   4.119   6.049   0.120  0.2186 -0.2033  0.9887
  366MOL0     H49374   3.721   6.123   0.447 -0.7708  0.2397 -1.2391
  366MOL0     H49375   3.533   6.288   0.479 -0.3583 -3.3788  1.8934
  366MOL0     H49376   3.443   6.671   0.470  0.4062 -0.2719  2.1805
  366MOL0     H49377   3.458   6.509   0.393 -1.6175  1.5910 -1.2976
  366MOL0     H49378   3.250   6.538   0.484 -1.2407 -0.3087  0.4820
  366MOL0     H49379   3.344   6.413   0.582  1.0073  0.9938 -0.3949
  366MOL0     H49380   3.278   6.707   0.655 -2.4146 -0.5902  0.2781
  366MOL0     H49381   3.375   6.610   0.749  0.6325 -1.2570 -1.0141
  366MOL0     H49382   3.185   6.436   0.766 -2.3570  0.0598  0.7807
  366MOL0     H49383   3.165   6.586   0.857 -0.3528  3.3891 -0.6966
  366MOL0     H49384   3.053   6.540   0.578  1.2923  0.1503 -0.8208
  366MOL0     H49385   3.026   6.676   0.672  1.3002  0.2135 -0.8385
  366MOL0     H49386   2.934   6.398   0.773 -0.2224  0.3376  1.0686
  366MOL0     H49387   2.897   6.551   0.850 -1.6300 -0.8801  0.6517
  366MOL0     H49388   2.842   6.506   0.564  0.2618  0.7435 -0.2740
  366MOL0     H49389   2.764   6.630   0.677  0.2288  0.4649  3.9980
  366MOL0     H49390   2.587   6.494   0.681 -0.4299 -0.8938  1.0162
  366MOL0     H49391   2.678   6.440   0.815 -1.4401  0.4673 -0.0920
  366MOL0     H49392   3.842   6.566   0.612  1.3250 -0.2874 -2.4826
  366MOL0     H49393   4.001   6.396   0.601 -0.6759  2.2917 -0.6590
  366MOL0     H49394   4.144   6.042   0.625 -1.8402  0.5473 -1.0402
  366MOL0     H49395   4.350   5.935   0.666  1.3864 -2.6802 -0.6394
  366MOL0     H49396   6.241   5.603   0.923 -2.1896 -0.0604 -0.3264
  366MOL0     H49397   6.400   5.447   1.000 -1.3766  2.3236 -0.5054
  366MOL0     H49398   6.415   4.816   1.109 -0.7385 -0.5241 -1.0188
  366MOL0     H49399   6.628   4.709   1.173 -0.4949 -0.2677  0.4019
  366MOL0     H49400   6.987   4.839   0.967 -0.3619  1.1047 -1.0868
  366MOL0     H49401   7.041   4.923   1.115 -0.8373 -0.7683  0.0309
  366MOL0     H49402   7.147   4.723   1.195 -2.4533  2.0236  1.6051
  366MOL0     H49403   7.182   4.723   1.029  0.3417 -0.3007  0.0197
  366MOL0     H49404   6.995   4.590   0.978  0.7548 -2.1832 -1.7719
  366MOL0     H49405   6.947   4.560   1.149  0.2650 -0.8906 -0.1249
  366MOL0     H49406   7.149   4.460   1.199 -2.2030  1.8623 -0.0213
  366MOL0     H49407   7.223   4.496   1.037  0.7247 -1.7662 -1.0137
  366MOL0     H49408   7.016   4.164   0.911  2.0940 -2.0052  1.4752
  366MOL0     H49409   6.851   5.035   0.976  0.7952  0.0704  0.8983
  366MOL0     H49410   6.628   5.139   0.932 -0.8638 -1.3486 -0.7397
  367MOL0     O49411   2.793   8.415   9.874  0.3124 -0.0020  0.0457
  367MOL0     C49412   2.822   8.509   9.807 -0.4212 -0.0171  0.1227
  367MOL0     O49413   2.739   8.589   9.731  0.0445 -0.8377  0.4899
  367MOL0     C49414   2.606   8.563   9.735  0.2467 -0.7595 -0.2799
  367MOL0     C49415   2.541   8.554   9.614 -0.2987 -0.7189 -0.1632
  367MOL0     C49416   2.401   8.542   9.613  0.4219 -0.4721  0.1624
  367MOL0     C49417   2.330   8.526   9.736  0.1563  0.0122  0.3756
  367MOL0     O49418   2.197   8.490   9.728  0.2938  0.8993 -0.9345
  367MOL0     C49419   2.114   8.526   9.838  0.4633 -0.6009  0.1421
  367MOL0     C49420   1.960   8.530   9.814 -0.1583  0.4101  0.2047
  367MOL0     C49421   1.932   8.415   9.712  0.4614 -0.5949 -0.7329
  367MOL0     C49422   1.781   8.407   9.684 -0.2457  0.0499 -0.5001
  367MOL0     C49423   1.716   8.301   9.774 -0.3698  0.0464 -0.0589
  367MOL0     C49424   1.571   8.289   9.756  0.0932 -0.1368 -0.3756
  367MOL0     C49425   1.510   8.181   9.841  0.6656 -0.0588 -0.2790
  367MOL0     C49426   1.366   8.171   9.808 -0.0306  0.1826  0.3532
  367MOL0     N49427   1.281   8.295   9.824  0.0368  0.7279 -0.4028
  367MOL0     C49428   1.149   8.301   9.811 -0.2320  0.1170  0.5266
  367MOL0     C49429   1.115   8.421   9.875  0.5734  0.2682 -0.0501
  367MOL0     C49430   0.976   8.466   9.911  0.8970 -0.7825  0.2141
  367MOL0     C49431   0.942   8.500  10.059 -1.0563 -0.0117 -0.2659
  367MOL0     C49432   0.801   8.510  10.103 -0.2904  0.5092 -0.1922
  367MOL0     C49433   0.696   8.565   9.996  0.2508  0.0931 -0.8474
  367MOL0     O49434   0.584   8.479  10.010 -0.2118 -0.0787  0.9999
  367MOL0     C49435   0.456   8.517   9.975  1.2985  0.8229  0.5791
  367MOL0     C49436   0.365   8.406   9.944  0.4233  0.0698 -0.2209
  367MOL0     C49437   0.229   8.437   9.910  0.2789 -0.7267 -0.1000
  367MOL0     C49438   0.140   8.325   9.865  0.0298  0.1439 -0.7362
  367MOL0     C49439   0.179   8.571   9.915 -0.3602  0.7444 -0.5025
  367MOL0     C49440   0.044   8.607   9.876  0.0451  0.5476 -0.6930
  367MOL0     O49441  -0.065   8.520   9.888 -0.3495  1.1725 -0.3378
  367MOL0     C49442  -0.186   8.571   9.847 -0.1852  0.2773 -0.0044
  367MOL0     C49443  -0.292   8.593   9.943 -0.1925 -0.6749 -0.7380
  367MOL0     C49444  -0.426   8.618   9.898 -0.9722 -0.6336  0.2799
  367MOL0     C49445  -0.462   8.610   9.764  0.2907  0.2612  0.4519
  367MOL0     O49446  -0.600   8.625   9.740 -0.0790 -0.2631  0.2996
  367MOL0     C49447  -0.635   8.688   9.612 -0.8156 -0.8909  0.0919
  367MOL0     C49448  -0.788   8.698   9.598  0.4488  0.6897  0.3117
  367MOL0     C49449  -0.842   8.768   9.719  0.6488 -0.3014  0.5700
  367MOL0     C49450  -0.992   8.789   9.712 -0.0739 -0.0071  0.2721
  367MOL0     C49451  -1.080   8.659   9.677  0.0348  0.0045 -0.8093
  367MOL0     C49452  -1.237   8.691   9.691 -0.4306 -0.1648 -0.6560
  367MOL0     C49453  -1.315   8.566   9.692  0.0557  0.7036  0.0558
  367MOL0     C49454  -1.454   8.592   9.744 -0.2965 -0.2943 -0.2722
  367MOL0    Cl49455  -1.560   8.472   9.682  0.6267  0.2363 -0.4790
  367MOL0     C49456  -0.360   8.584   9.673 -0.6479 -0.0224 -0.1343
  367MOL0     C49457  -0.221   8.569   9.711 -0.0197  0.1388 -0.1837
  367MOL0     O49458   0.039   8.717   9.817 -0.7307 -0.1511  0.2723
  367MOL0     C49459   0.274   8.670   9.963 -0.3127 -0.7257  0.3026
  367MOL0     C49460   0.409   8.639   9.986  0.2024 -0.3476 -0.4106
  367MOL0     N49461   1.222   8.496   9.897 -0.8541 -0.3991  0.5878
  367MOL0     N49462   1.316   8.418   9.871 -0.7324 -0.1468 -0.1757
  367MOL0     C49463   2.395   8.548   9.852 -0.9851 -0.8840 -0.4997
  367MOL0     C49464   2.538   8.563   9.858  0.0092 -0.3983  0.3123
  367MOL0     C49465   2.973   8.531   9.819 -0.2621  0.5489  0.2382
  367MOL0     C49466   3.049   8.444   9.908  0.6027 -0.5219 -0.1621
  367MOL0     C49467   3.186   8.476   9.925  0.4122  0.5322 -1.5598
  367MOL0     C49468   3.254   8.569   9.843  0.0564  0.0623 -0.4548
  367MOL0     O49469   3.386   8.581   9.857 -0.3275  0.3302 -0.0701
  367MOL0     C49470   3.469   8.459   9.850  0.6064 -0.1832  0.3298
  367MOL0     C49471   3.616   8.486   9.808 -0.1412  1.1628 -0.5196
  367MOL0     C49472   3.621   8.548   9.664  0.1464 -0.1625  0.1451
  367MOL0     C49473   3.541   8.477   9.554 -0.0284 -0.4874 -0.5208
  367MOL0     C49474   3.569   8.506   9.414  0.0857 -0.5098  0.4411
  367MOL0     C49475   3.570   8.519   9.296  0.3588 -0.3422  0.6041
  367MOL0     C49476   3.180   8.645   9.747  0.6189 -0.3810 -0.4947
  367MOL0     C49477   3.044   8.623   9.734 -0.6918  0.0411 -0.2598
  367MOL0     H49478   2.602   8.567   9.525 -1.9349  0.4279 -1.1608
  367MOL0     H49479   2.341   8.535   9.522 -1.7818 -0.4188  1.5318
  367MOL0     H49480   2.131   8.456   9.920  0.3950  0.0263  0.6994
  367MOL0     H49481   2.136   8.623   9.885 -0.1611 -0.9596  1.1920
  367MOL0     H49482   1.899   8.521   9.905 -0.6516  3.4390  0.2688
  367MOL0     H49483   1.930   8.627   9.776 -1.0334  0.1928  0.3194
  367MOL0     H49484   1.980   8.434   9.615 -2.2387 -0.2263 -2.1059
  367MOL0     H49485   1.968   8.315   9.736 -2.0959 -1.6282 -0.9073
  367MOL0     H49486   1.729   8.500   9.707  0.1792 -0.2908  2.1151
  367MOL0     H49487   1.764   8.370   9.582 -2.4702  1.5526 -0.7431
  367MOL0     H49488   1.773   8.211   9.749  0.9888  1.2055 -1.2615
  367MOL0     H49489   1.730   8.328   9.879  0.0402  3.5985 -0.8989
  367MOL0     H49490   1.525   8.388   9.756  0.8471  0.2364 -1.2748
  367MOL0     H49491   1.550   8.263   9.652  0.2855 -2.1798  0.0499
  367MOL0     H49492   1.555   8.086   9.810 -1.3160 -0.4860 -1.9792
  367MOL0     H49493   1.524   8.188   9.950  0.4785  0.7297 -0.3056
  367MOL0     H49494   1.321   8.087   9.861  1.3703 -0.6939  0.2003
  367MOL0     H49495   1.356   8.138   9.704  0.0054  1.0238  0.0744
  367MOL0     H49496   1.086   8.221   9.772  2.9322 -1.3894 -1.9420
  367MOL0     H49497   0.951   8.547   9.842  1.1806 -1.0270 -0.1806
  367MOL0     H49498   0.926   8.372   9.885  1.2316 -1.0365  0.4745
  367MOL0     H49499   0.987   8.597  10.083 -2.2414  0.2457  1.0250
  367MOL0     H49500   0.987   8.426  10.126  1.0996  0.7731 -0.7707
  367MOL0     H49501   0.800   8.574  10.192  1.0025 -0.0023  0.2021
  367MOL0     H49502   0.765   8.410  10.129  0.1769  0.1767 -0.7776
  367MOL0     H49503   0.734   8.565   9.893 -0.9841  0.3741 -1.3179
  367MOL0     H49504   0.670   8.669  10.019 -0.1108 -0.3581  0.9614
  367MOL0     H49505   0.394   8.301   9.949  1.7837  0.4077 -0.6867
  367MOL0     H49506   0.185   8.227   9.846 -3.9916 -2.7191  2.6067
  367MOL0     H49507   0.051   8.311   9.927  0.3389  0.7262 -0.1556
  367MOL0     H49508   0.099   8.356   9.769  1.2993 -0.8750 -1.6481
  367MOL0     H49509  -0.271   8.590  10.049  0.2129  0.4232 -0.7651
  367MOL0     H49510  -0.502   8.606   9.976  0.2486 -0.1214  1.5882
  367MOL0     H49511  -0.572   8.775   9.595  2.8845 -3.3183  0.3415
  367MOL0     H49512  -0.608   8.625   9.526 -0.2205 -2.3855  1.3200
  367MOL0     H49513  -0.801   8.759   9.508 -2.8173  1.2321  1.0536
  367MOL0     H49514  -0.830   8.599   9.580 -2.1540  1.9493 -1.0616
  367MOL0     H49515  -0.799   8.868   9.732  2.4252 -0.7947 -1.0354
  367MOL0     H49516  -0.817   8.707   9.806 -3.1547  0.6433  2.5320
  367MOL0     H49517  -1.032   8.834   9.804  0.1864  0.0898  0.3387
  367MOL0     H49518  -1.005   8.862   9.632 -0.2084  0.1906  0.4741
  367MOL0     H49519  -1.044   8.588   9.752 -1.0157  0.7054  0.3991
  367MOL0     H49520  -1.063   8.627   9.574  2.1748  1.4729 -0.9707
  367MOL0     H49521  -1.256   8.752   9.779  0.0579  3.2228 -2.7237
  367MOL0     H49522  -1.269   8.753   9.607 -0.9669  1.1550  0.4905
  367MOL0     H49523  -1.276   8.493   9.764  0.1329  1.2394  0.5604
  367MOL0     H49524  -1.312   8.522   9.591 -3.0230  2.3389 -0.8700
  367MOL0     H49525  -1.482   8.691   9.707 -0.0878  0.0664  0.5078
  367MOL0     H49526  -1.460   8.603   9.853  2.3328 -0.6460 -0.0321
  367MOL0     H49527  -0.380   8.586   9.566 -0.7259  3.1821 -0.1668
  367MOL0     H49528  -0.153   8.548   9.629 -3.2827 -0.0299 -3.0788
  367MOL0     H49529   0.246   8.771   9.991  0.3484 -0.4239 -0.0979
  367MOL0     H49530   0.469   8.715  10.034 -0.8065  1.0008 -1.2189
  367MOL0     H49531   2.343   8.542   9.947 -0.0302 -0.1567  0.0905
  367MOL0     H49532   2.579   8.578   9.957 -2.7745  0.6047  1.3897
  367MOL0     H49533   2.998   8.370   9.969 -3.9445  1.9093 -0.6014
  367MOL0     H49534   3.244   8.417   9.995 -1.6760 -1.3978 -1.3238
  367MOL0     H49535   3.458   8.417   9.951 -1.4792 -1.6905 -0.4638
  367MOL0     H49536   3.427   8.390   9.777 -1.8621  0.9215  0.6211
  367MOL0     H49537   3.670   8.391   9.817  0.2044  1.6095  4.1163
  367MOL0     H49538   3.670   8.556   9.872  1.7441  1.8780 -2.7283
  367MOL0     H49539   3.728   8.543   9.646  0.1262 -0.0815 -0.0032
  367MOL0     H49540   3.597   8.655   9.669 -0.7930 -0.3615  0.1894
  367MOL0     H49541   3.437   8.508   9.570  0.8600  1.8606  1.1619
  367MOL0     H49542   3.543   8.368   9.564 -2.4332 -0.6207 -0.8327
  367MOL0     H49543   3.584   8.508   9.190 -0.5775 -3.5317  0.6838
  367MOL0     H49544   3.229   8.707   9.671  0.4520 -0.8551 -0.9926
  367MOL0     H49545   2.980   8.665   9.657 -0.8782  0.0639 -0.0944
  368MOL0     O49546   9.420   3.913  11.174 -0.0897  1.1079 -0.6290
  368MOL0     C49547   9.472   4.005  11.108  0.1126  0.0268 -0.5252
  368MOL0     O49548   9.424   4.051  10.994  0.2612 -0.5278  0.6065
  368MOL0     C49549   9.305   4.004  10.934  0.0774  0.0155 -0.1798
  368MOL0     C49550   9.190   3.934  10.986 -0.3172 -0.1790 -0.9361
  368MOL0     C49551   9.071   3.922  10.909  0.2793 -0.4129  0.0519
  368MOL0     C49552   9.069   3.976  10.779 -0.0767 -0.8099  0.6268
  368MOL0     O49553   8.966   3.961  10.695  0.2824  0.1514  0.3778
  368MOL0     C49554   8.899   4.073  10.661  0.3269  0.0870  0.4916
  368MOL0     C49555   8.762   4.044  10.714  0.1414 -0.5097 -0.2083
  368MOL0     C49556   8.676   3.973  10.615 -0.6393 -0.6436  0.6730
  368MOL0     C49557   8.526   3.980  10.657  0.3958 -0.7308 -0.5642
  368MOL0     C49558   8.506   3.902  10.789 -0.0564  0.5021  0.2618
  368MOL0     C49559   8.363   3.859  10.814  0.6169 -0.6494 -0.5539
  368MOL0     C49560   8.254   3.972  10.806  0.4437  0.6241 -0.3658
  368MOL0     C49561   8.115   3.908  10.834  0.0627 -0.0898 -0.3216
  368MOL0     N49562   8.006   4.011  10.803 -0.4106 -0.0188  0.0524
  368MOL0     C49563   7.879   4.005  10.850  0.8040  0.3554  0.1262
  368MOL0     C49564   7.808   4.093  10.776 -0.6641 -0.3763 -0.2092
  368MOL0     C49565   7.660   4.147  10.796 -0.4123  0.4147 -1.1447
  368MOL0     C49566   7.577   4.068  10.698  0.0849 -0.4302  0.6531
  368MOL0     C49567   7.433   4.118  10.680  0.2351  0.5120  0.2786
  368MOL0     C49568   7.404   4.263  10.630 -0.0989 -0.3867  0.1877
  368MOL0     O49569   7.272   4.289  10.583  0.3020  0.0441  0.5085
  368MOL0     C49570   7.174   4.323  10.676  0.1616  0.1470  0.5217
  368MOL0     C49571   7.195   4.330  10.812  0.3534 -0.4470 -0.6146
  368MOL0     C49572   7.090   4.346  10.900  0.8356  0.0576 -0.6834
  368MOL0     C49573   7.133   4.352  11.043  0.3746  0.8505 -0.2702
  368MOL0     C49574   6.960   4.368  10.858 -0.0255  0.4801  0.8487
  368MOL0     C49575   6.848   4.399  10.945  0.3021  0.1628  0.7231
  368MOL0     O49576   6.736   4.433  10.883  0.3534  0.3706 -0.9100
  368MOL0     C49577   6.624   4.467  10.951  0.2714 -0.0643 -0.1989
  368MOL0     C49578   6.618   4.558  11.063 -0.8019  1.1214  0.1493
  368MOL0     C49579   6.498   4.600  11.123 -0.1388  0.8460  0.7919
  368MOL0     C49580   6.379   4.550  11.086  0.2589  0.2870  0.0658
  368MOL0     O49581   6.266   4.561  11.154  0.9326  0.0834 -0.0217
  368MOL0     C49582   6.252   4.630  11.279  0.8680 -0.5534 -0.6724
  368MOL0     C49583   6.108   4.647  11.312 -1.3243 -0.4098  0.7263
  368MOL0     C49584   6.077   4.698  11.453  1.0163 -0.4038 -0.2847
  368MOL0     C49585   5.919   4.732  11.465 -0.5279 -1.0838 -0.3199
  368MOL0     C49586   5.893   4.876  11.400 -0.4298 -0.4495 -0.1312
  368MOL0     C49587   5.748   4.932  11.435 -0.4316  0.2254 -0.7670
  368MOL0     C49588   5.718   5.067  11.365  0.1820  0.5929 -0.0520
  368MOL0     C49589   5.584   5.133  11.403  0.3065  0.5740  0.7846
  368MOL0    Cl49590   5.607   5.174  11.569 -0.1620 -0.2749  0.4245
  368MOL0     C49591   6.377   4.452  10.984  0.4093 -0.2988  0.3268
  368MOL0     C49592   6.496   4.407  10.917 -1.2935  0.0505 -0.6142
  368MOL0     O49593   6.863   4.399  11.064 -0.5973 -0.1529 -0.1057
  368MOL0     C49594   6.942   4.368  10.721 -0.1429 -0.8602  0.5191
  368MOL0     C49595   7.043   4.352  10.633  0.6437 -0.1362  0.6076
  368MOL0     N49596   7.899   4.142  10.678 -0.0621 -0.6153  0.5934
  368MOL0     N49597   8.018   4.093  10.693  0.4945  0.0093  0.3641
  368MOL0     C49598   9.181   4.031  10.727 -0.1332 -0.4519 -0.5296
  368MOL0     C49599   9.293   4.048  10.803  0.6177 -0.5585  0.8731
  368MOL0     C49600   9.588   4.067  11.161 -0.5575 -0.2913 -0.7805
  368MOL0     C49601   9.648   4.166  11.086  0.6595 -0.2087  0.3958
  368MOL0     C49602   9.762   4.233  11.137  0.1892  0.5979 -0.6383
  368MOL0     C49603   9.817   4.209  11.264 -0.4886 -0.0318 -0.7574
  368MOL0     O49604   9.932   4.272  11.315 -0.1070 -0.2064  0.6840
  368MOL0     C49605   9.972   4.396  11.247 -0.9340 -0.6735 -0.6863
  368MOL0     C49606  10.049   4.472  11.352  0.1292  0.2094 -0.7504
  368MOL0     C49607  10.193   4.420  11.399  0.3652 -0.0504 -0.0866
  368MOL0     C49608  10.307   4.425  11.297 -0.2941  0.0140 -0.2650
  368MOL0     C49609  10.362   4.554  11.253 -0.7674  0.7709 -0.6155
  368MOL0     C49610  10.422   4.661  11.248 -0.6381 -0.1343  0.9843
  368MOL0     C49611   9.761   4.099  11.338 -0.6419 -0.3075  0.0366
  368MOL0     C49612   9.650   4.032  11.285  0.8420 -0.0640 -0.4091
  368MOL0     H49613   9.196   3.901  11.090  0.8787  3.7090  0.4136
  368MOL0     H49614   8.980   3.883  10.953  0.3549  1.6346  2.2021
  368MOL0     H49615   8.945   4.164  10.701  4.0973 -2.0821  1.6151
  368MOL0     H49616   8.893   4.069  10.552 -0.4202 -0.1743  0.5388
  368MOL0     H49617   8.775   3.978  10.801  2.7965 -0.2286 -0.3166
  368MOL0     H49618   8.713   4.140  10.734  0.2102 -0.2858 -1.0784
  368MOL0     H49619   8.688   4.021  10.518  1.9174  0.3234  1.3846
  368MOL0     H49620   8.711   3.870  10.606 -1.1536 -0.7898  0.2875
  368MOL0     H49621   8.475   4.075  10.677 -0.0892 -1.1406  0.1741
  368MOL0     H49622   8.466   3.931  10.580  1.0440 -0.0159 -1.5461
  368MOL0     H49623   8.559   3.809  10.764  3.5009  2.0076  1.5645
  368MOL0     H49624   8.540   3.952  10.880  0.7044 -1.3315  1.0429
  368MOL0     H49625   8.332   3.774  10.751  0.2329 -0.5432 -0.5088
  368MOL0     H49626   8.355   3.816  10.914 -0.7426  1.3746  0.2630
  368MOL0     H49627   8.269   4.049  10.883 -0.4246 -0.6752  1.1693
  368MOL0     H49628   8.248   4.017  10.706 -2.4185  1.1569 -0.0464
  368MOL0     H49629   8.106   3.891  10.942  0.9807 -2.5812 -0.5609
  368MOL0     H49630   8.103   3.811  10.784 -1.7515  1.1639 -2.5014
  368MOL0     H49631   7.841   3.946  10.933  0.6270  1.5036  0.8871
  368MOL0     H49632   7.634   4.132  10.902  3.6287  4.5168  0.7837
  368MOL0     H49633   7.660   4.256  10.786 -1.5837  0.4960 -0.4150
  368MOL0     H49634   7.557   3.966  10.732  0.9413 -0.6435  0.5350
  368MOL0     H49635   7.606   4.060  10.593 -3.7136 -0.3627 -0.5792
  368MOL0     H49636   7.381   4.108  10.776 -2.0780 -0.4919 -0.9974
  368MOL0     H49637   7.375   4.047  10.620  0.9279 -0.4153  0.6628
  368MOL0     H49638   7.475   4.286  10.551 -1.3091 -0.6218 -1.0104
  368MOL0     H49639   7.440   4.327  10.711 -0.6489 -0.7621  0.7381
  368MOL0     H49640   7.295   4.311  10.848  0.8660  1.2103 -1.0610
  368MOL0     H49641   7.137   4.453  11.085  0.9505 -0.0292  1.9509
  368MOL0     H49642   7.067   4.295  11.109 -0.3387  1.5521 -0.3623
  368MOL0     H49643   7.234   4.312  11.057  0.0916  0.5090  0.9405
  368MOL0     H49644   6.710   4.602  11.100 -0.7181  0.4982  0.6983
  368MOL0     H49645   6.505   4.677  11.199  1.6351  0.5651  0.9473
  368MOL0     H49646   6.305   4.582  11.362 -0.9903 -3.2523 -0.9246
  368MOL0     H49647   6.282   4.735  11.265 -2.9349  0.4481 -2.8958
  368MOL0     H49648   6.072   4.717  11.236 -3.0128 -2.3117 -0.3061
  368MOL0     H49649   6.064   4.548  11.298 -0.4574 -0.4859 -2.1321
  368MOL0     H49650   6.137   4.788  11.470  2.6937 -1.4644 -0.4612
  368MOL0     H49651   6.107   4.620  11.524 -2.3825 -0.9891  0.7111
  368MOL0     H49652   5.858   4.657  11.414 -2.8159  0.3605  0.1181
  368MOL0     H49653   5.888   4.733  11.570  2.0361  0.7021  0.5286
  368MOL0     H49654   5.910   4.884  11.292  0.7954 -0.0190  0.0822
  368MOL0     H49655   5.959   4.946  11.452 -0.4770 -0.3630 -0.1874
  368MOL0     H49656   5.678   4.854  11.403  1.1962 -1.5907 -0.1293
  368MOL0     H49657   5.734   4.939  11.544 -1.7427  3.3437 -1.0331
  368MOL0     H49658   5.719   5.036  11.260  0.0818 -1.7577  0.5804
  368MOL0     H49659   5.794   5.141  11.389 -0.1568  1.1886 -0.7794
  368MOL0     H49660   5.493   5.075  11.381  1.1040 -0.4467  0.0355
  368MOL0     H49661   5.575   5.228  11.350  1.6255  0.9244  1.1715
  368MOL0     H49662   6.281   4.405  10.967  0.0020  0.3263  0.8929
  368MOL0     H49663   6.494   4.345  10.828 -2.2078  2.2728 -2.2461
  368MOL0     H49664   6.842   4.387  10.684  1.0350 -0.4502 -2.7101
  368MOL0     H49665   7.023   4.364  10.527  2.6188  0.0899  0.2280
  368MOL0     H49666   9.187   4.072  10.626 -0.8659  0.4213 -0.2431
  368MOL0     H49667   9.371   4.114  10.768  0.5114  0.0273  1.7193
  368MOL0     H49668   9.610   4.206  10.992  2.4015  4.1240  1.3077
  368MOL0     H49669   9.799   4.313  11.073 -0.2422  1.7597  0.5266
  368MOL0     H49670  10.038   4.388  11.160 -0.0023  3.6519 -0.6016
  368MOL0     H49671   9.881   4.451  11.222 -2.0226 -2.3439 -0.5852
  368MOL0     H49672   9.981   4.479  11.438  0.6333 -1.6397 -0.1558
  368MOL0     H49673  10.060   4.571  11.305  0.0095  0.9687  0.7439
  368MOL0     H49674  10.178   4.316  11.431  0.8649 -0.6391 -1.6765
  368MOL0     H49675  10.237   4.479  11.480  3.6577  1.6469 -2.8808
  368MOL0     H49676  10.287   4.358  11.212 -0.6237 -1.0848  0.6624
  368MOL0     H49677  10.391   4.383  11.352 -0.0416  0.6208 -0.1808
  368MOL0     H49678  10.467   4.758  11.252 -1.8976  0.4962  0.3161
  368MOL0     H49679   9.800   4.077  11.437 -2.6266 -0.1619  0.8974
  368MOL0     H49680   9.615   3.950  11.348  2.4159 -0.9108 -0.5773
  369MOL0     O49681   8.436   8.926   3.228 -0.7680 -0.1221 -0.7939
  369MOL0     C49682   8.500   8.930   3.335  0.6809  0.1145 -0.4830
  369MOL0     O49683   8.449   8.907   3.461  0.7919 -0.6180 -0.1428
  369MOL0     C49684   8.309   8.897   3.473  0.7326  0.7669 -0.1397
  369MOL0     C49685   8.226   9.001   3.441  0.4518 -0.2423  0.0248
  369MOL0     C49686   8.085   8.986   3.463 -0.0859 -0.3048 -0.4576
  369MOL0     C49687   8.034   8.874   3.525  0.1626  0.3814  0.5156
  369MOL0     O49688   7.905   8.883   3.539 -0.2731 -0.0794 -0.6685
  369MOL0     C49689   7.840   8.779   3.611  0.9225  0.2783  0.9749
  369MOL0     C49690   7.692   8.826   3.627 -0.1934 -0.0189 -0.3569
  369MOL0     C49691   7.611   8.714   3.713  0.0555 -0.1983  0.1395
  369MOL0     C49692   7.456   8.749   3.706  0.1042 -0.3524 -0.4490
  369MOL0     C49693   7.374   8.685   3.810 -0.5748 -0.2240 -1.1785
  369MOL0     C49694   7.219   8.711   3.775  1.1589 -0.5496 -0.4293
  369MOL0     C49695   7.126   8.683   3.896  0.1013  0.4520 -0.1295
  369MOL0     C49696   7.142   8.781   4.012  0.1515 -0.2992  0.0861
  369MOL0     N49697   7.089   8.911   3.970 -0.8637 -0.3730  0.5722
  369MOL0     C49698   7.150   9.032   4.012 -0.3083  0.3074 -0.0575
  369MOL0     C49699   7.051   9.123   3.992 -0.5350 -0.1497 -0.4344
  369MOL0     C49700   7.074   9.263   4.049 -0.4942  0.1133 -0.1300
  369MOL0     C49701   6.945   9.333   4.085  0.6523 -0.6850 -0.2876
  369MOL0     C49702   6.873   9.384   3.954  0.3069 -0.1470 -0.0565
  369MOL0     C49703   6.736   9.454   3.990 -0.8600  0.5749 -0.4691
  369MOL0     O49704   6.638   9.348   3.997 -0.3844 -0.5566  0.0700
  369MOL0     C49705   6.581   9.308   3.875  0.1773  0.2756 -0.8653
  369MOL0     C49706   6.567   9.381   3.752  1.1000  0.1717 -0.1868
  369MOL0     C49707   6.511   9.311   3.634 -0.0277 -0.6449 -0.0859
  369MOL0     C49708   6.534   9.386   3.501  0.5006  0.3333  0.1457
  369MOL0     C49709   6.440   9.190   3.650  0.3522  0.3140 -0.8505
  369MOL0     C49710   6.366   9.113   3.537 -0.0886 -0.5983 -0.2268
  369MOL0     O49711   6.280   9.015   3.577  0.0365  1.4349 -0.7037
  369MOL0     C49712   6.246   8.926   3.476  0.3739  0.3179  0.3382
  369MOL0     C49713   6.143   8.955   3.390  0.4417  0.1606  0.2571
  369MOL0     C49714   6.119   8.879   3.281  0.5258 -0.0305  0.7044
  369MOL0     C49715   6.202   8.766   3.249  0.1454  0.1609 -0.5951
  369MOL0     O49716   6.195   8.698   3.134 -0.3645  0.0426 -0.2415
  369MOL0     C49717   6.245   8.778   3.023 -0.3867  0.8490 -0.0519
  369MOL0     C49718   6.395   8.772   3.000 -0.6649  0.0499 -0.4194
  369MOL0     C49719   6.436   8.629   3.028 -0.6907  0.5872 -0.1595
  369MOL0     C49720   6.582   8.606   3.044  0.1240 -0.7757  0.1338
  369MOL0     C49721   6.612   8.453   3.066  0.3934 -0.0416 -0.4591
  369MOL0     C49722   6.761   8.400   3.105  0.8797  1.2434  0.9799
  369MOL0     C49723   6.750   8.266   3.185  0.0666 -1.4779 -0.2924
  369MOL0     C49724   6.883   8.195   3.201 -0.4348 -0.2660 -0.2512
  369MOL0    Cl49725   6.873   8.017   3.247 -0.0065  0.3819  0.0799
  369MOL0     C49726   6.301   8.734   3.345 -0.3484  1.1341 -0.0882
  369MOL0     C49727   6.318   8.811   3.457  0.2876  1.5419 -0.5917
  369MOL0     O49728   6.390   9.145   3.422 -0.0881 -0.0706 -0.4011
  369MOL0     C49729   6.442   9.141   3.781  0.7369  0.3556  0.4561
  369MOL0     C49730   6.516   9.184   3.881 -0.3714  0.8894  0.2270
  369MOL0     N49731   6.942   9.067   3.939 -0.4171 -0.0716  0.2476
  369MOL0     N49732   6.964   8.938   3.933 -0.0923 -0.0355  0.1942
  369MOL0     C49733   8.121   8.771   3.559  1.0266  0.2864 -0.2194
  369MOL0     C49734   8.253   8.780   3.530 -0.4491 -0.7399 -0.1232
  369MOL0     C49735   8.647   8.936   3.310  1.1228  0.5324 -0.6388
  369MOL0     C49736   8.722   8.980   3.422  0.2755  0.4383  0.3483
  369MOL0     C49737   8.859   8.980   3.418 -0.0864 -0.0040  0.9335
  369MOL0     C49738   8.927   8.927   3.308 -0.3792  0.1111  0.4777
  369MOL0     O49739   9.062   8.913   3.322  0.2235  0.0653  0.6965
  369MOL0     C49740   9.130   8.850   3.212 -1.3835  0.0838  0.0520
  369MOL0     C49741   9.282   8.872   3.235  0.6685  0.6479  0.6894
  369MOL0     C49742   9.366   8.834   3.101 -0.2689  0.0940  0.1727
  369MOL0     C49743   9.496   8.760   3.122  0.2844 -0.8213 -0.4278
  369MOL0     C49744   9.485   8.613   3.134  0.7752 -0.2983  0.1883
  369MOL0     C49745   9.470   8.492   3.142 -0.0605  0.3408 -0.6449
  369MOL0     C49746   8.851   8.885   3.191  0.1434  0.8278  0.0183
  369MOL0     C49747   8.709   8.884   3.199  0.4801  0.3395  0.3504
  369MOL0     H49748   8.248   9.096   3.392 -0.4169 -0.1351 -0.1817
  369MOL0     H49749   8.028   9.075   3.436 -2.1110 -1.2766  0.4304
  369MOL0     H49750   7.838   8.679   3.567 -2.9144 -0.3633  2.1881
  369MOL0     H49751   7.890   8.770   3.708  0.6572  1.0783  1.1896
  369MOL0     H49752   7.701   8.920   3.681 -0.6583  1.8773 -3.3159
  369MOL0     H49753   7.648   8.836   3.527  1.9327 -2.5090 -1.6948
  369MOL0     H49754   7.632   8.610   3.685 -2.4047 -0.5805 -0.5017
  369MOL0     H49755   7.636   8.722   3.820 -1.4325  1.9666  0.3856
  369MOL0     H49756   7.448   8.857   3.718  0.2313 -0.3032 -0.7879
  369MOL0     H49757   7.416   8.721   3.608  1.1040 -0.8025 -0.7476
  369MOL0     H49758   7.384   8.577   3.822 -0.3736 -0.1254 -0.4610
  369MOL0     H49759   7.409   8.732   3.902  0.0288 -0.9581 -1.0282
  369MOL0     H49760   7.206   8.810   3.732 -1.6346 -0.6967 -0.1210
  369MOL0     H49761   7.189   8.645   3.693 -0.3782 -1.5035  0.8457
  369MOL0     H49762   7.027   8.700   3.853 -0.7779 -4.6671 -0.6488
  369MOL0     H49763   7.143   8.580   3.927  3.7410  1.1879  0.8430
  369MOL0     H49764   7.246   8.786   4.048  0.5138 -1.2463 -0.7799
  369MOL0     H49765   7.082   8.746   4.096  1.5913  1.2721  1.8584
  369MOL0     H49766   7.245   9.044   4.063 -0.9587  0.3238  1.1968
  369MOL0     H49767   7.135   9.243   4.138 -1.7253  1.2151  1.0005
  369MOL0     H49768   7.140   9.328   3.991 -2.5350 -0.5785 -3.4895
  369MOL0     H49769   6.977   9.413   4.152  1.6716 -2.1584  1.0441
  369MOL0     H49770   6.879   9.273   4.149  0.5105 -0.4399 -0.2023
  369MOL0     H49771   6.853   9.302   3.885 -0.2235  1.5892 -2.0510
  369MOL0     H49772   6.924   9.460   3.894  1.5167 -3.8733 -4.2505
  369MOL0     H49773   6.708   9.528   3.914  1.2122  2.6403  0.6388
  369MOL0     H49774   6.752   9.513   4.081 -0.0465  1.0241 -0.9042
  369MOL0     H49775   6.610   9.478   3.730 -0.3189  1.2396  1.5033
  369MOL0     H49776   6.447   9.379   3.435 -0.1218  1.3031  0.8279
  369MOL0     H49777   6.553   9.493   3.519  0.2255  0.3345  0.4342
  369MOL0     H49778   6.627   9.352   3.455  0.0949  0.4002 -0.7580
  369MOL0     H49779   6.085   9.046   3.404 -3.0906 -1.9892  0.8710
  369MOL0     H49780   6.042   8.916   3.213 -0.4597 -2.0283  0.6812
  369MOL0     H49781   6.200   8.734   2.934 -0.0300 -1.1082  0.6680
  369MOL0     H49782   6.217   8.883   3.027 -1.6497  0.9071 -4.7673
  369MOL0     H49783   6.416   8.804   2.898  0.7622  1.0767  0.1528
  369MOL0     H49784   6.448   8.847   3.060 -0.0022  0.2094 -1.1855
  369MOL0     H49785   6.405   8.556   2.953  0.6163 -2.9655  2.4568
  369MOL0     H49786   6.394   8.591   3.122 -2.6519  2.2505 -0.2991
  369MOL0     H49787   6.638   8.645   2.958  2.3376 -0.8297  1.4955
  369MOL0     H49788   6.601   8.659   3.137 -4.1163  0.7113  0.3973
  369MOL0     H49789   6.587   8.414   2.967  0.2679  0.7355 -0.7428
  369MOL0     H49790   6.540   8.414   3.138 -2.1566  2.1933 -1.6267
  369MOL0     H49791   6.817   8.396   3.011 -0.9801 -0.6235 -0.1458
  369MOL0     H49792   6.813   8.470   3.171  2.6682 -0.2093  1.1733
  369MOL0     H49793   6.677   8.203   3.133  0.1879 -2.5916  0.8467
  369MOL0     H49794   6.718   8.296   3.285 -1.5281 -1.8272 -0.6654
  369MOL0     H49795   6.940   8.238   3.284 -0.6837  0.1479 -0.2896
  369MOL0     H49796   6.941   8.207   3.109  2.1024  2.6850  1.5204
  369MOL0     H49797   6.375   8.659   3.319 -0.1708  2.3373 -3.5759
  369MOL0     H49798   6.401   8.789   3.524 -0.4066 -1.7466 -0.6230
  369MOL0     H49799   6.378   9.055   3.801 -1.0466  1.1595 -1.4543
  369MOL0     H49800   6.517   9.137   3.979 -2.0933 -1.7690 -0.9190
  369MOL0     H49801   8.084   8.678   3.601  1.9469  0.0961  0.2133
  369MOL0     H49802   8.327   8.705   3.554  0.9741  0.3551 -0.9429
  369MOL0     H49803   8.672   9.032   3.502 -0.5328 -0.2952  0.3360
  369MOL0     H49804   8.895   9.023   3.511  0.4684  1.2216  0.1775
  369MOL0     H49805   9.120   8.742   3.194  1.1937  0.0136 -1.4675
  369MOL0     H49806   9.099   8.902   3.121  1.4047  1.6369 -0.1022
  369MOL0     H49807   9.322   8.813   3.318  0.2903 -2.9178 -1.4343
  369MOL0     H49808   9.298   8.978   3.258 -1.0147  1.1076 -0.1369
  369MOL0     H49809   9.395   8.923   3.044 -0.5211 -0.6870 -1.2472
  369MOL0     H49810   9.304   8.771   3.037  1.9161 -2.3619  0.2880
  369MOL0     H49811   9.552   8.808   3.203 -0.8914 -0.8027  0.4076
  369MOL0     H49812   9.557   8.786   3.035  2.0174  1.7164  1.4007
  369MOL0     H49813   9.450   8.386   3.138 -0.0505  0.2718  0.8351
  369MOL0     H49814   8.898   8.854   3.098 -0.6590  1.8543 -0.7630
  369MOL0     H49815   8.650   8.863   3.110  1.1851  1.1846 -0.3378
  370MOL0     O49816   0.998   4.014   9.851  0.4465  0.0258  0.2789
  370MOL0     C49817   0.967   3.895   9.873 -0.6858 -0.1903 -0.4754
  370MOL0     O49818   0.842   3.848   9.864  0.6168  0.4262  0.2718
  370MOL0     C49819   0.730   3.930   9.870 -0.9812 -0.1738  0.2625
  370MOL0     C49820   0.717   4.061   9.926 -0.1996 -0.6581  0.0327
  370MOL0     C49821   0.592   4.126   9.930 -0.2793  0.4137  0.5903
  370MOL0     C49822   0.475   4.071   9.878 -0.4818  0.7319 -0.9511
  370MOL0     O49823   0.350   4.134   9.867 -0.5568  0.2034 -0.3471
  370MOL0     C49824   0.337   4.260   9.819  0.0004  0.2449 -0.0358
  370MOL0     C49825   0.193   4.303   9.850 -0.2361 -0.3524 -0.3374
  370MOL0     C49826   0.177   4.452   9.804  0.0671 -0.2674 -0.3011
  370MOL0     C49827   0.031   4.509   9.849  0.3598  0.7729 -0.6815
  370MOL0     C49828  -0.029   4.608   9.749  0.4221 -0.2335 -0.1371
  370MOL0     C49829  -0.181   4.653   9.784  0.2698  0.9072  0.0946
  370MOL0     C49830  -0.195   4.694   9.927  0.1851  0.0212  0.1183
  370MOL0     C49831  -0.319   4.773   9.956 -0.6345 -0.7342  0.7988
  370MOL0     N49832  -0.434   4.686   9.944  0.3909 -0.0214 -0.2592
  370MOL0     C49833  -0.482   4.619  10.051 -0.3592 -0.5612  0.2286
  370MOL0     C49834  -0.597   4.573  10.007  0.3329 -0.4921 -0.0507
  370MOL0     C49835  -0.724   4.516  10.082 -0.2691  0.1369  0.1842
  370MOL0     C49836  -0.780   4.391  10.002  0.6683  0.1674  0.4788
  370MOL0     C49837  -0.908   4.335  10.075 -0.0550 -0.1519  0.1114
  370MOL0     C49838  -0.928   4.195  10.040 -1.2439 -0.3432 -0.2541
  370MOL0     O49839  -0.907   4.154   9.908 -0.4557 -0.2098 -0.5297
  370MOL0     C49840  -1.021   4.118   9.833 -0.3266 -0.3417 -0.5808
  370MOL0     C49841  -1.059   4.185   9.715 -0.2370  0.1081 -0.4981
  370MOL0     C49842  -1.174   4.158   9.641 -1.0028 -0.0728 -1.0411
  370MOL0     C49843  -1.203   4.256   9.536 -0.3628 -0.1561 -0.0025
  370MOL0     C49844  -1.271   4.055   9.693 -0.2443 -0.5300  0.2452
  370MOL0     C49845  -1.391   4.015   9.622 -0.2233  0.5151 -0.1912
  370MOL0     O49846  -1.406   4.026   9.485 -0.6008 -0.6829  0.0700
  370MOL0     C49847  -1.522   3.979   9.444  0.6295 -1.1874  0.6229
  370MOL0     C49848  -1.536   3.843   9.411  0.6054 -0.6480  0.6623
  370MOL0     C49849  -1.656   3.790   9.349  0.2536 -0.4035 -0.7730
  370MOL0     C49850  -1.765   3.877   9.334  0.7229 -0.2998  0.0004
  370MOL0     O49851  -1.882   3.825   9.281  0.9078  0.3271  0.3616
  370MOL0     C49852  -1.944   3.921   9.194 -0.7291 -0.2080 -0.1672
  370MOL0     C49853  -2.057   3.864   9.113 -0.3036 -0.2333 -0.5771
  370MOL0     C49854  -2.171   3.818   9.204  0.6195  0.5367 -0.4120
  370MOL0     C49855  -2.284   3.745   9.123  0.0369 -0.0181  0.0709
  370MOL0     C49856  -2.259   3.611   9.064 -0.4457 -0.7314 -0.8704
  370MOL0     C49857  -2.155   3.596   8.945 -0.1752 -0.8860 -0.3893
  370MOL0     C49858  -2.186   3.474   8.854 -0.0547 -0.2755  0.0327
  370MOL0     C49859  -2.320   3.466   8.775  0.2130 -0.1039  0.0476
  370MOL0    Cl49860  -2.318   3.574   8.643 -0.1203  0.5383  0.3071
  370MOL0     C49861  -1.752   4.012   9.373 -0.8700  0.2615  0.3636
  370MOL0     C49862  -1.627   4.065   9.417 -0.7507 -0.5296 -0.4279
  370MOL0     O49863  -1.460   3.939   9.687  0.2261 -0.3818  0.0730
  370MOL0     C49864  -1.233   3.995   9.811 -0.3645 -0.4149  0.3590
  370MOL0     C49865  -1.122   4.025   9.876 -0.7351 -0.2653  0.2665
  370MOL0     N49866  -0.613   4.609   9.876  0.2596 -0.3364  0.1975
  370MOL0     N49867  -0.518   4.677   9.842 -0.7300 -0.5818  0.6077
  370MOL0     C49868   0.487   3.941   9.833  0.4944 -0.5943  0.3567
  370MOL0     C49869   0.607   3.878   9.815  0.0475  0.5514  0.3995
  370MOL0     C49870   1.063   3.786   9.913 -0.4181 -0.6157  0.6753
  370MOL0     C49871   1.029   3.658   9.979 -0.2306  0.5085  0.4629
  370MOL0     C49872   1.134   3.562  10.004 -0.4347 -0.1209  0.0694
  370MOL0     C49873   1.273   3.591   9.982 -0.2522 -0.2052  0.3405
  370MOL0     O49874   1.371   3.495  10.029 -0.0461  0.2999  0.2125
  370MOL0     C49875   1.505   3.510  10.000  0.6747 -0.3761 -0.1296
  370MOL0     C49876   1.575   3.432  10.110 -0.2774  0.1898  0.2280
  370MOL0     C49877   1.540   3.480  10.255 -0.0707  0.2712  0.8680
  370MOL0     C49878   1.651   3.425  10.353 -0.8257 -0.1007  0.2336
  370MOL0     C49879   1.619   3.423  10.502  0.2978  0.2458  1.0506
  370MOL0     C49880   1.597   3.412  10.620 -0.9109  0.6791  1.5904
  370MOL0     C49881   1.305   3.712   9.913 -0.0471 -0.5500  1.0196
  370MOL0     C49882   1.202   3.811   9.890 -0.2968  0.6637 -0.3325
  370MOL0     H49883   0.805   4.117   9.958 -0.6442 -1.1228  2.2984
  370MOL0     H49884   0.589   4.230   9.959  1.6880  1.3908 -2.2474
  370MOL0     H49885   0.412   4.327   9.862  1.7195 -0.0252 -2.4136
  370MOL0     H49886   0.347   4.253   9.711  1.0090  0.6688  0.0156
  370MOL0     H49887   0.114   4.229   9.834 -1.1909  0.3131  1.0564
  370MOL0     H49888   0.180   4.313   9.958  2.1640  0.3526 -0.0600
  370MOL0     H49889   0.250   4.527   9.835 -1.8170  2.1044 -1.2089
  370MOL0     H49890   0.156   4.452   9.697  0.0756  2.6194 -0.3688
  370MOL0     H49891  -0.045   4.430   9.851 -0.8378  1.7622 -2.8088
  370MOL0     H49892   0.045   4.543   9.952 -0.0936  3.5185 -1.4445
  370MOL0     H49893   0.027   4.701   9.756 -1.1657  0.8453 -0.9832
  370MOL0     H49894  -0.025   4.569   9.647 -3.2706 -0.6734 -0.2499
  370MOL0     H49895  -0.215   4.729   9.713  0.2825  0.4142 -0.4409
  370MOL0     H49896  -0.234   4.560   9.765  3.5203 -1.0548 -0.2028
  370MOL0     H49897  -0.186   4.608   9.994 -0.3863  1.4885  2.2089
  370MOL0     H49898  -0.110   4.759   9.950  0.3515 -0.7993  2.0337
  370MOL0     H49899  -0.327   4.856   9.885  0.7180 -0.4754  0.9340
  370MOL0     H49900  -0.305   4.816  10.055  0.7488 -0.8208  0.6600
  370MOL0     H49901  -0.450   4.617  10.154 -2.2678  2.1005  0.9860
  370MOL0     H49902  -0.705   4.486  10.186  0.3025 -2.4275 -0.5856
  370MOL0     H49903  -0.807   4.588  10.084  1.0474  1.7132 -0.2538
  370MOL0     H49904  -0.695   4.323   9.992  1.0978  0.3007  2.6295
  370MOL0     H49905  -0.803   4.429   9.902  2.9866  0.6396  0.0471
  370MOL0     H49906  -0.998   4.391  10.048  1.3016  1.8105 -0.5589
  370MOL0     H49907  -0.913   4.341  10.184 -0.5222  0.4922  0.0600
  370MOL0     H49908  -1.020   4.153  10.083  0.7785 -2.8120  2.0127
  370MOL0     H49909  -0.847   4.144  10.094  0.3073  1.4431 -0.7998
  370MOL0     H49910  -0.988   4.261   9.684 -2.3562  1.7458 -1.5979
  370MOL0     H49911  -1.113   4.282   9.479 -0.1360  0.0680  0.4551
  370MOL0     H49912  -1.275   4.218   9.463 -1.5617  0.9455  0.5636
  370MOL0     H49913  -1.250   4.346   9.577  0.4371 -0.0574  0.7181
  370MOL0     H49914  -1.452   3.777   9.427  1.2832  0.4888  2.0448
  370MOL0     H49915  -1.663   3.684   9.328 -0.1207 -0.6210  0.3908
  370MOL0     H49916  -1.973   4.009   9.252  2.1789 -1.6553  3.9548
  370MOL0     H49917  -1.873   3.954   9.118 -1.0998 -0.0777 -0.4585
  370MOL0     H49918  -2.098   3.946   9.052 -1.9812 -1.2554 -0.8863
  370MOL0     H49919  -2.030   3.781   9.047  0.5659 -0.8133  0.4863
  370MOL0     H49920  -2.218   3.901   9.257 -3.5269 -1.0461 -1.1851
  370MOL0     H49921  -2.138   3.750   9.283  1.2175 -0.8255 -1.7763
  370MOL0     H49922  -2.361   3.735   9.200  0.2579  1.9236  0.6085
  370MOL0     H49923  -2.325   3.806   9.043  0.7692 -1.3171 -1.3410
  370MOL0     H49924  -2.362   3.583   9.037 -1.0193  2.0678 -1.9309
  370MOL0     H49925  -2.225   3.539   9.139 -0.2175  0.2419 -0.0127
  370MOL0     H49926  -2.160   3.694   8.896 -1.1313 -0.8988 -0.3415
  370MOL0     H49927  -2.053   3.590   8.986 -1.2355 -0.9385  2.4952
  370MOL0     H49928  -2.193   3.383   8.914  1.1563  0.0995  0.7770
  370MOL0     H49929  -2.096   3.459   8.794  1.1230 -2.5699  2.1721
  370MOL0     H49930  -2.400   3.489   8.847  1.2695  0.4151  1.0974
  370MOL0     H49931  -2.320   3.361   8.745  2.1340  0.0869 -0.7913
  370MOL0     H49932  -1.836   4.078   9.353 -1.7287 -0.0633  2.5945
  370MOL0     H49933  -1.622   4.172   9.436 -1.9036 -0.1005 -2.2867
  370MOL0     H49934  -1.298   3.920   9.854 -0.9919 -0.4502 -0.6335
  370MOL0     H49935  -1.103   3.980   9.973 -1.6892  2.9486  2.0545
  370MOL0     H49936   0.390   3.892   9.819  0.7881 -1.0482 -0.1467
  370MOL0     H49937   0.604   3.778   9.772 -1.1532  1.1753 -1.0633
  370MOL0     H49938   0.925   3.641  10.005 -0.7489  1.3767 -0.9103
  370MOL0     H49939   1.110   3.462  10.041  6.0176 -1.6406  1.2419
  370MOL0     H49940   1.529   3.475   9.899  0.9014 -0.5960  0.0004
  370MOL0     H49941   1.541   3.612  10.015 -1.1059  0.0234  1.7925
  370MOL0     H49942   1.683   3.444  10.098 -0.4826  1.3519 -0.6679
  370MOL0     H49943   1.551   3.326  10.098  1.2011 -0.4173  2.1844
  370MOL0     H49944   1.445   3.433  10.282  0.3717 -1.5253 -0.5098
  370MOL0     H49945   1.518   3.587  10.256 -2.4594 -0.1567  2.0690
  370MOL0     H49946   1.730   3.501  10.348 -1.7605  0.8503 -0.6181
  370MOL0     H49947   1.676   3.328  10.311  0.4815  1.7940 -3.8735
  370MOL0     H49948   1.551   3.418  10.716 -2.0734  0.2569  1.0736
  370MOL0     H49949   1.407   3.729   9.880 -0.8715  0.0610 -1.4629
  370MOL0     H49950   1.244   3.895   9.837  1.1297  1.1061  1.4290
  371MOL0     O49951   6.522  10.927  10.320 -0.6551  0.0515  0.2703
  371MOL0     C49952   6.569  10.841  10.250  0.2441 -0.1343 -0.3816
  371MOL0     O49953   6.498  10.769  10.151 -0.2664 -0.4887  0.0147
  371MOL0     C49954   6.358  10.775  10.149 -0.0459  0.0761 -0.0352
  371MOL0     C49955   6.290  10.844  10.045 -0.3239  0.1830  0.1294
  371MOL0     C49956   6.148  10.840  10.033 -0.3349  0.2028 -0.6938
  371MOL0     C49957   6.076  10.760  10.126 -0.5288 -0.4650  0.5147
  371MOL0     O49958   5.938  10.754  10.108 -0.8338 -0.2394  0.1799
  371MOL0     C49959   5.863  10.653  10.177  0.2042  0.1404 -0.3698
  371MOL0     C49960   5.739  10.650  10.091  0.0540  0.3882  0.0078
  371MOL0     C49961   5.641  10.772  10.129 -0.3962  0.4720 -0.4661
  371MOL0     C49962   5.571  10.744  10.259  0.3446 -0.1559  0.1857
  371MOL0     C49963   5.509  10.859  10.331  1.0659  0.3395  0.4051
  371MOL0     C49964   5.399  10.925  10.252  0.3348 -0.2303  0.6481
  371MOL0     C49965   5.333  11.033  10.338  0.4638  0.3369 -0.0219
  371MOL0     C49966   5.204  11.082  10.262 -0.0365  0.2145  0.0896
  371MOL0     N49967   5.153  11.207  10.334 -0.6591  0.3379 -0.1993
  371MOL0     C49968   5.198  11.331  10.305  0.2152  0.0265  0.5369
  371MOL0     C49969   5.107  11.419  10.358 -0.7334 -0.2768 -0.0841
  371MOL0     C49970   5.101  11.567  10.322  0.1333 -0.3646  0.5386
  371MOL0     C49971   4.954  11.604  10.339  0.2129 -0.6749  0.5876
  371MOL0     C49972   4.945  11.751  10.306 -0.1112 -0.5040  0.7245
  371MOL0     C49973   4.804  11.800  10.312  0.8410 -0.0766  0.0322
  371MOL0     O49974   4.715  11.729  10.219 -0.0006 -0.1620 -1.0008
  371MOL0     C49975   4.571  11.739  10.228  0.3835 -0.1870 -0.0913
  371MOL0     C49976   4.512  11.824  10.316  0.1418  0.3602 -1.0874
  371MOL0     C49977   4.372  11.832  10.335 -0.0396 -0.0937 -1.0628
  371MOL0     C49978   4.311  11.903  10.463 -0.3863 -0.4285 -0.0952
  371MOL0     C49979   4.297  11.764  10.241  0.7374  0.4683  0.2303
  371MOL0     C49980   4.160  11.765  10.266  1.6034  0.9610 -1.8305
  371MOL0     O49981   4.107  11.643  10.301  0.0482 -0.8469 -0.2791
  371MOL0     C49982   3.976  11.638  10.327 -0.6151  0.2679  0.5202
  371MOL0     C49983   3.892  11.581  10.224  0.7166 -0.1259 -1.0633
  371MOL0     C49984   3.756  11.568  10.252 -0.9857  0.4610 -0.1556
  371MOL0     C49985   3.704  11.601  10.378  0.1116  0.2346 -0.6567
  371MOL0     O49986   3.567  11.577  10.381 -0.6660  0.6983 -0.3006
  371MOL0     C49987   3.495  11.569  10.502  0.0468  0.0680 -0.2421
  371MOL0     C49988   3.512  11.442  10.580  0.3001  0.3423 -0.0317
  371MOL0     C49989   3.418  11.425  10.701 -0.0444  0.1121  0.4462
  371MOL0     C49990   3.281  11.382  10.657  0.3230  0.3968  0.0856
  371MOL0     C49991   3.169  11.410  10.751 -0.4093  0.4786 -0.1225
  371MOL0     C49992   3.199  11.378  10.906  0.4823 -0.2927  0.6685
  371MOL0     C49993   3.069  11.380  10.994 -0.2107 -0.2221 -0.4663
  371MOL0     C49994   3.101  11.331  11.128 -0.5341  0.2170 -0.3176
  371MOL0    Cl49995   2.973  11.381  11.246 -0.4215 -0.2938  0.0662
  371MOL0     C49996   3.785  11.664  10.475  0.4833 -0.9392 -0.2228
  371MOL0     C49997   3.919  11.684  10.447 -0.3072  0.7329  0.7530
  371MOL0     O49998   4.098  11.861  10.260  0.0925 -0.0185  0.0372
  371MOL0     C49999   4.355  11.673  10.147  0.0958  1.1786  0.2302
  371MOL0     C50000   4.490  11.662  10.146  0.3745  0.1737  0.0210
  371MOL0     N50001   5.010  11.342  10.422  0.1286 -0.3024  0.5201
  371MOL0     N50002   5.050  11.219  10.421  1.0820 -0.0714  0.2820
  371MOL0     C50003   6.140  10.699  10.231 -0.0105  0.3070  0.4364
  371MOL0     C50004   6.280  10.700  10.239 -0.1075 -0.1570 -0.6537
  371MOL0     C50005   6.712  10.802  10.273  0.8834  0.2208 -0.2111
  371MOL0     C50006   6.793  10.872  10.358 -0.5474 -0.6351 -0.3425
  371MOL0     C50007   6.927  10.851  10.371 -0.9940  0.5922 -0.8242
  371MOL0     C50008   6.991  10.746  10.302 -1.0384 -0.1153 -0.2273
  371MOL0     O50009   7.118  10.710  10.323  0.2748  0.5304  0.0210
  371MOL0     C50010   7.213  10.813  10.308 -0.4729  0.1327 -0.3915
  371MOL0     C50011   7.346  10.750  10.260 -0.6007 -0.3439  0.1664
  371MOL0     C50012   7.403  10.677  10.384  0.1417 -0.3517 -0.4070
  371MOL0     C50013   7.545  10.623  10.358 -1.2237  0.6205 -0.1781
  371MOL0     C50014   7.655  10.719  10.383 -0.1335 -0.2656  0.0280
  371MOL0     C50015   7.728  10.819  10.396  0.5136  0.4600  0.1827
  371MOL0     C50016   6.906  10.670  10.215  0.5122 -0.5357 -0.1938
  371MOL0     C50017   6.764  10.694  10.207  0.7014  0.7831 -0.7546
  371MOL0     H50018   6.348  10.901   9.973  1.6649 -0.1952  1.3679
  371MOL0     H50019   6.102  10.877   9.941 -0.3496 -0.0133 -0.7744
  371MOL0     H50020   5.927  10.564  10.168  0.8398  0.8099 -3.6388
  371MOL0     H50021   5.855  10.683  10.282  3.2678  2.6681 -0.7131
  371MOL0     H50022   5.781  10.644   9.990  3.5802 -3.1310  1.4208
  371MOL0     H50023   5.687  10.554  10.095 -2.9494  1.8806 -0.2211
  371MOL0     H50024   5.693  10.866  10.148 -1.1938  0.4189  2.3603
  371MOL0     H50025   5.569  10.795  10.050 -2.6232 -0.7692  1.1078
  371MOL0     H50026   5.493  10.670  10.241 -1.2280  0.9483  2.0548
  371MOL0     H50027   5.637  10.691  10.328 -1.8366 -1.7872  1.1142
  371MOL0     H50028   5.465  10.815  10.421 -0.8353 -1.0033 -1.0853
  371MOL0     H50029   5.586  10.926  10.370  0.5320  0.3361  1.4890
  371MOL0     H50030   5.441  10.963  10.159  0.8877 -1.5478  0.3478
  371MOL0     H50031   5.331  10.844  10.226  0.9076  0.0730 -2.0443
  371MOL0     H50032   5.287  11.001  10.432  0.3696 -1.6883 -0.6944
  371MOL0     H50033   5.406  11.111  10.359  0.5052 -0.6051  4.1486
  371MOL0     H50034   5.121  11.011  10.265  0.1788 -0.1041 -1.0324
  371MOL0     H50035   5.226  11.099  10.156 -4.1797  0.8860 -0.8301
  371MOL0     H50036   5.287  11.351  10.247  0.9504 -1.1123  1.2495
  371MOL0     H50037   5.164  11.626  10.389 -2.5100  1.7286  1.3365
  371MOL0     H50038   5.133  11.598  10.222  1.8151  0.6025  1.3295
  371MOL0     H50039   4.901  11.572  10.429  0.4852  0.2223  1.0830
  371MOL0     H50040   4.902  11.554  10.257 -1.3631  1.7193  0.0262
  371MOL0     H50041   4.975  11.764  10.202 -0.3334 -0.7404  0.6326
  371MOL0     H50042   5.005  11.807  10.378  3.1018  0.2183 -2.2515
  371MOL0     H50043   4.801  11.907  10.288 -2.9566 -0.4813 -2.1629
  371MOL0     H50044   4.769  11.783  10.414 -0.4861 -2.9928 -0.7911
  371MOL0     H50045   4.571  11.883  10.386 -1.2926 -1.2668  1.6451
  371MOL0     H50046   4.237  11.977  10.431  0.0607  1.3005  2.5227
  371MOL0     H50047   4.265  11.828  10.528 -0.2647 -0.5523 -0.1515
  371MOL0     H50048   4.393  11.954  10.515 -0.1430 -2.4099  1.5844
  371MOL0     H50049   3.932  11.564  10.125  0.0963 -0.6407 -1.2274
  371MOL0     H50050   3.696  11.524  10.173 -0.7414 -2.2909  1.0990
  371MOL0     H50051   3.530  11.652  10.565 -1.0353  2.1937 -2.2738
  371MOL0     H50052   3.389  11.581  10.478 -0.7069  2.0407  3.3018
  371MOL0     H50053   3.501  11.359  10.509  2.0365  1.3078 -1.5267
  371MOL0     H50054   3.617  11.445  10.613  0.8411 -0.7054 -1.5268
  371MOL0     H50055   3.415  11.511  10.769 -0.2328 -3.3132  5.3002
  371MOL0     H50056   3.468  11.346  10.758  1.2950  0.8878  0.3818
  371MOL0     H50057   3.257  11.443  10.569  0.7088  2.7759  1.5373
  371MOL0     H50058   3.281  11.277  10.626 -0.2997  0.6444 -0.8109
  371MOL0     H50059   3.078  11.373  10.703 -0.3328  0.3089 -0.1389
  371MOL0     H50060   3.161  11.519  10.750 -0.1883  0.4989  0.0886
  371MOL0     H50061   3.237  11.276  10.919  2.1192  0.5931  3.5447
  371MOL0     H50062   3.273  11.450  10.941 -1.2117  1.2982  1.1428
  371MOL0     H50063   2.986  11.318  10.959  0.9174 -1.2291 -1.4832
  371MOL0     H50064   3.046  11.486  10.998  2.4599  0.4176  0.3622
  371MOL0     H50065   3.183  11.387  11.174 -0.8166 -0.3987  0.9917
  371MOL0     H50066   3.106  11.222  11.129  0.1801  0.2527  0.1499
  371MOL0     H50067   3.748  11.695  10.572  0.0596 -2.4074  0.1065
  371MOL0     H50068   3.968  11.745  10.522 -1.4411  1.4791  0.8955
  371MOL0     H50069   4.301  11.609  10.077  0.4256  1.3225 -0.1599
  371MOL0     H50070   4.528  11.587  10.077  0.7219 -2.3780  2.7967
  371MOL0     H50071   6.098  10.627  10.301 -0.4464 -0.0420 -0.1790
  371MOL0     H50072   6.328  10.639  10.315 -0.7213 -0.4614 -0.5020
  371MOL0     H50073   6.740  10.954  10.406 -2.8545 -2.1374 -0.1664
  371MOL0     H50074   6.984  10.902  10.447 -0.4370 -2.3239  0.9000
  371MOL0     H50075   7.173  10.890  10.242  1.0012  1.3755  0.1147
  371MOL0     H50076   7.230  10.859  10.406 -0.4796  0.0909 -0.3707
  371MOL0     H50077   7.414  10.833  10.239  1.5208 -0.8629  4.0293
  371MOL0     H50078   7.323  10.687  10.173  1.9728  0.8898 -1.5092
  371MOL0     H50079   7.340  10.591  10.409  0.7154 -0.4528  0.7493
  371MOL0     H50080   7.412  10.745  10.469 -3.0334  1.4690 -1.3810
  371MOL0     H50081   7.561  10.592  10.254  2.7323  1.9126 -0.1265
  371MOL0     H50082   7.568  10.546  10.433 -1.8998  3.8870  3.6870
  371MOL0     H50083   7.777  10.912  10.416 -0.0463  0.5027  1.4305
  371MOL0     H50084   6.950  10.588  10.159  2.1077 -1.7577  2.6516
  371MOL0     H50085   6.711  10.633  10.134 -1.6486  0.8468  0.8266
  372MOL0     O50086   3.432   5.977   9.961  0.1125  0.0133  0.1562
  372MOL0     C50087   3.492   5.983   9.850  0.6852  0.6146  0.7272
  372MOL0     O50088   3.432   5.996   9.728  0.4479  0.5389  0.2976
  372MOL0     C50089   3.295   6.006   9.728  0.2670  0.4386  0.2724
  372MOL0     C50090   3.229   6.128   9.712 -0.2400 -0.1654  0.6073
  372MOL0     C50091   3.094   6.134   9.717  0.9090  0.6839 -0.6045
  372MOL0     C50092   3.020   6.018   9.767 -0.4079 -0.2235  0.8776
  372MOL0     O50093   2.886   6.036   9.771 -0.1583  0.4973 -0.6606
  372MOL0     C50094   2.809   5.918   9.799 -0.3413 -0.1665 -0.0847
  372MOL0     C50095   2.662   5.928   9.762 -0.2898  0.2692  0.5554
  372MOL0     C50096   2.587   6.053   9.824  0.9743  1.3080 -0.6658
  372MOL0     C50097   2.578   6.033   9.978  0.3649  0.1861 -0.2217
  372MOL0     C50098   2.490   6.142  10.043  0.1958  0.5306  0.3042
  372MOL0     C50099   2.538   6.279  10.011  0.3184 -0.3786  0.0268
  372MOL0     C50100   2.683   6.322  10.053 -0.4849 -1.0150  0.2834
  372MOL0     C50101   2.697   6.303  10.206 -0.9090  0.4081  0.4831
  372MOL0     N50102   2.603   6.370  10.296  0.5894 -0.0526  0.6836
  372MOL0     C50103   2.604   6.510  10.305  0.7125  1.1059  0.2301
  372MOL0     C50104   2.471   6.540  10.346 -0.8025  0.5016 -0.2970
  372MOL0     C50105   2.395   6.669  10.360 -0.1587 -0.2811  0.0236
  372MOL0     C50106   2.430   6.745  10.486 -0.2769  1.0109 -0.5997
  372MOL0     C50107   2.413   6.669  10.619  0.4012 -0.2119 -0.4165
  372MOL0     C50108   2.265   6.630  10.641  0.5415 -0.0529  0.4478
  372MOL0     O50109   2.180   6.748  10.633 -0.6466  0.2095 -0.2499
  372MOL0     C50110   2.045   6.723  10.645  0.6112  0.8295  0.2488
  372MOL0     C50111   1.954   6.815  10.592 -0.5541  0.5704 -0.6944
  372MOL0     C50112   1.817   6.815  10.604 -0.1431 -0.4134 -0.4043
  372MOL0     C50113   1.755   6.937  10.539  0.0013 -0.4485 -0.7979
  372MOL0     C50114   1.753   6.703  10.671  0.3545  0.5669  0.2003
  372MOL0     C50115   1.607   6.689  10.672  0.2440  0.4058  0.6164
  372MOL0     O50116   1.539   6.806  10.660  0.1314 -0.2979 -0.1012
  372MOL0     C50117   1.406   6.816  10.626  0.5281  0.4667 -0.1141
  372MOL0     C50118   1.323   6.719  10.562 -0.6166 -0.2564  0.8625
  372MOL0     C50119   1.193   6.740  10.515 -0.8049 -0.0570 -0.4512
  372MOL0     C50120   1.143   6.874  10.522 -0.6266  0.2763 -0.0035
  372MOL0     O50121   1.021   6.910  10.483  0.1463  0.2787 -0.0850
  372MOL0     C50122   0.915   6.882  10.577 -0.3043  0.3602 -0.5712
  372MOL0     C50123   0.780   6.898  10.514  0.3015 -0.8825  0.2586
  372MOL0     C50124   0.658   6.837  10.577 -0.4021 -0.8128 -0.7531
  372MOL0     C50125   0.528   6.870  10.490  0.0029  0.1786 -0.2554
  372MOL0     C50126   0.404   6.804  10.545  0.1790 -0.2987  0.4470
  372MOL0     C50127   0.413   6.653  10.554 -0.2804  0.5555  1.0181
  372MOL0     C50128   0.268   6.587  10.543  0.5471 -1.2594 -0.4595
  372MOL0     C50129   0.166   6.638  10.643  0.4689 -0.3365 -0.0483
  372MOL0    Cl50130   0.009   6.541  10.636 -0.9328  0.3784 -0.0726
  372MOL0     C50131   1.228   6.974  10.574 -0.4706  0.7716  0.1624
  372MOL0     C50132   1.354   6.943  10.632 -0.4114  0.3230 -0.3501
  372MOL0     O50133   1.555   6.582  10.695  0.6063  0.0367 -0.1261
  372MOL0     C50134   1.843   6.608  10.730 -0.3503  0.3873  0.5076
  372MOL0     C50135   1.982   6.617  10.716  0.3136 -0.2281  0.2822
  372MOL0     N50136   2.413   6.421  10.372  0.2260 -0.5849  0.0868
  372MOL0     N50137   2.476   6.323  10.326 -0.4359  0.4384  0.1082
  372MOL0     C50138   3.090   5.892   9.769  0.2446  0.4293  0.5228
  372MOL0     C50139   3.228   5.892   9.751  0.0186 -0.1755 -0.1306
  372MOL0     C50140   3.637   5.974   9.846 -0.1667 -0.7157  0.1494
  372MOL0     C50141   3.695   5.972   9.723 -0.3674 -0.5668 -0.8165
  372MOL0     C50142   3.837   5.955   9.707  0.3051  0.5716  0.3777
  372MOL0     C50143   3.913   5.936   9.817 -0.1905  0.3204  0.1962
  372MOL0     O50144   4.044   5.896   9.796 -0.5397 -0.8248 -0.0788
  372MOL0     C50145   4.146   5.877   9.901  1.3636  0.3485 -0.4114
  372MOL0     C50146   4.170   5.733   9.912 -0.6573  0.8044 -0.8633
  372MOL0     C50147   4.233   5.666   9.793 -0.6642 -0.4640  0.0409
  372MOL0     C50148   4.302   5.537   9.830 -0.7134 -0.3949  0.5009
  372MOL0     C50149   4.428   5.558   9.898 -0.1080  0.0457 -0.1186
  372MOL0     C50150   4.534   5.594   9.943  0.0137  0.9086  0.4496
  372MOL0     C50151   3.852   5.934   9.941  0.7275 -0.4910  0.0542
  372MOL0     C50152   3.713   5.952   9.956  0.1197  0.1577 -0.2038
  372MOL0     H50153   3.278   6.219   9.679 -0.1509 -1.3012 -2.6876
  372MOL0     H50154   3.042   6.229   9.724 -0.7054 -0.2630  1.0574
  372MOL0     H50155   2.847   5.828   9.751  2.4577  0.3047  1.0981
  372MOL0     H50156   2.816   5.903   9.907  0.4403 -1.5815 -0.3153
  372MOL0     H50157   2.659   5.947   9.654  1.2928  4.2745  1.0547
  372MOL0     H50158   2.615   5.831   9.781  0.5930 -0.3847 -0.4457
  372MOL0     H50159   2.645   6.143   9.803 -0.0357  2.9566  2.9526
  372MOL0     H50160   2.485   6.049   9.783 -0.6698  1.6640  2.9909
  372MOL0     H50161   2.532   5.933   9.975  2.2891 -0.8081  1.2317
  372MOL0     H50162   2.678   6.039  10.020 -0.0382  2.1804  0.5479
  372MOL0     H50163   2.390   6.127  10.002 -0.3945 -1.3279  2.2077
  372MOL0     H50164   2.477   6.132  10.151  1.5306  0.3049  0.4595
  372MOL0     H50165   2.531   6.287   9.902 -0.1573 -2.4800 -0.1440
  372MOL0     H50166   2.471   6.354  10.054  0.8225  0.0710  0.0319
  372MOL0     H50167   2.759   6.253  10.014  0.7793  0.9165 -0.8191
  372MOL0     H50168   2.703   6.424  10.018 -1.5799 -0.5756  0.8805
  372MOL0     H50169   2.800   6.330  10.230 -0.9700  1.3865 -0.2816
  372MOL0     H50170   2.702   6.196  10.228  0.0937  0.3712  0.1271
  372MOL0     H50171   2.672   6.591  10.282 -0.1690  1.4807 -1.1748
  372MOL0     H50172   2.418   6.735  10.276 -3.1153  1.4341  0.4154
  372MOL0     H50173   2.287   6.651  10.352 -0.0714 -0.9383  0.2399
  372MOL0     H50174   2.373   6.838  10.492 -2.5899  0.0425 -4.3822
  372MOL0     H50175   2.536   6.772  10.485  0.4627 -1.5945 -0.1066
  372MOL0     H50176   2.448   6.734  10.701 -0.8070  1.6873 -1.3349
  372MOL0     H50177   2.474   6.578  10.619 -2.8048 -2.5384 -1.6837
  372MOL0     H50178   2.261   6.571  10.734  0.7401  0.9500  1.1079
  372MOL0     H50179   2.233   6.561  10.562  0.0059  1.3917 -0.6361
  372MOL0     H50180   2.005   6.890  10.532 -0.5767  0.6592 -0.6033
  372MOL0     H50181   1.727   7.012  10.614  0.5328  2.9507 -3.6843
  372MOL0     H50182   1.819   6.997  10.474 -0.5099  2.4183  1.1385
  372MOL0     H50183   1.663   6.900  10.492 -0.0874 -1.8242  0.3997
  372MOL0     H50184   1.383   6.633  10.533  0.5181 -0.1567  2.7012
  372MOL0     H50185   1.134   6.664  10.465  0.7435 -2.9804  1.8984
  372MOL0     H50186   0.920   6.778  10.612 -0.7632  0.5922  0.2073
  372MOL0     H50187   0.922   6.947  10.664 -3.7397  0.2757 -0.0934
  372MOL0     H50188   0.761   7.005  10.500  0.0229 -1.0168 -0.4259
  372MOL0     H50189   0.780   6.854  10.414 -0.5245 -2.6207  0.9807
  372MOL0     H50190   0.643   6.880  10.677 -2.3294 -1.9183 -0.5004
  372MOL0     H50191   0.671   6.730  10.597 -0.7934 -0.7572 -0.1540
  372MOL0     H50192   0.506   6.974  10.467 -1.6271 -0.4301 -1.7224
  372MOL0     H50193   0.551   6.821  10.395  1.4913  1.8864 -0.8181
  372MOL0     H50194   0.329   6.828  10.469  2.8163  0.2439 -2.1709
  372MOL0     H50195   0.382   6.851  10.641 -1.4978  0.7391 -0.3975
  372MOL0     H50196   0.473   6.607  10.475 -1.8967 -1.7111  0.9912
  372MOL0     H50197   0.457   6.617  10.647 -0.4898 -1.5008  0.3681
  372MOL0     H50198   0.261   6.478  10.550 -1.0040 -1.1444 -0.0267
  372MOL0     H50199   0.242   6.617  10.441 -0.3455  1.5260  0.4981
  372MOL0     H50200   0.148   6.744  10.624  1.7834  0.0149  0.5577
  372MOL0     H50201   0.206   6.641  10.744  1.6653  3.6588 -0.4680
  372MOL0     H50202   1.187   7.074  10.574  1.6121  1.8156 -3.1298
  372MOL0     H50203   1.415   7.029  10.656  0.4162  0.0338 -1.3591
  372MOL0     H50204   1.806   6.536  10.801 -0.1812  2.8650  3.3413
  372MOL0     H50205   2.040   6.541  10.765 -3.5186 -2.1896  2.2357
  372MOL0     H50206   3.036   5.800   9.785 -1.2652  1.1968  0.0093
  372MOL0     H50207   3.283   5.800   9.771  1.5575  0.2162 -2.2861
  372MOL0     H50208   3.641   5.988   9.631 -1.3721 -4.2260 -0.9826
  372MOL0     H50209   3.890   5.953   9.613 -1.1143 -1.3223 -0.4517
  372MOL0     H50210   4.242   5.926   9.881  1.2987  0.3868 -0.6308
  372MOL0     H50211   4.107   5.915   9.995 -0.1606 -4.0285  0.9788
  372MOL0     H50212   4.078   5.677   9.931  1.0804 -1.8992  0.2049
  372MOL0     H50213   4.229   5.714  10.002 -2.0723  2.0493  0.3729
  372MOL0     H50214   4.299   5.732   9.735 -1.2145 -2.3298 -2.9159
  372MOL0     H50215   4.154   5.635   9.724 -0.7246  0.4478 -0.3175
  372MOL0     H50216   4.334   5.488   9.737  0.3971  1.0006  0.1122
  372MOL0     H50217   4.236   5.473   9.889  0.9010 -0.3721  2.4480
  372MOL0     H50218   4.628   5.622   9.985  0.4323 -1.0705  0.9609
  372MOL0     H50219   3.910   5.896  10.025 -1.0007 -1.7604  0.7377
  372MOL0     H50220   3.654   5.940  10.046 -0.8761  0.5737 -0.7829
  373MOL0     O50221   7.954   5.743   2.543 -0.5841  0.3005  0.8648
  373MOL0     C50222   7.924   5.858   2.497  0.3007  0.0476  0.4908
  373MOL0     O50223   7.797   5.909   2.468  0.1402 -0.3333  0.1314
  373MOL0     C50224   7.690   5.828   2.470  0.1117 -0.6173 -0.1057
  373MOL0     C50225   7.592   5.850   2.372  0.3755  0.7305 -0.5752
  373MOL0     C50226   7.479   5.764   2.362  0.2771 -0.6787 -0.0034
  373MOL0     C50227   7.454   5.667   2.459 -0.4569  0.4268  0.0883
  373MOL0     O50228   7.334   5.596   2.467  0.3058 -0.1003  0.5646
  373MOL0     C50229   7.224   5.622   2.366 -0.3800 -0.2262  0.2306
  373MOL0     C50230   7.120   5.514   2.399  0.3783  0.2742 -0.2387
  373MOL0     C50231   7.002   5.525   2.304  0.5926  0.2127 -0.0149
  373MOL0     C50232   6.933   5.665   2.313 -0.3410 -0.6244 -0.0704
  373MOL0     C50233   6.789   5.662   2.256  0.4061  0.1441 -0.2423
  373MOL0     C50234   6.783   5.614   2.108 -0.1031  0.4629 -0.5019
  373MOL0     C50235   6.641   5.644   2.045  0.5646 -0.4119  0.3280
  373MOL0     C50236   6.517   5.574   2.112  0.0210  0.0722  0.4260
  373MOL0     N50237   6.387   5.591   2.043 -0.2209 -0.0017  0.2466
  373MOL0     C50238   6.339   5.515   1.941  0.1517  0.0404 -0.5794
  373MOL0     C50239   6.234   5.573   1.889  1.0018  1.0029 -0.5279
  373MOL0     C50240   6.142   5.524   1.776  0.2741  0.3643  0.6813
  373MOL0     C50241   5.993   5.521   1.804 -0.2123 -0.2577  0.5256
  373MOL0     C50242   5.969   5.407   1.902  0.2045  0.1386  0.3998
  373MOL0     C50243   5.823   5.376   1.936 -0.0364 -0.9861 -0.4275
  373MOL0     O50244   5.742   5.336   1.830 -0.6851 -0.1851 -0.5002
  373MOL0     C50245   5.613   5.317   1.864 -0.3338  0.0494 -0.0128
  373MOL0     C50246   5.556   5.306   1.993  0.0159  0.2097  0.6305
  373MOL0     C50247   5.415   5.291   2.020 -0.8173  0.4712 -0.0273
  373MOL0     C50248   5.372   5.256   2.166  0.2188  0.0118 -0.3514
  373MOL0     C50249   5.327   5.318   1.915 -0.8760  0.2285 -0.4261
  373MOL0     C50250   5.177   5.317   1.925  0.1486  0.8966  0.9020
  373MOL0     O50251   5.109   5.311   1.798 -0.0359  0.4416 -0.9073
  373MOL0     C50252   4.971   5.326   1.786  0.7651  0.1083 -0.1969
  373MOL0     C50253   4.920   5.267   1.667 -0.4698  0.0913  1.4772
  373MOL0     C50254   4.782   5.276   1.643  0.2894  0.5099 -0.4914
  373MOL0     C50255   4.688   5.336   1.734  0.0484  0.5305 -0.2938
  373MOL0     O50256   4.556   5.314   1.698  0.3122 -0.2012 -0.5908
  373MOL0     C50257   4.473   5.428   1.721 -0.0720  0.2555 -0.0683
  373MOL0     C50258   4.339   5.410   1.646 -0.7643  0.0848  0.0773
  373MOL0     C50259   4.256   5.549   1.650  0.1770  0.7177 -0.2471
  373MOL0     C50260   4.119   5.519   1.593 -0.6205  0.5519 -0.5183
  373MOL0     C50261   4.024   5.646   1.583  0.0907 -0.4911 -0.0516
  373MOL0     C50262   3.883   5.613   1.516 -0.6618 -0.6368  0.5488
  373MOL0     C50263   3.805   5.501   1.590 -0.0305 -0.1503  0.5651
  373MOL0     C50264   3.655   5.533   1.598  0.0360 -0.7277 -0.1431
  373MOL0    Cl50265   3.565   5.428   1.710 -0.0579 -0.0064 -0.1337
  373MOL0     C50266   4.736   5.390   1.848 -0.7742  0.4222  0.4108
  373MOL0     C50267   4.876   5.382   1.876 -0.0464 -0.8624 -0.2849
  373MOL0     O50268   5.118   5.308   2.033  0.1660  0.0839 -0.5881
  373MOL0     C50269   5.381   5.324   1.782 -0.4657 -0.1301 -0.0899
  373MOL0     C50270   5.514   5.320   1.762 -0.0315 -0.7569  0.4737
  373MOL0     N50271   6.215   5.690   1.963 -0.3200  0.4354 -0.4302
  373MOL0     N50272   6.305   5.695   2.052  0.7278  0.4371 -0.0745
  373MOL0     C50273   7.548   5.644   2.560  0.0014 -1.0666  0.2683
  373MOL0     C50274   7.665   5.727   2.570  0.3235 -0.1603  0.1922
  373MOL0     C50275   8.040   5.948   2.476 -0.4217 -0.3487  0.1323
  373MOL0     C50276   8.172   5.903   2.493  0.8469  0.1550 -0.1802
  373MOL0     C50277   8.278   5.985   2.455 -0.6661 -0.1641 -0.2957
  373MOL0     C50278   8.252   6.110   2.402  0.0275  0.2773  0.6902
  373MOL0     O50279   8.360   6.177   2.344  0.2736  0.0005  0.1222
  373MOL0     C50280   8.359   6.318   2.328  0.3986 -0.3804 -0.5009
  373MOL0     C50281   8.481   6.352   2.235 -0.3666 -0.3087 -0.5865
  373MOL0     C50282   8.466   6.321   2.087  0.0508  0.6740 -0.8066
  373MOL0     C50283   8.600   6.333   2.004 -1.1916 -0.0499 -0.0709
  373MOL0     C50284   8.650   6.474   1.997 -0.0694  0.9337 -0.5313
  373MOL0     C50285   8.660   6.593   1.990 -0.2359 -0.1649 -0.8671
  373MOL0     C50286   8.124   6.161   2.409 -0.1138 -0.2188  0.1635
  373MOL0     C50287   8.021   6.076   2.446 -0.3059  0.0551  0.1190
  373MOL0     H50288   7.610   5.931   2.301  2.7964  1.9287  1.2688
  373MOL0     H50289   7.392   5.786   2.301 -1.3061 -0.1244  2.3162
  373MOL0     H50290   7.194   5.726   2.381  1.5293  0.1926  1.5185
  373MOL0     H50291   7.249   5.623   2.259 -2.4047 -0.0378 -0.2851
  373MOL0     H50292   7.168   5.418   2.383  4.6668  2.4046 -1.5840
  373MOL0     H50293   7.085   5.527   2.502  0.7137  1.1174 -0.2245
  373MOL0     H50294   7.029   5.502   2.200 -0.8080  0.7608 -0.5360
  373MOL0     H50295   6.924   5.450   2.319 -1.0017  1.3833 -1.8420
  373MOL0     H50296   6.934   5.704   2.415 -1.7902 -1.1856  0.1857
  373MOL0     H50297   6.982   5.737   2.247 -1.7755  0.3364 -0.1289
  373MOL0     H50298   6.726   5.601   2.323  2.0824 -0.1086  1.1668
  373MOL0     H50299   6.757   5.767   2.255  1.7363  0.6237  1.8382
  373MOL0     H50300   6.868   5.660   2.056 -0.2807  1.4376  0.0304
  373MOL0     H50301   6.796   5.506   2.101 -3.0495 -0.0005 -0.1525
  373MOL0     H50302   6.626   5.752   2.049 -2.4969 -0.6596 -1.5160
  373MOL0     H50303   6.650   5.620   1.938  0.2218 -1.1062  0.4524
  373MOL0     H50304   6.510   5.616   2.213  2.0053  2.8762 -0.4817
  373MOL0     H50305   6.539   5.468   2.125 -0.0507  0.0268  0.1792
  373MOL0     H50306   6.391   5.426   1.907 -2.4127 -1.4423 -0.8470
  373MOL0     H50307   6.149   5.596   1.694 -1.6593 -0.2677 -0.0926
  373MOL0     H50308   6.166   5.428   1.731  0.2288  1.7758 -2.6718
  373MOL0     H50309   5.933   5.495   1.717 -0.9216 -1.2432  1.2820
  373MOL0     H50310   5.958   5.617   1.841  0.6605  1.2338 -2.3006
  373MOL0     H50311   6.023   5.433   1.993  1.1959  0.8434 -0.3576
  373MOL0     H50312   6.011   5.311   1.871  0.5819  1.1517 -2.5634
  373MOL0     H50313   5.788   5.472   1.975  0.4547 -0.3017 -1.5978
  373MOL0     H50314   5.834   5.305   2.019  1.4601 -1.7295 -1.2320
  373MOL0     H50315   5.613   5.299   2.085  1.6391  1.7888 -0.1961
  373MOL0     H50316   5.319   5.334   2.221  2.8295  1.4642  0.2782
  373MOL0     H50317   5.312   5.165   2.160 -2.6175  1.8586 -3.3548
  373MOL0     H50318   5.464   5.228   2.220 -1.1607 -0.2688  1.9728
  373MOL0     H50319   4.974   5.222   1.585 -2.0721  1.4646 -0.4345
  373MOL0     H50320   4.742   5.229   1.553 -0.4583 -1.1880  0.6655
  373MOL0     H50321   4.444   5.431   1.827 -1.9728 -1.3098 -0.4947
  373MOL0     H50322   4.511   5.522   1.680 -2.1454  1.1853  0.0168
  373MOL0     H50323   4.359   5.370   1.547 -2.4680 -0.2324 -0.1730
  373MOL0     H50324   4.280   5.338   1.704  1.3026  0.7770  3.2547
  373MOL0     H50325   4.309   5.633   1.604  0.8100  1.0076  0.9743
  373MOL0     H50326   4.236   5.576   1.754  1.6458 -0.1418  0.2961
  373MOL0     H50327   4.136   5.479   1.492 -1.5038  0.5475 -0.6788
  373MOL0     H50328   4.082   5.434   1.650 -0.8554 -0.9916 -2.8136
  373MOL0     H50329   4.077   5.721   1.523 -1.3775  1.0090  0.4392
  373MOL0     H50330   4.010   5.686   1.683  2.3089  0.2835  0.0108
  373MOL0     H50331   3.825   5.705   1.506 -2.0429 -1.6875 -2.1712
  373MOL0     H50332   3.905   5.572   1.417 -2.3061  3.1223 -1.5875
  373MOL0     H50333   3.844   5.491   1.692  2.4354  1.1639 -0.1697
  373MOL0     H50334   3.820   5.411   1.531  0.1352  0.8612 -0.9999
  373MOL0     H50335   3.622   5.527   1.494  2.6692 -1.8658 -0.9925
  373MOL0     H50336   3.649   5.637   1.631 -0.9934  0.3045 -3.2105
  373MOL0     H50337   4.658   5.440   1.905 -1.3966  0.4833 -0.4785
  373MOL0     H50338   4.910   5.423   1.970  0.3282 -0.9835 -0.3682
  373MOL0     H50339   5.313   5.336   1.698 -0.0669  2.4834 -0.1218
  373MOL0     H50340   5.541   5.321   1.657 -1.0201  0.4907  0.2116
  373MOL0     H50341   7.522   5.575   2.639 -0.5976 -1.6570 -0.4345
  373MOL0     H50342   7.742   5.702   2.642 -0.2371 -3.5757 -0.2547
  373MOL0     H50343   8.194   5.805   2.535  1.5825  0.1137 -0.6417
  373MOL0     H50344   8.385   5.970   2.460 -0.9388 -2.4637 -0.4021
  373MOL0     H50345   8.270   6.342   2.269  1.1747 -2.0647 -2.4811
  373MOL0     H50346   8.362   6.370   2.424  2.6260  1.1330 -1.3006
  373MOL0     H50347   8.570   6.311   2.284 -0.2480 -0.6265 -1.0646
  373MOL0     H50348   8.488   6.461   2.242  3.2612 -0.4051 -0.7121
  373MOL0     H50349   8.382   6.370   2.036  0.0950  1.6834  0.0608
  373MOL0     H50350   8.437   6.216   2.087 -0.9593  0.8589 -3.7652
  373MOL0     H50351   8.602   6.282   1.907 -0.8781 -2.6538  1.1931
  373MOL0     H50352   8.676   6.277   2.061 -1.8711  1.5176  2.5260
  373MOL0     H50353   8.665   6.700   1.994  0.7376 -0.2345  2.2937
  373MOL0     H50354   8.098   6.259   2.371  0.5890 -0.1645 -0.2031
  373MOL0     H50355   7.920   6.116   2.446 -1.1302 -1.8831 -0.0983
  374MOL0     O50356   5.921   1.118   9.529  0.5072  0.5756 -0.1697
  374MOL0     C50357   5.933   1.162   9.644  0.5873 -0.4542  0.0567
  374MOL0     O50358   5.827   1.221   9.717 -0.4144 -0.3394  0.5342
  374MOL0     C50359   5.710   1.231   9.654  0.1374 -0.2925  1.0224
  374MOL0     C50360   5.618   1.133   9.677  0.1166  0.6397 -0.0075
  374MOL0     C50361   5.487   1.134   9.619  0.2607 -0.0232 -1.0148
  374MOL0     C50362   5.441   1.236   9.542 -0.2079  0.2632 -0.0987
  374MOL0     O50363   5.313   1.228   9.498  0.6563 -0.6532  0.2743
  374MOL0     C50364   5.272   1.340   9.415  0.4986 -0.3359 -0.0037
  374MOL0     C50365   5.134   1.310   9.358 -0.3229 -0.2550  0.3244
  374MOL0     C50366   5.008   1.344   9.441  0.0270 -0.2493 -0.0965
  374MOL0     C50367   4.876   1.293   9.373 -0.0284 -0.0650  0.5274
  374MOL0     C50368   4.748   1.308   9.457  0.1884 -0.5789 -0.6510
  374MOL0     C50369   4.691   1.448   9.479  0.0048  0.0453  0.1706
  374MOL0     C50370   4.564   1.453   9.565  0.0136 -0.6537 -0.7112
  374MOL0     C50371   4.435   1.384   9.505 -0.1938  0.2374 -0.3036
  374MOL0     N50372   4.312   1.419   9.589 -0.2218 -0.4365  1.0303
  374MOL0     C50373   4.305   1.459   9.720 -0.8908  0.4517  0.8034
  374MOL0     C50374   4.176   1.446   9.750  0.6735 -0.1107  0.0718
  374MOL0     C50375   4.116   1.469   9.884  0.1193  0.3988  0.0358
  374MOL0     C50376   4.026   1.598   9.901 -0.4867 -0.1456 -0.5597
  374MOL0     C50377   3.878   1.558   9.902 -0.0077 -1.0522 -0.2093
  374MOL0     C50378   3.791   1.688   9.880  0.5480 -0.3850 -0.8339
  374MOL0     O50379   3.663   1.643   9.928 -0.0310 -0.4494 -0.2709
  374MOL0     C50380   3.551   1.716   9.905  0.3274 -0.6584 -0.3887
  374MOL0     C50381   3.542   1.814   9.815  0.2013  0.4303 -0.0384
  374MOL0     C50382   3.429   1.902   9.802  0.4439 -0.7965 -0.2898
  374MOL0     C50383   3.452   2.026   9.716 -0.7277 -0.3463  0.2022
  374MOL0     C50384   3.324   1.883   9.888 -0.1379 -0.0666  0.0860
  374MOL0     C50385   3.209   1.980   9.896  0.0939 -0.1336  0.3567
  374MOL0     O50386   3.172   2.017  10.017 -0.5281 -0.0254 -0.4271
  374MOL0     C50387   3.038   2.023  10.037 -0.0120 -0.3026 -0.8853
  374MOL0     C50388   3.002   2.127  10.126  0.1239 -0.1101  0.5266
  374MOL0     C50389   2.865   2.140  10.153  1.1244  0.4106 -1.3721
  374MOL0     C50390   2.760   2.057  10.096  0.1522 -0.3759  0.0731
  374MOL0     O50391   2.630   2.068  10.130  0.2414 -0.3402 -0.3643
  374MOL0     C50392   2.569   1.961  10.201  0.5680  0.8280  0.8513
  374MOL0     C50393   2.612   1.951  10.351 -1.0554 -0.0482 -1.8632
  374MOL0     C50394   2.572   2.078  10.426 -0.0361 -0.6577 -0.0901
  374MOL0     C50395   2.422   2.096  10.436 -0.0546 -0.5263 -0.8917
  374MOL0     C50396   2.375   2.195  10.549 -0.5042  0.0731 -0.2232
  374MOL0     C50397   2.221   2.208  10.540  0.0360 -1.3320 -0.0412
  374MOL0     C50398   2.134   2.083  10.587 -0.2281  0.5694 -0.1937
  374MOL0     C50399   1.982   2.105  10.595  0.0151 -0.3556 -1.0589
  374MOL0    Cl50400   1.923   2.221  10.476 -0.0093 -0.3982  0.3482
  374MOL0     C50401   2.807   1.960  10.004  0.6749  0.0159  0.2923
  374MOL0     C50402   2.938   1.952   9.969 -0.6712 -0.2245 -0.9759
  374MOL0     O50403   3.162   2.014   9.791  0.0557 -0.7994  0.0517
  374MOL0     C50404   3.329   1.778   9.974  0.3482  1.3819 -1.1144
  374MOL0     C50405   3.438   1.694   9.984  0.5134  0.6623  0.4961
  374MOL0     N50406   4.101   1.412   9.634 -0.5449 -0.3601 -1.2196
  374MOL0     N50407   4.185   1.392   9.540 -0.0461  0.0772  0.3842
  374MOL0     C50408   5.530   1.347   9.522 -0.7931  0.4841 -0.1532
  374MOL0     C50409   5.662   1.339   9.580  0.4479  1.3977  0.1951
  374MOL0     C50410   6.068   1.170   9.699 -0.0781 -0.5089  0.4947
  374MOL0     C50411   6.173   1.085   9.653 -0.1771  0.2087 -0.0435
  374MOL0     C50412   6.305   1.106   9.696 -0.7454 -0.3613 -0.6655
  374MOL0     C50413   6.332   1.204   9.797  0.1053 -0.0592 -0.7433
  374MOL0     O50414   6.463   1.223   9.842  0.2237  0.2135 -0.0891
  374MOL0     C50415   6.484   1.332   9.932 -0.7132 -0.2315 -0.1032
  374MOL0     C50416   6.633   1.338   9.971 -0.4431  0.6049  0.7906
  374MOL0     C50417   6.685   1.224  10.062  0.1293 -0.3235 -0.3763
  374MOL0     C50418   6.817   1.252  10.120 -0.3311  0.0408 -0.1662
  374MOL0     C50419   6.937   1.196  10.052  0.0150 -1.0375 -0.0285
  374MOL0     C50420   7.039   1.170  10.003 -1.0808 -0.0694  0.7012
  374MOL0     C50421   6.223   1.287   9.851 -0.2381 -0.7287 -0.1724
  374MOL0     C50422   6.096   1.268   9.797  0.1012  0.0434  1.1574
  374MOL0     H50423   5.645   1.052   9.744  1.5475 -1.3870 -2.8379
  374MOL0     H50424   5.417   1.053   9.640  0.5800 -0.0828 -0.1403
  374MOL0     H50425   5.278   1.437   9.466 -2.1900 -0.1143 -0.0023
  374MOL0     H50426   5.342   1.338   9.330  0.0597 -0.5607 -0.3623
  374MOL0     H50427   5.141   1.360   9.261 -0.8424 -0.9396 -0.0772
  374MOL0     H50428   5.129   1.202   9.338 -0.0672 -0.3374  0.6736
  374MOL0     H50429   5.015   1.301   9.541  0.3736 -0.7840 -0.3502
  374MOL0     H50430   4.994   1.453   9.447  0.2158 -0.2168 -0.2463
  374MOL0     H50431   4.862   1.336   9.273 -2.9400 -2.9345 -0.4875
  374MOL0     H50432   4.896   1.185   9.363  1.3840  0.2695 -0.5911
  374MOL0     H50433   4.677   1.246   9.401  2.0502 -1.5176 -2.1058
  374MOL0     H50434   4.760   1.245   9.546 -1.2243 -0.7425 -0.5519
  374MOL0     H50435   4.770   1.515   9.515  1.3617 -1.2889 -0.1985
  374MOL0     H50436   4.660   1.496   9.386  0.1918 -0.4410 -0.1477
  374MOL0     H50437   4.586   1.405   9.661 -1.7410 -1.3595 -0.6156
  374MOL0     H50438   4.545   1.558   9.585  1.5896 -0.7877  1.9671
  374MOL0     H50439   4.441   1.276   9.516 -0.2377  0.4090  1.6680
  374MOL0     H50440   4.412   1.401   9.399  3.4305  0.3376 -1.2067
  374MOL0     H50441   4.395   1.471   9.779 -0.7389  3.7073  0.1406
  374MOL0     H50442   4.061   1.381   9.918  0.1475  0.3280 -0.0999
  374MOL0     H50443   4.190   1.475   9.965 -1.3833 -0.0953  1.4933
  374MOL0     H50444   4.051   1.679   9.832 -1.1748  1.1199  0.6409
  374MOL0     H50445   4.057   1.642   9.996 -3.6219  0.6593  0.1953
  374MOL0     H50446   3.858   1.526  10.004  2.8128 -0.0976  0.7320
  374MOL0     H50447   3.861   1.481   9.826  1.4522 -0.8168 -0.7981
  374MOL0     H50448   3.785   1.723   9.776 -1.3808 -0.4529 -0.7799
  374MOL0     H50449   3.827   1.778   9.929  3.3846 -1.7176 -0.2826
  374MOL0     H50450   3.626   1.851   9.756 -1.4078  1.3939 -1.8024
  374MOL0     H50451   3.479   2.003   9.613 -1.7924  2.1401 -0.6966
  374MOL0     H50452   3.365   2.092   9.709 -0.7468 -0.4287 -0.3719
  374MOL0     H50453   3.534   2.076   9.770  0.2137 -0.2365 -1.2706
  374MOL0     H50454   3.080   2.192  10.165 -0.2040  1.8356 -1.8467
  374MOL0     H50455   2.835   2.215  10.225  0.3295 -2.4061  1.4118
  374MOL0     H50456   2.461   1.975  10.197  0.1026 -2.4272 -1.3182
  374MOL0     H50457   2.590   1.866  10.150  2.2644  1.4564  0.3039
  374MOL0     H50458   2.566   1.861  10.393  2.3877 -1.1276 -0.0700
  374MOL0     H50459   2.718   1.936  10.371 -1.3503 -1.5543 -1.2780
  374MOL0     H50460   2.621   2.163  10.377  1.2560 -0.1840  1.9126
  374MOL0     H50461   2.624   2.061  10.521 -0.5466 -0.3782  0.2464
  374MOL0     H50462   2.397   2.133  10.337 -0.0024  0.3468 -0.5890
  374MOL0     H50463   2.375   1.997  10.442  0.2664 -0.6486 -0.2586
  374MOL0     H50464   2.426   2.285  10.514  0.7134 -1.3386 -2.3027
  374MOL0     H50465   2.428   2.173  10.642  2.9952 -2.4645 -2.5395
  374MOL0     H50466   2.198   2.301  10.593 -0.9849 -0.0062 -2.6574
  374MOL0     H50467   2.178   2.227  10.441 -1.9832  0.2506  1.0470
  374MOL0     H50468   2.162   2.045  10.686 -3.3310 -1.2328  0.1269
  374MOL0     H50469   2.150   1.997  10.521  1.8722  0.5236  0.3088
  374MOL0     H50470   1.967   2.136  10.699 -0.2416 -1.4353 -0.7561
  374MOL0     H50471   1.928   2.010  10.598 -0.3465 -0.1650 -1.5325
  374MOL0     H50472   2.730   1.898   9.960 -1.7978  3.2344 -0.2166
  374MOL0     H50473   2.960   1.877   9.894  1.7471  0.7601 -1.3629
  374MOL0     H50474   3.243   1.780  10.040  0.7696  0.1669 -0.4797
  374MOL0     H50475   3.452   1.614  10.055 -0.4623 -1.0850 -1.1715
  374MOL0     H50476   5.502   1.439   9.471 -0.0015  1.4929  1.1435
  374MOL0     H50477   5.741   1.410   9.557  1.0645  0.9906  0.9905
  374MOL0     H50478   6.141   1.007   9.585 -0.6578 -0.6727  1.1524
  374MOL0     H50479   6.377   1.043   9.644 -0.1420  0.3714 -0.7377
  374MOL0     H50480   6.464   1.429   9.886 -3.0699 -1.1838 -1.2851
  374MOL0     H50481   6.429   1.318  10.026  1.6971 -2.2771  1.1347
  374MOL0     H50482   6.640   1.430  10.029 -1.7278 -0.4919  2.8110
  374MOL0     H50483   6.699   1.345   9.884 -1.3028  0.1824  0.0878
  374MOL0     H50484   6.693   1.128  10.010  3.3738 -2.1665  3.0619
  374MOL0     H50485   6.618   1.207  10.147 -1.4444  1.7500 -1.0881
  374MOL0     H50486   6.816   1.210  10.221 -2.8059  0.1958 -0.0588
  374MOL0     H50487   6.826   1.358  10.142  0.0078 -0.4356  2.2133
  374MOL0     H50488   7.135   1.133   9.976 -1.9574 -1.2056 -1.0718
  374MOL0     H50489   6.244   1.358   9.930  0.9610 -1.1739 -0.0666
  374MOL0     H50490   6.017   1.340   9.815 -0.8867 -0.1736 -1.8068
  375MOL0     O50491   2.331  10.337   5.864 -0.2124  0.0714 -0.1398
  375MOL0     C50492   2.319  10.454   5.873  0.1436 -0.2286  0.2134
  375MOL0     O50493   2.240  10.515   5.972 -0.1071 -0.5383  0.2244
  375MOL0     C50494   2.141  10.436   6.024  0.5622  0.1323 -0.3078
  375MOL0     C50495   2.017  10.405   5.953  0.6677 -0.9485  0.1271
  375MOL0     C50496   1.933  10.307   5.995 -0.0842 -0.4652  0.3103
  375MOL0     C50497   1.943  10.271   6.130  0.4703  0.1577 -0.2082
  375MOL0     O50498   1.866  10.169   6.177 -0.3270  0.5036  0.2793
  375MOL0     C50499   1.829  10.163   6.313 -0.7198 -1.2492 -0.2899
  375MOL0     C50500   1.745  10.044   6.347  0.0732 -0.5458  0.4823
  375MOL0     C50501   1.739  10.015   6.498 -0.4526 -0.1252  1.0700
  375MOL0     C50502   1.656   9.890   6.526  0.3927 -0.0560  0.0972
  375MOL0     C50503   1.635   9.877   6.679  0.4934  0.3648  0.9688
  375MOL0     C50504   1.569   9.739   6.730  0.0302 -0.7096  0.6948
  375MOL0     C50505   1.564   9.730   6.881 -0.0891  0.1486  0.3101
  375MOL0     C50506   1.485   9.606   6.923  0.1554 -0.1351 -0.1185
  375MOL0     N50507   1.541   9.478   6.873  0.9215 -0.4895 -0.1665
  375MOL0     C50508   1.673   9.438   6.896  0.5532 -0.3230  0.6832
  375MOL0     C50509   1.687   9.327   6.824 -0.2240  0.8391 -0.3656
  375MOL0     C50510   1.814   9.246   6.789  0.0453  0.3900 -0.4112
  375MOL0     C50511   1.914   9.328   6.719 -0.2636 -0.2441 -0.4492
  375MOL0     C50512   1.856   9.429   6.618  0.8558 -0.7463 -0.1195
  375MOL0     C50513   1.799   9.343   6.510  0.1835 -0.2620  0.8494
  375MOL0     O50514   1.762   9.402   6.384 -0.4164 -0.2929 -0.0410
  375MOL0     C50515   1.643   9.473   6.375 -0.9183  0.2488 -0.0796
  375MOL0     C50516   1.525   9.424   6.438  0.7284  0.5588 -0.6929
  375MOL0     C50517   1.409   9.506   6.442  0.3559 -0.0134  0.5871
  375MOL0     C50518   1.277   9.458   6.503 -0.7582 -0.3443  0.1273
  375MOL0     C50519   1.409   9.634   6.379  0.8976 -0.3551 -0.6857
  375MOL0     C50520   1.302   9.739   6.409 -0.5855 -0.5790  0.5935
  375MOL0     O50521   1.242   9.734   6.530 -0.0790 -0.1119 -0.2395
  375MOL0     C50522   1.136   9.819   6.553 -0.0509 -0.3778  0.7692
  375MOL0     C50523   1.017   9.809   6.478  0.0008 -0.2087 -0.5203
  375MOL0     C50524   0.912   9.893   6.508 -0.1172 -0.1969 -0.7790
  375MOL0     C50525   0.919   9.998   6.607 -0.9652 -0.8729 -0.0177
  375MOL0     O50526   0.821  10.080   6.643  0.0059 -0.6768  0.3153
  375MOL0     C50527   0.689  10.097   6.573 -0.4103  0.0554 -0.3449
  375MOL0     C50528   0.598  10.149   6.674 -0.0214  0.3064 -0.0653
  375MOL0     C50529   0.472  10.214   6.606  0.0726  0.4723  0.8507
  375MOL0     C50530   0.361  10.117   6.597  0.5691  0.2430  0.5271
  375MOL0     C50531   0.231  10.186   6.532  0.7713 -0.3410  0.0620
  375MOL0     C50532   0.103  10.101   6.533  0.4921  0.4780 -0.0437
  375MOL0     C50533  -0.025  10.168   6.487 -0.2354 -0.3637  0.9513
  375MOL0     C50534  -0.007  10.212   6.337  0.6136 -0.1401  0.8500
  375MOL0    Cl50535   0.005  10.070   6.224 -0.6777  0.1174  0.2473
  375MOL0     C50536   1.034  10.005   6.681  0.3422  0.1351  0.1308
  375MOL0     C50537   1.142   9.920   6.657  0.2012 -0.0247 -0.0391
  375MOL0     O50538   1.291   9.837   6.330 -0.3288 -0.2651 -0.4490
  375MOL0     C50539   1.526   9.672   6.312  0.2477  0.1186 -0.2361
  375MOL0     C50540   1.642   9.599   6.314 -0.0012  0.1367  0.4994
  375MOL0     N50541   1.561   9.300   6.766 -0.5597 -0.2315 -0.7145
  375MOL0     N50542   1.478   9.388   6.803 -0.2938 -0.7687 -0.0400
  375MOL0     C50543   2.036  10.324   6.216  0.0475  0.0446 -0.2427
  375MOL0     C50544   2.138  10.409   6.162 -0.1446  0.0554 -0.4655
  375MOL0     C50545   2.419  10.531   5.808 -0.5361 -0.2374 -0.0052
  375MOL0     C50546   2.399  10.671   5.786 -0.4726  0.7454 -0.3414
  375MOL0     C50547   2.499  10.752   5.733  0.4047 -0.0051  0.6610
  375MOL0     C50548   2.620  10.700   5.689 -0.0086 -0.7166  0.3050
  375MOL0     O50549   2.726  10.768   5.646 -0.1674 -0.2054  0.1642
  375MOL0     C50550   2.738  10.914   5.669  0.0397  0.5285  0.1024
  375MOL0     C50551   2.870  10.967   5.629  0.3622  0.6328 -0.6167
  375MOL0     C50552   2.910  10.925   5.483  0.5057  0.1693  0.1151
  375MOL0     C50553   3.023  11.017   5.433 -0.4679  0.6774 -0.6244
  375MOL0     C50554   2.980  11.157   5.403  0.8805  0.3672  0.8354
  375MOL0     C50555   2.938  11.268   5.374  0.3558  0.2245 -0.3958
  375MOL0     C50556   2.639  10.564   5.698  0.1441  0.5769 -0.1414
  375MOL0     C50557   2.539  10.480   5.761 -0.5671 -0.4501 -0.2587
  375MOL0     H50558   2.012  10.433   5.848 -1.9904 -2.5867 -0.2800
  375MOL0     H50559   1.863  10.264   5.925 -1.0109 -0.0988  0.9911
  375MOL0     H50560   1.916  10.163   6.379 -2.0342 -0.4375  1.5318
  375MOL0     H50561   1.766  10.251   6.332  0.7863  0.0377 -1.0222
  375MOL0     H50562   1.644  10.067   6.311  0.1919  1.3825  1.2565
  375MOL0     H50563   1.792   9.968   6.284  1.1479 -0.8415  1.6078
  375MOL0     H50564   1.842  10.010   6.534  0.5056 -2.4574 -1.6955
  375MOL0     H50565   1.686  10.101   6.541 -0.1371 -0.1486  1.5148
  375MOL0     H50566   1.556   9.895   6.481  1.5896  0.3548 -2.6748
  375MOL0     H50567   1.707   9.810   6.473  0.2704 -0.5192  0.6720
  375MOL0     H50568   1.727   9.901   6.733  0.7357  0.4177  0.5350
  375MOL0     H50569   1.572   9.961   6.712 -1.1171  1.3097 -3.7684
  375MOL0     H50570   1.469   9.743   6.686  0.0976  0.1833  0.6161
  375MOL0     H50571   1.624   9.654   6.689 -1.7631 -0.5241 -2.3857
  375MOL0     H50572   1.670   9.715   6.903 -0.1134 -1.8004 -0.7707
  375MOL0     H50573   1.523   9.818   6.931 -3.2772 -1.7759  1.3802
  375MOL0     H50574   1.385   9.610   6.878  0.7465 -2.5981 -1.8702
  375MOL0     H50575   1.468   9.598   7.031 -0.5883  2.1977 -0.0096
  375MOL0     H50576   1.749   9.488   6.954 -0.2270  0.9952  0.5992
  375MOL0     H50577   1.867   9.213   6.880  2.0558  3.2984 -0.3997
  375MOL0     H50578   1.775   9.155   6.742 -6.7342  1.8159  1.4430
  375MOL0     H50579   1.989   9.257   6.682  0.5716 -0.9521  2.3205
  375MOL0     H50580   1.953   9.394   6.797 -1.7659 -0.1281  0.2373
  375MOL0     H50581   1.947   9.485   6.592 -1.1919  1.8089 -2.2875
  375MOL0     H50582   1.788   9.509   6.649 -0.3946 -0.7198 -2.6708
  375MOL0     H50583   1.727   9.277   6.560  0.5119  0.1114  1.8249
  375MOL0     H50584   1.882   9.279   6.480  1.8507  1.5766  1.3323
  375MOL0     H50585   1.520   9.325   6.484  0.4940  1.0894  0.4651
  375MOL0     H50586   1.184   9.501   6.466 -0.2707  0.6527  0.0277
  375MOL0     H50587   1.271   9.349   6.505  1.4426 -0.5371 -0.7488
  375MOL0     H50588   1.286   9.483   6.609 -2.3238 -1.0283  0.4467
  375MOL0     H50589   0.999   9.742   6.395 -1.6310 -0.8928  0.3487
  375MOL0     H50590   0.817   9.882   6.455  0.2584 -0.8533 -1.3362
  375MOL0     H50591   0.698  10.172   6.494 -1.3195  0.9240  0.3383
  375MOL0     H50592   0.654  10.004   6.529  2.8185 -2.1068  1.2784
  375MOL0     H50593   0.576  10.078   6.755  1.0701 -2.8623 -2.3719
  375MOL0     H50594   0.670  10.222   6.713  0.2616  1.5246 -2.6930
  375MOL0     H50595   0.498  10.244   6.504  0.6223  2.0629  1.4365
  375MOL0     H50596   0.427  10.302   6.652 -2.7775 -0.3511 -0.1639
  375MOL0     H50597   0.386  10.036   6.528 -0.0654  0.0358  0.5388
  375MOL0     H50598   0.341  10.085   6.700 -2.6557 -1.7149 -0.5614
  375MOL0     H50599   0.254  10.205   6.426 -0.4568 -2.7690 -0.7125
  375MOL0     H50600   0.209  10.273   6.594  2.0408 -0.5961  0.9003
  375MOL0     H50601   0.128  10.011   6.477 -0.1620 -1.2026  2.2270
  375MOL0     H50602   0.085  10.068   6.635 -1.6655 -0.5777 -0.7151
  375MOL0     H50603  -0.050  10.254   6.549 -1.1126 -1.5431  2.2780
  375MOL0     H50604  -0.111  10.100   6.486 -0.0650 -0.6136 -1.1978
  375MOL0     H50605   0.066  10.292   6.323  2.7211 -1.9588  0.8242
  375MOL0     H50606  -0.101  10.259   6.309  0.7885  0.0972  0.6514
  375MOL0     H50607   1.027  10.082   6.758 -3.9709  0.0570  0.0976
  375MOL0     H50608   1.224   9.937   6.726 -2.3603  1.1469  2.9456
  375MOL0     H50609   1.510   9.769   6.265 -4.4961 -1.7124 -3.0944
  375MOL0     H50610   1.734   9.641   6.278 -0.0239 -0.6279 -0.4807
  375MOL0     H50611   2.052  10.283   6.316 -3.1201  0.7576  0.6693
  375MOL0     H50612   2.215  10.452   6.225 -2.6669 -0.8806  3.6956
  375MOL0     H50613   2.306  10.722   5.809 -1.7438 -0.9972 -1.3998
  375MOL0     H50614   2.479  10.857   5.715  0.1090 -0.4122 -1.7713
  375MOL0     H50615   2.658  10.964   5.613 -1.4598 -2.9853 -1.1800
  375MOL0     H50616   2.726  10.929   5.777  1.4099  1.9775  0.0901
  375MOL0     H50617   2.932  10.919   5.706 -2.3827  0.4317  1.6687
  375MOL0     H50618   2.885  11.073   5.649  0.8123  0.2554  1.2504
  375MOL0     H50619   2.820  10.934   5.421 -0.1310  2.7850  1.3008
  375MOL0     H50620   2.936  10.820   5.470 -1.6531 -0.1594 -2.6577
  375MOL0     H50621   3.050  10.962   5.342 -1.5825 -0.8236 -0.0891
  375MOL0     H50622   3.104  11.033   5.505  0.0007  0.3062 -1.0595
  375MOL0     H50623   2.916  11.369   5.348  2.8758  0.9927  0.1663
  375MOL0     H50624   2.732  10.520   5.663  1.3784  2.3231  0.8247
  375MOL0     H50625   2.576  10.378   5.764  3.7188  0.9020 -1.0168
  376MOL0     O50626   0.372   7.683   5.428 -0.4431 -0.0575  0.2869
  376MOL0     C50627   0.371   7.599   5.516 -0.1252 -0.2004 -0.1662
  376MOL0     O50628   0.269   7.506   5.539 -0.2534 -0.0722 -0.3960
  376MOL0     C50629   0.151   7.532   5.480 -0.2354  0.8247  0.7142
  376MOL0     C50630   0.074   7.638   5.535 -0.3820 -0.7532  0.0993
  376MOL0     C50631  -0.056   7.656   5.478  0.5623  1.1848 -0.0561
  376MOL0     C50632  -0.116   7.556   5.393  0.2740 -0.6332 -1.2378
  376MOL0     O50633  -0.239   7.588   5.352 -0.1097 -0.3741  0.5052
  376MOL0     C50634  -0.332   7.486   5.392  0.1804 -0.1535 -0.1989
  376MOL0     C50635  -0.449   7.536   5.486 -0.0479 -1.0325  0.2426
  376MOL0     C50636  -0.534   7.409   5.532 -0.7695 -0.0847  0.3554
  376MOL0     C50637  -0.675   7.448   5.554 -0.9823  0.1516 -0.6326
  376MOL0     C50638  -0.762   7.329   5.578 -0.1511 -0.0852  1.0024
  376MOL0     C50639  -0.869   7.366   5.676  0.1349 -0.6802  0.1195
  376MOL0     C50640  -0.966   7.248   5.697 -0.1636 -0.1689  0.5835
  376MOL0     C50641  -1.081   7.263   5.584 -0.1722  0.4031  0.4373
  376MOL0     N50642  -1.190   7.165   5.613  0.0592 -0.9021 -0.0703
  376MOL0     C50643  -1.191   7.029   5.594  0.3430 -0.1275  0.8433
  376MOL0     C50644  -1.298   6.977   5.653  1.2756 -0.3232  0.3694
  376MOL0     C50645  -1.312   6.841   5.704  0.9690  0.3210  0.3128
  376MOL0     C50646  -1.447   6.809   5.772  0.1595  0.5131 -0.0699
  376MOL0     C50647  -1.559   6.805   5.665  0.6420  0.3384  0.3968
  376MOL0     C50648  -1.699   6.804   5.724  0.6614  0.4573  0.1579
  376MOL0     O50649  -1.784   6.769   5.619  0.4300 -0.0661  0.4443
  376MOL0     C50650  -1.921   6.747   5.647 -0.7492 -0.5867 -0.3346
  376MOL0     C50651  -1.998   6.820   5.733  0.4769  0.4752 -0.2445
  376MOL0     C50652  -2.139   6.819   5.746 -0.3424  0.1427  0.9174
  376MOL0     C50653  -2.205   6.906   5.849  0.0763  0.2264 -0.1653
  376MOL0     C50654  -2.210   6.737   5.647  0.8045  0.0092  0.5623
  376MOL0     C50655  -2.353   6.749   5.626  0.4085  0.3796 -0.2304
  376MOL0     O50656  -2.403   6.648   5.540 -0.2258 -0.1423 -0.2060
  376MOL0     C50657  -2.541   6.646   5.536  0.6961 -0.4606  0.4081
  376MOL0     C50658  -2.615   6.689   5.425 -0.9626 -0.2713 -0.4197
  376MOL0     C50659  -2.760   6.681   5.406  0.1261  0.4832  0.1775
  376MOL0     C50660  -2.828   6.613   5.510  0.5984 -0.6197 -0.7274
  376MOL0     O50661  -2.969   6.597   5.518  0.1665  0.3531 -0.2151
  376MOL0     C50662  -3.054   6.625   5.401  0.3717  0.4553  0.2347
  376MOL0     C50663  -3.183   6.543   5.400 -0.7783  0.4637 -0.9273
  376MOL0     C50664  -3.271   6.568   5.521 -0.3327 -0.1007  0.2826
  376MOL0     C50665  -3.397   6.489   5.516 -0.5942  0.2284 -0.3416
  376MOL0     C50666  -3.495   6.505   5.633 -0.1556 -0.3118  0.0935
  376MOL0     C50667  -3.597   6.394   5.665  0.5128 -0.7690  0.6930
  376MOL0     C50668  -3.525   6.271   5.715 -0.5568 -0.0213  0.1281
  376MOL0     C50669  -3.621   6.153   5.753 -0.1374  0.0620  0.5546
  376MOL0    Cl50670  -3.693   6.081   5.600  0.1830  0.3215  0.1798
  376MOL0     C50671  -2.756   6.570   5.620  0.2656  0.3051  0.3363
  376MOL0     C50672  -2.616   6.591   5.638 -0.4294  0.7663 -0.5267
  376MOL0     O50673  -2.425   6.827   5.684  0.3827  0.5504  0.4106
  376MOL0     C50674  -2.130   6.658   5.563 -0.1366  0.5310 -0.5846
  376MOL0     C50675  -1.991   6.668   5.558 -0.5471  0.0669  0.6125
  376MOL0     N50676  -1.377   7.085   5.689 -0.1588  0.1150  0.2376
  376MOL0     N50677  -1.312   7.201   5.673  0.0773 -0.3594  0.0933
  376MOL0     C50678  -0.036   7.446   5.341  0.3561  0.6051 -0.0920
  376MOL0     C50679   0.097   7.434   5.387 -0.2212 -0.4743  0.1314
  376MOL0     C50680   0.494   7.602   5.606  0.6806 -0.6425  0.0749
  376MOL0     C50681   0.521   7.511   5.709  0.4727 -0.7288 -0.3827
  376MOL0     C50682   0.648   7.514   5.779  0.1030 -0.1935  0.3747
  376MOL0     C50683   0.743   7.610   5.755 -0.6902 -0.0057  0.3067
  376MOL0     O50684   0.864   7.630   5.826 -0.3465  0.4355 -0.2612
  376MOL0     C50685   0.903   7.525   5.927  0.9097  1.0886 -0.2084
  376MOL0     C50686   1.021   7.574   6.011 -0.6546 -0.0125 -0.1472
  376MOL0     C50687   1.151   7.589   5.931 -0.0530 -0.2477 -0.4837
  376MOL0     C50688   1.266   7.640   6.016 -0.3637 -0.2900 -0.2500
  376MOL0     C50689   1.389   7.627   5.943 -0.0687 -0.0526  0.1452
  376MOL0     C50690   1.489   7.609   5.871 -0.0397  0.2856 -0.9205
  376MOL0     C50691   0.714   7.702   5.650 -0.1401  0.2866 -0.9803
  376MOL0     C50692   0.596   7.695   5.580  0.4910  0.3559  0.8056
  376MOL0     H50693   0.117   7.715   5.598 -0.2909  0.7691 -1.7557
  376MOL0     H50694  -0.114   7.739   5.516  1.0492 -0.0416  3.8044
  376MOL0     H50695  -0.372   7.439   5.302 -2.2657 -4.2268  2.6571
  376MOL0     H50696  -0.294   7.401   5.450 -0.2225 -0.4825 -0.4114
  376MOL0     H50697  -0.398   7.570   5.577  2.7866  0.7076 -1.8391
  376MOL0     H50698  -0.506   7.622   5.448  0.8333 -0.0179  1.1530
  376MOL0     H50699  -0.539   7.342   5.446 -0.3412 -0.8132  0.8770
  376MOL0     H50700  -0.497   7.355   5.620 -1.6963 -1.4517 -0.0592
  376MOL0     H50701  -0.684   7.504   5.647 -0.3993 -0.5971 -0.1152
  376MOL0     H50702  -0.718   7.511   5.475 -2.3367 -1.9266 -1.6542
  376MOL0     H50703  -0.796   7.295   5.480  1.8523 -2.1420  0.9359
  376MOL0     H50704  -0.697   7.255   5.627  1.7220  0.0940 -1.0488
  376MOL0     H50705  -0.813   7.382   5.769  2.3392  3.0636 -1.6271
  376MOL0     H50706  -0.925   7.452   5.639  1.7768 -0.2500 -1.4993
  376MOL0     H50707  -0.907   7.158   5.681  1.4424  0.9639 -0.1430
  376MOL0     H50708  -1.008   7.244   5.798  0.6341  1.1957  1.0033
  376MOL0     H50709  -1.043   7.247   5.483  1.4973  1.4521  0.8647
  376MOL0     H50710  -1.108   7.369   5.575  0.4209  0.3936 -2.7596
  376MOL0     H50711  -1.101   6.975   5.565  0.1531 -2.5333  4.2033
  376MOL0     H50712  -1.290   6.783   5.614 -0.6150  4.5733 -3.1690
  376MOL0     H50713  -1.234   6.825   5.778  0.3040 -3.5695  0.3784
  376MOL0     H50714  -1.467   6.882   5.851 -0.9076  0.7601 -0.5463
  376MOL0     H50715  -1.436   6.708   5.814 -2.5927  0.4280  0.6482
  376MOL0     H50716  -1.552   6.708   5.615 -0.2255  0.6078 -0.2869
  376MOL0     H50717  -1.550   6.891   5.598 -1.3059  1.0485  0.9903
  376MOL0     H50718  -1.717   6.906   5.762 -2.2672  0.0307  0.1745
  376MOL0     H50719  -1.709   6.734   5.808 -1.4480 -0.5481 -0.8698
  376MOL0     H50720  -1.943   6.881   5.804  0.7465  1.0853 -0.9609
  376MOL0     H50721  -2.130   6.943   5.919  0.5067  0.0682 -0.5353
  376MOL0     H50722  -2.258   6.988   5.801 -0.3513 -0.2760 -0.5677
  376MOL0     H50723  -2.286   6.844   5.888  0.5930 -0.3806 -0.0199
  376MOL0     H50724  -2.550   6.718   5.343 -1.5357 -1.3469 -1.2865
  376MOL0     H50725  -2.809   6.726   5.320 -1.3874 -3.0032 -0.9783
  376MOL0     H50726  -3.084   6.728   5.423 -3.8020 -0.4733 -0.1846
  376MOL0     H50727  -2.996   6.608   5.310  0.3607 -1.0358  0.4792
  376MOL0     H50728  -3.225   6.585   5.309  3.0854  2.9400 -1.8164
  376MOL0     H50729  -3.151   6.441   5.379  0.3050  0.1985  1.6121
  376MOL0     H50730  -3.297   6.674   5.528  1.6201  0.7569 -3.4304
  376MOL0     H50731  -3.216   6.534   5.609  0.1261  0.4693  0.2229
  376MOL0     H50732  -3.448   6.499   5.420 -0.2978  2.3611 -0.3258
  376MOL0     H50733  -3.361   6.386   5.526  0.3005  0.6608  1.1457
  376MOL0     H50734  -3.555   6.590   5.600 -0.7280 -1.2952 -1.4990
  376MOL0     H50735  -3.435   6.527   5.722  0.8849 -2.1567 -0.1037
  376MOL0     H50736  -3.672   6.438   5.731 -1.9673 -0.2306 -2.2512
  376MOL0     H50737  -3.657   6.374   5.576  1.0058 -2.0457  0.6284
  376MOL0     H50738  -3.461   6.309   5.795  0.8759  0.3617 -1.1439
  376MOL0     H50739  -3.454   6.228   5.643 -0.8448  0.2290 -0.3053
  376MOL0     H50740  -3.702   6.191   5.817  1.7938 -1.4558  4.2059
  376MOL0     H50741  -3.567   6.074   5.804  1.9859 -0.5228 -2.3525
  376MOL0     H50742  -2.814   6.531   5.704  1.7074 -3.5699 -0.2517
  376MOL0     H50743  -2.561   6.566   5.728  0.4628  1.8541 -0.7521
  376MOL0     H50744  -2.175   6.600   5.483  0.8409  0.6863 -1.2681
  376MOL0     H50745  -1.937   6.612   5.482 -3.2452  2.8531 -3.7898
  376MOL0     H50746  -0.093   7.373   5.284 -1.4720  0.0329  2.3276
  376MOL0     H50747   0.159   7.350   5.356  2.8693  1.3239  1.0547
  376MOL0     H50748   0.452   7.431   5.735 -1.2942  0.6157 -0.7183
  376MOL0     H50749   0.662   7.435   5.852  2.4248  0.5813  0.8386
  376MOL0     H50750   0.819   7.496   5.991 -0.0628  1.2528 -1.3799
  376MOL0     H50751   0.934   7.425   5.897  3.1783  0.4189  3.6327
  376MOL0     H50752   1.036   7.508   6.097 -3.1315 -0.7930 -0.2182
  376MOL0     H50753   0.990   7.668   6.057 -0.9873  0.7935 -1.9153
  376MOL0     H50754   1.137   7.666   5.855  0.3073  0.9421  0.6169
  376MOL0     H50755   1.173   7.497   5.877  1.1527 -0.8211  0.9033
  376MOL0     H50756   1.257   7.594   6.115 -1.4641  1.7371  0.6589
  376MOL0     H50757   1.244   7.745   6.038 -0.6573 -0.5832  0.9292
  376MOL0     H50758   1.576   7.581   5.814  0.1824  1.1125 -0.9984
  376MOL0     H50759   0.794   7.773   5.631 -0.5448  0.8038 -0.7894
  376MOL0     H50760   0.590   7.756   5.490 -3.0580 -0.9926 -0.0380
  377MOL0     O50761   8.436   1.029   5.651  1.1551 -0.3890  0.7195
  377MOL0     C50762   8.500   1.130   5.623 -1.1300 -0.2717  0.1971
  377MOL0     O50763   8.451   1.248   5.580 -0.4882  0.0000 -0.0635
  377MOL0     C50764   8.315   1.268   5.545 -0.1283 -0.4434  0.1545
  377MOL0     C50765   8.208   1.241   5.625 -0.5963  1.0874  0.1398
  377MOL0     C50766   8.074   1.255   5.582 -0.1995 -0.1383  1.1206
  377MOL0     C50767   8.047   1.324   5.456  0.4775 -0.4809 -0.8674
  377MOL0     O50768   7.923   1.351   5.402 -0.4057 -0.4053 -0.1670
  377MOL0     C50769   7.805   1.323   5.481 -0.3306  0.5283 -1.1195
  377MOL0     C50770   7.672   1.366   5.407 -0.4457 -0.9761 -1.1121
  377MOL0     C50771   7.652   1.521   5.410  0.4518  0.2418 -0.0909
  377MOL0     C50772   7.510   1.573   5.367 -0.1235  0.1075 -0.2599
  377MOL0     C50773   7.506   1.717   5.312  0.3367 -0.6014 -0.3547
  377MOL0     C50774   7.554   1.817   5.419  0.4249  0.4515 -0.1946
  377MOL0     C50775   7.483   1.803   5.553  0.1974  0.1423 -0.2463
  377MOL0     C50776   7.489   1.928   5.650 -0.5659 -1.0089 -0.0562
  377MOL0     N50777   7.428   1.907   5.782 -0.4300  0.7243  0.1577
  377MOL0     C50778   7.298   1.895   5.815 -0.1304 -0.0466  0.4209
  377MOL0     C50779   7.288   1.856   5.944  0.1781  0.4824 -0.3159
  377MOL0     C50780   7.167   1.860   6.043  0.1918  0.5365  0.2009
  377MOL0     C50781   7.102   1.993   6.051 -0.1130 -0.5345 -0.2787
  377MOL0     C50782   7.011   2.031   5.935 -0.0278 -0.4884 -0.1066
  377MOL0     C50783   6.922   1.916   5.885  1.4889  0.4002 -0.2681
  377MOL0     O50784   6.840   1.935   5.762 -0.1676  0.4037  0.0836
  377MOL0     C50785   6.904   1.989   5.654  0.1050  0.2382 -0.1713
  377MOL0     C50786   6.888   2.123   5.627  0.6421 -0.2810 -0.3171
  377MOL0     C50787   6.964   2.185   5.533 -0.6172  0.1053  0.0471
  377MOL0     C50788   6.945   2.336   5.521  0.5521 -0.0058  0.0135
  377MOL0     C50789   7.063   2.103   5.463 -0.8547 -0.2068  0.5077
  377MOL0     C50790   7.156   2.157   5.352 -0.1357  0.1361 -0.6936
  377MOL0     O50791   7.261   2.080   5.315 -0.3079  0.6560 -0.1300
  377MOL0     C50792   7.347   2.122   5.218  0.1861 -0.0409  0.1874
  377MOL0     C50793   7.404   2.030   5.130 -0.0303  0.0989  0.7123
  377MOL0     C50794   7.507   2.074   5.044 -0.2621 -0.3369  0.6639
  377MOL0     C50795   7.565   2.203   5.055 -0.2512 -0.3221 -0.0001
  377MOL0     O50796   7.671   2.257   4.981 -0.1044  0.8985 -0.2832
  377MOL0     C50797   7.702   2.215   4.846  0.2005 -0.3847 -0.1201
  377MOL0     C50798   7.605   2.276   4.740 -1.3760  0.2169 -1.0989
  377MOL0     C50799   7.613   2.435   4.744  0.1030  0.1214 -0.2866
  377MOL0     C50800   7.492   2.495   4.666 -0.1590  0.0355  0.7879
  377MOL0     C50801   7.354   2.478   4.724 -0.6387  0.2650 -0.1297
  377MOL0     C50802   7.255   2.550   4.636 -0.0125 -0.5873  0.5461
  377MOL0     C50803   7.109   2.535   4.685  0.8808 -0.3023  0.1713
  377MOL0     C50804   7.024   2.633   4.605 -0.7904 -0.4314  0.6323
  377MOL0    Cl50805   7.067   2.803   4.661  0.1212  0.2812 -0.3705
  377MOL0     C50806   7.514   2.290   5.153 -0.6307 -0.8160 -0.2960
  377MOL0     C50807   7.406   2.248   5.231  0.9681 -0.4808 -0.1726
  377MOL0     O50808   7.120   2.261   5.297 -0.2213 -0.2283  1.3308
  377MOL0     C50809   7.078   1.967   5.486  0.0931 -1.6812  0.7020
  377MOL0     C50810   6.992   1.916   5.585  0.2421 -0.8087  0.2836
  377MOL0     N50811   7.418   1.861   5.991 -0.6222 -0.0193 -0.3619
  377MOL0     N50812   7.495   1.888   5.900  0.2511 -0.6860 -0.6330
  377MOL0     C50813   8.162   1.373   5.392 -0.5523  1.0627  0.0570
  377MOL0     C50814   8.297   1.337   5.430  0.3645 -0.8240  0.5811
  377MOL0     C50815   8.647   1.140   5.643 -0.4186 -0.1312  0.5735
  377MOL0     C50816   8.721   1.254   5.593  0.0982 -0.2480  0.3581
  377MOL0     C50817   8.859   1.254   5.608  0.2637 -0.7948  0.9927
  377MOL0     C50818   8.932   1.149   5.665  0.4405 -0.0414  0.0481
  377MOL0     O50819   9.067   1.154   5.673 -0.9993  0.3785 -0.5844
  377MOL0     C50820   9.129   1.062   5.770  0.8067  0.3029 -0.7050
  377MOL0     C50821   9.268   1.101   5.814 -0.0688  0.1208 -0.8946
  377MOL0     C50822   9.273   1.238   5.872  0.6646  0.1436 -0.2941
  377MOL0     C50823   9.210   1.253   6.009  0.9442  0.2031 -0.6870
  377MOL0     C50824   9.069   1.313   6.003  0.6190  0.0612  0.7192
  377MOL0     C50825   8.964   1.366   5.982 -0.0456  0.5815  0.1126
  377MOL0     C50826   8.854   1.035   5.714 -0.2153  0.2158  0.0350
  377MOL0     C50827   8.714   1.033   5.711 -0.4043  0.4027 -0.6962
  377MOL0     H50828   8.219   1.177   5.712 -2.7432 -1.7078 -1.4570
  377MOL0     H50829   7.992   1.204   5.631 -1.2965 -1.0645 -1.4896
  377MOL0     H50830   7.805   1.217   5.508  1.3084  0.5235 -1.0021
  377MOL0     H50831   7.804   1.375   5.577  1.0079  1.5946 -1.6437
  377MOL0     H50832   7.668   1.324   5.306 -1.8198 -0.4834 -1.2903
  377MOL0     H50833   7.591   1.315   5.461 -1.2746  1.4850  0.1334
  377MOL0     H50834   7.672   1.562   5.509  1.6312 -1.9493  0.6471
  377MOL0     H50835   7.730   1.573   5.354  1.2041  1.4299  1.9578
  377MOL0     H50836   7.454   1.509   5.298  1.3513 -0.6084 -0.8390
  377MOL0     H50837   7.437   1.569   5.448  1.2908 -1.6655  1.0083
  377MOL0     H50838   7.571   1.732   5.226 -1.3607  1.9392 -1.3222
  377MOL0     H50839   7.410   1.749   5.269  1.1724  1.0067 -1.0853
  377MOL0     H50840   7.660   1.791   5.429 -0.1390 -1.5676  1.1928
  377MOL0     H50841   7.531   1.921   5.396 -0.9527  0.8183  2.4125
  377MOL0     H50842   7.376   1.788   5.532 -0.0145  1.3615 -0.1019
  377MOL0     H50843   7.523   1.716   5.605 -4.0002 -2.1079 -0.3493
  377MOL0     H50844   7.442   2.011   5.597 -2.2376 -2.5855 -1.2056
  377MOL0     H50845   7.594   1.954   5.664 -0.6705  0.4219 -1.6108
  377MOL0     H50846   7.211   1.905   5.750  0.4319 -0.4972 -0.4293
  377MOL0     H50847   7.094   1.783   6.018 -1.4540  2.5666 -1.6517
  377MOL0     H50848   7.211   1.850   6.143  0.2133  0.6014  0.1975
  377MOL0     H50849   7.179   2.070   6.060 -1.2705  0.4411  2.2996
  377MOL0     H50850   7.040   1.987   6.141 -0.5429  0.7261 -0.4804
  377MOL0     H50851   7.073   2.066   5.852 -0.2420 -0.8091 -0.4052
  377MOL0     H50852   6.959   2.114   5.983  1.6607 -0.5497  2.0052
  377MOL0     H50853   6.864   1.899   5.976  0.7287 -1.6765 -1.0892
  377MOL0     H50854   6.992   1.837   5.858 -1.0103 -1.4082 -1.9454
  377MOL0     H50855   6.818   2.182   5.686  1.1139  0.2590 -0.2917
  377MOL0     H50856   6.882   2.349   5.433 -2.0007 -2.1428  1.3572
  377MOL0     H50857   6.881   2.369   5.603  0.5321 -1.3831  0.5936
  377MOL0     H50858   7.030   2.403   5.510 -0.2762  0.6786 -3.5927
  377MOL0     H50859   7.364   1.930   5.116 -0.4485  0.5301 -1.4777
  377MOL0     H50860   7.537   2.025   4.952 -0.9555  1.6851 -0.7097
  377MOL0     H50861   7.802   2.256   4.830 -0.2599  0.8383  0.0473
  377MOL0     H50862   7.716   2.107   4.846  1.1748 -0.2734  1.1871
  377MOL0     H50863   7.654   2.261   4.643  0.9963 -1.3945  0.2362
  377MOL0     H50864   7.502   2.240   4.745 -0.9453 -1.0116 -0.5223
  377MOL0     H50865   7.713   2.458   4.707  0.6055 -3.9010 -1.9622
  377MOL0     H50866   7.619   2.467   4.849 -1.0177 -0.9345  0.1285
  377MOL0     H50867   7.511   2.601   4.644  1.5721  0.2375  2.9084
  377MOL0     H50868   7.489   2.439   4.572  2.9818  0.9461  0.0103
  377MOL0     H50869   7.359   2.520   4.825 -0.1842 -1.1775  0.4777
  377MOL0     H50870   7.329   2.372   4.737  1.3844 -0.3285 -0.7874
  377MOL0     H50871   7.276   2.658   4.640  0.3342 -0.5057 -1.9288
  377MOL0     H50872   7.250   2.509   4.535  0.7483 -1.9641  1.0435
  377MOL0     H50873   7.104   2.564   4.790 -1.5316 -1.8806  0.5842
  377MOL0     H50874   7.074   2.431   4.679 -0.5577  0.2060 -0.8556
  377MOL0     H50875   6.919   2.611   4.628 -0.9225  0.0220  0.4608
  377MOL0     H50876   7.032   2.638   4.497  0.1282  2.0258  0.7592
  377MOL0     H50877   7.552   2.392   5.152 -1.9751 -0.2808  0.4109
  377MOL0     H50878   7.373   2.314   5.311  3.0828 -0.0143  0.3561
  377MOL0     H50879   7.153   1.919   5.423  0.9906  1.4914 -0.8388
  377MOL0     H50880   7.001   1.808   5.595  0.2350 -0.6711  2.3808
  377MOL0     H50881   8.156   1.409   5.290 -0.6150 -1.9143 -1.1071
  377MOL0     H50882   8.379   1.347   5.360 -2.2163  0.3696 -2.5424
  377MOL0     H50883   8.666   1.331   5.541 -3.0624 -1.1200  2.1088
  377MOL0     H50884   8.912   1.342   5.574 -2.0972  1.3626  2.5638
  377MOL0     H50885   9.070   1.055   5.862  3.6977  0.9189  1.3495
  377MOL0     H50886   9.132   0.966   5.717 -1.3771 -0.7863  0.9566
  377MOL0     H50887   9.326   1.079   5.724 -0.7232 -0.8849 -1.0834
  377MOL0     H50888   9.307   1.024   5.881  1.7462  0.4827 -1.4912
  377MOL0     H50889   9.228   1.306   5.799  0.3185  1.3520  1.0038
  377MOL0     H50890   9.379   1.266   5.881  0.2676  1.0040  2.4481
  377MOL0     H50891   9.261   1.313   6.085 -2.3607  0.3067  1.6728
  377MOL0     H50892   9.196   1.153   6.052 -1.7175 -0.2775 -2.4713
  377MOL0     H50893   8.865   1.400   5.962 -1.0100 -2.1505 -0.1543
  377MOL0     H50894   8.915   0.961   5.764  0.7008  0.3048 -0.9232
  377MOL0     H50895   8.655   0.952   5.750 -0.5844  1.5239  1.5681
  378MOL0     O50896   6.810   2.745  11.363  0.2619 -0.0427 -0.3774
  378MOL0     C50897   6.780   2.750  11.248 -0.2177  0.5238  0.9761
  378MOL0     O50898   6.837   2.675  11.139 -0.1511 -0.8283 -0.0203
  378MOL0     C50899   6.963   2.624  11.168 -0.3185 -0.2775  0.6862
  378MOL0     C50900   7.004   2.494  11.124  0.0633 -0.7411  0.0516
  378MOL0     C50901   7.133   2.448  11.123 -0.5106  0.5272  0.1837
  378MOL0     C50902   7.231   2.509  11.191 -0.6562  0.0983  0.2993
  378MOL0     O50903   7.355   2.450  11.210  0.6482  0.0579 -0.2358
  378MOL0     C50904   7.473   2.536  11.205 -0.1807 -0.1485 -0.1726
  378MOL0     C50905   7.545   2.538  11.071 -0.4687 -0.0682 -0.5378
  378MOL0     C50906   7.597   2.397  11.028  0.3967  0.0072 -0.1099
  378MOL0     C50907   7.666   2.411  10.887 -0.0782 -0.7490 -0.3556
  378MOL0     C50908   7.730   2.283  10.832 -0.5550 -0.0682 -0.8342
  378MOL0     C50909   7.823   2.208  10.925  0.9627  0.6898  0.1948
  378MOL0     C50910   7.849   2.061  10.865  0.9831 -0.3540 -0.3433
  378MOL0     C50911   7.998   2.020  10.887  0.8324 -0.6800  0.0248
  378MOL0     N50912   8.040   2.007  11.025 -0.5126 -0.3721 -0.7055
  378MOL0     C50913   7.973   1.948  11.130  0.6592  0.7275 -0.8667
  378MOL0     C50914   8.050   1.972  11.238 -0.8364 -0.3040 -0.1263
  378MOL0     C50915   8.032   1.949  11.382 -0.7431 -0.0255 -1.6982
  378MOL0     C50916   7.960   2.063  11.458  0.5441 -0.2466 -0.0982
  378MOL0     C50917   7.812   2.056  11.432  1.0224  0.3025 -0.0693
  378MOL0     C50918   7.744   2.188  11.484  0.5102  0.3257  0.0900
  378MOL0     O50919   7.608   2.193  11.454 -0.0151 -0.1381 -0.0334
  378MOL0     C50920   7.518   2.111  11.521 -0.1545 -0.5338  0.9381
  378MOL0     C50921   7.549   2.043  11.635 -0.0448  0.8726 -0.7203
  378MOL0     C50922   7.456   1.968  11.709  0.2106 -0.5281 -0.6992
  378MOL0     C50923   7.479   1.901  11.843 -0.5217 -0.1653  0.9157
  378MOL0     C50924   7.329   1.964  11.655  0.3859  0.9645 -0.9589
  378MOL0     C50925   7.212   1.884  11.713  0.7731  0.0736 -0.2901
  378MOL0     O50926   7.100   1.966  11.738  0.1102  0.2311  0.0584
  378MOL0     C50927   7.013   1.936  11.840  1.7146 -0.2918 -0.2603
  378MOL0     C50928   6.879   1.970  11.825  0.1394 -0.8884  0.0731
  378MOL0     C50929   6.783   1.917  11.911 -1.0755 -0.1080  0.3552
  378MOL0     C50930   6.827   1.855  12.036  1.3242 -0.1771  0.0452
  378MOL0     O50931   6.722   1.814  12.118  0.4624  0.2978 -0.5852
  378MOL0     C50932   6.755   1.811  12.259  0.5965 -0.0854 -0.9158
  378MOL0     C50933   6.656   1.889  12.352 -0.2539 -0.6128  0.0276
  378MOL0     C50934   6.529   1.816  12.395 -0.7114  0.4630  0.6916
  378MOL0     C50935   6.421   1.795  12.286  0.6617 -0.2153 -0.5442
  378MOL0     C50936   6.297   1.737  12.353  0.3676 -0.1880 -0.1898
  378MOL0     C50937   6.195   1.700  12.238  0.2702 -0.4347  0.3303
  378MOL0     C50938   6.078   1.610  12.292  0.0692 -0.1781 -0.4742
  378MOL0     C50939   5.940   1.654  12.258 -0.1123 -0.6796 -0.0041
  378MOL0    Cl50940   5.902   1.659  12.079  0.3368  0.0715 -0.1860
  378MOL0     C50941   6.960   1.849  12.064 -0.8078 -0.4063  0.4345
  378MOL0     C50942   7.058   1.889  11.966 -0.3402 -0.5394  0.1187
  378MOL0     O50943   7.216   1.767  11.740  0.4020  0.3362  0.6739
  378MOL0     C50944   7.289   2.034  11.534 -0.1876  0.5223  0.9828
  378MOL0     C50945   7.387   2.109  11.473  0.0394  0.2802  0.8224
  378MOL0     N50946   8.154   2.059  11.200 -0.2198  0.5431 -0.1123
  378MOL0     N50947   8.160   2.065  11.067 -0.0509  0.6122  0.3602
  378MOL0     C50948   7.196   2.628  11.251  0.0891 -0.9753 -0.3816
  378MOL0     C50949   7.062   2.686  11.238  0.3037 -0.1087 -1.2689
  378MOL0     C50950   6.662   2.839  11.229 -0.1784 -0.1917  0.0647
  378MOL0     C50951   6.612   2.923  11.329 -0.6262 -0.2597  0.1136
  378MOL0     C50952   6.494   3.002  11.306  0.3174  0.4935  0.0721
  378MOL0     C50953   6.436   3.005  11.178 -0.0438 -1.2077  0.7469
  378MOL0     O50954   6.325   3.087  11.168 -0.3549 -0.3708 -0.4323
  378MOL0     C50955   6.259   3.112  11.039  0.5266 -0.0634  0.5124
  378MOL0     C50956   6.119   3.176  11.073  0.4255 -0.9433 -0.8533
  378MOL0     C50957   6.130   3.312  11.147  0.4506  0.0760  0.4076
  378MOL0     C50958   5.994   3.394  11.144  0.8557 -0.0532  0.7741
  378MOL0     C50959   5.992   3.514  11.060 -0.1188 -0.2389 -0.2283
  378MOL0     C50960   5.981   3.614  10.987 -0.2894  0.4616 -0.0716
  378MOL0     C50961   6.497   2.936  11.068  0.9696  0.4062 -0.6047
  378MOL0     C50962   6.609   2.857  11.096  0.4113 -0.2611 -0.0672
  378MOL0     H50963   6.931   2.437  11.067  1.5982 -2.7209 -0.0500
  378MOL0     H50964   7.156   2.354  11.074  1.8336 -0.1376  2.3267
  378MOL0     H50965   7.453   2.641  11.228 -1.2376 -0.4851  0.4765
  378MOL0     H50966   7.552   2.508  11.276  0.1541  2.3197  0.5211
  378MOL0     H50967   7.497   2.600  10.995 -1.9161  0.7540  0.9845
  378MOL0     H50968   7.630   2.605  11.089 -4.0293  4.6046  0.7173
  378MOL0     H50969   7.677   2.366  11.095  2.0207  0.2202 -1.8457
  378MOL0     H50970   7.525   2.315  11.033 -0.9770  1.0607 -1.4259
  378MOL0     H50971   7.586   2.457  10.827 -0.0695  0.7471  0.7101
  378MOL0     H50972   7.744   2.488  10.895  1.1404 -1.9895  0.0071
  378MOL0     H50973   7.658   2.211  10.792  1.1177 -0.9781 -2.3885
  378MOL0     H50974   7.785   2.324  10.747 -1.2154  1.9121 -0.3770
  378MOL0     H50975   7.915   2.267  10.937  0.6751  0.6531  3.5517
  378MOL0     H50976   7.800   2.203  11.032  1.7878  2.8256  0.5230
  378MOL0     H50977   7.777   1.986  10.901 -1.1611  2.0037  0.5560
  378MOL0     H50978   7.834   2.065  10.756  0.3888 -0.7336 -0.2831
  378MOL0     H50979   8.061   2.090  10.832 -1.1253  0.9625 -0.2608
  378MOL0     H50980   8.017   1.922  10.842  0.1228 -0.9634  0.3214
  378MOL0     H50981   7.876   1.899  11.137  0.3463  1.4780  0.7833
  378MOL0     H50982   7.983   1.853  11.396  0.6523 -0.5475  0.0693
  378MOL0     H50983   8.124   1.934  11.439 -1.0986  0.8358 -0.8495
  378MOL0     H50984   8.011   2.153  11.422 -1.1629  0.3113 -1.2414
  378MOL0     H50985   7.969   2.056  11.567 -1.1091  1.5861  0.2108
  378MOL0     H50986   7.772   1.971  11.489 -0.9135  1.7956  0.9110
  378MOL0     H50987   7.788   2.049  11.326 -1.9975 -2.6215  0.6222
  378MOL0     H50988   7.780   2.277  11.432 -1.9781  0.4401 -1.5974
  378MOL0     H50989   7.767   2.203  11.590  0.7311 -1.0838  0.2609
  378MOL0     H50990   7.648   2.056  11.679  0.2922 -0.4257 -1.0369
  378MOL0     H50991   7.422   1.956  11.918  0.8430  0.9807  1.1618
  378MOL0     H50992   7.447   1.797  11.855 -1.1701 -0.4487 -2.3427
  378MOL0     H50993   7.584   1.912  11.873 -1.0011 -0.3401  2.7354
  378MOL0     H50994   6.840   2.015  11.734 -1.9314 -1.1498  0.7698
  378MOL0     H50995   6.679   1.917  11.879 -0.9196 -1.2668 -0.1805
  378MOL0     H50996   6.759   1.711  12.304  0.6905  1.2389  2.2602
  378MOL0     H50997   6.849   1.859  12.285 -1.1050  1.6419  2.6252
  378MOL0     H50998   6.711   1.929  12.438 -0.8140  1.2290 -0.4309
  378MOL0     H50999   6.617   1.976  12.299 -2.2840 -0.5413  1.5304
  378MOL0     H51000   6.474   1.873  12.471  0.0236  1.4152  0.5240
  378MOL0     H51001   6.559   1.715  12.423  2.5787  1.0865 -0.1866
  378MOL0     H51002   6.389   1.887  12.235 -2.1854 -2.3078 -2.8317
  378MOL0     H51003   6.459   1.730  12.208  0.4616  0.4057 -1.1719
  378MOL0     H51004   6.250   1.809  12.420  1.0101  1.2798 -1.2702
  378MOL0     H51005   6.332   1.652  12.413  1.0720 -0.9302 -1.5937
  378MOL0     H51006   6.156   1.793  12.194  0.2046 -1.7226 -2.5102
  378MOL0     H51007   6.249   1.646  12.160 -1.0554 -4.8707  2.1952
  378MOL0     H51008   6.083   1.600  12.400 -0.6999 -2.1634 -0.5786
  378MOL0     H51009   6.086   1.511  12.247  3.0320  1.0822 -3.1019
  378MOL0     H51010   5.926   1.755  12.297 -1.7378 -0.0428 -2.0992
  378MOL0     H51011   5.875   1.579  12.304  2.9264 -2.9643  0.8998
  378MOL0     H51012   7.007   1.823  12.158  5.0045  3.4230 -0.8606
  378MOL0     H51013   7.162   1.866  11.988  0.0396  1.3279  0.4606
  378MOL0     H51014   7.191   2.020  11.490  0.1988  1.4998 -0.2236
  378MOL0     H51015   7.346   2.167  11.391 -4.4669 -4.1214 -0.5684
  378MOL0     H51016   7.253   2.702  11.305  2.8574 -0.1090 -4.0334
  378MOL0     H51017   7.051   2.780  11.292  2.2177 -0.3387 -0.3951
  378MOL0     H51018   6.660   2.944  11.424 -1.3096  0.8301  0.2254
  378MOL0     H51019   6.438   3.060  11.379  0.4984 -0.2832  0.8386
  378MOL0     H51020   6.321   3.183  10.983 -1.3303  1.3414  0.1311
  378MOL0     H51021   6.242   3.024  10.977 -2.6015 -0.4751  1.7766
  378MOL0     H51022   6.069   3.094  11.125  1.7232 -1.1051  0.2107
  378MOL0     H51023   6.061   3.194  10.982 -2.4518  0.8044  1.1379
  378MOL0     H51024   6.202   3.368  11.087  1.6362 -1.4971  0.3255
  378MOL0     H51025   6.156   3.296  11.252 -0.1464 -0.0966  0.5360
  378MOL0     H51026   5.977   3.428  11.247  1.7681 -0.7922  1.1801
  378MOL0     H51027   5.905   3.334  11.124  1.0143 -0.3450  0.9393
  378MOL0     H51028   5.977   3.698  10.921  2.9238 -0.5233 -1.7351
  378MOL0     H51029   6.468   2.946  10.964  0.0505  1.4302 -0.2681
  378MOL0     H51030   6.646   2.807  11.007 -1.9174  2.6323 -2.8997
  379MOL0     O51031   8.763   4.542   7.843 -0.0106 -0.4652  0.2545
  379MOL0     C51032   8.842   4.634   7.855  0.5008 -0.2118  0.1562
  379MOL0     O51033   8.800   4.767   7.882 -0.6127  0.1461  0.2188
  379MOL0     C51034   8.676   4.774   7.936  0.1063  0.3100  0.0787
  379MOL0     C51035   8.564   4.749   7.856 -0.0335 -0.4200 -0.0499
  379MOL0     C51036   8.439   4.749   7.928 -0.1498  0.6447  0.7980
  379MOL0     C51037   8.421   4.802   8.061 -0.8596 -0.1463  0.5876
  379MOL0     O51038   8.306   4.827   8.123  0.6599 -0.0894 -0.0870
  379MOL0     C51039   8.183   4.792   8.055 -0.4036  0.2469 -0.0407
  379MOL0     C51040   8.066   4.847   8.146 -0.2003  0.7668  0.0484
  379MOL0     C51041   7.931   4.841   8.058 -0.6590 -0.3271  0.0160
  379MOL0     C51042   7.887   4.689   8.045  0.3451  0.6711 -0.5810
  379MOL0     C51043   7.754   4.670   7.981 -0.4789 -0.0610  0.9103
  379MOL0     C51044   7.644   4.747   8.058 -0.3686  0.0064  0.6282
  379MOL0     C51045   7.514   4.742   7.992  0.4788  0.4915  0.0472
  379MOL0     C51046   7.448   4.603   7.987  0.6750  0.7389 -0.5000
  379MOL0     N51047   7.413   4.538   8.124 -0.4015 -0.0432 -0.8692
  379MOL0     C51048   7.399   4.611   8.241 -0.6522  0.2177  0.1248
  379MOL0     C51049   7.379   4.511   8.337 -0.2571  0.4082  0.4055
  379MOL0     C51050   7.363   4.508   8.486  0.6248  0.1923  0.0650
  379MOL0     C51051   7.214   4.488   8.532 -0.4615  0.2937  0.6956
  379MOL0     C51052   7.123   4.597   8.473  0.3596 -0.7085  0.5535
  379MOL0     C51053   6.987   4.608   8.541 -0.7906  0.6157 -0.2803
  379MOL0     O51054   6.920   4.705   8.457  0.3893 -0.4180 -0.5599
  379MOL0     C51055   6.780   4.706   8.464 -0.8195 -0.2733  0.0916
  379MOL0     C51056   6.713   4.741   8.581  0.3204 -0.1271 -0.0034
  379MOL0     C51057   6.581   4.737   8.589 -0.0380  0.9876 -0.9867
  379MOL0     C51058   6.519   4.784   8.719 -0.5317 -0.7529 -0.6673
  379MOL0     C51059   6.496   4.695   8.481 -0.6716  0.2944  0.1297
  379MOL0     C51060   6.340   4.703   8.469  0.2481  0.7651  0.0991
  379MOL0     O51061   6.296   4.744   8.344  0.3431 -0.4920 -0.2262
  379MOL0     C51062   6.167   4.710   8.296  0.5286  0.2425  0.3700
  379MOL0     C51063   6.163   4.659   8.163  0.5499 -0.2186 -0.0824
  379MOL0     C51064   6.051   4.616   8.088 -0.4867 -0.1547  0.2260
  379MOL0     C51065   5.929   4.626   8.151  0.8655  0.4662 -0.0784
  379MOL0     O51066   5.818   4.568   8.092  0.3302 -0.0168  0.0696
  379MOL0     C51067   5.710   4.524   8.177  0.0522 -0.3726  0.6876
  379MOL0     C51068   5.629   4.413   8.103  0.4785 -0.7133 -0.6583
  379MOL0     C51069   5.494   4.374   8.170 -0.2427  0.5651  0.7340
  379MOL0     C51070   5.398   4.482   8.179 -0.0922 -0.9548  0.6497
  379MOL0     C51071   5.252   4.445   8.204  0.9714  0.2917 -0.2818
  379MOL0     C51072   5.168   4.563   8.206  0.4577  0.0573 -0.8384
  379MOL0     C51073   5.027   4.525   8.244  0.4471  0.0577  0.2236
  379MOL0     C51074   5.006   4.501   8.398  0.2099  0.0629 -0.7272
  379MOL0    Cl51075   4.833   4.473   8.442  0.0160 -0.4838  0.1671
  379MOL0     C51076   5.922   4.687   8.278 -0.8431  0.4907  0.1079
  379MOL0     C51077   6.038   4.722   8.356  0.6295 -0.0433 -0.0706
  379MOL0     O51078   6.270   4.661   8.563  0.2477 -0.3326  0.0615
  379MOL0     C51079   6.570   4.649   8.365  0.1333 -0.3510  0.7842
  379MOL0     C51080   6.710   4.659   8.354 -0.2544 -0.9118  0.4599
  379MOL0     N51081   7.360   4.397   8.268 -0.1687 -0.5892 -0.3873
  379MOL0     N51082   7.373   4.409   8.145  0.1171 -1.1050 -0.0780
  379MOL0     C51083   8.540   4.826   8.127 -0.4455 -0.0023  0.2138
  379MOL0     C51084   8.665   4.813   8.067  0.1817 -0.9388 -0.3484
  379MOL0     C51085   8.981   4.608   7.868  0.2206 -0.5181 -0.7999
  379MOL0     C51086   9.028   4.485   7.916  0.2882  0.8739  0.2760
  379MOL0     C51087   9.166   4.463   7.947 -0.0825  0.3037  0.1744
  379MOL0     C51088   9.251   4.571   7.944  0.4306  0.0518 -0.4905
  379MOL0     O51089   9.381   4.578   7.982  0.3185 -0.4382  0.2632
  379MOL0     C51090   9.444   4.456   8.006 -0.0051 -0.3175 -0.1083
  379MOL0     C51091   9.587   4.474   8.036  0.5608  0.5256 -0.9055
  379MOL0     C51092   9.665   4.337   8.060  0.1908 -0.1544  0.0058
  379MOL0     C51093   9.814   4.362   8.087  0.7532 -0.5906  0.7375
  379MOL0     C51094   9.838   4.421   8.220 -0.9975  0.5412 -0.4203
  379MOL0     C51095   9.876   4.453   8.330 -0.1499  0.0604  0.3268
  379MOL0     C51096   9.201   4.688   7.899  0.6819 -1.2940  0.0940
  379MOL0     C51097   9.072   4.712   7.861  0.2513 -0.2331  0.6915
  379MOL0     H51098   8.573   4.732   7.750  3.1605 -2.1709  0.3902
  379MOL0     H51099   8.354   4.716   7.869  0.9230 -1.4938  0.3365
  379MOL0     H51100   8.186   4.839   7.957 -1.7802 -0.9294 -0.6835
  379MOL0     H51101   8.188   4.686   8.033  1.1232  0.6687 -2.0020
  379MOL0     H51102   8.049   4.794   8.240 -3.6544 -0.3307 -1.0270
  379MOL0     H51103   8.081   4.954   8.158 -1.8721  1.3438 -2.2966
  379MOL0     H51104   7.856   4.899   8.113  0.1703  0.2769  0.5354
  379MOL0     H51105   7.945   4.881   7.957 -2.4692 -0.0701 -0.1655
  379MOL0     H51106   7.962   4.633   7.990  0.3290 -2.8350  2.5391
  379MOL0     H51107   7.889   4.646   8.146  1.1181  0.8963 -0.4968
  379MOL0     H51108   7.758   4.699   7.875  1.4126  1.7194  1.4164
  379MOL0     H51109   7.731   4.563   7.981 -0.8466  0.0165  0.9936
  379MOL0     H51110   7.644   4.722   8.165  0.1229  1.1820  0.9190
  379MOL0     H51111   7.676   4.852   8.061  0.3576 -0.2187  0.9515
  379MOL0     H51112   7.453   4.826   8.027  0.6695  0.5199  0.3162
  379MOL0     H51113   7.533   4.767   7.887  1.9923 -1.0825 -0.1024
  379MOL0     H51114   7.506   4.524   7.938  2.6524  0.0655  2.6124
  379MOL0     H51115   7.351   4.606   7.938  0.4467  3.7075 -0.0696
  379MOL0     H51116   7.401   4.720   8.248 -3.0740  0.4244 -1.0076
  379MOL0     H51117   7.422   4.428   8.532 -1.2965 -0.9302  0.7299
  379MOL0     H51118   7.398   4.607   8.514 -0.5019  0.8282 -0.6846
  379MOL0     H51119   7.189   4.486   8.639 -1.2682 -0.9423  0.5034
  379MOL0     H51120   7.189   4.387   8.497 -3.4998  0.5205  1.8545
  379MOL0     H51121   7.115   4.589   8.365 -2.1731 -4.1337  0.8306
  379MOL0     H51122   7.169   4.695   8.492  0.2186 -0.5929  0.3012
  379MOL0     H51123   6.991   4.645   8.644 -1.2903  1.6805 -0.6327
  379MOL0     H51124   6.944   4.509   8.519  3.8233 -1.2590 -2.1166
  379MOL0     H51125   6.773   4.776   8.664 -0.9277 -0.0002  0.8621
  379MOL0     H51126   6.596   4.817   8.790 -2.8520  1.3541  1.0477
  379MOL0     H51127   6.464   4.877   8.704 -0.1546 -0.3346  0.4259
  379MOL0     H51128   6.457   4.705   8.764  0.1442 -0.5284  0.7192
  379MOL0     H51129   6.256   4.654   8.107  0.6501  0.5265  0.0141
  379MOL0     H51130   6.056   4.585   7.984  0.0405  1.1605 -0.1554
  379MOL0     H51131   5.750   4.482   8.270  1.3101 -0.8951 -0.0586
  379MOL0     H51132   5.644   4.608   8.200 -1.2577 -0.5937 -1.9103
  379MOL0     H51133   5.616   4.449   8.000 -0.1086  1.7568  0.2276
  379MOL0     H51134   5.681   4.319   8.081 -0.6115 -1.4772 -0.0574
  379MOL0     H51135   5.527   4.336   8.267 -1.6459 -1.4487  0.4817
  379MOL0     H51136   5.448   4.292   8.114  0.8039 -0.2987  1.1063
  379MOL0     H51137   5.433   4.554   8.254 -0.9681  0.8211 -0.5710
  379MOL0     H51138   5.397   4.530   8.080 -2.2773  1.5244  1.7679
  379MOL0     H51139   5.248   4.394   8.301 -0.2015  1.9443  0.5795
  379MOL0     H51140   5.217   4.373   8.129 -0.9860 -0.2725  1.0789
  379MOL0     H51141   5.198   4.644   8.273 -3.2044  1.2224 -0.3650
  379MOL0     H51142   5.164   4.611   8.108 -0.3890  0.8428 -0.4416
  379MOL0     H51143   4.996   4.432   8.196  0.8753  0.9847 -1.9740
  379MOL0     H51144   4.960   4.610   8.226  0.8861  0.1471 -1.0606
  379MOL0     H51145   5.049   4.581   8.459 -2.8377  1.1904  0.1655
  379MOL0     H51146   5.069   4.415   8.424 -0.8008  0.5508  4.5324
  379MOL0     H51147   5.825   4.692   8.326 -0.8654 -1.8057  0.4145
  379MOL0     H51148   6.033   4.756   8.459 -0.4409 -0.4761  0.0265
  379MOL0     H51149   6.522   4.609   8.277  0.9953  1.1510 -0.4239
  379MOL0     H51150   6.760   4.628   8.262  0.5731 -1.4647  1.0859
  379MOL0     H51151   8.534   4.868   8.227  2.8746  0.6727  0.2464
  379MOL0     H51152   8.757   4.838   8.119 -1.1488 -0.4765  1.9352
  379MOL0     H51153   8.960   4.402   7.932  1.1194  0.4165  1.6370
  379MOL0     H51154   9.197   4.367   7.987 -0.0705 -0.0279 -0.6281
  379MOL0     H51155   9.398   4.409   8.093 -0.1012  0.4039  0.2407
  379MOL0     H51156   9.435   4.387   7.922 -1.6582 -1.4850  0.9719
  379MOL0     H51157   9.586   4.531   8.129 -1.9459  0.7474 -0.9973
  379MOL0     H51158   9.618   4.540   7.955 -1.2462  1.5527 -0.8201
  379MOL0     H51159   9.654   4.275   7.970 -1.6542  1.0595 -0.6614
  379MOL0     H51160   9.633   4.283   8.150 -1.4003 -0.8976 -0.9551
  379MOL0     H51161   9.867   4.421   8.012  1.7589 -3.6894 -1.1545
  379MOL0     H51162   9.869   4.268   8.077  2.3835  0.5909 -3.3344
  379MOL0     H51163   9.895   4.474   8.433  6.0069  1.0290 -0.5977
  379MOL0     H51164   9.263   4.773   7.874 -1.2029 -0.3672 -1.7488
  379MOL0     H51165   9.047   4.814   7.834  1.3363  0.4215  2.0633
  380MOL0     O51166   3.764   5.346  10.966 -0.1522  0.2740 -0.4284
  380MOL0     C51167   3.862   5.413  10.940  0.4328  0.5708  0.3801
  380MOL0     O51168   3.869   5.545  10.967  0.4047  1.0950  1.2175
  380MOL0     C51169   3.756   5.616  11.013  0.4459 -0.8727 -0.2026
  380MOL0     C51170   3.784   5.738  11.072 -0.6174  0.0801  0.2714
  380MOL0     C51171   3.691   5.829  11.117  0.4465  0.1752 -0.0158
  380MOL0     C51172   3.556   5.811  11.095 -1.0250  0.1174  0.2621
  380MOL0     O51173   3.471   5.902  11.150 -0.0908  0.1238 -0.1925
  380MOL0     C51174   3.342   5.920  11.078 -0.7264 -0.2129  0.6066
  380MOL0     C51175   3.265   6.030  11.158 -0.2654  0.0568  0.1033
  380MOL0     C51176   3.138   6.080  11.087  0.1270  0.3911  0.1881
  380MOL0     C51177   3.041   6.140  11.182 -0.8319 -0.4777  0.3572
  380MOL0     C51178   2.923   6.195  11.098  0.5918 -0.6477  0.2034
  380MOL0     C51179   2.844   6.303  11.181 -0.0054 -0.4310 -0.3529
  380MOL0     C51180   2.740   6.367  11.099 -0.0290  0.2347  0.7949
  380MOL0     C51181   2.666   6.471  11.186  0.4718 -0.5781 -0.8357
  380MOL0     N51182   2.554   6.541  11.117  0.4683  0.8721 -0.0726
  380MOL0     C51183   2.526   6.673  11.111 -0.0049  0.1716 -0.6108
  380MOL0     C51184   2.401   6.676  11.064 -0.1735  0.7249  0.6754
  380MOL0     C51185   2.319   6.803  11.033 -0.6453 -0.6927  0.0323
  380MOL0     C51186   2.166   6.780  11.027 -0.1679  0.6898 -0.2829
  380MOL0     C51187   2.080   6.917  11.023 -0.2365  0.2286  0.1854
  380MOL0     C51188   1.936   6.892  10.970  0.0662  1.2780 -0.1090
  380MOL0     O51189   1.850   6.836  11.081 -0.5673  0.1241  0.4484
  380MOL0     C51190   1.722   6.887  11.120 -0.4450 -0.4109  0.1189
  380MOL0     C51191   1.642   6.952  11.034 -0.2176 -0.1650  0.2606
  380MOL0     C51192   1.508   7.001  11.059 -0.1784 -1.1041  0.2214
  380MOL0     C51193   1.420   7.073  10.957  0.2485  0.2821 -0.3154
  380MOL0     C51194   1.470   6.981  11.197 -0.1110  0.5032  0.9557
  380MOL0     C51195   1.329   7.004  11.244  0.2657  1.0526 -0.3175
  380MOL0     O51196   1.286   6.942  11.359 -0.5721  0.5289  0.4881
  380MOL0     C51197   1.158   6.954  11.400 -0.3381  0.4699  0.6101
  380MOL0     C51198   1.070   6.846  11.375 -0.0238  0.5868  0.1774
  380MOL0     C51199   0.927   6.859  11.401  0.3711 -0.0337 -0.6259
  380MOL0     C51200   0.881   6.986  11.435  0.0017  0.6912 -0.6817
  380MOL0     O51201   0.745   6.991  11.448  0.1760 -0.1982  0.0994
  380MOL0     C51202   0.663   6.973  11.335 -0.0685 -0.9555  0.6126
  380MOL0     C51203   0.519   6.951  11.378  0.8458  0.3171  0.2950
  380MOL0     C51204   0.502   6.825  11.459 -0.3224  0.3059  0.0343
  380MOL0     C51205   0.532   6.687  11.386  0.8258 -1.3875 -0.8176
  380MOL0     C51206   0.429   6.581  11.428 -0.3863  0.2120  1.5937
  380MOL0     C51207   0.482   6.447  11.390  0.2470  0.6082 -0.8534
  380MOL0     C51208   0.373   6.341  11.409 -0.5479  0.5946 -0.2732
  380MOL0     C51209   0.293   6.364  11.543  0.0764 -0.0162  0.5477
  380MOL0    Cl51210   0.196   6.219  11.554  0.4748 -0.3431 -0.1510
  380MOL0     C51211   0.966   7.091  11.454  0.7229 -0.4107  0.7351
  380MOL0     C51212   1.102   7.076  11.442 -0.2623 -0.0587  0.3535
  380MOL0     O51213   1.260   7.087  11.186 -0.7117 -0.7688  0.2620
  380MOL0     C51214   1.545   6.902  11.285  0.5708 -0.0812  0.8557
  380MOL0     C51215   1.666   6.853  11.244  0.2411 -0.6610 -0.7084
  380MOL0     N51216   2.356   6.544  11.030 -0.7025  0.1474  0.0109
  380MOL0     N51217   2.452   6.466  11.063 -0.2054 -0.2683 -0.4938
  380MOL0     C51218   3.520   5.688  11.039  0.1517  0.2464  0.4075
  380MOL0     C51219   3.614   5.597  10.988 -0.6337 -0.9512  0.6643
  380MOL0     C51220   3.989   5.354  10.887 -0.2416  0.2183  0.7714
  380MOL0     C51221   4.016   5.216  10.875 -0.1155 -0.0746 -0.7954
  380MOL0     C51222   4.127   5.165  10.813 -0.2966 -1.1616  0.0828
  380MOL0     C51223   4.224   5.247  10.755  0.4766 -0.3315  0.8311
  380MOL0     O51224   4.340   5.211  10.691 -0.2160 -0.2584  0.1212
  380MOL0     C51225   4.396   5.080  10.701 -0.4519 -0.3362 -0.2620
  380MOL0     C51226   4.520   5.074  10.622 -0.6272  0.3129 -0.1406
  380MOL0     C51227   4.569   4.935  10.627 -0.3271 -0.6184 -0.1135
  380MOL0     C51228   4.730   4.922  10.642 -0.9033 -0.1462 -0.0372
  380MOL0     C51229   4.781   4.899  10.505 -0.5261 -0.0301  0.2260
  380MOL0     C51230   4.811   4.876  10.389 -0.4885  0.1042 -0.2610
  380MOL0     C51231   4.187   5.382  10.751  0.3528  0.6408  0.1642
  380MOL0     C51232   4.075   5.438  10.818 -0.4753 -0.2065  0.1539
  380MOL0     H51233   3.887   5.769  11.085 -0.1511 -1.4878  0.4384
  380MOL0     H51234   3.719   5.924  11.162 -1.3819  0.9187 -0.3473
  380MOL0     H51235   3.362   5.942  10.973 -3.4564  4.5909  0.8030
  380MOL0     H51236   3.277   5.832  11.067  2.0846 -2.1586 -2.0402
  380MOL0     H51237   3.238   5.993  11.258 -1.7296  0.5067 -0.1074
  380MOL0     H51238   3.331   6.114  11.179 -0.3176  0.9306 -2.8122
  380MOL0     H51239   3.157   6.154  11.009 -0.0861  1.9409  1.5555
  380MOL0     H51240   3.089   5.998  11.033 -1.2983 -0.0235  2.0057
  380MOL0     H51241   3.000   6.061  11.246 -1.8538 -0.2662 -0.0110
  380MOL0     H51242   3.097   6.212  11.241  0.5954 -1.5113  0.3154
  380MOL0     H51243   2.946   6.249  11.005 -3.1797  1.5027  0.3107
  380MOL0     H51244   2.853   6.116  11.068  0.4751  0.4243 -2.6483
  380MOL0     H51245   2.813   6.251  11.272  1.2745 -3.2233 -1.3980
  380MOL0     H51246   2.918   6.380  11.206  1.7852 -0.9374 -3.5684
  380MOL0     H51247   2.778   6.425  11.014 -2.6083  2.4180  1.0088
  380MOL0     H51248   2.674   6.287  11.065  2.8248 -1.7150 -0.5080
  380MOL0     H51249   2.732   6.554  11.213  1.2088 -1.5228  0.3664
  380MOL0     H51250   2.629   6.415  11.273  1.8867  1.6867  1.3748
  380MOL0     H51251   2.578   6.762  11.143  0.6914 -1.1650  2.2933
  380MOL0     H51252   2.338   6.887  11.100  1.4746 -2.1339  1.3322
  380MOL0     H51253   2.353   6.835  10.934 -0.1985 -0.7384  0.1667
  380MOL0     H51254   2.139   6.723  11.116 -1.0747 -2.7522 -2.5781
  380MOL0     H51255   2.157   6.715  10.939  1.3687 -2.3191  1.6231
  380MOL0     H51256   2.140   6.983  10.959 -1.9652  1.7462  0.0430
  380MOL0     H51257   2.079   6.966  11.121 -0.8193 -0.5993  0.6116
  380MOL0     H51258   1.934   6.836  10.875  2.2644  2.3693 -0.8669
  380MOL0     H51259   1.910   6.994  10.941  2.0928  2.0963  0.7522
  380MOL0     H51260   1.693   6.981  10.943 -0.9606  0.8689  0.1579
  380MOL0     H51261   1.457   7.089  10.855 -1.4988  1.5592 -0.8023
  380MOL0     H51262   1.324   7.021  10.942  0.8988 -0.4757 -2.1612
  380MOL0     H51263   1.393   7.172  10.995 -0.4189 -0.3737  0.9972
  380MOL0     H51264   1.094   6.751  11.327  1.2273  1.2901 -0.6268
  380MOL0     H51265   0.867   6.770  11.387  0.4686  0.0152 -1.3967
  380MOL0     H51266   0.679   7.051  11.260  1.5206  0.5433  2.3974
  380MOL0     H51267   0.692   6.877  11.293 -1.2690 -1.6564  1.3316
  380MOL0     H51268   0.496   7.030  11.451  0.6014  0.1082  0.4475
  380MOL0     H51269   0.451   6.951  11.293  1.9100 -0.8946 -0.5912
  380MOL0     H51270   0.400   6.819  11.497  0.0799 -2.6405  0.9694
  380MOL0     H51271   0.565   6.835  11.548 -2.0861 -0.8272  1.4951
  380MOL0     H51272   0.550   6.706  11.280  1.4886 -0.0361 -0.4875
  380MOL0     H51273   0.631   6.655  11.421  2.8601  1.2649 -3.6188
  380MOL0     H51274   0.334   6.604  11.379  0.5471 -1.1776 -1.0405
  380MOL0     H51275   0.418   6.588  11.537  0.9024  2.9283  1.6493
  380MOL0     H51276   0.515   6.441  11.286  2.0701  0.0541 -0.2942
  380MOL0     H51277   0.568   6.413  11.449  0.6910  2.2035 -0.5337
  380MOL0     H51278   0.412   6.239  11.416 -4.3223 -1.0754 -1.1663
  380MOL0     H51279   0.302   6.352  11.327 -1.7842  2.5288  0.9581
  380MOL0     H51280   0.227   6.451  11.550  0.0234 -0.0019 -0.0378
  380MOL0     H51281   0.350   6.390  11.632  0.5257  1.6437 -0.1840
  380MOL0     H51282   0.919   7.187  11.474  2.7571  0.3940  2.0368
  380MOL0     H51283   1.166   7.163  11.436  2.5875 -1.9533  1.3596
  380MOL0     H51284   1.519   6.887  11.389  1.6902 -0.9159  1.0300
  380MOL0     H51285   1.720   6.779  11.303  0.6524 -0.3682 -0.7112
  380MOL0     H51286   3.417   5.654  11.039  0.0303  0.6050  0.1476
  380MOL0     H51287   3.599   5.509  10.927 -0.7737  0.4688 -1.4587
  380MOL0     H51288   3.937   5.153  10.914 -1.9876  4.3687  3.5540
  380MOL0     H51289   4.142   5.059  10.793  0.0729 -0.7351 -2.1611
  380MOL0     H51290   4.414   5.060  10.807 -3.1653 -0.6197  0.2329
  380MOL0     H51291   4.324   5.002  10.672  0.0082 -1.2787  1.0525
  380MOL0     H51292   4.604   5.137  10.651  2.3709 -2.9409 -0.9999
  380MOL0     H51293   4.488   5.111  10.524 -1.9804  0.0673  0.1871
  380MOL0     H51294   4.530   4.881  10.541 -3.6155  1.7150 -0.2580
  380MOL0     H51295   4.541   4.894  10.725  1.4700 -2.6042 -0.3561
  380MOL0     H51296   4.747   4.843  10.715 -2.6692  0.6107  1.2845
  380MOL0     H51297   4.780   5.010  10.685 -0.3514  0.0117 -0.9912
  380MOL0     H51298   4.848   4.853  10.291 -2.3424  1.1334 -1.2590
  380MOL0     H51299   4.249   5.457  10.703  1.3464  0.0015  0.4241
  380MOL0     H51300   4.063   5.546  10.820  2.0478  0.1344 -0.1702
  381MOL0     O51301   5.584   8.947  10.702  0.4576 -0.8099 -0.7866
  381MOL0     C51302   5.663   9.036  10.736 -0.8639 -0.6029 -0.5610
  381MOL0     O51303   5.644   9.167  10.730 -0.6573  0.1015  0.4056
  381MOL0     C51304   5.525   9.226  10.697 -0.7687  0.0984  0.6193
  381MOL0     C51305   5.457   9.192  10.579 -0.6350  0.5978 -0.1753
  381MOL0     C51306   5.348   9.270  10.534  0.0121  0.7329  0.2129
  381MOL0     C51307   5.304   9.379  10.607 -0.5432  0.4758  0.4750
  381MOL0     O51308   5.199   9.466  10.590  0.0039 -0.5977  0.3329
  381MOL0     C51309   5.130   9.456  10.461  0.4105 -0.7311 -0.1333
  381MOL0     C51310   5.057   9.585  10.425 -0.0727  0.1022 -0.3091
  381MOL0     C51311   4.953   9.630  10.535 -0.9666 -1.1449  0.3711
  381MOL0     C51312   4.871   9.748  10.495 -0.1879 -0.5958  0.1987
  381MOL0     C51313   4.769   9.780  10.601 -0.6776  0.0862 -0.9108
  381MOL0     C51314   4.692   9.917  10.575 -0.3582  0.5975  0.2208
  381MOL0     C51315   4.596   9.935  10.692  0.1770  0.5101  0.9221
  381MOL0     C51316   4.520  10.072  10.696 -0.1183  1.0357 -0.4307
  381MOL0     N51317   4.424  10.081  10.584  0.6826 -0.0218 -0.0821
  381MOL0     C51318   4.304  10.005  10.581  0.1688 -0.2076  0.2023
  381MOL0     C51319   4.246  10.028  10.462  0.4562  0.0770  0.5066
  381MOL0     C51320   4.109   9.967  10.426  0.0912 -0.8647 -0.1013
  381MOL0     C51321   4.006  10.070  10.455 -0.5094 -0.0552  0.2163
  381MOL0     C51322   3.867  10.009  10.433  0.6697 -0.8181 -0.0045
  381MOL0     C51323   3.741  10.084  10.481 -0.3170 -0.6366  0.4274
  381MOL0     O51324   3.629   9.999  10.443 -0.0722  0.6439  0.8150
  381MOL0     C51325   3.499  10.039  10.448 -0.2543 -0.1376  0.2226
  381MOL0     C51326   3.469  10.171  10.482 -0.5076  0.0366 -0.3810
  381MOL0     C51327   3.340  10.209  10.483 -0.7716 -1.1104 -0.8896
  381MOL0     C51328   3.312  10.341  10.541  0.3520 -0.4817  0.1516
  381MOL0     C51329   3.237  10.125  10.441  0.4358 -0.1056  0.6733
  381MOL0     C51330   3.091  10.152  10.452 -0.3167  0.3184 -0.2538
  381MOL0     O51331   3.002  10.101  10.368 -1.0645 -0.0132  0.7509
  381MOL0     C51332   2.869  10.148  10.377 -1.0188 -0.1957 -0.1397
  381MOL0     C51333   2.770  10.052  10.375  0.4209 -0.5198  0.4108
  381MOL0     C51334   2.631  10.079  10.376  1.1876  0.1064 -0.0321
  381MOL0     C51335   2.599  10.214  10.357  0.6925 -0.2698  0.0891
  381MOL0     O51336   2.469  10.243  10.364  0.4464  0.0518  0.8372
  381MOL0     C51337   2.434  10.312  10.480 -0.1962  0.3207 -0.1024
  381MOL0     C51338   2.284  10.324  10.489 -0.3336 -0.3048 -0.1044
  381MOL0     C51339   2.216  10.191  10.488 -0.1573 -0.0983  0.8963
  381MOL0     C51340   2.062  10.200  10.503  0.4615  0.1387 -0.3078
  381MOL0     C51341   1.986  10.069  10.492 -0.5115  0.3474 -0.1437
  381MOL0     C51342   2.004   9.967  10.608  0.2380 -0.0129 -0.0961
  381MOL0     C51343   1.902   9.855  10.619  0.6441  0.4658 -0.1164
  381MOL0     C51344   1.942   9.752  10.728 -0.2525  0.0777 -0.5493
  381MOL0    Cl51345   2.054   9.627  10.659  0.0574  0.0106  0.0279
  381MOL0     C51346   2.697  10.316  10.347  0.1283 -0.0930 -0.9063
  381MOL0     C51347   2.834  10.279  10.356 -0.4536 -1.1669  0.0008
  381MOL0     O51348   3.054  10.210  10.552  0.1480  0.0750  0.9569
  381MOL0     C51349   3.268   9.989  10.417 -0.7726  0.2287 -0.4629
  381MOL0     C51350   3.404   9.950  10.425  0.9701  0.6993  0.1135
  381MOL0     N51351   4.318  10.138  10.404  0.0256 -0.5205  0.2199
  381MOL0     N51352   4.429  10.166  10.476  0.2799  0.5853  0.7255
  381MOL0     C51353   5.373   9.419  10.715 -0.0797  0.4760  0.7127
  381MOL0     C51354   5.492   9.349  10.757  0.4395  0.6974 -0.5726
  381MOL0     C51355   5.794   9.002  10.802 -0.0437  1.3018 -0.1169
  381MOL0     C51356   5.824   8.868  10.832 -0.4620 -0.1495  0.2497
  381MOL0     C51357   5.942   8.839  10.913  0.0864 -0.2780  0.8059
  381MOL0     C51358   6.037   8.939  10.939  0.0377  0.9023 -0.2820
  381MOL0     O51359   6.144   8.902  11.013 -0.6897 -0.4148  0.3791
  381MOL0     C51360   6.254   8.859  10.918 -0.4073 -0.5666  0.1070
  381MOL0     C51361   6.382   8.882  10.994  0.0972  0.4322  0.3663
  381MOL0     C51362   6.375   8.792  11.120  1.3321 -0.1237 -0.1137
  381MOL0     C51363   6.452   8.852  11.239  0.2694  0.7179 -0.0708
  381MOL0     C51364   6.458   8.757  11.351  0.1557 -0.2269  0.2741
  381MOL0     C51365   6.448   8.708  11.458 -0.4891  0.2663  0.6976
  381MOL0     C51366   5.995   9.069  10.912 -0.0283 -0.2295  0.1190
  381MOL0     C51367   5.879   9.100  10.847 -0.8184 -0.0220 -1.3608
  381MOL0     H51368   5.467   9.099  10.523  1.6114  1.1906 -0.8698
  381MOL0     H51369   5.302   9.223  10.448 -1.9369  2.0002  0.4993
  381MOL0     H51370   5.196   9.453  10.374 -0.1867  3.0830 -0.9158
  381MOL0     H51371   5.053   9.378  10.461 -0.6958  0.3315  0.1127
  381MOL0     H51372   5.139   9.657  10.414  0.6807 -0.8368 -0.8999
  381MOL0     H51373   5.006   9.568  10.330 -0.4715  1.4506 -0.3677
  381MOL0     H51374   4.894   9.539  10.545  0.8442 -2.0915  4.0539
  381MOL0     H51375   5.015   9.651  10.623 -0.1835  1.0949 -0.6286
  381MOL0     H51376   4.937   9.836  10.488 -2.3271  1.0574 -0.2898
  381MOL0     H51377   4.818   9.746  10.400 -0.6535  0.9004  0.3942
  381MOL0     H51378   4.712   9.688  10.598 -0.6341  0.0822 -1.7173
  381MOL0     H51379   4.821   9.787  10.697 -1.6299  0.4833 -0.4204
  381MOL0     H51380   4.752  10.008  10.567 -2.0934  1.7500 -0.1573
  381MOL0     H51381   4.644   9.902  10.478 -1.0893 -1.1269  0.8133
  381MOL0     H51382   4.518   9.858  10.686  1.4924 -0.7617 -1.9997
  381MOL0     H51383   4.647   9.913  10.786  0.3601 -2.8604  0.1479
  381MOL0     H51384   4.588  10.158  10.688  0.6830  0.3279 -1.5018
  381MOL0     H51385   4.466  10.059  10.790  1.6004 -2.7150  0.2216
  381MOL0     H51386   4.277   9.941  10.665  3.4280  0.4654  1.9384
  381MOL0     H51387   4.119   9.941  10.320  2.6261 -0.3150 -0.0589
  381MOL0     H51388   4.091   9.873  10.479 -0.2436 -1.1332 -0.6763
  381MOL0     H51389   4.031  10.159  10.397  1.1413  0.5474  1.7288
  381MOL0     H51390   4.020  10.090  10.562 -0.5745 -1.9641  0.6324
  381MOL0     H51391   3.862   9.914  10.487  1.3914 -0.7101  0.2562
  381MOL0     H51392   3.848   9.988  10.327 -0.0656  1.7615 -0.4537
  381MOL0     H51393   3.736  10.183  10.435  0.9927 -1.2043 -1.0275
  381MOL0     H51394   3.740  10.104  10.588  0.3276  0.0759  0.3109
  381MOL0     H51395   3.545  10.245  10.507 -2.8219  1.5517  2.8193
  381MOL0     H51396   3.397  10.410  10.542 -0.7943  1.0339 -1.4048
  381MOL0     H51397   3.240  10.384  10.471  1.8547  0.9020 -0.6290
  381MOL0     H51398   3.266  10.335  10.641  0.2841 -2.2385  0.0402
  381MOL0     H51399   2.806   9.951  10.387  2.9864  0.2114 -0.4609
  381MOL0     H51400   2.548  10.009  10.386  3.3097 -2.5939  0.0418
  381MOL0     H51401   2.474  10.276  10.575  0.6907  3.6354  0.9231
  381MOL0     H51402   2.474  10.414  10.481 -0.3748  0.4287 -1.4495
  381MOL0     H51403   2.257  10.388  10.574  0.6456  1.9916 -1.4214
  381MOL0     H51404   2.249  10.381  10.402 -0.8170 -1.1478 -0.4704
  381MOL0     H51405   2.268  10.135  10.567  2.7189 -0.6512 -1.2365
  381MOL0     H51406   2.238  10.126  10.403 -2.3663 -2.0499  1.7024
  381MOL0     H51407   2.036  10.244  10.600 -0.0155 -0.2581 -0.2475
  381MOL0     H51408   2.019  10.269  10.430 -1.8273 -1.2650 -0.3976
  381MOL0     H51409   2.016  10.019  10.400  0.7834 -2.9840  1.8649
  381MOL0     H51410   1.878  10.085  10.489 -0.7249 -1.0178 -0.3553
  381MOL0     H51411   2.103   9.921  10.594  0.8039  1.7589 -2.6058
  381MOL0     H51412   1.999  10.014  10.706  0.1650  0.3176 -0.2587
  381MOL0     H51413   1.890   9.795  10.528  3.2621 -2.9069  1.5549
  381MOL0     H51414   1.809   9.900  10.656  0.3426 -1.3398  1.4393
  381MOL0     H51415   1.851   9.699  10.758 -0.4846  0.5490 -0.4221
  381MOL0     H51416   1.975   9.792  10.824 -0.0578  3.5802 -1.9463
  381MOL0     H51417   2.659  10.416  10.334  0.1676 -0.1189 -1.2131
  381MOL0     H51418   2.921  10.344  10.352 -2.3219  1.6629  1.6686
  381MOL0     H51419   3.196   9.913  10.391  1.3320 -1.5815 -1.3345
  381MOL0     H51420   3.417   9.843  10.414  0.1156  0.2430  2.6483
  381MOL0     H51421   5.340   9.510  10.764  0.7169 -0.7836  3.8224
  381MOL0     H51422   5.544   9.370  10.851 -3.0228 -0.1990  1.7210
  381MOL0     H51423   5.767   8.787  10.786 -2.6448  1.6234 -0.3400
  381MOL0     H51424   5.963   8.737  10.942  1.0815 -1.3707 -3.2053
  381MOL0     H51425   6.244   8.754  10.887 -1.3789  0.0621 -1.8888
  381MOL0     H51426   6.251   8.911  10.822 -2.3970  2.5983  1.7207
  381MOL0     H51427   6.393   8.985  11.026 -0.8149  0.0541  1.9979
  381MOL0     H51428   6.463   8.852  10.927  0.9644  0.6129  1.3215
  381MOL0     H51429   6.419   8.697  11.087  3.6381  1.3161 -1.5330
  381MOL0     H51430   6.273   8.765  11.147  2.0734 -2.6911  0.4058
  381MOL0     H51431   6.395   8.941  11.266  0.3371  1.5086 -2.3481
  381MOL0     H51432   6.552   8.881  11.207 -0.0307  4.5920  1.9643
  381MOL0     H51433   6.431   8.653  11.549  1.2760 -0.2474  0.7544
  381MOL0     H51434   6.053   9.154  10.947 -0.7739 -0.8269  3.0454
  381MOL0     H51435   5.860   9.205  10.826 -1.4450 -0.0320 -0.8714
  382MOL0     O51436   8.801   5.815  10.931  0.8541  0.3150 -0.3684
  382MOL0     C51437   8.802   5.821  11.053 -0.0480 -1.1877  1.0361
  382MOL0     O51438   8.906   5.874  11.121 -0.4296 -0.5042  0.7836
  382MOL0     C51439   9.004   5.936  11.045 -0.7423  0.4357  0.2229
  382MOL0     C51440   9.139   5.887  11.043  1.1812  0.1893  0.0790
  382MOL0     C51441   9.236   5.952  10.970 -0.0764  0.4408 -0.5485
  382MOL0     C51442   9.212   6.064  10.898  0.3657 -0.3274  0.4100
  382MOL0     O51443   9.320   6.113  10.833 -0.0614 -0.1931  0.0144
  382MOL0     C51444   9.302   6.242  10.760 -0.1253 -0.0436  0.3225
  382MOL0     C51445   9.426   6.272  10.675  0.5496  0.6334 -0.3727
  382MOL0     C51446   9.435   6.169  10.554  0.4491 -0.6896 -0.3522
  382MOL0     C51447   9.569   6.198  10.478 -0.1854 -0.0314 -0.3766
  382MOL0     C51448   9.590   6.092  10.373  0.3623  0.5485  0.0973
  382MOL0     C51449   9.721   6.124  10.306 -0.7728 -0.5348  0.8012
  382MOL0     C51450   9.727   6.038  10.173  0.1898  0.4995 -0.5360
  382MOL0     C51451   9.845   6.078  10.078  0.6208  0.2711 -0.5902
  382MOL0     N51452   9.825   6.033   9.936 -0.3758  0.0055  0.8693
  382MOL0     C51453   9.898   5.938   9.875  0.4162  0.4593  0.4126
  382MOL0     C51454   9.824   5.905   9.760  1.1071 -0.2056 -0.0451
  382MOL0     C51455   9.847   5.808   9.653 -0.4474 -0.5840 -0.6674
  382MOL0     C51456   9.841   5.867   9.515 -0.6729  0.0796  0.2744
  382MOL0     C51457   9.813   5.769   9.396 -0.0487 -0.4895  0.0780
  382MOL0     C51458   9.670   5.764   9.351 -0.6683  0.4333 -0.0709
  382MOL0     O51459   9.661   5.697   9.231  0.0917 -0.7243  0.0887
  382MOL0     C51460   9.547   5.625   9.218  0.4668  0.5340 -0.9886
  382MOL0     C51461   9.413   5.677   9.219  0.0713 -0.0973  0.0753
  382MOL0     C51462   9.311   5.594   9.187  0.7110  0.0927 -0.6338
  382MOL0     C51463   9.171   5.652   9.170  0.1057 -0.1477 -0.1094
  382MOL0     C51464   9.334   5.449   9.178 -0.4961 -1.3959 -0.1929
  382MOL0     C51465   9.219   5.349   9.159 -0.1609  0.2173  0.6926
  382MOL0     O51466   9.125   5.380   9.056 -0.6681  0.0451  0.4551
  382MOL0     C51467   9.027   5.291   9.033  0.2975  0.3890 -0.2860
  382MOL0     C51468   8.949   5.228   9.133 -0.1308  0.1995 -0.1563
  382MOL0     C51469   8.837   5.163   9.092  0.6137 -0.7991  0.9756
  382MOL0     C51470   8.790   5.156   8.960  0.5380 -0.5488  0.0681
  382MOL0     O51471   8.681   5.083   8.938 -0.1867  0.3326  0.3240
  382MOL0     C51472   8.654   5.052   8.802 -0.5122  0.1868 -0.1726
  382MOL0     C51473   8.540   4.947   8.785  0.1701  0.4058  0.6712
  382MOL0     C51474   8.401   5.018   8.783  0.3636  0.6970  0.8310
  382MOL0     C51475   8.357   5.032   8.638 -0.0184 -0.5353  0.8680
  382MOL0     C51476   8.203   5.029   8.612  0.1038 -0.1498  0.1124
  382MOL0     C51477   8.184   5.034   8.456  0.5354 -0.2641 -0.4545
  382MOL0     C51478   8.052   5.104   8.414  0.9392  0.3506 -0.3398
  382MOL0     C51479   7.935   5.014   8.447 -0.0310 -0.2353 -0.1400
  382MOL0    Cl51480   7.785   5.082   8.369 -0.2675 -0.6015  0.0740
  382MOL0     C51481   8.868   5.225   8.859  0.1274 -0.5259 -0.2394
  382MOL0     C51482   8.989   5.280   8.896 -0.1862 -0.1133 -0.3403
  382MOL0     O51483   9.231   5.239   9.212  0.3863  0.0941 -0.8129
  382MOL0     C51484   9.460   5.398   9.195  0.0994  0.6764 -0.2681
  382MOL0     C51485   9.564   5.490   9.213 -0.1956 -0.0301  0.0199
  382MOL0     N51486   9.707   5.977   9.764 -0.8721 -0.1234 -0.4287
  382MOL0     N51487   9.708   6.048   9.869  0.8174  0.4452 -0.2012
  382MOL0     C51488   9.086   6.118  10.897  0.4359  0.5274  0.6053
  382MOL0     C51489   8.980   6.047  10.972 -1.0023  0.6589  0.5550
  382MOL0     C51490   8.690   5.773  11.132  0.1649  0.1054 -0.4569
  382MOL0     C51491   8.561   5.759  11.075 -0.4387 -0.6655 -0.0245
  382MOL0     C51492   8.459   5.708  11.147 -0.1622  0.0493 -0.9332
  382MOL0     C51493   8.466   5.684  11.282 -0.7621  0.9116  0.1392
  382MOL0     O51494   8.358   5.617  11.329  0.0603 -0.3779  0.1634
  382MOL0     C51495   8.315   5.670  11.460 -0.2109 -0.6439 -0.1085
  382MOL0     C51496   8.165   5.670  11.465  0.4937 -0.4977  0.2839
  382MOL0     C51497   8.095   5.706  11.338  0.5295 -0.0591  0.5117
  382MOL0     C51498   7.942   5.685  11.349 -0.5652  0.8751 -0.2800
  382MOL0     C51499   7.857   5.719  11.232 -0.0096  0.0038 -0.8327
  382MOL0     C51500   7.779   5.744  11.143 -0.2714 -0.3111  0.0488
  382MOL0     C51501   8.585   5.710  11.355  0.1885  0.1697  1.1074
  382MOL0     C51502   8.692   5.758  11.276  0.0593 -0.4403 -0.0886
  382MOL0     H51503   9.168   5.788  11.075 -2.0614 -0.1167  2.6497
  382MOL0     H51504   9.341   5.939  10.995 -0.5225  0.3297  1.4101
  382MOL0     H51505   9.210   6.236  10.702  0.0649 -3.5062  0.1993
  382MOL0     H51506   9.298   6.320  10.836 -0.8371 -0.6729  0.9438
  382MOL0     H51507   9.416   6.377  10.646 -1.0062  0.4072 -0.7470
  382MOL0     H51508   9.517   6.261  10.735  0.6098  1.0874 -0.3798
  382MOL0     H51509   9.436   6.069  10.597  1.1313  0.0934  1.5743
  382MOL0     H51510   9.362   6.179  10.474  1.4692 -0.4549 -1.2875
  382MOL0     H51511   9.570   6.298  10.435  0.4824  1.8532  3.6480
  382MOL0     H51512   9.648   6.194  10.553  0.7463 -2.1579 -1.3620
  382MOL0     H51513   9.602   5.995  10.423  0.0367  0.6196  0.3138
  382MOL0     H51514   9.504   6.082  10.306  0.3475  0.9508  0.0575
  382MOL0     H51515   9.733   6.228  10.273  4.1054 -0.4893  1.8719
  382MOL0     H51516   9.806   6.104  10.372  0.0388 -2.9225 -0.8679
  382MOL0     H51517   9.721   5.933  10.203 -4.1597  0.6698 -0.2428
  382MOL0     H51518   9.633   6.064  10.123 -0.9026  0.1202  1.2210
  382MOL0     H51519   9.944   6.051  10.119  0.4682  0.6693  0.0539
  382MOL0     H51520   9.841   6.187  10.079 -2.1894  0.3134  2.7985
  382MOL0     H51521   9.983   5.886   9.917 -2.6753 -4.0554  1.7846
  382MOL0     H51522   9.937   5.748   9.662  1.3480  2.1325  1.1526
  382MOL0     H51523   9.773   5.728   9.664 -0.3708 -0.4124  1.6479
  382MOL0     H51524   9.937   5.919   9.510 -0.1480 -0.7385  1.3722
  382MOL0     H51525   9.763   5.942   9.502 -1.4102 -0.6597  0.3100
  382MOL0     H51526   9.845   5.669   9.425  0.0415 -0.4100  0.2528
  382MOL0     H51527   9.870   5.801   9.308  0.0316  0.8193  0.5748
  382MOL0     H51528   9.632   5.865   9.329 -0.4497  0.2964 -1.1218
  382MOL0     H51529   9.611   5.725   9.435  0.4532  2.8770  1.9949
  382MOL0     H51530   9.406   5.785   9.213 -0.9127 -0.0798  1.2316
  382MOL0     H51531   9.113   5.646   9.263  0.5068 -0.5063  0.1192
  382MOL0     H51532   9.174   5.757   9.139  1.9869  0.5604  2.2270
  382MOL0     H51533   9.119   5.620   9.079  1.6192 -2.3213 -0.2756
  382MOL0     H51534   8.975   5.226   9.239  0.1281  1.2719 -0.1806
  382MOL0     H51535   8.777   5.103   9.160 -1.0619 -0.0826  0.1948
  382MOL0     H51536   8.625   5.135   8.737 -0.9111 -0.3524 -0.7000
  382MOL0     H51537   8.744   4.997   8.771 -0.6870 -1.5904  2.1625
  382MOL0     H51538   8.571   4.880   8.704  0.3072 -3.0936  3.3725
  382MOL0     H51539   8.542   4.880   8.871 -1.7885 -0.7407 -0.1074
  382MOL0     H51540   8.415   5.102   8.852  3.8454  1.3536 -0.4658
  382MOL0     H51541   8.330   4.945   8.823 -1.4703  0.9798 -1.6527
  382MOL0     H51542   8.406   5.119   8.594 -0.3991  0.0806  1.6561
  382MOL0     H51543   8.393   4.944   8.584 -0.6977 -1.8554  2.4732
  382MOL0     H51544   8.160   5.121   8.654  3.5168  1.2984  0.8139
  382MOL0     H51545   8.156   4.943   8.661  1.0858  0.2315  1.8369
  382MOL0     H51546   8.273   5.073   8.406 -0.8923  0.0888 -2.8975
  382MOL0     H51547   8.190   4.932   8.416  0.9395  0.4596 -2.3486
  382MOL0     H51548   8.062   5.137   8.310 -0.8347  0.6143 -0.4511
  382MOL0     H51549   8.031   5.196   8.468 -2.1436 -0.3069 -0.2845
  382MOL0     H51550   7.913   5.022   8.554 -1.1049  4.2392 -0.4777
  382MOL0     H51551   7.940   4.912   8.408 -2.5626 -0.9594  1.1691
  382MOL0     H51552   8.845   5.228   8.753  1.5809 -0.3768 -0.5734
  382MOL0     H51553   9.053   5.336   8.829 -0.9232  0.4864 -0.5590
  382MOL0     H51554   9.478   5.291   9.192 -1.9011  0.3122 -3.1143
  382MOL0     H51555   9.653   5.432   9.229 -1.0428 -1.3951 -0.0708
  382MOL0     H51556   9.070   6.209  10.841  1.6817  0.2789 -0.1923
  382MOL0     H51557   8.880   6.084  10.953 -1.0904  0.4311  0.5716
  382MOL0     H51558   8.550   5.778  10.969  0.1991  0.9714  0.1663
  382MOL0     H51559   8.365   5.697  11.094 -0.4114 -1.2838 -0.2353
  382MOL0     H51560   8.353   5.611  11.545  2.5796  0.3728 -0.5564
  382MOL0     H51561   8.341   5.775  11.476 -2.3589  0.0410 -0.8274
  382MOL0     H51562   8.125   5.739  11.540  1.0776  1.2280 -0.9154
  382MOL0     H51563   8.129   5.572  11.495  1.0492 -0.8988 -0.3322
  382MOL0     H51564   8.128   5.639  11.258 -0.7662 -1.0442  0.7762
  382MOL0     H51565   8.103   5.811  11.307 -0.3889 -0.6574 -2.0082
  382MOL0     H51566   7.916   5.752  11.431 -0.5783 -0.1098  0.5458
  382MOL0     H51567   7.924   5.587  11.394  0.4771  1.4891  1.5747
  382MOL0     H51568   7.718   5.768  11.058  1.3160  1.9051 -0.5388
  382MOL0     H51569   8.600   5.701  11.462 -2.2540  1.4647  1.6173
  382MOL0     H51570   8.780   5.791  11.331 -0.3129  2.2467 -0.9465
  383MOL0     O51571  10.394  10.996   0.028  0.2892 -0.1338 -0.0941
  383MOL0     C51572  10.492  11.058  -0.010 -0.8652 -0.0048 -0.1084
  383MOL0     O51573  10.490  11.170  -0.088  0.1799  0.4487  0.1180
  383MOL0     C51574  10.379  11.221  -0.147 -0.1316 -0.7114 -0.1235
  383MOL0     C51575  10.368  11.365  -0.167 -0.4401 -0.5210  0.0010
  383MOL0     C51576  10.255  11.425  -0.223  0.4019 -0.2053 -0.4378
  383MOL0     C51577  10.157  11.345  -0.280  0.1814  0.4087  0.6175
  383MOL0     O51578  10.053  11.385  -0.361  0.4107 -0.0856 -0.2949
  383MOL0     C51579  10.039  11.527  -0.393  0.1428  0.4181 -0.3657
  383MOL0     C51580   9.928  11.527  -0.504 -0.0019  0.1152 -0.2072
  383MOL0     C51581   9.797  11.480  -0.458  1.0402 -0.1393 -0.0062
  383MOL0     C51582   9.732  11.371  -0.538  0.5377  0.3577 -0.3053
  383MOL0     C51583   9.583  11.377  -0.515 -0.2301  0.0883 -0.2680
  383MOL0     C51584   9.527  11.247  -0.581 -0.0809 -0.5908 -0.0802
  383MOL0     C51585   9.379  11.230  -0.540  0.7044  0.3133 -1.0189
  383MOL0     C51586   9.320  11.133  -0.641 -0.4294  0.0485  0.0984
  383MOL0     N51587   9.173  11.100  -0.632  0.5989  0.1806  0.5641
  383MOL0     C51588   9.069  11.181  -0.675 -0.3387  0.3474  0.3755
  383MOL0     C51589   8.959  11.110  -0.661  0.2630 -0.6305  0.7498
  383MOL0     C51590   8.822  11.162  -0.686 -0.0273  0.5592  0.1596
  383MOL0     C51591   8.716  11.093  -0.609  0.5952  0.3089 -0.6476
  383MOL0     C51592   8.583  11.157  -0.612 -0.1728 -0.7464  0.1793
  383MOL0     C51593   8.525  11.167  -0.754  0.2976 -0.4082 -0.5183
  383MOL0     O51594   8.392  11.212  -0.752  0.2295 -0.0339 -0.7388
  383MOL0     C51595   8.316  11.207  -0.864  0.2820  0.5633 -0.1217
  383MOL0     C51596   8.189  11.256  -0.856  0.1231 -0.3478 -0.6010
  383MOL0     C51597   8.088  11.250  -0.954 -0.3089  0.0181  0.1606
  383MOL0     C51598   7.956  11.318  -0.937  1.4383 -0.8008 -0.5381
  383MOL0     C51599   8.121  11.172  -1.070  0.1540  0.3644 -0.2069
  383MOL0     C51600   8.017  11.127  -1.174 -0.6930 -0.0425 -0.0519
  383MOL0     O51601   7.896  11.094  -1.124 -0.4911 -0.0566 -0.8595
  383MOL0     C51602   7.806  11.044  -1.208  0.3948  0.3322 -0.2376
  383MOL0     C51603   7.690  11.110  -1.245 -0.5071 -0.2091 -0.1134
  383MOL0     C51604   7.598  11.029  -1.313  0.4198  1.0573 -0.0992
  383MOL0     C51605   7.611  10.893  -1.340  0.0354 -0.7380 -0.4890
  383MOL0     O51606   7.516  10.826  -1.411  0.4896 -0.5024 -0.5625
  383MOL0     C51607   7.554  10.710  -1.492 -0.4319 -0.2597  0.2393
  383MOL0     C51608   7.439  10.664  -1.569 -0.4151  1.2652 -0.1824
  383MOL0     C51609   7.443  10.710  -1.715  0.4049  0.1525 -0.1315
  383MOL0     C51610   7.326  10.666  -1.795 -0.2653  0.5110 -0.8639
  383MOL0     C51611   7.320  10.730  -1.942  0.3041 -0.2921  0.5203
  383MOL0     C51612   7.213  10.831  -1.964 -0.0167  0.0209 -0.2004
  383MOL0     C51613   7.203  10.879  -2.124 -0.1641  0.3490 -0.1135
  383MOL0     C51614   7.097  10.999  -2.152 -0.3511  0.6315 -0.2315
  383MOL0    Cl51615   6.930  10.938  -2.143 -0.0918  0.0798 -0.6437
  383MOL0     C51616   7.726  10.837  -1.301  0.4433 -0.5001 -0.1437
  383MOL0     C51617   7.818  10.907  -1.233  0.3592 -0.4006  0.1348
  383MOL0     O51618   8.047  11.111  -1.291  0.0755  0.3939 -0.2346
  383MOL0     C51619   8.256  11.126  -1.086 -0.3557 -1.2163 -0.4008
  383MOL0     C51620   8.351  11.140  -0.980 -0.1528 -0.7335 -0.3340
  383MOL0     N51621   8.991  10.988  -0.603 -0.1162 -0.5482  0.2209
  383MOL0     N51622   9.120  10.982  -0.588  0.0357 -0.1005  0.0021
  383MOL0     C51623  10.164  11.209  -0.265 -0.3448 -0.2572  0.6365
  383MOL0     C51624  10.268  11.146  -0.197  0.0316  0.0713  0.7705
  383MOL0     C51625  10.626  11.003   0.034  0.7219  0.2417  0.5076
  383MOL0     C51626  10.742  11.048  -0.021  0.0017 -0.5870  0.1268
  383MOL0     C51627  10.869  11.003   0.028  0.1387 -0.3287 -0.5095
  383MOL0     C51628  10.873  10.909   0.133  0.1432  0.2699  0.5427
  383MOL0     O51629  10.996  10.861   0.192  0.4440  0.0942 -0.4314
  383MOL0     C51630  11.114  10.932   0.149  0.5072  0.1240  0.0891
  383MOL0     C51631  11.225  10.858   0.226 -0.3739 -0.0814 -0.0223
  383MOL0     C51632  11.350  10.937   0.226  0.2770 -0.2636 -0.2380
  383MOL0     C51633  11.471  10.842   0.222  0.4687  0.0363  0.1737
  383MOL0     C51634  11.456  10.744   0.335 -0.1665 -0.8462  0.7815
  383MOL0     C51635  11.443  10.659   0.418 -0.1040 -0.3890  0.7402
  383MOL0     C51636  10.757  10.865   0.198  0.4564  0.3348  0.1201
  383MOL0     C51637  10.634  10.919   0.150 -0.0949 -1.1210 -0.4529
  383MOL0     H51638  10.448  11.427  -0.126 -0.7293 -0.6475  0.7709
  383MOL0     H51639  10.254  11.531  -0.245  0.0349 -0.3774 -1.2840
  383MOL0     H51640  10.005  11.578  -0.303  2.5930  0.3273  0.7072
  383MOL0     H51641  10.130  11.573  -0.433 -0.3174  2.5548  0.8675
  383MOL0     H51642   9.909  11.631  -0.530 -1.8226 -0.0217  0.4455
  383MOL0     H51643   9.967  11.466  -0.587  1.1570  1.4554 -0.6847
  383MOL0     H51644   9.801  11.450  -0.352  2.5197 -4.8495 -1.1397
  383MOL0     H51645   9.727  11.562  -0.473  0.3704 -0.3575  1.6825
  383MOL0     H51646   9.756  11.383  -0.644 -0.8132 -2.5682 -1.0553
  383MOL0     H51647   9.767  11.272  -0.505  1.8459  0.6624 -0.7040
  383MOL0     H51648   9.561  11.380  -0.408 -2.6076 -0.2828 -0.6864
  383MOL0     H51649   9.533  11.464  -0.559  0.2374  1.2858  1.4528
  383MOL0     H51650   9.531  11.254  -0.690  0.6148  0.4160  0.0046
  383MOL0     H51651   9.582  11.163  -0.538  2.3310  1.2824  0.6606
  383MOL0     H51652   9.360  11.189  -0.440  0.5320  1.5989 -0.5050
  383MOL0     H51653   9.324  11.325  -0.543 -0.8288 -0.0555  4.3595
  383MOL0     H51654   9.382  11.044  -0.644  2.9899  2.1719  1.7882
  383MOL0     H51655   9.333  11.178  -0.740  0.2846 -0.4494 -0.0364
  383MOL0     H51656   9.082  11.285  -0.704  0.4643  0.2073  0.2109
  383MOL0     H51657   8.817  11.270  -0.671 -1.6624  0.7276 -1.2544
  383MOL0     H51658   8.804  11.141  -0.792  1.3155 -1.8820  0.3169
  383MOL0     H51659   8.739  11.089  -0.502 -1.2204 -4.5612 -0.1865
  383MOL0     H51660   8.713  10.987  -0.634  3.1240 -0.3756  1.4832
  383MOL0     H51661   8.587  11.258  -0.570  1.0524 -1.2741  1.3914
  383MOL0     H51662   8.512  11.087  -0.565  0.0324 -0.6580  0.6291
  383MOL0     H51663   8.540  11.071  -0.804  3.3846  0.1574 -0.8323
  383MOL0     H51664   8.592  11.235  -0.807  0.4607 -1.1786 -1.3271
  383MOL0     H51665   8.159  11.292  -0.758 -3.7750 -4.0065 -0.1311
  383MOL0     H51666   7.965  11.399  -0.864  0.1163  0.3870 -1.6271
  383MOL0     H51667   7.925  11.377  -1.023  2.9666  1.0856  0.1328
  383MOL0     H51668   7.871  11.254  -0.911  0.2332  0.9675  0.0884
  383MOL0     H51669   7.682  11.214  -1.218  2.2960 -0.5211  2.4847
  383MOL0     H51670   7.508  11.080  -1.343 -1.0425 -1.7193 -0.7834
  383MOL0     H51671   7.634  10.725  -1.566 -1.4210 -0.7078 -0.9462
  383MOL0     H51672   7.577  10.631  -1.420 -0.1064  0.2112  0.6601
  383MOL0     H51673   7.453  10.556  -1.583  4.0990  1.1369  3.1809
  383MOL0     H51674   7.340  10.683  -1.526  0.0732  1.5567  0.8347
  383MOL0     H51675   7.537  10.685  -1.764  0.4682  1.7605 -0.8841
  383MOL0     H51676   7.437  10.819  -1.714 -1.8772  0.1383 -2.4671
  383MOL0     H51677   7.326  10.557  -1.794  0.1898  0.5052 -0.1137
  383MOL0     H51678   7.238  10.696  -1.737 -1.2053 -4.8034  1.0365
  383MOL0     H51679   7.307  10.642  -2.006  1.2917 -1.7324  2.2255
  383MOL0     H51680   7.414  10.778  -1.970  0.1907 -0.3819 -0.0341
  383MOL0     H51681   7.116  10.793  -1.932  0.0501  0.6510  0.7749
  383MOL0     H51682   7.244  10.917  -1.905  3.1927 -1.8502  1.1545
  383MOL0     H51683   7.188  10.792  -2.188 -0.7889  1.5614 -1.6648
  383MOL0     H51684   7.301  10.912  -2.161 -0.1248 -0.3237 -0.6211
  383MOL0     H51685   7.112  11.054  -2.245 -1.6843  1.0704 -0.2050
  383MOL0     H51686   7.113  11.072  -2.072  1.6638  0.1331 -0.1284
  383MOL0     H51687   7.750  10.736  -1.333  0.2137 -0.2940 -0.9798
  383MOL0     H51688   7.906  10.847  -1.214  0.0333 -0.5115  1.4510
  383MOL0     H51689   8.283  11.073  -1.177 -2.4930  0.2102 -1.9815
  383MOL0     H51690   8.452  11.102  -0.993 -1.1919 -3.6924 -0.6395
  383MOL0     H51691  10.083  11.145  -0.299  0.5223 -1.1235  0.1526
  383MOL0     H51692  10.270  11.038  -0.189 -2.0058 -0.2616 -1.8012
  383MOL0     H51693  10.747  11.133  -0.087  0.9323  0.7138  1.7916
  383MOL0     H51694  10.953  11.051  -0.022  0.8099  0.5641  1.3931
  383MOL0     H51695  11.118  10.929   0.040 -0.5205  0.7999  0.0208
  383MOL0     H51696  11.098  11.035   0.179 -4.0058  0.0863 -1.4221
  383MOL0     H51697  11.248  10.768   0.168 -4.1732  0.5432 -2.9159
  383MOL0     H51698  11.197  10.840   0.330  0.3613 -0.1899  0.1609
  383MOL0     H51699  11.341  10.997   0.317 -3.6097  1.2466 -1.4159
  383MOL0     H51700  11.367  11.004   0.141 -0.2558  0.0446 -0.1088
  383MOL0     H51701  11.560  10.904   0.235  0.0843  1.5523 -3.3222
  383MOL0     H51702  11.484  10.803   0.121  2.5300  1.4165 -0.1687
  383MOL0     H51703  11.419  10.583   0.489 -2.2138  0.0391  0.5492
  383MOL0     H51704  10.764  10.798   0.284  1.3145 -1.4703 -1.2910
  383MOL0     H51705  10.541  10.902   0.203  0.6286  1.3408  1.8125
  384MOL0     O51706   0.574  10.262  10.652 -0.0991 -0.5391  0.6119
  384MOL0     C51707   0.567  10.175  10.568 -0.5276 -0.1759 -0.0684
  384MOL0     O51708   0.473  10.174  10.460  0.2681 -0.1857  0.7584
  384MOL0     C51709   0.355  10.246  10.467 -0.9268  0.0707  0.2722
  384MOL0     C51710   0.243  10.192  10.416  0.1850  0.1466  0.2357
  384MOL0     C51711   0.127  10.267  10.413  0.1661 -0.4466 -0.2552
  384MOL0     C51712   0.117  10.400  10.461  0.2836 -0.2939  0.6513
  384MOL0     O51713   0.004  10.480  10.470  0.4230 -0.1235  0.3006
  384MOL0     C51714  -0.120  10.411  10.475 -0.6868  0.2869 -0.9268
  384MOL0     C51715  -0.230  10.508  10.478  0.7906  0.2977  0.1476
  384MOL0     C51716  -0.383  10.459  10.501 -0.1167  0.1298  1.0265
  384MOL0     C51717  -0.420  10.424  10.650  0.4366 -0.3248  1.0878
  384MOL0     C51718  -0.569  10.419  10.658 -0.1121 -0.7671 -0.1187
  384MOL0     C51719  -0.620  10.351  10.786  0.1445 -0.7586  1.1164
  384MOL0     C51720  -0.770  10.389  10.804 -0.3124 -0.3260 -0.4966
  384MOL0     C51721  -0.788  10.343  10.951 -0.1222  0.2894 -0.0774
  384MOL0     N51722  -0.931  10.326  10.976 -0.2306  0.1739  0.0299
  384MOL0     C51723  -1.007  10.250  10.893  0.7966  0.5200 -0.4348
  384MOL0     C51724  -1.130  10.271  10.944 -0.4779 -0.0046  0.2459
  384MOL0     C51725  -1.266  10.215  10.899  0.3875  0.5044  0.3101
  384MOL0     C51726  -1.373  10.315  10.847  0.1846  0.2158  0.6773
  384MOL0     C51727  -1.471  10.371  10.957  0.2384  0.2168  0.4243
  384MOL0     C51728  -1.562  10.267  11.012  0.4173  0.1723 -0.5263
  384MOL0     O51729  -1.700  10.324  11.003 -0.2726  0.0967 -0.0902
  384MOL0     C51730  -1.802  10.233  11.001  0.8257 -0.2091  0.0236
  384MOL0     C51731  -1.797  10.098  11.045  0.0222  0.8083 -0.0871
  384MOL0     C51732  -1.905  10.001  11.030 -0.1568 -0.1224  0.5160
  384MOL0     C51733  -1.897   9.863  11.082  0.2636  0.7575  0.1030
  384MOL0     C51734  -2.026  10.059  10.971  0.1572  1.1614  0.0142
  384MOL0     C51735  -2.153   9.977  10.956 -0.1655 -0.4558 -1.1912
  384MOL0     O51736  -2.274  10.045  10.980  0.2105  0.4982  0.5181
  384MOL0     C51737  -2.391   9.966  10.978  0.5148  0.3309  0.0481
  384MOL0     C51738  -2.495   9.990  10.885 -0.2819 -0.7485 -1.3604
  384MOL0     C51739  -2.612   9.916  10.894 -0.2940  0.5676  0.2467
  384MOL0     C51740  -2.630   9.800  10.965 -0.8541  0.2979 -0.6976
  384MOL0     O51741  -2.747   9.730  10.955  0.0340 -0.2254  0.0135
  384MOL0     C51742  -2.747   9.596  11.009 -0.2674  0.0405 -0.1750
  384MOL0     C51743  -2.677   9.507  10.901  1.0825  0.4357 -0.9834
  384MOL0     C51744  -2.709   9.359  10.924  0.0377  0.1353  0.4374
  384MOL0     C51745  -2.855   9.320  10.884 -0.0926  0.4205  0.3389
  384MOL0     C51746  -2.906   9.200  10.961  0.0760  0.7823 -0.4716
  384MOL0     C51747  -3.019   9.125  10.887  0.3831  1.0395 -0.0907
  384MOL0     C51748  -3.059   9.000  10.972 -1.2117  0.0383  0.2182
  384MOL0     C51749  -3.196   8.941  10.938 -0.3353  0.4800 -0.3494
  384MOL0    Cl51750  -3.330   9.066  10.946  0.2240  0.0455  0.1166
  384MOL0     C51751  -2.523   9.771  11.054  0.0545 -0.7545 -0.3870
  384MOL0     C51752  -2.404   9.852  11.056 -0.1740  0.1397 -0.4414
  384MOL0     O51753  -2.144   9.860  10.930 -0.6472  0.1865  0.1899
  384MOL0     C51754  -2.030  10.185  10.927  0.0836 -0.4925 -1.1857
  384MOL0     C51755  -1.921  10.274  10.941  0.0310 -0.6976 -0.1583
  384MOL0     N51756  -1.125  10.373  11.043 -0.6556 -0.2387  0.1237
  384MOL0     N51757  -1.001  10.396  11.066  0.7456 -0.2890 -0.0771
  384MOL0     C51758   0.237  10.452  10.506  0.2907 -0.9007 -0.3871
  384MOL0     C51759   0.355  10.379  10.514 -0.0041  0.0065 -0.0962
  384MOL0     C51760   0.661  10.054  10.579 -0.4133  0.7217  0.3523
  384MOL0     C51761   0.671   9.959  10.480 -0.0817 -0.6457 -0.4822
  384MOL0     C51762   0.771   9.854  10.494 -0.1900  0.1331  0.1891
  384MOL0     C51763   0.862   9.854  10.593 -0.1613  0.0832  0.4662
  384MOL0     O51764   0.963   9.761  10.589  0.2927 -0.6278  0.2048
  384MOL0     C51765   1.059   9.751  10.694  0.4782  0.0262 -0.3452
  384MOL0     C51766   1.187   9.664  10.660 -0.5975 -0.3168 -0.3876
  384MOL0     C51767   1.286   9.707  10.769 -0.1461  0.6036  0.2226
  384MOL0     C51768   1.384   9.589  10.803 -0.6255 -0.1478  0.1736
  384MOL0     C51769   1.476   9.587  10.694  0.3605  1.2234 -0.1366
  384MOL0     C51770   1.554   9.590  10.602 -0.7879  0.8945 -0.8423
  384MOL0     C51771   0.849   9.951  10.697  0.4154 -0.5925 -0.0669
  384MOL0     C51772   0.752  10.052  10.689 -0.1331 -0.6789  1.0948
  384MOL0     H51773   0.245  10.087  10.388  1.0208  0.7201 -2.1713
  384MOL0     H51774   0.047  10.205  10.373  0.0989 -0.0738 -0.7007
  384MOL0     H51775  -0.131  10.367  10.376 -2.6026  0.5915 -0.8910
  384MOL0     H51776  -0.122  10.341  10.560  4.2175  2.4447  1.3799
  384MOL0     H51777  -0.212  10.583  10.556  1.5711  4.7397 -3.8089
  384MOL0     H51778  -0.227  10.552  10.378 -1.0115  1.2712  0.4681
  384MOL0     H51779  -0.454  10.530  10.457  0.2949  0.8650  1.5296
  384MOL0     H51780  -0.390  10.371  10.437  1.9702  2.6891 -3.0931
  384MOL0     H51781  -0.394  10.318  10.659 -1.7516 -1.1594 -1.2833
  384MOL0     H51782  -0.368  10.480  10.729  1.8324 -1.3700  0.9641
  384MOL0     H51783  -0.608  10.522  10.654  0.5535 -0.5498 -1.6029
  384MOL0     H51784  -0.606  10.363  10.571  3.0298 -0.4221 -1.8009
  384MOL0     H51785  -0.611  10.242  10.788  3.5510 -0.5907  4.6823
  384MOL0     H51786  -0.560  10.392  10.868  1.0601  0.2829 -0.0296
  384MOL0     H51787  -0.787  10.497  10.793  1.1913  0.1832  1.5735
  384MOL0     H51788  -0.842  10.336  10.741 -1.0250  0.4914 -0.3772
  384MOL0     H51789  -0.740  10.421  11.010  1.4416  2.1974 -3.6021
  384MOL0     H51790  -0.736  10.246  10.960 -2.3827 -0.9280  0.8032
  384MOL0     H51791  -0.975  10.180  10.816 -1.6035 -3.5560  1.9067
  384MOL0     H51792  -1.247  10.144  10.818  0.1199 -1.2201  1.6869
  384MOL0     H51793  -1.306  10.156  10.982 -0.2763  1.5276  0.7366
  384MOL0     H51794  -1.423  10.271  10.761 -0.9533  0.9505  0.9479
  384MOL0     H51795  -1.316  10.404  10.818  0.0005  0.1695  0.1644
  384MOL0     H51796  -1.522  10.443  10.892  1.2687 -0.8069 -1.6221
  384MOL0     H51797  -1.408  10.409  11.039  0.0792 -2.3548  1.8329
  384MOL0     H51798  -1.534  10.249  11.116 -2.3131 -2.6912 -0.1399
  384MOL0     H51799  -1.544  10.172  10.962 -1.0438 -1.6285  2.1022
  384MOL0     H51800  -1.710  10.053  11.092 -0.0003 -1.4653 -2.0134
  384MOL0     H51801  -1.814   9.861  11.153 -0.3950 -0.8604  0.8825
  384MOL0     H51802  -1.992   9.851  11.136  0.5836  1.6942  0.9064
  384MOL0     H51803  -1.891   9.777  11.015  2.2023  1.1578 -0.2914
  384MOL0     H51804  -2.492  10.077  10.821  0.3029  0.7665  0.6332
  384MOL0     H51805  -2.687   9.947  10.823  0.1105  0.5581 -0.1894
  384MOL0     H51806  -2.709   9.576  11.110 -4.7453 -2.9871  1.2388
  384MOL0     H51807  -2.851   9.563  11.021 -0.1349 -0.2231  0.2974
  384MOL0     H51808  -2.706   9.527  10.798 -0.0889  0.5041 -0.6548
  384MOL0     H51809  -2.569   9.522  10.914  1.2527 -2.2549  2.0419
  384MOL0     H51810  -2.692   9.342  11.031 -1.0671  1.0105  0.7658
  384MOL0     H51811  -2.639   9.290  10.875  3.1340 -0.4797  5.0173
  384MOL0     H51812  -2.923   9.406  10.890 -0.6880 -0.1201  4.6718
  384MOL0     H51813  -2.842   9.288  10.780  3.4027 -0.1917  0.8280
  384MOL0     H51814  -2.936   9.226  11.063  1.2705  0.5360 -0.0443
  384MOL0     H51815  -2.822   9.129  10.966 -1.1893 -0.7400  0.1715
  384MOL0     H51816  -3.100   9.190  10.854  0.1012  0.2216 -1.0943
  384MOL0     H51817  -2.975   9.097  10.791 -1.9349  1.4596 -1.3718
  384MOL0     H51818  -3.065   9.028  11.078 -1.5602  1.3966 -0.1368
  384MOL0     H51819  -2.986   8.922  10.948 -1.0164  0.9252 -2.3958
  384MOL0     H51820  -3.215   8.855  11.002  0.6590  0.8625  0.4871
  384MOL0     H51821  -3.199   8.905  10.835  1.2505  0.4477 -0.4181
  384MOL0     H51822  -2.537   9.684  11.117  1.6498 -0.6365  0.1843
  384MOL0     H51823  -2.317   9.830  11.117  0.4537  3.6122  0.1277
  384MOL0     H51824  -2.124  10.217  10.883 -1.2539 -0.7828  1.2600
  384MOL0     H51825  -1.930  10.377  10.906  0.7280 -0.7983 -0.6452
  384MOL0     H51826   0.232  10.553  10.544  0.5705 -0.8054 -0.5988
  384MOL0     H51827   0.441  10.440  10.540  0.6975 -0.5097 -1.1671
  384MOL0     H51828   0.599   9.966  10.400 -4.3068  2.1777  3.1300
  384MOL0     H51829   0.769   9.777  10.417 -2.3719  0.7257 -0.4056
  384MOL0     H51830   1.092   9.855  10.703 -1.7442  0.8297 -0.8878
  384MOL0     H51831   1.007   9.718  10.784  1.5905  0.6836  0.5653
  384MOL0     H51832   1.227   9.690  10.562 -0.6016  0.4192 -0.2018
  384MOL0     H51833   1.161   9.558  10.670 -1.8404  0.2036  3.8553
  384MOL0     H51834   1.234   9.729  10.862  0.2142  0.5647  0.4366
  384MOL0     H51835   1.334   9.800  10.737 -0.2179  2.0682  3.8591
  384MOL0     H51836   1.323   9.498  10.812  0.1977 -0.7088  0.1783
  384MOL0     H51837   1.433   9.615  10.897 -4.0793 -1.0287  2.4158
  384MOL0     H51838   1.618   9.589  10.516  0.3959 -0.3728  0.0238
  384MOL0     H51839   0.918   9.955  10.781 -0.2393  0.7245  0.4213
  384MOL0     H51840   0.754  10.126  10.769  2.9781  1.6914 -0.9166
  385MOL0     O51841   6.696   7.661   9.136 -0.3412 -0.1311  0.6337
  385MOL0     C51842   6.654   7.700   9.023  0.3650  0.0220 -0.2202
  385MOL0     O51843   6.530   7.759   9.013  0.0489  0.3700  0.3915
  385MOL0     C51844   6.443   7.743   9.116 -0.5995  0.4716 -0.6014
  385MOL0     C51845   6.440   7.838   9.222 -0.0797  0.5056 -0.4569
  385MOL0     C51846   6.347   7.813   9.328 -0.3458 -0.3648 -0.0141
  385MOL0     C51847   6.259   7.698   9.330 -0.4798 -0.3586 -0.4055
  385MOL0     O51848   6.161   7.667   9.420  0.4215 -0.0801 -0.0791
  385MOL0     C51849   6.176   7.702   9.558  0.0838  0.3948  0.3510
  385MOL0     C51850   6.033   7.673   9.616  0.4684  0.9042 -0.2524
  385MOL0     C51851   5.954   7.800   9.601  0.3257 -0.2148  0.4800
  385MOL0     C51852   5.806   7.793   9.652 -0.2594  0.2159  0.4564
  385MOL0     C51853   5.720   7.698   9.566 -0.7703 -0.0619 -0.0836
  385MOL0     C51854   5.572   7.708   9.617  0.3707  0.1890  0.0441
  385MOL0     C51855   5.477   7.629   9.541  0.7521 -0.9244  0.2534
  385MOL0     C51856   5.336   7.627   9.596 -0.1054  0.5453 -0.1574
  385MOL0     N51857   5.258   7.547   9.504 -0.3446  0.4912 -0.8279
  385MOL0     C51858   5.229   7.578   9.376  0.9426 -0.4870 -0.0472
  385MOL0     C51859   5.152   7.474   9.337  0.6490 -0.0282  0.7376
  385MOL0     C51860   5.075   7.464   9.202 -0.3212  0.3650  0.1801
  385MOL0     C51861   4.935   7.521   9.212 -0.0192  0.0465 -0.6883
  385MOL0     C51862   4.848   7.424   9.284  0.0143  1.2786 -0.0237
  385MOL0     C51863   4.698   7.469   9.301  0.2443 -0.2860 -0.2180
  385MOL0     O51864   4.637   7.425   9.176  0.0448  0.4450  0.0988
  385MOL0     C51865   4.505   7.452   9.167  0.4947 -0.7641  0.9208
  385MOL0     C51866   4.441   7.400   9.056  0.5837  0.4529  0.4467
  385MOL0     C51867   4.305   7.415   9.025 -0.1090 -0.0251 -0.2645
  385MOL0     C51868   4.247   7.341   8.913 -0.6535  0.2673  0.0923
  385MOL0     C51869   4.227   7.490   9.118 -0.0602 -1.2532 -0.1398
  385MOL0     C51870   4.083   7.495   9.102  0.4003  0.2600 -0.8728
  385MOL0     O51871   4.021   7.606   9.068  0.1723 -0.3133 -0.6564
  385MOL0     C51872   3.884   7.603   9.073 -0.0573 -0.0176  0.1631
  385MOL0     C51873   3.807   7.547   8.969 -0.0972  0.1661  0.5561
  385MOL0     C51874   3.670   7.565   8.957 -0.2360  0.0648  0.4998
  385MOL0     C51875   3.610   7.662   9.037 -0.0463  0.6431 -0.9913
  385MOL0     O51876   3.480   7.686   9.025  0.6648 -0.4863 -0.0223
  385MOL0     C51877   3.402   7.775   9.116  0.0278  0.2445 -0.4660
  385MOL0     C51878   3.411   7.923   9.082  0.2563 -1.0171 -0.7053
  385MOL0     C51879   3.363   7.998   9.211  1.1528 -0.2311  0.4553
  385MOL0     C51880   3.327   8.143   9.181 -0.5372 -0.1737  0.6917
  385MOL0     C51881   3.316   8.222   9.312 -0.1104 -0.4015  0.3215
  385MOL0     C51882   3.193   8.179   9.401 -0.1069 -0.2974 -0.1648
  385MOL0     C51883   3.195   8.242   9.535  0.2047 -0.1296  0.4278
  385MOL0     C51884   3.062   8.233   9.602  0.5090  0.1051  0.1315
  385MOL0    Cl51885   3.017   8.062   9.624 -0.2900  0.4753  0.1680
  385MOL0     C51886   3.683   7.722   9.141  0.6511  0.2807  0.1613
  385MOL0     C51887   3.821   7.688   9.166  0.7218  0.0469  0.2563
  385MOL0     O51888   4.032   7.382   9.138 -0.2300 -0.5259 -0.8430
  385MOL0     C51889   4.285   7.550   9.231 -1.2930 -0.9163  0.1065
  385MOL0     C51890   4.422   7.524   9.250  0.6855 -1.3555  0.3775
  385MOL0     N51891   5.152   7.376   9.433 -0.3128  0.5096 -0.2746
  385MOL0     N51892   5.219   7.425   9.537  0.1723  0.7511  0.0324
  385MOL0     C51893   6.260   7.611   9.227 -0.4592 -0.0933  0.3589
  385MOL0     C51894   6.356   7.633   9.123  0.5023  0.0964  0.4248
  385MOL0     C51895   6.729   7.660   8.908 -0.3238 -0.0328 -0.4126
  385MOL0     C51896   6.662   7.640   8.793 -0.3569  0.5388  0.2258
  385MOL0     C51897   6.731   7.614   8.669 -0.0383  0.1775  0.2839
  385MOL0     C51898   6.866   7.584   8.668 -0.1929 -1.0318 -0.3788
  385MOL0     O51899   6.935   7.525   8.570 -0.5522  0.6959  0.6010
  385MOL0     C51900   6.867   7.493   8.447  0.0832  0.6779 -0.8270
  385MOL0     C51901   6.971   7.413   8.366  0.1201  0.1039  0.4896
  385MOL0     C51902   7.075   7.511   8.312  0.4176 -0.1704 -0.0097
  385MOL0     C51903   7.208   7.443   8.292  0.3328 -0.6121 -0.4410
  385MOL0     C51904   7.265   7.431   8.425  0.7545 -0.0273  1.3454
  385MOL0     C51905   7.309   7.401   8.532 -0.9228 -0.4088 -0.6339
  385MOL0     C51906   6.938   7.583   8.789  0.9030 -0.6507 -0.2056
  385MOL0     C51907   6.864   7.625   8.902  0.0668 -1.0930  0.3328
  385MOL0     H51908   6.504   7.925   9.230  1.2263 -0.4797  0.2586
  385MOL0     H51909   6.352   7.888   9.406 -1.6405  0.3520 -0.5739
  385MOL0     H51910   6.250   7.632   9.598  1.5213  1.0880 -0.9845
  385MOL0     H51911   6.207   7.804   9.581 -1.4129  0.8445  0.4796
  385MOL0     H51912   5.989   7.592   9.558  0.0379  2.1456 -1.7330
  385MOL0     H51913   6.031   7.638   9.720  2.2771 -2.7931 -1.3022
  385MOL0     H51914   6.008   7.882   9.650  1.0296 -0.6011  0.3550
  385MOL0     H51915   5.955   7.826   9.495 -0.7828  2.8146  1.1031
  385MOL0     H51916   5.801   7.757   9.756 -2.4090 -1.7443 -0.2355
  385MOL0     H51917   5.755   7.890   9.644  2.1240  1.5497  0.6399
  385MOL0     H51918   5.731   7.732   9.462  6.4800  0.0624  0.2081
  385MOL0     H51919   5.763   7.598   9.563  2.5967  1.2349  0.4026
  385MOL0     H51920   5.564   7.681   9.722 -1.4992 -1.7565 -0.5411
  385MOL0     H51921   5.543   7.814   9.618 -3.2777 -0.7062  0.3038
  385MOL0     H51922   5.476   7.673   9.441  1.1302 -1.0295  0.2001
  385MOL0     H51923   5.501   7.522   9.538 -0.8190 -1.2825 -0.3652
  385MOL0     H51924   5.299   7.730   9.603 -0.8145  0.3046 -0.3332
  385MOL0     H51925   5.339   7.581   9.695 -1.4207  1.0860  0.1558
  385MOL0     H51926   5.242   7.670   9.319  2.7019 -0.4120  0.4013
  385MOL0     H51927   5.121   7.516   9.118 -2.0431  0.5044 -0.7299
  385MOL0     H51928   5.062   7.359   9.174 -1.8518  0.4907  0.3434
  385MOL0     H51929   4.882   7.529   9.116 -2.9846 -1.3000  0.7062
  385MOL0     H51930   4.922   7.616   9.264  0.1285 -1.7820  3.0381
  385MOL0     H51931   4.885   7.401   9.384 -1.1784 -3.6380 -0.4562
  385MOL0     H51932   4.844   7.332   9.224  1.5713  2.0710 -1.4276
  385MOL0     H51933   4.697   7.576   9.321  1.8935 -0.0804 -1.0680
  385MOL0     H51934   4.650   7.418   9.385  0.6882 -1.3065 -0.5628
  385MOL0     H51935   4.510   7.347   8.991  1.6854 -2.1578  3.4551
  385MOL0     H51936   4.200   7.248   8.946 -2.0843  1.2636  1.0031
  385MOL0     H51937   4.177   7.398   8.851 -0.0464  1.2564  0.2940
  385MOL0     H51938   4.329   7.323   8.843 -0.9753  1.5973 -0.6713
  385MOL0     H51939   3.862   7.480   8.903 -2.3049 -0.5615 -0.6395
  385MOL0     H51940   3.616   7.522   8.873  2.4187  1.1400 -1.9450
  385MOL0     H51941   3.295   7.752   9.110 -0.5038  2.7756 -2.5206
  385MOL0     H51942   3.432   7.745   9.216  0.1927 -0.4834 -0.7261
  385MOL0     H51943   3.517   7.950   9.069  0.8079 -2.8210 -0.2116
  385MOL0     H51944   3.356   7.950   8.992  0.0875  1.0028 -0.0540
  385MOL0     H51945   3.433   8.000   9.296 -1.3287  2.6342  2.6684
  385MOL0     H51946   3.275   7.945   9.248  0.5737 -0.7985 -1.5946
  385MOL0     H51947   3.411   8.180   9.121 -0.7407  0.1817  0.6260
  385MOL0     H51948   3.234   8.164   9.128 -0.1067 -1.1429 -0.4955
  385MOL0     H51949   3.320   8.328   9.286  0.6241 -0.6831 -0.8169
  385MOL0     H51950   3.406   8.209   9.371 -0.9111 -0.6479  1.5185
  385MOL0     H51951   3.101   8.202   9.346  0.5530  0.0817 -1.1349
  385MOL0     H51952   3.213   8.072   9.411  3.7140  0.3046  0.0313
  385MOL0     H51953   3.219   8.349   9.535  1.2398 -0.3522 -0.0165
  385MOL0     H51954   3.259   8.195   9.610  1.9757  2.1628  0.4792
  385MOL0     H51955   2.987   8.285   9.541 -0.3517  0.2342  1.2474
  385MOL0     H51956   3.054   8.279   9.701  1.2335 -0.8626  0.6521
  385MOL0     H51957   3.652   7.805   9.205  2.3429  3.3171 -2.6555
  385MOL0     H51958   3.875   7.735   9.247 -0.7253  0.3782  1.0735
  385MOL0     H51959   4.217   7.607   9.294 -2.0644 -2.6662  0.9021
  385MOL0     H51960   4.454   7.563   9.347 -0.7614  1.9070 -0.3128
  385MOL0     H51961   6.202   7.519   9.230  0.9775 -1.0326  0.1192
  385MOL0     H51962   6.356   7.558   9.045  0.9516 -1.2722  1.6925
  385MOL0     H51963   6.555   7.658   8.786 -0.8054 -1.3668  1.3530
  385MOL0     H51964   6.665   7.592   8.586  0.0332  1.0397 -0.0054
  385MOL0     H51965   6.773   7.444   8.473  0.1744  1.5723  1.4177
  385MOL0     H51966   6.836   7.577   8.384  0.0204 -0.7785 -2.8307
  385MOL0     H51967   6.916   7.374   8.279 -0.4116  2.1741 -0.1621
  385MOL0     H51968   7.019   7.337   8.428  0.8966  0.1254 -0.0763
  385MOL0     H51969   7.088   7.600   8.374  0.5615  1.7519 -2.6155
  385MOL0     H51970   7.047   7.535   8.208  0.8315 -1.7607 -0.5172
  385MOL0     H51971   7.270   7.503   8.225  1.0110 -2.3308 -1.4484
  385MOL0     H51972   7.198   7.342   8.250  0.9352 -0.8366 -0.0722
  385MOL0     H51973   7.343   7.374   8.629 -1.5659  1.9037  0.2989
  385MOL0     H51974   7.043   7.555   8.786  0.8560 -1.7837  3.8580
  385MOL0     H51975   6.911   7.623   8.999 -0.2832  0.1440  0.5411
  386MOL0     O51976   0.739   5.311   0.651  0.3929  0.0158  0.0712
  386MOL0     C51977   0.832   5.386   0.639 -0.2944 -0.0804  0.1729
  386MOL0     O51978   0.855   5.470   0.535  0.7185 -0.1397 -0.2234
  386MOL0     C51979   0.767   5.483   0.429  0.2654 -0.1470 -0.2075
  386MOL0     C51980   0.629   5.497   0.440  0.2349 -0.7732  0.2559
  386MOL0     C51981   0.538   5.518   0.335 -0.8184 -0.1346  0.0528
  386MOL0     C51982   0.597   5.529   0.212 -0.2571 -0.0232  0.4327
  386MOL0     O51983   0.519   5.531   0.100 -0.4130  0.0340  0.0847
  386MOL0     C51984   0.399   5.465   0.097 -0.1243  0.5747  0.1481
  386MOL0     C51985   0.342   5.468  -0.046 -0.0041  0.4775  0.5033
  386MOL0     C51986   0.215   5.391  -0.047  0.1766 -0.2025  0.1181
  386MOL0     C51987   0.147   5.360  -0.174  1.0736  0.4880  0.3281
  386MOL0     C51988   0.032   5.254  -0.157 -0.0496  0.6208  0.1361
  386MOL0     C51989  -0.099   5.303  -0.094 -0.4488  0.4086  0.2798
  386MOL0     C51990  -0.195   5.187  -0.102  0.6936  0.6997  0.8027
  386MOL0     C51991  -0.332   5.206  -0.032  0.5788 -0.8315  0.0444
  386MOL0     N51992  -0.439   5.107  -0.069  0.3478  0.1179  0.7564
  386MOL0     C51993  -0.430   4.998  -0.153 -0.2326 -0.0713  1.2856
  386MOL0     C51994  -0.555   4.957  -0.190 -0.0156 -0.6997  0.5527
  386MOL0     C51995  -0.587   4.833  -0.272  0.7415 -0.4838 -0.0012
  386MOL0     C51996  -0.689   4.845  -0.388 -0.0613  0.3541  0.8459
  386MOL0     C51997  -0.730   4.705  -0.439  0.7008  0.2775 -0.2158
  386MOL0     C51998  -0.849   4.724  -0.536  0.4592 -0.6808  0.6251
  386MOL0     O51999  -0.957   4.808  -0.474  0.0014 -0.0579  0.2444
  386MOL0     C52000  -1.082   4.789  -0.516  0.1897  0.3824 -0.8032
  386MOL0     C52001  -1.123   4.746  -0.644  0.3815  0.4701 -0.1946
  386MOL0     C52002  -1.260   4.704  -0.657  0.1542 -0.1107 -0.9740
  386MOL0     C52003  -1.302   4.646  -0.791 -0.2554  0.1490 -0.1613
  386MOL0     C52004  -1.345   4.701  -0.545 -0.0170 -0.1325  0.1295
  386MOL0     C52005  -1.482   4.652  -0.543 -0.4324 -0.8611 -0.2457
  386MOL0     O52006  -1.536   4.609  -0.425  0.0981  0.0932 -0.1158
  386MOL0     C52007  -1.671   4.576  -0.438  0.8132  0.0339  0.0477
  386MOL0     C52008  -1.756   4.649  -0.357  0.6737  1.0418 -0.3144
  386MOL0     C52009  -1.893   4.625  -0.367  0.7265  0.4813 -0.1046
  386MOL0     C52010  -1.954   4.522  -0.444 -0.3058 -0.3619  0.6310
  386MOL0     O52011  -2.085   4.523  -0.453 -0.4997  0.0937  0.4530
  386MOL0     C52012  -2.143   4.391  -0.445 -0.1078  0.1035  0.0272
  386MOL0     C52013  -2.289   4.421  -0.394 -0.4798 -0.1642 -0.7255
  386MOL0     C52014  -2.360   4.303  -0.342  0.1941 -0.7397  1.1939
  386MOL0     C52015  -2.498   4.354  -0.300 -0.0039 -0.0225  0.3828
  386MOL0     C52016  -2.564   4.226  -0.227 -0.0326 -0.2026  0.9728
  386MOL0     C52017  -2.700   4.265  -0.161 -0.4127  0.0607 -0.2179
  386MOL0     C52018  -2.800   4.330  -0.258 -0.2731  0.6179 -0.4055
  386MOL0     C52019  -2.851   4.244  -0.375 -0.3433  0.4130  0.2090
  386MOL0    Cl52020  -2.952   4.345  -0.478 -0.0552  0.1814 -0.1643
  386MOL0     C52021  -1.858   4.436  -0.516 -0.8058 -0.6194 -0.6118
  386MOL0     C52022  -1.722   4.465  -0.511  0.0772 -0.5829  0.7559
  386MOL0     O52023  -1.548   4.666  -0.648  0.2617  0.1278  0.1303
  386MOL0     C52024  -1.303   4.761  -0.424 -0.6619  0.4053 -0.6832
  386MOL0     C52025  -1.169   4.802  -0.411 -0.8793 -0.1760 -0.0422
  386MOL0     N52026  -0.645   5.055  -0.138  0.1410  0.7514  0.2409
  386MOL0     N52027  -0.573   5.146  -0.076 -0.5831  0.5123  0.5185
  386MOL0     C52028   0.734   5.529   0.194  0.3296 -0.2635  0.2197
  386MOL0     C52029   0.821   5.508   0.301  0.7402 -0.6625  0.4358
  386MOL0     C52030   0.941   5.383   0.742  1.0408  0.0762  0.1392
  386MOL0     C52031   1.041   5.475   0.763  0.2795 -0.8754 -0.0923
  386MOL0     C52032   1.144   5.468   0.856  0.7230  0.2191  0.1811
  386MOL0     C52033   1.153   5.360   0.939  0.3759  0.1268 -0.4508
  386MOL0     O52034   1.258   5.343   1.026  0.5641 -0.1303  0.0268
  386MOL0     C52035   1.223   5.280   1.150 -0.0879 -0.2245 -0.1332
  386MOL0     C52036   1.348   5.302   1.232 -0.4995 -0.0363  0.5684
  386MOL0     C52037   1.464   5.194   1.222 -0.4618  0.4664  1.0470
  386MOL0     C52038   1.532   5.234   1.086 -1.7514  0.3933  0.0125
  386MOL0     C52039   1.649   5.139   1.054 -0.0857 -0.3101 -0.2798
  386MOL0     C52040   1.729   5.054   1.023 -0.1344  0.4865  0.0956
  386MOL0     C52041   1.051   5.260   0.930 -0.0542 -0.6045 -0.4682
  386MOL0     C52042   0.957   5.277   0.833  0.3790 -0.0960 -0.4189
  386MOL0     H52043   0.590   5.481   0.540 -0.5450 -2.3413 -0.2762
  386MOL0     H52044   0.432   5.518   0.359 -0.6676 -1.4607  0.7963
  386MOL0     H52045   0.414   5.362   0.130  0.1093  1.1003  1.7900
  386MOL0     H52046   0.329   5.507   0.170 -1.1970  0.0284 -0.5241
  386MOL0     H52047   0.336   5.576  -0.061  3.1283  1.4205  4.3449
  386MOL0     H52048   0.410   5.421  -0.118 -0.7730 -0.0390  0.0932
  386MOL0     H52049   0.228   5.297   0.008 -0.2097  0.6635  1.7354
  386MOL0     H52050   0.139   5.438   0.017 -1.5562 -2.2644 -0.2851
  386MOL0     H52051   0.090   5.447  -0.207 -0.1776  0.1693  1.5761
  386MOL0     H52052   0.222   5.330  -0.248  2.6097 -1.2534  2.4482
  386MOL0     H52053   0.010   5.211  -0.255 -1.1025  1.1772  0.1155
  386MOL0     H52054   0.069   5.171  -0.097  0.6422 -0.4005 -1.6011
  386MOL0     H52055  -0.081   5.341   0.007 -0.5001  0.8677  0.1199
  386MOL0     H52056  -0.138   5.394  -0.142 -1.2029  0.0088  0.1126
  386MOL0     H52057  -0.220   5.156  -0.204  4.3838 -1.4823  0.3822
  386MOL0     H52058  -0.150   5.099  -0.054 -1.7222  0.7030  3.2858
  386MOL0     H52059  -0.363   5.309  -0.054 -0.1608 -1.6986 -3.7534
  386MOL0     H52060  -0.322   5.209   0.076 -0.5269  3.8452  0.2512
  386MOL0     H52061  -0.335   4.948  -0.169  0.6153  2.1709 -1.5049
  386MOL0     H52062  -0.496   4.801  -0.325 -0.7195 -0.4430 -2.6946
  386MOL0     H52063  -0.605   4.743  -0.213 -2.1281 -1.9106 -2.7429
  386MOL0     H52064  -0.648   4.905  -0.470 -1.3140  1.0807  0.7287
  386MOL0     H52065  -0.775   4.889  -0.336 -0.8387  2.4055 -1.8923
  386MOL0     H52066  -0.757   4.636  -0.359  3.8055 -0.6564  0.1425
  386MOL0     H52067  -0.643   4.658  -0.486  0.5606 -1.1948  0.9221
  386MOL0     H52068  -0.879   4.621  -0.559  1.1100 -0.6298 -0.4827
  386MOL0     H52069  -0.819   4.770  -0.630 -3.1389  1.8306  0.5310
  386MOL0     H52070  -1.053   4.764  -0.725  0.9340 -1.9010 -0.3062
  386MOL0     H52071  -1.213   4.648  -0.854 -0.8790  4.2979 -1.1981
  386MOL0     H52072  -1.347   4.548  -0.774  1.2057 -0.2603  1.7639
  386MOL0     H52073  -1.371   4.715  -0.840 -0.3630  1.8043  2.1311
  386MOL0     H52074  -1.719   4.730  -0.296  1.5740  1.0663 -0.8808
  386MOL0     H52075  -1.972   4.677  -0.313 -0.6295 -2.6923  1.2313
  386MOL0     H52076  -2.160   4.334  -0.536 -4.6624  0.5798  0.3424
  386MOL0     H52077  -2.094   4.328  -0.370  0.1835 -1.0246 -1.0772
  386MOL0     H52078  -2.281   4.486  -0.307  0.0389 -0.0642 -0.8440
  386MOL0     H52079  -2.336   4.477  -0.475  3.1748  0.4815 -2.6543
  386MOL0     H52080  -2.302   4.259  -0.261 -0.7322 -2.2860  1.0427
  386MOL0     H52081  -2.374   4.228  -0.420 -1.4779 -1.9221  2.5878
  386MOL0     H52082  -2.490   4.436  -0.228 -0.9705  1.3346 -0.9698
  386MOL0     H52083  -2.556   4.382  -0.389  0.5206 -1.5030 -0.4724
  386MOL0     H52084  -2.496   4.190  -0.149 -2.2037 -0.9881  2.6256
  386MOL0     H52085  -2.588   4.141  -0.291 -0.3307  1.4371 -1.1960
  386MOL0     H52086  -2.753   4.188  -0.105 -3.5081  2.4785  0.4535
  386MOL0     H52087  -2.666   4.336  -0.085  0.3751 -1.0980  0.5510
  386MOL0     H52088  -2.759   4.425  -0.294  1.1667 -0.0239 -0.5343
  386MOL0     H52089  -2.889   4.352  -0.199  0.3193  0.2920  0.6372
  386MOL0     H52090  -2.891   4.151  -0.334  1.7021 -0.2384  0.8560
  386MOL0     H52091  -2.764   4.221  -0.437  0.9288 -1.6404  2.5662
  386MOL0     H52092  -1.879   4.344  -0.569  3.9995 -2.5466  0.2522
  386MOL0     H52093  -1.663   4.415  -0.588 -1.4988 -1.4884  0.0832
  386MOL0     H52094  -1.370   4.774  -0.341 -1.1958  0.3439 -1.1016
  386MOL0     H52095  -1.136   4.839  -0.314  1.3590  0.0022 -0.8099
  386MOL0     H52096   0.770   5.553   0.095  1.9479  1.0343  1.0676
  386MOL0     H52097   0.928   5.518   0.289  0.7837  0.0522  1.3394
  386MOL0     H52098   1.048   5.563   0.699  3.0239 -1.6996 -1.0581
  386MOL0     H52099   1.217   5.548   0.858 -1.9013  2.9211 -2.2131
  386MOL0     H52100   1.141   5.336   1.196 -0.1308  0.7469 -1.3576
  386MOL0     H52101   1.193   5.176   1.134  1.0761 -0.9054  1.7297
  386MOL0     H52102   1.317   5.296   1.337  1.4477  0.5613  1.2232
  386MOL0     H52103   1.382   5.405   1.219 -0.6174  0.1271  1.4863
  386MOL0     H52104   1.427   5.092   1.210 -3.2494  1.6254 -1.9330
  386MOL0     H52105   1.526   5.205   1.311 -1.6285 -0.8382  2.0486
  386MOL0     H52106   1.576   5.334   1.098 -2.7506  0.6926  1.4176
  386MOL0     H52107   1.463   5.228   1.002 -0.3192  0.2556 -1.1899
  386MOL0     H52108   1.792   4.979   0.979  1.8914  1.8225  0.6015
  386MOL0     H52109   1.052   5.173   0.994 -1.0250  0.0546  0.4777
  386MOL0     H52110   0.887   5.196   0.816 -1.5642  1.2207  0.8855
  387MOL0     O52111  10.512   2.204   9.212 -1.0527  0.3174 -0.1263
  387MOL0     C52112  10.579   2.099   9.198 -0.5164  0.4314  0.5203
  387MOL0     O52113  10.538   1.970   9.184  0.6787  0.0220 -0.1072
  387MOL0     C52114  10.400   1.956   9.194  0.1330 -0.7500 -0.5368
  387MOL0     C52115  10.351   1.884   9.299  0.0716  0.1819 -0.8054
  387MOL0     C52116  10.210   1.864   9.313  0.1054  0.2847  0.3648
  387MOL0     C52117  10.121   1.915   9.222 -0.2288 -0.4515  0.0851
  387MOL0     O52118   9.984   1.889   9.230 -0.2059  0.3991 -0.4561
  387MOL0     C52119   9.895   1.982   9.176  0.9295 -0.0685  0.8359
  387MOL0     C52120   9.754   1.939   9.220  0.1075 -0.1138  0.5155
  387MOL0     C52121   9.637   2.028   9.149 -0.1962 -0.0878  0.1686
  387MOL0     C52122   9.518   2.065   9.238 -0.7128  0.3222 -0.3625
  387MOL0     C52123   9.383   2.095   9.172  0.6584 -0.1689  0.2195
  387MOL0     C52124   9.345   1.990   9.070  0.0471  0.6082 -0.5067
  387MOL0     C52125   9.188   1.995   9.041  0.3175 -0.0616  0.1529
  387MOL0     C52126   9.145   2.114   8.953 -0.2047 -0.3144 -0.1473
  387MOL0     N52127   9.008   2.145   8.970  1.0004  0.7831  0.2774
  387MOL0     C52128   8.917   2.063   8.909 -0.9043  0.2675  0.1847
  387MOL0     C52129   8.791   2.114   8.935  0.2151  0.2826 -1.2162
  387MOL0     C52130   8.643   2.071   8.912  0.1430 -0.2123 -0.6398
  387MOL0     C52131   8.608   1.938   8.968 -0.3357  0.0584 -0.7277
  387MOL0     C52132   8.465   1.890   8.942  0.2109 -0.2969  0.1759
  387MOL0     C52133   8.466   1.735   8.946 -0.2378 -0.6742 -0.9240
  387MOL0     O52134   8.359   1.665   8.889  0.6342  0.4930  0.4812
  387MOL0     C52135   8.243   1.657   8.963 -0.9446  0.2194  0.4067
  387MOL0     C52136   8.132   1.606   8.901 -0.8191 -0.3413 -0.1578
  387MOL0     C52137   8.012   1.605   8.955  0.6841 -1.0393 -0.9017
  387MOL0     C52138   7.904   1.535   8.879 -0.8976  0.5288  0.6684
  387MOL0     C52139   7.992   1.674   9.086  0.1281 -1.3118  0.8308
  387MOL0     C52140   7.866   1.677   9.163  1.4523 -0.3416 -0.0324
  387MOL0     O52141   7.866   1.746   9.283 -0.4567  0.4786 -0.2439
  387MOL0     C52142   7.765   1.724   9.376 -0.3405  1.1639 -0.2252
  387MOL0     C52143   7.640   1.767   9.348  0.9262  0.5200 -0.2796
  387MOL0     C52144   7.534   1.744   9.440 -0.7402 -0.4626  0.5045
  387MOL0     C52145   7.554   1.692   9.566  0.3463 -0.2561  0.1042
  387MOL0     O52146   7.445   1.678   9.648 -0.4275  0.1496 -0.2771
  387MOL0     C52147   7.415   1.536   9.663  0.1658  0.4411 -0.7301
  387MOL0     C52148   7.286   1.492   9.594  0.4285 -0.2216  0.2887
  387MOL0     C52149   7.252   1.343   9.609  0.9468  0.4793  0.2066
  387MOL0     C52150   7.100   1.321   9.580 -0.0475  0.1783 -0.6367
  387MOL0     C52151   7.074   1.166   9.613 -0.1702 -0.3047  0.0029
  387MOL0     C52152   6.941   1.093   9.584 -0.8038  0.6652  0.2341
  387MOL0     C52153   6.820   1.180   9.585  0.1541  0.2505 -0.3322
  387MOL0     C52154   6.699   1.101   9.540 -0.6361 -0.4533  0.1961
  387MOL0    Cl52155   6.684   0.961   9.655 -0.1292 -0.1317  0.4996
  387MOL0     C52156   7.690   1.657   9.597 -0.4277  1.3015  1.0950
  387MOL0     C52157   7.795   1.657   9.500  0.0392 -0.8861 -0.0614
  387MOL0     O52158   7.775   1.599   9.125 -0.3946 -0.2162  0.4626
  387MOL0     C52159   8.106   1.721   9.149  0.2376  1.0186 -1.3947
  387MOL0     C52160   8.233   1.714   9.088 -0.0156  0.3440 -0.2420
  387MOL0     N52161   8.817   2.217   9.012  0.0907 -0.3069 -0.1818
  387MOL0     N52162   8.944   2.243   9.038  0.2596 -0.3407  0.4032
  387MOL0     C52163  10.170   1.981   9.109 -0.7502 -0.1621  0.0929
  387MOL0     C52164  10.312   2.002   9.088  0.4856  0.0512  0.1098
  387MOL0     C52165  10.726   2.119   9.217 -0.1018  0.5372 -0.5590
  387MOL0     C52166  10.805   2.011   9.246  0.3423 -0.3445  0.4031
  387MOL0     C52167  10.946   2.016   9.267 -0.2316 -0.2189 -0.0708
  387MOL0     C52168  11.010   2.138   9.268 -0.1609  0.1699 -0.4769
  387MOL0     O52169  11.136   2.123   9.316 -0.0014 -0.2706 -0.0075
  387MOL0     C52170  11.215   2.248   9.337  0.8881  0.1840  1.3303
  387MOL0     C52171  11.357   2.221   9.364  0.5220 -0.3522 -0.6305
  387MOL0     C52172  11.397   2.187   9.512  1.0885  0.7094  0.4015
  387MOL0     C52173  11.277   2.121   9.591  0.1921 -0.1474 -0.7206
  387MOL0     C52174  11.343   2.064   9.706  0.0478 -0.1526 -0.1665
  387MOL0     C52175  11.401   2.019   9.802 -0.3886  0.7843 -0.5218
  387MOL0     C52176  10.931   2.261   9.246 -0.2510  0.1207 -0.2821
  387MOL0     C52177  10.789   2.246   9.223 -0.4669  0.0319  0.8792
  387MOL0     H52178  10.425   1.857   9.373  1.2279  0.8939 -1.6693
  387MOL0     H52179  10.164   1.810   9.395  3.2049 -1.5816  1.0257
  387MOL0     H52180   9.901   2.084   9.217  1.5835 -0.3075  1.3527
  387MOL0     H52181   9.888   1.992   9.067 -0.9717  0.1060  0.9435
  387MOL0     H52182   9.726   1.835   9.202 -1.9402  0.3753  0.6076
  387MOL0     H52183   9.738   1.953   9.327  0.3042  0.8432  0.4317
  387MOL0     H52184   9.675   2.117   9.099 -0.4638 -0.5539 -0.9098
  387MOL0     H52185   9.605   1.965   9.065  0.6049  0.0755 -0.2732
  387MOL0     H52186   9.500   1.993   9.318 -3.6848  0.9875 -0.3318
  387MOL0     H52187   9.539   2.161   9.286 -0.2110  0.6845 -1.2622
  387MOL0     H52188   9.307   2.108   9.250 -0.5057  1.5134 -1.1387
  387MOL0     H52189   9.384   2.193   9.124  0.9579 -0.6075 -0.6982
  387MOL0     H52190   9.404   1.986   8.978 -1.3112 -1.4854 -1.3711
  387MOL0     H52191   9.369   1.893   9.114  0.3168  0.1625 -1.5974
  387MOL0     H52192   9.152   1.907   8.986 -1.6416  1.3681 -1.0070
  387MOL0     H52193   9.131   1.993   9.134 -0.8348 -2.0340 -0.5283
  387MOL0     H52194   9.180   2.103   8.850  1.7893 -0.0469  0.4586
  387MOL0     H52195   9.200   2.200   8.992  2.6889 -0.5169 -3.3025
  387MOL0     H52196   8.937   1.967   8.862 -1.7282  0.8447 -1.4295
  387MOL0     H52197   8.572   2.145   8.951  1.0475 -0.0557  0.7802
  387MOL0     H52198   8.633   2.069   8.803  0.7605 -0.5919 -0.6973
  387MOL0     H52199   8.622   1.935   9.076 -0.8177  0.1041 -0.6598
  387MOL0     H52200   8.681   1.863   8.934 -0.3722  1.0761 -3.3255
  387MOL0     H52201   8.434   1.922   8.842 -2.4506 -1.2034  0.6183
  387MOL0     H52202   8.394   1.930   9.014  0.6427  0.1433  0.3585
  387MOL0     H52203   8.484   1.695   9.046  0.6954 -1.5244 -1.4005
  387MOL0     H52204   8.551   1.700   8.885  2.1254  0.0925  1.7224
  387MOL0     H52205   8.153   1.571   8.801  3.2887  2.0865 -0.3778
  387MOL0     H52206   7.803   1.571   8.901 -1.2198 -0.4177  0.8000
  387MOL0     H52207   7.926   1.545   8.772  0.0920 -1.7350  0.5981
  387MOL0     H52208   7.901   1.430   8.912 -0.4041  0.9955  2.3083
  387MOL0     H52209   7.611   1.816   9.255 -0.5095 -2.6066 -1.6289
  387MOL0     H52210   7.434   1.785   9.427 -1.8779 -3.7055 -2.6498
  387MOL0     H52211   7.496   1.465   9.642  1.8021  1.2865  2.2370
  387MOL0     H52212   7.407   1.519   9.771 -0.2672  2.1998 -0.4549
  387MOL0     H52213   7.203   1.558   9.623 -0.5372  0.6219 -3.7270
  387MOL0     H52214   7.304   1.502   9.486  0.0098 -0.5783  0.1845
  387MOL0     H52215   7.268   1.315   9.714 -1.4721 -1.0705  0.2249
  387MOL0     H52216   7.300   1.273   9.540  0.1928  0.1995 -0.0422
  387MOL0     H52217   7.036   1.391   9.633  2.3873  1.6657  0.4867
  387MOL0     H52218   7.090   1.332   9.471 -1.4984 -0.4661 -0.5927
  387MOL0     H52219   7.078   1.156   9.722  1.3285 -0.4325 -0.0453
  387MOL0     H52220   7.157   1.114   9.565  0.1708  0.6013 -0.4117
  387MOL0     H52221   6.958   1.050   9.485  2.1645  0.7204  0.6187
  387MOL0     H52222   6.932   1.002   9.643  0.0807 -0.1966 -0.9015
  387MOL0     H52223   6.829   1.259   9.510 -1.0528 -1.0502 -1.9406
  387MOL0     H52224   6.795   1.221   9.683 -0.9828 -0.2223 -0.4009
  387MOL0     H52225   6.707   1.075   9.435 -1.0506 -3.2987  0.7827
  387MOL0     H52226   6.608   1.160   9.547 -1.2847 -1.2178 -1.3295
  387MOL0     H52227   7.708   1.619   9.696 -0.7019 -0.9291  0.3456
  387MOL0     H52228   7.895   1.621   9.521 -0.5507 -0.9031  3.1789
  387MOL0     H52229   8.099   1.762   9.249 -4.7116 -3.6764  0.6506
  387MOL0     H52230   8.314   1.758   9.146 -2.2167  1.7422  1.9561
  387MOL0     H52231  10.106   2.021   9.031 -0.2881  1.5778  0.5608
  387MOL0     H52232  10.355   2.050   9.000  1.4587 -2.5450 -0.9230
  387MOL0     H52233  10.748   1.922   9.270  0.3348  0.1549  2.4010
  387MOL0     H52234  10.992   1.929   9.312  0.1841 -1.6685 -3.0483
  387MOL0     H52235  11.202   2.300   9.241  0.8191 -0.0075  1.2343
  387MOL0     H52236  11.177   2.293   9.428 -0.7642 -0.3856  0.9616
  387MOL0     H52237  11.401   2.319   9.341 -1.2770  0.1666 -2.0539
  387MOL0     H52238  11.401   2.147   9.296  0.9061  0.7072 -1.5712
  387MOL0     H52239  11.449   2.271   9.560  1.0995  0.6576  0.4816
  387MOL0     H52240  11.475   2.110   9.510  0.3110 -0.1076  0.8246
  387MOL0     H52241  11.233   2.043   9.528  1.1265 -1.5197  0.2561
  387MOL0     H52242  11.201   2.194   9.619 -1.8649 -1.6189 -2.1524
  387MOL0     H52243  11.457   1.977   9.884 -0.7799  0.0049 -0.6381
  387MOL0     H52244  10.982   2.355   9.263 -0.7364  0.0155  2.1848
  387MOL0     H52245  10.743   2.342   9.207 -0.1113  0.7247  3.5378
  388MOL0     O52246   2.552   4.920   9.497  0.1307 -0.1885 -0.5677
  388MOL0     C52247   2.624   5.018   9.500  0.9783  0.6274  0.1197
  388MOL0     O52248   2.583   5.149   9.519  0.0127  0.1957  0.1120
  388MOL0     C52249   2.445   5.166   9.508 -0.5227  0.2514 -0.2677
  388MOL0     C52250   2.369   5.147   9.396 -0.5263 -0.3963  0.0265
  388MOL0     C52251   2.228   5.153   9.394  0.1827 -0.2383  0.6346
  388MOL0     C52252   2.171   5.211   9.511  0.2077  0.1040  1.1771
  388MOL0     O52253   2.039   5.229   9.514  0.2253 -0.8597 -0.5067
  388MOL0     C52254   1.947   5.153   9.422 -0.0415  0.1837  0.7621
  388MOL0     C52255   1.803   5.183   9.476 -0.0211 -0.3286  0.1542
  388MOL0     C52256   1.699   5.134   9.375 -0.1396 -0.2022 -0.1582
  388MOL0     C52257   1.553   5.144   9.429 -0.0956  0.5764 -0.1899
  388MOL0     C52258   1.446   5.114   9.318  0.4672 -0.4915 -0.0150
  388MOL0     C52259   1.307   5.138   9.381 -0.4347  0.4478 -0.5283
  388MOL0     C52260   1.253   5.012   9.455  0.5267 -0.2137  0.2482
  388MOL0     C52261   1.100   5.026   9.466 -0.5980  0.4525  0.0552
  388MOL0     N52262   1.058   4.922   9.551  0.1305 -0.2702 -0.3102
  388MOL0     C52263   0.960   4.948   9.646 -0.5162  0.5990 -0.6069
  388MOL0     C52264   0.960   4.825   9.720 -0.1825 -0.1803 -0.0061
  388MOL0     C52265   0.882   4.815   9.852 -0.1586  1.2903 -0.3973
  388MOL0     C52266   0.732   4.805   9.858  0.5907 -0.2859 -0.2615
  388MOL0     C52267   0.668   4.801  10.002  0.0831 -0.0873  0.2210
  388MOL0     C52268   0.616   4.933  10.066 -0.4066  0.6236 -0.4229
  388MOL0     O52269   0.547   4.997   9.958  0.0614  0.5322 -0.0176
  388MOL0     C52270   0.406   5.022   9.960 -0.5046 -0.3547  0.0576
  388MOL0     C52271   0.320   4.965  10.057  0.0545 -0.1249  0.9083
  388MOL0     C52272   0.186   5.004  10.074  0.6715 -1.0007 -0.3340
  388MOL0     C52273   0.122   4.953  10.190  0.0192  0.2952  0.0058
  388MOL0     C52274   0.130   5.103   9.985  0.3831  0.3321 -0.3832
  388MOL0     C52275  -0.015   5.144   9.977 -0.5126 -0.1992  0.0920
  388MOL0     O52276  -0.039   5.255   9.912  0.1401 -0.6457 -0.0738
  388MOL0     C52277  -0.162   5.300   9.906 -0.4025  0.4048 -0.6979
  388MOL0     C52278  -0.233   5.310  10.030  0.4022 -0.3223 -0.0111
  388MOL0     C52279  -0.354   5.387  10.025  0.1259 -0.2391 -0.0828
  388MOL0     C52280  -0.405   5.438   9.904 -0.0429 -0.0431  0.1899
  388MOL0     O52281  -0.522   5.506   9.895 -0.2669 -0.0313  0.0279
  388MOL0     C52282  -0.553   5.606  10.003 -0.2851 -0.3095 -0.2613
  388MOL0     C52283  -0.461   5.734  10.003  0.0052 -0.6155  0.0262
  388MOL0     C52284  -0.526   5.871  10.000 -0.6436 -0.1044 -0.0194
  388MOL0     C52285  -0.427   5.978  10.038 -0.6013 -0.3326 -0.9326
  388MOL0     C52286  -0.492   6.114  10.061 -0.0610 -0.4968  0.5682
  388MOL0     C52287  -0.611   6.154   9.953  0.4589 -0.0180 -0.2386
  388MOL0     C52288  -0.629   6.299   9.960 -0.6912 -0.1495  0.5424
  388MOL0     C52289  -0.766   6.343   9.900 -0.9144 -0.7949 -1.0364
  388MOL0    Cl52290  -0.755   6.345   9.719  0.0147  0.1437 -0.6009
  388MOL0     C52291  -0.341   5.412   9.786  0.6500 -0.4858 -0.2686
  388MOL0     C52292  -0.222   5.344   9.790  0.3756  0.3700  0.7162
  388MOL0     O52293  -0.099   5.066  10.017 -0.0407 -0.0440  0.4614
  388MOL0     C52294   0.216   5.154   9.884  0.5181  0.8512 -0.5146
  388MOL0     C52295   0.351   5.110   9.866 -0.9832 -0.4792  0.8557
  388MOL0     N52296   1.061   4.742   9.666  0.5327  0.0787  0.4851
  388MOL0     N52297   1.108   4.795   9.559  0.0551 -0.1393  0.1376
  388MOL0     C52298   2.242   5.250   9.622 -0.7382  0.4774 -0.1640
  388MOL0     C52299   2.380   5.207   9.624 -0.1010  0.2622 -0.9643
  388MOL0     C52300   2.762   4.986   9.498  0.6034 -0.1955  0.1001
  388MOL0     C52301   2.821   4.878   9.422 -0.4690  0.1929 -0.4565
  388MOL0     C52302   2.954   4.850   9.423 -0.0661 -0.7638 -0.1896
  388MOL0     C52303   3.047   4.930   9.491 -0.3744 -0.5142 -0.0015
  388MOL0     O52304   3.182   4.910   9.489 -0.0036 -0.5113  0.1613
  388MOL0     C52305   3.232   4.797   9.406  0.4917  0.0963  0.4000
  388MOL0     C52306   3.213   4.805   9.248  0.3719 -0.1675 -0.5360
  388MOL0     C52307   3.243   4.674   9.178  0.5744  0.4504 -0.3150
  388MOL0     C52308   3.386   4.615   9.203  0.2473 -0.7005 -0.3253
  388MOL0     C52309   3.399   4.500   9.113  0.0703  0.5089 -0.5114
  388MOL0     C52310   3.408   4.401   9.043 -0.4395  0.3583  0.1872
  388MOL0     C52311   2.987   5.019   9.577 -0.2381  0.2504 -0.5430
  388MOL0     C52312   2.853   5.054   9.575  0.4019 -0.2515 -0.0099
  388MOL0     H52313   2.423   5.128   9.304  0.8512  0.4892  0.6228
  388MOL0     H52314   2.179   5.135   9.299 -1.9347 -2.8270  2.0927
  388MOL0     H52315   1.942   5.181   9.316 -2.8070 -3.9662 -0.5056
  388MOL0     H52316   1.962   5.044   9.425 -3.1146 -0.4332 -1.0823
  388MOL0     H52317   1.785   5.142   9.576 -2.3072 -3.2638 -1.3061
  388MOL0     H52318   1.796   5.292   9.479 -0.6209 -0.3789  0.8620
  388MOL0     H52319   1.713   5.194   9.285 -1.9687  0.5184 -0.0146
  388MOL0     H52320   1.717   5.030   9.345 -0.4731 -0.4599  0.5094
  388MOL0     H52321   1.541   5.065   9.504 -1.9518  0.3587 -0.6603
  388MOL0     H52322   1.537   5.246   9.467  1.0898 -0.0267  2.1177
  388MOL0     H52323   1.470   5.179   9.233  1.7313  1.8595  2.0113
  388MOL0     H52324   1.450   5.012   9.278 -0.2092  0.0929 -1.6810
  388MOL0     H52325   1.311   5.217   9.456 -2.3552 -1.0584  1.2802
  388MOL0     H52326   1.243   5.171   9.299 -1.9971 -1.1317 -0.0004
  388MOL0     H52327   1.272   4.924   9.394 -0.8050  1.0575 -2.1314
  388MOL0     H52328   1.299   5.003   9.554 -1.3664  0.7340  1.2762
  388MOL0     H52329   1.048   5.019   9.370 -0.1937 -0.9762 -0.0829
  388MOL0     H52330   1.078   5.123   9.511 -0.8071  0.8058 -0.7932
  388MOL0     H52331   0.902   5.036   9.671 -0.3021  0.0682  2.0140
  388MOL0     H52332   0.909   4.718   9.894 -0.0912  1.5975  0.2804
  388MOL0     H52333   0.913   4.895   9.920 -1.2130  0.0034  1.7376
  388MOL0     H52334   0.706   4.707   9.816  0.6187 -0.7777  0.8349
  388MOL0     H52335   0.688   4.877   9.788  0.1781  0.1007  0.3866
  388MOL0     H52336   0.733   4.748  10.072  0.0506 -0.0212  0.3006
  388MOL0     H52337   0.577   4.740  10.007 -0.4120  0.5395 -0.7708
  388MOL0     H52338   0.705   4.986  10.102 -0.8033 -0.9183  3.2497
  388MOL0     H52339   0.554   4.912  10.154 -0.7432 -0.2243 -0.8566
  388MOL0     H52340   0.359   4.892  10.126 -0.7967 -1.3110  0.1706
  388MOL0     H52341   0.030   5.002  10.222  0.1770  0.5642  0.0534
  388MOL0     H52342   0.105   4.845  10.176 -1.3429  0.8055 -3.1064
  388MOL0     H52343   0.188   4.962  10.277  0.0291  1.9077 -0.1511
  388MOL0     H52344  -0.205   5.264  10.125  0.1401  1.4533  0.9675
  388MOL0     H52345  -0.403   5.397  10.121 -0.2186 -0.6232 -0.2195
  388MOL0     H52346  -0.660   5.628   9.999 -1.1398 -3.6478  1.2347
  388MOL0     H52347  -0.534   5.567  10.103  0.6773  0.0502 -0.2879
  388MOL0     H52348  -0.397   5.724  10.090 -0.9464 -1.9556  0.6109
  388MOL0     H52349  -0.405   5.731   9.909 -1.3690  2.1659 -0.9928
  388MOL0     H52350  -0.611   5.882  10.068 -1.8107 -1.8373 -1.1341
  388MOL0     H52351  -0.572   5.897   9.904 -3.1230 -1.1613  0.7901
  388MOL0     H52352  -0.358   5.950  10.118 -2.2705 -1.7695  0.0575
  388MOL0     H52353  -0.360   5.993   9.952 -0.6200  2.5429 -0.5460
  388MOL0     H52354  -0.416   6.192  10.064  0.8474 -1.3080 -0.7957
  388MOL0     H52355  -0.539   6.115  10.160 -2.6282  1.2650 -0.5549
  388MOL0     H52356  -0.575   6.118   9.857  2.8712 -0.5305  0.7873
  388MOL0     H52357  -0.703   6.103   9.982  0.0589 -0.9339 -2.8207
  388MOL0     H52358  -0.536   6.338   9.917  0.4664 -2.1813  1.0592
  388MOL0     H52359  -0.645   6.333  10.063 -1.3777  1.3066 -0.0221
  388MOL0     H52360  -0.802   6.436   9.946  0.8286 -0.7258  0.3049
  388MOL0     H52361  -0.838   6.268   9.932  1.6064 -1.7076  3.2733
  388MOL0     H52362  -0.391   5.434   9.692  1.6626 -1.8747 -1.1569
  388MOL0     H52363  -0.182   5.324   9.691 -0.3733 -2.3565  0.8888
  388MOL0     H52364   0.177   5.232   9.820  0.5153 -0.2261 -1.8890
  388MOL0     H52365   0.410   5.160   9.790 -0.3267 -2.5726 -0.0601
  388MOL0     H52366   2.184   5.290   9.704 -3.2024 -0.4399 -1.3586
  388MOL0     H52367   2.437   5.211   9.716 -0.1778  1.5405 -0.9528
  388MOL0     H52368   2.762   4.814   9.358 -0.0796 -0.3363 -0.2896
  388MOL0     H52369   2.983   4.757   9.376 -2.3184 -3.0226  2.4332
  388MOL0     H52370   3.340   4.794   9.419  1.1108  0.3482 -3.4889
  388MOL0     H52371   3.182   4.705   9.438 -0.4950 -0.6991 -2.9908
  388MOL0     H52372   3.288   4.877   9.214  1.9771 -1.3929  0.2599
  388MOL0     H52373   3.117   4.844   9.214  0.5651 -1.0676 -2.1971
  388MOL0     H52374   3.227   4.690   9.071 -0.6589 -1.2049 -0.4131
  388MOL0     H52375   3.182   4.595   9.221  1.6731 -0.2778 -0.0489
  388MOL0     H52376   3.391   4.582   9.307  0.4262 -1.0866 -0.4561
  388MOL0     H52377   3.471   4.677   9.174  0.1660  0.5717  1.9040
  388MOL0     H52378   3.425   4.314   8.982  0.2244 -0.3448  1.3260
  388MOL0     H52379   3.048   5.073   9.648 -1.1024  4.4563 -2.7140
  388MOL0     H52380   2.797   5.111   9.649 -2.1032 -1.7147 -0.6594
  389MOL0     O52381   6.781   3.737   4.133  0.7170 -0.3482 -0.4500
  389MOL0     C52382   6.888   3.773   4.084  0.5254  0.3541 -0.1648
  389MOL0     O52383   6.906   3.844   3.974  0.8877 -0.1834  0.0757
  389MOL0     C52384   6.801   3.860   3.885 -0.5430  0.2920 -0.3087
  389MOL0     C52385   6.773   3.984   3.831 -0.3437 -0.6601 -0.0017
  389MOL0     C52386   6.668   3.999   3.739  0.1369 -0.1804 -0.4686
  389MOL0     C52387   6.593   3.893   3.687  0.2009 -0.2690  0.4159
  389MOL0     O52388   6.496   3.898   3.586  0.0462  0.6099 -0.1952
  389MOL0     C52389   6.453   4.022   3.545 -1.3869  0.2235 -0.5165
  389MOL0     C52390   6.367   4.020   3.417  0.1564  0.3126  0.0138
  389MOL0     C52391   6.298   4.159   3.402  0.3986  0.6836  0.3603
  389MOL0     C52392   6.221   4.169   3.268 -0.1362  0.0900 -0.0969
  389MOL0     C52393   6.195   4.313   3.231 -0.3931 -0.1418  0.5525
  389MOL0     C52394   6.112   4.329   3.089  0.7963 -0.2743 -0.0692
  389MOL0     C52395   6.151   4.466   3.025  0.3328 -0.6952  0.4000
  389MOL0     C52396   6.120   4.463   2.875 -0.0901 -0.6252  0.8424
  389MOL0     N52397   6.120   4.599   2.805 -0.1053 -0.2691  0.3928
  389MOL0     C52398   6.016   4.654   2.724 -0.7537  0.5597  0.0721
  389MOL0     C52399   6.054   4.778   2.700 -0.4959  0.4164  0.1912
  389MOL0     C52400   5.995   4.882   2.604  0.8967  0.2992  0.5865
  389MOL0     C52401   5.865   4.937   2.665 -0.3022  0.2843 -0.3396
  389MOL0     C52402   5.747   4.833   2.649  0.0731  0.1290 -0.1083
  389MOL0     C52403   5.610   4.910   2.660 -0.2157  0.0201 -0.6442
  389MOL0     O52404   5.499   4.835   2.611  0.2051 -0.1594 -0.2663
  389MOL0     C52405   5.384   4.900   2.591  0.1259  0.4460  0.1345
  389MOL0     C52406   5.314   4.965   2.696  0.7779 -0.0496  0.7645
  389MOL0     C52407   5.195   5.043   2.659 -0.3608  0.5525 -0.0721
  389MOL0     C52408   5.113   5.088   2.774  0.0706 -1.3429 -1.3084
  389MOL0     C52409   5.149   5.061   2.524  0.2296 -0.0578 -0.2682
  389MOL0     C52410   5.025   5.132   2.491 -0.2920 -0.0590  0.2217
  389MOL0     O52411   4.986   5.118   2.360  0.0288  0.3243  0.1983
  389MOL0     C52412   4.851   5.123   2.338 -0.2223 -0.6813  0.0237
  389MOL0     C52413   4.777   5.006   2.351  0.3607 -0.4002 -0.4893
  389MOL0     C52414   4.636   5.018   2.335 -0.1660  0.3116  0.4064
  389MOL0     C52415   4.571   5.140   2.315 -0.2687 -0.1483 -0.1009
  389MOL0     O52416   4.431   5.157   2.310  0.0430 -0.4499  0.4935
  389MOL0     C52417   4.362   5.037   2.310 -0.4478 -0.2113  0.4677
  389MOL0     C52418   4.215   5.070   2.291  0.2325  0.3140 -0.2422
  389MOL0     C52419   4.159   5.151   2.407  0.4750 -0.0090  0.5586
  389MOL0     C52420   4.008   5.128   2.430  0.1253 -0.5403 -0.0386
  389MOL0     C52421   3.959   5.196   2.567 -0.2465  0.2374  0.4613
  389MOL0     C52422   3.808   5.220   2.561 -0.7062  0.4771 -0.0383
  389MOL0     C52423   3.720   5.091   2.545  0.3404  0.9001 -0.7371
  389MOL0     C52424   3.584   5.132   2.506  0.4248  0.2710  0.8512
  389MOL0    Cl52425   3.476   4.995   2.483 -0.1903 -0.5465  0.1175
  389MOL0     C52426   4.650   5.253   2.296  0.5852  0.2455 -0.4953
  389MOL0     C52427   4.788   5.249   2.305 -0.7132  0.3488 -0.2250
  389MOL0     O52428   4.957   5.200   2.569  0.1446  0.0830 -0.3275
  389MOL0     C52429   5.220   4.985   2.434 -0.3618  0.1543 -0.2255
  389MOL0     C52430   5.334   4.906   2.466 -0.7402 -0.3111 -0.2119
  389MOL0     N52431   6.165   4.810   2.776 -0.0498  0.6424 -0.1049
  389MOL0     N52432   6.204   4.705   2.842  1.1409 -0.4396  0.3551
  389MOL0     C52433   6.624   3.768   3.745  0.4462  0.0325 -0.6832
  389MOL0     C52434   6.720   3.749   3.848  0.7570  0.4543 -0.5806
  389MOL0     C52435   7.015   3.722   4.150  0.0353 -1.1548  1.0376
  389MOL0     C52436   7.027   3.661   4.273  0.3739 -0.5486 -0.5935
  389MOL0     C52437   7.136   3.609   4.319  0.0873 -0.1137  0.5471
  389MOL0     C52438   7.258   3.607   4.246  0.4877  0.0986 -0.4779
  389MOL0     O52439   7.375   3.554   4.299 -0.0266 -0.3561 -0.0146
  389MOL0     C52440   7.504   3.582   4.249  0.3577 -0.0255  0.4291
  389MOL0     C52441   7.615   3.488   4.304 -0.1131  0.2167 -0.6778
  389MOL0     C52442   7.575   3.348   4.252  1.0394 -0.1469  0.1108
  389MOL0     C52443   7.687   3.239   4.254 -0.4719  0.1564  0.7871
  389MOL0     C52444   7.645   3.126   4.170 -0.0041 -0.2851  0.2921
  389MOL0     C52445   7.618   3.044   4.093 -0.8559  0.6449 -0.1677
  389MOL0     C52446   7.249   3.660   4.116 -0.8764 -0.9304 -0.3413
  389MOL0     C52447   7.131   3.717   4.067  0.6868  0.4120  0.4876
  389MOL0     H52448   6.819   4.078   3.860 -1.9320 -0.4318  2.0424
  389MOL0     H52449   6.650   4.103   3.715 -0.5090  0.2045  1.4520
  389MOL0     H52450   6.394   4.069   3.624 -0.0905 -0.7485  1.1094
  389MOL0     H52451   6.532   4.096   3.532 -3.2036  1.8292 -3.5122
  389MOL0     H52452   6.432   3.995   3.333  0.7364 -0.6956  0.7421
  389MOL0     H52453   6.279   3.955   3.422 -1.4712  2.4592  0.8920
  389MOL0     H52454   6.238   4.167   3.492 -1.9788 -1.5336 -0.9154
  389MOL0     H52455   6.370   4.242   3.403 -1.4644  2.3808  0.8240
  389MOL0     H52456   6.257   4.109   3.184  0.0204  0.9358 -0.6461
  389MOL0     H52457   6.119   4.135   3.287  0.2895 -1.1345  0.1442
  389MOL0     H52458   6.155   4.359   3.322  0.3611  0.8970  0.3848
  389MOL0     H52459   6.297   4.353   3.221 -1.2076  1.9991  0.2260
  389MOL0     H52460   6.144   4.251   3.020 -0.1293  1.4312 -2.5860
  389MOL0     H52461   6.008   4.324   3.122  0.8479 -0.2513  0.0998
  389MOL0     H52462   6.092   4.547   3.071 -2.0680 -1.5574 -0.9938
  389MOL0     H52463   6.255   4.488   3.048 -0.0277  3.1275 -0.8967
  389MOL0     H52464   6.014   4.437   2.869 -0.0324 -0.9662  1.2320
  389MOL0     H52465   6.173   4.390   2.813 -0.3819  0.7668 -1.1355
  389MOL0     H52466   5.938   4.608   2.665  3.5699 -2.8480 -3.8159
  389MOL0     H52467   6.058   4.971   2.595  0.4701  0.6136  0.6481
  389MOL0     H52468   5.982   4.834   2.507  1.2481 -1.4293  1.3568
  389MOL0     H52469   5.847   5.035   2.620 -1.6380  0.6131  0.8144
  389MOL0     H52470   5.873   4.958   2.772  1.1482 -0.3830 -0.3054
  389MOL0     H52471   5.748   4.751   2.720 -1.7118 -0.5124 -0.7575
  389MOL0     H52472   5.751   4.795   2.546 -1.2492  2.5975 -1.1649
  389MOL0     H52473   5.618   5.012   2.623 -0.5829  1.4729  2.9192
  389MOL0     H52474   5.607   4.925   2.768  1.5921  0.3234 -0.6155
  389MOL0     H52475   5.335   4.955   2.802 -0.7607 -3.7808  0.8732
  389MOL0     H52476   5.126   5.196   2.786  1.0806 -1.7285  2.0343
  389MOL0     H52477   5.008   5.068   2.751 -0.6132 -2.0790  1.8908
  389MOL0     H52478   5.133   5.037   2.868 -1.2675 -0.9924 -0.8099
  389MOL0     H52479   4.820   4.908   2.368  0.4437 -0.1688  0.7209
  389MOL0     H52480   4.596   4.918   2.344  1.3774 -0.3232  0.6674
  389MOL0     H52481   4.404   4.962   2.242  0.8554 -1.4983  2.5768
  389MOL0     H52482   4.372   4.989   2.408 -0.2112 -0.0026  0.5464
  389MOL0     H52483   4.210   5.130   2.199  1.5405 -2.3055 -2.1604
  389MOL0     H52484   4.163   4.974   2.290 -2.2546  1.5302  1.1022
  389MOL0     H52485   4.183   5.254   2.378  1.1265 -0.4275 -0.4032
  389MOL0     H52486   4.217   5.132   2.498  2.1918 -0.8917 -0.6929
  389MOL0     H52487   3.940   5.163   2.352  0.3731 -0.8715 -0.4055
  389MOL0     H52488   3.984   5.022   2.430  0.9748 -0.7358 -0.8504
  389MOL0     H52489   4.014   5.290   2.573  2.5617 -1.2033 -0.5984
  389MOL0     H52490   3.993   5.129   2.647  2.4493 -2.2844 -2.5061
  389MOL0     H52491   3.789   5.270   2.656  0.8127  0.7495  0.1505
  389MOL0     H52492   3.788   5.291   2.480 -0.9688  0.0102 -0.3889
  389MOL0     H52493   3.707   5.039   2.641 -4.0224 -1.1764 -2.2236
  389MOL0     H52494   3.769   5.023   2.475 -3.0591 -2.8146  0.1136
  389MOL0     H52495   3.586   5.195   2.417  3.7621  2.5896  2.3493
  389MOL0     H52496   3.538   5.190   2.586 -1.8579  1.1403 -0.9934
  389MOL0     H52497   4.614   5.351   2.264 -1.3588 -0.4338 -0.5456
  389MOL0     H52498   4.861   5.329   2.297  0.4238 -0.1204  3.6374
  389MOL0     H52499   5.177   4.981   2.334 -0.2021  0.0427 -0.2902
  389MOL0     H52500   5.389   4.858   2.386  0.5319 -0.8992  0.9824
  389MOL0     H52501   6.565   3.682   3.715 -0.2452 -0.8436  2.6853
  389MOL0     H52502   6.746   3.651   3.887  2.5751  2.2294  3.2326
  389MOL0     H52503   6.938   3.659   4.335 -0.2927  1.0490 -1.4164
  389MOL0     H52504   7.128   3.567   4.419 -0.5235 -0.1184  0.5008
  389MOL0     H52505   7.506   3.576   4.140 -2.4249  4.2317 -0.0640
  389MOL0     H52506   7.529   3.685   4.277 -1.9566  1.1767 -1.5915
  389MOL0     H52507   7.617   3.489   4.413 -0.1935  3.6728 -0.5910
  389MOL0     H52508   7.714   3.522   4.270  0.7956 -1.7170 -0.0966
  389MOL0     H52509   7.544   3.360   4.148  0.9010 -1.8086 -0.0814
  389MOL0     H52510   7.484   3.320   4.305  0.6792  1.9958  0.6778
  389MOL0     H52511   7.732   3.204   4.348 -1.3150  0.3136  1.2520
  389MOL0     H52512   7.774   3.282   4.204 -1.3187  0.6471 -0.2840
  389MOL0     H52513   7.588   2.971   4.021 -2.9824  0.5106  0.7805
  389MOL0     H52514   7.328   3.648   4.043 -0.0699 -0.3670  0.4240
  389MOL0     H52515   7.126   3.742   3.962 -1.3586 -0.7642  0.2500
  390MOL0     O52516   3.439   6.363   1.807 -0.3676  0.0684  0.3450
  390MOL0     C52517   3.525   6.353   1.895  0.3538  1.3971  0.0393
  390MOL0     O52518   3.501   6.314   2.021  0.8091  0.0910 -0.2946
  390MOL0     C52519   3.374   6.283   2.067 -0.0128 -0.7711  0.1748
  390MOL0     C52520   3.266   6.232   1.994 -0.9989 -0.4409  0.1576
  390MOL0     C52521   3.139   6.206   2.046 -0.1348  0.3548  0.1614
  390MOL0     C52522   3.116   6.247   2.181  0.0827  0.0864  0.1553
  390MOL0     O52523   2.994   6.239   2.247  0.5578  0.0740  0.3264
  390MOL0     C52524   2.888   6.162   2.183 -0.6434 -0.0721  0.1136
  390MOL0     C52525   2.766   6.168   2.283  0.5742 -0.1304  0.0469
  390MOL0     C52526   2.765   6.059   2.384  0.2487  1.0073 -0.3991
  390MOL0     C52527   2.683   6.081   2.509 -0.7850 -0.0630  0.1235
  390MOL0     C52528   2.666   5.949   2.585 -0.7580  0.6750 -0.2160
  390MOL0     C52529   2.536   5.873   2.543  0.0054 -0.4857 -1.5406
  390MOL0     C52530   2.425   5.924   2.635  0.2333  0.1985 -0.1821
  390MOL0     C52531   2.289   5.856   2.613  0.0270 -0.4164  0.3702
  390MOL0     N52532   2.287   5.719   2.661 -0.5123 -0.3924 -1.1599
  390MOL0     C52533   2.264   5.617   2.586  0.2450 -0.3714 -0.3045
  390MOL0     C52534   2.282   5.515   2.677  0.6005  0.0960  0.6833
  390MOL0     C52535   2.243   5.369   2.650  0.5344 -0.2919  0.4592
  390MOL0     C52536   2.096   5.340   2.619 -0.1816 -0.4080 -0.5842
  390MOL0     C52537   2.030   5.348   2.756 -0.2481  0.1222  0.0863
  390MOL0     C52538   1.884   5.307   2.751 -0.1508  0.2680 -0.6857
  390MOL0     O52539   1.810   5.369   2.644 -0.1165  0.9246 -0.6466
  390MOL0     C52540   1.695   5.331   2.587 -1.2971  0.3752  0.3100
  390MOL0     C52541   1.635   5.417   2.499 -1.0302  0.6432 -0.0053
  390MOL0     C52542   1.504   5.398   2.447 -0.6251 -0.6600  0.6269
  390MOL0     C52543   1.454   5.495   2.344  0.3451  0.6771  0.2667
  390MOL0     C52544   1.434   5.274   2.482 -1.1718  0.4468 -0.1931
  390MOL0     C52545   1.297   5.260   2.454  1.1272 -0.2103 -0.2257
  390MOL0     O52546   1.261   5.131   2.429  0.3730 -0.6036 -0.3005
  390MOL0     C52547   1.162   5.100   2.332  0.1940 -0.0763  0.2578
  390MOL0     C52548   1.104   5.183   2.230 -0.1772 -0.3035  0.1537
  390MOL0     C52549   1.009   5.135   2.141 -0.7886 -0.5109 -0.6198
  390MOL0     C52550   0.967   5.011   2.155  0.7675  0.4853  0.4992
  390MOL0     O52551   0.889   4.964   2.047 -0.2124  0.2027 -0.3514
  390MOL0     C52552   0.848   4.831   2.030 -0.1771  0.0614  0.7260
  390MOL0     C52553   0.744   4.822   1.918 -0.6234  0.3946  0.4687
  390MOL0     C52554   0.806   4.871   1.788  0.0253 -0.6240 -0.2527
  390MOL0     C52555   0.705   4.861   1.684  0.0265 -0.5925 -0.2184
  390MOL0     C52556   0.744   4.912   1.542 -0.8948  0.4379 -0.3643
  390MOL0     C52557   0.867   4.834   1.484  0.3375  0.1200 -1.3802
  390MOL0     C52558   0.867   4.841   1.337 -0.0134  0.1689  0.4409
  390MOL0     C52559   1.002   4.803   1.288 -0.6209  0.1324 -0.2066
  390MOL0    Cl52560   1.134   4.920   1.313 -0.2875  0.4363 -0.4756
  390MOL0     C52561   1.012   4.932   2.263  1.2030  0.0928  0.4839
  390MOL0     C52562   1.117   4.973   2.349 -0.5189 -0.1659 -0.6056
  390MOL0     O52563   1.226   5.359   2.454  0.1079 -0.4776  0.3107
  390MOL0     C52564   1.496   5.191   2.576 -0.2806  0.3483 -0.6349
  390MOL0     C52565   1.632   5.211   2.626 -0.7221  1.0875  0.3733
  390MOL0     N52566   2.335   5.560   2.797  0.1819  0.2669 -0.5663
  390MOL0     N52567   2.337   5.686   2.787 -0.1426  0.5696 -0.1437
  390MOL0     C52568   3.221   6.310   2.253 -0.6122  0.2029 -0.3909
  390MOL0     C52569   3.353   6.324   2.199  1.2385 -0.2800  0.2262
  390MOL0     C52570   3.665   6.359   1.854  0.2298 -0.2148 -0.8573
  390MOL0     C52571   3.696   6.424   1.732  0.3218 -0.8852 -0.4898
  390MOL0     C52572   3.827   6.432   1.693 -0.7529 -0.3650 -0.1413
  390MOL0     C52573   3.934   6.399   1.782 -0.3732 -0.3176 -0.5640
  390MOL0     O52574   4.067   6.427   1.765  0.1642  0.4282 -0.2842
  390MOL0     C52575   4.115   6.438   1.630 -0.1219 -0.7570 -0.0453
  390MOL0     C52576   4.268   6.455   1.629  0.6329 -0.0209  0.6075
  390MOL0     C52577   4.349   6.399   1.750  0.1846 -0.5728 -0.4966
  390MOL0     C52578   4.493   6.361   1.713 -0.4364 -0.1539  1.1040
  390MOL0     C52579   4.557   6.287   1.822 -0.3100 -0.1386 -0.5670
  390MOL0     C52580   4.600   6.233   1.916 -0.6671  0.8442  0.0325
  390MOL0     C52581   3.905   6.342   1.903  0.2285  0.8250  0.0966
  390MOL0     C52582   3.775   6.313   1.934 -0.0641  0.0437  0.2736
  390MOL0     H52583   3.287   6.189   1.897  0.5150 -2.6467  1.3729
  390MOL0     H52584   3.063   6.161   1.982  1.0600  0.7266 -1.5750
  390MOL0     H52585   2.856   6.195   2.084 -1.5710 -2.4068 -0.4189
  390MOL0     H52586   2.919   6.057   2.174 -1.1053  0.0129 -4.0528
  390MOL0     H52587   2.762   6.264   2.336  0.5450  1.3362 -2.4287
  390MOL0     H52588   2.672   6.161   2.227  1.4002  0.2764 -1.4641
  390MOL0     H52589   2.727   5.967   2.337 -3.7682  2.1221  0.2490
  390MOL0     H52590   2.867   6.052   2.423  0.6527  1.8813 -1.2465
  390MOL0     H52591   2.730   6.157   2.572  0.6225 -2.3562  1.9999
  390MOL0     H52592   2.589   6.134   2.487 -0.3642  1.8916  2.5368
  390MOL0     H52593   2.750   5.895   2.541 -0.0352  1.8502 -0.3245
  390MOL0     H52594   2.677   5.957   2.694 -1.1681 -1.3970  0.0140
  390MOL0     H52595   2.521   5.895   2.436 -0.4578  0.0326 -1.3732
  390MOL0     H52596   2.559   5.766   2.546 -0.4892 -0.5688 -0.5306
  390MOL0     H52597   2.450   5.914   2.741 -0.5574 -2.1414 -0.1613
  390MOL0     H52598   2.400   6.025   2.601  1.3164  0.4550 -0.2369
  390MOL0     H52599   2.274   5.847   2.505 -0.7531 -0.8161  0.5051
  390MOL0     H52600   2.206   5.914   2.654 -1.3076 -2.9009  1.4356
  390MOL0     H52601   2.209   5.616   2.492 -1.4193 -0.8784  0.6271
  390MOL0     H52602   2.314   5.346   2.569 -0.5133  2.3865 -1.3564
  390MOL0     H52603   2.277   5.303   2.730  1.0170 -1.6072 -0.7656
  390MOL0     H52604   2.085   5.238   2.581  0.7648 -0.3134 -1.1522
  390MOL0     H52605   2.048   5.405   2.545  0.6626  0.0021 -0.7816
  390MOL0     H52606   2.029   5.450   2.795 -1.2070  0.3859 -0.5965
  390MOL0     H52607   2.079   5.272   2.818  0.7609  1.1299  0.5663
  390MOL0     H52608   1.830   5.332   2.843  1.1378 -0.3386  0.2667
  390MOL0     H52609   1.877   5.199   2.738  0.4835  0.3124 -1.4492
  390MOL0     H52610   1.682   5.514   2.481 -0.7066  0.0220 -3.0531
  390MOL0     H52611   1.383   5.445   2.277 -2.1438  2.0535  1.7430
  390MOL0     H52612   1.396   5.567   2.402 -1.6227 -1.8206  1.6176
  390MOL0     H52613   1.535   5.534   2.282 -1.1731 -1.2017 -3.2043
  390MOL0     H52614   1.134   5.287   2.221 -1.0876 -0.1920 -2.4171
  390MOL0     H52615   0.986   5.202   2.058  0.5729  0.2195 -0.4221
  390MOL0     H52616   0.937   4.771   2.012 -0.3913  0.0528 -0.3435
  390MOL0     H52617   0.807   4.793   2.125  1.9271 -1.8804  0.9546
  390MOL0     H52618   0.710   4.718   1.905  1.2758 -0.1090 -0.9107
  390MOL0     H52619   0.655   4.883   1.936 -1.6861 -0.7407 -0.6505
  390MOL0     H52620   0.884   4.805   1.749  0.6356 -0.4755  0.6787
  390MOL0     H52621   0.832   4.977   1.792 -0.0388 -0.6380  0.6494
  390MOL0     H52622   0.681   4.754   1.684 -2.9740 -0.0074  0.3082
  390MOL0     H52623   0.616   4.916   1.716 -0.4549 -1.3397 -0.2505
  390MOL0     H52624   0.757   5.021   1.551 -1.2944  0.3366  2.4084
  390MOL0     H52625   0.661   4.895   1.473 -0.4897  1.6453 -1.1793
  390MOL0     H52626   0.965   4.863   1.524  1.5978 -1.2910 -3.2619
  390MOL0     H52627   0.853   4.729   1.513 -2.3271  0.3329 -1.6950
  390MOL0     H52628   0.824   4.933   1.295 -0.4113  0.5641  1.6601
  390MOL0     H52629   0.799   4.761   1.307  1.9968 -1.6095  0.3717
  390MOL0     H52630   0.994   4.787   1.180  2.2143  0.9848 -0.6166
  390MOL0     H52631   1.020   4.704   1.331 -3.0973  0.1420  0.9631
  390MOL0     H52632   0.965   4.836   2.280  1.3188 -0.0388  0.0904
  390MOL0     H52633   1.164   4.912   2.425  1.5208  1.5348 -0.3971
  390MOL0     H52634   1.451   5.100   2.616  2.7706 -0.7575  0.5915
  390MOL0     H52635   1.681   5.134   2.685 -1.7507 -0.4539 -0.6881
  390MOL0     H52636   3.191   6.350   2.349  0.1104 -1.6826  0.6825
  390MOL0     H52637   3.430   6.387   2.243  1.0207  2.0952 -2.4591
  390MOL0     H52638   3.619   6.469   1.671 -0.7025  0.1295  1.4520
  390MOL0     H52639   3.857   6.481   1.601  2.0487 -0.2327  0.7312
  390MOL0     H52640   4.090   6.351   1.569  0.3915 -1.7620  1.1239
  390MOL0     H52641   4.064   6.523   1.583  3.3930  1.2072 -0.6642
  390MOL0     H52642   4.282   6.563   1.621  0.4914 -0.1507 -2.0674
  390MOL0     H52643   4.315   6.421   1.536 -1.2896 -2.2273  0.3506
  390MOL0     H52644   4.298   6.314   1.797 -1.1248 -0.4154 -1.5643
  390MOL0     H52645   4.354   6.482   1.821  0.0811  0.9592 -2.1909
  390MOL0     H52646   4.555   6.451   1.705 -0.7024  0.1471  2.2114
  390MOL0     H52647   4.487   6.301   1.622  1.1657 -0.5716  1.2585
  390MOL0     H52648   4.620   6.179   2.007  1.8540  0.3798 -0.7297
  390MOL0     H52649   3.986   6.320   1.972  1.0022  1.0200 -0.7371
  390MOL0     H52650   3.766   6.251   2.023  1.0361  1.0434  1.1125
  391MOL0     O52651  11.115   8.801   1.834 -0.1579  0.9515  0.4158
  391MOL0     C52652  11.165   8.689   1.850  0.3850 -0.1000 -0.4049
  391MOL0     O52653  11.091   8.563   1.832 -0.0459 -0.8160  0.4325
  391MOL0     C52654  10.966   8.578   1.791  0.6438 -0.5731 -0.1296
  391MOL0     C52655  10.862   8.597   1.880  0.3642  0.7974  1.0883
  391MOL0     C52656  10.729   8.599   1.841 -0.6524  0.2737 -0.1920
  391MOL0     C52657  10.708   8.584   1.705  0.9456 -1.0069  0.5849
  391MOL0     O52658  10.581   8.578   1.647 -0.3914  0.5763 -1.2016
  391MOL0     C52659  10.518   8.453   1.647 -0.3109  0.3228  0.5504
  391MOL0     C52660  10.385   8.477   1.571 -1.0061 -0.2274 -0.2888
  391MOL0     C52661  10.317   8.339   1.551  0.3339 -0.0117 -0.5386
  391MOL0     C52662  10.202   8.343   1.456  0.9335  1.0758  0.6676
  391MOL0     C52663  10.143   8.198   1.418 -0.3706  0.1097 -0.1080
  391MOL0     C52664  10.009   8.217   1.347 -0.9150 -0.0100 -0.1728
  391MOL0     C52665   9.959   8.084   1.297 -0.1454 -0.2490 -0.2224
  391MOL0     C52666   9.932   7.965   1.380 -0.2330 -0.2780  0.2269
  391MOL0     N52667   9.836   7.871   1.325 -0.5350 -0.2595  0.5564
  391MOL0     C52668   9.842   7.793   1.212  0.2052  0.3871  0.1569
  391MOL0     C52669   9.734   7.713   1.214 -0.2090 -0.0557  0.3982
  391MOL0     C52670   9.701   7.588   1.138  0.3441 -0.2824 -0.2963
  391MOL0     C52671   9.574   7.605   1.057  0.5268  0.5365  0.6409
  391MOL0     C52672   9.448   7.620   1.143 -0.5617 -0.3181 -0.4706
  391MOL0     C52673   9.321   7.631   1.065  0.1443  0.6682 -0.6530
  391MOL0     O52674   9.206   7.627   1.161 -0.0892 -0.1073  0.4033
  391MOL0     C52675   9.084   7.621   1.105 -0.0838 -0.2815 -0.5652
  391MOL0     C52676   9.041   7.599   0.969 -0.5568 -0.0812 -0.0035
  391MOL0     C52677   8.911   7.626   0.936  0.2165 -0.1815 -0.1214
  391MOL0     C52678   8.883   7.601   0.786 -0.0038 -0.5972  0.6809
  391MOL0     C52679   8.813   7.656   1.040  0.2194  0.7531  0.4930
  391MOL0     C52680   8.667   7.689   1.015 -0.0825 -0.5234  0.3540
  391MOL0     O52681   8.583   7.741   1.119 -0.6976 -0.5017  0.3908
  391MOL0     C52682   8.451   7.752   1.088 -0.0820  0.2682  0.7056
  391MOL0     C52683   8.367   7.636   1.085  0.2113  0.4000 -0.0523
  391MOL0     C52684   8.227   7.656   1.078 -0.3069 -0.2329  1.0217
  391MOL0     C52685   8.178   7.790   1.072 -0.0096 -0.1015 -0.2880
  391MOL0     O52686   8.043   7.826   1.058 -0.7711  0.4946 -0.0933
  391MOL0     C52687   7.949   7.721   1.080 -0.4462  0.1413  0.2935
  391MOL0     C52688   7.805   7.770   1.102  0.0324  0.2261 -0.9069
  391MOL0     C52689   7.757   7.830   0.971  0.2101  0.5807 -0.5878
  391MOL0     C52690   7.621   7.901   0.976 -0.2141  0.9143 -0.7416
  391MOL0     C52691   7.588   7.950   0.836 -0.9409  0.2840  0.0625
  391MOL0     C52692   7.443   7.997   0.818  0.8284 -0.4611 -0.2780
  391MOL0     C52693   7.332   7.882   0.811 -0.1851 -0.4504  0.0725
  391MOL0     C52694   7.196   7.941   0.802  0.2820 -0.0451 -0.1653
  391MOL0    Cl52695   7.192   7.991   0.632  0.0225 -0.0922 -0.6775
  391MOL0     C52696   8.259   7.895   1.062  0.0504  0.4598 -0.1639
  391MOL0     C52697   8.402   7.885   1.073 -0.5178  0.0851 -0.2229
  391MOL0     O52698   8.615   7.642   0.915 -0.9226 -0.0673  0.8808
  391MOL0     C52699   8.858   7.662   1.176 -0.9143 -0.3460  0.2615
  391MOL0     C52700   8.992   7.647   1.200 -0.4077 -0.3801  0.5010
  391MOL0     N52701   9.653   7.772   1.314 -0.1673  0.3591 -0.3357
  391MOL0     N52702   9.709   7.852   1.384  0.2839 -0.3160  0.0785
  391MOL0     C52703  10.811   8.582   1.611  0.1106  0.2411  0.2175
  391MOL0     C52704  10.941   8.584   1.654 -0.3402 -0.6733  1.0565
  391MOL0     C52705  11.306   8.677   1.899 -0.6372  0.3711  0.1097
  391MOL0     C52706  11.393   8.787   1.921  0.3181 -0.1214 -0.2149
  391MOL0     C52707  11.522   8.780   1.955 -0.4731  0.1592 -0.0021
  391MOL0     C52708  11.584   8.659   1.951 -0.5034 -0.7542  0.5282
  391MOL0     O52709  11.713   8.670   1.992  0.5027  0.1630 -0.1160
  391MOL0     C52710  11.813   8.619   1.895  0.6120  0.4939  0.3123
  391MOL0     C52711  11.865   8.471   1.940 -0.4437 -0.6924 -0.1312
  391MOL0     C52712  12.009   8.461   1.898  1.1098 -0.2565  0.1909
  391MOL0     C52713  12.071   8.326   1.919  0.5629  0.2287 -0.2871
  391MOL0     C52714  12.217   8.327   1.894 -0.6626 -0.3220 -0.8303
  391MOL0     C52715  12.341   8.326   1.883 -0.8487  0.4903  0.0216
  391MOL0     C52716  11.512   8.541   1.931  0.7137  1.0058 -0.8599
  391MOL0     C52717  11.372   8.548   1.900  0.0567 -0.0140 -0.1921
  391MOL0     H52718  10.886   8.596   1.985 -0.7063 -2.8058  1.4493
  391MOL0     H52719  10.649   8.605   1.915 -0.6471 -0.2064 -0.1441
  391MOL0     H52720  10.581   8.388   1.585 -0.3175  0.1174  0.7581
  391MOL0     H52721  10.504   8.415   1.748  0.0445 -0.8606  0.1682
  391MOL0     H52722  10.317   8.543   1.625 -0.3731  1.8510 -1.9070
  391MOL0     H52723  10.412   8.520   1.474  0.2196 -0.2577  0.0182
  391MOL0     H52724  10.393   8.270   1.512  0.4770 -1.3985  1.9831
  391MOL0     H52725  10.295   8.301   1.651 -0.7462 -1.1381 -1.1725
  391MOL0     H52726  10.130   8.411   1.502 -1.8596 -1.0959 -0.1750
  391MOL0     H52727  10.229   8.378   1.356 -1.3737 -2.3181 -1.3679
  391MOL0     H52728  10.213   8.154   1.346 -1.5067 -1.6285 -0.2010
  391MOL0     H52729  10.141   8.139   1.511 -1.2144 -1.5169 -1.1053
  391MOL0     H52730   9.931   8.274   1.398 -1.5727 -1.0914  0.0450
  391MOL0     H52731  10.023   8.279   1.257 -2.2036 -0.1882 -0.5138
  391MOL0     H52732   9.861   8.102   1.252 -0.6384  1.5718  1.4540
  391MOL0     H52733  10.031   8.057   1.219  0.8898 -1.4106  1.0893
  391MOL0     H52734   9.903   8.002   1.479  1.9224  2.9298 -0.1965
  391MOL0     H52735  10.026   7.911   1.394 -0.0863  0.2350  1.3519
  391MOL0     H52736   9.927   7.797   1.144 -0.1082 -3.8778 -0.7238
  391MOL0     H52737   9.785   7.574   1.069  1.2306 -1.9271  1.0438
  391MOL0     H52738   9.710   7.502   1.205  0.7353 -0.0876 -0.0980
  391MOL0     H52739   9.561   7.527   0.980  1.8848 -0.9858  1.8684
  391MOL0     H52740   9.581   7.700   1.003 -1.8633  1.5898  2.0509
  391MOL0     H52741   9.450   7.711   1.203  0.8162  2.3255 -4.1202
  391MOL0     H52742   9.441   7.535   1.212 -2.2268  0.6633  0.6065
  391MOL0     H52743   9.314   7.544   0.998 -3.0492  0.5382 -0.2959
  391MOL0     H52744   9.319   7.727   1.012 -1.6345  0.6812 -0.6012
  391MOL0     H52745   9.117   7.567   0.899  2.8486  1.3046  2.7727
  391MOL0     H52746   8.803   7.667   0.751  0.1914 -2.3536 -3.6548
  391MOL0     H52747   8.970   7.612   0.720  1.6069  1.9231  3.0309
  391MOL0     H52748   8.858   7.495   0.775  1.1015 -1.0993  2.4629
  391MOL0     H52749   8.425   7.545   1.097 -0.0227  0.3154  0.4526
  391MOL0     H52750   8.172   7.564   1.065 -0.9765  0.1958  0.7386
  391MOL0     H52751   7.957   7.642   1.004  1.4410 -0.9525  1.5474
  391MOL0     H52752   7.967   7.674   1.177 -1.4705  0.4105  0.6198
  391MOL0     H52753   7.748   7.678   1.118  1.3071 -1.1800 -3.7765
  391MOL0     H52754   7.795   7.838   1.188  2.0736 -2.2537  1.4809
  391MOL0     H52755   7.753   7.758   0.890  0.7539  0.9276 -0.9289
  391MOL0     H52756   7.830   7.901   0.930  1.4545 -0.7433 -0.7670
  391MOL0     H52757   7.544   7.825   0.994  0.3772 -0.0116 -1.9846
  391MOL0     H52758   7.616   7.977   1.055 -0.7089 -1.7516  1.9465
  391MOL0     H52759   7.601   7.874   0.758 -0.8969  1.2995 -0.9379
  391MOL0     H52760   7.664   8.022   0.805  2.1469 -2.2205  1.2338
  391MOL0     H52761   7.429   8.067   0.900  1.1669  0.0673 -0.6674
  391MOL0     H52762   7.436   8.049   0.722 -2.0469  3.2603  1.7013
  391MOL0     H52763   7.341   7.815   0.897 -2.1632 -2.1049 -0.9222
  391MOL0     H52764   7.350   7.814   0.728 -0.2612  2.8543 -2.9230
  391MOL0     H52765   7.170   8.020   0.873  0.2457  0.0107 -0.2402
  391MOL0     H52766   7.127   7.856   0.806  1.8414 -1.3157  1.8108
  391MOL0     H52767   8.215   7.994   1.053  0.6672  0.7442 -0.1284
  391MOL0     H52768   8.462   7.975   1.080 -0.6750  0.3476 -1.7465
  391MOL0     H52769   8.790   7.669   1.261 -0.7393 -0.2981  0.3971
  391MOL0     H52770   9.017   7.642   1.306 -1.2275 -2.7689  0.6629
  391MOL0     H52771  10.787   8.568   1.506  1.1988 -2.0480  0.2103
  391MOL0     H52772  11.023   8.572   1.584  1.4863  2.5236  2.4115
  391MOL0     H52773  11.347   8.885   1.904  0.8219 -0.2775 -3.0224
  391MOL0     H52774  11.581   8.864   1.991  0.7007 -1.1523  1.2930
  391MOL0     H52775  11.778   8.622   1.791 -0.7087 -3.6902  0.4639
  391MOL0     H52776  11.896   8.690   1.906 -0.0799  1.7761 -1.9635
  391MOL0     H52777  11.822   8.380   1.897 -0.7539 -0.0119 -1.3145
  391MOL0     H52778  11.861   8.463   2.049  2.2574 -0.4783  0.0434
  391MOL0     H52779  12.066   8.541   1.947  0.8445 -0.7140  1.2744
  391MOL0     H52780  12.001   8.486   1.792 -2.5983 -0.1629  0.3936
  391MOL0     H52781  12.033   8.249   1.851  0.0891  0.3903 -0.2081
  391MOL0     H52782  12.054   8.287   2.020  5.1249 -2.9393 -0.4195
  391MOL0     H52783  12.448   8.319   1.886 -0.8219 -0.5461 -1.9771
  391MOL0     H52784  11.555   8.443   1.945 -1.8837  0.1843  2.6877
  391MOL0     H52785  11.317   8.458   1.876  2.0080 -0.8701 -1.7431
  392MOL0     O52786   4.669   4.924  10.019  0.0805  0.0107 -0.1598
  392MOL0     C52787   4.718   5.029  10.056 -0.1816 -0.4499 -0.0961
  392MOL0     O52788   4.650   5.138  10.094  0.0602  0.0279  0.4416
  392MOL0     C52789   4.520   5.122  10.136 -0.6192  0.7302 -0.7031
  392MOL0     C52790   4.479   5.007  10.206  0.8877 -1.1267  1.1594
  392MOL0     C52791   4.362   4.999  10.281  0.0394 -0.4032 -0.0451
  392MOL0     C52792   4.268   5.098  10.272  0.1898  0.5869 -0.1486
  392MOL0     O52793   4.144   5.089  10.342  0.4837  0.1604 -0.2504
  392MOL0     C52794   4.077   5.215  10.371 -0.3675  0.2943 -0.1998
  392MOL0     C52795   3.944   5.192  10.432 -0.3360 -0.2293  0.7431
  392MOL0     C52796   3.877   5.317  10.480 -0.5409  0.0316 -1.0239
  392MOL0     C52797   3.736   5.280  10.525 -0.3721  0.0545  0.4764
  392MOL0     C52798   3.663   5.388  10.595  0.3431  0.3864  0.4882
  392MOL0     C52799   3.510   5.347  10.588 -0.0410 -0.6800  0.8244
  392MOL0     C52800   3.426   5.432  10.684 -0.2303  0.2335 -0.3468
  392MOL0     C52801   3.284   5.479  10.629 -0.1420 -0.5728  0.1935
  392MOL0     N52802   3.207   5.522  10.750 -1.3181  0.6325 -0.0080
  392MOL0     C52803   3.134   5.439  10.827  0.1846 -0.7624 -0.6263
  392MOL0     C52804   3.109   5.511  10.945  0.3683  0.0589  0.4954
  392MOL0     C52805   3.026   5.460  11.056  1.2354 -0.2237  0.2173
  392MOL0     C52806   2.871   5.485  11.051 -0.0618 -0.3969 -0.1977
  392MOL0     C52807   2.796   5.467  11.188  0.1681  0.6960  0.4324
  392MOL0     C52808   2.638   5.495  11.163 -0.2875 -0.0304 -0.0772
  392MOL0     O52809   2.540   5.427  11.249 -0.1530  0.3938  0.7076
  392MOL0     C52810   2.425   5.487  11.291 -0.4296 -1.1109  0.7307
  392MOL0     C52811   2.317   5.416  11.324  1.0708 -0.5388 -0.1164
  392MOL0     C52812   2.208   5.485  11.379 -0.4887 -0.0741 -0.2047
  392MOL0     C52813   2.073   5.410  11.396 -0.7699  1.6504  0.0001
  392MOL0     C52814   2.203   5.630  11.407 -0.9496 -1.2818  0.1432
  392MOL0     C52815   2.096   5.710  11.457 -0.0602 -1.2458 -0.8242
  392MOL0     O52816   2.126   5.816  11.544 -0.2882 -0.8187 -0.4137
  392MOL0     C52817   2.040   5.919  11.569  0.0535 -0.0412  0.2557
  392MOL0     C52818   1.932   5.960  11.486  0.6095  0.5551 -0.2872
  392MOL0     C52819   1.866   6.076  11.511 -0.0604  0.0788  0.4835
  392MOL0     C52820   1.907   6.161  11.615 -0.1537 -0.1153  0.1867
  392MOL0     O52821   1.852   6.279  11.636 -0.4111 -0.0722  0.6385
  392MOL0     C52822   1.714   6.276  11.674 -0.0307  0.1565  0.5582
  392MOL0     C52823   1.694   6.191  11.796 -0.0504  0.2162 -0.3668
  392MOL0     C52824   1.549   6.182  11.831  0.4532  0.2794 -0.2271
  392MOL0     C52825   1.486   6.309  11.860 -0.2029 -0.0128  0.6022
  392MOL0     C52826   1.344   6.295  11.927 -0.0989  0.0680  0.2864
  392MOL0     C52827   1.257   6.421  11.875 -0.5819  0.3814 -0.8308
  392MOL0     C52828   1.115   6.400  11.904  0.7027  0.5715  0.4580
  392MOL0     C52829   1.039   6.531  11.903 -0.3859 -0.1953 -1.0239
  392MOL0    Cl52830   1.068   6.624  11.759 -0.1457  0.1974 -0.2248
  392MOL0     C52831   2.015   6.125  11.696 -0.5939  0.3119 -0.1954
  392MOL0     C52832   2.078   6.003  11.673 -0.3248 -0.6382 -0.4139
  392MOL0     O52833   1.986   5.695  11.408  0.5293  0.5325 -0.4131
  392MOL0     C52834   2.323   5.696  11.378  0.2301 -0.5532  0.5062
  392MOL0     C52835   2.431   5.623  11.325 -0.0871  0.1372  0.8707
  392MOL0     N52836   3.168   5.631  10.934 -1.5004 -0.6643 -0.1041
  392MOL0     N52837   3.221   5.640  10.814 -0.1820  0.5029 -0.2973
  392MOL0     C52838   4.298   5.206  10.199 -0.8906  0.5770 -0.0947
  392MOL0     C52839   4.428   5.218  10.130 -0.3730  0.1610  0.2332
  392MOL0     C52840   4.862   5.052  10.035  0.3871  0.2283  0.0798
  392MOL0     C52841   4.927   5.175  10.051 -0.5862  0.8224  0.1256
  392MOL0     C52842   5.065   5.180  10.027 -0.9639 -0.3255  0.1781
  392MOL0     C52843   5.144   5.073  10.003  0.5928  0.1995  0.0910
  392MOL0     O52844   5.271   5.097   9.975  0.0575 -0.5233  0.6927
  392MOL0     C52845   5.372   5.005  10.035  0.3759 -0.4566  0.1170
  392MOL0     C52846   5.513   5.057  10.048 -0.4537 -0.5198  0.7703
  392MOL0     C52847   5.519   5.204  10.098  0.1817  0.3814 -0.0453
  392MOL0     C52848   5.664   5.249  10.117 -0.5338  0.0175  0.5894
  392MOL0     C52849   5.713   5.190  10.233  0.6742 -0.9602  0.7453
  392MOL0     C52850   5.751   5.147  10.341  0.5195 -0.2579 -0.3643
  392MOL0     C52851   5.086   4.943   9.998 -0.2549  0.4111  0.6268
  392MOL0     C52852   4.944   4.941  10.007  0.9653 -0.1820  0.4019
  392MOL0     H52853   4.551   4.926  10.213 -0.3356 -2.1053  3.4322
  392MOL0     H52854   4.351   4.915  10.348  0.9806 -2.1050 -1.9319
  392MOL0     H52855   4.140   5.277  10.435 -0.9634 -0.5001  1.1860
  392MOL0     H52856   4.054   5.272  10.281 -0.8729 -0.5128 -0.5995
  392MOL0     H52857   3.878   5.144  10.359  1.8834 -2.0859 -0.1894
  392MOL0     H52858   3.954   5.121  10.515 -0.0115 -0.5483  0.4354
  392MOL0     H52859   3.939   5.363  10.558 -3.2585  0.6760  0.8997
  392MOL0     H52860   3.875   5.386  10.395 -0.3280 -0.0414 -1.0881
  392MOL0     H52861   3.677   5.266  10.434  0.3239  2.1285 -0.3597
  392MOL0     H52862   3.733   5.184  10.578 -0.2953 -1.7204 -2.5044
  392MOL0     H52863   3.687   5.406  10.700 -0.1952  1.8389  0.3864
  392MOL0     H52864   3.678   5.482  10.541  1.2108  0.6728  1.2090
  392MOL0     H52865   3.483   5.380  10.487 -1.0337  3.5785  2.2831
  392MOL0     H52866   3.497   5.239  10.600  2.2809 -1.1136  0.0739
  392MOL0     H52867   3.415   5.383  10.781 -4.8672  1.0095 -0.2260
  392MOL0     H52868   3.462   5.533  10.706 -3.1824  1.6231 -1.2844
  392MOL0     H52869   3.232   5.394  10.584 -1.2637 -0.4397  1.1960
  392MOL0     H52870   3.302   5.563  10.562  2.3886 -1.0309  0.1668
  392MOL0     H52871   3.108   5.335  10.808  0.4651 -1.0266  0.3997
  392MOL0     H52872   3.052   5.354  11.069  2.2834 -0.1352 -0.9199
  392MOL0     H52873   3.068   5.498  11.149 -1.1439 -0.3767  1.4156
  392MOL0     H52874   2.819   5.427  10.974  2.2165  2.7148 -4.5189
  392MOL0     H52875   2.864   5.592  11.032  0.6196 -0.1242  0.9937
  392MOL0     H52876   2.834   5.535  11.264  0.4411  0.9967  0.0335
  392MOL0     H52877   2.813   5.370  11.234  1.2861  0.2282 -0.8930
  392MOL0     H52878   2.617   5.444  11.068 -1.6794  0.5893 -0.1289
  392MOL0     H52879   2.617   5.601  11.143  0.6333 -0.2423 -2.5986
  392MOL0     H52880   2.324   5.309  11.309  1.2389 -0.5192 -0.1779
  392MOL0     H52881   2.012   5.420  11.306 -0.2636  4.6767 -0.1115
  392MOL0     H52882   2.091   5.304  11.415 -1.6544  1.7876  1.8532
  392MOL0     H52883   2.019   5.457  11.478  0.7120  1.3778  1.1796
  392MOL0     H52884   1.888   5.915  11.398 -2.3167  2.8172 -0.1770
  392MOL0     H52885   1.806   6.117  11.430  0.2882 -0.0560  0.1514
  392MOL0     H52886   1.677   6.375  11.701 -0.8997 -0.7326  2.8967
  392MOL0     H52887   1.661   6.250  11.583  0.9972  1.9194 -0.6070
  392MOL0     H52888   1.737   6.094  11.770  0.3379  0.5920 -1.1620
  392MOL0     H52889   1.746   6.233  11.882  2.1492  0.2139 -1.6212
  392MOL0     H52890   1.546   6.118  11.920  1.6646 -1.0432 -1.0805
  392MOL0     H52891   1.489   6.134  11.753 -2.0538  0.6730  1.3362
  392MOL0     H52892   1.545   6.367  11.933 -1.4251  0.4179  1.2724
  392MOL0     H52893   1.473   6.355  11.762  1.8694 -1.6548 -0.5312
  392MOL0     H52894   1.355   6.304  12.036  1.8244  2.0889 -0.0032
  392MOL0     H52895   1.301   6.197  11.904 -2.4089  1.3376 -1.2048
  392MOL0     H52896   1.299   6.507  11.928 -1.4534  1.6693 -2.1390
  392MOL0     H52897   1.268   6.437  11.768  1.1092 -0.3269 -0.7977
  392MOL0     H52898   1.103   6.348  12.000  0.5638  0.0915  0.1829
  392MOL0     H52899   1.066   6.337  11.830  0.1598  1.9759 -0.4168
  392MOL0     H52900   1.081   6.597  11.980  0.3724 -0.8526 -0.8607
  392MOL0     H52901   0.932   6.523  11.924 -0.1020  0.0450  0.6417
  392MOL0     H52902   2.048   6.184  11.780  0.4420 -1.9154  1.0572
  392MOL0     H52903   2.152   5.958  11.738  1.8459  0.5845 -1.9089
  392MOL0     H52904   2.344   5.801  11.395  0.5261 -0.6104  0.5062
  392MOL0     H52905   2.527   5.674  11.315 -0.0201 -0.4368 -2.2234
  392MOL0     H52906   4.225   5.285  10.185 -1.1158  0.4226  0.1872
  392MOL0     H52907   4.445   5.303  10.064 -0.0623  1.1639  1.5641
  392MOL0     H52908   4.871   5.262  10.083 -0.4332  0.7918  0.4847
  392MOL0     H52909   5.109   5.280  10.023 -0.2361 -0.5295  1.9685
  392MOL0     H52910   5.330   4.987  10.134 -1.4454  3.1233  0.1296
  392MOL0     H52911   5.367   4.915   9.972  0.2851 -0.9352  0.7920
  392MOL0     H52912   5.563   5.047   9.952 -1.4213 -0.3972  0.2386
  392MOL0     H52913   5.558   4.995  10.126 -1.5157 -0.0376  1.8174
  392MOL0     H52914   5.463   5.231  10.189  1.9976 -0.4170  1.3569
  392MOL0     H52915   5.481   5.274  10.023  1.0024  0.7501 -0.1296
  392MOL0     H52916   5.674   5.358  10.111  2.2621 -0.2049  0.2017
  392MOL0     H52917   5.727   5.220  10.032  2.7853  1.8195  2.2366
  392MOL0     H52918   5.784   5.131  10.441 -1.5922  2.2425  0.8389
  392MOL0     H52919   5.137   4.849   9.980 -2.1361 -0.5771  0.2150
  392MOL0     H52920   4.899   4.842  10.002  0.2121 -0.1501  4.1447
  393MOL0     O52921  10.560  10.802   1.243 -0.3564  0.2704  0.2006
  393MOL0     C52922  10.586  10.862   1.137  0.2169  0.1857  0.6987
  393MOL0     O52923  10.500  10.903   1.038  1.1171 -0.3110  0.3638
  393MOL0     C52924  10.361  10.872   1.046 -0.1040 -0.9280 -0.0919
  393MOL0     C52925  10.331  10.741   1.063 -0.2261  0.0949 -0.8884
  393MOL0     C52926  10.191  10.705   1.075  0.3417 -0.8508 -0.5281
  393MOL0     C52927  10.090  10.796   1.071  0.7998  0.3122  0.1891
  393MOL0     O52928   9.971  10.742   1.074 -0.1105 -0.0659 -0.7850
  393MOL0     C52929   9.850  10.819   1.079  0.4504 -0.7081 -0.3718
  393MOL0     C52930   9.740  10.713   1.052  0.4119 -0.6012 -1.5380
  393MOL0     C52931   9.612  10.778   0.985 -0.7718 -0.4404 -0.1218
  393MOL0     C52932   9.483  10.693   1.016  0.4939  0.6372  0.2091
  393MOL0     C52933   9.372  10.765   0.928  0.2944  0.3465  0.6081
  393MOL0     C52934   9.226  10.732   0.978  0.7615 -0.1260 -0.3179
  393MOL0     C52935   9.182  10.590   0.962  0.1823 -0.1222  0.2989
  393MOL0     C52936   9.041  10.562   0.997  0.3997 -0.5668 -0.2144
  393MOL0     N52937   9.026  10.412   1.002  0.6135  0.6877 -0.5629
  393MOL0     C52938   9.015  10.320   0.898  0.3224 -0.1295  1.8162
  393MOL0     C52939   8.989  10.195   0.949 -0.4638 -0.4574 -0.1242
  393MOL0     C52940   8.971  10.068   0.869  0.6049 -0.9359 -0.0921
  393MOL0     C52941   9.097   9.990   0.890 -0.1004  0.0606  0.4388
  393MOL0     C52942   9.113   9.865   0.792  0.0782  0.2589  0.0141
  393MOL0     C52943   8.994   9.768   0.786  0.1719 -0.3677  0.3048
  393MOL0     O52944   9.018   9.667   0.677 -0.2231  0.6451 -0.6002
  393MOL0     C52945   8.915   9.581   0.653 -0.0610 -0.5702 -0.2098
  393MOL0     C52946   8.794   9.582   0.720 -0.5771  0.2053 -0.0306
  393MOL0     C52947   8.693   9.489   0.685 -0.0472  0.0240  0.0775
  393MOL0     C52948   8.558   9.501   0.753 -0.4464 -0.5785 -0.6888
  393MOL0     C52949   8.717   9.399   0.582 -0.7158  0.1451 -0.5588
  393MOL0     C52950   8.622   9.291   0.536 -1.0365 -0.0238  0.6062
  393MOL0     O52951   8.658   9.214   0.424  0.0177 -0.0640  0.0451
  393MOL0     C52952   8.561   9.142   0.362 -0.6487  0.2455 -0.0095
  393MOL0     C52953   8.441   9.200   0.319 -0.2283  0.4330  0.2858
  393MOL0     C52954   8.351   9.119   0.253 -0.0898  0.4785  0.7229
  393MOL0     C52955   8.381   8.987   0.214 -1.1443 -0.1187 -0.4552
  393MOL0     O52956   8.291   8.909   0.149  0.4524 -0.3308 -0.4413
  393MOL0     C52957   8.237   8.965   0.034 -0.2775  0.4569  0.2987
  393MOL0     C52958   8.185   8.840  -0.050  0.3474 -1.2695  0.2901
  393MOL0     C52959   8.290   8.750  -0.117  0.4259 -0.7297  0.2034
  393MOL0     C52960   8.346   8.643  -0.019  0.0006  0.2420 -0.3348
  393MOL0     C52961   8.434   8.551  -0.101 -0.2026  0.1024  0.0891
  393MOL0     C52962   8.491   8.435  -0.013  0.3887 -0.6442 -0.7584
  393MOL0     C52963   8.530   8.308  -0.078  0.0399 -0.6129  1.1668
  393MOL0     C52964   8.600   8.212   0.011  0.1433 -1.2130  0.9143
  393MOL0    Cl52965   8.768   8.286   0.013  0.0658 -0.4163 -0.1168
  393MOL0     C52966   8.502   8.929   0.251 -0.1413 -0.6360 -0.2514
  393MOL0     C52967   8.586   9.003   0.330 -0.2463 -0.6597 -0.9971
  393MOL0     O52968   8.522   9.279   0.598 -0.1563  0.3315  0.4495
  393MOL0     C52969   8.839   9.406   0.517 -0.7721  0.1040  0.3942
  393MOL0     C52970   8.940   9.496   0.548 -0.3430 -0.3378  0.8374
  393MOL0     N52971   8.995  10.212   1.087 -0.1127  0.7814 -0.5030
  393MOL0     N52972   9.029  10.333   1.115 -0.5493  0.5286  0.3772
  393MOL0     C52973  10.124  10.929   1.062 -0.2601  0.4311  0.2273
  393MOL0     C52974  10.261  10.972   1.035  0.5668 -0.4584 -0.1761
  393MOL0     C52975  10.736  10.899   1.113 -0.0179 -0.0658  0.0461
  393MOL0     C52976  10.765  10.997   1.014  0.2825  0.1939  0.0252
  393MOL0     C52977  10.899  11.032   0.991 -0.2988  0.6204 -0.2453
  393MOL0     C52978  10.997  10.981   1.077 -0.5961 -0.8721 -0.2643
  393MOL0     O52979  11.120  11.049   1.070  0.6689 -0.0960 -0.5760
  393MOL0     C52980  11.228  10.992   1.151  0.7975 -0.4731 -0.1047
  393MOL0     C52981  11.348  11.081   1.136 -1.1764 -0.6777 -0.6677
  393MOL0     C52982  11.384  11.109   0.983 -0.1674 -0.8266  0.2198
  393MOL0     C52983  11.538  11.134   0.945  0.4105 -0.2569  0.3388
  393MOL0     C52984  11.603  11.210   1.046 -0.9838 -0.0003 -0.2068
  393MOL0     C52985  11.648  11.280   1.136  0.4036 -0.4769 -0.2139
  393MOL0     C52986  10.964  10.885   1.174  0.1676  0.6354 -0.1449
  393MOL0     C52987  10.830  10.844   1.186 -0.4872 -0.0959  0.3625
  393MOL0     H52988  10.407  10.665   1.074  1.7575  2.1307  0.3637
  393MOL0     H52989  10.161  10.601   1.081  0.8674 -0.9381  1.4339
  393MOL0     H52990   9.831  10.861   1.178  2.8193 -0.3585  0.0132
  393MOL0     H52991   9.850  10.900   1.004 -0.1866 -0.9564 -0.6414
  393MOL0     H52992   9.771  10.640   0.978 -0.2458 -4.0108  1.2925
  393MOL0     H52993   9.714  10.665   1.147  3.4163 -0.6894 -0.6475
  393MOL0     H52994   9.605  10.881   1.021  1.0704 -0.6131  0.8307
  393MOL0     H52995   9.622  10.787   0.876 -0.8487 -1.4974 -0.2287
  393MOL0     H52996   9.495  10.590   0.980 -0.9436  1.1604 -1.9735
  393MOL0     H52997   9.464  10.694   1.124  2.8651 -1.7412  0.7612
  393MOL0     H52998   9.395  10.872   0.928  0.5790  0.2931  1.2509
  393MOL0     H52999   9.385  10.725   0.827 -2.2640 -2.0948  1.1243
  393MOL0     H53000   9.236  10.750   1.086  1.7340 -2.1536 -0.0202
  393MOL0     H53001   9.145  10.789   0.930 -1.1389 -2.1699  0.2537
  393MOL0     H53002   9.191  10.566   0.856 -0.0014 -0.2032  0.3022
  393MOL0     H53003   9.254  10.531   1.020 -0.7912 -0.3079  1.3589
  393MOL0     H53004   8.970  10.601   0.924 -0.7108 -0.6615  0.7761
  393MOL0     H53005   9.013  10.610   1.091  1.9323  1.6870 -0.8536
  393MOL0     H53006   9.011  10.336   0.790  0.4848 -0.8742  1.6963
  393MOL0     H53007   8.882  10.013   0.900 -0.5967 -0.3968 -2.2989
  393MOL0     H53008   8.948  10.089   0.764 -2.4457  1.6732  0.9243
  393MOL0     H53009   9.105   9.966   0.997 -1.1918  2.3382  1.0992
  393MOL0     H53010   9.183  10.050   0.857  1.5530 -2.6469 -0.5314
  393MOL0     H53011   9.190   9.798   0.833  1.3003  2.0491  0.7545
  393MOL0     H53012   9.151   9.895   0.693  4.6630  1.9389  2.0087
  393MOL0     H53013   8.901   9.823   0.767  0.5775  0.1749 -0.1554
  393MOL0     H53014   8.988   9.716   0.882 -2.5132  0.9455  0.9307
  393MOL0     H53015   8.767   9.653   0.798  3.1037  2.7507 -0.8046
  393MOL0     H53016   8.575   9.578   0.829 -0.7797  0.1770 -1.3568
  393MOL0     H53017   8.475   9.545   0.696 -1.7503  0.3242  1.7090
  393MOL0     H53018   8.521   9.412   0.803  0.4903  0.2820  1.6818
  393MOL0     H53019   8.394   9.295   0.342  3.5717  2.9527 -1.5446
  393MOL0     H53020   8.248   9.148   0.235  0.2650  0.8651 -0.8208
  393MOL0     H53021   8.152   9.031   0.056  1.5597  3.1559 -0.2667
  393MOL0     H53022   8.317   9.015  -0.021 -0.8327 -0.0019 -0.9391
  393MOL0     H53023   8.119   8.776   0.009 -1.1401 -0.1308 -0.1068
  393MOL0     H53024   8.122   8.875  -0.132  1.0484  2.0110  1.0253
  393MOL0     H53025   8.371   8.814  -0.152 -0.0125 -0.8912 -1.1781
  393MOL0     H53026   8.256   8.702  -0.209  1.9433 -1.8833  0.2091
  393MOL0     H53027   8.408   8.683   0.062 -0.4945 -0.1130  0.2278
  393MOL0     H53028   8.264   8.584   0.022 -0.5716  0.1000 -1.6136
  393MOL0     H53029   8.514   8.605  -0.152 -0.5254  0.4967 -0.0003
  393MOL0     H53030   8.374   8.507  -0.182 -0.1456  1.1618 -0.5449
  393MOL0     H53031   8.580   8.467   0.041 -0.1751 -1.9853  1.0600
  393MOL0     H53032   8.412   8.410   0.058  1.6732 -2.9529 -0.0253
  393MOL0     H53033   8.597   8.331  -0.161 -1.2672 -0.6201  0.0825
  393MOL0     H53034   8.438   8.267  -0.120  0.5857  0.8591 -1.7426
  393MOL0     H53035   8.606   8.113  -0.036 -0.7208 -1.2111  0.7691
  393MOL0     H53036   8.544   8.211   0.105 -2.3688 -1.6775 -0.4897
  393MOL0     H53037   8.537   8.830   0.224 -0.4084 -0.2543 -2.1114
  393MOL0     H53038   8.681   8.961   0.363 -1.3558 -1.9238  0.7849
  393MOL0     H53039   8.864   9.338   0.436  0.0837 -0.2312  0.9219
  393MOL0     H53040   9.032   9.504   0.492 -0.0396 -0.8274  1.2515
  393MOL0     H53041  10.046  11.005   1.059 -0.0450  0.6283 -0.7562
  393MOL0     H53042  10.299  11.071   1.012  0.7012 -0.6300 -0.7123
  393MOL0     H53043  10.678  11.041   0.965 -1.1883  0.3413  2.6223
  393MOL0     H53044  10.931  11.101   0.913 -1.8799  0.7894 -0.7704
  393MOL0     H53045  11.193  10.977   1.254 -1.3811 -1.2879 -0.9041
  393MOL0     H53046  11.260  10.896   1.110  2.4374 -0.6866  1.5407
  393MOL0     H53047  11.429  11.028   1.187 -0.1388 -1.9779 -3.4463
  393MOL0     H53048  11.325  11.177   1.183  1.7027 -0.5952  0.8093
  393MOL0     H53049  11.341  11.207   0.957  1.5965  0.4915  1.9725
  393MOL0     H53050  11.347  11.031   0.916  2.1478 -1.0243 -0.9362
  393MOL0     H53051  11.542  11.187   0.849  1.8724 -1.4032 -0.2596
  393MOL0     H53052  11.591  11.045   0.910 -0.9396 -0.0254 -2.6249
  393MOL0     H53053  11.683  11.354   1.206  0.9857 -0.2614 -0.7294
  393MOL0     H53054  11.028  10.831   1.244 -1.1896 -1.4039 -0.3812
  393MOL0     H53055  10.801  10.757   1.244 -1.4017 -2.0285 -2.7666
  394MOL0     O53056   7.378  10.617  10.965  0.5140 -0.4529 -0.4760
  394MOL0     C53057   7.453  10.620  10.865 -0.4551 -0.6902 -0.3046
  394MOL0     O53058   7.409  10.617  10.740  0.3487 -0.6135 -0.7123
  394MOL0     C53059   7.273  10.620  10.713  0.4206  0.1086  1.0926
  394MOL0     C53060   7.202  10.506  10.707  0.4470  0.0278 -0.2704
  394MOL0     C53061   7.062  10.507  10.691 -0.2244  0.0742 -0.3582
  394MOL0     C53062   6.988  10.627  10.697 -0.2552  0.7632 -0.1690
  394MOL0     O53063   6.855  10.608  10.702 -0.0080  0.2092  0.7703
  394MOL0     C53064   6.766  10.718  10.675 -0.2353  0.6321  0.2849
  394MOL0     C53065   6.618  10.667  10.648 -0.5295 -0.5648 -0.3794
  394MOL0     C53066   6.514  10.782  10.646  0.1691  0.1021 -0.5394
  394MOL0     C53067   6.369  10.728  10.640  0.0060  0.3465  0.2294
  394MOL0     C53068   6.279  10.842  10.608  0.3331  0.9151 -0.3620
  394MOL0     C53069   6.273  10.954  10.715  0.1136  0.1563  0.4978
  394MOL0     C53070   6.174  11.065  10.666 -0.2893  0.5863  0.2887
  394MOL0     C53071   6.165  11.176  10.752  0.0565  0.3285 -0.1246
  394MOL0     N53072   6.050  11.264  10.726  0.2926  0.4392 -0.2507
  394MOL0     C53073   5.927  11.236  10.758  0.0047 -0.4681  0.2360
  394MOL0     C53074   5.855  11.336  10.695  0.5291 -0.5595 -0.1658
  394MOL0     C53075   5.700  11.351  10.711 -0.6472  0.4183  0.0061
  394MOL0     C53076   5.627  11.329  10.578  0.7418  0.0092  0.4583
  394MOL0     C53077   5.624  11.446  10.472  0.0979 -0.0311 -0.1538
  394MOL0     C53078   5.539  11.571  10.517 -0.5586  0.0738 -0.5376
  394MOL0     O53079   5.401  11.534  10.552 -0.6260  0.6890 -0.0807
  394MOL0     C53080   5.324  11.619  10.621 -0.5663  0.1766  0.1113
  394MOL0     C53081   5.349  11.755  10.641 -0.4327 -0.0602 -0.6354
  394MOL0     C53082   5.256  11.846  10.699  0.0938  0.7688  0.9837
  394MOL0     C53083   5.305  11.992  10.731 -0.2780 -0.3012 -0.1832
  394MOL0     C53084   5.126  11.794  10.719  0.2354  0.0352 -0.7660
  394MOL0     C53085   5.014  11.872  10.752  0.2176 -0.5777  0.1562
  394MOL0     O53086   4.885  11.807  10.770 -0.5356 -0.5289 -0.2934
  394MOL0     C53087   4.768  11.874  10.774  0.8726 -0.2027  0.6140
  394MOL0     C53088   4.677  11.835  10.880  0.9607 -0.5041 -0.8837
  394MOL0     C53089   4.544  11.889  10.884  0.2304  0.8297  0.2014
  394MOL0     C53090   4.505  11.993  10.798 -0.8861  0.1467  1.0560
  394MOL0     O53091   4.374  12.035  10.810 -0.6516 -0.9029  0.2910
  394MOL0     C53092   4.336  12.162  10.752 -0.3042  0.2485 -0.2137
  394MOL0     C53093   4.203  12.214  10.815  0.4764 -0.0455 -1.1175
  394MOL0     C53094   4.083  12.151  10.736 -0.2166  0.2409  0.0232
  394MOL0     C53095   3.955  12.207  10.799  0.4687 -0.7311  0.1469
  394MOL0     C53096   3.835  12.142  10.731  0.9540  0.4475  0.1146
  394MOL0     C53097   3.729  12.100  10.829  0.0060 -0.4200  0.0429
  394MOL0     C53098   3.674  12.221  10.908  0.3479 -0.1048  0.1100
  394MOL0     C53099   3.616  12.341  10.827 -0.0614 -0.0402 -0.5006
  394MOL0    Cl53100   3.486  12.278  10.724 -0.4391 -0.0732 -0.3085
  394MOL0     C53101   4.596  12.041  10.701 -0.4356  0.2658  0.7648
  394MOL0     C53102   4.727  11.979  10.683  0.2257  0.2277  0.6400
  394MOL0     O53103   5.026  11.997  10.764  0.6986 -0.7390 -0.2011
  394MOL0     C53104   5.098  11.656  10.698 -0.8416 -0.5194 -0.1345
  394MOL0     C53105   5.204  11.574  10.666 -0.3602 -0.2822 -0.2451
  394MOL0     N53106   5.938  11.421  10.632 -0.1736 -0.3508 -0.1394
  394MOL0     N53107   6.057  11.379  10.657 -0.2817 -0.7863  0.2587
  394MOL0     C53108   7.059  10.744  10.696 -0.1337 -0.1247  0.1089
  394MOL0     C53109   7.202  10.744  10.712 -0.4249  0.6318  0.8198
  394MOL0     C53110   7.601  10.627  10.888  0.4755 -0.2663 -0.4662
  394MOL0     C53111   7.689  10.663  10.780 -0.0201 -0.0756 -0.1122
  394MOL0     C53112   7.826  10.684  10.803  0.5337 -1.0698 -0.8365
  394MOL0     C53113   7.876  10.669  10.927 -0.6596  0.1630  0.6419
  394MOL0     O53114   8.012  10.690  10.949 -0.8133 -0.2495 -0.5247
  394MOL0     C53115   8.071  10.659  11.077  1.2258  0.6761 -0.7434
  394MOL0     C53116   8.067  10.779  11.169  0.3070  0.6293  0.0717
  394MOL0     C53117   8.204  10.845  11.145  0.2996  0.3038 -0.2673
  394MOL0     C53118   8.221  10.979  11.226  0.5407 -0.3060  0.0992
  394MOL0     C53119   8.357  11.026  11.220  0.2510 -0.5660 -0.6530
  394MOL0     C53120   8.466  11.074  11.228  0.2000 -0.3000 -0.2063
  394MOL0     C53121   7.790  10.633  11.036  0.1047 -0.1453 -0.2870
  394MOL0     C53122   7.657  10.614  11.015  0.7249 -0.4560 -0.7154
  394MOL0     H53123   7.260  10.414  10.702  1.9083  0.8758  0.2429
  394MOL0     H53124   7.008  10.413  10.692 -0.8959  0.3065  3.7556
  394MOL0     H53125   6.768  10.789  10.759 -1.7295  1.1942 -0.1394
  394MOL0     H53126   6.812  10.778  10.597  4.4822 -1.9317  0.6759
  394MOL0     H53127   6.614  10.622  10.549 -0.3010  0.7265 -0.9958
  394MOL0     H53128   6.587  10.593  10.722  1.5455  0.8023  2.0303
  394MOL0     H53129   6.533  10.831  10.741 -0.0626 -0.6269 -0.1063
  394MOL0     H53130   6.546  10.850  10.566  1.3559 -0.4300 -0.5466
  394MOL0     H53131   6.363  10.642  10.573 -0.8405  1.3970 -1.0927
  394MOL0     H53132   6.336  10.687  10.736 -0.1721  0.5640  0.2607
  394MOL0     H53133   6.306  10.895  10.517 -3.8478  3.5644 -0.3115
  394MOL0     H53134   6.179  10.798  10.598  0.7925 -0.3762  0.4165
  394MOL0     H53135   6.228  10.907  10.804 -1.9031 -0.0464 -0.5669
  394MOL0     H53136   6.372  10.993  10.739  0.3150  0.2255 -0.4159
  394MOL0     H53137   6.204  11.096  10.565 -0.9942 -0.8798 -0.3984
  394MOL0     H53138   6.074  11.025  10.647 -0.5342  2.0167 -1.7416
  394MOL0     H53139   6.254  11.234  10.727  0.6687 -0.1026  0.9563
  394MOL0     H53140   6.184  11.148  10.856  1.3484 -2.2196 -0.9640
  394MOL0     H53141   5.904  11.152  10.822  0.6042 -1.0128 -0.2485
  394MOL0     H53142   5.667  11.278  10.785 -1.5307  2.3853  1.6410
  394MOL0     H53143   5.662  11.448  10.745 -2.0509 -0.0284 -0.2055
  394MOL0     H53144   5.523  11.301  10.595  0.3787  1.5893  1.0111
  394MOL0     H53145   5.682  11.245  10.536  1.7568  0.1370  1.4914
  394MOL0     H53146   5.581  11.395  10.386  1.4788 -0.3562 -0.6814
  394MOL0     H53147   5.726  11.474  10.447 -0.3058  0.1999 -1.6042
  394MOL0     H53148   5.538  11.645  10.436  0.9338 -0.5987 -1.2121
  394MOL0     H53149   5.592  11.606  10.605 -0.4660 -0.0662 -0.5380
  394MOL0     H53150   5.448  11.787  10.611 -0.4517  0.9277  0.3135
  394MOL0     H53151   5.304  12.063  10.647  1.2245  2.4495  1.9564
  394MOL0     H53152   5.253  12.041  10.814 -0.0136  1.6786 -1.1058
  394MOL0     H53153   5.413  11.985  10.738 -0.0657  1.2127 -1.3338
  394MOL0     H53154   4.699  11.754  10.948 -0.8684  1.2465  2.0228
  394MOL0     H53155   4.486  11.847  10.965  0.7497 -3.0419 -1.2369
  394MOL0     H53156   4.407  12.242  10.774 -0.8490  0.6130  0.2432
  394MOL0     H53157   4.330  12.151  10.644  0.8988 -2.8956 -0.0419
  394MOL0     H53158   4.202  12.171  10.916  0.5726 -3.6800 -2.5153
  394MOL0     H53159   4.197  12.323  10.815 -4.1379 -0.0880 -1.5697
  394MOL0     H53160   4.092  12.042  10.747 -3.6556 -0.0991  0.3593
  394MOL0     H53161   4.089  12.166  10.627  2.6440  1.2103  0.2147
  394MOL0     H53162   3.948  12.200  10.908  0.7535  1.5691  0.3486
  394MOL0     H53163   3.934  12.312  10.778 -2.0087 -1.4839 -1.5375
  394MOL0     H53164   3.865  12.047  10.684  0.4258  0.5884 -0.5148
  394MOL0     H53165   3.796  12.206  10.652 -0.9616 -1.5315 -0.6467
  394MOL0     H53166   3.654  12.041  10.776  0.0551 -1.4338  1.0579
  394MOL0     H53167   3.752  12.034  10.913 -0.8804 -0.9896 -0.1435
  394MOL0     H53168   3.739  12.261  10.986 -1.4083  0.2899  1.4466
  394MOL0     H53169   3.595  12.184  10.974  0.3666 -0.3971 -0.0299
  394MOL0     H53170   3.693  12.387  10.765 -0.2049 -0.2222 -0.8174
  394MOL0     H53171   3.571  12.416  10.893 -0.8210 -2.1774  1.5539
  394MOL0     H53172   4.574  12.114  10.624  2.9183  0.1793 -0.4718
  394MOL0     H53173   4.803  12.009  10.612 -0.3717 -0.4772 -0.3371
  394MOL0     H53174   5.002  11.611  10.723  0.5652 -2.1371  2.8873
  394MOL0     H53175   5.168  11.474  10.643  0.6282 -0.6469 -0.2563
  394MOL0     H53176   7.005  10.837  10.709  0.1166  0.1970 -1.0522
  394MOL0     H53177   7.268  10.830  10.710 -0.6436  0.8668  2.5392
  394MOL0     H53178   7.655  10.672  10.677  2.6624 -2.8998 -1.4043
  394MOL0     H53179   7.903  10.711  10.731  0.1222 -1.5461 -1.4710
  394MOL0     H53180   8.029  10.569  11.123  1.4235  0.1751 -1.5193
  394MOL0     H53181   8.175  10.631  11.060  0.7099 -1.9065 -0.0990
  394MOL0     H53182   8.061  10.741  11.271 -1.0020 -0.7014 -0.4760
  394MOL0     H53183   7.981  10.844  11.148 -0.6246  0.4141  2.8229
  394MOL0     H53184   8.208  10.871  11.039  0.2843  0.8767 -0.1283
  394MOL0     H53185   8.282  10.772  11.168  0.5407 -1.4619 -5.4388
  394MOL0     H53186   8.197  10.950  11.329  0.6989  0.0575  0.2402
  394MOL0     H53187   8.162  11.065  11.192 -2.7810 -1.6584  1.9053
  394MOL0     H53188   8.566  11.112  11.228 -1.1083  3.5111 -0.9750
  394MOL0     H53189   7.825  10.626  11.139  0.5353 -0.3024 -0.4439
  394MOL0     H53190   7.588  10.584  11.093 -0.6965  0.0754 -1.7317
  395MOL0     O53191   1.397  10.443   2.399  0.2156 -0.6721 -0.0434
  395MOL0     C53192   1.494  10.446   2.319 -1.3346  0.4820  0.5615
  395MOL0     O53193   1.475  10.451   2.179 -0.0192 -0.3786  0.4767
  395MOL0     C53194   1.345  10.454   2.148  0.7538 -0.5772  0.5006
  395MOL0     C53195   1.270  10.337   2.138  0.4734  0.0902 -0.6357
  395MOL0     C53196   1.132  10.342   2.110  0.4275 -0.4497 -0.6913
  395MOL0     C53197   1.067  10.467   2.087  0.3828  0.1654  0.1925
  395MOL0     O53198   0.931  10.475   2.069 -0.0585  0.4158  0.8147
  395MOL0     C53199   0.902  10.543   1.953 -0.8925 -0.4672  0.4839
  395MOL0     C53200   0.759  10.501   1.905 -0.9683 -0.2906  0.1058
  395MOL0     C53201   0.657  10.557   1.999 -0.6870  0.2120 -0.3060
  395MOL0     C53202   0.645  10.702   2.012  0.3031  0.9729 -0.2946
  395MOL0     C53203   0.527  10.734   2.101  0.4013 -0.1422 -0.2364
  395MOL0     C53204   0.539  10.732   2.253  0.5930 -0.3051 -0.2938
  395MOL0     C53205   0.424  10.801   2.329  0.5220  0.0873 -0.1282
  395MOL0     C53206   0.307  10.708   2.348  0.3926  0.8282 -0.2065
  395MOL0     N53207   0.194  10.760   2.420 -1.0880 -0.3206 -0.2927
  395MOL0     C53208   0.196  10.774   2.556  0.5571  0.6681 -0.5780
  395MOL0     C53209   0.064  10.804   2.585  0.8119  0.2728  0.2606
  395MOL0     C53210  -0.006  10.806   2.714  0.3414 -0.3772  0.4431
  395MOL0     C53211  -0.065  10.944   2.755  0.4354  0.5870  0.3065
  395MOL0     C53212  -0.118  10.960   2.906  0.1671  0.1369  0.4600
  395MOL0     C53213  -0.131  11.109   2.958  0.1497  0.8906 -0.0118
  395MOL0     O53214  -0.237  11.165   2.887 -0.4050 -0.3317 -1.0831
  395MOL0     C53215  -0.350  11.168   2.965  0.3860  0.2913  0.5114
  395MOL0     C53216  -0.386  11.291   3.028 -0.0731  1.3818  0.0835
  395MOL0     C53217  -0.499  11.297   3.106  0.6063 -0.2111  1.2034
  395MOL0     C53218  -0.535  11.419   3.176  0.2749  0.3201  0.6991
  395MOL0     C53219  -0.585  11.182   3.113  0.3543 -0.2795  0.3437
  395MOL0     C53220  -0.717  11.173   3.187  0.0504 -0.8693  0.0624
  395MOL0     O53221  -0.734  11.052   3.253  0.4074  0.0660 -0.0590
  395MOL0     C53222  -0.824  11.054   3.358  0.7922  0.0124 -0.0448
  395MOL0     C53223  -0.793  10.972   3.466 -0.5327  1.1603  0.1474
  395MOL0     C53224  -0.880  10.968   3.571 -0.1433  0.1570  0.1121
  395MOL0     C53225  -0.999  11.054   3.579  0.0901 -0.3202  0.2242
  395MOL0     O53226  -1.072  11.029   3.690 -0.9175 -0.0389 -0.1674
  395MOL0     C53227  -1.159  11.127   3.743 -0.1612 -0.5483 -1.1007
  395MOL0     C53228  -1.194  11.091   3.890 -0.0357 -0.2888 -0.0599
  395MOL0     C53229  -1.078  11.054   3.967 -0.6689 -0.4079  0.2554
  395MOL0     C53230  -1.121  11.006   4.109 -0.2585  0.0632  0.7723
  395MOL0     C53231  -1.009  10.968   4.202  0.1583  0.3634  0.9057
  395MOL0     C53232  -0.907  10.877   4.147 -0.0068 -0.8430  0.7661
  395MOL0     C53233  -0.790  10.857   4.238  0.7638  0.3598 -0.0482
  395MOL0     C53234  -0.818  10.725   4.318 -0.5310 -0.6335 -0.2450
  395MOL0    Cl53235  -0.885  10.790   4.466 -0.1463  0.2169 -0.2710
  395MOL0     C53236  -1.042  11.111   3.457 -0.7972  0.7641 -0.2340
  395MOL0     C53237  -0.955  11.112   3.348 -0.6659  0.1908 -0.7764
  395MOL0     O53238  -0.781  11.273   3.209 -0.0152 -0.2028 -0.5796
  395MOL0     C53239  -0.555  11.068   3.037 -0.1557 -0.8847 -0.8851
  395MOL0     C53240  -0.440  11.054   2.975  0.2095 -0.4415 -1.0018
  395MOL0     N53241   0.003  10.833   2.461  0.2577  0.3112  0.8267
  395MOL0     N53242   0.082  10.798   2.371 -0.0925 -0.4688  0.6303
  395MOL0     C53243   1.147  10.584   2.100  0.5171  0.3234 -0.6038
  395MOL0     C53244   1.278  10.575   2.126  0.2318 -0.0317 -0.0424
  395MOL0     C53245   1.637  10.441   2.372 -0.6629 -1.3449  0.4560
  395MOL0     C53246   1.655  10.422   2.506  0.6880  0.4681  0.0431
  395MOL0     C53247   1.778  10.415   2.553 -0.7103  0.3511  0.4061
  395MOL0     C53248   1.895  10.413   2.473  0.9046 -0.9716 -1.1065
  395MOL0     O53249   2.017  10.415   2.538 -0.4462 -0.3150 -0.0053
  395MOL0     C53250   2.131  10.410   2.445  0.1236  0.7359 -0.3262
  395MOL0     C53251   2.265  10.358   2.499 -0.0796  0.0815  0.3704
  395MOL0     C53252   2.270  10.213   2.516 -0.5705  0.4244  0.5883
  395MOL0     C53253   2.420  10.172   2.560  0.6309 -1.0718 -0.0466
  395MOL0     C53254   2.422  10.049   2.647 -0.4947 -0.7075  0.8438
  395MOL0     C53255   2.418   9.943   2.705 -1.0288  1.1961 -0.4979
  395MOL0     C53256   1.872  10.438   2.340 -0.4133  0.3452  0.1063
  395MOL0     C53257   1.748  10.455   2.290  0.7514  0.3987  0.6357
  395MOL0     H53258   1.317  10.239   2.150  0.0043  0.0028  0.6164
  395MOL0     H53259   1.079  10.248   2.113 -3.8366  1.7326  1.5296
  395MOL0     H53260   0.915  10.652   1.960  0.6913 -0.6258  0.3222
  395MOL0     H53261   0.970  10.508   1.876 -0.2331  0.5900  0.5707
  395MOL0     H53262   0.741  10.539   1.804  0.9310  2.0594  0.5527
  395MOL0     H53263   0.749  10.392   1.905 -1.7768 -0.4163  4.8200
  395MOL0     H53264   0.559  10.511   1.987 -0.7853  0.6652 -1.3521
  395MOL0     H53265   0.680  10.527   2.101  1.4518 -0.1859 -0.8558
  395MOL0     H53266   0.733  10.747   2.059 -0.7578  2.9726 -0.1317
  395MOL0     H53267   0.625  10.738   1.911  1.8122 -1.7881 -1.6951
  395MOL0     H53268   0.507  10.835   2.064 -1.0700 -1.1984 -2.5340
  395MOL0     H53269   0.439  10.675   2.076  1.5920 -1.3320 -1.9206
  395MOL0     H53270   0.562  10.628   2.282  2.0825  0.2330  0.5806
  395MOL0     H53271   0.621  10.798   2.280  0.3729  0.3831 -1.2689
  395MOL0     H53272   0.460  10.819   2.431 -3.8406 -0.0818  1.6501
  395MOL0     H53273   0.394  10.897   2.286  2.3571  0.8468  0.1901
  395MOL0     H53274   0.341  10.620   2.405  2.2580  0.7708 -1.2995
  395MOL0     H53275   0.272  10.675   2.250 -0.6375  1.0242  0.0899
  395MOL0     H53276   0.275  10.754   2.627 -0.7329  0.3157  0.8307
  395MOL0     H53277  -0.092  10.739   2.704 -2.1690  2.3668  2.0158
  395MOL0     H53278   0.069  10.751   2.770 -0.0540 -0.7452  0.6137
  395MOL0     H53279  -0.139  10.981   2.684 -0.5345  1.2129  1.6157
  395MOL0     H53280   0.016  11.017   2.745  1.7898 -0.9631 -0.8197
  395MOL0     H53281  -0.039  10.918   2.970 -1.0592  0.2116  2.1029
  395MOL0     H53282  -0.205  10.899   2.933  1.7063 -1.6259  1.6884
  395MOL0     H53283  -0.034  11.157   2.937  0.8383 -0.6127 -0.3915
  395MOL0     H53284  -0.142  11.101   3.066  0.6974  0.0691 -0.0120
  395MOL0     H53285  -0.321  11.378   3.026 -0.7286  1.8912 -2.0411
  395MOL0     H53286  -0.632  11.446   3.133  0.7005 -0.5849 -0.9082
  395MOL0     H53287  -0.532  11.404   3.285 -1.5173 -1.8137  0.5109
  395MOL0     H53288  -0.469  11.505   3.159  2.6678 -1.6900 -0.9761
  395MOL0     H53289  -0.699  10.917   3.462 -1.6227 -0.8812  0.7877
  395MOL0     H53290  -0.857  10.916   3.663 -1.8964  0.6412  0.8500
  395MOL0     H53291  -1.117  11.228   3.736 -3.7828  1.0905 -1.9312
  395MOL0     H53292  -1.255  11.136   3.690 -0.6820 -0.0998 -0.1045
  395MOL0     H53293  -1.239  11.180   3.936  1.4515  0.3353  0.2473
  395MOL0     H53294  -1.266  11.010   3.880  0.4868 -0.6191 -1.3178
  395MOL0     H53295  -1.007  11.137   3.981 -3.1185  1.5388  2.0610
  395MOL0     H53296  -1.025  10.970   3.920  2.3269 -0.0812  2.7361
  395MOL0     H53297  -1.192  11.076   4.153 -2.9199 -1.9084 -0.0797
  395MOL0     H53298  -1.180  10.914   4.101 -0.1393  0.1049 -1.0080
  395MOL0     H53299  -1.049  10.917   4.290  0.8125  0.5862  1.3465
  395MOL0     H53300  -0.971  11.068   4.228  2.4150  1.5719 -5.3250
  395MOL0     H53301  -0.953  10.789   4.103  1.1873 -1.2137  0.2135
  395MOL0     H53302  -0.860  10.930   4.064  0.5352 -2.0919  0.2685
  395MOL0     H53303  -0.788  10.947   4.300  2.3336  0.9183 -0.8651
  395MOL0     H53304  -0.696  10.846   4.183  0.7094  1.4533 -0.3939
  395MOL0     H53305  -0.719  10.685   4.339  1.2436  3.3760 -0.0567
  395MOL0     H53306  -0.876  10.645   4.270  2.5248 -1.2786 -3.2598
  395MOL0     H53307  -1.140  11.153   3.444 -0.8823  0.7491  0.3229
  395MOL0     H53308  -0.992  11.150   3.253 -1.3286 -2.7660 -1.8073
  395MOL0     H53309  -0.610  10.976   3.056  0.3006 -0.9398  0.2107
  395MOL0     H53310  -0.411  10.960   2.928 -0.5556 -0.7939 -0.7738
  395MOL0     H53311   1.099  10.682   2.096 -3.1588 -1.0821  2.2516
  395MOL0     H53312   1.333  10.667   2.138 -0.0244 -0.1503  2.4243
  395MOL0     H53313   1.570  10.407   2.572 -1.2508 -1.2238 -2.5917
  395MOL0     H53314   1.791  10.423   2.661 -1.2741  2.7662  0.3688
  395MOL0     H53315   2.110  10.355   2.352 -2.0877  1.7734 -0.4986
  395MOL0     H53316   2.152  10.514   2.418 -1.6374  2.1568  3.1476
  395MOL0     H53317   2.269  10.405   2.598 -0.4467  0.4360  0.2191
  395MOL0     H53318   2.345  10.384   2.429 -1.0164  1.5777 -0.2032
  395MOL0     H53319   2.243  10.158   2.424 -1.4418  2.0767 -0.1805
  395MOL0     H53320   2.196  10.192   2.593  0.9482 -1.0744  1.7180
  395MOL0     H53321   2.461  10.250   2.625  2.6470 -2.4021  0.3719
  395MOL0     H53322   2.489  10.167   2.476  1.2563  0.6180  0.3444
  395MOL0     H53323   2.410   9.843   2.744  1.0974  0.2593 -2.2612
  395MOL0     H53324   1.952  10.459   2.269 -1.9167  1.3888 -1.3774
  395MOL0     H53325   1.739  10.488   2.186 -0.4335 -0.3664  0.4775
  396MOL0     O53326  10.664   2.195  11.329  0.0703 -0.6371  0.1332
  396MOL0     C53327  10.754   2.122  11.377 -0.1634  0.5432 -0.1959
  396MOL0     O53328  10.745   1.981  11.391 -0.2757 -0.3632  0.3383
  396MOL0     C53329  10.634   1.915  11.334 -0.0259  0.3453 -0.6784
  396MOL0     C53330  10.506   1.955  11.370 -0.0155  0.0728 -0.0803
  396MOL0     C53331  10.393   1.888  11.328  0.3945  0.1145  1.5214
  396MOL0     C53332  10.401   1.772  11.250  1.1307  1.1865 -0.2869
  396MOL0     O53333  10.281   1.712  11.209  0.6179  0.1544 -0.4990
  396MOL0     C53334  10.277   1.681  11.064  0.2809  0.4593  0.0705
  396MOL0     C53335  10.162   1.582  11.036 -0.1647 -0.4344 -0.0005
  396MOL0     C53336  10.202   1.435  11.052  1.3678 -0.0900  0.0286
  396MOL0     C53337  10.088   1.342  10.999 -1.0589 -0.3307  0.1557
  396MOL0     C53338  10.111   1.293  10.857 -0.1959 -0.6227  0.4179
  396MOL0     C53339  10.034   1.174  10.819  0.2687 -0.5287 -0.0710
  396MOL0     C53340   9.877   1.184  10.836  0.3409 -0.2658  0.2335
  396MOL0     C53341   9.814   1.295  10.742  0.2699 -0.2281 -0.4059
  396MOL0     N53342   9.664   1.289  10.737  0.4018  0.4831  0.0634
  396MOL0     C53343   9.565   1.363  10.808 -0.4199 -1.0914 -0.2934
  396MOL0     C53344   9.446   1.313  10.763  0.9029 -0.4555 -0.6299
  396MOL0     C53345   9.305   1.346  10.806 -0.9021 -0.3087 -0.4434
  396MOL0     C53346   9.269   1.291  10.946  0.1600  0.2915  0.1623
  396MOL0     C53347   9.120   1.312  10.985 -0.0611  0.0898  0.4756
  396MOL0     C53348   9.021   1.218  10.914  0.4589 -0.3419 -1.2676
  396MOL0     O53349   9.047   1.086  10.963 -0.2065 -1.1213  0.8502
  396MOL0     C53350   8.994   0.986  10.890 -0.1570 -0.5041  0.0630
  396MOL0     C53351   8.924   0.990  10.768 -0.2302  0.0344  0.5648
  396MOL0     C53352   8.868   0.878  10.699 -0.5954 -0.1052 -0.6663
  396MOL0     C53353   8.805   0.898  10.567 -0.3975 -0.0866  0.2595
  396MOL0     C53354   8.863   0.760  10.775  0.4846  0.2743  0.3748
  396MOL0     C53355   8.801   0.640  10.715  0.9608  0.0517  0.0788
  396MOL0     O53356   8.867   0.522  10.747  0.1815  0.1376  0.3056
  396MOL0     C53357   8.852   0.409  10.673  0.3487  0.6825  0.5890
  396MOL0     C53358   8.922   0.379  10.559 -0.1473  0.9001  0.2847
  396MOL0     C53359   8.897   0.262  10.486  0.2350 -0.3472  0.5054
  396MOL0     C53360   8.789   0.176  10.523  0.1364  0.0066 -0.2158
  396MOL0     O53361   8.754   0.059  10.455 -0.1830  0.3111  0.1999
  396MOL0     C53362   8.791   0.052  10.317 -0.0423  0.0036  0.2587
  396MOL0     C53363   8.712  -0.055  10.243 -0.2296 -0.2058  0.3017
  396MOL0     C53364   8.563  -0.020  10.229  0.1415  0.3266  0.2824
  396MOL0     C53365   8.520   0.079  10.123  0.5953  0.1555 -0.4300
  396MOL0     C53366   8.381   0.135  10.159  0.1559  0.1653  0.1964
  396MOL0     C53367   8.313   0.231  10.059 -0.5540  0.0508  0.1451
  396MOL0     C53368   8.163   0.229  10.078  0.6553  0.9556  0.5788
  396MOL0     C53369   8.106   0.307   9.958 -0.0528  0.0417  0.0110
  396MOL0    Cl53370   7.930   0.276   9.931 -0.2680 -0.5496 -0.2535
  396MOL0     C53371   8.722   0.205  10.641  0.4396  0.9792 -0.1632
  396MOL0     C53372   8.755   0.315  10.713 -0.1267  0.2211  0.0226
  396MOL0     O53373   8.711   0.652  10.637  0.5430 -0.3632  0.9317
  396MOL0     C53374   8.929   0.748  10.905 -0.4939  0.1118  0.6313
  396MOL0     C53375   9.000   0.863  10.948  1.0442 -0.1362  0.5019
  396MOL0     N53376   9.468   1.212  10.677  0.1240 -0.6235  0.2139
  396MOL0     N53377   9.600   1.196  10.654  0.3044  0.2095 -0.6035
  396MOL0     C53378  10.527   1.733  11.214  0.4422  0.0464  0.3743
  396MOL0     C53379  10.642   1.809  11.251 -0.1270  1.4977  0.6598
  396MOL0     C53380  10.882   2.188  11.415 -0.3496  0.3229 -0.0836
  396MOL0     C53381  10.894   2.331  11.424  0.3140  0.1860 -0.1716
  396MOL0     C53382  11.020   2.389  11.456  0.4197  0.6382 -0.3478
  396MOL0     C53383  11.140   2.313  11.473  0.1716  0.1748  0.3314
  396MOL0     O53384  11.256   2.360  11.525 -0.6677  0.2696  0.0853
  396MOL0     C53385  11.378   2.282  11.529 -0.5327  0.1036  0.1381
  396MOL0     C53386  11.488   2.350  11.618  0.4811  1.1118 -0.0889
  396MOL0     C53387  11.617   2.347  11.542  0.8143  0.1269  1.1223
  396MOL0     C53388  11.703   2.471  11.577  0.7332  0.4635  0.5297
  396MOL0     C53389  11.831   2.483  11.503  0.8017 -0.5031  0.0366
  396MOL0     C53390  11.922   2.481  11.430  0.2914  0.7143  0.2724
  396MOL0     C53391  11.117   2.176  11.452 -0.1951 -0.7916  0.6635
  396MOL0     C53392  10.997   2.115  11.432  0.0744 -0.0874  0.3232
  396MOL0     H53393  10.491   2.034  11.443 -0.5408 -1.3056  1.3537
  396MOL0     H53394  10.295   1.925  11.356 -0.4630 -0.0062 -1.0129
  396MOL0     H53395  10.260   1.775  11.011 -0.7731 -0.3723 -1.1226
  396MOL0     H53396  10.372   1.642  11.026  0.5814 -1.3569  2.4292
  396MOL0     H53397  10.083   1.604  11.109 -1.9605  1.9966 -2.4683
  396MOL0     H53398  10.112   1.587  10.939  0.8968  0.8310 -0.5136
  396MOL0     H53399  10.298   1.415  11.003  1.8005  1.2201  0.2971
  396MOL0     H53400  10.212   1.419  11.159  3.2252  1.4684  0.1528
  396MOL0     H53401  10.090   1.253  11.062 -0.3291 -1.2707 -1.1551
  396MOL0     H53402   9.990   1.389  11.010  0.2974  2.4984  1.2956
  396MOL0     H53403  10.102   1.377  10.788  1.2965 -0.1495  0.7797
  396MOL0     H53404  10.216   1.264  10.856 -0.1161 -0.3249  0.3103
  396MOL0     H53405  10.054   1.160  10.713 -1.7266 -2.6761 -0.2542
  396MOL0     H53406  10.069   1.081  10.865  0.7325 -1.4403 -2.1896
  396MOL0     H53407   9.820   1.097  10.802  0.1600  0.8382 -2.5169
  396MOL0     H53408   9.861   1.194  10.944  1.1312 -1.3813  0.4628
  396MOL0     H53409   9.861   1.290  10.643 -3.1837  0.7773 -2.2767
  396MOL0     H53410   9.838   1.394  10.782 -2.1605  0.5508 -0.7479
  396MOL0     H53411   9.564   1.438  10.887 -1.8493  2.2498 -3.1963
  396MOL0     H53412   9.292   1.453  10.822  2.7221  0.2436 -0.4373
  396MOL0     H53413   9.236   1.308  10.729  0.6143  0.5541 -2.2967
  396MOL0     H53414   9.325   1.359  11.012 -0.9140  1.0571  0.3164
  396MOL0     H53415   9.299   1.190  10.977  1.0299  1.3525  3.1672
  396MOL0     H53416   9.102   1.419  10.971 -0.1884 -0.2257 -2.6745
  396MOL0     H53417   9.103   1.300  11.092 -0.9819  1.8527  0.5643
  396MOL0     H53418   9.052   1.218  10.809  3.8395 -1.0860 -0.3784
  396MOL0     H53419   8.915   1.240  10.930  0.1810  2.0186 -5.0209
  396MOL0     H53420   8.923   1.076  10.701  0.8586 -0.3195  0.0616
  396MOL0     H53421   8.845   0.985  10.513  0.9408 -1.7237 -1.5661
  396MOL0     H53422   8.832   0.808  10.510  0.9766 -0.8338  2.0158
  396MOL0     H53423   8.696   0.899  10.561 -0.4640 -1.1985  1.0449
  396MOL0     H53424   8.990   0.451  10.514 -0.7407  0.8330 -0.7425
  396MOL0     H53425   8.950   0.253  10.392 -0.3227 -2.3496  0.3326
  396MOL0     H53426   8.781   0.147  10.263 -3.3132 -0.9341 -1.0251
  396MOL0     H53427   8.897   0.023  10.316 -0.7765 -2.9737 -0.8697
  396MOL0     H53428   8.754  -0.063  10.142 -1.8846  1.6391 -0.5923
  396MOL0     H53429   8.727  -0.149  10.297  3.7260  0.8560  1.3750
  396MOL0     H53430   8.512   0.009  10.321 -0.6871 -0.2510  0.0140
  396MOL0     H53431   8.513  -0.114  10.204 -0.2759  0.0996  1.8818
  396MOL0     H53432   8.600   0.154  10.123  0.5615  0.3187  2.6224
  396MOL0     H53433   8.504   0.037  10.024  2.0545  0.2997 -0.7584
  396MOL0     H53434   8.383   0.179  10.259  2.0847  1.4415 -0.3581
  396MOL0     H53435   8.308   0.054  10.161 -0.5999  0.8034  2.9188
  396MOL0     H53436   8.363   0.328  10.065 -0.3595  0.0158 -0.7111
  396MOL0     H53437   8.342   0.186   9.963  0.7958 -0.0978  0.6107
  396MOL0     H53438   8.122   0.265  10.173  0.2766 -0.7811  1.1180
  396MOL0     H53439   8.122   0.128  10.067  0.2375  1.2302 -0.4460
  396MOL0     H53440   8.146   0.273   9.861 -1.6668  1.9290 -1.3955
  396MOL0     H53441   8.130   0.413   9.972 -0.8246  0.1711  0.3751
  396MOL0     H53442   8.662   0.129  10.690  3.2632  0.6726  3.2176
  396MOL0     H53443   8.708   0.320  10.811  0.6512 -3.8438  0.7898
  396MOL0     H53444   8.919   0.651  10.952 -0.2214 -0.7334 -0.9961
  396MOL0     H53445   9.054   0.853  11.042  2.8910  2.0600 -0.2226
  396MOL0     H53446  10.538   1.642  11.156 -0.3265 -0.6805  1.3384
  396MOL0     H53447  10.741   1.770  11.225 -1.4932 -1.1198 -1.1095
  396MOL0     H53448  10.825   2.414  11.423  1.6873  1.4031  0.8793
  396MOL0     H53449  11.025   2.496  11.471  0.6406  0.9445 -2.2705
  396MOL0     H53450  11.378   2.179  11.566 -0.6223  0.1606  0.2975
  396MOL0     H53451  11.404   2.285  11.423 -0.3756 -2.9771 -0.0245
  396MOL0     H53452  11.494   2.304  11.717  1.0873  1.8634  0.2309
  396MOL0     H53453  11.447   2.451  11.624 -3.0388 -0.2576  3.8354
  396MOL0     H53454  11.606   2.357  11.433  2.9964 -2.3933  0.5587
  396MOL0     H53455  11.668   2.250  11.552  0.8754  0.0649  0.3296
  396MOL0     H53456  11.715   2.468  11.686 -3.0676  0.5792  1.0619
  396MOL0     H53457  11.644   2.561  11.557  0.1190 -0.7359 -3.8507
  396MOL0     H53458  11.998   2.466  11.356 -1.4598  0.9291 -1.6571
  396MOL0     H53459  11.206   2.116  11.468 -0.4532 -0.9784  1.4715
  396MOL0     H53460  10.983   2.007  11.424 -3.3980  0.2874 -0.5662
  397MOL0     O53461  10.862   8.250  10.072 -0.2036 -0.4090  1.3623
  397MOL0     C53462  10.863   8.348  10.150 -0.3303  0.4090  0.5116
  397MOL0     O53463  10.756   8.422  10.192 -0.7345 -0.0556  0.3659
  397MOL0     C53464  10.636   8.381  10.129 -0.8085 -0.5193 -0.1373
  397MOL0     C53465  10.542   8.311  10.207 -0.2790 -0.0734 -0.5882
  397MOL0     C53466  10.418   8.276  10.162  0.1255 -0.1026 -0.3234
  397MOL0     C53467  10.383   8.302  10.029  0.0100 -0.2676 -0.5476
  397MOL0     O53468  10.250   8.274   9.988  0.3999 -0.9905  1.4871
  397MOL0     C53469  10.184   8.152  10.015 -0.4966 -0.8368 -0.1649
  397MOL0     C53470  10.066   8.147   9.917 -0.5692 -0.3604  0.4681
  397MOL0     C53471   9.961   8.029   9.918  0.4825  0.8328 -0.5302
  397MOL0     C53472   9.889   8.019  10.047  0.1979 -0.3990  0.6723
  397MOL0     C53473   9.819   7.881  10.056 -0.4364  0.3830  0.8825
  397MOL0     C53474   9.907   7.788  10.138  0.2947  0.4431 -0.2037
  397MOL0     C53475   9.834   7.649  10.150 -0.0841 -0.1337  0.2037
  397MOL0     C53476   9.918   7.550  10.231  0.0941  0.0681  0.0028
  397MOL0     N53477   9.863   7.534  10.370 -0.8531 -0.8613  0.0591
  397MOL0     C53478   9.751   7.468  10.405 -0.7947  0.0979  0.2338
  397MOL0     C53479   9.713   7.506  10.523  0.1470  0.3551 -0.2682
  397MOL0     C53480   9.598   7.451  10.603  0.4366  0.0488 -0.2210
  397MOL0     C53481   9.580   7.301  10.578 -0.6580 -0.5494 -0.7107
  397MOL0     C53482   9.525   7.227  10.698  0.7927  0.0009  0.4054
  397MOL0     C53483   9.377   7.267  10.731  0.0219 -0.2123  0.4150
  397MOL0     O53484   9.327   7.188  10.839  0.0840  0.0065 -0.1309
  397MOL0     C53485   9.198   7.202  10.888  0.0113  0.3773 -0.0541
  397MOL0     C53486   9.167   7.134  11.005  0.1622 -0.1246 -0.1559
  397MOL0     C53487   9.040   7.131  11.063 -0.3386 -0.4223  0.2307
  397MOL0     C53488   9.024   7.058  11.193  0.2043 -0.2943  0.2293
  397MOL0     C53489   8.938   7.203  10.991 -0.4744  0.5483  0.7337
  397MOL0     C53490   8.791   7.193  11.029  0.5693 -0.4187 -0.4415
  397MOL0     O53491   8.753   7.111  11.125  0.5616  0.2980 -0.4512
  397MOL0     C53492   8.626   7.063  11.136  0.1857  0.2133  0.2120
  397MOL0     C53493   8.592   7.021  11.269  0.4436 -0.1999  0.5740
  397MOL0     C53494   8.472   6.962  11.291  0.4986  1.0633 -0.4061
  397MOL0     C53495   8.378   6.944  11.192  0.3527 -0.3639  0.2776
  397MOL0     O53496   8.260   6.886  11.222  0.3894 -0.4381  0.5825
  397MOL0     C53497   8.194   6.943  11.334 -0.8602  0.9183 -0.2021
  397MOL0     C53498   8.041   6.903  11.322 -0.1033 -0.4068 -0.0286
  397MOL0     C53499   7.986   6.910  11.181  0.5782 -0.2682 -0.4834
  397MOL0     C53500   7.842   6.853  11.173 -0.0288  0.4971  0.2103
  397MOL0     C53501   7.835   6.711  11.119  0.0268 -0.8605  0.9394
  397MOL0     C53502   7.706   6.684  11.049 -0.0868  0.9466 -0.4672
  397MOL0     C53503   7.576   6.721  11.114 -1.2891  1.1262  0.8393
  397MOL0     C53504   7.449   6.666  11.047 -0.0460 -1.1555  0.7907
  397MOL0    Cl53505   7.294   6.729  11.124 -0.1130  0.1560  0.5452
  397MOL0     C53506   8.409   6.993  11.064  0.5066 -0.2252  0.3810
  397MOL0     C53507   8.526   7.062  11.040  0.1115  0.4419  0.9122
  397MOL0     O53508   8.718   7.270  10.962  0.6039  0.1377  0.6917
  397MOL0     C53509   8.971   7.275  10.876  0.0410 -0.5358  0.1881
  397MOL0     C53510   9.102   7.275  10.823  0.1992  0.2464  0.7791
  397MOL0     N53511   9.781   7.619  10.558  0.4800  0.2648 -0.7460
  397MOL0     N53512   9.869   7.637  10.464 -0.0814  0.6386  0.6254
  397MOL0     C53513  10.467   8.379   9.950  0.6516 -0.6766 -0.6833
  397MOL0     C53514  10.599   8.412   9.997 -0.1356 -0.1448 -0.9433
  397MOL0     C53515  10.993   8.384  10.198  0.3896 -0.9258  0.0216
  397MOL0     C53516  11.007   8.493  10.295 -0.7241 -0.1451  0.9279
  397MOL0     C53517  11.143   8.518  10.331  0.2903  1.0126 -0.6483
  397MOL0     C53518  11.254   8.458  10.289 -0.5562  0.1750  0.0038
  397MOL0     O53519  11.366   8.504  10.350  0.1845  0.1849  0.3295
  397MOL0     C53520  11.494   8.463  10.293  0.0862  0.4168  0.1329
  397MOL0     C53521  11.611   8.541  10.339 -0.6265 -0.5942  0.0578
  397MOL0     C53522  11.745   8.454  10.326 -1.0674 -0.2850 -0.1898
  397MOL0     C53523  11.870   8.545  10.361  0.1249  0.1991 -0.0233
  397MOL0     C53524  11.974   8.447  10.355  0.7087  0.5410  0.2258
  397MOL0     C53525  12.061   8.360  10.370  0.6490  0.1402  0.6706
  397MOL0     C53526  11.250   8.367  10.189  0.6183 -0.4878  0.1232
  397MOL0     C53527  11.114   8.331  10.146  0.3366 -0.1041  0.6415
  397MOL0     H53528  10.559   8.294  10.313  1.6858  3.6412 -0.1427
  397MOL0     H53529  10.351   8.227  10.232  0.1313 -0.6123 -0.6715
  397MOL0     H53530  10.245   8.063   9.999  1.4673  0.4903 -0.4492
  397MOL0     H53531  10.165   8.150  10.123  1.2099 -3.0250  0.1671
  397MOL0     H53532  10.012   8.242   9.922 -1.6089 -0.9908  2.3815
  397MOL0     H53533  10.114   8.147   9.819  0.0518  0.0753  0.7658
  397MOL0     H53534   9.884   8.040   9.840 -0.9017  0.2747  0.7070
  397MOL0     H53535  10.026   7.943   9.903  2.7093  1.8783  2.3945
  397MOL0     H53536   9.966   8.030  10.124 -0.3278 -1.0972  1.3150
  397MOL0     H53537   9.817   8.101  10.052  0.6248 -0.0783  1.8735
  397MOL0     H53538   9.728   7.905  10.112 -0.5659  2.2752 -0.0806
  397MOL0     H53539   9.782   7.833   9.965  0.4289  1.2567  0.0473
  397MOL0     H53540  10.002   7.758  10.091  0.7747 -0.4167  1.2492
  397MOL0     H53541   9.933   7.831  10.235  1.7032 -0.1400 -0.2898
  397MOL0     H53542   9.734   7.660  10.195 -0.2037 -0.6897  0.0782
  397MOL0     H53543   9.817   7.611  10.049  0.3384  0.5523 -0.1270
  397MOL0     H53544  10.025   7.567  10.246 -0.5688  2.3237  2.9832
  397MOL0     H53545   9.899   7.457  10.176 -1.1121 -1.2771  2.5093
  397MOL0     H53546   9.686   7.394  10.360 -0.9148  0.4695 -0.2121
  397MOL0     H53547   9.622   7.475  10.707  0.4676  2.5971 -0.7518
  397MOL0     H53548   9.505   7.503  10.580  0.0841 -1.6127 -3.0137
  397MOL0     H53549   9.679   7.258  10.561  0.1884  1.2160 -0.3526
  397MOL0     H53550   9.507   7.297  10.496 -1.5084 -2.0950  0.0714
  397MOL0     H53551   9.591   7.249  10.783 -1.6426  2.3864  1.8504
  397MOL0     H53552   9.522   7.119  10.682  0.0914  0.4242 -3.1068
  397MOL0     H53553   9.311   7.264  10.645 -1.5887 -0.5120  1.6063
  397MOL0     H53554   9.371   7.365  10.780 -2.9456 -0.6889  1.1781
  397MOL0     H53555   9.251   7.091  11.058  1.4604  1.2028 -1.0364
  397MOL0     H53556   9.116   7.030  11.245 -0.7223 -0.6879  1.7436
  397MOL0     H53557   8.984   7.126  11.269  2.0729 -0.2830  1.2724
  397MOL0     H53558   8.959   6.971  11.176  1.2433 -1.3093  1.2080
  397MOL0     H53559   8.656   7.039  11.355 -0.8843  0.4243  1.4504
  397MOL0     H53560   8.458   6.925  11.391  1.4882 -0.7424 -0.9014
  397MOL0     H53561   8.231   6.908  11.430 -1.3544  0.6278 -0.1133
  397MOL0     H53562   8.212   7.051  11.333 -0.6205  0.9406  2.1222
  397MOL0     H53563   8.039   6.797  11.349 -3.5293 -0.3666  0.3454
  397MOL0     H53564   7.975   6.959  11.389  1.3550  0.6074  0.6089
  397MOL0     H53565   8.052   6.858  11.111  1.1062  3.5225 -3.1286
  397MOL0     H53566   7.992   7.016  11.153  0.4814 -0.2239 -0.3391
  397MOL0     H53567   7.798   6.870  11.271  0.9157 -0.3462  0.8090
  397MOL0     H53568   7.790   6.916  11.100 -0.1103  0.9788  0.6809
  397MOL0     H53569   7.843   6.641  11.203  1.2700  0.4473  1.9624
  397MOL0     H53570   7.918   6.711  11.047 -2.0515  1.6696 -1.7051
  397MOL0     H53571   7.705   6.743  10.956 -1.0886  0.6582 -0.6465
  397MOL0     H53572   7.705   6.578  11.024 -2.2026  0.8707 -0.2666
  397MOL0     H53573   7.579   6.830  11.127  1.9926  1.2161  0.1030
  397MOL0     H53574   7.585   6.667  11.209  1.4929  1.0107  0.5984
  397MOL0     H53575   7.455   6.557  11.052  2.8419 -1.2452 -1.7351
  397MOL0     H53576   7.458   6.695  10.942 -2.3131 -0.9677  0.5995
  397MOL0     H53577   8.334   6.983  10.987  0.6914  0.9521  0.0298
  397MOL0     H53578   8.548   7.110  10.945 -0.1777  0.1498  0.6901
  397MOL0     H53579   8.888   7.318  10.821 -0.2442 -2.0406 -0.5966
  397MOL0     H53580   9.115   7.332  10.731  0.1242 -0.2868  0.4314
  397MOL0     H53581  10.432   8.406   9.850 -1.3300  2.9255  0.8031
  397MOL0     H53582  10.662   8.466   9.927 -0.7640  0.1664 -1.2764
  397MOL0     H53583  10.930   8.558  10.336  0.6513  1.9429  0.3888
  397MOL0     H53584  11.156   8.593  10.409 -0.9136 -0.5049  1.0926
  397MOL0     H53585  11.513   8.367  10.342 -0.4030  0.2653  0.0286
  397MOL0     H53586  11.497   8.447  10.185  4.0035 -0.5139  0.2323
  397MOL0     H53587  11.600   8.570  10.444 -0.4636  1.6729 -0.5058
  397MOL0     H53588  11.619   8.631  10.278 -0.6337 -0.0499  0.8522
  397MOL0     H53589  11.765   8.410  10.228 -0.8520  1.5491 -1.0049
  397MOL0     H53590  11.741   8.371  10.398 -0.8004  0.4063  0.6404
  397MOL0     H53591  11.871   8.578  10.465  1.5736  1.8951 -0.5219
  397MOL0     H53592  11.887   8.630  10.294 -1.3864 -0.7324 -1.6892
  397MOL0     H53593  12.126   8.274  10.370 -0.9523 -1.1159 -0.0105
  397MOL0     H53594  11.331   8.313  10.139  0.2219 -0.3765 -0.6643
  397MOL0     H53595  11.112   8.255  10.069  1.0298 -0.3687  0.8695
  398MOL0     O53596   1.576   9.378   7.670  0.6561  0.6791 -0.1413
  398MOL0     C53597   1.542   9.268   7.660 -0.3409  0.5470  0.4257
  398MOL0     O53598   1.628   9.163   7.683  0.0290  0.0129  0.8432
  398MOL0     C53599   1.747   9.189   7.749 -0.0800 -0.0179 -0.0893
  398MOL0     C53600   1.754   9.140   7.878 -0.6110  0.0808 -0.3708
  398MOL0     C53601   1.869   9.171   7.966  1.1719  0.2133  0.2435
  398MOL0     C53602   1.979   9.239   7.914 -0.0930 -0.2168  0.1627
  398MOL0     O53603   2.083   9.266   8.000 -0.0329 -0.1443  0.2442
  398MOL0     C53604   2.203   9.329   7.962  0.0412  0.1165  0.9142
  398MOL0     C53605   2.316   9.242   7.885  0.7487 -0.6679  0.6422
  398MOL0     C53606   2.331   9.098   7.945  0.2256 -0.7203  0.0755
  398MOL0     C53607   2.403   9.011   7.840 -0.5677  0.4327  0.1818
  398MOL0     C53608   2.453   8.868   7.887 -0.0729  0.3652 -0.3851
  398MOL0     C53609   2.545   8.886   8.006  0.1089 -0.4216  0.2237
  398MOL0     C53610   2.635   8.762   8.031  0.6052  0.2594 -1.0215
  398MOL0     C53611   2.741   8.748   7.921 -0.2501 -0.1968  0.3904
  398MOL0     N53612   2.868   8.691   7.956  0.5585  0.5347  0.2807
  398MOL0     C53613   2.970   8.655   7.868 -0.0316 -0.3788  0.1137
  398MOL0     C53614   3.061   8.603   7.958 -0.7205  0.4135  0.3218
  398MOL0     C53615   3.205   8.564   7.940  0.2143  0.9236  0.5925
  398MOL0     C53616   3.232   8.424   7.875 -0.2591  0.1294  0.0091
  398MOL0     C53617   3.186   8.409   7.731 -0.3058  0.2590 -0.1876
  398MOL0     C53618   3.206   8.267   7.661 -0.0891 -0.0801  0.0542
  398MOL0     O53619   3.169   8.234   7.530 -0.6518  0.1652 -0.8743
  398MOL0     C53620   3.033   8.224   7.501 -0.1696  0.4071 -0.0867
  398MOL0     C53621   2.997   8.265   7.372 -0.4967 -0.3109  0.2483
  398MOL0     C53622   2.864   8.262   7.321 -0.6078  0.6877 -0.0849
  398MOL0     C53623   2.836   8.313   7.175 -0.1425 -0.1031  0.4615
  398MOL0     C53624   2.768   8.217   7.415 -0.7415  0.3386  0.5943
  398MOL0     C53625   2.627   8.220   7.378 -0.2086 -0.3539 -0.0344
  398MOL0     O53626   2.550   8.111   7.420 -0.6933  0.7450  0.1508
  398MOL0     C53627   2.423   8.089   7.371 -0.0230 -0.5546  0.7397
  398MOL0     C53628   2.405   8.068   7.235  0.2496  0.4838 -0.9087
  398MOL0     C53629   2.278   8.048   7.186 -0.1370  0.1199 -0.3745
  398MOL0     C53630   2.170   8.044   7.269 -0.4919  0.5259 -0.6219
  398MOL0     O53631   2.042   8.021   7.224 -0.1890 -0.6485  0.0671
  398MOL0     C53632   1.973   7.903   7.265  0.9415  0.1008 -0.4675
  398MOL0     C53633   1.828   7.915   7.309  0.0344 -0.0403 -0.3504
  398MOL0     C53634   1.775   7.769   7.311 -0.4000 -0.0773 -0.2819
  398MOL0     C53635   1.643   7.764   7.382 -0.6158 -0.0668  0.3341
  398MOL0     C53636   1.592   7.624   7.381 -0.2300  0.3792 -1.0612
  398MOL0     C53637   1.458   7.613   7.460 -0.0658 -0.0936  0.8539
  398MOL0     C53638   1.380   7.482   7.437  0.0798  0.2878 -0.0890
  398MOL0     C53639   1.242   7.473   7.513 -0.0609 -0.7779  0.1071
  398MOL0    Cl53640   1.128   7.346   7.453 -0.1799  0.1242  0.1483
  398MOL0     C53641   2.182   8.069   7.410 -1.3460  0.3215  0.2957
  398MOL0     C53642   2.315   8.096   7.452  0.2483  0.3086 -0.6021
  398MOL0     O53643   2.582   8.314   7.316  0.5226 -0.0568  0.0135
  398MOL0     C53644   2.810   8.171   7.542  0.0710 -0.8510  1.4467
  398MOL0     C53645   2.937   8.185   7.590 -0.0764 -0.6211 -0.2041
  398MOL0     N53646   3.010   8.586   8.087  0.7165 -0.2672  0.4213
  398MOL0     N53647   2.893   8.645   8.088 -0.4837  0.6289  0.2537
  398MOL0     C53648   1.973   9.270   7.778  0.4095 -0.7720 -0.0088
  398MOL0     C53649   1.862   9.247   7.693 -0.4141  0.1529 -0.6476
  398MOL0     C53650   1.411   9.237   7.603  0.0062 -0.4847 -0.8939
  398MOL0     C53651   1.302   9.321   7.626 -0.6106  0.1972 -0.4112
  398MOL0     C53652   1.186   9.299   7.559  0.3385  0.7181  0.3778
  398MOL0     C53653   1.165   9.177   7.474  0.1804  0.3856 -0.4856
  398MOL0     O53654   1.052   9.133   7.412  0.1791  0.3352 -0.4267
  398MOL0     C53655   0.945   9.232   7.400 -0.1512 -0.3767 -0.0282
  398MOL0     C53656   0.834   9.171   7.303 -0.1866  0.4683 -0.1563
  398MOL0     C53657   0.718   9.266   7.291 -1.3505  0.1135 -0.3275
  398MOL0     C53658   0.629   9.213   7.179  0.6185 -0.3430  0.0828
  398MOL0     C53659   0.516   9.130   7.229 -1.1692  0.1409  0.2110
  398MOL0     C53660   0.420   9.065   7.261 -0.4324  0.2159 -0.1957
  398MOL0     C53661   1.271   9.087   7.467  0.0264  0.4542  0.5992
  398MOL0     C53662   1.397   9.120   7.533  0.0186  0.5029 -0.2428
  398MOL0     H53663   1.666   9.092   7.919 -2.0824  2.2026 -0.9244
  398MOL0     H53664   1.856   9.141   8.069 -2.7152 -1.9262 -0.6796
  398MOL0     H53665   2.190   9.429   7.921  1.5705  1.2254  2.9821
  398MOL0     H53666   2.247   9.355   8.059 -0.7105  1.2340  0.9651
  398MOL0     H53667   2.276   9.232   7.783 -5.0684  0.9105  2.4097
  398MOL0     H53668   2.407   9.303   7.892  1.0299  0.0034 -4.5741
  398MOL0     H53669   2.378   9.107   8.044 -0.6471 -2.0376  0.6283
  398MOL0     H53670   2.233   9.051   7.956 -1.4187  2.4279  0.0232
  398MOL0     H53671   2.337   8.987   7.756 -1.4694 -0.3536  1.0824
  398MOL0     H53672   2.486   9.071   7.804 -1.2328 -0.8514 -4.0751
  398MOL0     H53673   2.369   8.808   7.922 -1.0044  1.5944 -0.4381
  398MOL0     H53674   2.506   8.811   7.810 -3.3913 -0.9569 -1.8846
  398MOL0     H53675   2.602   8.977   7.985 -0.9805 -0.1746 -1.8952
  398MOL0     H53676   2.493   8.909   8.099  2.0087  1.0751  0.9840
  398MOL0     H53677   2.683   8.781   8.128  0.3308 -0.5200 -0.7283
  398MOL0     H53678   2.577   8.670   8.043  1.9836 -0.3771  1.4780
  398MOL0     H53679   2.766   8.850   7.893 -0.0598 -1.0722 -2.9868
  398MOL0     H53680   2.703   8.708   7.826 -2.2199  2.5483 -0.1175
  398MOL0     H53681   2.988   8.658   7.761  0.3233  3.0491  0.1627
  398MOL0     H53682   3.254   8.627   7.865  1.0311 -1.7760 -1.2941
  398MOL0     H53683   3.270   8.574   8.028  0.9137  0.8252  0.1022
  398MOL0     H53684   3.158   8.371   7.936 -1.3458 -1.0168 -2.1601
  398MOL0     H53685   3.338   8.401   7.882 -0.0473  0.8874 -0.5704
  398MOL0     H53686   3.225   8.487   7.666 -1.9489  2.9930  1.8893
  398MOL0     H53687   3.080   8.439   7.730 -0.4250 -0.1637 -0.7036
  398MOL0     H53688   3.159   8.191   7.723  0.8461 -1.4450 -0.8490
  398MOL0     H53689   3.311   8.240   7.673 -0.5559 -1.7404  0.6713
  398MOL0     H53690   3.080   8.299   7.312 -0.9239  0.8852  0.3164
  398MOL0     H53691   2.928   8.328   7.118  0.6843 -0.2400  1.7368
  398MOL0     H53692   2.766   8.249   7.119 -1.9611  2.0184  0.1354
  398MOL0     H53693   2.772   8.401   7.187  0.6580  0.6810 -0.8114
  398MOL0     H53694   2.494   8.069   7.172  1.2440  1.2279  0.4681
  398MOL0     H53695   2.270   8.032   7.079 -1.6032  2.7350 -0.7385
  398MOL0     H53696   1.981   7.831   7.182 -0.5025 -3.1579  2.0130
  398MOL0     H53697   2.027   7.863   7.350 -0.6590 -1.5998 -0.1968
  398MOL0     H53698   1.829   7.959   7.409 -1.9576  3.6919 -1.7902
  398MOL0     H53699   1.764   7.975   7.243 -2.9160 -1.9426  0.5482
  398MOL0     H53700   1.843   7.699   7.359 -2.6186 -1.1422  1.5490
  398MOL0     H53701   1.770   7.744   7.204 -2.3622 -0.3544 -0.1707
  398MOL0     H53702   1.666   7.798   7.483 -1.3854  0.4168  0.3508
  398MOL0     H53703   1.570   7.824   7.327  0.6144  1.1337 -0.0303
  398MOL0     H53704   1.667   7.559   7.426  1.3704  1.1628 -2.4860
  398MOL0     H53705   1.585   7.594   7.276  2.6427 -1.1071 -0.9210
  398MOL0     H53706   1.491   7.637   7.561 -2.6465  2.2254  1.2750
  398MOL0     H53707   1.390   7.697   7.444 -0.7284 -0.7358  0.1593
  398MOL0     H53708   1.439   7.393   7.461 -0.6674 -0.5358 -1.1953
  398MOL0     H53709   1.353   7.478   7.331  2.0847 -1.9141 -0.5922
  398MOL0     H53710   1.179   7.561   7.497 -3.8637 -3.1164  1.0511
  398MOL0     H53711   1.264   7.459   7.619  4.3705  1.7379 -0.2357
  398MOL0     H53712   2.087   8.067   7.462 -1.1051  2.4263  0.8821
  398MOL0     H53713   2.315   8.123   7.557  1.0331 -0.5275 -0.3712
  398MOL0     H53714   2.725   8.139   7.601 -1.2368  0.4693  0.3517
  398MOL0     H53715   2.959   8.158   7.693 -4.0166  0.0534  0.9849
  398MOL0     H53716   2.064   9.313   7.737 -0.1672  0.4300 -0.0692
  398MOL0     H53717   1.864   9.271   7.587 -0.3124  2.3422 -0.1997
  398MOL0     H53718   1.320   9.412   7.682 -0.4058  0.0283 -0.2026
  398MOL0     H53719   1.106   9.370   7.580 -1.5607 -1.4841  1.0530
  398MOL0     H53720   0.907   9.248   7.501  2.3067  1.2219  0.7360
  398MOL0     H53721   0.988   9.321   7.354 -0.9004 -2.0077 -4.3760
  398MOL0     H53722   0.789   9.081   7.346  0.8719  0.2449  0.5232
  398MOL0     H53723   0.876   9.148   7.205 -4.7637 -1.7600 -1.8537
  398MOL0     H53724   0.759   9.362   7.258  1.8984 -0.8384  0.5600
  398MOL0     H53725   0.674   9.280   7.390 -0.0766  0.3561  0.2231
  398MOL0     H53726   0.672   9.174   7.086 -0.1062  2.8998 -1.7767
  398MOL0     H53727   0.585   9.304   7.137  0.4536 -0.7675 -0.7005
  398MOL0     H53728   0.343   8.993   7.278 -2.2449  1.3372 -2.9892
  398MOL0     H53729   1.277   8.993   7.414 -0.8192 -0.7892  2.5792
  398MOL0     H53730   1.479   9.053   7.510 -1.4158 -0.9683 -1.3208
  399MOL0     O53731   4.822   2.839   1.430  0.0329  0.5137  0.2106
  399MOL0     C53732   4.854   2.786   1.533  0.3303  1.0154  0.1064
  399MOL0     O53733   4.769   2.702   1.604  0.5275 -0.0008  0.8537
  399MOL0     C53734   4.646   2.670   1.573  0.9374 -1.5795 -0.8589
  399MOL0     C53735   4.558   2.649   1.680 -0.3565  1.2139  0.4321
  399MOL0     C53736   4.434   2.593   1.661 -0.4001  0.3804  1.2886
  399MOL0     C53737   4.386   2.587   1.526  0.1625 -0.3436  0.3898
  399MOL0     O53738   4.261   2.537   1.509  0.1972 -0.7038  0.5327
  399MOL0     C53739   4.185   2.598   1.407 -0.1158  0.1297 -0.0976
  399MOL0     C53740   4.151   2.747   1.436  0.5577 -1.2766 -0.2919
  399MOL0     C53741   4.071   2.824   1.327 -0.0584 -0.1866 -0.4416
  399MOL0     C53742   4.003   2.944   1.394  0.6332  0.4285 -0.8549
  399MOL0     C53743   3.886   3.006   1.309  0.0886  0.4028  0.1881
  399MOL0     C53744   3.926   3.041   1.162  0.0440  0.4524 -0.1022
  399MOL0     C53745   3.807   3.100   1.096 -0.4514 -0.5361  0.4960
  399MOL0     C53746   3.829   3.150   0.952 -0.4096  0.0332 -0.0618
  399MOL0     N53747   3.931   3.268   0.940 -0.0697 -0.5304 -0.1498
  399MOL0     C53748   3.931   3.365   1.037 -1.4943 -0.3510 -0.2188
  399MOL0     C53749   4.015   3.456   0.983  0.8376 -0.3130 -0.3997
  399MOL0     C53750   4.025   3.604   1.034  0.1083 -0.2360  1.4734
  399MOL0     C53751   4.139   3.690   0.981 -0.6097  0.1482  0.3175
  399MOL0     C53752   4.164   3.827   1.040  0.8483  0.8031 -0.2499
  399MOL0     C53753   4.037   3.893   1.079  0.1853 -0.5479  0.3667
  399MOL0     O53754   3.945   3.918   0.966  0.2563 -0.3908 -0.1387
  399MOL0     C53755   3.807   3.922   0.987 -1.1645 -0.1752 -0.3571
  399MOL0     C53756   3.742   3.957   1.111 -1.3165 -0.4183  0.7740
  399MOL0     C53757   3.609   3.944   1.126  0.8608 -0.1082 -0.5542
  399MOL0     C53758   3.562   3.991   1.261  0.5592 -0.6996 -0.2191
  399MOL0     C53759   3.525   3.922   1.016  0.2997  0.3580 -0.4378
  399MOL0     C53760   3.377   3.911   1.024  0.4708 -0.0390 -0.3214
  399MOL0     O53761   3.308   3.929   0.905  0.3029  0.4723 -0.3586
  399MOL0     C53762   3.175   3.948   0.907 -0.7794  0.2400 -0.3144
  399MOL0     C53763   3.097   3.911   0.795 -0.2103 -0.0201  0.9006
  399MOL0     C53764   2.956   3.924   0.800  0.3283 -0.8806 -0.3134
  399MOL0     C53765   2.894   3.993   0.900 -0.4292 -0.3741  0.3855
  399MOL0     O53766   2.759   3.997   0.891 -0.2804  0.0782  0.2458
  399MOL0     C53767   2.687   4.036   1.014  0.2137 -0.3907  0.1478
  399MOL0     C53768   2.540   4.048   0.968 -0.2936 -0.4955 -0.1245
  399MOL0     C53769   2.480   3.920   0.920  0.0011 -0.6994  0.8957
  399MOL0     C53770   2.442   3.822   1.029 -0.4881  0.0995  0.1355
  399MOL0     C53771   2.320   3.744   1.001 -0.1719 -0.3204  0.2297
  399MOL0     C53772   2.283   3.638   1.088 -0.8673 -0.6373 -0.0710
  399MOL0     C53773   2.138   3.592   1.070 -0.3359  0.5577  1.0185
  399MOL0     C53774   2.086   3.509   1.190 -0.8618 -0.5274  0.3749
  399MOL0    Cl53775   2.100   3.334   1.165 -0.1385 -0.1406 -0.5067
  399MOL0     C53776   2.965   4.038   1.005 -0.4350 -0.8076  0.8546
  399MOL0     C53777   3.100   4.026   1.007 -0.0672  1.0849  0.4777
  399MOL0     O53778   3.324   3.872   1.129 -0.4198  0.4241  0.0527
  399MOL0     C53779   3.585   3.894   0.892 -0.2819 -0.4825 -1.2548
  399MOL0     C53780   3.720   3.892   0.877 -0.2931  0.4705 -0.3624
  399MOL0     N53781   4.071   3.416   0.858  0.4818 -0.5090  0.4552
  399MOL0     N53782   4.016   3.298   0.841 -0.3436  0.5140 -0.1019
  399MOL0     C53783   4.475   2.616   1.420  0.3687  0.0555  1.5936
  399MOL0     C53784   4.610   2.643   1.441  0.4190 -0.3056  0.2645
  399MOL0     C53785   4.991   2.814   1.587  0.1181 -0.7959 -0.3411
  399MOL0     C53786   5.022   2.794   1.724  0.3897  0.3922  0.3412
  399MOL0     C53787   5.150   2.802   1.770 -0.2838  0.5492  0.8308
  399MOL0     C53788   5.252   2.840   1.685  0.0580  0.1051  0.2066
  399MOL0     O53789   5.377   2.844   1.740  0.4233 -0.2831  0.0574
  399MOL0     C53790   5.496   2.876   1.676 -0.7382 -0.1363 -0.3682
  399MOL0     C53791   5.589   2.954   1.774  0.1172 -0.1614 -0.7929
  399MOL0     C53792   5.732   2.956   1.721  0.0983  0.1828 -0.3545
  399MOL0     C53793   5.829   3.038   1.810  1.0065  0.3213 -1.1444
  399MOL0     C53794   5.962   3.052   1.757  0.2653 -0.9047 -1.0000
  399MOL0     C53795   6.074   3.076   1.723 -1.1066  1.1733  0.1121
  399MOL0     C53796   5.228   2.864   1.550 -0.3530 -0.2833 -0.6073
  399MOL0     C53797   5.098   2.842   1.507  0.0574 -1.0250  0.1392
  399MOL0     H53798   4.591   2.650   1.783 -0.0565 -0.5692  0.3834
  399MOL0     H53799   4.371   2.546   1.735 -0.8564 -0.7008  0.2379
  399MOL0     H53800   4.235   2.575   1.313  2.1198  0.7405  0.8756
  399MOL0     H53801   4.099   2.531   1.403  1.8716 -2.5119 -2.0942
  399MOL0     H53802   4.101   2.746   1.533 -2.1605  2.9816 -1.3951
  399MOL0     H53803   4.244   2.805   1.447 -2.7934  4.6378  1.2996
  399MOL0     H53804   4.135   2.856   1.244  2.3756 -1.3976  0.8622
  399MOL0     H53805   3.993   2.757   1.289 -0.6346  0.6259 -0.7233
  399MOL0     H53806   3.968   2.927   1.496  3.2534 -0.5353 -0.0424
  399MOL0     H53807   4.084   3.015   1.411  1.6589 -0.9222  0.1077
  399MOL0     H53808   3.796   2.944   1.314  0.5473 -0.2346  0.5511
  399MOL0     H53809   3.869   3.106   1.350  0.7454  0.5324  0.1491
  399MOL0     H53810   4.013   3.107   1.154 -0.2551  0.6470 -2.8723
  399MOL0     H53811   3.944   2.950   1.103 -0.6769  0.9754 -1.1687
  399MOL0     H53812   3.730   3.023   1.090  0.3691 -1.2570 -1.3259
  399MOL0     H53813   3.759   3.173   1.163  0.6876  0.8504 -0.1458
  399MOL0     H53814   3.732   3.182   0.914 -2.9409 -3.0679  3.2163
  399MOL0     H53815   3.874   3.070   0.893  3.4992 -0.4173  3.0613
  399MOL0     H53816   3.865   3.379   1.122 -0.7280  0.1019  0.3154
  399MOL0     H53817   3.928   3.646   1.005 -0.4559 -1.6404  1.2465
  399MOL0     H53818   4.022   3.597   1.144  0.4889 -2.5507  1.3829
  399MOL0     H53819   4.121   3.708   0.875 -0.0844  1.6826  0.4692
  399MOL0     H53820   4.231   3.632   0.988 -0.1457  1.0078  1.5447
  399MOL0     H53821   4.208   3.891   0.963  1.1046  2.4390  1.1900
  399MOL0     H53822   4.231   3.828   1.127  0.4021  0.1327  0.1051
  399MOL0     H53823   4.068   3.987   1.125 -0.2999  1.2061 -2.6071
  399MOL0     H53824   3.985   3.826   1.148 -0.7805 -1.4917 -1.2235
  399MOL0     H53825   3.810   3.995   1.187  0.2942 -0.9782 -0.3485
  399MOL0     H53826   3.496   4.077   1.245 -1.0365 -2.2244 -2.5161
  399MOL0     H53827   3.523   3.912   1.326 -1.2464  0.3331  0.0106
  399MOL0     H53828   3.643   4.035   1.318  0.0810 -1.2423  0.9076
  399MOL0     H53829   3.156   3.882   0.709  0.0412 -0.9160  1.3569
  399MOL0     H53830   2.905   3.885   0.712  0.4455  4.1013 -2.9502
  399MOL0     H53831   2.704   3.970   1.100 -0.3609 -0.9405 -0.1551
  399MOL0     H53832   2.711   4.137   1.050 -0.9100  0.5833 -1.6994
  399MOL0     H53833   2.483   4.075   1.057  1.7605  1.8120  0.5938
  399MOL0     H53834   2.542   4.130   0.896  1.4089  0.5731  1.0839
  399MOL0     H53835   2.538   3.871   0.841 -0.3896 -0.9608  0.7672
  399MOL0     H53836   2.392   3.951   0.863  2.0976 -1.5288 -3.2129
  399MOL0     H53837   2.521   3.746   1.033 -1.3673 -1.0712 -2.4641
  399MOL0     H53838   2.416   3.871   1.123 -0.7573  1.2273 -0.5124
  399MOL0     H53839   2.334   3.691   0.906 -4.1369 -0.9253 -0.1836
  399MOL0     H53840   2.236   3.811   0.979  0.4338 -0.1971 -1.9782
  399MOL0     H53841   2.350   3.551   1.082 -1.4781 -1.7368  4.5882
  399MOL0     H53842   2.300   3.671   1.191  0.8935  0.1408 -0.5684
  399MOL0     H53843   2.140   3.523   0.985  0.5922  0.1102  1.3906
  399MOL0     H53844   2.065   3.667   1.039  0.6007 -0.0817 -3.4481
  399MOL0     H53845   1.983   3.527   1.223 -1.3860 -0.9185 -0.9927
  399MOL0     H53846   2.147   3.531   1.279 -1.9575 -0.3187  1.0971
  399MOL0     H53847   2.913   4.082   1.090  2.5563 -0.6001  2.7490
  399MOL0     H53848   3.150   4.066   1.094 -1.2406  0.5428  1.4317
  399MOL0     H53849   3.529   3.870   0.802 -2.6465 -3.0234  0.7346
  399MOL0     H53850   3.760   3.872   0.778 -2.7992 -0.7155 -1.2245
  399MOL0     H53851   4.446   2.614   1.316  1.9877  0.5264  1.1082
  399MOL0     H53852   4.675   2.668   1.357  1.8875 -0.6769  1.2638
  399MOL0     H53853   4.939   2.778   1.792  0.7367  2.5941  1.3553
  399MOL0     H53854   5.175   2.766   1.870 -0.9198 -1.7139  0.2432
  399MOL0     H53855   5.547   2.786   1.639 -2.5657 -0.4407 -2.3832
  399MOL0     H53856   5.486   2.935   1.585  0.3533  1.9940  0.8298
  399MOL0     H53857   5.593   2.900   1.869 -1.1466  2.2500  0.7567
  399MOL0     H53858   5.558   3.058   1.788 -0.9428 -0.6104  0.3654
  399MOL0     H53859   5.727   3.004   1.623 -1.4552 -0.0478 -0.4045
  399MOL0     H53860   5.773   2.855   1.711 -0.4367 -0.0522 -0.1970
  399MOL0     H53861   5.832   2.993   1.910 -2.5974  2.7719  0.3196
  399MOL0     H53862   5.781   3.136   1.823  0.2517 -0.1540 -0.1753
  399MOL0     H53863   6.172   3.087   1.680  0.0220  0.5011  2.3420
  399MOL0     H53864   5.310   2.901   1.489  0.1956 -1.3283 -0.5380
  399MOL0     H53865   5.083   2.865   1.401  0.6501  0.1095  0.2754
  400MOL0     O53866   0.042   5.000   4.911  0.4043  0.1858  0.2301
  400MOL0     C53867   0.059   5.059   5.015  0.0156  0.1235 -0.6253
  400MOL0     O53868  -0.039   5.096   5.107 -0.0914 -0.1380 -0.3071
  400MOL0     C53869  -0.169   5.070   5.074  0.1913  0.9310  0.5329
  400MOL0     C53870  -0.241   5.132   4.966  0.1085 -0.6241 -0.7399
  400MOL0     C53871  -0.384   5.115   4.962 -0.4134  0.6338  0.2201
  400MOL0     C53872  -0.447   5.042   5.054  0.4085 -0.1364 -0.0075
  400MOL0     O53873  -0.582   5.016   5.058  0.1841 -0.4186  0.1045
  400MOL0     C53874  -0.674   5.103   4.996  0.3240 -0.1793 -1.6172
  400MOL0     C53875  -0.811   5.054   5.031  0.5108 -0.1008  0.8094
  400MOL0     C53876  -0.916   5.152   4.974  0.0281 -0.1066  0.2281
  400MOL0     C53877  -1.061   5.100   4.997  0.1099  0.5902  0.4847
  400MOL0     C53878  -1.177   5.184   4.934 -0.5866 -0.0169  0.7032
  400MOL0     C53879  -1.183   5.334   4.990  0.1651  0.8217 -0.1514
  400MOL0     C53880  -1.320   5.399   4.980 -0.9443  0.0818 -0.4886
  400MOL0     C53881  -1.354   5.435   4.834 -0.5987  0.0751  0.2449
  400MOL0     N53882  -1.490   5.483   4.831  0.3681 -0.2377 -0.1294
  400MOL0     C53883  -1.528   5.621   4.849 -1.6569  1.1732  0.5662
  400MOL0     C53884  -1.660   5.618   4.826 -0.5242  0.2282  0.7535
  400MOL0     C53885  -1.745   5.740   4.819  0.2274 -0.5529  0.4404
  400MOL0     C53886  -1.889   5.714   4.781 -0.0711 -0.7421 -0.0019
  400MOL0     C53887  -1.974   5.660   4.901  1.0811 -0.0294  0.2388
  400MOL0     C53888  -2.121   5.643   4.877  0.0355  0.7339 -0.0465
  400MOL0     O53889  -2.141   5.543   4.782 -0.7863 -0.0874 -0.1677
  400MOL0     C53890  -2.269   5.515   4.746 -0.3834  0.0047 -1.1645
  400MOL0     C53891  -2.293   5.379   4.720 -0.3959 -0.5965 -0.1140
  400MOL0     C53892  -2.427   5.344   4.681 -0.5493  0.0494 -0.2044
  400MOL0     C53893  -2.457   5.198   4.662  0.3204  0.3715 -0.1772
  400MOL0     C53894  -2.541   5.439   4.667 -0.3188  0.3988  0.1768
  400MOL0     C53895  -2.675   5.409   4.609  0.1601 -0.0809 -1.3275
  400MOL0     O53896  -2.667   5.322   4.501 -1.0094 -0.5663 -0.1392
  400MOL0     C53897  -2.781   5.274   4.466  0.5247 -0.2915  0.6234
  400MOL0     C53898  -2.848   5.178   4.540  0.3186  0.2980  0.2683
  400MOL0     C53899  -2.965   5.114   4.490  0.1179  0.6997 -0.7880
  400MOL0     C53900  -3.023   5.156   4.370 -0.2851 -1.2788 -0.0396
  400MOL0     O53901  -3.132   5.096   4.324 -0.1059 -0.2084 -0.6110
  400MOL0     C53902  -3.244   5.171   4.271  0.2205 -0.3812  0.4429
  400MOL0     C53903  -3.353   5.082   4.210  0.2027 -0.5702 -0.6601
  400MOL0     C53904  -3.470   5.152   4.152  0.0785 -0.4058 -0.2708
  400MOL0     C53905  -3.571   5.049   4.104  0.6882  0.4700 -0.0902
  400MOL0     C53906  -3.671   5.000   4.201  0.3639  1.0727  0.1459
  400MOL0     C53907  -3.762   4.899   4.143  0.0834  0.6401  0.5071
  400MOL0     C53908  -3.881   4.859   4.235  0.1128 -0.2008 -0.7425
  400MOL0     C53909  -4.003   4.963   4.249 -0.2701  0.3698 -0.3962
  400MOL0    Cl53910  -4.107   4.957   4.109  0.3068  0.5366  0.4693
  400MOL0     C53911  -2.966   5.268   4.306 -0.1388 -0.3118 -0.5376
  400MOL0     C53912  -2.848   5.329   4.356 -0.1678  0.5443  0.0171
  400MOL0     O53913  -2.780   5.461   4.643 -0.2787 -0.2224 -0.2968
  400MOL0     C53914  -2.504   5.567   4.704  0.1447 -0.1596 -1.2717
  400MOL0     C53915  -2.375   5.605   4.750  0.5781  0.2147 -0.4089
  400MOL0     N53916  -1.707   5.486   4.797 -0.1369  0.1681  0.0168
  400MOL0     N53917  -1.603   5.411   4.796 -0.3155  0.5550  0.7994
  400MOL0     C53918  -0.374   4.970   5.149  0.9186  0.9694  1.3190
  400MOL0     C53919  -0.238   4.982   5.162  0.6277  0.6202  0.8610
  400MOL0     C53920   0.202   5.085   5.057  0.6412  0.1707  0.2978
  400MOL0     C53921   0.236   5.188   5.144  1.1519 -0.3891 -0.2306
  400MOL0     C53922   0.374   5.219   5.171  1.2443  0.3272  1.8816
  400MOL0     C53923   0.480   5.145   5.106  0.4328  0.0756 -0.3340
  400MOL0     O53924   0.608   5.169   5.130  0.0678  0.2961  0.3887
  400MOL0     C53925   0.649   5.295   5.086 -0.5835  0.2085  0.8377
  400MOL0     C53926   0.704   5.397   5.187 -0.0795  0.9480 -0.7137
  400MOL0     C53927   0.718   5.543   5.131 -0.9977 -0.2742 -0.8259
  400MOL0     C53928   0.779   5.645   5.228 -0.7809  0.9290  0.0037
  400MOL0     C53929   0.681   5.676   5.329  0.4776  0.4967  0.2661
  400MOL0     C53930   0.591   5.696   5.404  0.2092  0.6464  0.1628
  400MOL0     C53931   0.448   5.046   5.018  0.2199 -0.2988  0.5295
  400MOL0     C53932   0.312   5.019   4.980 -0.0688 -0.3489  0.5343
  400MOL0     H53933  -0.185   5.195   4.897  0.0746  0.6131  0.3362
  400MOL0     H53934  -0.445   5.167   4.889 -0.6876 -0.8722 -0.6799
  400MOL0     H53935  -0.660   5.202   5.042 -0.7587 -0.4253 -0.7055
  400MOL0     H53936  -0.652   5.100   4.889 -2.9887  0.3218 -2.4279
  400MOL0     H53937  -0.827   4.955   4.989 -2.9281  1.2566 -1.5397
  400MOL0     H53938  -0.820   5.047   5.140  0.8147  0.8261  0.9037
  400MOL0     H53939  -0.902   5.247   5.026 -0.5611  0.5546 -0.7674
  400MOL0     H53940  -0.905   5.176   4.868  0.6076 -1.8691 -0.1452
  400MOL0     H53941  -1.067   4.999   4.956  1.1212  1.1082 -1.0463
  400MOL0     H53942  -1.073   5.093   5.105 -1.6459  0.3695  0.3045
  400MOL0     H53943  -1.165   5.193   4.826  2.0455  1.1174  1.0059
  400MOL0     H53944  -1.262   5.124   4.967 -1.9526 -0.0164 -2.4346
  400MOL0     H53945  -1.161   5.328   5.097  0.7871  3.0271 -0.0968
  400MOL0     H53946  -1.093   5.391   4.964 -0.3161  0.4569 -2.8969
  400MOL0     H53947  -1.389   5.336   5.036 -1.7965  2.1478  0.9148
  400MOL0     H53948  -1.318   5.496   5.030 -1.2421  0.7117 -1.6727
  400MOL0     H53949  -1.352   5.347   4.769 -2.2578 -2.2675  3.1233
  400MOL0     H53950  -1.278   5.507   4.802  0.1266 -0.5568  0.5028
  400MOL0     H53951  -1.462   5.700   4.885  1.7435 -0.8695 -0.6522
  400MOL0     H53952  -1.737   5.793   4.914  0.6876 -1.5386  0.9634
  400MOL0     H53953  -1.703   5.808   4.746  0.2046 -1.6754 -0.6615
  400MOL0     H53954  -1.890   5.637   4.704  1.7652 -0.2037 -0.6236
  400MOL0     H53955  -1.935   5.805   4.743  1.4707 -0.4938 -1.3787
  400MOL0     H53956  -1.969   5.726   4.988 -2.8383  1.4358 -0.4147
  400MOL0     H53957  -1.926   5.564   4.923 -0.4889 -1.4145 -1.9330
  400MOL0     H53958  -2.167   5.737   4.845 -2.6225 -0.2105  0.7691
  400MOL0     H53959  -2.171   5.611   4.968 -2.6460 -1.0287 -1.9842
  400MOL0     H53960  -2.209   5.310   4.719  1.4650  1.5309  0.3586
  400MOL0     H53961  -2.456   5.175   4.555  1.0408  1.2013 -0.3564
  400MOL0     H53962  -2.390   5.130   4.715 -0.3108  1.7070  2.5134
  400MOL0     H53963  -2.555   5.177   4.707  0.0163  0.1792 -0.9102
  400MOL0     H53964  -2.813   5.149   4.639 -3.3084  0.5748  1.7915
  400MOL0     H53965  -3.002   5.036   4.557  0.7232 -0.2752 -1.5589
  400MOL0     H53966  -3.295   5.229   4.349 -1.1854 -0.6556 -0.2582
  400MOL0     H53967  -3.216   5.246   4.195 -0.4375  2.6408  2.9616
  400MOL0     H53968  -3.314   5.010   4.138  0.9835 -0.5902 -0.2215
  400MOL0     H53969  -3.393   5.030   4.298 -1.0059 -0.0536 -0.8766
  400MOL0     H53970  -3.443   5.215   4.066  1.6958 -0.7820 -0.0731
  400MOL0     H53971  -3.514   5.217   4.228  3.4870  1.8488 -0.0126
  400MOL0     H53972  -3.632   5.099   4.029  0.2589  0.4396  0.2345
  400MOL0     H53973  -3.523   4.961   4.060 -1.6039 -0.3501 -1.0674
  400MOL0     H53974  -3.728   5.082   4.246  3.0530  2.2801  1.6343
  400MOL0     H53975  -3.617   4.959   4.287 -0.9253  0.9482  0.9255
  400MOL0     H53976  -3.806   4.923   4.046  3.0212 -2.0160 -1.6833
  400MOL0     H53977  -3.697   4.815   4.118 -1.7306 -1.1344  1.5152
  400MOL0     H53978  -3.838   4.837   4.333 -0.3449 -1.2326 -0.7582
  400MOL0     H53979  -3.931   4.767   4.204 -3.1613 -0.0310  3.0957
  400MOL0     H53980  -3.960   5.064   4.256  5.4302 -1.6452 -1.1415
  400MOL0     H53981  -4.062   4.943   4.339 -1.2055  0.3871 -0.9902
  400MOL0     H53982  -3.015   5.305   4.216 -0.6422 -2.7315 -1.3510
  400MOL0     H53983  -2.795   5.407   4.302 -0.0557 -0.4413 -1.3553
  400MOL0     H53984  -2.579   5.646   4.698  1.7827  1.5403 -0.5695
  400MOL0     H53985  -2.353   5.711   4.761 -0.7396  0.4186  0.5489
  400MOL0     H53986  -0.436   4.905   5.210  0.5835 -0.5815 -0.5810
  400MOL0     H53987  -0.192   4.919   5.237  0.5720 -2.7159 -1.7018
  400MOL0     H53988   0.162   5.252   5.190  1.4063 -0.7829  0.7474
  400MOL0     H53989   0.377   5.298   5.245 -3.4426  2.4343  0.1691
  400MOL0     H53990   0.718   5.283   5.002 -0.1983  1.6441  0.9332
  400MOL0     H53991   0.569   5.345   5.030 -0.4374 -0.3414  0.1167
  400MOL0     H53992   0.801   5.362   5.222 -0.2506  0.6195 -0.5598
  400MOL0     H53993   0.633   5.394   5.271 -1.2861  2.0653 -1.6448
  400MOL0     H53994   0.618   5.580   5.106 -3.0840 -3.3368  2.0099
  400MOL0     H53995   0.776   5.543   5.039  1.6599 -0.0689  0.7602
  400MOL0     H53996   0.816   5.730   5.170  2.5869 -0.6590 -0.4138
  400MOL0     H53997   0.866   5.602   5.278  0.1230 -1.3877 -3.2198
  400MOL0     H53998   0.508   5.732   5.461  0.1535  0.8354 -0.0411
  400MOL0     H53999   0.524   4.976   4.984 -0.8119 -0.0278 -2.6057
  400MOL0     H54000   0.299   4.941   4.905 -1.1844 -1.1256  1.4827
  401MOL0     O54001   0.740   4.824  10.335 -0.2587  0.3044 -0.1097
  401MOL0     C54002   0.822   4.883  10.403 -0.6009  0.2635  0.5390
  401MOL0     O54003   0.795   4.996  10.462 -0.1121 -0.2051  0.0822
  401MOL0     C54004   0.690   5.071  10.432 -0.0844 -1.6268 -0.5936
  401MOL0     C54005   0.719   5.198  10.389 -0.1076  0.5698 -0.8586
  401MOL0     C54006   0.617   5.290  10.366 -0.7815 -0.3033  0.2788
  401MOL0     C54007   0.483   5.266  10.375  0.8935 -0.7374 -0.5658
  401MOL0     O54008   0.393   5.372  10.374  0.4336  0.2565 -0.6142
  401MOL0     C54009   0.265   5.338  10.322  0.2611 -0.2784 -0.3069
  401MOL0     C54010   0.165   5.462  10.341 -0.7703  0.4923  0.2868
  401MOL0     C54011   0.031   5.404  10.276 -0.3695 -0.2856 -0.7897
  401MOL0     C54012  -0.070   5.522  10.270 -0.8277  0.1373  0.2643
  401MOL0     C54013  -0.130   5.550  10.411  0.1477 -0.3154  0.7355
  401MOL0     C54014  -0.224   5.671  10.410 -0.0078 -0.2553 -0.3777
  401MOL0     C54015  -0.167   5.786  10.477 -0.0086 -0.4107 -0.1449
  401MOL0     C54016  -0.259   5.910  10.452  0.1848  0.0956 -0.0756
  401MOL0     N54017  -0.237   6.011  10.553 -0.5724  0.0551  0.2307
  401MOL0     C54018  -0.295   6.020  10.679  0.7898 -0.6381 -0.3503
  401MOL0     C54019  -0.272   6.146  10.708  0.1475  0.1253 -0.0879
  401MOL0     C54020  -0.346   6.223  10.827 -0.0977  0.0701 -0.5402
  401MOL0     C54021  -0.236   6.299  10.906 -0.7213 -0.3221 -0.0076
  401MOL0     C54022  -0.308   6.368  11.026 -0.0409  0.9242  0.4926
  401MOL0     C54023  -0.228   6.480  11.084  0.3404 -0.1470 -0.6515
  401MOL0     O54024  -0.213   6.582  10.989 -0.1733  0.3765 -0.0394
  401MOL0     C54025  -0.121   6.679  11.002  0.7697  0.4750  0.2241
  401MOL0     C54026  -0.056   6.715  11.124 -0.4006 -0.4063  0.3939
  401MOL0     C54027   0.030   6.825  11.123 -0.0264  0.5462 -0.3080
  401MOL0     C54028   0.081   6.853  11.262 -0.1689  0.1127  0.3229
  401MOL0     C54029   0.058   6.897  11.004 -0.1909  0.7229  0.6505
  401MOL0     C54030   0.154   7.011  11.001  0.3971  0.6045 -0.6311
  401MOL0     O54031   0.158   7.080  10.885 -0.4438 -0.1400 -0.3963
  401MOL0     C54032   0.260   7.172  10.862 -0.3718  0.0508 -0.1626
  401MOL0     C54033   0.321   7.258  10.950 -1.3318  0.0305 -0.3202
  401MOL0     C54034   0.437   7.341  10.913  0.7517  1.1065  0.1866
  401MOL0     C54035   0.475   7.349  10.776 -0.4552  0.0466 -0.1008
  401MOL0     O54036   0.572   7.426  10.723  0.5500  0.1154 -0.9621
  401MOL0     C54037   0.660   7.481  10.816 -0.2736 -0.6610 -0.0386
  401MOL0     C54038   0.793   7.517  10.742 -0.9171  0.3882  0.3708
  401MOL0     C54039   0.889   7.618  10.820  0.4182  0.6495 -0.4366
  401MOL0     C54040   1.005   7.663  10.740 -0.8797  0.1493 -0.8578
  401MOL0     C54041   0.967   7.766  10.629 -0.5227 -1.0598  0.5392
  401MOL0     C54042   1.075   7.808  10.531 -0.1690  0.0065  0.5225
  401MOL0     C54043   1.150   7.687  10.456  0.6884 -0.1446  0.4783
  401MOL0     C54044   1.276   7.642  10.521  0.3541 -0.1586  0.1469
  401MOL0    Cl54045   1.395   7.785  10.525 -0.0229  0.3805 -0.4530
  401MOL0     C54046   0.403   7.268  10.684 -0.3389  0.2735 -0.0293
  401MOL0     C54047   0.306   7.180  10.726  0.8980  0.3646 -0.7764
  401MOL0     O54048   0.210   7.036  11.102 -0.2114  0.1978 -0.5847
  401MOL0     C54049  -0.012   6.855  10.887  0.8082 -0.5356  0.9388
  401MOL0     C54050  -0.100   6.750  10.886 -0.0091  0.5365 -0.0854
  401MOL0     N54051  -0.211   6.207  10.606 -0.5148  0.3934  0.6489
  401MOL0     N54052  -0.185   6.124  10.513 -0.0132 -1.0664 -0.0574
  401MOL0     C54053   0.450   5.134  10.430  0.6188  0.1298 -0.4201
  401MOL0     C54054   0.559   5.041  10.466  0.1787 -0.6958 -0.8287
  401MOL0     C54055   0.955   4.825  10.423  0.6854 -0.2980 -0.4887
  401MOL0     C54056   1.022   4.732  10.343  0.7799  0.9714 -0.8905
  401MOL0     C54057   1.155   4.694  10.356  0.7648 -0.6667 -0.6399
  401MOL0     C54058   1.238   4.760  10.454 -0.9825 -0.5213  0.0235
  401MOL0     O54059   1.374   4.737  10.484 -0.7117  0.3574  0.4923
  401MOL0     C54060   1.437   4.615  10.432  0.0602 -0.3603 -0.3938
  401MOL0     C54061   1.400   4.493  10.519 -0.1611  0.2199  0.4514
  401MOL0     C54062   1.481   4.375  10.496 -0.3717  0.4239 -0.0957
  401MOL0     C54063   1.431   4.311  10.370 -0.8946  0.2690  0.1765
  401MOL0     C54064   1.498   4.349  10.247 -0.3131  0.1085  0.6251
  401MOL0     C54065   1.575   4.362  10.156  0.8080  0.6088  0.3014
  401MOL0     C54066   1.170   4.851  10.533  0.7746  0.5706 -0.3679
  401MOL0     C54067   1.031   4.880  10.531  0.0707  1.2432  0.1049
  401MOL0     H54068   0.817   5.237  10.362  0.3260  0.5634  0.5753
  401MOL0     H54069   0.648   5.386  10.325 -1.2527 -1.2444 -2.4991
  401MOL0     H54070   0.279   5.316  10.216 -0.1423 -1.9076 -0.0587
  401MOL0     H54071   0.218   5.254  10.374 -0.6288 -0.0941 -0.7956
  401MOL0     H54072   0.162   5.499  10.444  1.1604 -0.8179  0.8786
  401MOL0     H54073   0.189   5.542  10.271 -0.6526  1.4845  1.4228
  401MOL0     H54074   0.068   5.370  10.179  1.8512 -3.1018  0.8779
  401MOL0     H54075  -0.013   5.318  10.328  0.1616 -0.4871 -0.6656
  401MOL0     H54076  -0.010   5.608  10.239  2.6765 -2.2786 -0.1860
  401MOL0     H54077  -0.146   5.490  10.198 -0.4154 -1.8194  0.6525
  401MOL0     H54078  -0.184   5.469  10.462  0.5175  0.6838  2.8314
  401MOL0     H54079  -0.058   5.576  10.489 -0.8751 -1.1562  2.0198
  401MOL0     H54080  -0.221   5.696  10.304  2.9243 -0.0850 -0.3112
  401MOL0     H54081  -0.322   5.656  10.457  0.4459  1.6826  1.3078
  401MOL0     H54082  -0.147   5.768  10.583 -1.0594  2.0785  0.5676
  401MOL0     H54083  -0.072   5.805  10.427  0.3001  2.5665  1.3252
  401MOL0     H54084  -0.363   5.878  10.453  0.2241 -0.1468 -1.8326
  401MOL0     H54085  -0.229   5.954  10.357  2.1853  0.3133  0.6058
  401MOL0     H54086  -0.340   5.937  10.734 -0.8973 -0.4343 -1.3734
  401MOL0     H54087  -0.418   6.293  10.783 -2.4979 -1.3469  0.9485
  401MOL0     H54088  -0.404   6.147  10.880 -1.5504  1.0218 -0.6933
  401MOL0     H54089  -0.186   6.371  10.841  3.2968 -1.7732  1.1661
  401MOL0     H54090  -0.160   6.226  10.934 -0.6769 -2.4899 -4.9317
  401MOL0     H54091  -0.348   6.294  11.096  0.7284  0.5409  0.5408
  401MOL0     H54092  -0.401   6.409  10.985  1.3787  2.1025 -1.7612
  401MOL0     H54093  -0.137   6.445  11.134  0.0231 -2.3347 -1.5139
  401MOL0     H54094  -0.289   6.525  11.163  0.0669 -0.6370 -0.5820
  401MOL0     H54095  -0.074   6.652  11.211 -2.4549 -1.5417 -0.7585
  401MOL0     H54096   0.038   6.787  11.338 -0.6367 -1.1488 -0.9932
  401MOL0     H54097   0.189   6.834  11.262 -0.0395  0.7997  0.9587
  401MOL0     H54098   0.065   6.957  11.290  1.8162  0.5244  0.0783
  401MOL0     H54099   0.305   7.257  11.057 -0.5670  4.3520  0.0032
  401MOL0     H54100   0.477   7.408  10.988  0.0078  0.0158  1.6088
  401MOL0     H54101   0.625   7.576  10.858  0.3578  0.5792 -2.1888
  401MOL0     H54102   0.691   7.411  10.895  0.6379 -0.5994 -0.3347
  401MOL0     H54103   0.846   7.424  10.720  0.9175  1.8965 -2.0265
  401MOL0     H54104   0.777   7.566  10.646 -0.0382  0.8860  0.4704
  401MOL0     H54105   0.931   7.575  10.912 -1.1492 -1.9151 -0.8350
  401MOL0     H54106   0.835   7.709  10.850  0.6185  1.4987 -2.5285
  401MOL0     H54107   1.065   7.719  10.812 -1.7511  2.3833 -1.7929
  401MOL0     H54108   1.068   7.580  10.708 -1.4166 -1.1037  1.1594
  401MOL0     H54109   0.927   7.856  10.675 -2.0250 -1.5076  0.1699
  401MOL0     H54110   0.891   7.723  10.563  0.7254 -1.7034 -0.5342
  401MOL0     H54111   1.026   7.877  10.462 -1.4961 -1.8686 -0.5038
  401MOL0     H54112   1.149   7.873  10.580  2.7117 -2.3483 -0.4024
  401MOL0     H54113   1.167   7.722  10.354 -1.2080  0.6393  0.3843
  401MOL0     H54114   1.086   7.599  10.447  1.3112 -0.6700  1.0794
  401MOL0     H54115   1.324   7.567  10.457  0.8611  1.2157 -1.1521
  401MOL0     H54116   1.257   7.604  10.622 -0.8887  0.9012  0.3323
  401MOL0     H54117   0.431   7.282  10.580  2.3763  1.1714  0.7285
  401MOL0     H54118   0.265   7.106  10.657 -0.4140 -0.1223  0.4628
  401MOL0     H54119  -0.003   6.916  10.797 -2.6515  0.2777  0.9981
  401MOL0     H54120  -0.149   6.719  10.794  2.0365 -0.5517 -0.8591
  401MOL0     H54121   0.351   5.107  10.464  1.3665 -3.1343 -0.5118
  401MOL0     H54122   0.551   4.959  10.536  0.7541  0.6078  0.8497
  401MOL0     H54123   0.952   4.704  10.265 -2.4639 -3.8683  3.0930
  401MOL0     H54124   1.184   4.610  10.293 -1.0201 -2.0072  0.2087
  401MOL0     H54125   1.403   4.603  10.329 -1.3718  1.7521 -0.2322
  401MOL0     H54126   1.546   4.628  10.439 -0.0120  0.9082 -1.2589
  401MOL0     H54127   1.294   4.466  10.513  0.1523 -1.2315  1.0587
  401MOL0     H54128   1.421   4.523  10.622  0.5695 -0.5290  0.5315
  401MOL0     H54129   1.477   4.314  10.587 -1.4571  1.1625  0.3798
  401MOL0     H54130   1.584   4.410  10.491  0.6947 -1.7296  3.2820
  401MOL0     H54131   1.324   4.331  10.355 -0.5478  1.6234 -0.5835
  401MOL0     H54132   1.453   4.204  10.381  1.5698  0.6068 -0.9238
  401MOL0     H54133   1.647   4.350  10.077  0.6980 -1.0909  0.4111
  401MOL0     H54134   1.229   4.887  10.617  0.1427 -0.5393  0.5830
  401MOL0     H54135   0.990   4.947  10.605  0.7657  1.3042  0.4468
  402MOL0     O54136  11.271   5.758   9.493 -0.2689 -0.4554 -0.3779
  402MOL0     C54137  11.247   5.718   9.607 -0.5619 -0.7450  0.1782
  402MOL0     O54138  11.124   5.713   9.661  0.2260 -0.7045  0.4161
  402MOL0     C54139  11.016   5.769   9.591 -0.6498  0.4380 -0.0009
  402MOL0     C54140  10.971   5.893   9.639 -0.3282 -0.7816 -1.0979
  402MOL0     C54141  10.847   5.948   9.591 -0.5373  0.4770 -0.4968
  402MOL0     C54142  10.761   5.872   9.516 -0.4833  0.4630 -0.2159
  402MOL0     O54143  10.636   5.925   9.481  0.0572  0.2598 -0.1183
  402MOL0     C54144  10.580   6.031   9.560  0.0631 -1.2075 -0.0222
  402MOL0     C54145  10.426   6.033   9.524  0.3170 -0.6565  0.9373
  402MOL0     C54146  10.343   6.147   9.588  0.9130  0.7328 -0.4630
  402MOL0     C54147  10.195   6.152   9.546  0.8696 -0.0111 -0.2704
  402MOL0     C54148  10.091   6.183   9.651  0.3448  0.5718  0.0952
  402MOL0     C54149  10.120   6.316   9.724 -0.2898  0.2489  0.8170
  402MOL0     C54150  10.021   6.332   9.832  0.6728  0.1249 -0.1786
  402MOL0     C54151  10.009   6.487   9.864  0.5091 -0.7178 -0.7860
  402MOL0     N54152  10.141   6.529   9.919 -0.3365  0.9604 -0.0286
  402MOL0     C54153  10.213   6.641   9.888  0.0281  0.2522 -0.3260
  402MOL0     C54154  10.331   6.633   9.947  0.0501  0.3228  0.4927
  402MOL0     C54155  10.448   6.736   9.947 -0.6612 -0.0587  0.2472
  402MOL0     C54156  10.554   6.716  10.061  0.3850 -0.1254 -0.1950
  402MOL0     C54157  10.495   6.725  10.202  0.7377 -0.0275  0.0488
  402MOL0     C54158  10.610   6.745  10.305  0.4990 -0.3261 -0.3135
  402MOL0     O54159  10.563   6.746  10.437 -0.3150  0.4922 -0.5092
  402MOL0     C54160  10.620   6.834  10.520  0.4137  0.6762 -0.6020
  402MOL0     C54161  10.756   6.825  10.536  0.6245  1.6833 -0.4343
  402MOL0     C54162  10.828   6.913  10.620  0.4264 -0.0436  0.2454
  402MOL0     C54163  10.978   6.899  10.630 -0.4630  0.0200  0.7113
  402MOL0     C54164  10.751   7.002  10.702  0.2229 -0.0675  0.9913
  402MOL0     C54165  10.825   7.099  10.774  0.7882 -0.3905 -0.4198
  402MOL0     O54166  10.881   7.047  10.883 -0.4091 -0.2937 -0.2037
  402MOL0     C54167  10.947   7.114  10.986  0.2268 -1.1005  0.1929
  402MOL0     C54168  11.072   7.077  11.040 -0.4123 -0.1819  0.3485
  402MOL0     C54169  11.131   7.145  11.141  0.4012  0.2724 -0.2455
  402MOL0     C54170  11.066   7.256  11.191 -0.3140  0.3776  0.3829
  402MOL0     O54171  11.131   7.324  11.291 -0.0258  0.1253 -0.3169
  402MOL0     C54172  11.068   7.435  11.360  1.1836 -0.6699  0.6882
  402MOL0     C54173  11.082   7.558  11.266  0.1976  0.0144 -0.2455
  402MOL0     C54174  11.225   7.614  11.244 -0.0812 -0.5218  0.3223
  402MOL0     C54175  11.244   7.726  11.338 -0.5206 -0.3997  0.0492
  402MOL0     C54176  11.388   7.749  11.376  0.4215 -0.2922  0.0983
  402MOL0     C54177  11.474   7.808  11.266  0.2654  0.3254  0.0751
  402MOL0     C54178  11.607   7.850  11.310  0.4131 -0.1015 -1.4656
  402MOL0     C54179  11.688   7.930  11.208 -0.1015 -0.0432 -0.5972
  402MOL0    Cl54180  11.857   7.877  11.224  0.2559 -0.1260  0.4553
  402MOL0     C54181  10.939   7.292  11.140  0.2214 -0.8516 -0.4311
  402MOL0     C54182  10.872   7.220  11.044  0.1137  0.1107  0.9600
  402MOL0     O54183  10.812   7.220  10.742 -0.6719  0.1424  0.4055
  402MOL0     C54184  10.607   6.995  10.690  0.9383 -0.3823  0.1546
  402MOL0     C54185  10.548   6.917  10.605  0.6205  1.1170  0.0933
  402MOL0     N54186  10.327   6.519  10.028 -0.1456  0.4060  0.2914
  402MOL0     N54187  10.213   6.462  10.017 -0.0856  1.2604  0.7898
  402MOL0     C54188  10.801   5.748   9.471  0.4289 -0.3005  0.8997
  402MOL0     C54189  10.925   5.696   9.504  0.5046  0.4883  0.0594
  402MOL0     C54190  11.361   5.670   9.690  0.3038  0.0915 -0.0464
  402MOL0     C54191  11.355   5.623   9.821 -0.3629  0.4533 -0.4953
  402MOL0     C54192  11.467   5.586   9.888  0.2943  0.0796 -0.6842
  402MOL0     C54193  11.597   5.590   9.834  0.0278 -0.0075 -0.6338
  402MOL0     O54194  11.704   5.548   9.910  0.2578  0.3049  0.2941
  402MOL0     C54195  11.836   5.560   9.853 -0.1831  0.3242 -0.5343
  402MOL0     C54196  11.938   5.517   9.967 -0.1873 -0.4269  0.6547
  402MOL0     C54197  11.964   5.365   9.971 -0.3785 -0.0633  0.5654
  402MOL0     C54198  12.031   5.306   9.845  0.2003 -0.3331  0.5155
  402MOL0     C54199  12.157   5.232   9.883 -0.2989 -0.2084 -0.2915
  402MOL0     C54200  12.254   5.180   9.924  0.2951  0.1137  0.4804
  402MOL0     C54201  11.607   5.645   9.700  0.1873  0.7494 -0.1792
  402MOL0     C54202  11.491   5.677   9.630  0.5825 -0.8015  0.9195
  402MOL0     H54203  11.036   5.950   9.705 -1.1499 -1.4351  0.3414
  402MOL0     H54204  10.826   6.051   9.617  0.5196  1.3260 -2.7428
  402MOL0     H54205  10.592   6.013   9.667 -0.9506 -2.7645 -0.1388
  402MOL0     H54206  10.615   6.132   9.536 -2.0312 -0.5614 -0.5288
  402MOL0     H54207  10.413   6.040   9.416 -0.7558  0.7773  1.1443
  402MOL0     H54208  10.385   5.938   9.559 -1.0274  0.0914  1.4873
  402MOL0     H54209  10.340   6.131   9.696 -1.5546 -1.0234 -0.7037
  402MOL0     H54210  10.382   6.246   9.561  2.3205  0.3639  0.1677
  402MOL0     H54211  10.173   6.213   9.457 -2.6540 -0.0785  0.3801
  402MOL0     H54212  10.163   6.052   9.512 -0.7179 -0.9240  3.3783
  402MOL0     H54213  10.000   6.186   9.591 -0.1243  1.9341  0.8413
  402MOL0     H54214  10.082   6.101   9.723  1.8398 -1.0337 -1.4374
  402MOL0     H54215  10.216   6.299   9.774 -0.4770 -1.6129  0.6005
  402MOL0     H54216  10.117   6.394   9.647  1.5330 -0.7550 -0.3202
  402MOL0     H54217   9.922   6.303   9.794  0.1581  2.5101 -0.8806
  402MOL0     H54218  10.055   6.282   9.922 -0.9828  1.1340  1.0682
  402MOL0     H54219   9.932   6.514   9.937  3.2094  4.1598  0.7475
  402MOL0     H54220   9.994   6.552   9.778  0.0189 -0.0087 -0.1723
  402MOL0     H54221  10.179   6.719   9.820  1.1059  0.9526 -0.0693
  402MOL0     H54222  10.486   6.715   9.847  0.3017  0.8048  0.4191
  402MOL0     H54223  10.410   6.838   9.942 -0.3827  0.0257 -0.2604
  402MOL0     H54224  10.626   6.795  10.036 -2.1118  2.7656  0.9757
  402MOL0     H54225  10.597   6.616  10.052 -0.0521 -0.2564 -0.9434
  402MOL0     H54226  10.431   6.637  10.217 -0.0520  0.6092  0.4881
  402MOL0     H54227  10.427   6.809  10.212  0.0229 -0.5634 -0.2269
  402MOL0     H54228  10.670   6.833  10.277  1.1217 -0.4482  0.6212
  402MOL0     H54229  10.680   6.664  10.283  1.0755 -0.2193  1.0253
  402MOL0     H54230  10.814   6.757  10.473 -0.3935  0.9417 -0.6079
  402MOL0     H54231  11.007   6.858  10.728  4.2148  0.8308 -0.0799
  402MOL0     H54232  11.019   6.838  10.549 -2.8310  0.9063 -1.2610
  402MOL0     H54233  11.026   6.997  10.637 -0.5587 -0.0235  2.7539
  402MOL0     H54234  11.126   6.992  10.998 -1.3622 -1.6016  1.8880
  402MOL0     H54235  11.222   7.111  11.190 -0.2137 -0.0774  0.6942
  402MOL0     H54236  10.967   7.407  11.392  1.1473  0.7798  1.9240
  402MOL0     H54237  11.122   7.453  11.453  2.3424  3.9699 -0.6353
  402MOL0     H54238  11.062   7.536  11.161 -0.1832 -0.3543 -0.0957
  402MOL0     H54239  11.012   7.638  11.293  0.3753  0.6481 -1.5598
  402MOL0     H54240  11.249   7.645  11.142  0.6843 -1.0961  0.3224
  402MOL0     H54241  11.297   7.537  11.272  3.8444  2.5391 -0.5495
  402MOL0     H54242  11.199   7.822  11.312 -1.8707  0.0327  3.4127
  402MOL0     H54243  11.186   7.704  11.429 -0.5003  1.6701  0.6135
  402MOL0     H54244  11.441   7.661  11.412 -0.4303 -0.9765 -0.3076
  402MOL0     H54245  11.384   7.825  11.455 -3.5451 -0.7304  0.4969
  402MOL0     H54246  11.490   7.734  11.187 -0.4471 -0.6433  0.8063
  402MOL0     H54247  11.433   7.895  11.214  0.4769  2.6124  3.4163
  402MOL0     H54248  11.660   7.760  11.342 -1.3162 -1.0127 -1.0390
  402MOL0     H54249  11.584   7.909  11.400 -2.1395 -2.3694 -0.4996
  402MOL0     H54250  11.688   8.039  11.217  0.4260 -0.0641 -0.3317
  402MOL0     H54251  11.651   7.912  11.106  0.4718 -1.4904 -0.5660
  402MOL0     H54252  10.888   7.378  11.184  2.2473  1.1271 -1.7672
  402MOL0     H54253  10.771   7.248  11.016  0.0767 -0.1078  0.8695
  402MOL0     H54254  10.533   7.042  10.753 -0.3362 -1.6087 -0.3764
  402MOL0     H54255  10.440   6.914  10.594  0.8622  0.4819 -2.6178
  402MOL0     H54256  10.742   5.685   9.405 -0.4022  0.1017  1.2304
  402MOL0     H54257  10.950   5.594   9.475 -2.4422  0.5462 -3.2943
  402MOL0     H54258  11.261   5.637   9.874 -0.5642  0.7646 -0.9254
  402MOL0     H54259  11.451   5.559   9.992  1.1737  1.0838 -0.2704
  402MOL0     H54260  11.844   5.503   9.760  2.3971 -0.0911 -0.1375
  402MOL0     H54261  11.863   5.661   9.822  1.1510  0.7648  1.8354
  402MOL0     H54262  11.892   5.550  10.061 -0.0620 -1.3150  1.0389
  402MOL0     H54263  12.036   5.566   9.956  0.5905 -1.5484  2.1205
  402MOL0     H54264  11.869   5.314   9.988 -2.0152  1.2904 -3.4557
  402MOL0     H54265  12.032   5.343  10.054  0.6467  2.7940  0.6030
  402MOL0     H54266  12.061   5.389   9.780 -2.3335  0.0698 -0.2533
  402MOL0     H54267  11.969   5.241   9.783  0.7608 -0.4996  0.1192
  402MOL0     H54268  12.334   5.130   9.976 -0.0512 -2.4835 -1.3069
  402MOL0     H54269  11.704   5.640   9.653  0.2573  1.4026 -0.1170
  402MOL0     H54270  11.511   5.708   9.528 -2.4642 -2.2904 -0.2605
  403MOL0     O54271   9.322  10.919   7.700 -0.5848  0.3922 -0.2750
  403MOL0     C54272   9.354  10.956   7.815  0.3576 -0.2461 -0.3740
  403MOL0     O54273   9.264  10.984   7.914 -0.8799  0.3206 -0.5054
  403MOL0     C54274   9.142  10.925   7.900 -0.7284 -0.5571  0.3161
  403MOL0     C54275   9.104  10.830   7.992  0.2057 -1.0351 -0.0581
  403MOL0     C54276   8.975  10.775   7.981 -0.4601  0.5996  0.5809
  403MOL0     C54277   8.885  10.810   7.885  0.5216 -0.4151  0.5842
  403MOL0     O54278   8.752  10.758   7.892  0.4054 -0.5064  0.0675
  403MOL0     C54279   8.671  10.803   7.782  0.4516 -0.6470 -0.5423
  403MOL0     C54280   8.534  10.731   7.785  0.1928 -0.5048 -0.2769
  403MOL0     C54281   8.455  10.731   7.921  0.4918  0.1586  0.5835
  403MOL0     C54282   8.317  10.670   7.906  0.8118  0.1092  0.0496
  403MOL0     C54283   8.235  10.691   8.035  0.3691 -0.2482  0.5574
  403MOL0     C54284   8.094  10.629   8.035  0.2876 -0.5913 -0.0892
  403MOL0     C54285   8.023  10.639   8.172  0.0077 -0.4432 -0.2218
  403MOL0     C54286   7.874  10.591   8.155  0.5841 -0.5463 -0.1178
  403MOL0     N54287   7.796  10.691   8.081 -0.1420 -0.1326  0.5567
  403MOL0     C54288   7.745  10.812   8.124  0.3643  0.3216 -0.4031
  403MOL0     C54289   7.660  10.848   8.022  0.4222  0.3065  0.3898
  403MOL0     C54290   7.575  10.971   8.018  0.1839 -0.9435  0.3083
  403MOL0     C54291   7.439  10.953   7.962 -0.0254 -0.2703 -0.4985
  403MOL0     C54292   7.365  11.079   7.995 -0.1951  0.2830 -0.0258
  403MOL0     C54293   7.231  11.075   7.932 -0.6480  0.0503  0.3768
  403MOL0     O54294   7.200  11.213   7.931  0.3117 -0.3175 -0.0589
  403MOL0     C54295   7.072  11.245   7.901  0.0572  0.7122 -0.7998
  403MOL0     C54296   7.030  11.369   7.930 -0.4476 -0.1419 -0.2151
  403MOL0     C54297   6.896  11.419   7.902  0.6553 -0.2346  0.2650
  403MOL0     C54298   6.861  11.560   7.953 -0.0123  0.0124 -0.9774
  403MOL0     C54299   6.806  11.317   7.847  0.6125 -0.2107 -0.3126
  403MOL0     C54300   6.659  11.330   7.825 -0.7929  0.0221  1.0706
  403MOL0     O54301   6.594  11.223   7.790 -0.0420  0.0453 -0.2002
  403MOL0     C54302   6.457  11.232   7.773 -0.5176  0.6834  0.1093
  403MOL0     C54303   6.406  11.157   7.666  0.3341  0.3648  0.7428
  403MOL0     C54304   6.267  11.157   7.640  0.4777 -0.1429 -0.5356
  403MOL0     C54305   6.178  11.234   7.724 -0.1436  1.0123  0.5441
  403MOL0     O54306   6.045  11.258   7.701  0.2287  0.3569 -0.0617
  403MOL0     C54307   5.968  11.149   7.644 -0.4576 -0.8641  0.3480
  403MOL0     C54308   5.834  11.190   7.591 -0.1971  0.1316 -0.4793
  403MOL0     C54309   5.732  11.244   7.702 -0.4176  0.1848  0.4777
  403MOL0     C54310   5.612  11.305   7.638  0.0619  0.5897 -0.0053
  403MOL0     C54311   5.492  11.313   7.731 -0.7562  0.0953 -0.0543
  403MOL0     C54312   5.512  11.412   7.846 -0.3915  0.3980  0.8247
  403MOL0     C54313   5.395  11.402   7.943 -0.7881  0.2979 -0.1060
  403MOL0     C54314   5.249  11.399   7.894  0.0944  0.4014 -1.2542
  403MOL0    Cl54315   5.218  11.532   7.784  0.1894  0.1197 -0.1722
  403MOL0     C54316   6.234  11.296   7.830 -0.4579 -0.3518  1.1320
  403MOL0     C54317   6.372  11.298   7.869  0.1154  0.1294 -0.2528
  403MOL0     O54318   6.612  11.442   7.825 -0.5299 -0.2713 -0.2437
  403MOL0     C54319   6.857  11.196   7.811  0.5550  0.0775  0.0468
  403MOL0     C54320   6.987  11.155   7.842 -0.0336 -0.5166 -0.7579
  403MOL0     N54321   7.672  10.757   7.921 -0.2592  0.7517  0.0292
  403MOL0     N54322   7.746  10.664   7.958  0.3266 -0.3800 -0.3673
  403MOL0     C54323   8.923  10.913   7.795  0.0103  0.4528  0.1773
  403MOL0     C54324   9.055  10.958   7.801  0.3864 -0.8557 -0.2542
  403MOL0     C54325   9.497  10.992   7.854 -0.0314  0.7652  0.0666
  403MOL0     C54326   9.605  10.964   7.765 -0.4824 -0.6870  0.9219
  403MOL0     C54327   9.732  11.014   7.791 -0.2231 -0.3412 -0.7659
  403MOL0     C54328   9.767  11.075   7.912  0.6061  0.7391  0.0649
  403MOL0     O54329   9.897  11.106   7.945  0.1632  0.3767  0.5115
  403MOL0     C54330   9.985  11.141   7.838  0.5521  1.2517  0.2486
  403MOL0     C54331  10.108  11.215   7.900 -0.3878  0.3412 -0.1629
  403MOL0     C54332  10.183  11.322   7.814 -0.4917  0.2229  0.6166
  403MOL0     C54333  10.116  11.446   7.773  0.3829 -1.1014  0.6570
  403MOL0     C54334  10.092  11.540   7.884 -0.0444  0.4079  0.4826
  403MOL0     C54335  10.053  11.626   7.963 -0.0847 -0.2643 -0.5915
  403MOL0     C54336   9.659  11.098   8.002  0.5485 -0.2959  1.0238
  403MOL0     C54337   9.529  11.050   7.975 -0.4314 -0.5052 -0.3483
  403MOL0     H54338   9.171  10.808   8.074 -0.1014  0.9711  0.7846
  403MOL0     H54339   8.948  10.690   8.043  0.8225 -1.1129 -1.0812
  403MOL0     H54340   8.654  10.911   7.779 -0.8607 -0.7781  0.8431
  403MOL0     H54341   8.720  10.777   7.688  1.1293  1.6456 -0.8996
  403MOL0     H54342   8.465  10.790   7.724  1.3196  1.9321  0.6841
  403MOL0     H54343   8.551  10.635   7.734  1.7775 -0.6031  0.3908
  403MOL0     H54344   8.504  10.670   7.998 -2.5842  0.2592  2.8389
  403MOL0     H54345   8.458  10.835   7.955  1.6137  1.0789 -2.0691
  403MOL0     H54346   8.254  10.705   7.823 -1.9095 -0.9972  1.5188
  403MOL0     H54347   8.333  10.562   7.901  0.1658 -0.0195  0.7246
  403MOL0     H54348   8.300  10.663   8.119  1.2702 -1.5934 -0.5443
  403MOL0     H54349   8.220  10.799   8.045  0.5014 -0.2757  1.0683
  403MOL0     H54350   8.033  10.667   7.952 -0.4237 -1.5268 -0.0105
  403MOL0     H54351   8.112  10.525   8.008  0.3870 -0.2992 -1.2199
  403MOL0     H54352   8.072  10.566   8.236  1.0924 -0.0772 -0.6158
  403MOL0     H54353   8.017  10.737   8.221  0.1612  0.1135 -1.2735
  403MOL0     H54354   7.827  10.583   8.253 -3.9113 -1.1091 -2.0962
  403MOL0     H54355   7.860  10.492   8.111 -0.5239  0.0573 -1.1904
  403MOL0     H54356   7.738  10.861   8.221 -0.4886 -1.4369  0.4668
  403MOL0     H54357   7.571  10.999   8.124 -0.8007  1.3757 -0.2780
  403MOL0     H54358   7.628  11.047   7.961 -1.4738 -1.1558 -1.6449
  403MOL0     H54359   7.398  10.865   8.012  0.2722  0.4636  1.1099
  403MOL0     H54360   7.444  10.933   7.855  0.3657  0.6542 -0.6562
  403MOL0     H54361   7.423  11.166   7.964  0.0977 -0.0211 -0.3335
  403MOL0     H54362   7.339  11.085   8.101 -0.5808 -0.1867 -0.0919
  403MOL0     H54363   7.162  11.009   7.985 -2.0798  0.1746 -1.2430
  403MOL0     H54364   7.236  11.038   7.829 -3.4788  2.1446 -0.6390
  403MOL0     H54365   7.104  11.437   7.972 -0.7864 -1.5173  2.8773
  403MOL0     H54366   6.836  11.630   7.872  1.1421  2.6030  0.7984
  403MOL0     H54367   6.777  11.563   8.022  0.7303 -3.2493  0.2317
  403MOL0     H54368   6.948  11.588   8.012 -2.4955 -1.2038  3.7430
  403MOL0     H54369   6.471  11.108   7.595 -0.3021  1.5220 -0.6918
  403MOL0     H54370   6.230  11.099   7.555 -0.1876  0.1083 -0.4230
  403MOL0     H54371   6.025  11.098   7.566  0.4074 -0.0807  0.4446
  403MOL0     H54372   5.953  11.075   7.723 -0.4737  1.0532  2.2404
  403MOL0     H54373   5.844  11.274   7.521  5.3815 -1.3886 -1.9252
  403MOL0     H54374   5.794  11.100   7.545  1.2753  0.2896 -2.1737
  403MOL0     H54375   5.785  11.323   7.756  3.6172  0.2857 -3.0433
  403MOL0     H54376   5.706  11.163   7.771 -0.1202 -0.1415  0.2135
  403MOL0     H54377   5.639  11.406   7.607  4.6578 -0.4032  0.0489
  403MOL0     H54378   5.583  11.256   7.544 -1.8796  3.3608 -0.9598
  403MOL0     H54379   5.474  11.211   7.765  2.2244 -0.3289  0.5343
  403MOL0     H54380   5.400  11.341   7.679 -0.8977 -1.7149 -0.8544
  403MOL0     H54381   5.599  11.393   7.909  0.9159 -0.1835 -1.0542
  403MOL0     H54382   5.516  11.516   7.812 -0.6874  0.5602  1.2738
  403MOL0     H54383   5.407  11.481   8.018  0.8135  2.0200 -2.0556
  403MOL0     H54384   5.412  11.314   8.006 -0.8259  1.1517  1.1393
  403MOL0     H54385   5.189  11.416   7.984  0.3271  3.4295 -1.5871
  403MOL0     H54386   5.225  11.304   7.845 -1.6855 -1.5405  2.8775
  403MOL0     H54387   6.177  11.365   7.892 -0.2334  0.5101  0.4048
  403MOL0     H54388   6.403  11.339   7.965 -1.4020  1.1938 -0.1787
  403MOL0     H54389   6.790  11.121   7.769  0.8549 -2.2288  3.2621
  403MOL0     H54390   7.011  11.053   7.814 -0.1639 -0.8711  0.3935
  403MOL0     H54391   8.853  10.957   7.726  0.6504  1.9243  0.4285
  403MOL0     H54392   9.080  11.038   7.733 -1.6162 -0.7217 -0.9087
  403MOL0     H54393   9.590  10.921   7.666 -0.2903 -2.4788  1.6395
  403MOL0     H54394   9.809  10.992   7.718  0.1795 -2.0502  0.1156
  403MOL0     H54395  10.026  11.051   7.792 -0.0343  1.6529 -1.1186
  403MOL0     H54396   9.931  11.196   7.760 -1.0326 -0.6980 -0.1089
  403MOL0     H54397  10.184  11.142   7.929  0.8933  2.4983  2.3621
  403MOL0     H54398  10.080  11.246   8.001 -0.4681  0.1773 -0.1332
  403MOL0     H54399  10.218  11.284   7.718 -1.2008 -2.8607  1.4884
  403MOL0     H54400  10.278  11.339   7.866 -0.4552 -0.5380  0.8009
  403MOL0     H54401  10.023  11.430   7.717  1.5928  1.5825 -2.4204
  403MOL0     H54402  10.178  11.498   7.699 -2.0810  3.3959  1.4131
  403MOL0     H54403  10.028  11.707   8.030  1.5853  1.0900 -1.5358
  403MOL0     H54404   9.659  11.144   8.101 -0.6447 -1.9948  1.8835
  403MOL0     H54405   9.453  11.075   8.049  0.9323  0.3051  0.8374
  404MOL0     O54406   7.300   7.357   1.770  0.6246 -0.8745 -0.4170
  404MOL0     C54407   7.304   7.272   1.679 -0.6113  0.0205  0.9941
  404MOL0     O54408   7.417   7.213   1.628  0.6107  0.4291 -0.1215
  404MOL0     C54409   7.541   7.232   1.675  0.0268  0.7607 -0.8567
  404MOL0     C54410   7.594   7.334   1.759 -0.2068 -0.9857 -0.5245
  404MOL0     C54411   7.731   7.339   1.784 -0.9269 -0.7894  0.1961
  404MOL0     C54412   7.814   7.231   1.749 -0.7926 -0.1073  0.2210
  404MOL0     O54413   7.952   7.217   1.782  0.0859 -0.1587 -0.1431
  404MOL0     C54414   8.013   7.334   1.840 -0.0512 -0.5676 -0.8685
  404MOL0     C54415   8.162   7.318   1.846 -0.1539  0.3510  0.3864
  404MOL0     C54416   8.241   7.426   1.901 -0.5576 -0.8517  0.1809
  404MOL0     C54417   8.293   7.414   2.040  0.4278 -0.5621  0.1118
  404MOL0     C54418   8.402   7.511   2.058  0.4104 -0.3725  0.3410
  404MOL0     C54419   8.441   7.498   2.205  0.0829 -0.2653 -0.6757
  404MOL0     C54420   8.578   7.561   2.246  0.1039  0.5066  0.0132
  404MOL0     C54421   8.613   7.562   2.393 -0.8654  0.2031  0.1228
  404MOL0     N54422   8.653   7.431   2.445 -0.1514 -0.6584  0.6428
  404MOL0     C54423   8.573   7.354   2.528  0.0862  0.2092 -0.0347
  404MOL0     C54424   8.658   7.264   2.579 -0.1330  0.0032 -0.3383
  404MOL0     C54425   8.625   7.151   2.664  0.8616  0.5704  0.1189
  404MOL0     C54426   8.602   7.183   2.809 -0.3804 -0.5423  0.4048
  404MOL0     C54427   8.591   7.053   2.880 -0.2434  0.6624 -0.4835
  404MOL0     C54428   8.560   7.061   3.031  0.9929 -0.0989 -0.0442
  404MOL0     O54429   8.432   7.124   3.059 -0.3242 -0.0151 -0.0509
  404MOL0     C54430   8.313   7.055   3.044  0.2343  0.3075  0.0485
  404MOL0     C54431   8.290   6.923   2.998 -0.0303 -1.5756  0.0363
  404MOL0     C54432   8.164   6.864   2.972 -0.8778 -0.2872 -0.3054
  404MOL0     C54433   8.149   6.723   2.919 -0.2150  0.2226 -0.6556
  404MOL0     C54434   8.057   6.945   3.010  0.3952 -0.5097 -0.5522
  404MOL0     C54435   7.919   6.883   3.008  0.6454  0.3573 -0.4318
  404MOL0     O54436   7.850   6.860   2.894  0.8247  0.9569  0.6675
  404MOL0     C54437   7.716   6.849   2.906 -0.5357 -0.3380  0.6598
  404MOL0     C54438   7.643   6.726   2.914 -0.5997 -0.5990 -0.0122
  404MOL0     C54439   7.508   6.728   2.946  0.2760  0.3613 -0.0818
  404MOL0     C54440   7.439   6.848   2.973  0.1026 -0.1669  0.1932
  404MOL0     O54441   7.306   6.846   2.999  0.5504 -0.6373 -0.1450
  404MOL0     C54442   7.228   6.965   3.014  0.6876  0.1566 -0.7550
  404MOL0     C54443   7.080   6.943   3.043 -0.0829  0.7767 -1.7476
  404MOL0     C54444   7.006   6.866   2.932 -0.0658  0.3835  1.0054
  404MOL0     C54445   6.852   6.848   2.969  0.3676 -0.0511 -0.3532
  404MOL0     C54446   6.782   6.778   2.854 -0.1112  0.1514 -0.3203
  404MOL0     C54447   6.638   6.765   2.890 -0.2756  0.6607  0.6345
  404MOL0     C54448   6.560   6.677   2.785  0.3557 -0.0243 -0.7007
  404MOL0     C54449   6.566   6.722   2.636 -0.4561  0.2984 -0.3524
  404MOL0    Cl54450   6.494   6.881   2.617  0.4712  0.6321  0.1450
  404MOL0     C54451   7.514   6.966   2.954 -0.0560  0.0906 -0.2741
  404MOL0     C54452   7.645   6.968   2.923 -0.4517 -0.1472 -0.1202
  404MOL0     O54453   7.867   6.886   3.117  0.4466  0.0642 -0.5146
  404MOL0     C54454   8.074   7.079   3.055  0.8855  0.1381 -0.4751
  404MOL0     C54455   8.202   7.132   3.071  0.1530 -0.4555  0.3398
  404MOL0     N54456   8.782   7.281   2.512  0.3061 -0.0596 -0.8883
  404MOL0     N54457   8.769   7.369   2.423  0.6589 -0.0985 -0.7782
  404MOL0     C54458   7.765   7.126   1.667 -0.2775 -1.4583 -0.1825
  404MOL0     C54459   7.628   7.125   1.638 -0.6140 -0.0211  0.1579
  404MOL0     C54460   7.180   7.236   1.619  0.1923 -0.1459 -0.0682
  404MOL0     C54461   7.055   7.278   1.676  0.1457  0.2351 -0.7522
  404MOL0     C54462   6.932   7.250   1.612 -0.6248  0.1218 -0.5558
  404MOL0     C54463   6.927   7.178   1.488 -0.1072 -0.4587 -0.2288
  404MOL0     O54464   6.819   7.162   1.414  0.0010 -0.2372  0.6599
  404MOL0     C54465   6.692   7.197   1.465  0.0113 -0.3602  0.4455
  404MOL0     C54466   6.576   7.138   1.391 -0.0359  0.2978  0.0543
  404MOL0     C54467   6.574   7.152   1.236  0.3763 -0.2228  0.0171
  404MOL0     C54468   6.445   7.158   1.170  0.0700  0.0626  0.1616
  404MOL0     C54469   6.362   7.041   1.195 -0.8180 -0.6203  0.3093
  404MOL0     C54470   6.295   6.943   1.225 -0.0302 -1.0457 -0.3354
  404MOL0     C54471   7.052   7.148   1.430  0.4067 -1.3902  0.0534
  404MOL0     C54472   7.173   7.168   1.502  0.3134  0.4535 -0.8494
  404MOL0     H54473   7.546   7.418   1.806  2.2901  1.0812 -1.4279
  404MOL0     H54474   7.767   7.410   1.858  2.9723 -1.6751 -0.6266
  404MOL0     H54475   7.985   7.424   1.784 -1.7852  2.0838  3.7225
  404MOL0     H54476   7.962   7.349   1.935  1.6975 -1.4335  0.2435
  404MOL0     H54477   8.180   7.224   1.900 -1.2552 -1.0693 -1.5991
  404MOL0     H54478   8.200   7.290   1.748  1.1993 -1.6501  1.4045
  404MOL0     H54479   8.324   7.446   1.833 -1.2378 -1.1750 -0.7701
  404MOL0     H54480   8.184   7.519   1.894  1.7513  0.5243 -2.2282
  404MOL0     H54481   8.208   7.439   2.104 -0.1836 -1.0933 -0.4758
  404MOL0     H54482   8.317   7.313   2.076 -1.0059  0.2269  3.7324
  404MOL0     H54483   8.479   7.485   1.985  0.3224 -1.4573  0.6226
  404MOL0     H54484   8.361   7.612   2.046  2.6650  0.7896  1.7140
  404MOL0     H54485   8.355   7.527   2.266 -0.8770 -1.3214 -1.4869
  404MOL0     H54486   8.456   7.391   2.225  0.8537 -0.1413 -0.5590
  404MOL0     H54487   8.662   7.515   2.194 -0.7385 -0.1591 -0.7929
  404MOL0     H54488   8.563   7.662   2.205 -1.2892 -0.7935 -2.9789
  404MOL0     H54489   8.527   7.603   2.448 -1.0670  2.2714 -1.6116
  404MOL0     H54490   8.700   7.627   2.393  0.2434 -1.2193 -0.4688
  404MOL0     H54491   8.468   7.377   2.544  0.6227  3.9814 -1.0815
  404MOL0     H54492   8.551   7.087   2.615  2.3468 -0.6776 -0.5811
  404MOL0     H54493   8.714   7.090   2.649 -0.3705 -0.6053 -3.4794
  404MOL0     H54494   8.503   7.229   2.817 -0.3542 -0.3109 -0.5296
  404MOL0     H54495   8.679   7.245   2.854 -0.9603 -1.3289  2.6165
  404MOL0     H54496   8.684   6.997   2.868 -0.8002 -0.0673 -1.6043
  404MOL0     H54497   8.515   6.984   2.842  1.4583 -0.7603 -1.4607
  404MOL0     H54498   8.633   7.120   3.088 -0.5986  1.3988  0.5128
  404MOL0     H54499   8.557   6.957   3.066  2.4699 -0.6457 -1.4297
  404MOL0     H54500   8.381   6.866   2.983  0.1775 -1.0065 -0.9371
  404MOL0     H54501   8.134   6.725   2.810 -3.0897  1.3146 -0.3153
  404MOL0     H54502   8.242   6.677   2.952 -2.5626 -1.0823  5.5086
  404MOL0     H54503   8.067   6.663   2.961 -1.0219 -0.9026 -3.5391
  404MOL0     H54504   7.705   6.638   2.921 -1.1899 -0.9057  1.8802
  404MOL0     H54505   7.466   6.628   2.946 -0.4951  0.6651 -0.9281
  404MOL0     H54506   7.277   7.026   3.091  0.3915 -1.8243  1.0809
  404MOL0     H54507   7.236   7.024   2.922  2.1847  1.3692  0.1077
  404MOL0     H54508   7.062   6.900   3.142 -0.2606  3.5686 -0.5025
  404MOL0     H54509   7.044   7.045   3.055 -0.3332  0.6467 -1.3830
  404MOL0     H54510   7.058   6.772   2.913  1.7235  1.0045  2.5082
  404MOL0     H54511   7.003   6.920   2.837 -2.6499  0.3231  0.9606
  404MOL0     H54512   6.843   6.784   3.057 -0.7311 -1.2401 -1.2815
  404MOL0     H54513   6.800   6.944   2.978 -1.3104 -0.9527  0.0860
  404MOL0     H54514   6.833   6.681   2.847  1.4561  0.6990  2.1568
  404MOL0     H54515   6.797   6.835   2.762  0.8079 -0.6878 -0.7160
  404MOL0     H54516   6.632   6.714   2.986  1.3874 -3.5467 -1.2407
  404MOL0     H54517   6.595   6.865   2.885 -2.5697 -0.3101 -0.6143
  404MOL0     H54518   6.458   6.685   2.823  0.7875  0.1940  0.4555
  404MOL0     H54519   6.587   6.572   2.802 -1.8914 -0.4042  0.9998
  404MOL0     H54520   6.519   6.647   2.571  0.8826 -0.6559 -0.2631
  404MOL0     H54521   6.669   6.724   2.600 -0.6153  0.8167 -0.7977
  404MOL0     H54522   7.463   7.061   2.960  2.0318  1.2422  0.1192
  404MOL0     H54523   7.689   7.067   2.912 -2.5362  0.7699 -0.8354
  404MOL0     H54524   7.989   7.137   3.092  1.9424  0.1518  2.1742
  404MOL0     H54525   8.201   7.234   3.107  0.2628 -1.3218  2.9654
  404MOL0     H54526   7.834   7.046   1.644  2.9344  0.7712  1.0710
  404MOL0     H54527   7.589   7.046   1.576 -2.4702  2.8713 -2.6781
  404MOL0     H54528   7.064   7.332   1.769  2.1075  0.2630 -0.9346
  404MOL0     H54529   6.852   7.308   1.656  0.4120  3.6673 -2.9094
  404MOL0     H54530   6.686   7.155   1.566 -2.1783  0.6422  0.7886
  404MOL0     H54531   6.683   7.306   1.459 -0.6945 -0.4694 -0.8596
  404MOL0     H54532   6.484   7.181   1.433 -0.7324 -1.3442  0.2690
  404MOL0     H54533   6.573   7.037   1.431 -2.3046  0.3646  0.1866
  404MOL0     H54534   6.633   7.070   1.195 -1.1504 -1.0730 -0.5428
  404MOL0     H54535   6.631   7.237   1.197  0.5762  0.2146  1.2160
  404MOL0     H54536   6.446   7.178   1.063 -0.3650  1.6691  0.4236
  404MOL0     H54537   6.391   7.244   1.212 -1.1176 -0.2454 -0.7039
  404MOL0     H54538   6.241   6.853   1.247 -0.5115 -0.3159  1.6382
  404MOL0     H54539   7.056   7.115   1.326  1.0043 -2.6762  0.4719
  404MOL0     H54540   7.259   7.131   1.448  1.0180 -0.9575  1.1002
  405MOL0     O54541   3.876   5.199   1.999  0.2098  0.0444  0.4063
  405MOL0     C54542   3.988   5.245   1.963 -0.2861  0.9638 -1.0694
  405MOL0     O54543   4.042   5.228   1.842 -0.1884  0.1762  0.1186
  405MOL0     C54544   3.992   5.153   1.735 -0.0042 -0.5731 -0.2745
  405MOL0     C54545   4.083   5.106   1.643 -0.0893  0.4690 -0.0247
  405MOL0     C54546   4.039   5.037   1.530  0.5822  0.0208 -0.5125
  405MOL0     C54547   3.899   5.016   1.517 -0.3857 -0.1933 -0.9182
  405MOL0     O54548   3.852   4.953   1.406 -0.0770  0.2147 -0.3485
  405MOL0     C54549   3.841   4.806   1.422  0.1283  0.2274 -0.8105
  405MOL0     C54550   3.794   4.727   1.299  0.4510  0.1702 -0.5753
  405MOL0     C54551   3.705   4.608   1.350  0.0296 -0.0176 -0.6528
  405MOL0     C54552   3.644   4.524   1.243  0.1435 -0.0022 -0.4409
  405MOL0     C54553   3.521   4.450   1.292 -0.0940 -0.1116  0.7498
  405MOL0     C54554   3.394   4.540   1.295  0.9491 -0.5972 -0.1375
  405MOL0     C54555   3.269   4.452   1.309  0.0033  0.1833 -1.2164
  405MOL0     C54556   3.144   4.538   1.305 -0.5919  0.8039  0.7126
  405MOL0     N54557   3.022   4.459   1.315 -0.6480 -0.2833 -0.8802
  405MOL0     C54558   2.916   4.496   1.392  0.2797  0.5526  0.1958
  405MOL0     C54559   2.826   4.391   1.380  0.1297 -0.7162 -1.6617
  405MOL0     C54560   2.694   4.398   1.450  0.8355  0.2292  0.8396
  405MOL0     C54561   2.601   4.295   1.388 -0.2657 -0.1901 -0.8193
  405MOL0     C54562   2.458   4.306   1.441 -0.0681 -0.3381 -1.1918
  405MOL0     C54563   2.367   4.220   1.348  0.5801 -0.5652 -0.7922
  405MOL0     O54564   2.359   4.274   1.214 -0.0824  0.1768  0.5407
  405MOL0     C54565   2.272   4.210   1.129  0.9776 -0.0753 -0.6233
  405MOL0     C54566   2.268   4.243   0.993  0.1622 -0.4253 -0.0355
  405MOL0     C54567   2.181   4.185   0.894  1.1608 -0.8877 -0.1088
  405MOL0     C54568   2.201   4.230   0.752 -0.8595  0.5672 -0.4685
  405MOL0     C54569   2.081   4.100   0.937  0.9420  0.9980  0.2514
  405MOL0     C54570   1.973   4.042   0.857 -1.0085  0.8252  0.3815
  405MOL0     O54571   1.943   4.099   0.738  0.1872  0.1388 -0.4604
  405MOL0     C54572   1.828   4.044   0.672  0.3336 -0.6768  0.4250
  405MOL0     C54573   1.845   3.964   0.552  0.3962  0.0201 -0.8433
  405MOL0     C54574   1.735   3.901   0.493 -0.4612  0.5972 -0.1013
  405MOL0     C54575   1.609   3.910   0.545 -0.1040 -0.0689  0.0369
  405MOL0     O54576   1.501   3.843   0.496  0.3200 -0.0466  0.8693
  405MOL0     C54577   1.514   3.704   0.460  0.1389 -0.0716  0.1744
  405MOL0     C54578   1.371   3.652   0.460 -0.6858  0.2286 -0.3199
  405MOL0     C54579   1.288   3.681   0.335 -0.3145 -0.0958 -0.8469
  405MOL0     C54580   1.359   3.668   0.205 -0.2607  0.4444 -0.3937
  405MOL0     C54581   1.258   3.652   0.093  0.0142 -0.3925 -0.5709
  405MOL0     C54582   1.305   3.689  -0.053  0.2836 -0.5513 -0.3184
  405MOL0     C54583   1.192   3.679  -0.149 -0.2587 -0.4534  0.1752
  405MOL0     C54584   1.207   3.759  -0.276 -0.1953  0.3622  0.4321
  405MOL0    Cl54585   1.316   3.685  -0.399 -0.0448  0.1072 -0.1564
  405MOL0     C54586   1.587   3.994   0.655  0.2430 -0.1715 -0.1164
  405MOL0     C54587   1.697   4.054   0.725  0.6085 -0.4217  0.1129
  405MOL0     O54588   1.936   3.934   0.895 -0.2836 -0.3948 -0.2035
  405MOL0     C54589   2.087   4.066   1.079 -0.0247 -0.5705 -0.3767
  405MOL0     C54590   2.181   4.112   1.168  0.0684  0.0417 -0.4481
  405MOL0     N54591   2.874   4.310   1.275  0.6422  0.1227  0.8167
  405MOL0     N54592   2.991   4.346   1.242  0.3547 -0.2043  0.0878
  405MOL0     C54593   3.807   5.076   1.606 -0.5238 -0.1410  0.6250
  405MOL0     C54594   3.853   5.142   1.715 -0.1837  0.4230 -0.4827
  405MOL0     C54595   4.064   5.337   2.047 -0.4088  0.1292  0.4752
  405MOL0     C54596   4.024   5.385   2.172  0.5431 -0.1141  0.1849
  405MOL0     C54597   4.089   5.480   2.248  0.7606  0.7882  0.3991
  405MOL0     C54598   4.214   5.519   2.215 -0.8163 -0.2105  0.3383
  405MOL0     O54599   4.298   5.602   2.282  0.6421 -0.2113 -0.0874
  405MOL0     C54600   4.248   5.661   2.403 -0.1583 -0.3225 -0.1309
  405MOL0     C54601   4.346   5.777   2.448 -0.1499  0.3014 -0.2876
  405MOL0     C54602   4.484   5.725   2.480 -0.0098 -0.7163  0.3474
  405MOL0     C54603   4.580   5.830   2.544 -0.2535 -0.6686  0.5505
  405MOL0     C54604   4.629   5.931   2.445  0.2614  0.2319  0.7414
  405MOL0     C54605   4.680   6.015   2.375  1.1921 -0.8608  0.1726
  405MOL0     C54606   4.267   5.477   2.089  0.5090  0.1576 -0.6459
  405MOL0     C54607   4.195   5.389   2.004  0.3832  0.1536 -0.3815
  405MOL0     H54608   4.189   5.101   1.668 -0.7013 -0.4756  2.5826
  405MOL0     H54609   4.107   4.999   1.454 -1.3028 -1.9069 -1.3256
  405MOL0     H54610   3.933   4.758   1.458 -0.4793  0.0874  0.6071
  405MOL0     H54611   3.771   4.791   1.505  2.4020 -0.1871  1.1781
  405MOL0     H54612   3.725   4.786   1.239 -0.3083 -1.1666 -1.0421
  405MOL0     H54613   3.883   4.686   1.250  1.6710  0.7902  0.9990
  405MOL0     H54614   3.767   4.542   1.410  1.3582  2.1474  0.4571
  405MOL0     H54615   3.628   4.656   1.411  1.1890  0.8288  0.1855
  405MOL0     H54616   3.620   4.585   1.156 -0.4398 -0.6461 -0.7438
  405MOL0     H54617   3.719   4.447   1.224  1.0645 -0.1591  3.1446
  405MOL0     H54618   3.503   4.363   1.228 -1.1255  0.0619  0.7911
  405MOL0     H54619   3.537   4.420   1.396  1.3244 -1.7220  0.1087
  405MOL0     H54620   3.399   4.611   1.379  3.1093 -1.4880  0.5550
  405MOL0     H54621   3.387   4.596   1.202  1.0813 -0.1913  0.0938
  405MOL0     H54622   3.264   4.382   1.226 -0.1155  0.6247 -1.5825
  405MOL0     H54623   3.277   4.402   1.406 -1.3683  2.8306  0.3920
  405MOL0     H54624   3.146   4.603   1.217  1.9684  0.9423  0.7958
  405MOL0     H54625   3.156   4.595   1.397  1.6973  0.8469  0.4308
  405MOL0     H54626   2.907   4.576   1.465  2.1120  1.5095 -0.5654
  405MOL0     H54627   2.692   4.384   1.559  0.8562  0.4252  0.8646
  405MOL0     H54628   2.655   4.497   1.425  0.3077 -0.1816  0.0204
  405MOL0     H54629   2.624   4.193   1.419 -1.8828  0.3932  2.7553
  405MOL0     H54630   2.623   4.315   1.283  0.7236  0.7292 -0.4601
  405MOL0     H54631   2.429   4.410   1.420 -2.2627 -0.1052  2.1788
  405MOL0     H54632   2.449   4.276   1.546 -0.7925 -4.2481 -2.2400
  405MOL0     H54633   2.272   4.227   1.402  1.6080 -0.1813  1.0843
  405MOL0     H54634   2.396   4.114   1.356 -1.1046 -0.9207  2.0656
  405MOL0     H54635   2.340   4.318   0.962  0.2220 -0.0090  1.0824
  405MOL0     H54636   2.309   4.248   0.751 -0.2094 -2.7974 -0.1223
  405MOL0     H54637   2.169   4.154   0.681 -1.6995 -0.2418  0.7495
  405MOL0     H54638   2.149   4.322   0.724 -1.6768 -0.0698 -1.0658
  405MOL0     H54639   1.948   3.969   0.519  0.3624  0.8755 -0.8253
  405MOL0     H54640   1.760   3.844   0.404 -0.7371 -0.3742  0.4324
  405MOL0     H54641   1.566   3.703   0.364  2.1188 -1.6165  1.1835
  405MOL0     H54642   1.577   3.642   0.525 -0.9545 -3.2843 -1.5914
  405MOL0     H54643   1.364   3.544   0.477 -5.8335  0.4198  0.4759
  405MOL0     H54644   1.325   3.697   0.549  0.4144 -0.8826  0.8469
  405MOL0     H54645   1.240   3.778   0.347 -0.8206 -0.4778  0.3161
  405MOL0     H54646   1.208   3.608   0.346  0.5634 -0.9643  0.0340
  405MOL0     H54647   1.425   3.753   0.186 -1.8957  1.2793 -2.8320
  405MOL0     H54648   1.433   3.587   0.205 -0.2882  0.3506  1.8457
  405MOL0     H54649   1.175   3.718   0.118  0.4177  1.8094 -4.3028
  405MOL0     H54650   1.223   3.549   0.084  0.2084 -0.6642  1.3492
  405MOL0     H54651   1.341   3.792  -0.053 -5.0080  1.6060 -0.3034
  405MOL0     H54652   1.388   3.627  -0.086 -1.1822 -2.6702 -0.1997
  405MOL0     H54653   1.096   3.701  -0.101 -1.2718 -0.8590 -1.5946
  405MOL0     H54654   1.183   3.573  -0.175  4.1123 -1.0298  0.1709
  405MOL0     H54655   1.229   3.863  -0.251  0.1233  1.3592 -3.2732
  405MOL0     H54656   1.108   3.765  -0.321  0.6660  1.0658 -1.5070
  405MOL0     H54657   1.487   4.021   0.687  0.3335 -0.5521  0.5079
  405MOL0     H54658   1.658   4.106   0.812  0.2247 -0.0625 -0.2670
  405MOL0     H54659   2.026   3.984   1.116  3.3254 -2.2712  1.8621
  405MOL0     H54660   2.187   4.075   1.269  1.9894  0.6270 -0.2974
  405MOL0     H54661   3.705   5.050   1.579 -0.1037 -2.6972  1.2824
  405MOL0     H54662   3.779   5.197   1.773 -0.2437  0.4422 -0.5786
  405MOL0     H54663   3.928   5.346   2.206  1.8984 -3.6727  0.3910
  405MOL0     H54664   4.038   5.534   2.327  1.5016  1.3434  0.5176
  405MOL0     H54665   4.151   5.711   2.396 -0.9017 -1.7212 -0.1072
  405MOL0     H54666   4.232   5.577   2.471 -0.7935 -1.1882 -1.3237
  405MOL0     H54667   4.306   5.820   2.540  0.3943 -0.3060  0.2394
  405MOL0     H54668   4.348   5.866   2.385 -0.8916  0.4334 -0.1275
  405MOL0     H54669   4.546   5.680   2.402  2.3656 -0.1532  1.7667
  405MOL0     H54670   4.474   5.649   2.558 -2.1929 -0.2078  0.6269
  405MOL0     H54671   4.669   5.793   2.595  0.5470 -0.4465 -0.6206
  405MOL0     H54672   4.518   5.880   2.619 -1.7724 -1.5547 -0.0731
  405MOL0     H54673   4.721   6.089   2.308  0.9893 -2.4403 -1.7956
  405MOL0     H54674   4.360   5.521   2.055 -0.7055  2.9031 -0.6928
  405MOL0     H54675   4.226   5.380   1.900 -0.3910 -1.7237 -0.5065
  406MOL0     O54676  11.332   9.420  10.444 -0.3171 -0.7440 -0.2410
  406MOL0     C54677  11.382   9.369  10.349  0.1899 -0.0504 -0.8274
  406MOL0     O54678  11.308   9.328  10.243  0.2990  0.5895 -0.3891
  406MOL0     C54679  11.170   9.337  10.258 -0.4230  0.6893 -0.1226
  406MOL0     C54680  11.090   9.444  10.217  0.0354  0.1487  0.7428
  406MOL0     C54681  10.951   9.449  10.247 -0.0566  0.1052  0.5003
  406MOL0     C54682  10.888   9.350  10.316  0.4345  0.4589  0.3605
  406MOL0     O54683  10.752   9.348  10.350  0.2055 -0.0934  0.1913
  406MOL0     C54684  10.689   9.461  10.396 -0.0084  0.3498 -0.4694
  406MOL0     C54685  10.601   9.535  10.298  0.3514  0.0556  0.1307
  406MOL0     C54686  10.457   9.469  10.287 -0.5499  0.8425  0.9549
  406MOL0     C54687  10.453   9.329  10.219 -0.2463 -0.7359 -0.5591
  406MOL0     C54688  10.316   9.271  10.180  0.0398 -0.3350  0.1595
  406MOL0     C54689  10.239   9.237  10.308  0.2993  0.0846  0.6130
  406MOL0     C54690  10.123   9.137  10.269 -0.7025  0.4466  0.9707
  406MOL0     C54691  10.177   8.998  10.247  1.2918  0.7008  0.5298
  406MOL0     N54692  10.068   8.918  10.182  0.3072  0.2556  0.5063
  406MOL0     C54693   9.946   8.882  10.229  1.1079  0.2013 -0.5977
  406MOL0     C54694   9.891   8.804  10.133 -0.4931  0.0772  0.2107
  406MOL0     C54695   9.760   8.734  10.123  1.2358 -0.8068  0.5411
  406MOL0     C54696   9.725   8.689  10.254  0.2336 -0.9736 -0.8443
  406MOL0     C54697   9.592   8.596  10.263 -0.6700  0.5022  0.8082
  406MOL0     C54698   9.553   8.570  10.406  0.1231  0.8520  0.1062
  406MOL0     O54699   9.422   8.505  10.427  0.0737 -0.1998  0.0782
  406MOL0     C54700   9.396   8.385  10.355 -0.6233 -0.1131  0.0631
  406MOL0     C54701   9.266   8.350  10.351  0.8714 -0.0149 -0.1427
  406MOL0     C54702   9.217   8.237  10.281 -0.8221 -0.1798 -0.4960
  406MOL0     C54703   9.073   8.204  10.279  0.5725  0.0513 -0.0684
  406MOL0     C54704   9.315   8.149  10.217  0.0879  0.2730 -1.1522
  406MOL0     C54705   9.287   8.028  10.133 -0.3383 -0.0873  0.3633
  406MOL0     O54706   9.157   7.993  10.134  0.1499 -0.2021  0.4770
  406MOL0     C54707   9.122   7.864  10.083 -0.9371 -0.5984 -0.6084
  406MOL0     C54708   9.119   7.852   9.948 -0.2091  0.6496 -0.2028
  406MOL0     C54709   9.119   7.723   9.893  0.4760  0.4319 -0.4383
  406MOL0     C54710   9.115   7.611   9.970  0.5656  0.4099 -0.2243
  406MOL0     O54711   9.103   7.488   9.900 -0.1754 -0.3699  0.4932
  406MOL0     C54712   9.133   7.367   9.978  0.1794  0.4710  0.0928
  406MOL0     C54713   9.065   7.243   9.920 -0.2722 -0.2984  0.0651
  406MOL0     C54714   8.907   7.247   9.924  0.4746  0.0156  0.4651
  406MOL0     C54715   8.850   7.188  10.053  0.4491 -0.3804 -0.2492
  406MOL0     C54716   8.699   7.174  10.034 -0.4981 -0.5392 -0.4378
  406MOL0     C54717   8.643   7.132  10.171 -0.6294 -0.2724  0.6630
  406MOL0     C54718   8.499   7.092  10.139  0.0620 -0.3420 -0.1145
  406MOL0     C54719   8.413   7.102  10.264  0.0686  0.3235 -1.1311
  406MOL0    Cl54720   8.483   7.005  10.385 -0.4731  0.1146  0.4078
  406MOL0     C54721   9.092   7.627  10.110  0.3556  0.7452  0.0387
  406MOL0     C54722   9.108   7.753  10.166 -0.7442 -0.0611  0.2080
  406MOL0     O54723   9.375   7.963  10.071  0.4899  0.1011  0.4643
  406MOL0     C54724   9.450   8.186  10.230 -0.4443  0.5150  0.3220
  406MOL0     C54725   9.494   8.291  10.309 -0.5344  0.9695  0.0662
  406MOL0     N54726   9.982   8.795  10.035  0.4537 -0.5020  0.2490
  406MOL0     N54727  10.082   8.867  10.058  0.4595  0.0379  0.0962
  406MOL0     C54728  10.968   9.254  10.362  0.6482 -0.9263  0.0179
  406MOL0     C54729  11.107   9.248  10.338  0.2681 -0.7211  0.1627
  406MOL0     C54730  11.521   9.360  10.345  0.3904 -0.8066  0.2736
  406MOL0     C54731  11.605   9.442  10.425 -0.9212  0.4815  0.0243
  406MOL0     C54732  11.744   9.439  10.411 -0.4529 -0.1601  0.3906
  406MOL0     C54733  11.800   9.372  10.300 -0.4146  0.5383 -0.4030
  406MOL0     O54734  11.929   9.381  10.249  0.4030  0.5278  0.7948
  406MOL0     C54735  12.029   9.407  10.349 -0.7034  0.1118 -0.0078
  406MOL0     C54736  12.165   9.436  10.283 -0.0206  0.3542  0.4006
  406MOL0     C54737  12.228   9.301  10.229 -0.1059 -0.7609  0.4155
  406MOL0     C54738  12.369   9.336  10.181 -0.6629  0.2681 -0.5753
  406MOL0     C54739  12.425   9.222  10.106  0.2017  0.8285 -0.9595
  406MOL0     C54740  12.441   9.132  10.027  0.1161 -0.0955  0.1288
  406MOL0     C54741  11.718   9.288  10.220 -0.0569 -0.6387  0.2733
  406MOL0     C54742  11.583   9.281  10.250  0.1094 -0.0731 -0.6139
  406MOL0     H54743  11.137   9.525  10.161 -1.0776  0.5127  0.3102
  406MOL0     H54744  10.892   9.534  10.214 -1.7702 -0.3238  2.3112
  406MOL0     H54745  10.616   9.438  10.473 -2.1859  1.4733 -2.0900
  406MOL0     H54746  10.755   9.533  10.446 -0.7329  1.2124 -0.7272
  406MOL0     H54747  10.594   9.643  10.311 -2.0277 -0.1742  1.4605
  406MOL0     H54748  10.662   9.518  10.209  2.5249 -1.2111  1.7567
  406MOL0     H54749  10.411   9.457  10.385  0.4819  0.8726  1.4557
  406MOL0     H54750  10.389   9.530  10.227  0.8565 -0.7887 -2.6005
  406MOL0     H54751  10.505   9.349  10.125  0.2316 -0.2388 -0.2019
  406MOL0     H54752  10.504   9.257  10.284 -0.0620 -0.6024 -0.5540
  406MOL0     H54753  10.255   9.345  10.128  1.7933  0.6224 -0.6133
  406MOL0     H54754  10.323   9.188  10.108  1.9315  1.3719 -1.7473
  406MOL0     H54755  10.303   9.194  10.386  0.4792 -0.2203  0.2985
  406MOL0     H54756  10.190   9.325  10.351 -0.7092 -0.2869  0.2651
  406MOL0     H54757  10.040   9.139  10.340 -1.9951 -1.5929 -0.3943
  406MOL0     H54758  10.091   9.176  10.172 -1.4326  0.3534  1.1753
  406MOL0     H54759  10.209   8.936  10.331  1.4835 -0.7713 -0.5991
  406MOL0     H54760  10.268   9.009  10.187  3.2775 -0.3543  3.1624
  406MOL0     H54761   9.897   8.917  10.319  2.2811  0.8098 -0.1751
  406MOL0     H54762   9.678   8.792  10.080 -0.6731 -4.4863 -1.2519
  406MOL0     H54763   9.758   8.649  10.054 -4.2318 -0.6933  0.1110
  406MOL0     H54764   9.690   8.771  10.318  2.4615 -3.0191  3.3929
  406MOL0     H54765   9.806   8.635  10.303 -0.9841 -0.9294  1.3947
  406MOL0     H54766   9.612   8.502  10.211  0.5454  0.7150  0.8804
  406MOL0     H54767   9.503   8.642  10.217 -2.3490 -2.4127  0.8935
  406MOL0     H54768   9.543   8.661  10.465 -0.8576  0.5981  0.3574
  406MOL0     H54769   9.632   8.504  10.445 -0.1687 -0.2890 -1.1481
  406MOL0     H54770   9.192   8.419  10.389  0.7379  0.8122 -1.8377
  406MOL0     H54771   9.037   8.176  10.180  0.1206  3.0874 -0.8641
  406MOL0     H54772   9.048   8.126  10.351 -1.4939 -0.6215 -1.4510
  406MOL0     H54773   9.007   8.289  10.300  0.3097  0.2090 -1.4503
  406MOL0     H54774   9.127   7.929   9.872 -0.2764  0.5646 -0.2974
  406MOL0     H54775   9.127   7.730   9.785  0.2166  0.9225 -0.4314
  406MOL0     H54776   9.241   7.359   9.986  0.1199 -0.8380 -0.1449
  406MOL0     H54777   9.098   7.364  10.082 -1.0612  1.3457 -0.2765
  406MOL0     H54778   9.104   7.225   9.819 -1.7877  0.4236 -0.6844
  406MOL0     H54779   9.112   7.156   9.967  0.7190 -2.3588 -4.2609
  406MOL0     H54780   8.867   7.184   9.844  0.1060 -0.3235  0.9065
  406MOL0     H54781   8.870   7.348   9.901  0.4604 -0.6105 -2.6609
  406MOL0     H54782   8.891   7.091  10.080  0.2794 -0.4555 -0.2557
  406MOL0     H54783   8.869   7.250  10.141  0.7642  0.6780 -1.0347
  406MOL0     H54784   8.673   7.108   9.950 -0.1847  1.1630 -1.9389
  406MOL0     H54785   8.660   7.276  10.027  1.2572  0.2805  0.9375
  406MOL0     H54786   8.687   7.040  10.212 -0.8556 -0.2549  0.9408
  406MOL0     H54787   8.652   7.215  10.242  2.1896 -0.5952  0.8093
  406MOL0     H54788   8.499   6.991  10.098  0.4779  0.1970 -1.5044
  406MOL0     H54789   8.460   7.161  10.064  2.8638  1.2675 -0.2444
  406MOL0     H54790   8.308   7.073  10.253 -0.5520  0.6787  2.4557
  406MOL0     H54791   8.406   7.206  10.296  0.7693  0.1172 -0.2622
  406MOL0     H54792   9.067   7.547  10.179 -2.7880  2.9585  1.6964
  406MOL0     H54793   9.116   7.772  10.272  0.3114  0.2042  0.0946
  406MOL0     H54794   9.528   8.117  10.198 -1.4633  0.6157 -2.7011
  406MOL0     H54795   9.601   8.309  10.323 -0.5404  2.2691 -1.3128
  406MOL0     H54796  10.919   9.179  10.424  0.0082 -0.4416  0.1090
  406MOL0     H54797  11.161   9.161  10.373 -1.7458 -1.9018  0.4922
  406MOL0     H54798  11.564   9.503  10.506  0.0177  1.5348 -0.2715
  406MOL0     H54799  11.787   9.518  10.471  0.2588 -0.5814  0.4502
  406MOL0     H54800  12.005   9.499  10.403 -2.7954  1.7161 -3.3720
  406MOL0     H54801  12.033   9.323  10.420  0.4840 -1.2858 -1.6609
  406MOL0     H54802  12.235   9.474  10.357  3.0216 -2.4323 -0.8058
  406MOL0     H54803  12.154   9.506  10.200 -2.8699  0.8684  1.0876
  406MOL0     H54804  12.178   9.264  10.139 -0.2072  3.2043 -1.3938
  406MOL0     H54805  12.242   9.224  10.305  1.5911 -1.9574 -1.0407
  406MOL0     H54806  12.437   9.364  10.263 -0.8547 -2.1306  0.4889
  406MOL0     H54807  12.367   9.413  10.103 -0.6848 -0.2965 -1.1393
  406MOL0     H54808  12.439   9.052   9.956  1.7428 -0.8111  0.8299
  406MOL0     H54809  11.765   9.227  10.143  3.2435 -0.4723  2.0096
  406MOL0     H54810  11.520   9.216  10.189 -1.7401  0.6819  0.3829
  407MOL0     O54811   3.649   3.754   9.080 -0.5345 -0.3193  0.1687
  407MOL0     C54812   3.682   3.638   9.106  0.1129  0.5319  1.1280
  407MOL0     O54813   3.602   3.540   9.165  0.6953  0.1661 -0.4072
  407MOL0     C54814   3.473   3.554   9.206  0.0060 -0.7791  1.0618
  407MOL0     C54815   3.371   3.621   9.134  0.6455 -0.0914  0.6882
  407MOL0     C54816   3.241   3.638   9.187  0.2156  0.0243  0.1924
  407MOL0     C54817   3.209   3.586   9.311  0.0415  0.1821 -0.4396
  407MOL0     O54818   3.085   3.608   9.365 -0.0817  0.1733 -0.5522
  407MOL0     C54819   3.019   3.734   9.339 -0.2553 -0.2473  0.4888
  407MOL0     C54820   2.883   3.760   9.403  0.2673  0.8666 -0.8211
  407MOL0     C54821   2.828   3.896   9.357  0.6809 -0.2056  0.2055
  407MOL0     C54822   2.695   3.934   9.433  0.3116 -0.1100 -0.7179
  407MOL0     C54823   2.645   4.071   9.379  0.6094  0.7692 -0.5084
  407MOL0     C54824   2.739   4.187   9.402  0.1824 -0.0484  0.3708
  407MOL0     C54825   2.671   4.299   9.318  0.1440 -0.0270 -0.5255
  407MOL0     C54826   2.725   4.435   9.349 -0.4976  0.0225  0.1099
  407MOL0     N54827   2.676   4.538   9.248 -0.3766 -0.2302  0.4683
  407MOL0     C54828   2.588   4.636   9.274  0.3433  0.6865  0.0354
  407MOL0     C54829   2.572   4.709   9.160 -0.0051  0.4584  0.0626
  407MOL0     C54830   2.480   4.829   9.142  0.0622 -1.0854 -0.0170
  407MOL0     C54831   2.338   4.783   9.126  0.0861 -0.6670 -0.8653
  407MOL0     C54832   2.254   4.907   9.125 -0.2593  0.2047 -0.4344
  407MOL0     C54833   2.110   4.881   9.132 -0.3876 -0.6719  0.0999
  407MOL0     O54834   2.035   5.002   9.111 -0.5781 -0.0116  0.2508
  407MOL0     C54835   1.907   4.998   9.083  0.3358  0.2066 -0.3022
  407MOL0     C54836   1.851   5.102   9.021 -0.4784  0.5153  0.5765
  407MOL0     C54837   1.716   5.097   8.973  0.4050 -0.8060  0.6403
  407MOL0     C54838   1.681   5.198   8.864 -0.2264 -0.3980  0.8171
  407MOL0     C54839   1.632   4.989   9.011 -0.3687 -0.8014 -0.4814
  407MOL0     C54840   1.486   4.979   8.992  0.1319  0.1234 -0.5805
  407MOL0     O54841   1.427   4.869   9.054  0.1643 -0.4786  0.7864
  407MOL0     C54842   1.294   4.864   9.077 -0.0016  0.1409  0.5008
  407MOL0     C54843   1.243   4.734   9.102 -0.4877 -0.8399  0.4740
  407MOL0     C54844   1.106   4.705   9.116 -0.4571 -0.5035 -0.7324
  407MOL0     C54845   1.020   4.817   9.123 -0.5195  0.3925  0.4649
  407MOL0     O54846   0.885   4.796   9.136  0.0943  0.3234  0.7969
  407MOL0     C54847   0.854   4.699   9.245 -0.1941 -0.4234 -0.2132
  407MOL0     C54848   0.703   4.709   9.291  0.2099 -0.0041  0.0165
  407MOL0     C54849   0.681   4.854   9.350 -0.6350 -0.4805  0.1509
  407MOL0     C54850   0.530   4.884   9.367 -0.3773 -0.3637  0.1783
  407MOL0     C54851   0.502   5.031   9.403  0.1404 -0.4781 -0.3209
  407MOL0     C54852   0.346   5.059   9.436 -0.1758  0.2933 -0.1511
  407MOL0     C54853   0.320   5.212   9.478 -0.3678 -0.4388 -0.7276
  407MOL0     C54854   0.180   5.258   9.536  0.6284 -0.5086 -0.4705
  407MOL0    Cl54855   0.056   5.301   9.421 -0.0681 -0.2667  0.0888
  407MOL0     C54856   1.066   4.949   9.120 -0.5178  1.0168  0.3282
  407MOL0     C54857   1.202   4.976   9.089 -0.0166 -0.1607  0.4377
  407MOL0     O54858   1.433   5.068   8.920 -0.3763  0.4179 -0.4243
  407MOL0     C54859   1.693   4.888   9.087  0.2433  0.0665  0.6361
  407MOL0     C54860   1.824   4.890   9.130  0.7738 -0.7679 -0.3463
  407MOL0     N54861   2.652   4.652   9.066  0.4479  0.7895  0.4155
  407MOL0     N54862   2.729   4.562   9.120  0.5574 -0.0260  0.3136
  407MOL0     C54863   3.304   3.525   9.384  1.2174 -0.2130  0.5524
  407MOL0     C54864   3.435   3.506   9.333 -1.2287  0.0718  0.0435
  407MOL0     C54865   3.826   3.605   9.078  0.1861 -0.3036 -0.3202
  407MOL0     C54866   3.897   3.657   8.971 -0.1682 -0.0598 -0.1825
  407MOL0     C54867   4.026   3.603   8.940  0.1921 -0.1309 -0.5718
  407MOL0     C54868   4.095   3.519   9.032 -0.1484 -0.2117 -0.5304
  407MOL0     O54869   4.230   3.490   9.002 -0.0528 -0.6702 -0.5237
  407MOL0     C54870   4.303   3.412   9.103  0.2289 -0.1164  0.3015
  407MOL0     C54871   4.430   3.359   9.039 -0.1369  0.5059  0.4880
  407MOL0     C54872   4.521   3.467   8.989  0.2704 -0.1081  0.0162
  407MOL0     C54873   4.638   3.409   8.915  0.2426  0.5664 -0.5669
  407MOL0     C54874   4.704   3.529   8.852  0.1582  0.0787  0.3628
  407MOL0     C54875   4.734   3.636   8.804 -0.6572  0.5132  0.4499
  407MOL0     C54876   4.021   3.478   9.145  0.3225  0.0042  0.3273
  407MOL0     C54877   3.887   3.506   9.159  0.0561 -0.3637  0.9740
  407MOL0     H54878   3.384   3.667   9.037 -1.7277 -2.0032 -0.6452
  407MOL0     H54879   3.171   3.692   9.124 -1.5797 -0.3141  1.7946
  407MOL0     H54880   3.090   3.810   9.374 -0.6817  1.5398 -2.2416
  407MOL0     H54881   3.021   3.745   9.230  3.0468  0.1128  0.4801
  407MOL0     H54882   2.816   3.684   9.362  1.7128 -1.0869  0.2827
  407MOL0     H54883   2.896   3.752   9.511  0.3655  1.2717 -0.8002
  407MOL0     H54884   2.910   3.963   9.384  0.5175 -0.5846  1.7546
  407MOL0     H54885   2.808   3.917   9.252 -1.0374  1.4695  0.8263
  407MOL0     H54886   2.617   3.863   9.405 -1.7095  2.6163 -2.5593
  407MOL0     H54887   2.699   3.931   9.543  0.1315  1.5531 -0.6309
  407MOL0     H54888   2.625   4.046   9.274  3.0811 -3.3892 -0.2158
  407MOL0     H54889   2.556   4.086   9.441  0.9262 -1.1579  0.4734
  407MOL0     H54890   2.747   4.206   9.509  0.8817 -2.0592  0.7288
  407MOL0     H54891   2.839   4.173   9.359  0.3996 -3.6634  1.6997
  407MOL0     H54892   2.679   4.279   9.211  4.0146  1.0440 -0.6116
  407MOL0     H54893   2.567   4.306   9.350 -0.7204 -0.6628 -2.9954
  407MOL0     H54894   2.834   4.435   9.343 -0.4673 -2.6349 -0.3439
  407MOL0     H54895   2.697   4.467   9.450  1.7164  1.8783  0.2368
  407MOL0     H54896   2.545   4.649   9.372 -0.9589  0.8201 -0.5350
  407MOL0     H54897   2.481   4.892   9.232 -2.1147  1.1395 -1.4249
  407MOL0     H54898   2.513   4.882   9.053 -1.2820 -1.7402 -0.9407
  407MOL0     H54899   2.310   4.720   9.211 -1.0228 -0.8007 -1.3136
  407MOL0     H54900   2.334   4.718   9.038  1.3187 -1.8121 -0.1144
  407MOL0     H54901   2.268   4.961   9.032 -0.1431  0.1276 -0.4619
  407MOL0     H54902   2.287   4.970   9.209  0.6538 -1.1374  0.2593
  407MOL0     H54903   2.096   4.845   9.234  0.5023 -1.6865 -0.1180
  407MOL0     H54904   2.083   4.805   9.058 -1.5696 -1.2316  1.0594
  407MOL0     H54905   1.920   5.176   8.981  1.0238 -1.5716 -0.9610
  407MOL0     H54906   1.767   5.262   8.838  0.6891 -1.3508  1.3998
  407MOL0     H54907   1.657   5.157   8.765  1.6880  1.4348 -0.5230
  407MOL0     H54908   1.591   5.253   8.893 -1.9638 -2.4127 -0.5003
  407MOL0     H54909   1.319   4.658   9.087  0.2203 -0.1915  0.6928
  407MOL0     H54910   1.071   4.603   9.113  0.0916 -0.6878 -1.0585
  407MOL0     H54911   0.886   4.596   9.224  1.8026 -0.6499  3.1498
  407MOL0     H54912   0.916   4.725   9.331 -0.8835 -0.5959  0.3434
  407MOL0     H54913   0.646   4.697   9.198 -1.5142 -0.8992  1.1416
  407MOL0     H54914   0.687   4.626   9.360 -1.8543  2.4357  2.6766
  407MOL0     H54915   0.728   4.933   9.290  1.5014 -1.2441  0.7278
  407MOL0     H54916   0.732   4.860   9.446 -3.0609 -0.8115  1.5315
  407MOL0     H54917   0.462   4.860   9.284 -1.3452  2.5862 -0.0068
  407MOL0     H54918   0.500   4.823   9.453  1.1099 -2.9211 -0.9809
  407MOL0     H54919   0.528   5.089   9.314  3.3798  1.4484  1.6748
  407MOL0     H54920   0.562   5.064   9.488 -1.0648 -2.2349  1.2940
  407MOL0     H54921   0.284   5.030   9.350 -1.0232  1.6374 -0.0279
  407MOL0     H54922   0.319   5.002   9.526 -0.4057  0.6172 -0.0145
  407MOL0     H54923   0.348   5.279   9.396  1.8226  0.3983  0.6172
  407MOL0     H54924   0.389   5.233   9.560 -0.7884  2.4001 -0.9975
  407MOL0     H54925   0.206   5.344   9.598  1.4075 -0.0415 -1.4248
  407MOL0     H54926   0.138   5.174   9.592  0.2740 -0.5779 -0.8376
  407MOL0     H54927   0.990   5.025   9.137 -1.1583  0.1205  1.6723
  407MOL0     H54928   1.244   5.076   9.075  0.0021 -0.5199 -3.0887
  407MOL0     H54929   1.631   4.807   9.125  0.8644 -0.0037  1.5069
  407MOL0     H54930   1.873   4.807   9.180  1.7639  1.1313  2.0611
  407MOL0     H54931   3.289   3.494   9.487  0.8402  0.1643  0.6124
  407MOL0     H54932   3.514   3.458   9.389  0.3353  1.2453 -1.0670
  407MOL0     H54933   3.845   3.738   8.922  3.2113  3.8872  2.0835
  407MOL0     H54934   4.082   3.641   8.855  2.0572 -1.4459  0.0049
  407MOL0     H54935   4.328   3.482   9.184  1.1723  3.8392 -3.0532
  407MOL0     H54936   4.246   3.334   9.155 -0.0585  0.1834  0.4425
  407MOL0     H54937   4.404   3.298   8.951 -0.7404 -0.3517  1.2370
  407MOL0     H54938   4.481   3.288   9.105 -0.5859  0.7925  1.1455
  407MOL0     H54939   4.559   3.533   9.068 -3.8817  0.4107  1.8727
  407MOL0     H54940   4.469   3.539   8.925 -0.2022  1.1681  1.7464
  407MOL0     H54941   4.602   3.344   8.835  0.5855 -0.4523  0.0793
  407MOL0     H54942   4.711   3.359   8.979 -1.6292 -2.4315 -0.6006
  407MOL0     H54943   4.738   3.730   8.752 -5.5869  2.6025  3.0909
  407MOL0     H54944   4.065   3.413   9.220 -1.7495  0.4668  2.0463
  407MOL0     H54945   3.829   3.459   9.238 -2.2597  2.7778  1.3464
  408MOL0     O54946   8.812   8.288   6.778  0.4122 -0.0709  0.1579
  408MOL0     C54947   8.904   8.248   6.704  0.1974  0.1722 -0.2144
  408MOL0     O54948   8.891   8.216   6.570 -0.5249 -0.3613 -0.6897
  408MOL0     C54949   8.782   8.208   6.482 -0.1169  0.4953 -0.1053
  408MOL0     C54950   8.653   8.242   6.520 -0.2509 -0.6716  0.8192
  408MOL0     C54951   8.548   8.227   6.429 -0.5591 -0.9552  0.1022
  408MOL0     C54952   8.565   8.176   6.299 -0.5195 -0.3956  0.2424
  408MOL0     O54953   8.467   8.151   6.205  0.6516 -0.3534  0.0599
  408MOL0     C54954   8.346   8.235   6.221 -0.2707  0.4629  0.0284
  408MOL0     C54955   8.236   8.157   6.307  0.0052 -0.6228 -0.9622
  408MOL0     C54956   8.219   8.007   6.255 -0.1730 -0.1588  0.4199
  408MOL0     C54957   8.141   7.987   6.122 -0.6983 -0.2096  0.0578
  408MOL0     C54958   7.993   8.020   6.162  0.5901  0.1368 -0.4115
  408MOL0     C54959   7.895   7.959   6.058 -0.1124 -0.3396 -0.6341
  408MOL0     C54960   7.749   7.979   6.091 -0.5572  0.4640  0.1847
  408MOL0     C54961   7.653   7.905   5.996  0.0628  0.1658 -0.5425
  408MOL0     N54962   7.514   7.927   6.030 -0.8686 -0.3973 -0.3729
  408MOL0     C54963   7.431   8.002   5.955 -0.2755  0.0225  0.7872
  408MOL0     C54964   7.308   7.984   6.015  0.2816 -0.5719  0.7548
  408MOL0     C54965   7.181   8.047   5.963  0.0996 -0.2277 -0.2877
  408MOL0     C54966   7.174   8.039   5.807  0.0227 -0.3702 -0.5137
  408MOL0     C54967   7.163   7.895   5.755  0.8012 -0.3340  0.6786
  408MOL0     C54968   7.029   7.823   5.792  0.0704 -0.2590 -0.8739
  408MOL0     O54969   6.991   7.716   5.694 -0.5089 -0.6499  0.2839
  408MOL0     C54970   6.861   7.687   5.681 -0.7140 -0.4808 -0.1330
  408MOL0     C54971   6.818   7.637   5.561  0.6326  0.3222 -0.8190
  408MOL0     C54972   6.685   7.587   5.540  0.0063  0.5430 -0.5255
  408MOL0     C54973   6.652   7.518   5.409 -0.2493 -0.0354  0.0265
  408MOL0     C54974   6.583   7.613   5.636 -0.5962 -0.6418 -0.3317
  408MOL0     C54975   6.429   7.592   5.619 -0.5734  0.7836  0.1116
  408MOL0     O54976   6.346   7.638   5.723  0.2384  0.2930 -0.4557
  408MOL0     C54977   6.209   7.645   5.707  0.4013 -0.1443  0.4818
  408MOL0     C54978   6.140   7.767   5.675  0.1313 -0.1344  0.2795
  408MOL0     C54979   5.998   7.768   5.670  0.0489 -0.6875  0.1381
  408MOL0     C54980   5.925   7.644   5.701  0.0488 -0.4984 -0.5834
  408MOL0     O54981   5.783   7.655   5.677  0.1491  0.3146  0.1285
  408MOL0     C54982   5.718   7.718   5.788 -0.0815  0.8024 -1.1666
  408MOL0     C54983   5.567   7.709   5.772  0.0794 -0.4000  0.0922
  408MOL0     C54984   5.494   7.800   5.871 -0.5045 -0.4780 -0.4072
  408MOL0     C54985   5.352   7.825   5.827  0.0061  0.2507  0.4679
  408MOL0     C54986   5.280   7.889   5.948  0.8232 -0.2444 -0.1953
  408MOL0     C54987   5.132   7.896   5.917  0.0874  0.4936  0.2497
  408MOL0     C54988   5.056   7.952   6.037  0.1639 -0.5231  1.2788
  408MOL0     C54989   4.901   7.978   6.011 -0.7187 -0.5071  0.6019
  408MOL0    Cl54990   4.813   7.970   6.163  0.3007 -0.1010  0.3891
  408MOL0     C54991   5.995   7.527   5.713  0.7137 -0.1320 -0.3616
  408MOL0     C54992   6.137   7.526   5.717 -0.2971  0.4871  0.7870
  408MOL0     O54993   6.391   7.536   5.520  0.4111 -0.4330  0.1120
  408MOL0     C54994   6.629   7.675   5.757  0.7646 -0.0373 -0.9220
  408MOL0     C54995   6.764   7.706   5.780  0.4914 -0.0905 -0.1070
  408MOL0     N54996   7.325   7.904   6.120  0.2819 -0.4048  0.2066
  408MOL0     N54997   7.445   7.866   6.128 -0.2700  0.6632  0.0472
  408MOL0     C54998   8.698   8.135   6.264  0.3030 -0.7966 -0.7529
  408MOL0     C54999   8.807   8.169   6.348 -0.2662  0.1713  0.1862
  408MOL0     C55000   9.036   8.239   6.770  0.2354  0.3223 -0.1551
  408MOL0     C55001   9.071   8.294   6.897 -0.8497 -0.6108  0.5183
  408MOL0     C55002   9.199   8.280   6.947 -0.0762  0.7220  0.2032
  408MOL0     C55003   9.301   8.215   6.879 -0.8440  0.0825 -0.7944
  408MOL0     O55004   9.435   8.204   6.906  0.0367  0.9156 -0.8227
  408MOL0     C55005   9.474   8.251   7.032  0.2612  0.2036 -0.2060
  408MOL0     C55006   9.620   8.210   7.069  0.0157  0.2250  0.2113
  408MOL0     C55007   9.668   8.315   7.178  0.3478  0.7147  0.5182
  408MOL0     C55008   9.814   8.285   7.223  1.4102 -0.1106  1.1740
  408MOL0     C55009   9.863   8.382   7.310 -0.0014  0.3339  0.1759
  408MOL0     C55010   9.905   8.464   7.387  0.0331 -0.6326  0.4961
  408MOL0     C55011   9.270   8.171   6.756  1.2393 -0.3145 -0.5472
  408MOL0     C55012   9.143   8.179   6.704  0.0416  0.4624  0.1114
  408MOL0     H55013   8.629   8.274   6.621 -1.8805  0.3398  0.1425
  408MOL0     H55014   8.452   8.258   6.467 -0.8791 -1.4768 -0.2568
  408MOL0     H55015   8.370   8.334   6.261  2.6555 -0.5403  1.0376
  408MOL0     H55016   8.304   8.245   6.121 -0.6659 -2.0557 -0.1304
  408MOL0     H55017   8.248   8.163   6.415 -0.5433  1.5441 -0.9820
  408MOL0     H55018   8.146   8.215   6.283  1.9090  2.0450 -2.1847
  408MOL0     H55019   8.319   7.968   6.237  0.1436 -0.3334  2.3134
  408MOL0     H55020   8.176   7.936   6.326 -1.1302 -2.3595 -2.1827
  408MOL0     H55021   8.177   8.059   6.047 -0.0524  0.6817  1.1982
  408MOL0     H55022   8.148   7.882   6.092 -0.7461 -0.5173  1.0887
  408MOL0     H55023   7.971   7.975   6.259  1.1031  5.0503  2.3009
  408MOL0     H55024   7.975   8.128   6.171  0.5703  0.1292 -0.3584
  408MOL0     H55025   7.907   8.002   5.959  0.8377  0.4983 -0.1784
  408MOL0     H55026   7.919   7.852   6.052 -2.5535 -1.0091  0.4212
  408MOL0     H55027   7.728   7.948   6.194  1.0774 -0.8179  0.1885
  408MOL0     H55028   7.734   8.086   6.075  0.7617  1.0143  2.2254
  408MOL0     H55029   7.667   7.797   6.008 -1.1248  0.1373  0.7771
  408MOL0     H55030   7.676   7.943   5.896  2.4388  0.2799 -0.0351
  408MOL0     H55031   7.464   8.053   5.865 -0.2693  1.3810  1.5290
  408MOL0     H55032   7.092   8.000   6.005 -0.5172  0.7850 -0.4085
  408MOL0     H55033   7.186   8.155   5.983  0.8768 -0.1424 -0.8694
  408MOL0     H55034   7.262   8.088   5.766 -0.5040  0.4492 -0.6846
  408MOL0     H55035   7.086   8.091   5.768  0.3322  0.3662 -0.2535
  408MOL0     H55036   7.253   7.839   5.781  1.5534 -0.8883 -2.6649
  408MOL0     H55037   7.165   7.894   5.646 -4.6339 -1.0755  0.3197
  408MOL0     H55038   6.947   7.895   5.798 -0.3270 -0.5799 -2.1879
  408MOL0     H55039   7.027   7.788   5.895  0.2264 -0.1630 -0.8372
  408MOL0     H55040   6.887   7.645   5.478  2.1030  3.0531  0.5145
  408MOL0     H55041   6.595   7.594   5.354  3.4911  2.4305 -0.8236
  408MOL0     H55042   6.744   7.497   5.353  0.7738  1.4741  1.0501
  408MOL0     H55043   6.601   7.426   5.437  2.3400 -1.0234  1.9155
  408MOL0     H55044   6.191   7.862   5.658  0.5395  0.2473  3.0892
  408MOL0     H55045   5.935   7.854   5.655  3.2830  1.8531 -0.0874
  408MOL0     H55046   5.736   7.653   5.875  3.0118  2.8040 -0.1458
  408MOL0     H55047   5.749   7.821   5.809 -1.2046  0.9515 -0.0931
  408MOL0     H55048   5.543   7.756   5.676  2.8867  2.0671  0.4620
  408MOL0     H55049   5.514   7.613   5.771  1.3100 -1.1936 -3.0645
  408MOL0     H55050   5.549   7.895   5.878 -3.6874  1.4929 -0.1818
  408MOL0     H55051   5.490   7.751   5.969  0.6751  2.1060  1.0555
  408MOL0     H55052   5.344   7.867   5.726 -1.2883  0.4793  0.6474
  408MOL0     H55053   5.303   7.728   5.810 -0.0119  0.2758  0.3776
  408MOL0     H55054   5.332   7.985   5.956 -1.2364  0.9244  0.0691
  408MOL0     H55055   5.300   7.826   6.035 -0.8984 -0.8997 -0.2185
  408MOL0     H55056   5.125   7.949   5.821  3.1082 -2.7288 -2.0227
  408MOL0     H55057   5.112   7.789   5.900  2.2988 -0.0648  0.8910
  408MOL0     H55058   5.099   8.050   6.062 -0.1208 -0.0035 -0.1705
  408MOL0     H55059   5.081   7.885   6.120  0.5102 -0.6645  1.0649
  408MOL0     H55060   4.860   7.902   5.944 -1.3690 -0.4149  0.8846
  408MOL0     H55061   4.885   8.074   5.962  2.2590 -0.3116 -0.1876
  408MOL0     H55062   5.940   7.434   5.718  2.4562 -1.1934 -0.3158
  408MOL0     H55063   6.195   7.436   5.736  1.2382  1.3308  0.2413
  408MOL0     H55064   6.548   7.690   5.828 -2.1785 -3.0820 -3.3127
  408MOL0     H55065   6.807   7.726   5.878  0.2371 -1.0852  0.2207
  408MOL0     H55066   8.719   8.095   6.165 -3.2506  0.5317 -2.1948
  408MOL0     H55067   8.906   8.138   6.314 -0.4022  0.2576 -0.3011
  408MOL0     H55068   8.993   8.329   6.963 -0.8925  0.2444  0.0301
  408MOL0     H55069   9.213   8.328   7.043  1.0470  2.7534 -0.8811
  408MOL0     H55070   9.483   8.357   7.007  0.8379 -0.4000 -2.8648
  408MOL0     H55071   9.407   8.236   7.117 -1.5009  1.5006 -1.3202
  408MOL0     H55072   9.684   8.221   6.981 -1.4360  3.5229 -0.5735
  408MOL0     H55073   9.611   8.112   7.118 -1.8707  0.0449 -0.4033
  408MOL0     H55074   9.597   8.293   7.259 -1.3328  1.0877 -0.8063
  408MOL0     H55075   9.646   8.418   7.146  0.8171  0.8775  0.7089
  408MOL0     H55076   9.871   8.289   7.130  0.6882 -1.6257  0.6290
  408MOL0     H55077   9.819   8.185   7.267  3.5758 -0.9365 -0.7299
  408MOL0     H55078   9.943   8.535   7.457  1.0707  0.9474 -1.5472
  408MOL0     H55079   9.351   8.122   6.702  2.6139 -0.1284  1.2551
  408MOL0     H55080   9.118   8.124   6.614  0.6069 -2.5388  1.6426
  409MOL0     O55081   7.985   7.050   1.413 -0.9274 -0.0694 -0.8338
  409MOL0     C55082   7.953   6.993   1.311  0.9500 -0.8613  0.5849
  409MOL0     O55083   8.036   6.923   1.231 -0.6878  0.3980 -0.6491
  409MOL0     C55084   8.170   6.907   1.259  0.3230 -0.2566  0.7919
  409MOL0     C55085   8.206   6.811   1.354  1.6214  0.3606 -0.1921
  409MOL0     C55086   8.337   6.787   1.400 -0.9602  0.5018  0.5335
  409MOL0     C55087   8.438   6.858   1.333  0.0420  0.1564  0.7733
  409MOL0     O55088   8.574   6.832   1.358  0.2287 -0.7932  0.2259
  409MOL0     C55089   8.675   6.917   1.303  0.4119  0.2534 -0.5142
  409MOL0     C55090   8.814   6.893   1.365  0.8818  0.1386  0.3861
  409MOL0     C55091   8.810   6.870   1.525 -0.6051 -0.1296  0.7911
  409MOL0     C55092   8.922   6.766   1.552 -0.1604  0.0240 -0.0389
  409MOL0     C55093   8.889   6.702   1.681  0.4646  1.3739  0.7640
  409MOL0     C55094   9.001   6.609   1.723  0.0827 -0.4653  0.0379
  409MOL0     C55095   8.955   6.531   1.839  0.3175 -0.3047 -0.2852
  409MOL0     C55096   9.060   6.428   1.873 -0.1477  0.0695  0.2536
  409MOL0     N55097   9.089   6.409   2.014  0.1560 -0.5374 -0.6318
  409MOL0     C55098   9.033   6.321   2.099  0.0554 -0.5387 -0.0692
  409MOL0     C55099   9.100   6.330   2.216 -0.2679  0.1673  0.1698
  409MOL0     C55100   9.067   6.251   2.332  0.1943 -0.1733 -0.7523
  409MOL0     C55101   8.938   6.309   2.394  0.1024  0.6388  0.4610
  409MOL0     C55102   8.871   6.215   2.493 -0.2510 -0.6804 -0.2045
  409MOL0     C55103   8.755   6.286   2.560  0.1973  0.1146 -0.5686
  409MOL0     O55104   8.693   6.191   2.638  0.1752 -0.0266 -0.3834
  409MOL0     C55105   8.567   6.216   2.677 -1.1234 -0.0453  0.2144
  409MOL0     C55106   8.504   6.098   2.727  0.1878 -0.3557 -0.0663
  409MOL0     C55107   8.371   6.098   2.764 -0.3751 -0.8845 -0.4812
  409MOL0     C55108   8.321   5.961   2.808 -0.3028 -0.4748  0.8003
  409MOL0     C55109   8.295   6.218   2.749 -0.2341  0.4023 -0.2799
  409MOL0     C55110   8.152   6.228   2.793  1.3447 -0.6672 -0.4733
  409MOL0     O55111   8.095   6.355   2.797  0.3555  0.5548  0.2705
  409MOL0     C55112   7.960   6.364   2.823  0.3515  0.0600  0.2480
  409MOL0     C55113   7.875   6.408   2.727 -1.1071 -0.0532  0.8824
  409MOL0     C55114   7.730   6.422   2.743  0.4270 -0.1343  0.2720
  409MOL0     C55115   7.679   6.390   2.868 -0.3163  0.0151  0.3056
  409MOL0     O55116   7.548   6.390   2.897 -0.0956  0.4085 -0.3503
  409MOL0     C55117   7.455   6.381   2.786  0.9000 -1.0097 -0.2281
  409MOL0     C55118   7.320   6.331   2.832 -0.3981  0.4562  1.1947
  409MOL0     C55119   7.226   6.364   2.706  0.2522  0.4144 -0.0538
  409MOL0     C55120   7.083   6.326   2.734  0.7515 -0.9335  0.0209
  409MOL0     C55121   6.991   6.381   2.618 -0.2479 -0.3467 -0.4397
  409MOL0     C55122   6.849   6.360   2.655  0.3622  0.0907 -0.4258
  409MOL0     C55123   6.773   6.425   2.543  0.9825  0.0222 -0.7714
  409MOL0     C55124   6.635   6.371   2.533  0.6548  0.2995 -0.0846
  409MOL0    Cl55125   6.544   6.444   2.403 -0.0186 -0.1775 -0.0096
  409MOL0     C55126   7.763   6.363   2.973  0.7785 -0.3505  0.1005
  409MOL0     C55127   7.903   6.359   2.952  0.0778  0.0429 -0.2309
  409MOL0     O55128   8.088   6.124   2.827 -0.2872 -0.3874  0.2172
  409MOL0     C55129   8.361   6.337   2.699  0.3259  0.1497 -0.3685
  409MOL0     C55130   8.499   6.333   2.669 -0.3147 -0.9432  0.3414
  409MOL0     N55131   9.207   6.416   2.204  0.0896 -0.1551  0.5190
  409MOL0     N55132   9.193   6.468   2.086 -0.5702  0.1421  0.6365
  409MOL0     C55133   8.404   6.941   1.227 -0.1562  0.1405  0.3440
  409MOL0     C55134   8.276   6.971   1.192 -0.3508  0.3006 -0.2809
  409MOL0     C55135   7.814   6.983   1.287 -0.6843 -0.0950 -0.0170
  409MOL0     C55136   7.728   7.085   1.334  0.3984 -0.1529  0.2213
  409MOL0     C55137   7.593   7.091   1.288 -0.6797  0.1606 -0.0031
  409MOL0     C55138   7.528   6.989   1.220 -0.1988 -0.0970  0.4902
  409MOL0     O55139   7.389   7.005   1.196 -0.1579  0.0427 -0.1039
  409MOL0     C55140   7.325   6.908   1.107 -0.0983 -0.4760 -0.4375
  409MOL0     C55141   7.175   6.940   1.083 -0.5213 -0.0809 -0.0948
  409MOL0     C55142   7.178   7.076   0.996  0.4623  0.3557 -0.1590
  409MOL0     C55143   7.043   7.129   0.943  0.1657  0.1921  0.0697
  409MOL0     C55144   6.973   7.189   1.053  0.0589 -0.2713  0.0496
  409MOL0     C55145   6.919   7.254   1.143  0.5219  0.9512 -0.7135
  409MOL0     C55146   7.611   6.884   1.182 -0.0140  0.3402 -0.0738
  409MOL0     C55147   7.749   6.879   1.215 -0.8856 -0.8139 -1.2114
  409MOL0     H55148   8.128   6.764   1.414  2.5662 -2.6624 -1.1524
  409MOL0     H55149   8.369   6.719   1.478 -0.5562  0.8853  0.7043
  409MOL0     H55150   8.670   6.924   1.194  1.7023  0.1647 -0.5962
  409MOL0     H55151   8.635   7.011   1.344 -1.1059 -1.4737  2.2548
  409MOL0     H55152   8.858   6.809   1.309  0.2918 -1.0152  1.5967
  409MOL0     H55153   8.872   6.985   1.355 -0.0652  0.8149  0.9777
  409MOL0     H55154   8.817   6.966   1.578  0.9340  0.0220  0.3640
  409MOL0     H55155   8.710   6.832   1.550 -1.2785 -0.2146 -1.8041
  409MOL0     H55156   8.929   6.700   1.465  0.3043  2.1929 -1.7542
  409MOL0     H55157   9.017   6.817   1.566 -0.4925  1.1356 -1.4428
  409MOL0     H55158   8.875   6.769   1.766 -1.1847  0.9411  0.8524
  409MOL0     H55159   8.802   6.638   1.670 -0.6334  2.3878  2.9412
  409MOL0     H55160   9.024   6.535   1.646 -0.3725  0.1157 -0.6662
  409MOL0     H55161   9.086   6.675   1.743  1.0131 -1.1133 -1.5596
  409MOL0     H55162   8.934   6.594   1.926 -1.4754 -1.3806  0.1139
  409MOL0     H55163   8.863   6.474   1.822  1.2900 -2.2156  0.5662
  409MOL0     H55164   9.157   6.469   1.844 -0.4584  0.2568 -0.5372
  409MOL0     H55165   9.042   6.334   1.822 -3.0968 -0.6280  2.2907
  409MOL0     H55166   8.940   6.267   2.090  0.0246 -0.7871  1.5013
  409MOL0     H55167   9.053   6.146   2.302  0.2375 -1.1491  2.3145
  409MOL0     H55168   9.151   6.259   2.401 -0.1696  0.5116 -0.3799
  409MOL0     H55169   8.872   6.327   2.309 -0.9869 -0.5166  1.0407
  409MOL0     H55170   8.957   6.406   2.441  2.3379 -0.0548  1.1131
  409MOL0     H55171   8.947   6.178   2.563  2.5549  3.5098 -0.7015
  409MOL0     H55172   8.823   6.127   2.448 -0.3320 -0.8608  0.2235
  409MOL0     H55173   8.701   6.338   2.480  0.7670  0.8157 -0.5124
  409MOL0     H55174   8.784   6.368   2.626 -4.2463  1.6630 -0.1927
  409MOL0     H55175   8.559   6.006   2.739 -0.1994 -0.6213 -0.2937
  409MOL0     H55176   8.391   5.876   2.802  3.5671  2.3777  1.5739
  409MOL0     H55177   8.309   5.971   2.916  1.0569 -1.3604  1.0643
  409MOL0     H55178   8.229   5.932   2.757 -0.4657  0.4963  0.5264
  409MOL0     H55179   7.934   6.436   2.640  0.0580  0.2975  1.7685
  409MOL0     H55180   7.665   6.461   2.665 -2.3728 -0.6314  2.2102
  409MOL0     H55181   7.443   6.484   2.750  2.7708 -0.2964  1.0003
  409MOL0     H55182   7.498   6.321   2.705 -0.4191  2.3808 -3.7459
  409MOL0     H55183   7.318   6.224   2.853  1.9718  0.2326  0.5147
  409MOL0     H55184   7.291   6.403   2.910 -0.7096  3.3404 -1.3796
  409MOL0     H55185   7.259   6.313   2.615 -1.6109  3.4695 -2.6577
  409MOL0     H55186   7.227   6.470   2.680 -0.3357  0.3659 -0.2680
  409MOL0     H55187   7.073   6.217   2.738 -2.1868 -0.7179  0.7666
  409MOL0     H55188   7.047   6.362   2.830 -0.9169  0.2647 -1.0037
  409MOL0     H55189   7.034   6.324   2.535  0.2729  1.0339 -1.1571
  409MOL0     H55190   7.006   6.488   2.599 -0.3066 -0.2605  0.0071
  409MOL0     H55191   6.837   6.251   2.653 -3.1240  0.3527 -3.5918
  409MOL0     H55192   6.831   6.406   2.752  4.2709  0.2925  0.3628
  409MOL0     H55193   6.823   6.408   2.447  0.3377  0.0832 -1.1209
  409MOL0     H55194   6.769   6.532   2.562 -0.5321  0.2582 -2.1880
  409MOL0     H55195   6.577   6.392   2.623 -1.6880  2.6896 -1.9806
  409MOL0     H55196   6.635   6.263   2.522  0.0283 -0.1007  3.0584
  409MOL0     H55197   7.723   6.336   3.070  0.0501 -0.3427 -0.1966
  409MOL0     H55198   7.948   6.326   3.045  0.1034 -0.2035 -0.3307
  409MOL0     H55199   8.301   6.427   2.693  1.1701  0.9958  2.2504
  409MOL0     H55200   8.535   6.424   2.623  0.7317 -1.2370  0.5412
  409MOL0     H55201   8.475   6.993   1.164  0.5833 -1.6453 -0.3790
  409MOL0     H55202   8.255   7.042   1.112  0.8342  1.8669  0.7324
  409MOL0     H55203   7.762   7.168   1.395 -0.4633  0.4288 -0.0760
  409MOL0     H55204   7.528   7.176   1.308  0.9028  1.1473  1.2211
  409MOL0     H55205   7.378   6.894   1.013  0.4117  0.8291 -0.3695
  409MOL0     H55206   7.332   6.807   1.148  2.4574 -0.7562 -1.3903
  409MOL0     H55207   7.123   6.958   1.177 -0.3546  1.7220 -0.3053
  409MOL0     H55208   7.131   6.860   1.022  1.9923  0.2408 -2.5587
  409MOL0     H55209   7.249   7.060   0.914 -0.5226  1.7856 -1.3466
  409MOL0     H55210   7.226   7.161   1.045 -2.1527  1.6285  0.3715
  409MOL0     H55211   6.990   7.046   0.895 -1.2885  1.5638 -0.7567
  409MOL0     H55212   7.065   7.208   0.870  0.7667  0.1612  0.2088
  409MOL0     H55213   6.896   7.321   1.222 -0.8283  0.1981 -0.4295
  409MOL0     H55214   7.564   6.802   1.130  0.8629 -0.7178  0.7639
  409MOL0     H55215   7.802   6.792   1.178 -0.1316 -1.3686  1.0052
  410MOL0     O55216   7.801   8.619   5.556 -0.0413  0.8405 -0.2803
  410MOL0     C55217   7.849   8.713   5.491 -0.7580  0.5683 -0.8269
  410MOL0     O55218   7.779   8.790   5.407  0.4856  0.3352  0.2212
  410MOL0     C55219   7.646   8.753   5.373 -0.5550  0.3518  0.5070
  410MOL0     C55220   7.629   8.701   5.247  0.6780  0.3482  0.2012
  410MOL0     C55221   7.499   8.649   5.216  0.0698 -0.1022 -0.3872
  410MOL0     C55222   7.398   8.638   5.316 -0.4829  1.1239  1.2033
  410MOL0     O55223   7.281   8.586   5.273 -0.0780  0.2337  0.3662
  410MOL0     C55224   7.163   8.583   5.358 -0.0315 -0.0632 -0.6940
  410MOL0     C55225   7.160   8.464   5.452 -0.1246 -0.0293  0.2086
  410MOL0     C55226   7.094   8.340   5.377 -0.3134  0.5661  0.0271
  410MOL0     C55227   7.136   8.209   5.442  0.8379  0.1122 -0.0745
  410MOL0     C55228   7.046   8.091   5.389 -0.0995  1.1210 -0.9601
  410MOL0     C55229   6.894   8.115   5.425 -0.2190  0.1424 -0.8640
  410MOL0     C55230   6.812   7.981   5.418  0.0374 -0.0513  0.2644
  410MOL0     C55231   6.663   8.001   5.405 -0.6785  0.4418 -0.3416
  410MOL0     N55232   6.592   8.095   5.505 -0.2256  0.2068  0.1836
  410MOL0     C55233   6.509   8.053   5.611 -0.1204  0.8842 -0.3451
  410MOL0     C55234   6.479   8.160   5.680  0.3049 -0.4939 -0.7988
  410MOL0     C55235   6.381   8.172   5.794 -0.2026  0.0348 -0.6686
  410MOL0     C55236   6.366   8.036   5.869  0.5320  0.3353  0.3033
  410MOL0     C55237   6.323   8.060   6.010  1.1890 -0.1041 -0.4010
  410MOL0     C55238   6.346   7.940   6.097  0.2594 -0.1439  0.7841
  410MOL0     O55239   6.250   7.831   6.066 -0.6111  0.0220 -0.3585
  410MOL0     C55240   6.121   7.840   6.117  1.0375 -0.6867 -0.8308
  410MOL0     C55241   6.103   7.845   6.255 -0.4100 -0.1053  0.1189
  410MOL0     C55242   5.982   7.879   6.314  1.1321  0.9468  0.0780
  410MOL0     C55243   5.969   7.892   6.459  0.5096  0.2555  0.8456
  410MOL0     C55244   5.863   7.893   6.231 -0.2909  0.1830 -0.6653
  410MOL0     C55245   5.718   7.915   6.275 -0.5489  0.1374  0.3336
  410MOL0     O55246   5.629   7.971   6.196  0.3674  0.0045 -0.2603
  410MOL0     C55247   5.512   8.016   6.251 -0.1820  0.4855  0.6319
  410MOL0     C55248   5.485   8.151   6.279  0.7257 -0.0284 -0.1502
  410MOL0     C55249   5.358   8.186   6.331  0.1262 -0.2076  0.1031
  410MOL0     C55250   5.254   8.105   6.352  1.0382  0.8683  0.3870
  410MOL0     O55251   5.148   8.162   6.419  0.3690 -0.2889  0.3800
  410MOL0     C55252   5.022   8.117   6.376  1.0281 -0.6089 -0.0530
  410MOL0     C55253   4.912   8.201   6.440  0.6236  0.4676  0.3564
  410MOL0     C55254   4.863   8.150   6.577 -0.5251 -0.0407  0.3534
  410MOL0     C55255   4.706   8.120   6.595  0.0442  0.2685 -0.6319
  410MOL0     C55256   4.666   8.069   6.734  0.1695  0.2170  1.0163
  410MOL0     C55257   4.511   8.054   6.727 -0.3650 -0.3977  0.3663
  410MOL0     C55258   4.455   8.038   6.869  1.0164 -0.1302 -0.5249
  410MOL0     C55259   4.314   7.969   6.877 -0.9317 -0.3724 -0.2781
  410MOL0    Cl55260   4.338   7.821   6.781  0.1751 -0.2657  0.1720
  410MOL0     C55261   5.284   7.965   6.320 -0.4798 -0.0183  0.2736
  410MOL0     C55262   5.408   7.926   6.267  0.0701  0.4040  0.0549
  410MOL0     O55263   5.687   7.869   6.381 -0.6259 -1.2047 -0.1790
  410MOL0     C55264   5.883   7.887   6.090 -0.5984 -0.1746 -0.0195
  410MOL0     C55265   6.011   7.858   6.039  0.2907 -0.2357 -0.3718
  410MOL0     N55266   6.523   8.268   5.609 -0.6512  1.1498 -0.6409
  410MOL0     N55267   6.600   8.229   5.513 -0.5003 -0.3607  0.6232
  410MOL0     C55268   7.428   8.690   5.441 -0.1861 -0.0726 -1.1809
  410MOL0     C55269   7.544   8.753   5.468  0.2284 -0.5338 -0.0666
  410MOL0     C55270   7.991   8.746   5.513  0.8542 -0.1988  0.1178
  410MOL0     C55271   8.074   8.685   5.614 -0.1093  0.1205  0.0795
  410MOL0     C55272   8.212   8.700   5.618 -0.0472 -0.0322 -0.2932
  410MOL0     C55273   8.279   8.776   5.528  0.0867  0.3367  0.3401
  410MOL0     O55274   8.416   8.777   5.542 -0.5293  0.3891  0.0783
  410MOL0     C55275   8.481   8.861   5.453 -0.1952 -0.9424 -0.0494
  410MOL0     C55276   8.629   8.824   5.462  0.4309 -1.3899 -0.1964
  410MOL0     C55277   8.706   8.925   5.378 -0.1417 -0.2920 -0.1273
  410MOL0     C55278   8.720   9.058   5.450 -0.6523  0.1096 -0.4072
  410MOL0     C55279   8.822   9.048   5.552  0.8894 -0.3216  0.3157
  410MOL0     C55280   8.910   9.038   5.638  0.0333  0.1913  0.1630
  410MOL0     C55281   8.201   8.842   5.429  0.2676  0.5256  1.1534
  410MOL0     C55282   8.057   8.828   5.425  0.1894  0.0842  0.1461
  410MOL0     H55283   7.690   8.701   5.157 -0.5673 -1.8006 -0.7393
  410MOL0     H55284   7.475   8.615   5.116 -2.9651 -2.1927  0.9171
  410MOL0     H55285   7.156   8.683   5.401  2.9873  0.9959 -2.3640
  410MOL0     H55286   7.073   8.566   5.298 -2.0104  0.3702  1.9419
  410MOL0     H55287   7.261   8.446   5.489 -1.2260  0.6669  3.9769
  410MOL0     H55288   7.099   8.490   5.539  1.6823  1.1209  1.1942
  410MOL0     H55289   6.986   8.357   5.374 -0.4492 -0.3707 -0.9925
  410MOL0     H55290   7.128   8.335   5.273  0.9243  0.0302  0.4432
  410MOL0     H55291   7.239   8.173   5.431  1.2357  0.3758  2.2715
  410MOL0     H55292   7.114   8.225   5.548 -0.5693  1.4614 -0.5382
  410MOL0     H55293   7.054   8.076   5.281  3.4342 -3.2390 -0.3616
  410MOL0     H55294   7.075   7.996   5.435  0.0270  1.4301 -0.3795
  410MOL0     H55295   6.891   8.156   5.527  1.1268  0.3876 -0.8973
  410MOL0     H55296   6.851   8.194   5.363  0.0255  2.4362  1.6712
  410MOL0     H55297   6.848   7.929   5.329 -0.7947 -1.2013  0.5866
  410MOL0     H55298   6.844   7.924   5.506 -2.2143  0.3262  1.3912
  410MOL0     H55299   6.610   7.906   5.417 -0.0097  0.0360 -0.5626
  410MOL0     H55300   6.642   8.024   5.300 -0.0573 -0.5270 -0.6900
  410MOL0     H55301   6.475   7.951   5.631 -1.8152  1.6006  0.6244
  410MOL0     H55302   6.410   8.259   5.854 -0.9857  0.7828 -1.3601
  410MOL0     H55303   6.286   8.196   5.746 -0.9375  1.8530  1.4978
  410MOL0     H55304   6.460   7.982   5.856  1.0993  2.0085 -4.4116
  410MOL0     H55305   6.295   7.977   5.811 -0.2557  0.7341  0.8331
  410MOL0     H55306   6.220   8.098   6.010  0.9903 -0.6175  0.5574
  410MOL0     H55307   6.377   8.143   6.057  0.6048  0.0505  0.0156
  410MOL0     H55308   6.324   7.968   6.200 -0.1212  1.3657  0.3146
  410MOL0     H55309   6.450   7.906   6.098  1.3064  2.0083 -4.1332
  410MOL0     H55310   6.192   7.818   6.311 -0.4443  0.1347  0.2915
  410MOL0     H55311   5.905   7.813   6.499 -0.8590  1.1633  0.5093
  410MOL0     H55312   6.069   7.880   6.501  1.1072 -4.1838 -1.3280
  410MOL0     H55313   5.919   7.982   6.497 -1.6266 -1.3428  2.0562
  410MOL0     H55314   5.558   8.228   6.256 -0.2200  1.0678  0.3656
  410MOL0     H55315   5.333   8.285   6.366 -0.4940 -1.2334  2.8409
  410MOL0     H55316   5.014   8.115   6.266  0.5654 -1.2238 -0.0152
  410MOL0     H55317   5.013   8.017   6.420  1.6416  0.1042  1.7888
  410MOL0     H55318   4.959   8.300   6.443 -0.7358  1.1109  2.3484
  410MOL0     H55319   4.826   8.210   6.373  0.1354  1.0027  1.0505
  410MOL0     H55320   4.896   8.222   6.653  2.4668  0.2312 -1.0314
  410MOL0     H55321   4.911   8.058   6.611 -0.3547  0.7094  2.2650
  410MOL0     H55322   4.650   8.211   6.570  0.5864  0.9432  0.5623
  410MOL0     H55323   4.668   8.047   6.522 -3.6752  1.9361 -0.6304
  410MOL0     H55324   4.692   8.141   6.812 -0.1753  3.0041 -1.2661
  410MOL0     H55325   4.724   7.980   6.760  1.6921  0.6986 -0.5237
  410MOL0     H55326   4.464   8.142   6.683 -1.2035 -0.1384  1.7106
  410MOL0     H55327   4.491   7.970   6.660  0.1541 -0.8809  0.7996
  410MOL0     H55328   4.449   8.133   6.923 -0.9691 -0.4072 -0.1537
  410MOL0     H55329   4.520   7.970   6.924  0.7370 -1.5735 -1.9094
  410MOL0     H55330   4.245   8.042   6.833  1.9057  1.3958 -2.1229
  410MOL0     H55331   4.282   7.939   6.977  1.0111  0.2343  0.5600
  410MOL0     H55332   5.199   7.901   6.343 -0.7372  0.5497  0.9675
  410MOL0     H55333   5.422   7.823   6.238 -1.2500  0.7175 -1.9026
  410MOL0     H55334   5.792   7.900   6.032 -3.6828 -2.6520  3.7051
  410MOL0     H55335   6.027   7.840   5.933  1.7150 -1.5954  0.0408
  410MOL0     H55336   7.361   8.683   5.526  2.1410  0.0806  0.7932
  410MOL0     H55337   7.570   8.804   5.560 -0.2679 -0.3368 -0.0372
  410MOL0     H55338   8.033   8.622   5.692  2.6058 -0.3845  1.2408
  410MOL0     H55339   8.266   8.674   5.708 -1.7281  0.6535  0.9672
  410MOL0     H55340   8.438   8.859   5.352  0.7721  1.1181 -0.5567
  410MOL0     H55341   8.460   8.965   5.480 -1.5989 -1.8076  2.5555
  410MOL0     H55342   8.639   8.720   5.430  1.3587 -1.6348  0.8504
  410MOL0     H55343   8.665   8.832   5.565 -2.1163 -1.9981  0.8035
  410MOL0     H55344   8.655   8.941   5.283  2.1974  2.5000 -1.0702
  410MOL0     H55345   8.804   8.879   5.360  0.0025 -0.6894  1.5130
  410MOL0     H55346   8.628   9.085   5.503 -0.8108  1.3243 -1.2340
  410MOL0     H55347   8.739   9.121   5.362 -0.5662 -1.2791 -1.4060
  410MOL0     H55348   8.989   9.055   5.708  0.6756  2.4556 -1.0080
  410MOL0     H55349   8.237   8.902   5.346 -2.7532  0.9530  0.0233
  410MOL0     H55350   8.013   8.884   5.343  1.4712  2.1423  0.7618
  411MOL0     O55351   9.826   2.048   6.373 -0.1297  0.6235 -0.2850
  411MOL0     C55352   9.901   2.149   6.367  0.1156 -0.3815  0.9784
  411MOL0     O55353   9.881   2.264   6.437 -0.2157  0.4723 -0.1626
  411MOL0     C55354   9.756   2.296   6.491  0.1827 -0.5639 -0.1442
  411MOL0     C55355   9.632   2.235   6.484  0.2379 -0.2781  0.7139
  411MOL0     C55356   9.509   2.279   6.544  0.6657 -0.1669 -0.0341
  411MOL0     C55357   9.514   2.395   6.624  0.3766 -0.8928  0.2431
  411MOL0     O55358   9.410   2.440   6.707 -0.4794 -0.6331 -0.4191
  411MOL0     C55359   9.312   2.353   6.765  0.1762  0.2141  0.7157
  411MOL0     C55360   9.222   2.426   6.867 -0.3993  0.1727 -0.4140
  411MOL0     C55361   9.095   2.493   6.807  0.3265 -0.3316  0.0608
  411MOL0     C55362   9.021   2.588   6.900  0.8932  0.3817 -0.0806
  411MOL0     C55363   9.087   2.710   6.937 -0.4948 -0.2778  0.7224
  411MOL0     C55364   9.017   2.783   7.051  0.1601 -0.3330  0.4950
  411MOL0     C55365   9.047   2.728   7.195 -0.8723  1.1499  0.3256
  411MOL0     C55366   8.993   2.815   7.316  0.4907  0.2138  0.9926
  411MOL0     N55367   8.847   2.809   7.321  0.1157 -1.1332 -0.3341
  411MOL0     C55368   8.776   2.875   7.425 -0.1934  0.3880 -0.4598
  411MOL0     C55369   8.646   2.864   7.395 -0.2735 -0.1250  0.1325
  411MOL0     C55370   8.524   2.919   7.472  0.7452 -0.0826  0.3827
  411MOL0     C55371   8.509   3.065   7.458  0.8422 -1.3759 -0.4016
  411MOL0     C55372   8.392   3.134   7.544 -0.3362  0.7332  0.5512
  411MOL0     C55373   8.251   3.085   7.503 -0.5804  0.4351  0.3738
  411MOL0     O55374   8.185   3.183   7.419  0.5643 -0.7464 -0.1658
  411MOL0     C55375   8.047   3.168   7.408 -0.5764  0.2934  0.6866
  411MOL0     C55376   7.973   3.276   7.361  0.3625  0.6727 -0.7909
  411MOL0     C55377   7.833   3.278   7.354  1.4125  0.2670 -0.2292
  411MOL0     C55378   7.769   3.398   7.283  0.6021  0.3562  0.5551
  411MOL0     C55379   7.759   3.163   7.395 -0.5600 -0.4175 -0.3357
  411MOL0     C55380   7.611   3.163   7.411 -0.3182 -0.2737  0.4811
  411MOL0     O55381   7.548   3.282   7.421  1.0427 -0.1534  0.6442
  411MOL0     C55382   7.414   3.277   7.407  0.2467 -1.4408  0.0937
  411MOL0     C55383   7.327   3.310   7.513  0.9734 -0.0234  0.0529
  411MOL0     C55384   7.185   3.289   7.494 -0.0962  0.7507 -0.2955
  411MOL0     C55385   7.125   3.264   7.373 -0.7658  0.3922  0.4824
  411MOL0     O55386   6.990   3.225   7.363 -0.6611  0.9601  0.7680
  411MOL0     C55387   6.943   3.157   7.240 -0.5029  0.5259  0.6063
  411MOL0     C55388   6.790   3.149   7.239  0.1423  0.1653  0.1653
  411MOL0     C55389   6.747   3.042   7.131 -0.0188 -0.7859 -0.2159
  411MOL0     C55390   6.599   2.996   7.144 -0.2544 -0.5315 -0.0165
  411MOL0     C55391   6.496   3.107   7.161 -0.5671  0.6873  0.5862
  411MOL0     C55392   6.356   3.043   7.155 -0.7260  0.0842 -0.2176
  411MOL0     C55393   6.320   2.928   7.244 -0.1026 -0.5110  0.0411
  411MOL0     C55394   6.258   2.809   7.168 -0.7447  0.5586  0.3084
  411MOL0    Cl55395   6.116   2.877   7.094  0.2398 -0.2728  0.7784
  411MOL0     C55396   7.218   3.249   7.262  0.8600  0.3868 -0.0885
  411MOL0     C55397   7.361   3.260   7.280 -0.4185 -0.1331  0.6865
  411MOL0     O55398   7.553   3.055   7.414  0.0221  0.6129 -0.3966
  411MOL0     C55399   7.830   3.048   7.434  0.0749 -0.6713 -0.2817
  411MOL0     C55400   7.970   3.055   7.435  0.1984  0.4042 -1.0462
  411MOL0     N55401   8.640   2.788   7.275  0.2792  0.1436  0.2791
  411MOL0     N55402   8.755   2.768   7.229  0.1324  0.3529  0.3772
  411MOL0     C55403   9.642   2.451   6.644 -0.1889 -0.4634  1.0612
  411MOL0     C55404   9.754   2.414   6.568 -0.0530  0.5795 -0.2992
  411MOL0     C55405  10.026   2.135   6.293 -0.2110 -0.7456 -0.3387
  411MOL0     C55406  10.057   2.021   6.221 -0.4030  0.9765  0.7462
  411MOL0     C55407  10.175   2.018   6.139 -0.7004  0.5508 -0.2191
  411MOL0     C55408  10.259   2.129   6.146 -0.3141 -0.3341 -0.0385
  411MOL0     O55409  10.374   2.119   6.066  1.1778 -0.0611 -0.0113
  411MOL0     C55410  10.480   2.196   6.116 -0.6987  0.1472  0.3460
  411MOL0     C55411  10.617   2.165   6.064 -0.0919 -0.2741 -0.2728
  411MOL0     C55412  10.636   2.174   5.915 -0.4960  0.2800 -0.2289
  411MOL0     C55413  10.755   2.102   5.852 -0.5022 -0.4703 -0.6230
  411MOL0     C55414  10.874   2.188   5.838 -0.7785  0.4905 -0.3332
  411MOL0     C55415  10.966   2.259   5.856 -0.2072 -0.0557 -0.4687
  411MOL0     C55416  10.233   2.243   6.223  0.7612  0.4370 -0.2859
  411MOL0     C55417  10.120   2.247   6.301  0.6518 -0.1348 -1.5646
  411MOL0     H55418   9.618   2.145   6.425 -0.8562  1.4453 -1.8400
  411MOL0     H55419   9.418   2.224   6.524  0.4256  0.5484 -1.0100
  411MOL0     H55420   9.245   2.315   6.687  2.6713  0.8694 -1.9151
  411MOL0     H55421   9.360   2.270   6.817 -1.2488 -0.7095  0.6107
  411MOL0     H55422   9.197   2.342   6.933  0.9475 -0.7424 -1.0326
  411MOL0     H55423   9.283   2.497   6.924  2.0282 -0.3124 -2.2640
  411MOL0     H55424   9.138   2.546   6.721  0.6876 -0.2477  0.2876
  411MOL0     H55425   9.023   2.418   6.776  0.6900 -0.9534  0.6672
  411MOL0     H55426   8.919   2.596   6.861 -1.1330  3.4239  4.7711
  411MOL0     H55427   9.012   2.529   6.992 -1.0416 -0.6871 -0.9118
  411MOL0     H55428   9.195   2.699   6.954  0.4532  1.0184 -3.4688
  411MOL0     H55429   9.080   2.778   6.852  1.9415  0.3318  0.9267
  411MOL0     H55430   9.048   2.887   7.032 -0.7829 -0.4205 -1.8009
  411MOL0     H55431   8.908   2.781   7.042  0.1652  0.8902 -0.0022
  411MOL0     H55432   9.003   2.629   7.209 -1.0703  1.0458 -0.8799
  411MOL0     H55433   9.154   2.713   7.208 -1.3552  0.0959  4.6709
  411MOL0     H55434   9.028   2.916   7.294  0.4444 -0.1113 -0.7679
  411MOL0     H55435   9.031   2.786   7.415  2.8569 -1.8508 -0.3876
  411MOL0     H55436   8.823   2.933   7.504  1.7421 -1.1692 -0.3926
  411MOL0     H55437   8.438   2.867   7.430 -0.9796  2.0465  1.0861
  411MOL0     H55438   8.530   2.887   7.576 -0.2426  0.2190  0.5468
  411MOL0     H55439   8.498   3.094   7.353  1.0383 -0.2314 -0.1171
  411MOL0     H55440   8.609   3.103   7.481  0.0868  1.4576 -1.3978
  411MOL0     H55441   8.389   3.241   7.519  0.1414  0.3348 -1.3507
  411MOL0     H55442   8.414   3.121   7.650  1.5851  1.0791  0.2296
  411MOL0     H55443   8.189   3.058   7.588  0.8319  2.3162  2.0983
  411MOL0     H55444   8.246   2.999   7.435 -1.4034  0.5408  0.2907
  411MOL0     H55445   8.033   3.362   7.331  0.9393  1.0624  1.3091
  411MOL0     H55446   7.721   3.451   7.365 -2.4270 -3.6789  1.7389
  411MOL0     H55447   7.833   3.465   7.225  2.6860 -0.2388  2.0588
  411MOL0     H55448   7.694   3.363   7.210 -1.0364 -1.3164  2.8955
  411MOL0     H55449   7.385   3.338   7.601  4.6818 -1.0207 -1.8851
  411MOL0     H55450   7.126   3.314   7.581 -0.6918  1.8876 -1.0106
  411MOL0     H55451   6.985   3.201   7.149 -0.8291 -2.0979 -0.9027
  411MOL0     H55452   6.982   3.055   7.240  0.4762  0.8598 -1.0264
  411MOL0     H55453   6.751   3.101   7.329 -2.9045  0.9318 -0.6140
  411MOL0     H55454   6.738   3.244   7.219 -1.5735 -0.6257  0.6708
  411MOL0     H55455   6.811   2.953   7.138 -0.5506 -1.1606  0.0102
  411MOL0     H55456   6.761   3.089   7.033 -0.1714 -0.6092 -0.1543
  411MOL0     H55457   6.571   2.926   7.065 -2.2679 -1.8139  1.7061
  411MOL0     H55458   6.603   2.947   7.242  0.4004  2.1973  1.4382
  411MOL0     H55459   6.512   3.175   7.077  4.0514  0.6615  1.2212
  411MOL0     H55460   6.491   3.158   7.258  1.4467 -2.4968  2.5609
  411MOL0     H55461   6.282   3.123   7.160 -2.9311 -1.6543 -2.8051
  411MOL0     H55462   6.343   3.009   7.052  1.6825 -0.2478 -0.4780
  411MOL0     H55463   6.249   2.967   7.317 -1.2860 -0.6304 -1.0026
  411MOL0     H55464   6.401   2.898   7.311 -0.3534 -0.9895  0.1305
  411MOL0     H55465   6.230   2.724   7.231  1.3157 -1.2376 -1.0588
  411MOL0     H55466   6.328   2.768   7.095 -0.9802 -0.0932  0.4418
  411MOL0     H55467   7.175   3.227   7.165 -0.4727  3.3447 -0.3019
  411MOL0     H55468   7.428   3.229   7.200 -0.6642 -3.5446  1.6551
  411MOL0     H55469   7.774   2.957   7.455 -3.3479  1.0866 -1.0726
  411MOL0     H55470   8.011   2.965   7.481 -1.0983  1.0090  1.4687
  411MOL0     H55471   9.636   2.538   6.708 -0.4323 -0.1720  0.6455
  411MOL0     H55472   9.847   2.468   6.559  0.3667 -0.3221 -1.8006
  411MOL0     H55473   9.986   1.939   6.218  0.4532  0.1714 -3.0383
  411MOL0     H55474  10.210   1.931   6.084  3.2341  0.6784  1.6995
  411MOL0     H55475  10.463   2.302   6.094  4.0849  1.2364  0.7303
  411MOL0     H55476  10.493   2.188   6.224  0.5474 -1.5626  0.1180
  411MOL0     H55477  10.633   2.064   6.103  0.4795  0.3889  1.2883
  411MOL0     H55478  10.683   2.232   6.120  0.5481 -2.9405  2.4002
  411MOL0     H55479  10.638   2.280   5.887 -0.0256  0.7259  1.4418
  411MOL0     H55480  10.547   2.131   5.867 -0.2462  0.4129 -0.8307
  411MOL0     H55481  10.718   2.076   5.752  0.4265  1.7363 -1.6093
  411MOL0     H55482  10.775   2.014   5.914  1.0160  1.0149  1.1237
  411MOL0     H55483  11.051   2.325   5.853 -0.5456  0.3770 -0.6934
  411MOL0     H55484  10.294   2.332   6.210  3.7390 -1.5655 -1.0437
  411MOL0     H55485  10.099   2.334   6.363  3.0021 -0.3111 -0.3996
  412MOL0     O55486   0.011  10.526   6.754 -0.8072 -1.1958 -0.6494
  412MOL0     C55487   0.054  10.615   6.831  0.2602  0.3292 -0.6462
  412MOL0     O55488  -0.013  10.721   6.884 -0.0630 -0.5893  0.2034
  412MOL0     C55489  -0.146  10.744   6.872  0.7544  0.6190 -0.0482
  412MOL0     C55490  -0.245  10.645   6.846 -1.5202  0.2132 -0.4614
  412MOL0     C55491  -0.381  10.681   6.843  0.1168 -0.6032 -0.6448
  412MOL0     C55492  -0.423  10.809   6.882 -0.0237 -0.0325  0.5079
  412MOL0     O55493  -0.555  10.834   6.873  0.1193  0.6692 -0.4845
  412MOL0     C55494  -0.593  10.969   6.899 -0.1177  0.6973  0.4222
  412MOL0     C55495  -0.744  10.979   6.879 -0.1319  0.0352  0.1238
  412MOL0     C55496  -0.824  10.898   6.981  0.1307 -0.0687  0.5812
  412MOL0     C55497  -0.966  10.952   6.982  0.1569  0.2670  0.7625
  412MOL0     C55498  -1.050  10.857   7.067 -0.1944  0.3956 -0.3317
  412MOL0     C55499  -1.195  10.903   7.035  0.1341  0.2249  0.0346
  412MOL0     C55500  -1.300  10.859   7.134  0.2381 -0.1708 -0.0917
  412MOL0     C55501  -1.435  10.935   7.097 -0.1462 -0.4745  0.6435
  412MOL0     N55502  -1.528  10.937   7.202 -0.3195 -0.0707 -0.2753
  412MOL0     C55503  -1.645  10.867   7.202  0.7172  0.0577 -0.1088
  412MOL0     C55504  -1.711  10.896   7.311  0.4661 -0.2203 -0.3185
  412MOL0     C55505  -1.835  10.843   7.356  0.2006 -0.3518 -0.8439
  412MOL0     C55506  -1.957  10.898   7.278  0.7892 -0.3834  0.1296
  412MOL0     C55507  -1.960  11.052   7.266  0.0666  0.1555 -0.1919
  412MOL0     C55508  -1.989  11.104   7.414 -0.6028  0.0593  0.3065
  412MOL0     O55509  -1.993  11.245   7.421  0.3085 -0.4463  0.2778
  412MOL0     C55510  -2.125  11.290   7.407 -0.9584  0.2107 -0.1519
  412MOL0     C55511  -2.209  11.260   7.514  0.6846  0.2725  0.2913
  412MOL0     C55512  -2.345  11.306   7.500 -0.2902  0.0477  0.2732
  412MOL0     C55513  -2.442  11.269   7.619 -0.1029 -0.1552  0.0179
  412MOL0     C55514  -2.388  11.384   7.387  1.0615 -0.3985  0.9719
  412MOL0     C55515  -2.529  11.418   7.357 -0.0313  0.0159 -0.2809
  412MOL0     O55516  -2.628  11.333   7.413 -0.3132 -0.2097  0.2888
  412MOL0     C55517  -2.761  11.330   7.397  0.2750 -0.6669 -0.1341
  412MOL0     C55518  -2.836  11.401   7.295  0.9902 -0.0176  0.2089
  412MOL0     C55519  -2.977  11.380   7.278 -0.3403  0.6885  1.0031
  412MOL0     C55520  -3.039  11.287   7.360 -0.3375  0.1695 -0.1056
  412MOL0     O55521  -3.172  11.266   7.370 -0.1773 -0.0888 -0.0825
  412MOL0     C55522  -3.265  11.375   7.365 -0.0171  0.2252 -0.0130
  412MOL0     C55523  -3.370  11.341   7.250 -0.2568  0.0718 -0.1070
  412MOL0     C55524  -3.330  11.371   7.104  0.1352 -0.5695  0.6048
  412MOL0     C55525  -3.441  11.344   7.003 -0.5961 -0.2848  0.3506
  412MOL0     C55526  -3.527  11.213   7.016 -0.0805  0.9226 -0.0571
  412MOL0     C55527  -3.635  11.202   6.909  0.4327  0.0661 -1.1717
  412MOL0     C55528  -3.752  11.123   6.967 -0.2487 -0.4279  0.1810
  412MOL0     C55529  -3.863  11.124   6.866  0.0817  0.1682 -0.2062
  412MOL0    Cl55530  -3.991  11.014   6.933  0.1387 -0.5890 -0.3223
  412MOL0     C55531  -2.969  11.221   7.461  0.0238 -0.7485 -0.2374
  412MOL0     C55532  -2.836  11.230   7.471 -0.4516 -0.7444  1.0113
  412MOL0     O55533  -2.547  11.510   7.281 -0.6331 -0.5231  0.0430
  412MOL0     C55534  -2.293  11.421   7.290  0.8625  0.2009 -0.5525
  412MOL0     C55535  -2.164  11.369   7.297 -0.1298  0.5066  0.4244
  412MOL0     N55536  -1.636  10.985   7.379  0.3919  0.2219 -0.2535
  412MOL0     N55537  -1.528  11.017   7.317  0.3122  0.5857  0.8665
  412MOL0     C55538  -0.329  10.903   6.895 -0.1501  0.0896 -0.7821
  412MOL0     C55539  -0.187  10.873   6.892  0.4429 -0.4917  0.5875
  412MOL0     C55540   0.197  10.632   6.839  0.0366 -0.7122 -0.0544
  412MOL0     C55541   0.258  10.714   6.934 -0.0081  0.6467  0.0539
  412MOL0     C55542   0.401  10.725   6.932 -0.6026 -0.1317  0.7134
  412MOL0     C55543   0.478  10.666   6.828  0.1104 -0.1732 -1.0150
  412MOL0     O55544   0.611  10.679   6.855 -0.1442 -0.5393 -0.4035
  412MOL0     C55545   0.695  10.586   6.788  0.1841 -0.3683  0.8075
  412MOL0     C55546   0.709  10.451   6.863 -0.6194  0.6032 -0.1365
  412MOL0     C55547   0.758  10.450   7.010  0.4623 -0.2145 -0.1999
  412MOL0     C55548   0.834  10.329   7.046  0.0409  0.7169  0.6327
  412MOL0     C55549   0.760  10.200   7.050  0.0222  0.1380  0.7635
  412MOL0     C55550   0.682  10.120   7.056  0.8014 -0.6095 -0.5134
  412MOL0     C55551   0.419  10.595   6.726  0.2588 -0.4412  0.2080
  412MOL0     C55552   0.284  10.574   6.736  0.1020 -0.8607  0.1461
  412MOL0     H55553  -0.223  10.538   6.840 -0.6670  0.1485  2.1350
  412MOL0     H55554  -0.455  10.604   6.827  2.6415 -2.8106 -2.4926
  412MOL0     H55555  -0.562  10.998   7.000  3.1070  0.2051 -0.3212
  412MOL0     H55556  -0.542  11.036   6.830  1.1321 -0.7844 -0.1408
  412MOL0     H55557  -0.768  11.085   6.890  2.2929  0.5430  0.9488
  412MOL0     H55558  -0.766  10.936   6.781 -0.5980 -1.7817  0.9776
  412MOL0     H55559  -0.817  10.796   6.944 -1.9856 -0.3478  0.8518
  412MOL0     H55560  -0.776  10.908   7.078  0.2622 -0.9158  0.6078
  412MOL0     H55561  -0.970  11.053   7.023  2.9802  0.9376 -0.4034
  412MOL0     H55562  -1.000  10.950   6.878  0.0657  3.3036  0.6444
  412MOL0     H55563  -1.045  10.749   7.045 -0.0221  0.3502 -0.0812
  412MOL0     H55564  -1.024  10.868   7.173 -2.9714 -1.3599  0.6376
  412MOL0     H55565  -1.197  11.012   7.042 -1.2149  0.3107 -1.2880
  412MOL0     H55566  -1.218  10.878   6.931  3.0810 -1.2995 -0.3521
  412MOL0     H55567  -1.315  10.751   7.129  0.3432 -0.1370 -2.4086
  412MOL0     H55568  -1.264  10.877   7.235  0.5152  0.9209 -0.3674
  412MOL0     H55569  -1.476  10.880   7.012 -0.1125  0.0404  0.2848
  412MOL0     H55570  -1.409  11.040   7.078  2.4206 -1.2434 -0.4727
  412MOL0     H55571  -1.677  10.796   7.126 -0.0258 -1.9011  1.9018
  412MOL0     H55572  -1.829  10.735   7.340 -0.2285 -1.1879  3.5740
  412MOL0     H55573  -1.836  10.863   7.463  1.0212  3.1062 -1.3603
  412MOL0     H55574  -2.051  10.870   7.325  1.3014 -1.2232  0.6831
  412MOL0     H55575  -1.957  10.846   7.182  0.8335 -0.4433  0.1617
  412MOL0     H55576  -2.045  11.068   7.199 -0.6778 -2.2752  0.0474
  412MOL0     H55577  -1.875  11.096   7.214  1.2231 -0.8969  0.7401
  412MOL0     H55578  -1.901  11.081   7.475 -0.4143  1.6860  0.7017
  412MOL0     H55579  -2.069  11.051   7.466 -0.0745 -1.5935 -0.4899
  412MOL0     H55580  -2.174  11.208   7.602 -1.8434 -2.5985 -0.2271
  412MOL0     H55581  -2.381  11.257   7.709 -1.8383 -0.1085  1.2503
  412MOL0     H55582  -2.508  11.356   7.634 -0.6205 -0.2534 -1.5648
  412MOL0     H55583  -2.499  11.178   7.603 -0.3226 -0.0604  0.2453
  412MOL0     H55584  -2.787  11.465   7.221 -2.9223  1.4767 -1.3492
  412MOL0     H55585  -3.034  11.418   7.194 -0.4336 -1.6245 -0.0438
  412MOL0     H55586  -3.314  11.374   7.463  0.2942 -3.5919  0.2847
  412MOL0     H55587  -3.217  11.472   7.353 -1.6001  0.7948 -2.4753
  412MOL0     H55588  -3.378  11.232   7.258  1.9129 -0.1146  0.1923
  412MOL0     H55589  -3.466  11.390   7.270  0.3537  1.1830  0.2300
  412MOL0     H55590  -3.249  11.302   7.079  0.6563  0.4154 -0.4881
  412MOL0     H55591  -3.298  11.475   7.098  1.2262 -0.7930  1.9766
  412MOL0     H55592  -3.503  11.434   6.994 -0.3991 -0.3652 -3.2075
  412MOL0     H55593  -3.384  11.341   6.910 -1.6372  1.7285 -0.4384
  412MOL0     H55594  -3.564  11.214   7.119 -0.3100 -0.3810 -0.1004
  412MOL0     H55595  -3.473  11.118   7.007 -0.5336  0.8168 -2.4028
  412MOL0     H55596  -3.682  11.297   6.881 -1.7714 -0.6177 -0.0378
  412MOL0     H55597  -3.592  11.154   6.820  2.3308 -0.0234 -0.2520
  412MOL0     H55598  -3.776  11.174   7.061 -1.9558 -2.3031  0.8189
  412MOL0     H55599  -3.706  11.025   6.983  0.4601  0.2597  2.9252
  412MOL0     H55600  -3.829  11.079   6.772 -0.6953  0.1220 -0.4716
  412MOL0     H55601  -3.903  11.224   6.844  0.2551 -0.1362 -2.1074
  412MOL0     H55602  -3.032  11.157   7.521 -2.0910  0.3522 -1.1401
  412MOL0     H55603  -2.789  11.167   7.545 -2.2050 -2.9547  0.3695
  412MOL0     H55604  -2.317  11.474   7.198  0.7955  1.0321 -0.0607
  412MOL0     H55605  -2.082  11.395   7.230  0.7991 -3.9741 -0.5634
  412MOL0     H55606  -0.343  11.011   6.900  1.3069  0.3351 -1.3949
  412MOL0     H55607  -0.118  10.951   6.922 -3.3375  2.6737  1.8950
  412MOL0     H55608   0.191  10.771   6.998  1.8698  2.3321  0.6365
  412MOL0     H55609   0.445  10.794   7.003  0.8952 -0.8565  0.5266
  412MOL0     H55610   0.674  10.576   6.682 -0.0726 -1.0410  0.9176
  412MOL0     H55611   0.796  10.628   6.784  1.5017 -3.4006 -1.4888
  412MOL0     H55612   0.772  10.386   6.802 -1.9924 -0.4199 -0.5278
  412MOL0     H55613   0.609  10.406   6.858 -0.2119 -0.1912 -3.4289
  412MOL0     H55614   0.665  10.463   7.066 -1.7638  0.1241 -3.6588
  412MOL0     H55615   0.825  10.535   7.025  0.3433 -0.0646 -0.4936
  412MOL0     H55616   0.877  10.333   7.146  2.5039  0.8704 -0.3443
  412MOL0     H55617   0.927  10.329   6.988 -0.7613  0.0785 -0.6969
  412MOL0     H55618   0.601  10.049   7.059  1.9637 -2.1056 -2.1447
  412MOL0     H55619   0.469  10.559   6.636 -0.7088  0.3467 -0.6811
  412MOL0     H55620   0.239  10.516   6.656  3.1829 -1.0839 -1.5969
  413MOL0     O55621   8.474   7.267   1.490 -0.3152 -0.1337 -0.5264
  413MOL0     C55622   8.512   7.351   1.404 -0.2832  1.0334 -0.4944
  413MOL0     O55623   8.440   7.459   1.360 -0.2102  0.2789  0.8104
  413MOL0     C55624   8.320   7.493   1.427 -0.1873  0.4237  0.7620
  413MOL0     C55625   8.275   7.623   1.441  0.2959 -0.0573 -0.5304
  413MOL0     C55626   8.148   7.652   1.502  0.3500 -0.7310  0.1163
  413MOL0     C55627   8.051   7.554   1.524 -0.1449  0.8929  0.4838
  413MOL0     O55628   7.925   7.580   1.568  0.3575 -0.6964  0.0697
  413MOL0     C55629   7.818   7.522   1.491  0.6009  0.0169  0.9579
  413MOL0     C55630   7.696   7.605   1.492  0.2991 -0.5260 -0.4909
  413MOL0     C55631   7.569   7.538   1.424 -0.6510  0.1185 -0.0307
  413MOL0     C55632   7.448   7.641   1.430 -0.7628  0.4837  0.0223
  413MOL0     C55633   7.321   7.581   1.381  0.2445 -0.0982  0.3145
  413MOL0     C55634   7.189   7.635   1.446  0.3611  0.3110 -0.6042
  413MOL0     C55635   7.066   7.598   1.358  0.0663  0.2083  0.8289
  413MOL0     C55636   6.933   7.638   1.415  0.4062 -0.5840 -0.9965
  413MOL0     N55637   6.826   7.590   1.328  0.4090  0.5840  0.0528
  413MOL0     C55638   6.696   7.573   1.369 -0.3583 -0.4381 -0.2905
  413MOL0     C55639   6.616   7.562   1.263  0.5098  0.0669 -1.0845
  413MOL0     C55640   6.465   7.558   1.257 -0.2633  0.1388 -0.1576
  413MOL0     C55641   6.428   7.612   1.114 -0.0628 -0.3096 -0.3701
  413MOL0     C55642   6.280   7.645   1.120  0.6067 -0.2499 -0.0052
  413MOL0     C55643   6.237   7.708   0.983  0.3965 -0.2967  0.3997
  413MOL0     O55644   6.104   7.761   0.972 -0.4213  1.2282  0.0582
  413MOL0     C55645   6.075   7.828   0.855  0.1404 -0.3984 -0.1548
  413MOL0     C55646   6.164   7.843   0.749  0.4085  0.5629 -0.2987
  413MOL0     C55647   6.128   7.905   0.629 -0.0485 -1.1547  0.1961
  413MOL0     C55648   6.237   7.919   0.523  0.5805 -0.3096 -0.7328
  413MOL0     C55649   5.992   7.944   0.615  0.3248  0.4773 -0.3579
  413MOL0     C55650   5.936   8.013   0.489  0.9469 -0.4578 -0.6937
  413MOL0     O55651   5.833   8.095   0.527 -0.1177  0.6078  0.2742
  413MOL0     C55652   5.746   8.174   0.461  0.9017  0.5587 -0.2418
  413MOL0     C55653   5.636   8.227   0.536 -0.3497  0.0068  0.0642
  413MOL0     C55654   5.526   8.301   0.476 -0.6371  0.7208  0.8016
  413MOL0     C55655   5.540   8.329   0.337  0.3496  0.5545  0.5621
  413MOL0     O55656   5.443   8.395   0.268  0.5878  0.6791  0.2525
  413MOL0     C55657   5.317   8.336   0.265 -0.0292  0.1339 -0.3458
  413MOL0     C55658   5.259   8.383   0.130  0.5617 -0.3347  0.4242
  413MOL0     C55659   5.131   8.297   0.095 -0.2901 -0.4938 -0.2628
  413MOL0     C55660   5.000   8.367   0.145 -0.4003  0.8504 -0.2897
  413MOL0     C55661   4.959   8.486   0.053  0.4858 -0.2268 -0.9392
  413MOL0     C55662   4.852   8.571   0.112 -0.1027  0.0483  0.3624
  413MOL0     C55663   4.905   8.679   0.211  0.9500  0.1451  0.0556
  413MOL0     C55664   4.815   8.686   0.337 -0.3341 -0.6560  0.3677
  413MOL0    Cl55665   4.645   8.702   0.303  0.2864 -0.1641  0.1741
  413MOL0     C55666   5.659   8.282   0.264 -0.0693 -0.1128 -0.0264
  413MOL0     C55667   5.759   8.206   0.325  0.2941  0.7440 -0.3900
  413MOL0     O55668   5.978   7.995   0.379 -0.3126 -0.2331  0.4265
  413MOL0     C55669   5.906   7.916   0.722 -0.3699 -0.8258  0.0541
  413MOL0     C55670   5.947   7.872   0.846 -0.8674 -0.0643 -0.1095
  413MOL0     N55671   6.698   7.569   1.152  0.2367 -0.3805  0.3937
  413MOL0     N55672   6.822   7.587   1.189 -0.4076 -0.5319  0.2045
  413MOL0     C55673   8.087   7.421   1.494 -0.9531 -0.4503  0.0999
  413MOL0     C55674   8.217   7.400   1.445  0.4329  0.1158  0.7949
  413MOL0     C55675   8.647   7.325   1.338  0.8487 -0.6215  0.7068
  413MOL0     C55676   8.669   7.331   1.204 -0.3658 -0.9320 -0.6901
  413MOL0     C55677   8.788   7.293   1.144 -0.1082 -0.8917 -0.1085
  413MOL0     C55678   8.894   7.258   1.225 -0.9461  0.0305  0.0231
  413MOL0     O55679   9.013   7.223   1.176  0.0202  0.0349 -0.3243
  413MOL0     C55680   9.137   7.283   1.214 -0.2834 -0.1594  0.0577
  413MOL0     C55681   9.267   7.203   1.176 -0.0728  0.0997 -0.9206
  413MOL0     C55682   9.253   7.054   1.219 -0.0765  0.8290 -0.7779
  413MOL0     C55683   9.368   6.971   1.183  0.4421  0.2523  1.3015
  413MOL0     C55684   9.486   7.009   1.264 -0.0338  0.4003  0.0564
  413MOL0     C55685   9.575   7.045   1.332 -0.8683 -0.2168  0.1727
  413MOL0     C55686   8.875   7.249   1.362 -0.0247 -0.4302  0.0150
  413MOL0     C55687   8.755   7.283   1.422  0.3429  0.2577 -0.3316
  413MOL0     H55688   8.332   7.713   1.419 -2.2763  1.8084 -0.0135
  413MOL0     H55689   8.115   7.750   1.535  0.3647  0.1314 -2.2569
  413MOL0     H55690   7.855   7.512   1.388 -0.3977  2.3250  0.3033
  413MOL0     H55691   7.792   7.421   1.524 -0.4419 -0.3878 -0.9821
  413MOL0     H55692   7.674   7.633   1.596  0.7959 -0.8237 -0.3062
  413MOL0     H55693   7.723   7.693   1.433 -1.2106 -1.1536 -2.2166
  413MOL0     H55694   7.588   7.508   1.321 -4.6931  0.1646 -0.9531
  413MOL0     H55695   7.545   7.446   1.479  0.4412 -0.8871 -1.1579
  413MOL0     H55696   7.435   7.674   1.533 -0.3049  0.3191  0.1348
  413MOL0     H55697   7.476   7.733   1.377 -1.2451  0.7983  0.3110
  413MOL0     H55698   7.307   7.608   1.276 -2.9848  2.0912  1.1577
  413MOL0     H55699   7.322   7.474   1.405  0.6505  0.0691  1.0783
  413MOL0     H55700   7.180   7.587   1.544  2.7283 -1.9387 -1.3648
  413MOL0     H55701   7.198   7.740   1.476 -1.2741  0.4942 -0.6409
  413MOL0     H55702   7.076   7.648   1.261 -0.0912 -3.7388 -1.4519
  413MOL0     H55703   7.075   7.491   1.336 -0.0401  0.0358  1.5841
  413MOL0     H55704   6.929   7.747   1.414 -1.0242 -0.6154 -0.7936
  413MOL0     H55705   6.919   7.602   1.518  1.1106  0.3959 -0.5373
  413MOL0     H55706   6.658   7.568   1.471 -0.6153  1.1392 -0.2904
  413MOL0     H55707   6.436   7.454   1.271 -1.7649  0.5038 -0.3735
  413MOL0     H55708   6.425   7.618   1.340 -1.6800 -0.9905  0.0080
  413MOL0     H55709   6.448   7.534   1.041 -0.5907  0.0414 -0.8961
  413MOL0     H55710   6.489   7.698   1.085  0.1590  0.6867  2.6767
  413MOL0     H55711   6.248   7.707   1.204  0.1444 -0.1570 -0.2476
  413MOL0     H55712   6.218   7.555   1.130 -2.0187  1.3143 -1.1162
  413MOL0     H55713   6.246   7.628   0.909  1.3103  1.0904 -1.0607
  413MOL0     H55714   6.304   7.791   0.963 -0.0984  0.2347  0.9033
  413MOL0     H55715   6.269   7.818   0.762  0.2890  0.9624  1.9201
  413MOL0     H55716   6.209   7.994   0.447 -0.3218  1.1390  0.9606
  413MOL0     H55717   6.331   7.952   0.567  0.2285 -0.9398  0.5256
  413MOL0     H55718   6.256   7.825   0.470  1.5289 -0.2485 -0.5186
  413MOL0     H55719   5.644   8.229   0.644  0.5474  1.0222  0.0012
  413MOL0     H55720   5.443   8.333   0.538 -1.1649 -3.5520  2.6791
  413MOL0     H55721   5.323   8.228   0.282 -1.5811  0.4925  3.3542
  413MOL0     H55722   5.245   8.371   0.339 -2.0831  1.6568 -2.8977
  413MOL0     H55723   5.230   8.489   0.125 -0.3444 -0.6382 -2.6028
  413MOL0     H55724   5.343   8.372   0.061  1.7820  2.6659  1.2192
  413MOL0     H55725   5.148   8.194   0.127  2.0143 -0.0288  0.2043
  413MOL0     H55726   5.124   8.278  -0.012 -1.9405 -3.1164  0.2334
  413MOL0     H55727   4.919   8.293   0.149  0.3876 -0.1184 -1.5194
  413MOL0     H55728   5.020   8.404   0.246 -1.4451 -3.9223  1.9481
  413MOL0     H55729   4.928   8.444  -0.043 -0.9960  1.5800 -1.3049
  413MOL0     H55730   5.048   8.544   0.027  0.2968  1.3755  1.6555
  413MOL0     H55731   4.814   8.632   0.030 -0.4828  1.6172  1.6359
  413MOL0     H55732   4.777   8.517   0.170 -0.8455  1.7706  1.1038
  413MOL0     H55733   4.883   8.769   0.155 -0.0620 -1.4891 -2.3296
  413MOL0     H55734   5.012   8.669   0.232  0.2734 -3.0814  3.0129
  413MOL0     H55735   4.857   8.769   0.394 -0.4582  0.2871 -0.8778
  413MOL0     H55736   4.832   8.597   0.398 -0.2530 -2.0430 -1.5708
  413MOL0     H55737   5.667   8.305   0.158 -2.5292  0.6977 -0.1093
  413MOL0     H55738   5.846   8.182   0.265 -0.2905  1.7429 -1.6559
  413MOL0     H55739   5.800   7.936   0.711 -0.2000  2.2556  2.5800
  413MOL0     H55740   5.879   7.856   0.928 -0.7454 -1.1010 -0.1910
  413MOL0     H55741   8.017   7.338   1.496 -0.6061 -0.7707  2.8458
  413MOL0     H55742   8.245   7.299   1.417  1.9973  0.2303  1.8035
  413MOL0     H55743   8.598   7.372   1.133  0.7779 -2.3486 -2.7355
  413MOL0     H55744   8.796   7.294   1.036 -1.5267 -1.8678 -0.2528
  413MOL0     H55745   9.137   7.375   1.155 -3.3837 -1.5419 -2.3206
  413MOL0     H55746   9.132   7.302   1.322 -0.8814  2.7290 -0.3938
  413MOL0     H55747   9.357   7.250   1.217  0.4072 -1.7863  0.3426
  413MOL0     H55748   9.273   7.209   1.067 -0.6859 -1.0507 -1.0346
  413MOL0     H55749   9.160   7.013   1.179  2.3464 -4.3632 -2.0493
  413MOL0     H55750   9.247   7.055   1.328  0.0666  0.6220 -0.7669
  413MOL0     H55751   9.386   6.975   1.075 -0.4187 -3.4316  0.8847
  413MOL0     H55752   9.339   6.866   1.197  0.0198  0.2861  0.7465
  413MOL0     H55753   9.647   7.083   1.402 -0.8939 -0.4505  0.3243
  413MOL0     H55754   8.948   7.191   1.417 -1.7761 -1.6893  1.1395
  413MOL0     H55755   8.731   7.282   1.528  2.5214  0.8685  0.2306
  414MOL0     O55756   5.877   1.046   4.523 -0.3151  0.5517  0.0702
  414MOL0     C55757   5.831   0.996   4.419 -0.2069 -0.0853 -0.0229
  414MOL0     O55758   5.703   1.002   4.379 -0.6062  0.3458  0.1774
  414MOL0     C55759   5.613   1.045   4.467 -0.0343 -0.0042  0.5512
  414MOL0     C55760   5.595   0.984   4.592  0.0753 -0.3060 -0.2094
  414MOL0     C55761   5.485   1.015   4.673 -0.3073 -0.9109  0.6998
  414MOL0     C55762   5.390   1.111   4.636 -0.3890 -0.3922  0.0312
  414MOL0     O55763   5.279   1.149   4.715 -0.2715 -0.1787  1.1933
  414MOL0     C55764   5.322   1.178   4.848  0.3238  0.3151 -0.2651
  414MOL0     C55765   5.215   1.270   4.909 -0.2803  0.9983  0.0872
  414MOL0     C55766   5.247   1.297   5.057 -0.3316 -0.6050  0.2783
  414MOL0     C55767   5.261   1.166   5.145 -0.2678 -0.3152 -0.2035
  414MOL0     C55768   5.139   1.080   5.164 -0.6443 -0.7269  0.2801
  414MOL0     C55769   5.006   1.157   5.182 -0.6714 -0.0602 -0.0925
  414MOL0     C55770   4.991   1.238   5.315 -0.6375 -0.1828 -0.8816
  414MOL0     C55771   4.849   1.304   5.313  0.0510  0.3903 -0.3481
  414MOL0     N55772   4.733   1.211   5.315 -0.5416  0.0797 -0.2704
  414MOL0     C55773   4.657   1.180   5.424  0.3762  0.6404 -0.0963
  414MOL0     C55774   4.558   1.110   5.369 -0.2479 -0.2314  0.2991
  414MOL0     C55775   4.460   1.031   5.455 -0.4698  0.0184  0.3735
  414MOL0     C55776   4.362   1.124   5.520 -0.7353 -0.7756  0.3294
  414MOL0     C55777   4.290   1.218   5.430  0.3855  0.4637  0.2203
  414MOL0     C55778   4.211   1.339   5.494 -0.4871  1.1198 -0.4480
  414MOL0     O55779   4.112   1.304   5.587  0.0924  0.8813 -0.2561
  414MOL0     C55780   3.977   1.333   5.559 -1.2891  0.5781  0.8072
  414MOL0     C55781   3.943   1.420   5.450  0.3560 -0.4089  0.1069
  414MOL0     C55782   3.810   1.437   5.410  0.2721 -0.6926 -0.7239
  414MOL0     C55783   3.786   1.523   5.290  0.2184  0.0915  0.0389
  414MOL0     C55784   3.707   1.385   5.493 -0.1679  0.4882 -0.0260
  414MOL0     C55785   3.563   1.396   5.461  0.1537  0.2021 -0.0817
  414MOL0     O55786   3.491   1.291   5.485 -0.1856  0.0817 -0.0783
  414MOL0     C55787   3.359   1.310   5.474  0.4165  0.4697  0.2168
  414MOL0     C55788   3.310   1.258   5.355 -0.1986  1.3683 -0.0545
  414MOL0     C55789   3.172   1.268   5.323  0.3584  0.0113  0.7919
  414MOL0     C55790   3.081   1.334   5.404  0.3579  0.0301  0.2331
  414MOL0     O55791   2.947   1.319   5.367 -0.2831 -0.5841  0.2236
  414MOL0     C55792   2.852   1.401   5.443  0.8740 -0.5819 -0.9789
  414MOL0     C55793   2.722   1.426   5.363  0.2271  0.7423  0.2316
  414MOL0     C55794   2.638   1.535   5.422  0.8181 -0.6620 -0.5931
  414MOL0     C55795   2.615   1.526   5.571 -0.8282 -0.1950  0.1001
  414MOL0     C55796   2.513   1.632   5.613 -1.2176  0.4865 -0.7373
  414MOL0     C55797   2.370   1.611   5.574 -0.2993  0.6360 -0.4396
  414MOL0     C55798   2.286   1.704   5.672  0.6525 -0.0139  0.2863
  414MOL0     C55799   2.135   1.704   5.635  0.5110  0.3666 -0.3134
  414MOL0    Cl55800   2.116   1.771   5.470  0.1289  0.0178 -0.3172
  414MOL0     C55801   3.133   1.386   5.526  0.3805 -0.3748 -0.9012
  414MOL0     C55802   3.271   1.375   5.566  0.5027  0.0829  0.1835
  414MOL0     O55803   3.518   1.493   5.414 -0.1310 -0.0059  0.3314
  414MOL0     C55804   3.741   1.295   5.600  0.5704 -0.8536 -0.2886
  414MOL0     C55805   3.872   1.273   5.630 -0.5145  0.0555  0.5156
  414MOL0     N55806   4.563   1.122   5.237 -0.6528  0.2600  0.9037
  414MOL0     N55807   4.666   1.175   5.202 -0.7094 -0.5488  0.2065
  414MOL0     C55808   5.398   1.160   4.508  0.5554  0.7200  1.0236
  414MOL0     C55809   5.508   1.125   4.420  0.4921  1.0027 -0.1765
  414MOL0     C55810   5.930   0.944   4.320 -0.7783 -0.0048  0.0259
  414MOL0     C55811   5.900   0.929   4.182  0.1222 -0.6710  0.3082
  414MOL0     C55812   5.997   0.870   4.098 -0.2632  0.5236 -0.5474
  414MOL0     C55813   6.127   0.841   4.133  1.5968  0.1709  0.2252
  414MOL0     O55814   6.217   0.807   4.036 -1.0287  0.2424  0.5425
  414MOL0     C55815   6.349   0.775   4.078 -0.4008  0.3533  1.1446
  414MOL0     C55816   6.429   0.915   4.089  0.0156  1.0665  1.4127
  414MOL0     C55817   6.568   0.867   4.074 -0.0557 -0.1648  0.4160
  414MOL0     C55818   6.668   0.973   4.037  0.0115  0.3826  0.2170
  414MOL0     C55819   6.655   1.025   3.895  0.7975  0.4867 -0.0545
  414MOL0     C55820   6.648   1.083   3.788  0.0174 -0.1714 -0.2299
  414MOL0     C55821   6.163   0.865   4.263  0.2173 -0.0121 -0.2989
  414MOL0     C55822   6.066   0.910   4.356 -0.8126 -0.0885  0.1695
  414MOL0     H55823   5.663   0.901   4.613  1.2581 -0.0026 -2.5400
  414MOL0     H55824   5.477   0.957   4.764  0.5371 -0.1665  1.2611
  414MOL0     H55825   5.338   1.081   4.897 -0.4542  0.1610 -0.3119
  414MOL0     H55826   5.418   1.231   4.855  0.0384  0.5449  3.6761
  414MOL0     H55827   5.211   1.370   4.864 -2.9281  2.7017  3.6012
  414MOL0     H55828   5.118   1.221   4.902 -0.6761  1.9601 -2.1495
  414MOL0     H55829   5.342   1.350   5.069 -2.6651  4.9305 -2.2315
  414MOL0     H55830   5.169   1.361   5.099  0.9080  0.7600  0.5594
  414MOL0     H55831   5.348   1.112   5.107 -1.4954 -0.1851 -3.5827
  414MOL0     H55832   5.287   1.215   5.239  2.9927  1.2714 -1.7669
  414MOL0     H55833   5.124   1.030   5.068  3.4394 -0.7143 -0.5409
  414MOL0     H55834   5.163   1.009   5.244 -0.6403  1.2322  2.1270
  414MOL0     H55835   4.999   1.221   5.093 -1.7056  0.8971  0.6621
  414MOL0     H55836   4.924   1.085   5.175  1.2737 -2.4844  0.8515
  414MOL0     H55837   5.011   1.172   5.400  2.9115 -0.1867 -1.5713
  414MOL0     H55838   5.070   1.314   5.321  1.3404 -2.2076  0.3357
  414MOL0     H55839   4.843   1.365   5.222 -1.6193  3.4338  1.6495
  414MOL0     H55840   4.826   1.359   5.404  0.1426 -2.3906  1.4884
  414MOL0     H55841   4.681   1.197   5.529  1.0247  1.2081 -0.3324
  414MOL0     H55842   4.400   0.949   5.414 -0.0709  0.4436 -1.0890
  414MOL0     H55843   4.519   0.987   5.536 -0.0775 -0.0250  0.0632
  414MOL0     H55844   4.416   1.192   5.586  0.5094 -0.2057 -1.2076
  414MOL0     H55845   4.279   1.081   5.577 -2.4688  2.8405  0.8485
  414MOL0     H55846   4.212   1.160   5.380  1.2842 -2.0562  1.5602
  414MOL0     H55847   4.358   1.270   5.361 -1.9734  2.5033 -0.7325
  414MOL0     H55848   4.186   1.406   5.411  0.4701  2.0028 -0.0507
  414MOL0     H55849   4.282   1.395   5.556 -2.9929  2.3725  1.4730
  414MOL0     H55850   4.013   1.472   5.386 -2.5659  0.9935 -2.1981
  414MOL0     H55851   3.753   1.623   5.321 -0.4857 -0.2159  0.3103
  414MOL0     H55852   3.874   1.540   5.227  0.8983  0.1534  0.9930
  414MOL0     H55853   3.706   1.484   5.226 -0.9512  1.9082  0.2891
  414MOL0     H55854   3.369   1.210   5.278  0.1700  1.2414  0.3051
  414MOL0     H55855   3.137   1.229   5.228  2.6664  0.6007 -0.3691
  414MOL0     H55856   2.823   1.346   5.532  1.9144 -0.5981 -0.6375
  414MOL0     H55857   2.894   1.498   5.470  0.0982 -0.5018 -0.0180
  414MOL0     H55858   2.746   1.466   5.265 -0.5649  2.0395  0.5545
  414MOL0     H55859   2.674   1.328   5.367  0.4128  0.3862 -3.2269
  414MOL0     H55860   2.540   1.547   5.375 -0.6715  2.0209  2.7805
  414MOL0     H55861   2.683   1.632   5.396  0.0497  0.1879  1.1031
  414MOL0     H55862   2.569   1.435   5.610 -2.5493  1.7617  3.1037
  414MOL0     H55863   2.709   1.532   5.626 -1.3577 -0.2924  1.0544
  414MOL0     H55864   2.552   1.728   5.578 -2.4692  1.2901 -0.0088
  414MOL0     H55865   2.514   1.631   5.722  0.6698 -0.8980 -0.7220
  414MOL0     H55866   2.355   1.634   5.468  1.2190 -0.7205 -0.9929
  414MOL0     H55867   2.340   1.507   5.586  1.7716  0.1677  1.3240
  414MOL0     H55868   2.308   1.811   5.679 -2.9719  1.1029 -2.1773
  414MOL0     H55869   2.294   1.658   5.771  2.5059 -4.3309 -1.6315
  414MOL0     H55870   2.069   1.753   5.707  0.5741  0.8827 -0.6010
  414MOL0     H55871   2.105   1.599   5.633 -0.6103  0.6754 -0.4773
  414MOL0     H55872   3.065   1.431   5.597  1.4809 -1.1717  0.7328
  414MOL0     H55873   3.299   1.422   5.660  1.4155 -0.2211  0.0671
  414MOL0     H55874   3.668   1.244   5.662  1.3480 -2.7043 -0.8311
  414MOL0     H55875   3.902   1.201   5.705 -0.9773 -0.0231  0.6237
  414MOL0     H55876   5.316   1.222   4.471  0.3936  0.0494  0.2296
  414MOL0     H55877   5.498   1.145   4.314  0.3135  0.3446 -0.2894
  414MOL0     H55878   5.802   0.947   4.138  0.5673  1.2549  0.0214
  414MOL0     H55879   5.948   0.846   4.004 -2.6795 -1.1722  1.0394
  414MOL0     H55880   6.370   0.703   4.157  0.4501 -1.6913 -0.8537
  414MOL0     H55881   6.384   0.714   3.994 -1.5250  0.3882  0.6380
  414MOL0     H55882   6.418   0.956   4.189 -0.6141 -3.3520  3.3929
  414MOL0     H55883   6.407   0.977   4.002 -1.0061 -0.8579  0.2335
  414MOL0     H55884   6.575   0.789   3.998  0.3737  0.1723  0.1051
  414MOL0     H55885   6.597   0.827   4.172  0.5789 -0.0564  0.2760
  414MOL0     H55886   6.768   0.929   4.043 -0.4594 -1.0174 -1.3898
  414MOL0     H55887   6.669   1.048   4.116  0.8974  0.2706  0.3277
  414MOL0     H55888   6.636   1.128   3.692  1.2859 -0.3618 -0.4960
  414MOL0     H55889   6.267   0.857   4.292  0.2315  1.7617  0.2834
  414MOL0     H55890   6.095   0.928   4.459  0.9278  0.4597 -0.3829
  415MOL0     O55891   7.162   9.686   6.947  0.3044 -0.2350  0.6776
  415MOL0     C55892   7.241   9.623   7.015 -0.4153 -0.0836 -0.5500
  415MOL0     O55893   7.216   9.499   7.056 -1.0416  0.5888  0.1284
  415MOL0     C55894   7.093   9.436   7.020 -0.0830  0.0849  0.8592
  415MOL0     C55895   6.962   9.469   7.074  0.5500  0.0272  1.6428
  415MOL0     C55896   6.852   9.395   7.036 -0.4662 -0.0484  0.0844
  415MOL0     C55897   6.861   9.280   6.959 -0.4564  0.7849  0.3237
  415MOL0     O55898   6.754   9.205   6.923 -0.0034  0.4069 -0.3304
  415MOL0     C55899   6.760   9.070   6.982 -0.3911 -0.9109  0.4325
  415MOL0     C55900   6.621   9.004   6.990 -1.1976 -0.3199  0.5605
  415MOL0     C55901   6.550   9.037   7.124 -0.4000 -0.1446 -0.0115
  415MOL0     C55902   6.416   8.974   7.115 -0.7764  0.3645 -0.7324
  415MOL0     C55903   6.422   8.812   7.121  0.5046 -0.8035 -0.5350
  415MOL0     C55904   6.323   8.757   7.236  1.0627 -0.3747  0.2439
  415MOL0     C55905   6.392   8.777   7.364 -0.1988  0.6896  0.0404
  415MOL0     C55906   6.316   8.743   7.497  0.1124  0.0221 -0.3256
  415MOL0     N55907   6.207   8.844   7.517  0.3820 -0.3228  0.4301
  415MOL0     C55908   6.214   8.958   7.599 -0.1036  0.6483  0.0790
  415MOL0     C55909   6.085   8.982   7.615 -0.2620  0.0176 -0.1329
  415MOL0     C55910   6.042   9.112   7.690 -0.1184 -0.2610  0.2159
  415MOL0     C55911   5.891   9.096   7.724  0.5087 -0.2920  0.2265
  415MOL0     C55912   5.831   9.208   7.806 -0.3118  0.5579  0.6770
  415MOL0     C55913   5.679   9.219   7.812  0.1745  0.1278 -0.1031
  415MOL0     O55914   5.616   9.094   7.768  1.0827  0.0426  0.4214
  415MOL0     C55915   5.474   9.085   7.787  0.1803  0.4080  0.2196
  415MOL0     C55916   5.420   8.975   7.720  0.8865 -0.4094 -0.6198
  415MOL0     C55917   5.276   8.945   7.717 -0.3160  0.3889 -0.1355
  415MOL0     C55918   5.228   8.843   7.616  0.4582  0.3002  0.2467
  415MOL0     C55919   5.193   9.013   7.817  0.4117  0.0618  1.0176
  415MOL0     C55920   5.040   8.989   7.829  0.1184 -0.4159 -0.5477
  415MOL0     O55921   4.979   9.057   7.937 -0.6146  0.0059  0.1040
  415MOL0     C55922   4.840   9.068   7.933 -0.4158 -0.7698 -0.0114
  415MOL0     C55923   4.764   9.095   7.818 -0.3105 -0.0042 -0.3628
  415MOL0     C55924   4.622   9.105   7.836  0.5441  0.2705 -0.1405
  415MOL0     C55925   4.559   9.099   7.957 -0.2338 -0.0596  0.3249
  415MOL0     O55926   4.420   9.110   7.967  0.0173  0.6793  0.1781
  415MOL0     C55927   4.362   9.154   8.088  0.4738 -0.0787  0.4340
  415MOL0     C55928   4.221   9.196   8.055 -0.1054  0.5613  0.3377
  415MOL0     C55929   4.147   9.269   8.170 -0.1581 -0.7188  0.5979
  415MOL0     C55930   4.017   9.337   8.127 -0.2354 -0.3966 -0.6161
  415MOL0     C55931   3.945   9.388   8.247  0.8973 -0.2924  0.0610
  415MOL0     C55932   3.846   9.503   8.207 -0.0892 -0.2032 -0.7040
  415MOL0     C55933   3.756   9.539   8.331 -0.4289 -0.0146 -0.7834
  415MOL0     C55934   3.678   9.660   8.306  1.2865 -0.2982  0.8440
  415MOL0    Cl55935   3.560   9.674   8.444  0.0100  0.3660  0.2535
  415MOL0     C55936   4.634   9.087   8.074  1.1056 -0.1614 -0.5269
  415MOL0     C55937   4.765   9.057   8.055 -1.2446  0.7157  0.1122
  415MOL0     O55938   4.986   8.916   7.747  0.4614 -0.1158 -0.2422
  415MOL0     C55939   5.257   9.124   7.886  0.3785  0.1443 -0.2965
  415MOL0     C55940   5.391   9.164   7.872  0.8350 -0.5951 -0.1593
  415MOL0     N55941   6.006   8.897   7.552 -0.1460 -0.0687  0.4717
  415MOL0     N55942   6.078   8.816   7.493  0.0640 -0.1771  0.7860
  415MOL0     C55943   6.988   9.249   6.905 -0.1809  0.3036  0.0728
  415MOL0     C55944   7.102   9.320   6.940  0.1621 -0.6092 -0.5500
  415MOL0     C55945   7.380   9.678   7.036 -0.2283  0.2850  0.1329
  415MOL0     C55946   7.419   9.797   6.968 -0.2982  0.4312  0.7086
  415MOL0     C55947   7.541   9.855   6.998 -0.1103 -0.4820  0.0615
  415MOL0     C55948   7.627   9.798   7.088  0.4856  0.1685  0.5086
  415MOL0     O55949   7.749   9.852   7.110  0.5702 -0.1864  0.8399
  415MOL0     C55950   7.810   9.957   7.033 -0.6027 -0.6867  0.1116
  415MOL0     C55951   7.947   9.982   7.096 -1.5485  0.1639  0.6625
  415MOL0     C55952   8.020  10.091   7.018  0.0901  0.6195 -0.3868
  415MOL0     C55953   8.096  10.174   7.120  0.7917 -0.2680  0.3585
  415MOL0     C55954   8.158  10.290   7.049  0.9379  0.6998  0.3528
  415MOL0     C55955   8.217  10.391   7.013 -0.0001  0.4896  0.2622
  415MOL0     C55956   7.591   9.683   7.155 -1.1463 -0.4697  0.3066
  415MOL0     C55957   7.468   9.624   7.136 -0.4878  0.3705  0.1629
  415MOL0     H55958   6.965   9.552   7.144  0.6045  0.1423  1.5031
  415MOL0     H55959   6.755   9.411   7.081 -0.8299 -1.0630 -0.3193
  415MOL0     H55960   6.815   9.015   6.904  2.9266  0.6360  1.5157
  415MOL0     H55961   6.821   9.071   7.073 -1.0748  0.8838  0.8966
  415MOL0     H55962   6.561   9.035   6.904  1.8563 -1.1963 -2.0453
  415MOL0     H55963   6.641   8.897   6.989  0.6753 -0.1354  3.9479
  415MOL0     H55964   6.620   9.006   7.202 -0.4374  0.1699  0.1487
  415MOL0     H55965   6.537   9.145   7.133  1.7251  0.3073 -1.5718
  415MOL0     H55966   6.351   8.997   7.200 -0.2016 -0.7015  0.0249
  415MOL0     H55967   6.364   9.023   7.032  0.5023  3.0282 -0.0767
  415MOL0     H55968   6.400   8.771   7.022  0.5711  1.3343 -1.4798
  415MOL0     H55969   6.522   8.770   7.137 -0.4956 -2.3602  2.5069
  415MOL0     H55970   6.226   8.808   7.236  0.4209 -1.5687 -0.1168
  415MOL0     H55971   6.294   8.652   7.226 -0.5758  0.0752 -0.1323
  415MOL0     H55972   6.483   8.718   7.354  0.7569  1.7888  1.7143
  415MOL0     H55973   6.430   8.879   7.377  0.9408  0.2612  0.1036
  415MOL0     H55974   6.382   8.735   7.583 -0.0488 -1.8259 -0.3416
  415MOL0     H55975   6.255   8.652   7.501 -0.8951  0.7092  2.7226
  415MOL0     H55976   6.300   9.016   7.630 -1.4476  2.3514  0.8286
  415MOL0     H55977   6.112   9.110   7.774 -0.2585  1.0507  0.3723
  415MOL0     H55978   6.073   9.198   7.631 -0.0392 -0.7537 -0.4674
  415MOL0     H55979   5.864   9.001   7.770 -3.9013  0.4612 -0.3998
  415MOL0     H55980   5.853   9.089   7.621  1.9604 -2.1280 -0.2546
  415MOL0     H55981   5.864   9.297   7.750  1.8395 -1.1472 -0.9479
  415MOL0     H55982   5.865   9.220   7.910  0.4925 -3.9915  1.1161
  415MOL0     H55983   5.634   9.297   7.750  0.6269  0.6100  0.1711
  415MOL0     H55984   5.654   9.228   7.918 -0.7152 -0.7784 -0.2228
  415MOL0     H55985   5.494   8.915   7.668  3.2379  0.6306  1.3155
  415MOL0     H55986   5.307   8.768   7.601  1.0084  1.2024 -1.6115
  415MOL0     H55987   5.151   8.778   7.659  1.4091  0.2337  1.9463
  415MOL0     H55988   5.218   8.879   7.513 -1.4816 -0.4176  0.1485
  415MOL0     H55989   4.815   9.103   7.723 -0.5896 -2.3499 -0.7788
  415MOL0     H55990   4.568   9.132   7.746  2.2897 -0.5545 -1.4905
  415MOL0     H55991   4.355   9.077   8.166 -1.2827  0.2410  0.6321
  415MOL0     H55992   4.415   9.242   8.126  1.7179 -0.8498  0.5363
  415MOL0     H55993   4.220   9.254   7.963 -0.3108 -1.5065 -1.0275
  415MOL0     H55994   4.162   9.109   8.024 -1.8214  1.9912 -0.6030
  415MOL0     H55995   4.211   9.342   8.221  0.0297 -1.5401  1.5666
  415MOL0     H55996   4.138   9.199   8.254 -0.3919  1.1988  2.2476
  415MOL0     H55997   4.038   9.415   8.054  0.3780 -1.4465 -1.5911
  415MOL0     H55998   3.948   9.271   8.073 -2.7006  3.1770 -2.2534
  415MOL0     H55999   4.019   9.420   8.320  0.6065  2.9701 -0.8907
  415MOL0     H56000   3.889   9.304   8.290  1.8869  0.1487  2.3190
  415MOL0     H56001   3.889   9.593   8.161 -4.0386  0.8380 -2.8352
  415MOL0     H56002   3.784   9.473   8.122 -0.1923  0.7243 -0.9746
  415MOL0     H56003   3.820   9.553   8.418 -1.8322 -0.5840  0.3864
  415MOL0     H56004   3.687   9.456   8.348 -1.1171  0.6128 -0.4812
  415MOL0     H56005   3.621   9.652   8.213  2.4152 -1.1154  0.1935
  415MOL0     H56006   3.746   9.745   8.301  1.9793 -0.8516  0.5356
  415MOL0     H56007   4.605   9.082   8.179  0.7604  1.8959 -0.4795
  415MOL0     H56008   4.811   9.048   8.153 -4.0729  0.4152  1.5092
  415MOL0     H56009   5.212   9.190   7.959  0.3672  0.9658 -1.0313
  415MOL0     H56010   5.423   9.255   7.922 -0.6081 -1.2509  2.1126
  415MOL0     H56011   7.001   9.165   6.837  1.3163  1.0693 -0.6416
  415MOL0     H56012   7.200   9.296   6.899  0.9472  1.5109 -0.0834
  415MOL0     H56013   7.357   9.847   6.894  2.7227  1.2076 -1.4969
  415MOL0     H56014   7.571   9.943   6.942  1.0650 -1.0328 -0.2095
  415MOL0     H56015   7.832   9.918   6.933  0.7112 -1.0361  0.5155
  415MOL0     H56016   7.758  10.053   7.037 -0.2200 -0.4976  0.6962
  415MOL0     H56017   8.018   9.899   7.104 -1.7298 -0.1121 -0.4286
  415MOL0     H56018   7.932  10.006   7.201 -0.6132 -3.1870  1.6939
  415MOL0     H56019   7.946  10.156   6.971 -2.8515 -0.7329  2.0242
  415MOL0     H56020   8.080  10.038   6.944  0.4603 -1.2664  1.1588
  415MOL0     H56021   8.175  10.115   7.168  2.8021  2.5071  0.7007
  415MOL0     H56022   8.039  10.221   7.200 -1.3586  0.4721 -1.5003
  415MOL0     H56023   8.263  10.484   6.987  0.1689  0.0755 -0.9914
  415MOL0     H56024   7.674   9.644   7.214 -1.2069 -0.3025  0.5015
  415MOL0     H56025   7.437   9.536   7.191  0.7527 -0.3392 -0.2379
  416MOL0     O56026   9.893  10.579   8.664 -0.4182  0.5058  0.6631
  416MOL0     C56027   9.895  10.667   8.753  0.4317  0.1743  0.2212
  416MOL0     O56028   9.778  10.729   8.815  0.1338 -0.2808  0.0973
  416MOL0     C56029   9.656  10.683   8.761  0.5026  0.1746 -0.2023
  416MOL0     C56030   9.630  10.685   8.628 -0.4668 -0.2029 -0.3349
  416MOL0     C56031   9.506  10.649   8.574 -0.4383 -0.4527  0.3479
  416MOL0     C56032   9.396  10.609   8.658 -0.8034  0.0897 -0.5026
  416MOL0     O56033   9.277  10.572   8.602 -0.0832 -0.2170 -0.5284
  416MOL0     C56034   9.165  10.563   8.685  0.1541 -0.1794 -0.4151
  416MOL0     C56035   9.135  10.424   8.741  0.4968  0.3155  0.5036
  416MOL0     C56036   9.111  10.321   8.626 -0.6650 -0.5440  0.0072
  416MOL0     C56037   9.053  10.190   8.677  0.1929  0.1750  0.6851
  416MOL0     C56038   9.010  10.091   8.560 -0.6964 -1.2936  0.7309
  416MOL0     C56039   8.862  10.082   8.519  0.5679  0.4786 -0.7323
  416MOL0     C56040   8.770  10.029   8.632 -0.2698  0.0072  0.1994
  416MOL0     C56041   8.671  10.131   8.685 -0.4814  0.5966  0.3464
  416MOL0     N56042   8.542  10.080   8.723 -0.3274  0.3049 -0.1420
  416MOL0     C56043   8.450  10.006   8.647  0.4669  0.1131  0.3723
  416MOL0     C56044   8.345   9.961   8.725  0.1134  0.0194  0.0589
  416MOL0     C56045   8.228   9.880   8.675  0.4787  0.2966 -0.7440
  416MOL0     C56046   8.102   9.882   8.766  0.0985 -0.2113 -0.7698
  416MOL0     C56047   8.003   9.981   8.705 -0.9589 -0.6670  0.5687
  416MOL0     C56048   7.901  10.022   8.805  0.2892  0.3446 -0.3190
  416MOL0     O56049   7.817  10.133   8.770 -0.1696 -0.2991  0.7004
  416MOL0     C56050   7.713  10.106   8.683  0.3259  0.2852  0.4000
  416MOL0     C56051   7.629  10.212   8.654 -1.1778  0.2475  0.2900
  416MOL0     C56052   7.514  10.203   8.574 -0.1790 -0.0623 -0.5120
  416MOL0     C56053   7.421  10.328   8.569 -0.0887 -0.3151 -0.4260
  416MOL0     C56054   7.482  10.081   8.505  0.1635 -0.1261  0.0186
  416MOL0     C56055   7.364  10.055   8.422 -1.2701  0.1226 -0.5220
  416MOL0     O56056   7.346   9.927   8.371  0.2863  0.4201  0.2542
  416MOL0     C56057   7.266   9.919   8.263 -0.4716 -0.2849 -0.0029
  416MOL0     C56058   7.163   9.820   8.268 -0.1668 -0.2872  0.2099
  416MOL0     C56059   7.078   9.800   8.162  0.5496 -0.7928  0.7785
  416MOL0     C56060   7.086   9.867   8.044  0.3979  0.3893 -0.1923
  416MOL0     O56061   6.991   9.844   7.950  0.2903  1.0104 -0.1068
  416MOL0     C56062   6.976   9.941   7.846 -0.0889 -0.1311 -0.0542
  416MOL0     C56063   6.840   9.895   7.776 -1.3361 -0.6251  0.1239
  416MOL0     C56064   6.840   9.765   7.704 -0.3425 -0.5097 -0.1022
  416MOL0     C56065   6.932   9.756   7.582 -0.3125  0.2021  1.3659
  416MOL0     C56066   6.916   9.618   7.516  0.4102  0.2603  0.4913
  416MOL0     C56067   6.793   9.631   7.424 -0.2958 -0.7740 -0.5398
  416MOL0     C56068   6.754   9.492   7.369  0.2946  0.8894 -0.1719
  416MOL0     C56069   6.641   9.431   7.448 -0.1375 -0.3291 -0.4815
  416MOL0    Cl56070   6.600   9.261   7.414  0.2210 -0.0213  0.2239
  416MOL0     C56071   7.188   9.972   8.031  0.3574 -0.0502 -0.2723
  416MOL0     C56072   7.276   9.997   8.147  0.4884 -0.1433 -0.2074
  416MOL0     O56073   7.279  10.139   8.423  0.7138  0.5135  0.1035
  416MOL0     C56074   7.585   9.980   8.513 -0.1593 -1.2077  0.1656
  416MOL0     C56075   7.693   9.992   8.609  0.3584  0.9273 -0.3101
  416MOL0     N56076   8.386   9.997   8.855 -0.1822  0.3139 -0.4711
  416MOL0     N56077   8.500  10.062   8.850 -1.1660  0.5958 -0.8067
  416MOL0     C56078   9.438  10.584   8.796 -0.3492 -0.0347 -0.0107
  416MOL0     C56079   9.561  10.636   8.849  0.6850  0.3267 -0.2403
  416MOL0     C56080  10.022  10.710   8.813  0.9627 -0.3468  0.6237
  416MOL0     C56081  10.144  10.672   8.762  0.2383 -0.3597  0.8832
  416MOL0     C56082  10.262  10.720   8.824 -0.3369 -0.0626 -0.6054
  416MOL0     C56083  10.260  10.802   8.939  0.6490  0.2078 -0.6266
  416MOL0     O56084  10.375  10.830   9.011 -0.7465  0.5276 -0.4789
  416MOL0     C56085  10.474  10.885   8.917  0.0605 -0.5252  0.0527
  416MOL0     C56086  10.573  10.972   8.991 -0.2013  0.3216  0.2816
  416MOL0     C56087  10.629  10.920   9.124 -0.0918  0.6750 -0.7389
  416MOL0     C56088  10.754  10.829   9.115 -0.7549 -0.2449 -0.1599
  416MOL0     C56089  10.806  10.797   9.248  1.3030  0.3176  0.8776
  416MOL0     C56090  10.841  10.772   9.357 -0.9001 -0.9513 -0.2568
  416MOL0     C56091  10.137  10.832   8.979  0.4587 -0.4957  0.2143
  416MOL0     C56092  10.023  10.785   8.925  0.3898 -1.0454 -0.5091
  416MOL0     H56093   9.692  10.728   8.550  0.6968 -1.2606 -0.0261
  416MOL0     H56094   9.494  10.667   8.468  3.0141 -0.7900 -0.1947
  416MOL0     H56095   9.171  10.632   8.770 -1.9782  0.5697 -0.8049
  416MOL0     H56096   9.086  10.601   8.620  0.6325 -0.2227 -1.0253
  416MOL0     H56097   9.215  10.382   8.803  1.1808  0.2862 -0.3852
  416MOL0     H56098   9.039  10.428   8.794  0.6564  0.9718  0.7523
  416MOL0     H56099   9.057  10.355   8.538  1.7548 -1.5287 -1.9803
  416MOL0     H56100   9.208  10.312   8.577 -1.3873  0.2958 -1.6361
  416MOL0     H56101   9.133  10.133   8.725 -1.5749 -2.5105  0.6896
  416MOL0     H56102   8.982  10.214   8.757  0.0084  1.0890  0.2575
  416MOL0     H56103   9.060  10.110   8.464 -0.2798  3.1404  1.6119
  416MOL0     H56104   9.038   9.990   8.593 -0.8927 -0.4078  3.8509
  416MOL0     H56105   8.822  10.180   8.491 -1.9385 -0.6712 -1.4221
  416MOL0     H56106   8.853  10.014   8.434 -0.2727  0.8208 -0.9236
  416MOL0     H56107   8.721   9.942   8.588 -1.5060 -0.9777  3.2627
  416MOL0     H56108   8.830   9.989   8.714 -0.7192 -0.4051  0.3357
  416MOL0     H56109   8.659  10.214   8.616  0.4646 -1.2339 -2.1619
  416MOL0     H56110   8.712  10.169   8.779  0.4564 -0.4827  0.3944
  416MOL0     H56111   8.451   9.988   8.540  1.1805  0.0689  0.3816
  416MOL0     H56112   8.204   9.915   8.574  0.9421  3.0791  0.0081
  416MOL0     H56113   8.264   9.777   8.667 -1.9086 -0.5655 -1.0030
  416MOL0     H56114   8.119   9.906   8.872 -0.3612 -1.3481 -0.4141
  416MOL0     H56115   8.051   9.785   8.769 -0.0681 -0.2310  3.9223
  416MOL0     H56116   7.976   9.958   8.601  1.2005 -1.8331  0.2148
  416MOL0     H56117   8.058  10.073   8.681 -0.5166 -1.0352  0.1399
  416MOL0     H56118   7.962  10.071   8.881  1.2084 -0.4438 -0.5226
  416MOL0     H56119   7.848   9.933   8.840 -1.0963  1.0968 -0.4170
  416MOL0     H56120   7.653  10.307   8.700  1.2825 -0.0221 -0.3028
  416MOL0     H56121   7.331  10.322   8.631  0.2280 -0.2861  0.0407
  416MOL0     H56122   7.471  10.417   8.608 -0.1566  0.5106 -2.1162
  416MOL0     H56123   7.403  10.348   8.463 -0.0090  0.9925 -0.2054
  416MOL0     H56124   7.137   9.755   8.351  2.7308 -1.3725  0.3737
  416MOL0     H56125   6.995   9.730   8.165  0.9775 -1.2742  1.6988
  416MOL0     H56126   6.958  10.035   7.899 -1.2250 -0.3514 -0.0412
  416MOL0     H56127   7.064   9.942   7.780 -1.3303  0.8845 -1.7881
  416MOL0     H56128   6.763   9.893   7.854  0.8255 -0.6933  2.3514
  416MOL0     H56129   6.806   9.975   7.709 -1.3698 -2.4154 -2.1312
  416MOL0     H56130   6.735   9.758   7.674 -0.3784  2.8243 -1.2186
  416MOL0     H56131   6.860   9.681   7.771 -2.2369 -0.6989  0.2842
  416MOL0     H56132   6.919   9.834   7.506  0.0554 -0.2850  0.7997
  416MOL0     H56133   7.034   9.757   7.621  0.3471 -0.5855 -0.2604
  416MOL0     H56134   6.876   9.553   7.594 -0.3328 -0.9522 -0.8607
  416MOL0     H56135   7.003   9.584   7.459  0.4785 -0.6809  1.1345
  416MOL0     H56136   6.707   9.672   7.477  0.6793 -0.2996  0.7494
  416MOL0     H56137   6.815   9.697   7.340 -0.7650 -0.3463 -0.3332
  416MOL0     H56138   6.845   9.431   7.368  0.5246  1.1883  1.0194
  416MOL0     H56139   6.721   9.506   7.266  0.7758  0.6831 -0.3591
  416MOL0     H56140   6.553   9.493   7.429  0.0029 -0.2868 -1.0155
  416MOL0     H56141   6.662   9.457   7.552  0.2402 -3.1230  0.2010
  416MOL0     H56142   7.194  10.028   7.938 -0.2165 -0.2111 -0.4108
  416MOL0     H56143   7.359  10.066   8.151  1.7668 -1.5756 -0.9888
  416MOL0     H56144   7.571   9.887   8.460  2.8185 -0.1360 -2.8061
  416MOL0     H56145   7.754   9.903   8.622  2.6693  2.5625  0.7715
  416MOL0     H56146   9.372  10.540   8.870 -0.5572  2.8163  1.6172
  416MOL0     H56147   9.583  10.617   8.953  1.8043 -2.8034 -0.9500
  416MOL0     H56148  10.157  10.605   8.677 -0.4097 -0.7184  1.0556
  416MOL0     H56149  10.360  10.698   8.783 -0.2443  2.4273 -1.9236
  416MOL0     H56150  10.529  10.809   8.861  0.8095 -1.3397  1.8213
  416MOL0     H56151  10.420  10.952   8.848  1.6527  1.6086  0.7479
  416MOL0     H56152  10.519  11.062   9.022 -0.5868 -0.3501  1.6128
  416MOL0     H56153  10.663  10.999   8.934  0.4363 -1.0594  0.5806
  416MOL0     H56154  10.548  10.865   9.174  0.9780  0.6524  1.0770
  416MOL0     H56155  10.657  11.005   9.187 -0.0050 -0.3550  0.6582
  416MOL0     H56156  10.842  10.883   9.077 -0.6937 -0.2723 -0.0557
  416MOL0     H56157  10.748  10.732   9.066  1.2763 -0.1906 -0.6276
  416MOL0     H56158  10.863  10.754   9.460  2.3000 -0.6416 -0.7869
  416MOL0     H56159  10.136  10.896   9.067 -1.9953  1.9323 -1.4018
  416MOL0     H56160   9.933  10.829   8.967  0.0074 -0.7681 -1.5792
  417MOL0     O56161  11.067   9.858   3.078  0.4748  0.5909  0.1338
  417MOL0     C56162  11.035   9.791   3.176  0.0743 -0.1380  0.1416
  417MOL0     O56163  10.922   9.793   3.242  0.4356 -0.6106  0.3658
  417MOL0     C56164  10.830   9.895   3.216  0.1755 -0.1733 -0.3193
  417MOL0     C56165  10.829  10.021   3.280  0.1212  0.6637 -0.2619
  417MOL0     C56166  10.730  10.121   3.263  0.5089  0.0829 -0.5329
  417MOL0     C56167  10.627  10.091   3.177 -0.2955 -0.7063  0.3603
  417MOL0     O56168  10.528  10.176   3.126 -0.7822 -0.1944 -0.4278
  417MOL0     C56169  10.499  10.286   3.211 -0.0253 -0.0033  0.5784
  417MOL0     C56170  10.354  10.322   3.209  0.0721 -0.1914  0.0807
  417MOL0     C56171  10.302  10.372   3.071 -0.3106  0.6132  1.0815
  417MOL0     C56172  10.151  10.397   3.081 -0.2618 -0.6378 -0.4187
  417MOL0     C56173  10.093  10.440   2.943 -0.5438 -0.0785  0.6302
  417MOL0     C56174  10.101  10.592   2.933  0.8812  0.9715  1.2087
  417MOL0     C56175  10.038  10.643   2.804  0.8174 -0.8579  0.3197
  417MOL0     C56176   9.887  10.626   2.793  0.2940  0.1012  0.3803
  417MOL0     N56177   9.832  10.677   2.672 -0.6302 -0.3932 -0.2068
  417MOL0     C56178   9.766  10.800   2.664 -0.5595  0.7087  0.1997
  417MOL0     C56179   9.742  10.825   2.532  1.2327  0.0488  0.7087
  417MOL0     C56180   9.670  10.953   2.487  0.3943 -0.2780 -0.4714
  417MOL0     C56181   9.577  10.925   2.372  0.7247  0.2104 -0.4071
  417MOL0     C56182   9.527  11.050   2.306 -0.2613 -0.4295  0.6417
  417MOL0     C56183   9.420  11.119   2.375 -0.4309 -0.2718  0.3362
  417MOL0     O56184   9.297  11.037   2.359  0.9162 -0.5793  0.5669
  417MOL0     C56185   9.216  11.053   2.248 -0.3102  0.2271  0.4061
  417MOL0     C56186   9.234  11.155   2.153 -0.1333 -0.0972  0.2216
  417MOL0     C56187   9.153  11.155   2.040 -0.7569 -0.5846 -0.2247
  417MOL0     C56188   9.185  11.259   1.936 -1.1199 -0.4452  0.9903
  417MOL0     C56189   9.037  11.070   2.033  0.2167  0.1011 -0.3839
  417MOL0     C56190   8.937  11.085   1.925  0.1407  0.0953 -0.2486
  417MOL0     O56191   8.861  10.973   1.919 -1.2235 -0.2458  0.3401
  417MOL0     C56192   8.778  10.941   1.810  0.9381 -1.3258 -0.2941
  417MOL0     C56193   8.693  10.837   1.831  0.3703 -0.0064  0.1926
  417MOL0     C56194   8.601  10.794   1.726 -0.2810 -0.6529  0.7058
  417MOL0     C56195   8.588  10.876   1.612  0.4208 -0.0605  0.1500
  417MOL0     O56196   8.479  10.853   1.534  0.2744  0.2469  1.0376
  417MOL0     C56197   8.388  10.957   1.474 -0.2907  0.0669 -0.1730
  417MOL0     C56198   8.265  10.879   1.449  0.4812 -0.7068 -0.5736
  417MOL0     C56199   8.150  10.959   1.387  0.0456  0.8076 -0.3339
  417MOL0     C56200   8.010  10.895   1.376 -0.2940 -0.7398 -0.1081
  417MOL0     C56201   7.909  10.984   1.301 -0.2430  0.2166  0.7287
  417MOL0     C56202   7.948  11.014   1.153 -0.6066  0.7451  0.3004
  417MOL0     C56203   8.020  10.893   1.082  0.8010  0.1206  0.6185
  417MOL0     C56204   8.043  10.919   0.931  0.0940 -0.6685 -0.3830
  417MOL0    Cl56205   8.184  11.033   0.908  0.0503  0.1367 -0.4324
  417MOL0     C56206   8.663  10.992   1.602 -0.2832  0.3901 -0.4398
  417MOL0     C56207   8.771  11.018   1.694 -0.1690 -0.4153  0.1343
  417MOL0     O56208   8.916  11.194   1.868  0.2171 -0.0720  0.4204
  417MOL0     C56209   9.019  10.975   2.130 -0.3647  0.5062  0.2882
  417MOL0     C56210   9.108  10.965   2.240 -0.6080 -0.1517 -0.0411
  417MOL0     N56211   9.808  10.726   2.464 -0.1752  0.6717  0.2715
  417MOL0     N56212   9.863  10.637   2.547  0.2677  0.2926 -0.6431
  417MOL0     C56213  10.626   9.971   3.109 -0.4015 -0.2667  0.5036
  417MOL0     C56214  10.721   9.872   3.136  0.1698  0.1139  0.0515
  417MOL0     C56215  11.139   9.696   3.227  1.0183 -0.2811  0.3069
  417MOL0     C56216  11.231   9.647   3.138 -0.5239 -0.0217  0.4641
  417MOL0     C56217  11.324   9.552   3.180 -0.0823  0.8360 -0.0239
  417MOL0     C56218  11.319   9.504   3.312  0.7522  1.3433 -0.1912
  417MOL0     O56219  11.410   9.403   3.334  0.3768 -0.0160  0.4083
  417MOL0     C56220  11.437   9.377   3.471  1.0960  0.3747  0.2733
  417MOL0     C56221  11.566   9.287   3.485 -0.0470 -0.9689 -0.1951
  417MOL0     C56222  11.590   9.265   3.634 -0.1040  0.3984 -1.7333
  417MOL0     C56223  11.677   9.144   3.663  0.1520 -0.1574  0.8124
  417MOL0     C56224  11.766   9.157   3.783  0.1733 -0.2182  0.5193
  417MOL0     C56225  11.851   9.182   3.874  0.3147  0.4483  0.5471
  417MOL0     C56226  11.221   9.553   3.400 -0.8200  0.8227 -0.1762
  417MOL0     C56227  11.133   9.650   3.353 -0.4260 -0.3494 -1.1485
  417MOL0     H56228  10.901  10.053   3.355 -1.0538  2.5279  0.1271
  417MOL0     H56229  10.729  10.214   3.319 -2.7980 -0.2427  0.1132
  417MOL0     H56230  10.528  10.264   3.314  3.2712  1.2033  0.0296
  417MOL0     H56231  10.544  10.383   3.188 -0.2514 -0.1458 -0.5350
  417MOL0     H56232  10.304  10.225   3.223 -1.7177  0.7375  0.3703
  417MOL0     H56233  10.331  10.393   3.289  0.1600 -0.0414 -0.0274
  417MOL0     H56234  10.352  10.469   3.058  1.5586 -0.6005 -1.7130
  417MOL0     H56235  10.320  10.304   2.987  0.3817  3.5669 -1.3611
  417MOL0     H56236  10.112  10.301   3.117  2.0399 -1.1534  0.9315
  417MOL0     H56237  10.131  10.468   3.162  0.3044  1.5213 -2.0761
  417MOL0     H56238  10.159  10.398   2.866 -0.2167  2.9993 -0.8949
  417MOL0     H56239   9.990  10.403   2.939  0.3075 -2.7788  1.1504
  417MOL0     H56240  10.050  10.639   3.017  2.1183 -0.1912  2.6706
  417MOL0     H56241  10.206  10.624   2.939  0.6156  1.8720  1.2109
  417MOL0     H56242  10.068  10.748   2.799  2.0786 -1.2611 -2.3124
  417MOL0     H56243  10.085  10.601   2.715  2.2925  1.2766  0.0057
  417MOL0     H56244   9.842  10.680   2.877 -0.1844  0.9247 -0.3902
  417MOL0     H56245   9.849  10.524   2.809  0.5979 -0.2119 -0.8495
  417MOL0     H56246   9.730  10.859   2.748  1.6408  0.9261  1.0532
  417MOL0     H56247   9.618  10.971   2.582  0.5993 -3.6959  0.4279
  417MOL0     H56248   9.733  11.040   2.470  2.7354 -1.7525  0.1326
  417MOL0     H56249   9.491  10.863   2.398  0.4267 -0.0613 -1.9514
  417MOL0     H56250   9.636  10.868   2.300 -0.9247 -2.9428  0.5768
  417MOL0     H56251   9.487  11.020   2.208 -0.1923 -2.3307  1.1652
  417MOL0     H56252   9.615  11.111   2.284 -0.1274 -1.3154 -1.5991
  417MOL0     H56253   9.412  11.221   2.336 -0.3988 -1.0394 -1.8308
  417MOL0     H56254   9.434  11.128   2.483  0.0220  0.7965  0.2026
  417MOL0     H56255   9.317  11.224   2.150 -1.3940  1.4627  0.2731
  417MOL0     H56256   9.121  11.346   1.957 -1.1511 -0.4680  0.9883
  417MOL0     H56257   9.289  11.293   1.944 -0.5049 -1.9897 -0.0756
  417MOL0     H56258   9.174  11.221   1.834  2.9742  0.1456  0.1610
  417MOL0     H56259   8.707  10.805   1.933  3.0910  2.0283  0.5737
  417MOL0     H56260   8.548  10.699   1.723  0.8127 -1.3091  1.5896
  417MOL0     H56261   8.383  11.035   1.552  1.9993 -1.1018  1.2493
  417MOL0     H56262   8.422  10.993   1.377 -3.4700  0.0156 -1.4216
  417MOL0     H56263   8.280  10.785   1.394 -0.6001 -0.0219 -2.1366
  417MOL0     H56264   8.234  10.849   1.550  0.9226 -2.1320 -0.8296
  417MOL0     H56265   8.190  10.984   1.288 -0.5863 -0.5149 -0.9467
  417MOL0     H56266   8.140  11.051   1.446 -3.1784  0.1307  0.3573
  417MOL0     H56267   8.012  10.798   1.325 -0.6248  0.4729 -2.5642
  417MOL0     H56268   7.972  10.879   1.478 -1.8621 -2.0416 -0.8471
  417MOL0     H56269   7.888  11.077   1.354 -0.4922  2.0915 -2.4329
  417MOL0     H56270   7.811  10.936   1.304  0.4527 -1.2178  3.2188
  417MOL0     H56271   7.856  11.045   1.103 -2.4021 -1.7566  1.7757
  417MOL0     H56272   8.018  11.097   1.166 -1.6985  1.5563  1.2508
  417MOL0     H56273   7.962  10.802   1.097  0.4891 -0.0262 -1.2828
  417MOL0     H56274   8.122  10.876   1.119  0.3682 -1.8012  1.0097
  417MOL0     H56275   7.960  10.978   0.892  1.7208  3.2381  1.4879
  417MOL0     H56276   8.054  10.822   0.881 -1.4047 -1.9700  1.6387
  417MOL0     H56277   8.630  11.056   1.521  0.1659 -0.9466 -1.7272
  417MOL0     H56278   8.838  11.103   1.687 -0.4737 -0.0488  1.4873
  417MOL0     H56279   8.940  10.901   2.117  0.7317 -0.6695  0.1303
  417MOL0     H56280   9.100  10.886   2.313 -3.3562  0.6844  0.6771
  417MOL0     H56281  10.552   9.950   3.033 -0.6986  2.0899  0.0824
  417MOL0     H56282  10.707   9.774   3.091 -0.7883 -0.1315  0.8297
  417MOL0     H56283  11.226   9.678   3.034  3.0525  1.3235  0.5497
  417MOL0     H56284  11.394   9.521   3.103 -2.7425  0.0212 -2.3363
  417MOL0     H56285  11.443   9.463   3.538 -1.4968  0.1160  0.9166
  417MOL0     H56286  11.350   9.322   3.507 -0.3829  0.1079 -3.2535
  417MOL0     H56287  11.645   9.342   3.433 -1.9291  1.2899 -0.8401
  417MOL0     H56288  11.563   9.191   3.433 -1.4048  0.2781 -2.5633
  417MOL0     H56289  11.492   9.247   3.679 -0.1588  4.1193 -0.0024
  417MOL0     H56290  11.633   9.352   3.685 -1.5858 -0.3177  0.9217
  417MOL0     H56291  11.744   9.125   3.579 -2.1892 -0.3854 -1.1026
  417MOL0     H56292  11.605   9.062   3.674  0.4459 -0.7383 -1.2842
  417MOL0     H56293  11.914   9.204   3.957  0.5093 -0.7632  0.7382
  417MOL0     H56294  11.234   9.532   3.505  1.5957 -0.9761 -0.7532
  417MOL0     H56295  11.058   9.685   3.424  1.4548  1.7830 -0.1044
  418MOL0     O56296  10.974   0.392   0.461  0.2000  0.7621 -0.8840
  418MOL0     C56297  11.072   0.407   0.538 -0.6398  0.7187 -0.2467
  418MOL0     O56298  11.068   0.431   0.679 -0.1042 -0.4946  0.1062
  418MOL0     C56299  10.956   0.420   0.754 -0.0930 -0.0046 -0.1260
  418MOL0     C56300  10.845   0.341   0.723 -0.8398 -0.5190 -0.0734
  418MOL0     C56301  10.734   0.331   0.805 -0.6167  0.2708  0.4009
  418MOL0     C56302  10.717   0.402   0.922 -0.5718 -0.6439 -0.5541
  418MOL0     O56303  10.605   0.409   1.002 -0.2608 -0.0294 -0.9890
  418MOL0     C56304  10.476   0.361   0.942  0.6634 -0.7815  0.1449
  418MOL0     C56305  10.355   0.399   1.022  0.1864 -0.0204  0.2437
  418MOL0     C56306  10.242   0.326   0.963  0.5171  0.4902  0.2017
  418MOL0     C56307  10.122   0.349   1.056  0.1923  0.0035  0.2151
  418MOL0     C56308   9.999   0.300   0.979  0.0742  0.6869  0.3477
  418MOL0     C56309   9.880   0.336   1.067  0.2991 -1.0453 -0.7379
  418MOL0     C56310   9.751   0.297   0.993 -0.3366 -0.6138  0.0590
  418MOL0     C56311   9.725   0.152   1.014  1.3369  0.8134 -0.5081
  418MOL0     N56312   9.589   0.116   0.969 -0.3572  0.3016  0.0546
  418MOL0     C56313   9.557   0.001   0.899 -0.2111  0.0157 -0.3753
  418MOL0     C56314   9.426   0.013   0.875  1.0474  0.8106 -0.4228
  418MOL0     C56315   9.353  -0.080   0.791 -0.2806  0.7905  0.2795
  418MOL0     C56316   9.203  -0.107   0.819 -0.1737 -0.5767 -1.1129
  418MOL0     C56317   9.115   0.018   0.802 -0.6439  0.2354  0.4432
  418MOL0     C56318   8.961  -0.011   0.828 -0.1682 -0.1432  0.9238
  418MOL0     O56319   8.915  -0.111   0.729  0.0011 -0.2566  0.4910
  418MOL0     C56320   8.776  -0.112   0.706  0.4903  0.4583  1.2303
  418MOL0     C56321   8.685  -0.073   0.803 -0.2087 -0.4338 -0.1057
  418MOL0     C56322   8.548  -0.103   0.788 -0.8521  0.5283 -0.5173
  418MOL0     C56323   8.454  -0.073   0.898 -0.5299  0.2588  0.1760
  418MOL0     C56324   8.510  -0.171   0.663  0.2089  0.1761  0.3579
  418MOL0     C56325   8.368  -0.213   0.640  0.5463 -0.2700 -0.1500
  418MOL0     O56326   8.358  -0.332   0.570 -1.1122 -0.6450  0.0658
  418MOL0     C56327   8.250  -0.377   0.510  0.4348  0.3728 -0.6200
  418MOL0     C56328   8.163  -0.303   0.432  0.1295  0.6112 -0.6553
  418MOL0     C56329   8.053  -0.358   0.367  0.3447  1.3931 -0.6777
  418MOL0     C56330   8.020  -0.495   0.390  0.1967  0.4400  0.7368
  418MOL0     O56331   7.913  -0.547   0.330 -0.2633 -0.3569 -0.2242
  418MOL0     C56332   7.785  -0.497   0.360 -0.4747 -0.6016 -0.4669
  418MOL0     C56333   7.674  -0.604   0.328 -0.3329  0.9793  0.3766
  418MOL0     C56334   7.675  -0.634   0.180  0.9218  0.2891  0.3411
  418MOL0     C56335   7.581  -0.533   0.111  0.7870  0.7262 -0.0554
  418MOL0     C56336   7.582  -0.548  -0.041  0.0854  0.9654 -0.0733
  418MOL0     C56337   7.497  -0.435  -0.090 -0.8374  0.4120  0.5469
  418MOL0     C56338   7.467  -0.438  -0.249 -0.1907 -0.1961 -0.8360
  418MOL0     C56339   7.386  -0.317  -0.288 -0.0245 -0.1964  0.3845
  418MOL0    Cl56340   7.325  -0.347  -0.453  0.4417 -0.2375 -0.3693
  418MOL0     C56341   8.112  -0.568   0.464 -0.5393 -0.3069 -0.7020
  418MOL0     C56342   8.226  -0.517   0.526  0.1837  0.1060 -0.2837
  418MOL0     O56343   8.270  -0.139   0.671 -0.2588  0.9796  0.2458
  418MOL0     C56344   8.600  -0.204   0.560  0.3182 -0.4124 -0.9903
  418MOL0     C56345   8.735  -0.178   0.590 -0.0764  0.0764 -0.1152
  418MOL0     N56346   9.382   0.130   0.936  0.4372 -0.0941 -0.0484
  418MOL0     N56347   9.472   0.183   1.003  0.4871 -0.2956 -0.4290
  418MOL0     C56348  10.820   0.486   0.947  0.4445  0.7252  0.6117
  418MOL0     C56349  10.935   0.497   0.872  0.9973 -0.5000 -0.6104
  418MOL0     C56350  11.211   0.398   0.486  0.1710 -0.2494 -0.2217
  418MOL0     C56351  11.227   0.368   0.349  0.0904 -0.1076  0.0361
  418MOL0     C56352  11.359   0.369   0.298  0.5694  0.4890 -1.0705
  418MOL0     C56353  11.477   0.392   0.381  1.1634 -0.1267 -0.3184
  418MOL0     O56354  11.593   0.405   0.314  0.4264  0.4707 -1.0006
  418MOL0     C56355  11.703   0.478   0.377  0.2717 -0.0137  0.7062
  418MOL0     C56356  11.821   0.487   0.282 -0.0588  0.1057 -0.6580
  418MOL0     C56357  11.952   0.517   0.349 -0.1679 -1.2601  0.1142
  418MOL0     C56358  12.063   0.561   0.252  0.7782 -0.0176  0.0831
  418MOL0     C56359  12.094   0.457   0.160 -0.2182 -0.2807 -0.0533
  418MOL0     C56360  12.130   0.371   0.085  0.3485 -0.3822  0.0478
  418MOL0     C56361  11.451   0.423   0.515 -0.5123  0.6508 -0.0143
  418MOL0     C56362  11.322   0.435   0.565  0.3856  0.0430  0.0436
  418MOL0     H56363  10.854   0.279   0.634  0.6117  0.3139 -0.5401
  418MOL0     H56364  10.659   0.261   0.770 -0.4247  0.9757 -1.5645
  418MOL0     H56365  10.474   0.410   0.844  1.0982 -1.6270 -0.2975
  418MOL0     H56366  10.473   0.253   0.925 -1.2008 -0.6267 -0.7845
  418MOL0     H56367  10.378   0.373   1.126 -0.3772 -1.6072  0.0018
  418MOL0     H56368  10.338   0.507   1.025  0.6363  0.0927 -0.9284
  418MOL0     H56369  10.220   0.372   0.867 -1.3591  3.8858  2.0710
  418MOL0     H56370  10.263   0.218   0.963  0.4273  0.4717 -0.7142
  418MOL0     H56371  10.131   0.292   1.149  1.2951 -2.2277 -1.1577
  418MOL0     H56372  10.107   0.456   1.069 -0.8667  0.2214 -2.2439
  418MOL0     H56373   9.997   0.350   0.882 -0.0105 -1.5305 -0.8706
  418MOL0     H56374  10.002   0.195   0.947 -4.0690  1.4072 -3.4741
  418MOL0     H56375   9.886   0.290   1.166 -0.4589  0.3750  0.0115
  418MOL0     H56376   9.873   0.445   1.078  3.5713 -0.7750 -0.3482
  418MOL0     H56377   9.664   0.357   1.021  0.3426  1.3021 -1.6754
  418MOL0     H56378   9.759   0.302   0.884 -1.9850 -1.7122 -0.1566
  418MOL0     H56379   9.704   0.132   1.120 -0.0734 -1.9156 -1.2113
  418MOL0     H56380   9.810   0.093   0.977  0.3275 -1.4960  0.6546
  418MOL0     H56381   9.633  -0.066   0.860 -0.7314 -2.1895  2.1074
  418MOL0     H56382   9.360  -0.037   0.690  1.2473 -1.5195 -0.7071
  418MOL0     H56383   9.408  -0.175   0.784 -2.6229 -0.5298 -2.9166
  418MOL0     H56384   9.193  -0.151   0.919  0.8842 -1.3303 -1.3213
  418MOL0     H56385   9.174  -0.199   0.766  0.0476 -1.3430  0.0460
  418MOL0     H56386   9.130   0.054   0.700  2.7066  1.3533  1.2299
  418MOL0     H56387   9.152   0.096   0.867 -2.1249  2.5338 -1.3041
  418MOL0     H56388   8.905   0.080   0.804 -1.1162 -1.1865 -1.1607
  418MOL0     H56389   8.951  -0.026   0.936 -2.6884  0.5801  0.8769
  418MOL0     H56390   8.722  -0.033   0.897  1.6494  0.7224 -1.2686
  418MOL0     H56391   8.496  -0.071   0.999 -3.5585 -0.7462  1.5660
  418MOL0     H56392   8.398   0.019   0.882 -1.0222 -0.4865 -2.9147
  418MOL0     H56393   8.380  -0.153   0.896 -0.1803 -0.0832  0.5702
  418MOL0     H56394   8.185  -0.197   0.420  2.5988  0.5987  2.6706
  418MOL0     H56395   7.983  -0.295   0.314 -2.2111  0.0748  0.9447
  418MOL0     H56396   7.771  -0.476   0.467 -1.9723 -0.8144 -0.6094
  418MOL0     H56397   7.767  -0.404   0.306  1.0022  0.9202  1.4707
  418MOL0     H56398   7.713  -0.694   0.377  1.0781  1.7383  0.7262
  418MOL0     H56399   7.573  -0.580   0.362 -0.5337 -0.4393  0.8247
  418MOL0     H56400   7.644  -0.735   0.151  2.2201 -0.4130  1.3177
  418MOL0     H56401   7.776  -0.631   0.139  1.2152 -0.9343  0.9155
  418MOL0     H56402   7.478  -0.556   0.140 -0.4438  0.2486 -4.2233
  418MOL0     H56403   7.615  -0.435   0.145 -2.1589  1.1405  2.0333
  418MOL0     H56404   7.541  -0.644  -0.074  1.0669  1.1025 -1.8170
  418MOL0     H56405   7.685  -0.550  -0.078  0.9260  1.1097  2.1025
  418MOL0     H56406   7.397  -0.435  -0.045 -0.9908 -0.2277  0.2143
  418MOL0     H56407   7.562  -0.348  -0.074  2.9044 -1.7469 -1.5717
  418MOL0     H56408   7.405  -0.527  -0.266  1.0331 -1.7077  1.9828
  418MOL0     H56409   7.556  -0.430  -0.312  0.2995 -1.6983 -0.3761
  418MOL0     H56410   7.446  -0.225  -0.286  0.4492 -0.5176  1.6641
  418MOL0     H56411   7.296  -0.311  -0.226  0.7436 -1.7604  1.7181
  418MOL0     H56412   8.097  -0.676   0.467 -0.8191 -0.2468  1.6029
  418MOL0     H56413   8.303  -0.573   0.577 -1.8316 -1.9777  0.5870
  418MOL0     H56414   8.567  -0.260   0.473  1.0894  1.0769 -2.3002
  418MOL0     H56415   8.809  -0.208   0.517 -0.5608 -1.6678  0.0656
  418MOL0     H56416  10.805   0.545   1.037  1.3333  1.2964  0.3923
  418MOL0     H56417  11.014   0.565   0.902  1.3343 -0.6688 -1.1115
  418MOL0     H56418  11.140   0.353   0.287 -1.3403  1.1327  1.6483
  418MOL0     H56419  11.384   0.354   0.194  0.1530  1.6523 -1.3543
  418MOL0     H56420  11.667   0.578   0.404 -1.2084  0.6755 -3.0859
  418MOL0     H56421  11.730   0.420   0.465  0.0588 -2.5744 -0.8159
  418MOL0     H56422  11.802   0.574   0.217  0.6912  4.1400  3.9463
  418MOL0     H56423  11.821   0.394   0.225  0.7389  0.7965 -1.8245
  418MOL0     H56424  11.973   0.430   0.410  0.9782 -1.6230 -0.7663
  418MOL0     H56425  11.933   0.600   0.418  0.3394 -0.1277 -1.0475
  418MOL0     H56426  12.151   0.593   0.307 -1.8937  3.6520  2.6778
  418MOL0     H56427  12.030   0.645   0.190  2.9020  0.6469 -0.2142
  418MOL0     H56428  12.152   0.295   0.012 -2.2478 -0.1497 -1.0831
  418MOL0     H56429  11.537   0.437   0.579 -2.2062 -0.5150  2.7441
  418MOL0     H56430  11.325   0.448   0.673  0.2024  1.5765 -0.1210
  419MOL0     O56431   9.053   5.533   5.930 -0.3341 -0.7385  0.2770
  419MOL0     C56432   9.125   5.540   5.831 -0.2908 -0.2123  0.3425
  419MOL0     O56433   9.086   5.565   5.702  0.5953 -0.7682 -0.9576
  419MOL0     C56434   8.957   5.597   5.686 -0.3600 -0.3234  0.6140
  419MOL0     C56435   8.870   5.490   5.677 -0.5084  0.1436  0.0828
  419MOL0     C56436   8.728   5.515   5.653  0.3688  0.3185 -0.9928
  419MOL0     C56437   8.679   5.649   5.650  0.7734  0.8825 -0.1393
  419MOL0     O56438   8.548   5.687   5.636 -0.4593  0.6735 -0.4438
  419MOL0     C56439   8.477   5.613   5.529 -1.4659 -1.1763 -0.2345
  419MOL0     C56440   8.333   5.652   5.530 -0.4387 -0.2973 -0.7985
  419MOL0     C56441   8.240   5.546   5.587  0.2780 -1.1481  0.4733
  419MOL0     C56442   8.096   5.594   5.608  0.4780 -0.0635 -0.0591
  419MOL0     C56443   8.007   5.493   5.686 -0.4383  0.1504  0.2067
  419MOL0     C56444   7.958   5.379   5.597  0.5886 -0.9189  0.1896
  419MOL0     C56445   7.883   5.264   5.674 -0.0563 -0.3435  0.2465
  419MOL0     C56446   7.745   5.298   5.753 -0.0599 -0.1829 -0.7696
  419MOL0     N56447   7.656   5.376   5.670 -0.1004  0.4387  0.4957
  419MOL0     C56448   7.588   5.495   5.676  0.1950 -0.0696  0.1945
  419MOL0     C56449   7.497   5.495   5.577 -0.9328  0.8898  0.3303
  419MOL0     C56450   7.398   5.598   5.548  1.2867 -0.1130  0.2980
  419MOL0     C56451   7.427   5.664   5.407  0.8414  0.2141  0.1204
  419MOL0     C56452   7.365   5.591   5.285 -0.6814  0.3616 -0.5500
  419MOL0     C56453   7.433   5.647   5.149 -0.4195  0.5340 -0.4889
  419MOL0     O56454   7.408   5.788   5.132 -0.4565  0.3076 -0.0177
  419MOL0     C56455   7.290   5.833   5.073 -0.3321 -0.4959  0.0339
  419MOL0     C56456   7.285   5.971   5.039  0.5968  0.4310  0.5464
  419MOL0     C56457   7.169   6.036   4.991 -0.3583  0.5923  0.0226
  419MOL0     C56458   7.180   6.179   4.945 -0.1637 -0.5110 -0.3053
  419MOL0     C56459   7.049   5.961   4.969 -0.1172 -0.1444 -0.3083
  419MOL0     C56460   6.923   6.013   4.905  0.3523  0.0689 -0.9930
  419MOL0     O56461   6.861   5.923   4.832 -0.1119  0.1002 -0.0045
  419MOL0     C56462   6.729   5.927   4.794 -0.3834 -0.2587 -0.1283
  419MOL0     C56463   6.653   5.816   4.831 -0.0589 -0.5324 -0.4553
  419MOL0     C56464   6.521   5.795   4.789  0.2305 -0.6694 -0.5043
  419MOL0     C56465   6.460   5.887   4.698 -0.4372 -0.4762  0.6265
  419MOL0     O56466   6.333   5.887   4.653 -0.7784 -0.0535  0.4225
  419MOL0     C56467   6.244   5.781   4.678 -1.0997 -0.4403 -0.1865
  419MOL0     C56468   6.261   5.666   4.579  0.1042  0.5669 -0.1143
  419MOL0     C56469   6.263   5.711   4.438 -0.9440 -0.2897 -0.8455
  419MOL0     C56470   6.285   5.591   4.338 -1.6389  0.2537  0.3152
  419MOL0     C56471   6.343   5.636   4.199  0.2370  0.0238 -0.0184
  419MOL0     C56472   6.229   5.690   4.107 -0.0386 -0.0956  0.1318
  419MOL0     C56473   6.111   5.601   4.109 -0.5176  1.0420 -0.7805
  419MOL0     C56474   6.025   5.626   3.982  0.2468 -0.4606  0.2837
  419MOL0    Cl56475   5.883   5.518   3.994 -0.0732  0.2566 -0.1386
  419MOL0     C56476   6.543   5.996   4.655 -0.0829 -0.0579 -1.0237
  419MOL0     C56477   6.666   6.027   4.714  0.1722  0.2628 -1.0738
  419MOL0     O56478   6.893   6.132   4.906 -0.9453  0.2887  0.2045
  419MOL0     C56479   7.061   5.819   4.998 -1.3597  0.2780  1.0016
  419MOL0     C56480   7.175   5.758   5.050  0.5412 -0.3197  0.4541
  419MOL0     N56481   7.513   5.373   5.515 -0.1793 -0.3985  0.2013
  419MOL0     N56482   7.603   5.303   5.569  0.4057 -0.5705  0.6931
  419MOL0     C56483   8.770   5.759   5.655 -0.0672  0.8190  0.4888
  419MOL0     C56484   8.908   5.729   5.678  0.9672 -0.6967  0.2160
  419MOL0     C56485   9.277   5.516   5.844 -0.1840  0.0754 -1.0137
  419MOL0     C56486   9.328   5.490   5.971 -1.0237  0.0620 -0.4807
  419MOL0     C56487   9.467   5.466   5.985  0.2187  0.0159 -0.1987
  419MOL0     C56488   9.544   5.449   5.881 -1.0077  0.7475 -1.1595
  419MOL0     O56489   9.675   5.415   5.907  0.2205  0.0623 -0.0569
  419MOL0     C56490   9.777   5.466   5.816 -0.1228  0.2408  0.6653
  419MOL0     C56491   9.909   5.489   5.889 -0.5609  0.1273  0.8963
  419MOL0     C56492   9.883   5.568   6.012 -0.1139 -0.3298 -0.3376
  419MOL0     C56493  10.015   5.614   6.061 -0.1501 -0.7133  0.2670
  419MOL0     C56494  10.015   5.655   6.199  0.5739 -0.1591 -0.1163
  419MOL0     C56495  10.028   5.692   6.313  0.4853  1.2678 -0.1247
  419MOL0     C56496   9.497   5.467   5.753 -0.0846 -0.3671 -0.2887
  419MOL0     C56497   9.359   5.499   5.733 -0.7960  0.6365 -0.2025
  419MOL0     H56498   8.902   5.387   5.690  0.7849  0.8320  3.2950
  419MOL0     H56499   8.661   5.432   5.675  0.3891  0.3336 -0.8702
  419MOL0     H56500   8.526   5.623   5.432  0.6635 -2.4132  0.6542
  419MOL0     H56501   8.483   5.505   5.545  0.4074 -1.0211  0.2845
  419MOL0     H56502   8.325   5.747   5.584  0.6145  1.0024 -2.8068
  419MOL0     H56503   8.309   5.678   5.427 -0.4170  3.7778  0.0384
  419MOL0     H56504   8.231   5.464   5.514 -0.0025  0.2512 -1.1110
  419MOL0     H56505   8.273   5.506   5.683  0.5098 -1.7886  0.1353
  419MOL0     H56506   8.107   5.684   5.668 -0.5469 -1.8463  3.0524
  419MOL0     H56507   8.045   5.622   5.516  2.5306 -0.0650 -1.2638
  419MOL0     H56508   8.052   5.463   5.781  0.6630  1.5217  0.1459
  419MOL0     H56509   7.918   5.543   5.725 -0.9155 -0.5879  0.0852
  419MOL0     H56510   7.899   5.417   5.513  0.9270  1.0381  0.7762
  419MOL0     H56511   8.048   5.337   5.552  1.8402  1.0913  0.6762
  419MOL0     H56512   7.865   5.191   5.595  1.4023  0.6176 -1.0345
  419MOL0     H56513   7.947   5.224   5.754  0.7901  0.1547 -0.1695
  419MOL0     H56514   7.772   5.341   5.850  2.3173  0.1893 -1.5180
  419MOL0     H56515   7.690   5.205   5.771  0.3437 -0.0521  1.5010
  419MOL0     H56516   7.598   5.579   5.745  0.0097  1.9596 -2.0946
  419MOL0     H56517   7.297   5.556   5.547  1.0505  0.4121  1.2800
  419MOL0     H56518   7.403   5.683   5.616  1.0389  0.7583 -0.7518
  419MOL0     H56519   7.536   5.661   5.405  1.1870  0.1610  5.2334
  419MOL0     H56520   7.400   5.769   5.417 -1.2087 -0.2691  0.0079
  419MOL0     H56521   7.255   5.593   5.279 -0.7526 -1.3026 -0.1578
  419MOL0     H56522   7.391   5.486   5.297 -0.4499  0.4152 -0.5892
  419MOL0     H56523   7.403   5.589   5.061  1.5948 -1.8909  0.3215
  419MOL0     H56524   7.541   5.631   5.154 -0.6241 -0.5798  3.1349
  419MOL0     H56525   7.374   6.030   5.062 -0.2419  0.8788  2.9943
  419MOL0     H56526   7.115   6.246   5.003  2.1838  1.2167  0.4823
  419MOL0     H56527   7.278   6.221   4.968  0.9426 -2.9577 -0.3407
  419MOL0     H56528   7.158   6.191   4.838 -0.2633 -0.2092 -0.2518
  419MOL0     H56529   6.690   5.733   4.891  0.4703  0.7184  1.0056
  419MOL0     H56530   6.468   5.701   4.806  1.6188 -1.1384  1.5022
  419MOL0     H56531   6.249   5.749   4.783  3.2862 -2.9443 -0.9267
  419MOL0     H56532   6.136   5.801   4.681 -1.1946 -0.9976  1.1518
  419MOL0     H56533   6.352   5.607   4.596  0.3720  0.1709 -2.5108
  419MOL0     H56534   6.174   5.602   4.591  0.9297 -0.3285  1.3793
  419MOL0     H56535   6.340   5.788   4.429 -3.3366  2.1558 -1.9835
  419MOL0     H56536   6.172   5.766   4.413 -0.0937  0.7644 -1.7690
  419MOL0     H56537   6.368   5.532   4.379 -1.6451  0.6875  0.9615
  419MOL0     H56538   6.200   5.523   4.339 -3.6264  2.6180  1.7318
  419MOL0     H56539   6.395   5.546   4.165  1.7822 -0.1331  2.5224
  419MOL0     H56540   6.421   5.712   4.208  1.9809 -1.7863  0.9879
  419MOL0     H56541   6.205   5.795   4.124 -2.4052 -0.5275 -0.2536
  419MOL0     H56542   6.269   5.694   4.006 -1.3799  0.4046 -0.3880
  419MOL0     H56543   6.049   5.620   4.198 -5.3660  1.6489 -3.9207
  419MOL0     H56544   6.137   5.495   4.110  0.5362  1.2256  2.1714
  419MOL0     H56545   6.086   5.607   3.893  0.5298  1.4092  0.0386
  419MOL0     H56546   5.995   5.731   3.979 -2.4651 -1.0318  2.6342
  419MOL0     H56547   6.510   6.068   4.581  1.1819  2.1815  0.4737
  419MOL0     H56548   6.723   6.115   4.689 -0.8470  0.3712 -3.2217
  419MOL0     H56549   6.981   5.753   4.967  1.7249 -2.7106 -1.3836
  419MOL0     H56550   7.164   5.651   5.044 -2.9946 -0.0642  0.3537
  419MOL0     H56551   8.738   5.862   5.648  0.3620  1.2441  3.4543
  419MOL0     H56552   8.978   5.810   5.696 -1.6902  1.4742  1.7160
  419MOL0     H56553   9.271   5.506   6.062  2.1164  1.5267  1.4415
  419MOL0     H56554   9.519   5.450   6.079  4.1602  0.0383 -2.1354
  419MOL0     H56555   9.791   5.388   5.741 -0.6683 -0.7912  1.6062
  419MOL0     H56556   9.747   5.560   5.769 -1.3453 -0.5620 -0.2304
  419MOL0     H56557   9.975   5.534   5.815 -2.8741  0.9200 -0.8200
  419MOL0     H56558   9.957   5.396   5.920  4.2648  1.3636 -1.9617
  419MOL0     H56559   9.844   5.502   6.090  0.0707 -1.2606 -1.0296
  419MOL0     H56560   9.818   5.654   5.993 -0.5691 -0.1743  1.6275
  419MOL0     H56561  10.048   5.704   6.008  0.7090  0.0947  2.0819
  419MOL0     H56562  10.097   5.546   6.038 -0.0512 -0.3180 -0.5791
  419MOL0     H56563  10.022   5.728   6.414 -1.2192  0.3247  0.1526
  419MOL0     H56564   9.560   5.456   5.665 -2.1229  1.4166 -2.0971
  419MOL0     H56565   9.330   5.519   5.630 -0.4400  1.8039 -0.0795
  420MOL0     O56566   2.614  10.240   5.072 -0.0510 -0.6313  0.0775
  420MOL0     C56567   2.711  10.292   5.124 -0.4127  0.2824 -0.5868
  420MOL0     O56568   2.816  10.362   5.067  0.5328 -1.4215 -0.4215
  420MOL0     C56569   2.797  10.392   4.929  1.0536  0.2300 -0.4403
  420MOL0     C56570   2.679  10.454   4.879 -0.6059  0.9846  0.5737
  420MOL0     C56571   2.670  10.496   4.750  0.0632  0.0642  0.0766
  420MOL0     C56572   2.769  10.468   4.657  0.8213 -0.9822  0.7163
  420MOL0     O56573   2.747  10.513   4.528  0.4344  0.0129 -0.2159
  420MOL0     C56574   2.859  10.566   4.458  0.1022  1.0047  0.5920
  420MOL0     C56575   2.928  10.461   4.364  0.3289  0.2252  0.7122
  420MOL0     C56576   2.843  10.405   4.247  0.2120  0.6723  0.4580
  420MOL0     C56577   2.917  10.291   4.166 -0.4046  1.0313 -0.6809
  420MOL0     C56578   2.821  10.220   4.062 -0.0205 -0.3010 -0.6439
  420MOL0     C56579   2.894  10.111   3.985 -0.2265 -0.2114 -1.0785
  420MOL0     C56580   2.939   9.994   4.071  0.3622  0.5262 -0.9103
  420MOL0     C56581   2.979   9.861   3.998 -0.5203  0.0799  0.0406
  420MOL0     N56582   3.110   9.866   3.938  0.0974  0.0076 -0.0298
  420MOL0     C56583   3.152   9.938   3.828 -0.5629 -0.2043 -0.5716
  420MOL0     C56584   3.290   9.908   3.815 -0.4860  0.4980  1.2895
  420MOL0     C56585   3.370   9.969   3.704 -0.3609  0.1767  0.4488
  420MOL0     C56586   3.435  10.103   3.744  0.1055  0.9800  0.3460
  420MOL0     C56587   3.514  10.160   3.622 -0.3280 -0.4120 -0.0558
  420MOL0     C56588   3.635  10.243   3.657 -0.4523  0.3617 -0.5943
  420MOL0     O56589   3.731  10.161   3.726 -0.5883  0.1735  0.5345
  420MOL0     C56590   3.863  10.197   3.733 -0.0400 -1.2123 -0.7604
  420MOL0     C56591   3.962  10.102   3.761 -0.6994 -0.7643  0.4902
  420MOL0     C56592   4.099  10.128   3.787 -0.1466  1.0123 -0.6829
  420MOL0     C56593   4.191  10.003   3.825  0.6070 -0.0286  0.4636
  420MOL0     C56594   4.139  10.270   3.769  0.6023  0.6325 -0.0470
  420MOL0     C56595   4.282  10.311   3.788  1.0074 -0.3226  0.4408
  420MOL0     O56596   4.372  10.224   3.837 -0.0008  0.4248 -0.3154
  420MOL0     C56597   4.479  10.274   3.903  0.5868 -1.0600 -0.1068
  420MOL0     C56598   4.481  10.307   4.040  0.0370 -1.3691  0.3822
  420MOL0     C56599   4.605  10.339   4.095 -0.8543 -0.8424  0.2140
  420MOL0     C56600   4.731  10.353   4.021 -0.4873 -0.0619  0.4698
  420MOL0     O56601   4.849  10.410   4.069 -0.5605  0.6939  0.2471
  420MOL0     C56602   4.917  10.350   4.183 -0.4904 -0.1599  0.2205
  420MOL0     C56603   4.984  10.464   4.266  0.1678  0.3330  1.0016
  420MOL0     C56604   5.054  10.437   4.394 -0.2737  0.5224 -0.3655
  420MOL0     C56605   5.191  10.366   4.377 -0.8891 -0.7448 -0.6198
  420MOL0     C56606   5.281  10.377   4.501  0.6214 -0.6692  0.7960
  420MOL0     C56607   5.425  10.388   4.464  0.0429 -0.4161 -0.2663
  420MOL0     C56608   5.523  10.424   4.585 -0.1414 -0.1024  0.5547
  420MOL0     C56609   5.581  10.563   4.569  0.9675  0.8098 -0.1865
  420MOL0    Cl56610   5.682  10.556   4.433  0.1213 -0.0320  0.1458
  420MOL0     C56611   4.719  10.338   3.879  0.6433 -0.1454  0.0094
  420MOL0     C56612   4.596  10.287   3.830 -0.3699 -0.4934  0.3937
  420MOL0     O56613   4.304  10.426   3.745 -0.3294  0.0160 -0.0614
  420MOL0     C56614   4.038  10.366   3.744  0.4258  0.4215 -0.3189
  420MOL0     C56615   3.900  10.332   3.730 -0.1171 -0.0652  0.5646
  420MOL0     N56616   3.319   9.816   3.911  0.2780  0.1983 -0.1038
  420MOL0     N56617   3.217   9.791   3.983  0.6271  0.5483 -0.1676
  420MOL0     C56618   2.885  10.402   4.704  0.4165 -0.0089 -1.2255
  420MOL0     C56619   2.907  10.368   4.842 -0.4104  0.7404 -0.7264
  420MOL0     C56620   2.734  10.251   5.265  0.5390 -0.3430 -0.8256
  420MOL0     C56621   2.664  10.147   5.324 -0.1128  0.5004  0.2957
  420MOL0     C56622   2.668  10.121   5.459  0.9937  0.8409  0.5211
  420MOL0     C56623   2.753  10.192   5.547  0.3520  0.1925 -0.5344
  420MOL0     O56624   2.768  10.186   5.684 -0.8463 -0.2482 -0.8173
  420MOL0     C56625   2.748  10.052   5.750  0.5499 -0.5418 -0.1620
  420MOL0     C56626   2.870   9.962   5.742  0.0030 -0.6052 -0.4013
  420MOL0     C56627   2.918   9.887   5.610  0.3260  0.3282  0.6683
  420MOL0     C56628   2.988   9.750   5.634 -0.1229 -0.4876  0.0842
  420MOL0     C56629   3.023   9.668   5.510 -0.2846  0.4366 -0.1765
  420MOL0     C56630   3.039   9.598   5.403 -1.0915 -1.0291 -0.7195
  420MOL0     C56631   2.827  10.287   5.487 -0.3730  0.0302 -0.2856
  420MOL0     C56632   2.825  10.309   5.347  2.1151 -0.4990  0.4799
  420MOL0     H56633   2.593  10.468   4.943  0.3531  2.0941  1.6799
  420MOL0     H56634   2.580  10.545   4.716  0.1097  0.9178  1.1406
  420MOL0     H56635   2.832  10.655   4.400  3.7119  1.1655 -1.0920
  420MOL0     H56636   2.934  10.602   4.530  0.3395 -0.1051  0.9121
  420MOL0     H56637   3.005  10.518   4.310  0.0699 -1.3640 -1.4707
  420MOL0     H56638   2.976  10.374   4.411  1.9734 -1.3221 -3.3016
  420MOL0     H56639   2.750  10.365   4.289 -0.2661  0.8929 -0.3681
  420MOL0     H56640   2.819  10.489   4.182 -0.9572 -0.2269 -0.3098
  420MOL0     H56641   3.008  10.333   4.122  0.7800 -0.3664  0.3217
  420MOL0     H56642   2.941  10.210   4.235 -2.6888 -0.4361 -1.4829
  420MOL0     H56643   2.731  10.190   4.118  0.1686 -0.1613 -0.2653
  420MOL0     H56644   2.787  10.288   3.983  2.1974  0.2644 -1.1686
  420MOL0     H56645   2.818  10.072   3.917  0.0535 -1.4333 -0.7070
  420MOL0     H56646   2.983  10.143   3.930 -0.3194 -0.6268 -1.4749
  420MOL0     H56647   3.020  10.022   4.140  0.2431 -1.7244  0.2355
  420MOL0     H56648   2.857   9.960   4.135  2.6601 -1.7843  1.0745
  420MOL0     H56649   2.907   9.852   3.917  0.0711 -1.3103 -0.3426
  420MOL0     H56650   2.968   9.773   4.062  0.9312 -2.6217 -3.1822
  420MOL0     H56651   3.100  10.002   3.758  1.1701  0.3813 -1.3855
  420MOL0     H56652   3.448   9.901   3.670  0.2577  0.9943  0.1841
  420MOL0     H56653   3.307   9.962   3.615 -1.5267 -4.0529  1.3907
  420MOL0     H56654   3.487  10.078   3.836 -2.6819 -0.4340  1.6535
  420MOL0     H56655   3.361  10.171   3.786  0.1998 -0.3251  2.7876
  420MOL0     H56656   3.438  10.216   3.568  0.5493 -0.3324 -1.2557
  420MOL0     H56657   3.556  10.080   3.560  0.7184 -0.0663  0.1808
  420MOL0     H56658   3.606  10.318   3.731  0.4792  0.7007 -0.5551
  420MOL0     H56659   3.668  10.290   3.564 -4.1467  0.9738 -1.7580
  420MOL0     H56660   3.923  10.000   3.765 -0.0201 -1.1346 -1.2654
  420MOL0     H56661   4.262   9.980   3.745 -0.5825  1.2877 -1.0395
  420MOL0     H56662   4.238  10.028   3.920 -0.2321 -1.3394  1.2632
  420MOL0     H56663   4.135   9.911   3.847  0.8320 -0.6579 -1.4010
  420MOL0     H56664   4.397  10.300   4.108  0.8819 -1.5043  1.4419
  420MOL0     H56665   4.595  10.364   4.200 -1.6499  0.3938 -0.1300
  420MOL0     H56666   4.847  10.313   4.258 -2.7927 -1.0570 -2.2187
  420MOL0     H56667   5.001  10.281   4.171  0.4383  1.0249 -0.3537
  420MOL0     H56668   5.050  10.516   4.195 -0.4678 -0.7471 -0.4345
  420MOL0     H56669   4.897  10.528   4.280 -1.1941 -1.5654  1.5852
  420MOL0     H56670   4.987  10.381   4.460  1.3037 -2.5282 -1.1216
  420MOL0     H56671   5.073  10.533   4.444 -2.2268  1.4266 -1.2647
  420MOL0     H56672   5.182  10.264   4.338  0.1864 -1.4111  0.7817
  420MOL0     H56673   5.234  10.427   4.296 -0.0581  1.6224  1.4640
  420MOL0     H56674   5.250  10.304   4.576 -1.6624 -1.5376 -0.8500
  420MOL0     H56675   5.275  10.474   4.552 -0.2031 -1.3549  2.0728
  420MOL0     H56676   5.446  10.288   4.425  2.3461 -0.5981  1.2647
  420MOL0     H56677   5.433  10.466   4.389 -0.8723  1.0168  1.0675
  420MOL0     H56678   5.599  10.346   4.578 -0.4133 -0.3051 -0.3171
  420MOL0     H56679   5.472  10.428   4.681 -1.5129 -1.0200 -0.1054
  420MOL0     H56680   5.630  10.591   4.662 -0.6154 -1.4873  1.4473
  420MOL0     H56681   5.494  10.630   4.556 -1.3969 -1.3701  2.9222
  420MOL0     H56682   4.808  10.350   3.818 -0.4162  0.6699 -1.4510
  420MOL0     H56683   4.599  10.263   3.724 -1.9739  0.8180  0.0101
  420MOL0     H56684   4.058  10.473   3.739 -0.4656  0.5762 -0.6664
  420MOL0     H56685   3.823  10.407   3.716 -1.3189 -0.0918  5.4144
  420MOL0     H56686   2.964  10.386   4.631  0.8996  0.4800 -0.8190
  420MOL0     H56687   2.986  10.313   4.891 -1.8491  0.4039  1.3790
  420MOL0     H56688   2.593  10.087   5.267  0.7490 -0.4657  0.2121
  420MOL0     H56689   2.609  10.040   5.499 -1.3561  1.6043 -1.1619
  420MOL0     H56690   2.732  10.071   5.856  0.9156  0.5034 -0.2797
  420MOL0     H56691   2.660  10.003   5.707  0.5238 -2.5905  2.0603
  420MOL0     H56692   2.856   9.879   5.812 -1.7510  1.3407  1.6972
  420MOL0     H56693   2.948  10.031   5.774 -0.5480 -0.1000 -0.1523
  420MOL0     H56694   2.992   9.950   5.560  1.8527 -1.6119  0.3566
  420MOL0     H56695   2.831   9.869   5.546  1.1035  2.5170 -1.1426
  420MOL0     H56696   2.926   9.680   5.690 -1.4314  0.6611  0.1391
  420MOL0     H56697   3.079   9.770   5.692  0.0044  0.3012 -0.3706
  420MOL0     H56698   3.058   9.543   5.313  1.3726  0.3881 -1.1556
  420MOL0     H56699   2.888  10.350   5.551 -1.3918  3.4543 -2.4169
  420MOL0     H56700   2.892  10.381   5.302  1.6758 -1.0915 -1.1867
  421MOL0     O56701   2.069   7.467   9.273 -0.1962 -0.7856  0.0190
  421MOL0     C56702   2.037   7.428   9.387 -0.2511 -0.2540 -0.8908
  421MOL0     O56703   1.910   7.398   9.434  0.0042  0.5501  0.6272
  421MOL0     C56704   1.793   7.390   9.359  0.0967 -0.0747  0.3929
  421MOL0     C56705   1.775   7.424   9.224  0.0571 -0.9006 -0.6756
  421MOL0     C56706   1.656   7.399   9.152  0.0029  0.9043  0.6907
  421MOL0     C56707   1.540   7.352   9.225  0.3050  0.6559  0.2727
  421MOL0     O56708   1.412   7.327   9.186 -0.7354  0.2069  0.9260
  421MOL0     C56709   1.385   7.321   9.039 -0.6411 -0.3092  0.0068
  421MOL0     C56710   1.236   7.310   9.015  0.0282  0.6873 -1.1967
  421MOL0     C56711   1.176   7.447   9.045  0.5788  0.3157  0.1964
  421MOL0     C56712   1.021   7.416   9.065  0.5882 -0.3996  0.5561
  421MOL0     C56713   0.954   7.551   9.055  0.4931  0.2488  0.9176
  421MOL0     C56714   0.808   7.537   9.065  0.9241 -0.3927 -0.3528
  421MOL0     C56715   0.741   7.670   9.097 -0.2528 -0.2216  0.4013
  421MOL0     C56716   0.589   7.657   9.129 -0.5157 -0.0518 -0.0471
  421MOL0     N56717   0.512   7.615   9.009  0.1874 -0.3957  0.0058
  421MOL0     C56718   0.446   7.711   8.929 -0.3075 -0.0376  0.3417
  421MOL0     C56719   0.391   7.636   8.836  0.6942 -0.2871 -0.1447
  421MOL0     C56720   0.285   7.691   8.742 -0.0943 -0.0901 -0.0020
  421MOL0     C56721   0.141   7.659   8.804  0.6655  0.2320 -0.1112
  421MOL0     C56722   0.040   7.716   8.703 -0.9340  0.5290  1.3239
  421MOL0     C56723  -0.107   7.663   8.726 -0.8073 -0.2684 -0.1730
  421MOL0     O56724  -0.192   7.749   8.649  0.5622 -0.3339  0.4090
  421MOL0     C56725  -0.328   7.726   8.669  0.4816  0.5615 -0.6940
  421MOL0     C56726  -0.384   7.628   8.757  0.0820 -0.3482 -0.0881
  421MOL0     C56727  -0.526   7.601   8.756 -0.0667  0.1291  1.2702
  421MOL0     C56728  -0.572   7.475   8.824  0.5992 -0.3972  0.0302
  421MOL0     C56729  -0.616   7.684   8.682  0.2709 -0.9919  0.7621
  421MOL0     C56730  -0.763   7.670   8.678 -0.8070 -0.8092  0.3377
  421MOL0     O56731  -0.820   7.705   8.556 -0.0592  0.0174 -0.2110
  421MOL0     C56732  -0.955   7.695   8.558 -0.0325 -0.2495 -0.5473
  421MOL0     C56733  -1.022   7.577   8.531  0.8478 -0.0876  0.1495
  421MOL0     C56734  -1.163   7.569   8.536  0.0624 -0.6949 -0.4469
  421MOL0     C56735  -1.237   7.683   8.557 -0.5105  1.1190  0.2258
  421MOL0     O56736  -1.373   7.661   8.560  0.1132  0.1022  0.5712
  421MOL0     C56737  -1.465   7.764   8.589 -0.4792  0.4906 -0.0199
  421MOL0     C56738  -1.613   7.710   8.575 -0.5204  0.6421 -0.3084
  421MOL0     C56739  -1.640   7.702   8.424  0.1421  0.0691 -0.3642
  421MOL0     C56740  -1.790   7.675   8.399 -0.4378  0.0050 -0.4194
  421MOL0     C56741  -1.818   7.685   8.259  0.0888 -0.3631  0.6313
  421MOL0     C56742  -1.974   7.687   8.244  0.6607  0.0051 -0.1674
  421MOL0     C56743  -2.023   7.685   8.097 -0.4712  0.1464 -0.8147
  421MOL0     C56744  -2.173   7.698   8.089  0.2375  0.1051  0.1564
  421MOL0    Cl56745  -2.220   7.866   8.090  0.4673 -0.3655  0.0906
  421MOL0     C56746  -1.167   7.807   8.576  0.2992 -0.8371  0.1384
  421MOL0     C56747  -1.025   7.812   8.580 -0.3258  0.6622  0.8719
  421MOL0     O56748  -0.825   7.633   8.780 -0.2325  0.7096 -0.4413
  421MOL0     C56749  -0.559   7.777   8.594 -0.2097 -0.0037  0.2060
  421MOL0     C56750  -0.416   7.796   8.590 -0.4883  0.5536  0.1415
  421MOL0     N56751   0.429   7.505   8.844  0.8579  1.3902 -0.3512
  421MOL0     N56752   0.491   7.493   8.956 -0.4043  0.1033  0.2163
  421MOL0     C56753   1.557   7.327   9.363  0.0436  0.2909  0.3834
  421MOL0     C56754   1.677   7.349   9.424 -0.3649 -0.1808  0.2137
  421MOL0     C56755   2.145   7.399   9.485  0.0372 -1.2819  0.9173
  421MOL0     C56756   2.121   7.375   9.624  0.5571 -0.2124  0.8415
  421MOL0     C56757   2.223   7.366   9.712  0.2468 -0.3007 -0.0658
  421MOL0     C56758   2.355   7.377   9.671  0.3340  0.5564 -0.3248
  421MOL0     O56759   2.454   7.348   9.768  0.3775 -0.0136 -0.1153
  421MOL0     C56760   2.594   7.375   9.735  1.1794 -1.3329 -0.5745
  421MOL0     C56761   2.681   7.383   9.869  0.7895 -0.5616  0.6558
  421MOL0     C56762   2.707   7.248   9.928 -0.4312 -0.0718 -0.4614
  421MOL0     C56763   2.851   7.233   9.970 -0.5051  0.4584 -0.2027
  421MOL0     C56764   2.957   7.244   9.868  0.6528  0.1449 -0.8230
  421MOL0     C56765   3.057   7.273   9.799  0.0886 -0.8801 -0.4726
  421MOL0     C56766   2.386   7.392   9.536  0.0980 -0.8277 -0.5111
  421MOL0     C56767   2.282   7.405   9.442  0.6597  0.8901 -0.2463
  421MOL0     H56768   1.850   7.473   9.163  2.2560 -0.2390  2.3298
  421MOL0     H56769   1.646   7.415   9.045 -0.3806  0.4778  0.6628
  421MOL0     H56770   1.429   7.406   8.984  1.5301 -1.4843 -0.1761
  421MOL0     H56771   1.432   7.231   9.000  1.0054  0.4968  0.0424
  421MOL0     H56772   1.213   7.285   8.911 -0.9867 -0.8932 -0.6297
  421MOL0     H56773   1.188   7.239   9.083  0.8141  1.9667  0.7972
  421MOL0     H56774   1.211   7.494   9.137 -3.2962 -0.3986  2.2402
  421MOL0     H56775   1.180   7.511   8.956 -0.8477 -2.1017 -1.7280
  421MOL0     H56776   0.982   7.346   8.991 -1.4226  1.5070 -0.3281
  421MOL0     H56777   1.000   7.367   9.161 -1.2500 -0.8663 -0.0397
  421MOL0     H56778   1.003   7.605   9.137  2.6900 -1.5336  0.8811
  421MOL0     H56779   0.966   7.599   8.957 -1.5454 -1.1572 -0.0728
  421MOL0     H56780   0.768   7.482   8.980 -0.2342 -0.5156  0.2565
  421MOL0     H56781   0.791   7.477   9.155  2.1067  2.1881  1.7675
  421MOL0     H56782   0.799   7.711   9.180 -0.1753  1.7543 -0.5693
  421MOL0     H56783   0.750   7.731   9.006 -1.0683 -1.4103 -0.5069
  421MOL0     H56784   0.546   7.749   9.169 -0.3737 -0.0664  0.1406
  421MOL0     H56785   0.573   7.589   9.213  1.8667  0.9991  1.3777
  421MOL0     H56786   0.442   7.819   8.937  0.9599  0.2463 -2.0805
  421MOL0     H56787   0.305   7.798   8.741  3.7381 -0.5220  2.8012
  421MOL0     H56788   0.295   7.649   8.642 -0.5911 -2.1120  0.7470
  421MOL0     H56789   0.121   7.712   8.897 -2.1820 -0.9859  0.0495
  421MOL0     H56790   0.117   7.553   8.801 -1.8670  0.7735 -0.9564
  421MOL0     H56791   0.069   7.694   8.600  1.0194  2.9777  1.2455
  421MOL0     H56792   0.038   7.825   8.708 -1.4596  0.5559  0.6530
  421MOL0     H56793  -0.133   7.676   8.832  1.9974  2.1604  0.3521
  421MOL0     H56794  -0.102   7.560   8.692  0.5751 -0.1210 -0.4679
  421MOL0     H56795  -0.318   7.553   8.797  3.0548  2.2560  0.2522
  421MOL0     H56796  -0.501   7.393   8.837 -0.9601 -1.7462  0.3327
  421MOL0     H56797  -0.604   7.506   8.924  0.9866  2.4070 -0.6204
  421MOL0     H56798  -0.666   7.444   8.779 -2.0770  3.0837  2.6773
  421MOL0     H56799  -0.968   7.484   8.512 -0.7341 -1.7391  3.0476
  421MOL0     H56800  -1.204   7.472   8.513 -0.2207 -0.3292 -1.5012
  421MOL0     H56801  -1.452   7.798   8.692  1.2804  1.0880 -0.4081
  421MOL0     H56802  -1.450   7.852   8.526 -1.9235  1.2951  0.7115
  421MOL0     H56803  -1.623   7.611   8.619  1.4810  1.2171  1.6465
  421MOL0     H56804  -1.680   7.784   8.620  1.2233  0.9957  1.8442
  421MOL0     H56805  -1.578   7.626   8.374  1.0644 -0.1679  1.0569
  421MOL0     H56806  -1.609   7.795   8.376  0.8404 -0.4188 -0.8759
  421MOL0     H56807  -1.820   7.573   8.425 -0.7895  0.5645  1.5496
  421MOL0     H56808  -1.848   7.749   8.454  1.5124  0.3463  1.3165
  421MOL0     H56809  -1.771   7.610   8.194 -0.6522  1.1309 -1.7891
  421MOL0     H56810  -1.802   7.789   8.231 -1.5930 -0.1764  0.2278
  421MOL0     H56811  -2.022   7.608   8.303 -0.4916  0.5136 -0.3936
  421MOL0     H56812  -2.006   7.778   8.296  1.1495  1.2632 -1.9596
  421MOL0     H56813  -1.988   7.593   8.048 -0.2297 -0.2101  0.0210
  421MOL0     H56814  -1.979   7.771   8.045 -0.7282  0.8358  0.0949
  421MOL0     H56815  -2.226   7.648   8.171  0.7323  2.0792  1.7758
  421MOL0     H56816  -2.198   7.641   7.999 -0.9501 -0.4387  0.7989
  421MOL0     H56817  -1.224   7.898   8.590  2.3385  0.4613  0.4622
  421MOL0     H56818  -0.968   7.903   8.597  0.3342  0.3851  0.2048
  421MOL0     H56819  -0.626   7.818   8.519  0.7304 -0.0554 -0.6941
  421MOL0     H56820  -0.385   7.866   8.512  0.1648 -0.5085 -0.5830
  421MOL0     H56821   1.467   7.316   9.423 -0.3736 -1.3004 -0.4751
  421MOL0     H56822   1.687   7.350   9.532 -0.0728  0.8000  0.1887
  421MOL0     H56823   2.022   7.372   9.668  1.0291  1.5455  2.0959
  421MOL0     H56824   2.203   7.351   9.818 -1.2496  2.7746  0.1972
  421MOL0     H56825   2.637   7.308   9.660  1.6866 -0.0497 -1.4659
  421MOL0     H56826   2.609   7.476   9.695  2.8464 -0.6443  1.5313
  421MOL0     H56827   2.618   7.429   9.945 -2.6466 -0.2560 -2.0850
  421MOL0     H56828   2.773   7.437   9.846 -0.6884  1.6485 -0.3886
  421MOL0     H56829   2.680   7.170   9.856 -2.4549 -3.4395  3.4914
  421MOL0     H56830   2.635   7.240  10.011  0.5014  0.0529  0.3830
  421MOL0     H56831   2.865   7.134  10.014 -0.7912  0.4614 -0.1029
  421MOL0     H56832   2.871   7.308  10.047 -2.8444  0.3034  0.6545
  421MOL0     H56833   3.145   7.287   9.739  1.5269  1.8996  2.0193
  421MOL0     H56834   2.489   7.387   9.502  0.7699  1.4685  0.9831
  421MOL0     H56835   2.312   7.414   9.338  0.9146 -2.8700 -0.6555
  422MOL0     O56836   5.422   9.232  11.041 -1.2051  0.4633 -0.2633
  422MOL0     C56837   5.461   9.321  11.121 -0.2115 -0.1432  0.2148
  422MOL0     O56838   5.388   9.431  11.155  0.9195 -0.3104  0.8029
  422MOL0     C56839   5.260   9.431  11.116 -0.2834  0.5646  0.4965
  422MOL0     C56840   5.176   9.330  11.166 -1.0023  0.8717 -0.3879
  422MOL0     C56841   5.039   9.331  11.123  0.1829  0.7305 -0.0898
  422MOL0     C56842   4.989   9.424  11.031 -0.1709  0.4166 -0.1245
  422MOL0     O56843   4.862   9.405  10.975 -0.1884  0.1065 -0.1226
  422MOL0     C56844   4.842   9.439  10.837 -1.3298 -0.2961 -0.4381
  422MOL0     C56845   4.714   9.365  10.780 -0.4320 -0.1004 -0.4325
  422MOL0     C56846   4.725   9.205  10.785 -0.3611  0.2199  0.1124
  422MOL0     C56847   4.841   9.148  10.698 -0.2644  0.2294  0.6469
  422MOL0     C56848   4.963   9.110  10.785 -0.7387 -0.8732 -0.2912
  422MOL0     C56849   5.080   9.059  10.715 -0.3795  0.1435  0.2869
  422MOL0     C56850   5.175   8.969  10.795  0.5729  0.0030  0.2077
  422MOL0     C56851   5.264   9.045  10.901  0.5500 -0.1426  0.9021
  422MOL0     N56852   5.310   8.946  11.006 -0.0342 -0.1566  0.1375
  422MOL0     C56853   5.425   8.876  11.013  0.4405 -0.4511  0.3315
  422MOL0     C56854   5.402   8.795  11.115 -0.6813  0.6311 -0.1383
  422MOL0     C56855   5.498   8.693  11.164  0.2064  0.6520  0.3327
  422MOL0     C56856   5.460   8.619  11.289  0.0984 -0.3919 -0.2810
  422MOL0     C56857   5.467   8.697  11.413 -0.1142 -0.9868  0.5611
  422MOL0     C56858   5.361   8.810  11.442  0.2214  0.7208  0.6771
  422MOL0     O56859   5.365   8.861  11.581 -0.4328  0.1576 -0.0717
  422MOL0     C56860   5.264   8.947  11.614  1.0855  0.1205  0.1204
  422MOL0     C56861   5.193   9.022  11.515  0.1591  0.2834 -0.8500
  422MOL0     C56862   5.076   9.088  11.542  0.6405  0.1208  0.8548
  422MOL0     C56863   4.999   9.150  11.428  0.0655  0.3561 -0.7458
  422MOL0     C56864   5.014   9.068  11.674 -0.8744  0.7736 -0.0625
  422MOL0     C56865   4.885   9.125  11.715  0.1423  0.4807 -1.0316
  422MOL0     O56866   4.781   9.130  11.612 -0.3441  0.0436 -0.4331
  422MOL0     C56867   4.655   9.168  11.653 -0.5676 -0.5030 -0.4839
  422MOL0     C56868   4.626   9.289  11.726  0.6316  0.4293  0.9148
  422MOL0     C56869   4.494   9.338  11.735 -0.1112  0.4387 -0.2750
  422MOL0     C56870   4.389   9.272  11.677  0.1769 -0.7616 -0.3017
  422MOL0     O56871   4.260   9.306  11.690 -0.4279 -0.1057  0.0457
  422MOL0     C56872   4.222   9.406  11.785 -0.3755  0.3759  0.4040
  422MOL0     C56873   4.223   9.368  11.934 -0.0722  0.1451 -0.5203
  422MOL0     C56874   4.132   9.254  11.962 -0.3051  0.1581 -0.5617
  422MOL0     C56875   4.148   9.184  12.106  0.2417  0.6178  0.4134
  422MOL0     C56876   4.107   9.272  12.216 -0.1933 -0.1286  0.3558
  422MOL0     C56877   4.113   9.207  12.356  0.6487 -0.1842 -0.9182
  422MOL0     C56878   4.077   9.316  12.467  0.0275 -0.7337 -0.7088
  422MOL0     C56879   3.958   9.411  12.441  0.9355  0.4882  0.3347
  422MOL0    Cl56880   3.813   9.314  12.375 -0.5850 -0.2324 -0.0060
  422MOL0     C56881   4.414   9.144  11.628 -0.4287  0.4233 -0.9726
  422MOL0     C56882   4.546   9.099  11.612 -0.3087 -0.9731 -0.0520
  422MOL0     O56883   4.868   9.141  11.838  0.2030  0.3864  0.0209
  422MOL0     C56884   5.081   8.983  11.767  0.0138  0.2824 -0.6242
  422MOL0     C56885   5.209   8.939  11.747 -0.5265  0.4851  1.3073
  422MOL0     N56886   5.271   8.809  11.155  1.3041  0.6799 -0.3466
  422MOL0     N56887   5.224   8.907  11.096  0.5532  0.1591  0.0204
  422MOL0     C56888   5.077   9.529  10.995  0.8192  0.9404 -0.8147
  422MOL0     C56889   5.214   9.532  11.032 -0.3259  0.0893  0.3181
  422MOL0     C56890   5.590   9.302  11.187  0.3420 -0.3823 -0.0500
  422MOL0     C56891   5.674   9.193  11.144 -0.0284  0.1597  0.3558
  422MOL0     C56892   5.795   9.167  11.210  0.5424  0.0206  0.2057
  422MOL0     C56893   5.815   9.228  11.333  0.8671 -0.7705 -0.1229
  422MOL0     O56894   5.936   9.219  11.405 -0.1005 -0.0328 -0.5092
  422MOL0     C56895   6.029   9.110  11.381 -0.5625 -0.2229  0.2235
  422MOL0     C56896   6.124   9.147  11.264 -0.1003  1.2401 -0.3836
  422MOL0     C56897   6.222   9.259  11.305  0.0172 -0.6130  0.2183
  422MOL0     C56898   6.333   9.264  11.200 -0.1826  0.6104 -0.1685
  422MOL0     C56899   6.423   9.365  11.243 -0.0967  0.5575 -0.2269
  422MOL0     C56900   6.509   9.434  11.290  0.3844 -0.5440 -0.0719
  422MOL0     C56901   5.731   9.326  11.381 -0.3475  0.1417 -0.4516
  422MOL0     C56902   5.623   9.370  11.303 -0.2171 -0.2842  0.3676
  422MOL0     H56903   5.209   9.249  11.231 -0.6691  1.1809 -0.1655
  422MOL0     H56904   4.972   9.255  11.160  2.5077 -1.9083 -0.9371
  422MOL0     H56905   4.829   9.547  10.828  2.9984  0.4055 -0.3498
  422MOL0     H56906   4.931   9.416  10.777 -0.2967  1.3517  0.3817
  422MOL0     H56907   4.619   9.388  10.829 -1.5393 -1.5901 -1.7845
  422MOL0     H56908   4.715   9.401  10.677  2.0178 -0.9236 -0.7509
  422MOL0     H56909   4.753   9.178  10.887 -0.8826 -2.6326 -0.4195
  422MOL0     H56910   4.624   9.165  10.776 -1.8131  3.1301  1.7768
  422MOL0     H56911   4.805   9.056  10.651  0.4177  0.8228 -1.1121
  422MOL0     H56912   4.857   9.217  10.615 -1.6846 -2.1759 -1.8083
  422MOL0     H56913   4.998   9.199  10.838 -4.0364 -0.5313  1.5879
  422MOL0     H56914   4.933   9.048  10.871 -1.0408  1.3959  1.3311
  422MOL0     H56915   5.058   9.005  10.622  1.6547  0.6435 -0.5527
  422MOL0     H56916   5.135   9.148  10.683 -1.1147  0.9370  1.1995
  422MOL0     H56917   5.120   8.894  10.853  1.4726  1.4873  3.1783
  422MOL0     H56918   5.240   8.918  10.724  3.5326  0.7088  2.2463
  422MOL0     H56919   5.205   9.125  10.947  1.1168  0.1925  1.0598
  422MOL0     H56920   5.354   9.085  10.853  1.1466 -2.6816 -0.2697
  422MOL0     H56921   5.522   8.890  10.966  0.8045 -3.3431  0.0701
  422MOL0     H56922   5.512   8.616  11.088 -0.0427  2.4189 -1.6083
  422MOL0     H56923   5.599   8.735  11.169  0.4335  0.2662 -0.7338
  422MOL0     H56924   5.530   8.536  11.300 -0.1400 -0.6802 -0.9224
  422MOL0     H56925   5.366   8.567  11.272 -0.9221  2.2478 -3.8807
  422MOL0     H56926   5.566   8.741  11.430  0.5193 -1.5219 -1.4757
  422MOL0     H56927   5.448   8.631  11.498 -1.0067 -1.2278  0.1784
  422MOL0     H56928   5.261   8.773  11.415  0.2717  0.2032  1.1671
  422MOL0     H56929   5.381   8.892  11.373 -2.6155 -0.6192 -1.9864
  422MOL0     H56930   5.245   9.029  11.421  0.5750 -2.1584 -0.8632
  422MOL0     H56931   4.899   9.107  11.413 -0.3579  0.5410  1.2385
  422MOL0     H56932   4.975   9.254  11.452  3.2551  1.5917 -2.3414
  422MOL0     H56933   5.052   9.135  11.334 -0.8017 -2.7284 -0.8617
  422MOL0     H56934   4.707   9.336  11.780  1.4322  0.7400 -0.4868
  422MOL0     H56935   4.476   9.432  11.786 -2.3249 -0.5098  0.8227
  422MOL0     H56936   4.284   9.494  11.769  1.1677 -0.7867 -0.2401
  422MOL0     H56937   4.119   9.434  11.760 -0.3335  1.2407  1.1559
  422MOL0     H56938   4.327   9.349  11.964 -0.4641  0.8493  1.4765
  422MOL0     H56939   4.191   9.456  11.991 -0.7430 -0.4432  0.0285
  422MOL0     H56940   4.151   9.176  11.888 -0.1620 -0.2076 -0.1453
  422MOL0     H56941   4.029   9.287  11.944 -0.8530 -1.4647 -0.5054
  422MOL0     H56942   4.095   9.089  12.109  0.0464  0.6600 -0.9170
  422MOL0     H56943   4.252   9.154  12.121  1.7237  4.9248  0.2661
  422MOL0     H56944   4.007   9.310  12.194 -0.3831 -1.8252 -1.9302
  422MOL0     H56945   4.174   9.359  12.216 -1.2036  0.7231 -1.8728
  422MOL0     H56946   4.044   9.122  12.355  0.5416 -0.0945 -1.3381
  422MOL0     H56947   4.215   9.170  12.374  0.1967 -1.0154 -0.0002
  422MOL0     H56948   4.160   9.383  12.491 -0.3078 -0.8911  0.9803
  422MOL0     H56949   4.049   9.269  12.562  0.7842  1.4204  0.6503
  422MOL0     H56950   3.980   9.494  12.373 -1.9302  1.4318  0.4310
  422MOL0     H56951   3.923   9.446  12.539  1.5309 -1.7347  1.4021
  422MOL0     H56952   4.332   9.088  11.583  1.1527  0.4865 -4.2438
  422MOL0     H56953   4.562   9.010  11.553 -0.8917 -0.7064 -0.6182
  422MOL0     H56954   5.055   8.935  11.861  4.6877  0.7824  1.2248
  422MOL0     H56955   5.258   8.877  11.821  1.8600  1.2637  0.4800
  422MOL0     H56956   5.048   9.605  10.923 -0.6917 -0.4106 -1.7037
  422MOL0     H56957   5.280   9.605  10.987 -2.0124  1.4271 -0.0969
  422MOL0     H56958   5.647   9.130  11.060 -2.9174  2.1161 -0.3223
  422MOL0     H56959   5.845   9.083  11.164 -1.7900 -3.1926  3.0522
  422MOL0     H56960   6.087   9.099  11.473 -0.1965  1.1885  0.1887
  422MOL0     H56961   5.976   9.015  11.364  4.1937 -2.9341 -1.2153
  422MOL0     H56962   6.058   9.187  11.187 -2.0205  1.5467  1.3238
  422MOL0     H56963   6.190   9.066  11.232 -1.3863 -0.0204  0.1153
  422MOL0     H56964   6.264   9.237  11.404  0.2643  0.4029  0.3479
  422MOL0     H56965   6.167   9.352  11.318 -0.7290 -1.4328  4.4799
  422MOL0     H56966   6.293   9.278  11.099 -1.2735 -3.4305 -0.4577
  422MOL0     H56967   6.387   9.169  11.204 -0.5913  0.3990  1.0195
  422MOL0     H56968   6.586   9.502  11.320 -0.6450  1.0900 -0.9373
  422MOL0     H56969   5.747   9.377  11.476  2.6090 -1.4295  0.0058
  422MOL0     H56970   5.555   9.449  11.333  1.6314  0.7808  1.9111
  423MOL0     O56971   1.671  10.367   3.746 -0.8809  0.1539  0.0778
  423MOL0     C56972   1.689  10.385   3.866 -0.5619  0.4590  0.8636
  423MOL0     O56973   1.594  10.410   3.967 -0.6625 -0.2601  0.4890
  423MOL0     C56974   1.471  10.443   3.918 -0.3728 -0.0303  1.0337
  423MOL0     C56975   1.380  10.341   3.866 -0.2939 -1.2095 -0.7207
  423MOL0     C56976   1.255  10.383   3.828  0.4144 -0.4352 -0.4376
  423MOL0     C56977   1.220  10.517   3.832 -0.0911 -0.6149 -0.2697
  423MOL0     O56978   1.096  10.548   3.797  0.7637 -0.5587 -0.5384
  423MOL0     C56979   1.033  10.651   3.880  0.4183 -0.7382  0.1054
  423MOL0     C56980   0.896  10.694   3.813 -0.1000 -0.7739  0.7078
  423MOL0     C56981   0.813  10.794   3.887 -0.2255  0.3662 -0.2933
  423MOL0     C56982   0.689  10.846   3.806 -0.4277 -0.6562 -0.1275
  423MOL0     C56983   0.610  10.945   3.890  0.4444 -0.1750 -0.0235
  423MOL0     C56984   0.697  11.065   3.936 -0.0901 -0.2304  0.5926
  423MOL0     C56985   0.623  11.197   3.930 -0.2535  0.3169 -0.3062
  423MOL0     C56986   0.702  11.297   4.014  0.0829  0.1665  0.4243
  423MOL0     N56987   0.699  11.278   4.159  0.0039  0.4105 -0.2440
  423MOL0     C56988   0.590  11.307   4.243  0.2738  0.4668  0.4361
  423MOL0     C56989   0.625  11.267   4.368 -0.7271  0.4634 -0.0338
  423MOL0     C56990   0.552  11.294   4.500 -0.8603  1.7193  0.8077
  423MOL0     C56991   0.538  11.164   4.583 -0.3060 -0.7577 -0.8945
  423MOL0     C56992   0.494  11.193   4.728  0.0458  0.2331  0.7420
  423MOL0     C56993   0.342  11.205   4.760 -0.4327  1.0467  0.5315
  423MOL0     O56994   0.297  11.324   4.703  0.3907  0.7166  0.0339
  423MOL0     C56995   0.159  11.343   4.716  0.8848  0.6081  0.2827
  423MOL0     C56996   0.099  11.436   4.629  0.2664  0.2071  0.2858
  423MOL0     C56997  -0.044  11.470   4.634 -0.9451 -0.4082 -0.0690
  423MOL0     C56998  -0.097  11.558   4.528 -0.2053 -1.2617  0.3147
  423MOL0     C56999  -0.120  11.400   4.734 -0.2446  0.3314  0.1448
  423MOL0     C57000  -0.261  11.408   4.742  0.2165  0.1514 -0.1617
  423MOL0     O57001  -0.323  11.355   4.853  0.4745  0.6853 -0.4840
  423MOL0     C57002  -0.458  11.391   4.870  0.2429  1.3732  0.5137
  423MOL0     C57003  -0.480  11.442   5.000  0.2362  0.5320 -0.0798
  423MOL0     C57004  -0.609  11.484   5.024  0.0403  0.2253  0.1103
  423MOL0     C57005  -0.714  11.484   4.931 -0.3940  0.4324 -1.2979
  423MOL0     O57006  -0.832  11.545   4.952 -0.6635  0.5072  0.0179
  423MOL0     C57007  -0.827  11.682   4.984 -0.1684 -0.4019  0.5673
  423MOL0     C57008  -0.978  11.728   4.963  0.3118  0.0594  0.0334
  423MOL0     C57009  -1.031  11.725   4.819  0.1347 -0.6537 -0.2555
  423MOL0     C57010  -1.171  11.788   4.807  0.4284  0.6779  0.2131
  423MOL0     C57011  -1.283  11.689   4.868  0.1288  0.1658 -0.1224
  423MOL0     C57012  -1.422  11.758   4.850 -0.5660  0.0718  0.1509
  423MOL0     C57013  -1.480  11.781   4.708  1.1913 -0.3366 -0.4584
  423MOL0     C57014  -1.523  11.654   4.630 -0.2284  0.1134  0.0021
  423MOL0    Cl57015  -1.576  11.668   4.471  0.0226  0.2011 -1.0259
  423MOL0     C57016  -0.694  11.424   4.804  0.5691  0.1433  0.2259
  423MOL0     C57017  -0.570  11.357   4.783  0.0593  0.5214  0.0762
  423MOL0     O57018  -0.329  11.456   4.646 -0.3580 -0.3319  1.3739
  423MOL0     C57019  -0.054  11.310   4.820  0.2546 -0.3345 -1.2895
  423MOL0     C57020   0.075  11.269   4.802  0.4928  0.3082 -0.8477
  423MOL0     N57021   0.748  11.208   4.362  0.4433 -0.0451  0.2034
  423MOL0     N57022   0.792  11.210   4.238 -0.2528 -0.2934  0.3431
  423MOL0     C57023   1.314  10.617   3.864  0.5493 -0.9118 -0.7578
  423MOL0     C57024   1.433  10.576   3.920 -0.3727  0.6084  0.0180
  423MOL0     C57025   1.826  10.392   3.914 -0.3252 -0.9869 -0.7603
  423MOL0     C57026   1.850  10.393   4.052 -0.3955  0.6169 -0.5235
  423MOL0     C57027   1.979  10.397   4.106 -0.7488 -0.0127 -0.0512
  423MOL0     C57028   2.082  10.405   4.011  0.9716  0.2228 -0.2355
  423MOL0     O57029   2.215  10.412   4.047  0.2107  0.3172 -0.2551
  423MOL0     C57030   2.285  10.283   4.066  0.0710 -0.3396  0.2798
  423MOL0     C57031   2.365  10.249   3.943 -0.5265  0.7557  0.5689
  423MOL0     C57032   2.481  10.338   3.904 -0.5298  0.7062 -0.4149
  423MOL0     C57033   2.434  10.459   3.817  0.0546  0.7520  0.2021
  423MOL0     C57034   2.553  10.527   3.759 -0.0782  0.7107 -0.4265
  423MOL0     C57035   2.644  10.589   3.705  0.1642 -1.2240 -0.4214
  423MOL0     C57036   2.063  10.411   3.879 -0.6373 -0.9799  0.8317
  423MOL0     C57037   1.940  10.405   3.828  0.2927  0.7237 -0.4607
  423MOL0     H57038   1.398  10.234   3.854  1.4736 -0.9474 -0.6096
  423MOL0     H57039   1.170  10.317   3.813  0.7935 -0.4154 -3.3860
  423MOL0     H57040   1.010  10.600   3.974  5.0833 -1.4190  1.1173
  423MOL0     H57041   1.095  10.741   3.886  0.0977 -0.5242  0.2453
  423MOL0     H57042   0.917  10.732   3.713 -1.1076 -0.8018  0.4767
  423MOL0     H57043   0.834  10.606   3.794 -3.2182  1.3660  0.3405
  423MOL0     H57044   0.784  10.750   3.983 -0.4807 -0.3816 -0.7035
  423MOL0     H57045   0.882  10.876   3.905 -0.7912  0.9561 -0.7663
  423MOL0     H57046   0.726  10.879   3.708  0.0132 -3.2070 -0.8883
  423MOL0     H57047   0.618  10.765   3.790 -3.6442  0.8848  4.3659
  423MOL0     H57048   0.534  10.985   3.823 -0.1297  1.2756  1.4492
  423MOL0     H57049   0.569  10.898   3.980  0.8095 -0.6430 -0.0905
  423MOL0     H57050   0.728  11.032   4.036  2.3095  0.0663  0.0041
  423MOL0     H57051   0.780  11.078   3.865 -0.4893 -1.3777 -0.1122
  423MOL0     H57052   0.626  11.239   3.829  3.2220  2.7987  0.6276
  423MOL0     H57053   0.525  11.199   3.978 -0.0934 -0.2653  0.0551
  423MOL0     H57054   0.661  11.396   3.990  1.2002  0.5130 -0.1189
  423MOL0     H57055   0.806  11.299   3.978  0.6281  0.0730  1.9417
  423MOL0     H57056   0.489  11.345   4.227 -0.3803 -0.1208  2.7619
  423MOL0     H57057   0.605  11.367   4.562  1.3542  0.3120  0.6931
  423MOL0     H57058   0.450  11.331   4.482 -1.1146  0.8625  0.4319
  423MOL0     H57059   0.631  11.108   4.596 -1.4448 -2.6663 -0.5802
  423MOL0     H57060   0.461  11.103   4.535 -1.3231  0.6270 -1.0850
  423MOL0     H57061   0.547  11.284   4.758  2.7759 -1.0313  0.1075
  423MOL0     H57062   0.544  11.121   4.794  2.3962 -0.1496 -1.2914
  423MOL0     H57063   0.342  11.206   4.870  1.5390  1.5606  0.5641
  423MOL0     H57064   0.292  11.117   4.720  0.5626 -0.7030  2.8671
  423MOL0     H57065   0.155  11.499   4.560 -1.8544  1.3903 -0.4504
  423MOL0     H57066  -0.154  11.515   4.446  0.7365 -0.4990 -0.7718
  423MOL0     H57067  -0.151  11.639   4.579  0.6721  0.3430 -1.2019
  423MOL0     H57068  -0.012  11.612   4.487 -1.0933 -0.6610 -0.7870
  423MOL0     H57069  -0.409  11.475   5.075 -0.7077  1.3035  0.4994
  423MOL0     H57070  -0.642  11.518   5.121 -0.1584 -2.4890  1.0727
  423MOL0     H57071  -0.809  11.696   5.091 -2.7487  0.7474  0.9307
  423MOL0     H57072  -0.753  11.738   4.926  2.6370 -1.7379  2.6025
  423MOL0     H57073  -1.035  11.664   5.031  0.4294 -0.9908 -0.8213
  423MOL0     H57074  -0.971  11.829   5.005 -0.7828 -0.5369  1.7953
  423MOL0     H57075  -1.027  11.618   4.796 -2.3611 -0.7731 -0.3596
  423MOL0     H57076  -0.964  11.776   4.750  0.2620  1.0982  1.0957
  423MOL0     H57077  -1.168  11.893   4.840  1.6660  1.0696 -1.0890
  423MOL0     H57078  -1.196  11.796   4.701  1.5993  0.0965 -0.1191
  423MOL0     H57079  -1.275  11.676   4.977 -0.2327  1.6275  0.1090
  423MOL0     H57080  -1.283  11.594   4.815 -1.9483 -1.5856  2.7685
  423MOL0     H57081  -1.507  11.715   4.904 -0.7037 -0.5970 -0.5639
  423MOL0     H57082  -1.414  11.863   4.879 -1.3515  0.0714  0.3972
  423MOL0     H57083  -1.411  11.839   4.646 -1.6304  5.3572  1.0556
  423MOL0     H57084  -1.570  11.842   4.714  1.8288  0.7156 -1.2892
  423MOL0     H57085  -1.599  11.605   4.693 -2.6324  2.5668 -0.7722
  423MOL0     H57086  -1.441  11.582   4.621 -0.6091 -0.7167  2.3937
  423MOL0     H57087  -0.771  11.412   4.729  1.9225 -2.0551 -0.9108
  423MOL0     H57088  -0.558  11.292   4.697  1.4484 -1.5502  1.7636
  423MOL0     H57089  -0.109  11.248   4.891  1.0544 -0.5662 -0.8672
  423MOL0     H57090   0.116  11.196   4.871 -0.2163 -0.1148 -0.8637
  423MOL0     H57091   1.295  10.723   3.879  1.5873 -0.7983 -0.1995
  423MOL0     H57092   1.507  10.647   3.955  0.5368 -0.7148  0.8768
  423MOL0     H57093   1.765  10.384   4.118 -1.1179 -1.8094 -1.6486
  423MOL0     H57094   2.015  10.384   4.207  3.9632  2.3363 -1.1743
  423MOL0     H57095   2.361  10.290   4.144  0.1170 -0.6954  0.2687
  423MOL0     H57096   2.222  10.197   4.092 -0.0013 -0.3613  0.0374
  423MOL0     H57097   2.299  10.257   3.856  1.4383  0.3124 -1.0336
  423MOL0     H57098   2.400  10.145   3.947 -0.3705 -0.0043 -6.8290
  423MOL0     H57099   2.561  10.291   3.846  0.0456  3.7866 -2.3966
  423MOL0     H57100   2.525  10.372   3.999 -0.0380  0.1830 -0.4479
  423MOL0     H57101   2.371  10.530   3.870  2.2051  2.6172  0.3933
  423MOL0     H57102   2.379  10.411   3.735 -0.5490  0.6888  0.6400
  423MOL0     H57103   2.721  10.641   3.653  0.7399 -1.5050  0.1240
  423MOL0     H57104   2.143  10.441   3.812 -1.1298 -1.4528  0.0198
  423MOL0     H57105   1.916  10.408   3.722 -1.0705  1.0859 -0.1595
  424MOL0     O57106   8.792   0.308   7.944 -0.0022 -0.0977 -0.0907
  424MOL0     C57107   8.811   0.295   7.826  0.6391 -0.7681 -0.6902
  424MOL0     O57108   8.713   0.280   7.727  0.0885  0.2018 -0.2565
  424MOL0     C57109   8.579   0.278   7.756  0.1926 -0.3906  0.4870
  424MOL0     C57110   8.507   0.244   7.648  0.2346  0.5503  0.0458
  424MOL0     C57111   8.369   0.239   7.637  0.1300  0.1379 -0.1576
  424MOL0     C57112   8.294   0.277   7.747  0.4529 -0.4633 -0.0227
  424MOL0     O57113   8.157   0.276   7.729  0.0364  0.3389  0.0669
  424MOL0     C57114   8.093   0.231   7.849  0.9623  0.1245 -0.0758
  424MOL0     C57115   7.952   0.189   7.816  0.5115 -0.1561 -0.2598
  424MOL0     C57116   7.861   0.159   7.933 -0.3871  0.6060 -0.4757
  424MOL0     C57117   7.719   0.138   7.884 -0.6217 -0.6243 -0.4163
  424MOL0     C57118   7.692   0.001   7.834 -0.4273 -0.0064 -0.0183
  424MOL0     C57119   7.545  -0.014   7.770 -0.3949 -0.3969 -0.6643
  424MOL0     C57120   7.522  -0.136   7.686 -0.5369  0.3068 -1.2761
  424MOL0     C57121   7.617  -0.154   7.567  0.1347  0.0529 -0.0338
  424MOL0     N57122   7.748  -0.206   7.601  0.6315  0.6439 -0.1667
  424MOL0     C57123   7.773  -0.310   7.685  0.8629 -0.7498 -0.4481
  424MOL0     C57124   7.901  -0.308   7.687 -0.1939  0.8366 -0.8642
  424MOL0     C57125   7.969  -0.391   7.791 -0.5808 -0.6844 -0.2069
  424MOL0     C57126   7.957  -0.334   7.931  0.6707 -0.2439 -0.7173
  424MOL0     C57127   8.039  -0.204   7.933 -0.4858 -0.2113  0.5059
  424MOL0     C57128   8.058  -0.140   8.076  0.9476 -0.1190 -0.1935
  424MOL0     O57129   8.138  -0.231   8.150 -0.6270  0.0243 -0.3984
  424MOL0     C57130   8.232  -0.192   8.256  0.0332  0.3364  0.4846
  424MOL0     C57131   8.339  -0.282   8.288 -0.0743 -0.5352  0.8072
  424MOL0     C57132   8.423  -0.250   8.394 -0.7333 -0.4441  0.3525
  424MOL0     C57133   8.526  -0.359   8.437  0.2114 -0.4977 -0.4343
  424MOL0     C57134   8.403  -0.135   8.470  0.5406  0.1348 -0.0916
  424MOL0     C57135   8.493  -0.090   8.578 -0.1654 -0.2966  0.3234
  424MOL0     O57136   8.440   0.011   8.658 -0.0682  0.2965  0.8991
  424MOL0     C57137   8.500   0.035   8.781  0.1119  0.8044  0.0136
  424MOL0     C57138   8.625   0.104   8.793  0.6518  0.0035 -0.6796
  424MOL0     C57139   8.682   0.127   8.918  0.1148  0.6856 -0.5940
  424MOL0     C57140   8.633   0.068   9.032 -0.3240  1.0509  0.4785
  424MOL0     O57141   8.701   0.068   9.151 -0.2003  0.1027 -0.1240
  424MOL0     C57142   8.733  -0.051   9.221 -0.0539 -0.1964  0.0134
  424MOL0     C57143   8.838  -0.024   9.332 -0.9358 -0.3731 -0.3944
  424MOL0     C57144   8.949   0.080   9.308  0.9018  1.2509  0.1122
  424MOL0     C57145   9.011   0.115   9.441  0.0346 -0.6433 -0.6251
  424MOL0     C57146   9.135   0.213   9.418 -0.7407  0.4888 -0.6258
  424MOL0     C57147   9.208   0.267   9.545 -0.2465 -0.3059 -0.1459
  424MOL0     C57148   9.338   0.337   9.502  0.6503  0.1089 -0.5198
  424MOL0     C57149   9.403   0.407   9.616 -0.2112  0.3104 -0.6317
  424MOL0    Cl57150   9.560   0.478   9.547  0.3694  0.1933 -0.2070
  424MOL0     C57151   8.503   0.002   9.026 -0.1340  1.1177  0.0923
  424MOL0     C57152   8.437  -0.015   8.896  0.1207  0.7354 -0.0054
  424MOL0     O57153   8.605  -0.138   8.589  0.2462 -0.5291  0.8728
  424MOL0     C57154   8.300  -0.048   8.434  0.2518  0.2606 -0.0080
  424MOL0     C57155   8.220  -0.066   8.330  0.2331 -0.0170 -0.0582
  424MOL0     N57156   7.959  -0.211   7.606  0.1841  0.0530 -0.0087
  424MOL0     N57157   7.862  -0.144   7.559 -0.3917 -0.0155  0.5497
  424MOL0     C57158   8.370   0.307   7.867  0.0172  0.0627 -0.3478
  424MOL0     C57159   8.506   0.305   7.873 -0.3813  0.5786  0.0833
  424MOL0     C57160   8.953   0.286   7.775 -0.1494  0.7806 -0.2977
  424MOL0     C57161   9.062   0.285   7.865  0.1058 -0.0841  0.2224
  424MOL0     C57162   9.198   0.282   7.816  0.1299 -0.0459 -0.9812
  424MOL0     C57163   9.225   0.293   7.679 -0.2438 -1.0609 -0.0820
  424MOL0     O57164   9.345   0.291   7.612 -0.3236 -0.0938  0.6619
  424MOL0     C57165   9.468   0.316   7.682 -0.9277 -0.5111  0.3212
  424MOL0     C57166   9.591   0.298   7.611  0.1737 -0.1534  0.1708
  424MOL0     C57167   9.598   0.165   7.532 -0.3182 -0.2793 -0.0543
  424MOL0     C57168   9.578   0.032   7.610  0.2208 -0.6587 -0.0582
  424MOL0     C57169   9.659   0.020   7.725  0.1528  0.4170 -0.3464
  424MOL0     C57170   9.729   0.001   7.823 -0.7082 -0.1134 -0.7267
  424MOL0     C57171   9.115   0.298   7.597 -0.3561 -0.0678  0.2172
  424MOL0     C57172   8.985   0.284   7.640  1.4658 -0.2590 -0.0262
  424MOL0     H57173   8.565   0.216   7.560  0.3193 -0.8956  0.5293
  424MOL0     H57174   8.322   0.212   7.543 -0.8909  0.5579  0.2243
  424MOL0     H57175   8.137   0.143   7.896 -1.6986 -0.1018  2.2522
  424MOL0     H57176   8.097   0.311   7.923  1.3246  2.6957 -2.6875
  424MOL0     H57177   7.899   0.264   7.756 -3.1001 -2.2248  0.0774
  424MOL0     H57178   7.962   0.101   7.752  3.7434  0.3248 -0.6195
  424MOL0     H57179   7.891   0.068   7.986 -0.3209  1.1075  0.3696
  424MOL0     H57180   7.858   0.242   8.004 -1.8805  0.6572 -0.5814
  424MOL0     H57181   7.647   0.165   7.962  0.9787  1.9855  0.3101
  424MOL0     H57182   7.690   0.207   7.805  0.6195 -1.7359 -1.9124
  424MOL0     H57183   7.770  -0.034   7.766 -0.3592  0.8450 -0.3971
  424MOL0     H57184   7.697  -0.052   7.929 -0.2130 -1.3156 -0.7450
  424MOL0     H57185   7.466  -0.008   7.846  0.2041 -0.3235 -0.0409
  424MOL0     H57186   7.536   0.066   7.696  0.0187 -1.3805 -1.8222
  424MOL0     H57187   7.530  -0.222   7.754  0.5337  1.6136  0.3155
  424MOL0     H57188   7.417  -0.123   7.661 -0.2829  3.7397 -0.9884
  424MOL0     H57189   7.628  -0.058   7.514  0.9905  1.6943  2.9099
  424MOL0     H57190   7.563  -0.225   7.504  0.4449 -0.5053  0.3290
  424MOL0     H57191   7.702  -0.369   7.743  1.4183 -0.7870  0.2040
  424MOL0     H57192   7.922  -0.490   7.788 -1.4577 -0.3608  1.5445
  424MOL0     H57193   8.074  -0.409   7.764 -0.8745 -2.3523 -0.3729
  424MOL0     H57194   8.008  -0.400   8.003  2.2705  1.7233  0.0722
  424MOL0     H57195   7.849  -0.327   7.945  0.7024  4.4101 -1.1461
  424MOL0     H57196   7.999  -0.126   7.868  0.2943 -2.1306 -2.4553
  424MOL0     H57197   8.138  -0.222   7.891 -0.6068  3.5236 -1.8736
  424MOL0     H57198   7.959  -0.125   8.120 -0.3240 -2.5023 -2.0420
  424MOL0     H57199   8.117  -0.048   8.069  1.3214 -0.2425  1.0865
  424MOL0     H57200   8.344  -0.376   8.233 -1.2773 -0.1789  0.0632
  424MOL0     H57201   8.517  -0.455   8.384  1.8380 -0.3229 -1.1096
  424MOL0     H57202   8.631  -0.327   8.429  0.7214 -2.2685 -1.3684
  424MOL0     H57203   8.516  -0.383   8.543 -3.7382 -2.3567 -1.0548
  424MOL0     H57204   8.659   0.142   8.697 -1.4003  1.1619 -0.9966
  424MOL0     H57205   8.778   0.171   8.943 -0.1683  0.2319  1.4832
  424MOL0     H57206   8.647  -0.098   9.270 -0.8495  2.1594  1.0032
  424MOL0     H57207   8.785  -0.110   9.145  2.1633 -0.1499  1.3912
  424MOL0     H57208   8.781   0.002   9.421 -0.0051  1.7168 -0.3623
  424MOL0     H57209   8.882  -0.122   9.353  0.5314  0.1427 -0.9598
  424MOL0     H57210   8.908   0.174   9.272  0.5229  3.1395  4.7410
  424MOL0     H57211   9.029   0.040   9.244  0.8391  0.4374  0.5319
  424MOL0     H57212   8.937   0.166   9.503  0.4746  0.7988 -1.2359
  424MOL0     H57213   9.040   0.023   9.491 -1.0625 -0.9357 -0.5009
  424MOL0     H57214   9.114   0.289   9.343 -2.3256  1.5441  0.8101
  424MOL0     H57215   9.203   0.145   9.365  0.7140  2.1204 -0.9276
  424MOL0     H57216   9.142   0.339   9.593 -0.5936 -1.0609  0.5431
  424MOL0     H57217   9.235   0.191   9.619 -3.5119 -0.5564  0.9328
  424MOL0     H57218   9.313   0.397   9.414 -2.0395 -1.1757 -0.7579
  424MOL0     H57219   9.414   0.269   9.462  1.9780 -0.3384  2.5118
  424MOL0     H57220   9.420   0.344   9.704 -1.4346  0.8436  0.0115
  424MOL0     H57221   9.345   0.485   9.666  0.9097 -0.8951  2.8938
  424MOL0     H57222   8.460  -0.035   9.118  1.4477  2.2502  1.3266
  424MOL0     H57223   8.342  -0.067   8.897 -0.3797  1.6140 -0.5548
  424MOL0     H57224   8.297   0.051   8.477  0.8354  0.8225 -1.2200
  424MOL0     H57225   8.145   0.010   8.312  0.4628  0.0388 -0.8392
  424MOL0     H57226   8.303   0.332   7.949  1.8966  0.7232  1.0591
  424MOL0     H57227   8.571   0.331   7.956  2.3568  1.4251 -2.1637
  424MOL0     H57228   9.047   0.285   7.972 -1.5504 -0.6634  0.0185
  424MOL0     H57229   9.286   0.272   7.878  1.4806 -0.8691 -2.9496
  424MOL0     H57230   9.470   0.417   7.722  0.5292 -0.3009 -0.2095
  424MOL0     H57231   9.461   0.241   7.761  0.9282 -0.2343  0.7866
  424MOL0     H57232   9.676   0.307   7.679  0.6633  1.4905 -0.5985
  424MOL0     H57233   9.593   0.386   7.545 -1.4269  0.8400  1.3677
  424MOL0     H57234   9.704   0.161   7.505 -0.4445 -1.5754 -0.4122
  424MOL0     H57235   9.549   0.164   7.434 -1.6616  2.9354  0.4656
  424MOL0     H57236   9.585  -0.056   7.546  1.3824 -1.7626  1.5033
  424MOL0     H57237   9.482   0.041   7.662  0.2521  0.9087 -0.2043
  424MOL0     H57238   9.789  -0.021   7.910 -0.1995  0.1547 -1.0049
  424MOL0     H57239   9.129   0.300   7.490 -2.6458 -3.7793 -0.3555
  424MOL0     H57240   8.902   0.272   7.571 -0.9339 -1.2872  2.8380
  425MOL0     O57241   5.543   8.488   6.032 -0.4847 -0.2297 -0.6282
  425MOL0     C57242   5.470   8.503   6.133  0.7814  0.0645  0.0454
  425MOL0     O57243   5.498   8.564   6.252 -0.3544 -0.3205 -0.2627
  425MOL0     C57244   5.627   8.603   6.287 -0.4432  0.1569  0.0017
  425MOL0     C57245   5.637   8.674   6.409  0.2334  0.7331  0.3273
  425MOL0     C57246   5.762   8.691   6.468 -0.0068 -0.2697 -0.3780
  425MOL0     C57247   5.873   8.659   6.401 -0.3263  0.1107  0.2387
  425MOL0     O57248   5.996   8.694   6.445  0.0006  0.0580 -0.3237
  425MOL0     C57249   6.006   8.833   6.481  0.0863 -0.7838 -0.5495
  425MOL0     C57250   6.153   8.873   6.465  0.3014 -0.5215  0.7360
  425MOL0     C57251   6.238   8.871   6.586  0.4395 -0.7903  0.4584
  425MOL0     C57252   6.394   8.871   6.546  0.4366 -0.7242  0.2899
  425MOL0     C57253   6.464   8.858   6.682  0.2761 -1.0125 -0.7010
  425MOL0     C57254   6.615   8.834   6.671 -0.5907 -0.0577 -0.8154
  425MOL0     C57255   6.687   8.923   6.568 -0.1584  0.3767 -0.5435
  425MOL0     C57256   6.684   9.075   6.622 -0.2162  0.9116 -0.6575
  425MOL0     N57257   6.713   9.163   6.507 -0.5770  0.3368  0.2068
  425MOL0     C57258   6.630   9.216   6.412  0.0256  1.1015 -0.1267
  425MOL0     C57259   6.707   9.306   6.359  0.4303  0.6681 -0.3375
  425MOL0     C57260   6.677   9.403   6.246  0.3997  1.0248 -0.1487
  425MOL0     C57261   6.578   9.516   6.278  0.4652 -0.4468  0.4684
  425MOL0     C57262   6.536   9.590   6.151  1.0238 -0.6948 -0.4145
  425MOL0     C57263   6.408   9.658   6.157 -0.2339 -0.4273 -0.8779
  425MOL0     O57264   6.412   9.753   6.053  0.0181 -0.3524 -0.4868
  425MOL0     C57265   6.292   9.809   6.008 -0.2816  0.2677 -0.7761
  425MOL0     C57266   6.225   9.878   6.103 -0.0779  0.2378 -0.3684
  425MOL0     C57267   6.109   9.953   6.078  0.6673 -0.5470 -0.1206
  425MOL0     C57268   6.053  10.037   6.202  0.1523  0.5155  0.7384
  425MOL0     C57269   6.052   9.948   5.950  0.8771 -0.6146  0.2155
  425MOL0     C57270   5.925  10.009   5.922  0.5031 -0.1526  0.5518
  425MOL0     O57271   5.899  10.029   5.786  0.1286 -0.1599 -0.5002
  425MOL0     C57272   5.763  10.062   5.750  0.4573  0.8722 -0.1587
  425MOL0     C57273   5.702   9.986   5.651 -0.6884 -0.4569  0.9902
  425MOL0     C57274   5.567   9.987   5.631 -0.6098 -0.1007 -0.9169
  425MOL0     C57275   5.491  10.072   5.710  1.0814 -0.1090 -0.3175
  425MOL0     O57276   5.357  10.051   5.701 -0.0357 -0.9229  0.4702
  425MOL0     C57277   5.260  10.149   5.751 -0.2879  0.0200  0.0109
  425MOL0     C57278   5.123  10.083   5.722  0.2723 -1.1114 -0.4661
  425MOL0     C57279   5.012  10.184   5.757  0.4244 -0.3818 -0.0622
  425MOL0     C57280   4.912  10.109   5.840 -0.0592 -0.7887  0.3975
  425MOL0     C57281   4.792  10.197   5.868 -0.9446 -0.5787 -0.7855
  425MOL0     C57282   4.668  10.123   5.933 -0.6721 -0.6268  0.4580
  425MOL0     C57283   4.696  10.079   6.076  0.5441  0.6129  0.1397
  425MOL0     C57284   4.597   9.967   6.121  0.0700  0.2248  0.5413
  425MOL0    Cl57285   4.585   9.831   6.003 -0.1243 -0.3840  0.0372
  425MOL0     C57286   5.551  10.159   5.800  0.4223 -0.2681 -0.4278
  425MOL0     C57287   5.684  10.149   5.830 -0.0505  0.3814 -0.1855
  425MOL0     O57288   5.838  10.015   6.011 -0.5595  0.0632 -0.7819
  425MOL0     C57289   6.127   9.878   5.851  0.8203 -0.0368 -0.3174
  425MOL0     C57290   6.248   9.806   5.877  1.1374 -0.4530 -0.3187
  425MOL0     N57291   6.830   9.298   6.414  0.0994  0.2244 -0.0172
  425MOL0     N57292   6.832   9.213   6.507  0.2921 -0.3940 -0.2192
  425MOL0     C57293   5.869   8.604   6.270 -0.5626 -0.0222 -0.3229
  425MOL0     C57294   5.746   8.575   6.217  0.2435 -0.3776  0.2799
  425MOL0     C57295   5.335   8.451   6.117 -0.7142  0.6236  0.2409
  425MOL0     C57296   5.240   8.481   6.215  0.4485 -0.2832  0.3455
  425MOL0     C57297   5.121   8.423   6.212 -0.2900 -0.0765 -0.2172
  425MOL0     C57298   5.071   8.353   6.105 -0.2398  0.7543 -0.3460
  425MOL0     O57299   4.937   8.321   6.102 -0.9240 -0.3147 -0.0329
  425MOL0     C57300   4.867   8.428   6.035 -0.1342  0.0139 -0.2376
  425MOL0     C57301   4.725   8.392   5.991  0.2881 -0.1060 -0.0496
  425MOL0     C57302   4.638   8.372   6.117  0.2263  0.1683  0.1138
  425MOL0     C57303   4.490   8.346   6.098  0.4018  0.7546  0.4430
  425MOL0     C57304   4.475   8.210   6.060  0.2339  0.3913 -0.7733
  425MOL0     C57305   4.466   8.098   6.040 -0.0126 -0.1267  0.0458
  425MOL0     C57306   5.162   8.311   6.006 -0.2740 -0.7461 -0.5110
  425MOL0     C57307   5.299   8.348   6.020  0.4140  0.1184 -0.2391
  425MOL0     H57308   5.543   8.699   6.458 -0.3901  1.0788 -0.9820
  425MOL0     H57309   5.771   8.729   6.569 -0.9222 -0.0492 -0.3755
  425MOL0     H57310   5.945   8.889   6.409  0.8181  0.5359 -0.1753
  425MOL0     H57311   5.965   8.857   6.580  1.8391  1.0868 -0.2071
  425MOL0     H57312   6.199   8.818   6.383  0.3638  2.0456 -1.0608
  425MOL0     H57313   6.156   8.981   6.444 -3.3991 -0.4940 -0.2895
  425MOL0     H57314   6.218   8.961   6.645  1.8225 -0.4460  0.4384
  425MOL0     H57315   6.226   8.781   6.647  1.2339  0.1628  2.0925
  425MOL0     H57316   6.408   8.776   6.493 -0.5588 -0.1176 -1.1433
  425MOL0     H57317   6.433   8.952   6.484 -0.0976  0.2806  1.2323
  425MOL0     H57318   6.446   8.946   6.745  3.3813 -0.8180  0.0667
  425MOL0     H57319   6.420   8.773   6.736 -0.8634  0.1198  0.2281
  425MOL0     H57320   6.667   8.832   6.767  1.4694 -3.2541 -1.8386
  425MOL0     H57321   6.620   8.728   6.644 -2.3330 -0.7393  1.1827
  425MOL0     H57322   6.791   8.889   6.572 -1.0924 -2.8155 -1.1954
  425MOL0     H57323   6.645   8.920   6.468 -0.7482  2.0573 -0.3715
  425MOL0     H57324   6.761   9.081   6.699 -0.3981  0.5224 -0.4391
  425MOL0     H57325   6.591   9.104   6.671  1.3290  4.0596  0.6939
  425MOL0     H57326   6.526   9.185   6.407  0.7113 -1.5236  0.0801
  425MOL0     H57327   6.771   9.456   6.232  2.3523 -1.3382  2.7012
  425MOL0     H57328   6.660   9.339   6.159  0.7309  0.4637  0.1940
  425MOL0     H57329   6.610   9.592   6.349 -2.1246  0.3632  0.8737
  425MOL0     H57330   6.483   9.474   6.312 -0.5213 -1.3312 -3.0147
  425MOL0     H57331   6.539   9.527   6.061 -2.9487  0.9205 -1.8922
  425MOL0     H57332   6.601   9.678   6.152  2.9376 -2.0252  0.7163
  425MOL0     H57333   6.398   9.712   6.252  1.9779 -1.1549 -0.1881
  425MOL0     H57334   6.321   9.592   6.146 -0.4267 -1.0036  2.9113
  425MOL0     H57335   6.259   9.866   6.205 -1.1724 -0.9953 -0.1267
  425MOL0     H57336   5.965   9.994   6.250 -1.2215 -0.3395 -2.2653
  425MOL0     H57337   6.137  10.041   6.271  1.8593  1.9954 -1.2865
  425MOL0     H57338   6.026  10.139   6.176  0.4861  0.4773  0.2184
  425MOL0     H57339   5.757   9.918   5.587 -1.1056  1.0136 -1.0085
  425MOL0     H57340   5.537   9.913   5.556 -1.3954  0.4761 -1.1882
  425MOL0     H57341   5.265  10.159   5.860 -2.0035 -0.6569  0.1868
  425MOL0     H57342   5.256  10.241   5.692  2.0764  0.1421 -0.0615
  425MOL0     H57343   5.123  10.040   5.621  1.7560 -2.7276  0.1697
  425MOL0     H57344   5.113   9.994   5.784  2.4056 -1.5160 -0.6402
  425MOL0     H57345   4.962  10.200   5.661  0.0214  0.2682  0.2545
  425MOL0     H57346   5.052  10.272   5.806  1.3083 -1.2997  0.9114
  425MOL0     H57347   4.874  10.015   5.800 -3.6905 -1.9655  5.5669
  425MOL0     H57348   4.953  10.074   5.935 -0.2348  0.2082  0.8538
  425MOL0     H57349   4.765  10.248   5.776  0.5052  0.6037 -0.5732
  425MOL0     H57350   4.822  10.278   5.935 -0.3739 -1.9012  0.6187
  425MOL0     H57351   4.587  10.196   5.941 -1.3160 -1.4061  1.2548
  425MOL0     H57352   4.639  10.038   5.870  2.4221 -1.9003  0.5435
  425MOL0     H57353   4.688  10.162   6.146 -1.2751  0.8601 -0.3091
  425MOL0     H57354   4.799  10.050   6.097  0.3589  0.9726  1.6405
  425MOL0     H57355   4.499  10.016   6.118 -0.2517 -0.2707  2.1086
  425MOL0     H57356   4.619   9.939   6.224  0.4305  1.0944  0.7126
  425MOL0     H57357   5.488  10.228   5.855  0.6347 -0.2163 -0.2510
  425MOL0     H57358   5.736  10.208   5.905 -2.1872  2.3589 -0.1655
  425MOL0     H57359   6.101   9.883   5.746  0.3030  1.6681 -0.1309
  425MOL0     H57360   6.302   9.761   5.794  0.6348  2.4047 -2.3282
  425MOL0     H57361   5.967   8.584   6.226 -0.5005  0.9494 -0.6540
  425MOL0     H57362   5.751   8.523   6.122  1.0983 -0.1280  0.1750
  425MOL0     H57363   5.271   8.548   6.295 -0.5951  1.2794 -0.5049
  425MOL0     H57364   5.060   8.439   6.300  1.1307  1.2099  0.5948
  425MOL0     H57365   4.874   8.513   6.103  1.0120 -0.8563  0.7618
  425MOL0     H57366   4.932   8.452   5.950  1.1627  0.3694  0.8178
  425MOL0     H57367   4.731   8.304   5.926  0.4592  0.3578 -0.6683
  425MOL0     H57368   4.680   8.468   5.927  1.5209  0.1302 -0.6730
  425MOL0     H57369   4.636   8.456   6.187  2.1618 -0.0960  0.5371
  425MOL0     H57370   4.688   8.294   6.174  0.0538  0.2986  0.4429
  425MOL0     H57371   4.445   8.414   6.025 -3.4365  1.1554  2.8720
  425MOL0     H57372   4.446   8.375   6.194  1.6252  0.5455  1.0875
  425MOL0     H57373   4.484   7.992   6.038 -1.2953 -0.3537 -1.5073
  425MOL0     H57374   5.121   8.249   5.927  2.9947 -0.2120 -2.8377
  425MOL0     H57375   5.372   8.298   5.958 -1.5475 -5.7729  1.4988
  426MOL0     O57376  10.779   3.146  10.077  0.1388 -0.5393  0.0253
  426MOL0     C57377  10.888   3.097  10.113 -0.3092  0.6822 -0.1167
  426MOL0     O57378  10.898   3.011  10.218 -0.0418 -0.0198 -0.0420
  426MOL0     C57379  10.775   2.991  10.290  0.2567 -0.0774 -0.1230
  426MOL0     C57380  10.723   2.863  10.285  0.6539 -0.3078  0.2217
  426MOL0     C57381  10.594   2.849  10.344  0.0514  0.4440 -0.1374
  426MOL0     C57382  10.525   2.951  10.417  0.4677 -0.1304  0.5787
  426MOL0     O57383  10.398   2.933  10.462  0.2641 -0.4041  0.4827
  426MOL0     C57384  10.347   3.029  10.550 -0.1299  0.2273  0.1117
  426MOL0     C57385  10.248   2.965  10.651 -0.2950  0.3431 -0.6953
  426MOL0     C57386  10.117   2.910  10.588  0.3052  0.2554  0.0449
  426MOL0     C57387  10.006   2.880  10.697  0.7050  0.5952  1.1039
  426MOL0     C57388   9.881   2.811  10.640  0.7597 -0.6917  0.1622
  426MOL0     C57389   9.765   2.781  10.742 -0.3543  0.7248 -0.7682
  426MOL0     C57390   9.632   2.736  10.691  0.3993 -0.6715  0.1349
  426MOL0     C57391   9.547   2.682  10.808 -0.1599  0.2862  0.1234
  426MOL0     N57392   9.417   2.630  10.772 -0.0193 -0.1572  0.1132
  426MOL0     C57393   9.313   2.696  10.698  0.8833 -0.6668  0.1454
  426MOL0     C57394   9.214   2.607  10.681  0.5763  0.0695  0.0169
  426MOL0     C57395   9.081   2.618  10.612  0.2694  0.5671  0.0326
  426MOL0     C57396   9.082   2.666  10.471  0.0341 -0.2553 -0.1419
  426MOL0     C57397   8.938   2.677  10.419  0.4347 -0.3234 -0.1568
  426MOL0     C57398   8.833   2.762  10.490 -0.1661 -0.0809  0.0131
  426MOL0     O57399   8.710   2.762  10.422 -0.2535 -0.2299 -0.0499
  426MOL0     C57400   8.614   2.849  10.459 -0.3051  0.2131 -0.3247
  426MOL0     C57401   8.627   2.943  10.568  0.8060  0.3917  0.1141
  426MOL0     C57402   8.528   3.030  10.594 -1.4011  0.8970  0.1818
  426MOL0     C57403   8.552   3.137  10.697 -0.0440 -0.2988 -0.3455
  426MOL0     C57404   8.407   3.008  10.536  0.1413  0.7094  0.7334
  426MOL0     C57405   8.288   3.085  10.565  0.8796 -0.6037 -0.4016
  426MOL0     O57406   8.171   3.017  10.584 -0.0417 -0.0717  0.4536
  426MOL0     C57407   8.048   3.078  10.614 -0.1103 -0.5317  0.1241
  426MOL0     C57408   8.032   3.189  10.711 -0.5071  0.0411  0.8711
  426MOL0     C57409   7.910   3.237  10.740  0.0441 -0.3078 -0.4783
  426MOL0     C57410   7.798   3.172  10.680  0.4011 -1.4988 -0.3049
  426MOL0     O57411   7.662   3.188  10.716 -0.1502 -0.4183  0.7125
  426MOL0     C57412   7.623   3.314  10.770  0.2722 -0.0455  0.4346
  426MOL0     C57413   7.472   3.301  10.787  0.3116  0.1792  0.6731
  426MOL0     C57414   7.409   3.300  10.646  0.5246  0.0312  0.0933
  426MOL0     C57415   7.253   3.300  10.647 -0.4680  0.2562  0.1549
  426MOL0     C57416   7.191   3.426  10.714  0.2322  0.4460 -0.1516
  426MOL0     C57417   7.038   3.432  10.675  0.6089 -0.3173  0.1521
  426MOL0     C57418   6.964   3.558  10.737  0.2695  0.1447  0.5484
  426MOL0     C57419   6.812   3.572  10.702 -0.4869 -0.2023  0.1759
  426MOL0    Cl57420   6.793   3.587  10.521 -0.2333 -0.1813 -0.3617
  426MOL0     C57421   7.820   3.070  10.594  0.5054  0.6058  0.0627
  426MOL0     C57422   7.939   3.024  10.558 -0.0836 -0.4229  0.7330
  426MOL0     O57423   8.299   3.209  10.564  0.3989 -0.3013 -0.3760
  426MOL0     C57424   8.387   2.905  10.437 -0.1675 -0.1992  0.5645
  426MOL0     C57425   8.500   2.833  10.390  0.5279  0.5631  0.4811
  426MOL0     N57426   9.258   2.483  10.736  0.7395  0.8552 -0.3159
  426MOL0     N57427   9.376   2.498  10.789  0.3462  0.0868  0.5531
  426MOL0     C57428  10.594   3.067  10.430 -0.3731 -0.9922  0.5713
  426MOL0     C57429  10.716   3.095  10.362 -0.6708  0.3219 -0.3840
  426MOL0     C57430  11.009   3.133  10.043  0.2078 -0.5660  0.2072
  426MOL0     C57431  11.000   3.225   9.938 -0.6215  0.1302  1.5765
  426MOL0     C57432  11.124   3.247   9.866 -0.4507  0.3228 -0.1239
  426MOL0     C57433  11.248   3.186   9.899  0.5957  0.0851 -0.1702
  426MOL0     O57434  11.363   3.196   9.833 -1.1738 -0.1693  0.5055
  426MOL0     C57435  11.367   3.281   9.720  0.0164  0.2570 -0.4386
  426MOL0     C57436  11.446   3.405   9.744 -1.0266  0.8090  0.1970
  426MOL0     C57437  11.405   3.497   9.859 -1.1144 -0.7470 -0.0440
  426MOL0     C57438  11.499   3.629   9.898 -0.5342  0.4603  0.3032
  426MOL0     C57439  11.635   3.598   9.853 -1.7365 -0.6978 -0.2127
  426MOL0     C57440  11.747   3.579   9.814  0.0313 -0.7980 -0.9957
  426MOL0     C57441  11.242   3.090   9.997 -0.5240  0.2059  0.1527
  426MOL0     C57442  11.130   3.072  10.070  0.0365 -0.3156 -0.4505
  426MOL0     H57443  10.772   2.786  10.226  0.3618 -2.7624  2.9471
  426MOL0     H57444  10.550   2.751  10.328  2.0790  0.0297 -4.2657
  426MOL0     H57445  10.422   3.079  10.612 -1.6890  0.2656  2.0734
  426MOL0     H57446  10.299   3.110  10.494 -1.7306 -0.7973 -0.0717
  426MOL0     H57447  10.312   2.888  10.696 -1.3475 -0.9755 -1.3999
  426MOL0     H57448  10.222   3.053  10.710  1.3890  1.1044 -1.0256
  426MOL0     H57449  10.060   2.978  10.525  2.4340  1.0814 -1.1172
  426MOL0     H57450  10.140   2.818  10.534  2.7221 -0.0106  1.3672
  426MOL0     H57451  10.033   2.806  10.773 -1.3389 -1.0398  0.3534
  426MOL0     H57452   9.985   2.977  10.743  2.0031  1.0410  0.7993
  426MOL0     H57453   9.837   2.887  10.575 -3.3133 -1.6447  1.5000
  426MOL0     H57454   9.909   2.721  10.584 -2.0293 -1.6630  0.1478
  426MOL0     H57455   9.809   2.710  10.811  1.0903  0.4100 -1.9589
  426MOL0     H57456   9.756   2.876  10.795  0.6389 -0.5778  1.9163
  426MOL0     H57457   9.583   2.819  10.639  1.6069  0.6256  0.9746
  426MOL0     H57458   9.646   2.666  10.608 -0.6655 -0.6328 -0.0877
  426MOL0     H57459   9.537   2.760  10.884  1.6372  0.6092  0.0719
  426MOL0     H57460   9.596   2.602  10.865 -0.2686  0.3015  0.2380
  426MOL0     H57461   9.318   2.798  10.661 -1.0296 -0.1437  1.1675
  426MOL0     H57462   9.038   2.518  10.607  1.7868 -0.0711 -0.7335
  426MOL0     H57463   9.022   2.687  10.673 -3.3922 -1.4958 -0.8895
  426MOL0     H57464   9.129   2.593  10.404  1.9201  1.2499 -0.5432
  426MOL0     H57465   9.127   2.765  10.461 -0.5998  0.0093 -0.4329
  426MOL0     H57466   8.890   2.580  10.436 -1.0789  0.6817  1.7174
  426MOL0     H57467   8.953   2.705  10.314 -0.5482 -1.8542 -0.7521
  426MOL0     H57468   8.878   2.862  10.497  1.0998 -0.6250 -0.1377
  426MOL0     H57469   8.833   2.718  10.591  1.9774  0.2349  0.2067
  426MOL0     H57470   8.708   2.962  10.639 -1.9071  1.0907  3.2637
  426MOL0     H57471   8.603   3.220  10.647 -2.5713  1.8492  0.3983
  426MOL0     H57472   8.464   3.172  10.751  0.8260 -1.8975  2.2603
  426MOL0     H57473   8.613   3.091  10.775 -0.8949 -0.7421  0.0601
  426MOL0     H57474   8.119   3.235  10.758 -0.4399  0.9094 -0.0804
  426MOL0     H57475   7.908   3.322  10.808  1.0042 -0.5238 -0.1695
  426MOL0     H57476   7.670   3.307  10.868 -0.1806 -0.7079  0.6123
  426MOL0     H57477   7.671   3.392  10.710 -0.5654  0.9696  1.0400
  426MOL0     H57478   7.454   3.203  10.831  0.6740 -1.4554 -2.5441
  426MOL0     H57479   7.430   3.384  10.846  1.3364  2.3863 -1.5163
  426MOL0     H57480   7.446   3.217  10.585 -1.4690 -1.2719  0.5576
  426MOL0     H57481   7.438   3.388  10.589  0.7145 -1.7806 -2.8295
  426MOL0     H57482   7.226   3.287  10.542 -0.5019 -0.1738  0.2168
  426MOL0     H57483   7.209   3.222  10.710 -0.4206  0.6736  0.7141
  426MOL0     H57484   7.236   3.519  10.677  1.2965 -0.2404 -0.5918
  426MOL0     H57485   7.202   3.427  10.823  4.1708 -0.2880 -0.4104
  426MOL0     H57486   7.026   3.442  10.567  1.2411  2.2853  0.2569
  426MOL0     H57487   6.981   3.346  10.712 -1.6796  1.9744  2.3868
  426MOL0     H57488   7.017   3.651  10.715  2.7320 -1.3186 -0.0159
  426MOL0     H57489   6.973   3.540  10.844 -4.3045 -1.8591  0.8400
  426MOL0     H57490   6.766   3.663  10.741  0.1036 -0.9974  2.9095
  426MOL0     H57491   6.756   3.483  10.731 -0.9039  0.8203  2.7388
  426MOL0     H57492   7.729   3.027  10.551 -0.5445  0.6642  2.0843
  426MOL0     H57493   7.958   2.941  10.491 -2.2711 -0.5784  0.2229
  426MOL0     H57494   8.288   2.894  10.396  0.4275 -0.1209 -0.9620
  426MOL0     H57495   8.482   2.745  10.328 -1.3134 -0.3743  2.2272
  426MOL0     H57496  10.554   3.153  10.484 -0.9066 -1.9093  1.6795
  426MOL0     H57497  10.779   3.182  10.349 -2.9716  1.9678 -1.1594
  426MOL0     H57498  10.915   3.285   9.909  0.9721  1.1105 -1.5377
  426MOL0     H57499  11.101   3.328   9.798  1.4869  0.7962 -0.2777
  426MOL0     H57500  11.411   3.235   9.630 -3.7025 -1.5964 -1.5162
  426MOL0     H57501  11.268   3.299   9.678 -0.8983 -2.7555  0.1493
  426MOL0     H57502  11.441   3.464   9.652  0.7488 -4.1399 -3.5236
  426MOL0     H57503  11.549   3.371   9.751 -1.5522 -0.5345  2.1420
  426MOL0     H57504  11.418   3.433   9.946 -1.1938 -0.6428  0.0452
  426MOL0     H57505  11.302   3.534   9.859 -1.5012 -1.7977  0.7032
  426MOL0     H57506  11.491   3.643  10.006 -3.2910  0.3747  0.1912
  426MOL0     H57507  11.457   3.722   9.857  1.3453  1.2461  0.0775
  426MOL0     H57508  11.848   3.572   9.780  0.1243 -0.7263 -0.7342
  426MOL0     H57509  11.328   3.028  10.020 -0.1788  1.2708  1.9273
  426MOL0     H57510  11.124   3.005  10.156 -1.4428  2.0052  1.3661
  427MOL0     O57511   1.825  10.276   5.686  0.6691  0.1007  0.2078
  427MOL0     C57512   1.828  10.160   5.643  0.3585  0.4059 -0.2259
  427MOL0     O57513   1.716  10.099   5.590 -0.6440  0.4751  0.3248
  427MOL0     C57514   1.588  10.139   5.594  0.7286 -0.0748  0.7263
  427MOL0     C57515   1.531  10.221   5.696  0.2865 -0.1117  0.1693
  427MOL0     C57516   1.395  10.261   5.686 -0.1541  0.7690  0.4499
  427MOL0     C57517   1.302  10.203   5.592  0.4890 -0.0486  0.2906
  427MOL0     O57518   1.166  10.219   5.591 -0.9121 -0.6831 -0.0070
  427MOL0     C57519   1.106  10.267   5.712  0.3101 -0.2063  0.5687
  427MOL0     C57520   1.033  10.395   5.688  0.1658  0.3847 -0.0171
  427MOL0     C57521   0.941  10.384   5.567 -0.5524 -0.1019  0.6694
  427MOL0     C57522   0.865  10.518   5.549  0.0787  0.2438  0.1473
  427MOL0     C57523   0.776  10.506   5.421  0.7449 -0.9808  0.2216
  427MOL0     C57524   0.747  10.651   5.373 -0.2158 -0.3521  0.6633
  427MOL0     C57525   0.666  10.664   5.235 -0.3535  0.7311 -0.0711
  427MOL0     C57526   0.671  10.798   5.150 -0.5461 -0.1447 -0.3790
  427MOL0     N57527   0.566  10.807   5.046 -0.4904  0.1950 -0.0720
  427MOL0     C57528   0.515  10.695   4.976  0.6497  0.6657 -0.4302
  427MOL0     C57529   0.433  10.738   4.876  0.4457  0.0067 -0.4959
  427MOL0     C57530   0.391  10.645   4.762  0.6501 -0.1248 -1.2424
  427MOL0     C57531   0.350  10.708   4.630  0.1751  0.7464  0.7511
  427MOL0     C57532   0.206  10.749   4.638 -0.1993  0.9810 -0.3888
  427MOL0     C57533   0.166  10.860   4.544 -0.2479  0.3904  0.2915
  427MOL0     O57534   0.089  10.961   4.605  0.2878  0.3199 -0.5890
  427MOL0     C57535  -0.037  10.983   4.544 -0.4760 -0.0968  0.2151
  427MOL0     C57536  -0.127  10.882   4.501 -0.4395  0.6374 -0.3449
  427MOL0     C57537  -0.250  10.922   4.451 -0.0072  0.4476  1.2020
  427MOL0     C57538  -0.355  10.808   4.416 -0.0729 -0.5865  0.0870
  427MOL0     C57539  -0.281  11.064   4.432  0.5020  0.3562  0.2124
  427MOL0     C57540  -0.418  11.117   4.395 -0.2284  0.4540 -0.0795
  427MOL0     O57541  -0.425  11.207   4.296 -0.4526 -0.9508 -0.9104
  427MOL0     C57542  -0.549  11.262   4.285  0.1225  0.1728  0.4818
  427MOL0     C57543  -0.593  11.339   4.391  0.1828 -0.3372  0.3224
  427MOL0     C57544  -0.735  11.375   4.395 -0.0360 -0.0093  0.0092
  427MOL0     C57545  -0.822  11.358   4.285  0.6001  0.4305 -0.0535
  427MOL0     O57546  -0.946  11.405   4.275  0.5291  0.3773  0.0724
  427MOL0     C57547  -0.990  11.509   4.368 -0.0334 -1.0408  0.1266
  427MOL0     C57548  -1.118  11.558   4.309 -0.5841 -0.1869 -0.1183
  427MOL0     C57549  -1.243  11.468   4.308 -1.0473 -0.9030  0.2303
  427MOL0     C57550  -1.250  11.357   4.204 -0.6809 -1.0792 -0.4774
  427MOL0     C57551  -1.394  11.315   4.185 -0.5235  0.0206  0.2302
  427MOL0     C57552  -1.456  11.245   4.315  0.0205 -0.9070  0.3835
  427MOL0     C57553  -1.588  11.180   4.286  0.5607  0.1223 -0.5308
  427MOL0     C57554  -1.704  11.275   4.327 -0.6282  0.4664 -0.2361
  427MOL0    Cl57555  -1.723  11.401   4.213  0.0917  0.0830  0.0405
  427MOL0     C57556  -0.762  11.298   4.172 -0.4063  0.2378 -0.6227
  427MOL0     C57557  -0.629  11.244   4.168 -0.5521  0.1664 -0.2522
  427MOL0     O57558  -0.515  11.074   4.454 -0.1186 -0.5124 -0.0718
  427MOL0     C57559  -0.191  11.161   4.479 -0.0557 -0.5403  0.0526
  427MOL0     C57560  -0.072  11.115   4.530  0.4563  0.0343  0.3853
  427MOL0     N57561   0.420  10.870   4.885 -0.2358  0.1614 -0.0276
  427MOL0     N57562   0.506  10.908   4.986 -0.0517  1.0298  0.8377
  427MOL0     C57563   1.366  10.118   5.501  1.6168  0.1502 -0.8371
  427MOL0     C57564   1.503  10.091   5.493 -0.6987 -0.5478 -0.5866
  427MOL0     C57565   1.951  10.086   5.638 -0.3844  0.4435  0.1398
  427MOL0     C57566   1.946   9.949   5.595  0.0181 -0.8694  0.0424
  427MOL0     C57567   2.060   9.869   5.596  0.1416  0.0138 -0.6209
  427MOL0     C57568   2.188   9.924   5.628 -0.2701 -0.2592 -0.3673
  427MOL0     O57569   2.303   9.859   5.635  0.6202  0.8476  0.0927
  427MOL0     C57570   2.322   9.724   5.585  0.4417 -0.4590 -0.4035
  427MOL0     C57571   2.317   9.726   5.435 -0.2317 -0.2642  0.2135
  427MOL0     C57572   2.307   9.579   5.379  0.0162  0.3426  0.3575
  427MOL0     C57573   2.450   9.535   5.340  0.2292  0.3249  0.8039
  427MOL0     C57574   2.559   9.538   5.437 -0.2402 -1.0626  0.3686
  427MOL0     C57575   2.665   9.538   5.499 -0.3770  0.1525  0.5430
  427MOL0     C57576   2.193  10.063   5.673 -0.1376 -0.5744 -0.4359
  427MOL0     C57577   2.072  10.139   5.684 -0.0232 -0.1438  0.3598
  427MOL0     H57578   1.587  10.244   5.785 -0.5074  1.9090  0.1924
  427MOL0     H57579   1.372  10.328   5.769  0.8061  0.7806  0.7118
  427MOL0     H57580   1.042  10.185   5.745  2.8194 -3.1959 -1.4168
  427MOL0     H57581   1.174  10.275   5.798 -1.8475  0.9704  2.2747
  427MOL0     H57582   0.967  10.415   5.774 -1.6051  1.1761 -1.4910
  427MOL0     H57583   1.094  10.485   5.672  2.8580 -1.2866  0.2052
  427MOL0     H57584   0.998  10.372   5.474 -1.8182  3.1176 -0.6788
  427MOL0     H57585   0.866  10.308   5.586  0.0120 -0.8802 -0.1279
  427MOL0     H57586   0.803  10.554   5.631  0.0629 -0.3253  0.3912
  427MOL0     H57587   0.941  10.596   5.541  0.1169  0.0341 -2.1678
  427MOL0     H57588   0.827  10.456   5.339  0.6167 -4.6194  2.1789
  427MOL0     H57589   0.679  10.463   5.448 -0.6142  1.8650  0.2681
  427MOL0     H57590   0.693  10.709   5.448 -0.2937 -0.4197  0.6588
  427MOL0     H57591   0.845  10.694   5.347  1.6823 -4.7741 -0.5837
  427MOL0     H57592   0.695  10.580   5.170  0.1450  1.3745 -0.6983
  427MOL0     H57593   0.560  10.640   5.249 -0.1712 -0.7126 -0.8346
  427MOL0     H57594   0.767  10.814   5.101 -0.4390  0.9299  0.1547
  427MOL0     H57595   0.653  10.884   5.215  1.9397  0.8632 -0.9159
  427MOL0     H57596   0.548  10.592   4.981  1.1703  0.7752 -1.4165
  427MOL0     H57597   0.483  10.589   4.744  2.6721  2.0829  1.3011
  427MOL0     H57598   0.317  10.581   4.811 -0.9683  1.7431 -1.1202
  427MOL0     H57599   0.363  10.633   4.552  0.3072  3.1248 -1.6548
  427MOL0     H57600   0.416  10.793   4.613  0.3611  0.0958 -2.3243
  427MOL0     H57601   0.191  10.781   4.742  2.4682 -0.0754  0.4039
  427MOL0     H57602   0.153  10.654   4.623  0.4385  0.2856  1.4689
  427MOL0     H57603   0.118  10.834   4.450 -0.3171 -1.2317  0.7473
  427MOL0     H57604   0.257  10.908   4.506  0.9597 -2.3160 -0.4009
  427MOL0     H57605  -0.110  10.776   4.520 -2.6105 -0.1359 -2.2295
  427MOL0     H57606  -0.294  10.724   4.382 -0.9983 -1.9483  1.6366
  427MOL0     H57607  -0.415  10.777   4.502 -0.6106 -0.2980 -0.1782
  427MOL0     H57608  -0.416  10.854   4.338  3.1899 -0.9399 -2.9148
  427MOL0     H57609  -0.532  11.369   4.476  2.1833  3.3371 -2.1323
  427MOL0     H57610  -0.774  11.432   4.479 -0.1393  0.6424 -0.4768
  427MOL0     H57611  -1.000  11.478   4.472  1.6487  0.7852  0.8992
  427MOL0     H57612  -0.910  11.583   4.354  1.5149 -3.0896 -3.2041
  427MOL0     H57613  -1.133  11.652   4.363 -1.9191 -0.5296  0.1319
  427MOL0     H57614  -1.091  11.575   4.204 -0.8424 -3.1263 -0.7523
  427MOL0     H57615  -1.330  11.531   4.284 -0.9037 -1.3972 -1.7603
  427MOL0     H57616  -1.255  11.426   4.408 -0.6229  0.0724  0.7067
  427MOL0     H57617  -1.196  11.391   4.116  0.8650  1.6519  1.3957
  427MOL0     H57618  -1.190  11.271   4.236  3.1383  1.0611 -1.2717
  427MOL0     H57619  -1.402  11.248   4.099 -0.5061 -0.6066  0.7116
  427MOL0     H57620  -1.448  11.407   4.157  0.7212  0.8319  0.4342
  427MOL0     H57621  -1.390  11.163   4.346  1.5545 -0.2367 -0.9713
  427MOL0     H57622  -1.459  11.320   4.394 -0.4779  1.1506 -1.5154
  427MOL0     H57623  -1.606  11.091   4.347  0.6709 -1.1552 -2.3044
  427MOL0     H57624  -1.608  11.148   4.183  0.9643 -3.2642  0.3206
  427MOL0     H57625  -1.687  11.318   4.426 -1.2605 -2.1583  1.1018
  427MOL0     H57626  -1.794  11.213   4.333 -0.4773  0.0743 -1.6936
  427MOL0     H57627  -0.819  11.292   4.080 -1.8391 -2.2326  0.3313
  427MOL0     H57628  -0.586  11.202   4.078 -1.2944 -0.3286 -0.3801
  427MOL0     H57629  -0.209  11.268   4.478  1.8346 -0.1888 -0.9436
  427MOL0     H57630   0.004  11.182   4.568  0.7628 -0.4441  0.6245
  427MOL0     H57631   1.298  10.079   5.426 -0.9756  0.3221  1.2476
  427MOL0     H57632   1.539  10.015   5.424  0.3873 -1.9214  1.4142
  427MOL0     H57633   1.849   9.915   5.561 -0.1945  1.3429 -1.7946
  427MOL0     H57634   2.052   9.764   5.570  2.0642 -0.6802  1.2987
  427MOL0     H57635   2.417   9.678   5.612  1.9797  2.0840 -1.0988
  427MOL0     H57636   2.242   9.665   5.631  2.3613  0.1888  4.4011
  427MOL0     H57637   2.410   9.769   5.395 -0.2064 -0.7221 -0.2280
  427MOL0     H57638   2.231   9.786   5.406 -1.4277 -1.0614  1.9056
  427MOL0     H57639   2.240   9.578   5.293  1.1813 -0.9155 -0.5889
  427MOL0     H57640   2.270   9.514   5.458 -1.1181  2.1667  1.3937
  427MOL0     H57641   2.482   9.599   5.257  0.3339 -0.4580  0.2274
  427MOL0     H57642   2.437   9.438   5.291  1.7201  0.3022  0.3840
  427MOL0     H57643   2.753   9.537   5.560 -1.9553  2.4242  3.0845
  427MOL0     H57644   2.289  10.107   5.697 -0.9196  1.3252 -0.6455
  427MOL0     H57645   2.104  10.239   5.710 -0.0465 -0.6109  2.3866
  428MOL0     O57646   4.764  10.984   4.495 -0.5616  0.3381  0.1812
  428MOL0     C57647   4.812  10.877   4.452 -0.3426 -0.9962 -0.3312
  428MOL0     O57648   4.752  10.785   4.383  0.3172  0.2742  0.1700
  428MOL0     C57649   4.614  10.788   4.367  0.1342 -0.2567 -0.1622
  428MOL0     C57650   4.508  10.874   4.404 -0.4386  0.6110 -0.2410
  428MOL0     C57651   4.372  10.858   4.368 -0.9961  0.9873  0.3374
  428MOL0     C57652   4.334  10.750   4.291 -1.2201 -0.3481 -0.0284
  428MOL0     O57653   4.202  10.736   4.246 -0.3089 -0.2205  0.5506
  428MOL0     C57654   4.100  10.782   4.334  0.4220 -0.9423  0.3085
  428MOL0     C57655   3.964  10.713   4.308  0.3742  0.2866 -0.2489
  428MOL0     C57656   3.855  10.795   4.369 -0.4837  0.1915 -0.2940
  428MOL0     C57657   3.730  10.708   4.367  0.6384  0.2258 -0.3915
  428MOL0     C57658   3.608  10.784   4.422  0.6579  0.8455  0.0814
  428MOL0     C57659   3.474  10.709   4.414 -0.2636  1.0700 -0.0379
  428MOL0     C57660   3.372  10.772   4.505  0.2404  0.0795 -0.3808
  428MOL0     C57661   3.240  10.689   4.518  0.0416 -0.0178  0.3870
  428MOL0     N57662   3.271  10.546   4.550 -0.8737  0.1407  0.9196
  428MOL0     C57663   3.285  10.501   4.679  0.3897  0.3964  0.3302
  428MOL0     C57664   3.308  10.372   4.660  0.0600  0.3729  0.4543
  428MOL0     C57665   3.345  10.265   4.764  0.0622  0.7094  0.2247
  428MOL0     C57666   3.493  10.240   4.777  0.1508 -0.0056  0.0783
  428MOL0     C57667   3.530  10.127   4.863 -0.3909  0.0095 -0.7039
  428MOL0     C57668   3.469   9.998   4.807  0.5498  0.3896 -0.3979
  428MOL0     O57669   3.522   9.880   4.871 -0.2286 -0.5672 -0.4326
  428MOL0     C57670   3.430   9.783   4.881  0.1866  0.7912  0.4555
  428MOL0     C57671   3.371   9.731   4.767 -0.7535  0.3995  0.3884
  428MOL0     C57672   3.262   9.648   4.784  0.4133 -0.6723  0.0458
  428MOL0     C57673   3.205   9.604   4.655 -0.7858 -0.2280  0.3208
  428MOL0     C57674   3.216   9.605   4.912 -1.2227 -0.1152  0.1113
  428MOL0     C57675   3.101   9.510   4.934  0.5540  0.0951  0.1369
  428MOL0     O57676   3.076   9.472   5.067  0.3000  0.0768 -0.0635
  428MOL0     C57677   2.972   9.380   5.087 -0.5390 -0.0705  1.0330
  428MOL0     C57678   2.859   9.406   5.164  0.4252 -0.0942 -0.1128
  428MOL0     C57679   2.751   9.317   5.182  0.5330  0.0544  0.7902
  428MOL0     C57680   2.764   9.189   5.120  0.5985  0.6054 -0.5259
  428MOL0     O57681   2.663   9.096   5.137  0.1630  0.4245 -0.1686
  428MOL0     C57682   2.553   9.100   5.045 -0.1079 -0.3454 -0.2363
  428MOL0     C57683   2.435   9.014   5.087 -0.1602 -0.3642 -0.1693
  428MOL0     C57684   2.308   9.006   4.989  0.2364  0.1370 -0.2111
  428MOL0     C57685   2.258   9.147   4.945 -0.7034 -0.1926 -0.3427
  428MOL0     C57686   2.205   9.243   5.060  0.3729  0.4952  0.2292
  428MOL0     C57687   2.085   9.330   4.999 -0.3744  0.6045  0.2167
  428MOL0     C57688   2.041   9.424   5.112 -0.5310  0.3349 -0.5791
  428MOL0     C57689   1.897   9.485   5.094  0.6679 -0.4482 -0.7220
  428MOL0    Cl57690   1.764   9.361   5.091 -0.5812  0.6720  0.2295
  428MOL0     C57691   2.876   9.161   5.044 -0.1177  0.2316 -0.8681
  428MOL0     C57692   2.979   9.255   5.029 -0.1246 -0.3125 -0.2972
  428MOL0     O57693   3.049   9.463   4.835  0.3474  0.3685 -0.4855
  428MOL0     C57694   3.281   9.657   5.025  0.2422 -0.2000 -0.2111
  428MOL0     C57695   3.387   9.748   5.015  0.5507  0.0292  0.0697
  428MOL0     N57696   3.288  10.336   4.527  0.2790 -0.0112  0.1576
  428MOL0     N57697   3.272  10.446   4.459 -0.3129  0.2342 -1.1260
  428MOL0     C57698   4.429  10.656   4.264  0.0553  0.3366  0.8373
  428MOL0     C57699   4.567  10.673   4.297  0.0677 -0.0823  0.3230
  428MOL0     C57700   4.970  10.869   4.462 -0.8589  0.1481 -0.6591
  428MOL0     C57701   5.048  10.807   4.363  0.3260 -0.3547  0.2679
  428MOL0     C57702   5.189  10.802   4.371 -0.0256 -0.0967  0.6582
  428MOL0     C57703   5.257  10.856   4.481 -0.5253 -0.5855  0.4180
  428MOL0     O57704   5.395  10.850   4.471 -0.0233  0.1148 -0.0130
  428MOL0     C57705   5.468  10.918   4.573 -0.0332 -1.0603  0.4231
  428MOL0     C57706   5.450  11.080   4.577 -0.0772  0.3383  0.5633
  428MOL0     C57707   5.485  11.133   4.443 -0.2440 -0.5863  0.3354
  428MOL0     C57708   5.546  11.277   4.454  0.0683 -0.2466  0.0011
  428MOL0     C57709   5.462  11.379   4.520  0.2117 -0.3981 -0.0194
  428MOL0     C57710   5.382  11.465   4.553  0.5072 -0.5853  0.1211
  428MOL0     C57711   5.182  10.914   4.584  0.2080 -1.4748  0.7061
  428MOL0     C57712   5.040  10.926   4.575 -1.2309 -0.6211  0.1867
  428MOL0     H57713   4.528  10.971   4.448 -1.8554  0.7442  0.1689
  428MOL0     H57714   4.308  10.943   4.385 -2.2834  0.1224 -0.0249
  428MOL0     H57715   4.122  10.768   4.440 -0.9490 -1.2206  0.5813
  428MOL0     H57716   4.087  10.889   4.316 -2.4121 -1.1676  0.5411
  428MOL0     H57717   3.950  10.730   4.201  0.5359  2.6667  0.0522
  428MOL0     H57718   3.957  10.606   4.329 -2.4440  0.9756  3.1663
  428MOL0     H57719   3.869  10.820   4.474 -0.4282 -0.9232 -0.0298
  428MOL0     H57720   3.837  10.883   4.305  1.3177  0.6326 -0.2551
  428MOL0     H57721   3.715  10.658   4.271  1.9849 -1.0593  0.0344
  428MOL0     H57722   3.759  10.638   4.446 -1.5262 -2.3720 -1.7468
  428MOL0     H57723   3.637  10.819   4.521 -1.0477  1.0340  0.5530
  428MOL0     H57724   3.585  10.879   4.372 -0.3265  0.8585  0.5217
  428MOL0     H57725   3.440  10.691   4.312  1.3347  0.4144 -0.4817
  428MOL0     H57726   3.496  10.605   4.440 -0.1837  0.7489 -1.3428
  428MOL0     H57727   3.422  10.776   4.602  3.1395 -3.0709 -1.5223
  428MOL0     H57728   3.346  10.873   4.471  2.4722  0.6440 -0.5497
  428MOL0     H57729   3.176  10.693   4.430  1.4635  0.0782 -0.6695
  428MOL0     H57730   3.178  10.725   4.601  0.3612 -0.3966  0.7997
  428MOL0     H57731   3.312  10.564   4.763 -0.4995  0.0732  0.8691
  428MOL0     H57732   3.302  10.306   4.855 -0.1187 -0.2008  0.5551
  428MOL0     H57733   3.291  10.178   4.726  0.8580 -0.0052  0.7215
  428MOL0     H57734   3.534  10.332   4.820  0.3388  0.6993 -1.5077
  428MOL0     H57735   3.546  10.242   4.681  1.1542 -0.1614  0.6081
  428MOL0     H57736   3.487  10.153   4.960  1.1024  1.1268 -0.2930
  428MOL0     H57737   3.636  10.122   4.890 -0.9494  1.3594  2.1947
  428MOL0     H57738   3.477  10.000   4.698 -0.0547 -0.4808 -0.4660
  428MOL0     H57739   3.360  10.005   4.815  0.4228  0.9000 -2.1624
  428MOL0     H57740   3.416   9.736   4.668 -0.7229  1.0955  0.4363
  428MOL0     H57741   3.263   9.640   4.569 -1.3209  2.5194  0.9969
  428MOL0     H57742   3.193   9.497   4.640  0.9492 -0.1625 -2.0154
  428MOL0     H57743   3.108   9.653   4.641  0.0768  1.8615  1.1560
  428MOL0     H57744   2.866   9.504   5.209  0.2418 -0.8955  1.7576
  428MOL0     H57745   2.669   9.356   5.241 -0.8213  0.0578 -1.0082
  428MOL0     H57746   2.511   9.201   5.052  0.5977 -0.0587 -0.1121
  428MOL0     H57747   2.571   9.071   4.941  0.0118  6.5912 -2.6582
  428MOL0     H57748   2.475   8.912   5.093  1.0930  0.1932  1.4034
  428MOL0     H57749   2.408   9.042   5.189  1.7737 -0.5362  0.4424
  428MOL0     H57750   2.227   8.956   5.043 -0.3854  1.1856 -0.1414
  428MOL0     H57751   2.328   8.943   4.903 -3.8713 -2.6682  0.6076
  428MOL0     H57752   2.339   9.204   4.899  1.7305 -0.2739  3.4552
  428MOL0     H57753   2.176   9.135   4.873 -0.6200  3.0137 -1.0988
  428MOL0     H57754   2.290   9.300   5.098  0.6476  0.6917 -0.6533
  428MOL0     H57755   2.157   9.188   5.141  0.0171  1.6319  0.8144
  428MOL0     H57756   2.113   9.384   4.908  0.1532 -1.7801 -1.1047
  428MOL0     H57757   2.005   9.262   4.969 -1.0333  2.0451 -1.5034
  428MOL0     H57758   2.112   9.506   5.125 -0.1660  0.1151 -1.1785
  428MOL0     H57759   2.038   9.366   5.205  1.1075  2.3306  0.8041
  428MOL0     H57760   1.889   9.532   4.995  1.4778 -2.4775 -1.8279
  428MOL0     H57761   1.876   9.565   5.165  0.5112  0.5771 -1.8973
  428MOL0     H57762   2.891   9.067   4.990 -0.6283 -0.0656 -0.5050
  428MOL0     H57763   3.058   9.241   4.956 -1.0967  2.9828 -2.1825
  428MOL0     H57764   3.242   9.654   5.126 -2.1478  2.1550 -0.9377
  428MOL0     H57765   3.424   9.798   5.105 -1.9114 -1.7558  2.2216
  428MOL0     H57766   4.393  10.568   4.213  0.3914  2.1343 -2.8024
  428MOL0     H57767   4.639  10.595   4.275  0.8857  0.4758  0.9307
  428MOL0     H57768   4.991  10.757   4.286 -1.5810  1.8926  0.1118
  428MOL0     H57769   5.252  10.759   4.294 -1.8794 -0.5258 -0.6751
  428MOL0     H57770   5.443  10.870   4.668 -1.3707 -0.7763  0.2312
  428MOL0     H57771   5.573  10.893   4.555  0.7470  1.4232  1.2033
  428MOL0     H57772   5.504  11.128   4.659 -1.9499 -3.0864  4.1971
  428MOL0     H57773   5.347  11.112   4.594  0.3109  1.3807  1.0030
  428MOL0     H57774   5.397  11.126   4.380 -1.4204 -0.0998  1.8570
  428MOL0     H57775   5.569  11.075   4.404 -0.6521 -1.9456  1.3801
  428MOL0     H57776   5.570  11.303   4.350 -0.4991  1.5046  0.2760
  428MOL0     H57777   5.642  11.274   4.507 -1.5263  0.4920  3.1338
  428MOL0     H57778   5.291  11.521   4.554  1.2741  0.8202 -2.1332
  428MOL0     H57779   5.216  10.974   4.668  0.3356  1.2819 -1.1987
  428MOL0     H57780   4.984  10.977   4.654 -0.8914  0.1501 -0.0573
  429MOL0     O57781   9.856   7.522   6.885  0.3771  0.4901  0.0385
  429MOL0     C57782   9.888   7.442   6.968  0.5543  0.0691 -0.3602
  429MOL0     O57783   9.806   7.342   7.010 -0.4904  0.3951  0.0008
  429MOL0     C57784   9.677   7.331   6.972  0.1668  0.2741 -0.1602
  429MOL0     C57785   9.647   7.215   6.890 -0.7848 -0.1971 -0.4164
  429MOL0     C57786   9.522   7.188   6.846 -0.2422  0.3139 -0.8952
  429MOL0     C57787   9.422   7.281   6.867 -0.1022 -0.5562 -0.1126
  429MOL0     O57788   9.290   7.275   6.821 -0.2308  0.2450 -0.0323
  429MOL0     C57789   9.239   7.150   6.774 -0.0424 -0.2540  0.1912
  429MOL0     C57790   9.095   7.169   6.729 -0.3496  0.3741 -0.2372
  429MOL0     C57791   9.029   7.028   6.675 -0.4770 -0.1440  0.6172
  429MOL0     C57792   8.958   6.964   6.801  0.2151 -0.1106  0.2488
  429MOL0     C57793   8.899   6.823   6.772  0.1467 -0.1205  0.3802
  429MOL0     C57794   8.810   6.828   6.646  0.1362 -0.2953 -0.4196
  429MOL0     C57795   8.728   6.700   6.632  0.3232 -0.4801 -0.0011
  429MOL0     C57796   8.622   6.673   6.737  0.1541 -0.5431  0.6903
  429MOL0     N57797   8.511   6.592   6.685  0.2384  0.1773 -1.0848
  429MOL0     C57798   8.516   6.477   6.607  0.4469 -0.3236  0.6455
  429MOL0     C57799   8.393   6.431   6.601  0.0771 -0.4607  0.2569
  429MOL0     C57800   8.358   6.308   6.528  1.1035 -0.3094 -0.1345
  429MOL0     C57801   8.213   6.301   6.476  0.9066  0.8518 -0.1706
  429MOL0     C57802   8.116   6.234   6.573 -0.8024 -1.8168 -0.8144
  429MOL0     C57803   7.966   6.246   6.533  0.0458 -0.4624 -0.0494
  429MOL0     O57804   7.889   6.183   6.641  0.4019 -0.3851 -0.6827
  429MOL0     C57805   7.748   6.207   6.649 -0.2346  0.3636  0.1553
  429MOL0     C57806   7.685   6.280   6.548  0.3666 -0.3497  0.0059
  429MOL0     C57807   7.550   6.307   6.553  0.3882  0.1751 -0.1865
  429MOL0     C57808   7.498   6.378   6.423 -0.1916  0.6397  0.0315
  429MOL0     C57809   7.464   6.252   6.649 -0.0022  0.6226 -0.5197
  429MOL0     C57810   7.322   6.269   6.661  0.4648 -0.1821  0.2579
  429MOL0     O57811   7.272   6.374   6.581  0.1780  0.1338  0.7982
  429MOL0     C57812   7.140   6.384   6.563  0.0366  0.1046  0.2701
  429MOL0     C57813   7.089   6.392   6.436  0.2620  0.1459 -0.5461
  429MOL0     C57814   6.947   6.401   6.412  0.6210  0.2779 -0.5874
  429MOL0     C57815   6.856   6.406   6.521 -0.6074  0.1893  0.8774
  429MOL0     O57816   6.724   6.435   6.511 -0.7489  0.2209  0.1497
  429MOL0     C57817   6.649   6.318   6.483  0.5060  0.7182  0.4160
  429MOL0     C57818   6.530   6.309   6.566 -0.4848  0.7175 -0.6334
  429MOL0     C57819   6.433   6.194   6.520  0.5119 -0.6766 -0.0615
  429MOL0     C57820   6.320   6.168   6.625  0.0747  0.1940 -0.6684
  429MOL0     C57821   6.212   6.061   6.609  0.4174  0.0349  0.5229
  429MOL0     C57822   6.122   6.072   6.482 -0.1814  0.7225  0.4709
  429MOL0     C57823   6.007   5.974   6.495 -0.7167 -0.1961 -0.0711
  429MOL0     C57824   5.911   5.997   6.377 -0.1528  0.6153  0.1719
  429MOL0    Cl57825   5.803   6.142   6.414  0.4789 -0.0305  0.1111
  429MOL0     C57826   6.914   6.397   6.654  0.0454  0.1153 -0.3992
  429MOL0     C57827   7.045   6.396   6.668 -0.3809  0.0583 -0.2271
  429MOL0     O57828   7.258   6.199   6.732 -0.4164  0.0050 -0.3948
  429MOL0     C57829   7.522   6.173   6.750 -0.4440 -0.8540 -0.2768
  429MOL0     C57830   7.668   6.145   6.746  0.0090  0.7287 -0.2092
  429MOL0     N57831   8.312   6.512   6.680  0.5806  0.5170  0.2516
  429MOL0     N57832   8.377   6.608   6.731 -0.8224  0.6195  0.6281
  429MOL0     C57833   9.454   7.395   6.945  0.6723 -0.2953 -0.4533
  429MOL0     C57834   9.577   7.417   7.003  0.0083  0.0468 -0.3307
  429MOL0     C57835  10.030   7.448   7.016 -0.0064 -0.4502 -0.1999
  429MOL0     C57836  10.120   7.544   6.958 -0.0111 -0.3878 -0.9357
  429MOL0     C57837  10.253   7.552   7.004  0.4183 -0.0894 -0.7503
  429MOL0     C57838  10.303   7.461   7.097  0.5749  0.8818  0.2974
  429MOL0     O57839  10.433   7.458   7.145 -0.1912 -0.7434 -0.1174
  429MOL0     C57840  10.535   7.527   7.068  0.3555 -0.3560 -0.0477
  429MOL0     C57841  10.662   7.471   7.131 -0.4122  0.5187 -0.6413
  429MOL0     C57842  10.800   7.517   7.068  0.7699  0.2221  0.3586
  429MOL0     C57843  10.924   7.472   7.151  0.4527 -0.0537 -0.1638
  429MOL0     C57844  10.925   7.322   7.176 -0.5531  0.2708 -0.0790
  429MOL0     C57845  10.909   7.203   7.198  0.5521  0.4519 -1.0239
  429MOL0     C57846  10.221   7.364   7.140  0.1766 -0.4914  0.8565
  429MOL0     C57847  10.082   7.360   7.114 -0.4844 -0.4704  0.1476
  429MOL0     H57848   9.726   7.147   6.859  1.3725  1.6614  0.7482
  429MOL0     H57849   9.489   7.104   6.786 -2.0232 -1.9698  2.9145
  429MOL0     H57850   9.298   7.105   6.693  1.8930  3.3702 -0.6427
  429MOL0     H57851   9.239   7.079   6.857  1.8794 -1.1802 -0.5412
  429MOL0     H57852   9.027   7.213   6.802 -0.8230 -1.1312  0.2785
  429MOL0     H57853   9.091   7.237   6.644  0.0144  1.6002  0.7036
  429MOL0     H57854   8.955   7.035   6.595 -0.3905 -0.5627  0.4982
  429MOL0     H57855   9.102   6.959   6.632 -1.2968  0.5468 -2.0680
  429MOL0     H57856   9.022   6.963   6.889  0.9407 -1.9727 -0.2584
  429MOL0     H57857   8.880   7.039   6.819 -1.5665 -1.0497 -2.8686
  429MOL0     H57858   8.982   6.753   6.758  1.9305  2.1517 -1.2038
  429MOL0     H57859   8.848   6.801   6.866  0.2092  0.2333  0.4970
  429MOL0     H57860   8.734   6.906   6.651 -0.1860 -0.5050 -1.6780
  429MOL0     H57861   8.872   6.840   6.556  0.3099 -2.5392 -0.6660
  429MOL0     H57862   8.688   6.714   6.531 -0.1746  1.0645  0.3810
  429MOL0     H57863   8.796   6.615   6.636  0.4833 -0.3045  2.6038
  429MOL0     H57864   8.588   6.770   6.774 -1.1296 -2.0094  3.6884
  429MOL0     H57865   8.664   6.614   6.819 -0.0313  0.1677  1.3104
  429MOL0     H57866   8.592   6.424   6.551  0.8017  0.5401  0.2790
  429MOL0     H57867   8.424   6.292   6.443  1.1535  3.6948 -1.0903
  429MOL0     H57868   8.369   6.222   6.595 -2.1606 -1.7548 -1.2526
  429MOL0     H57869   8.211   6.229   6.394  2.4669 -0.0532  0.5424
  429MOL0     H57870   8.178   6.398   6.441  0.2889 -0.3996 -3.2723
  429MOL0     H57871   8.121   6.283   6.670 -2.9679  2.0089 -2.4256
  429MOL0     H57872   8.150   6.130   6.582  0.2747 -1.5717 -1.8684
  429MOL0     H57873   7.945   6.200   6.437  2.0880 -0.2257 -0.6630
  429MOL0     H57874   7.943   6.353   6.538 -2.7499 -0.9704 -0.4412
  429MOL0     H57875   7.749   6.330   6.477  0.9632 -3.1810 -1.5716
  429MOL0     H57876   7.437   6.310   6.364  0.1616  0.7502 -0.4663
  429MOL0     H57877   7.444   6.468   6.454  1.1836  0.9608  1.7063
  429MOL0     H57878   7.583   6.393   6.355 -0.3387 -1.8060 -0.7922
  429MOL0     H57879   7.173   6.392   6.368  1.1762 -0.8154  0.5359
  429MOL0     H57880   6.913   6.405   6.310 -0.8851  2.5988 -0.0759
  429MOL0     H57881   6.617   6.322   6.379 -1.1626 -0.2122  0.8579
  429MOL0     H57882   6.712   6.232   6.509 -0.8598 -0.1894  0.8197
  429MOL0     H57883   6.569   6.293   6.667 -0.8737  2.5641 -0.1624
  429MOL0     H57884   6.474   6.403   6.559 -0.0317  1.6670  4.5597
  429MOL0     H57885   6.487   6.100   6.504  0.8544 -0.0093 -3.5130
  429MOL0     H57886   6.389   6.210   6.421 -1.2910  1.5580  1.0169
  429MOL0     H57887   6.371   6.146   6.719  1.7383 -0.0442 -1.5760
  429MOL0     H57888   6.255   6.256   6.629 -1.0859 -0.5596 -2.1296
  429MOL0     H57889   6.138   6.074   6.689 -1.8857  1.5438 -1.6976
  429MOL0     H57890   6.255   5.961   6.620  0.6842  0.0304 -0.4876
  429MOL0     H57891   6.085   6.174   6.468 -1.7215  0.4122  2.0041
  429MOL0     H57892   6.179   6.034   6.397 -1.1582 -1.1754  0.6037
  429MOL0     H57893   5.957   5.981   6.593 -3.2444  1.6043 -1.3628
  429MOL0     H57894   6.060   5.879   6.490  2.2582  1.4310 -2.5936
  429MOL0     H57895   5.855   5.904   6.368 -0.9159  1.0398  0.4981
  429MOL0     H57896   5.971   6.022   6.289 -0.9525  1.6489 -0.1046
  429MOL0     H57897   6.840   6.384   6.732 -2.9366  0.0076 -3.0082
  429MOL0     H57898   7.082   6.407   6.769 -1.4337 -1.4011  0.3569
  429MOL0     H57899   7.462   6.133   6.831 -0.1526  1.4105  1.1550
  429MOL0     H57900   7.711   6.074   6.816  1.9900  1.5453 -0.5372
  429MOL0     H57901   9.376   7.467   6.966 -0.3362 -1.3295 -0.5774
  429MOL0     H57902   9.590   7.503   7.068  2.4258 -0.5312  0.0582
  429MOL0     H57903  10.093   7.614   6.879 -0.0856  1.9130  1.0365
  429MOL0     H57904  10.317   7.625   6.955  4.2760 -0.2642  3.3989
  429MOL0     H57905  10.533   7.500   6.962  0.4835 -2.8951  0.5481
  429MOL0     H57906  10.522   7.635   7.080 -0.5114 -0.7781  5.0131
  429MOL0     H57907  10.657   7.363   7.116 -2.9579  0.7251 -1.9161
  429MOL0     H57908  10.669   7.497   7.237  0.7532 -0.4210 -0.4614
  429MOL0     H57909  10.814   7.625   7.060  1.2639  0.1210 -0.2481
  429MOL0     H57910  10.807   7.484   6.964  3.4592  1.7170 -0.0159
  429MOL0     H57911  10.928   7.535   7.240 -1.4090 -2.5897  1.8853
  429MOL0     H57912  11.008   7.497   7.085  0.8886 -0.8066  0.0879
  429MOL0     H57913  10.893   7.099   7.218 -1.6915  0.1742 -3.6743
  429MOL0     H57914  10.269   7.292   7.205 -0.2866  0.0887  1.8538
  429MOL0     H57915  10.022   7.278   7.153 -2.1457 -0.9704 -3.1010
  430MOL0     O57916   6.667  11.151   0.098  0.0291 -0.7908 -0.0772
  430MOL0     C57917   6.738  11.206   0.016  0.1112  0.3711  0.1858
  430MOL0     O57918   6.705  11.242  -0.115  1.1164 -0.1285 -0.2237
  430MOL0     C57919   6.570  11.245  -0.159 -0.6520 -0.6760 -1.4593
  430MOL0     C57920   6.462  11.281  -0.074 -0.3704 -0.1334  0.5144
  430MOL0     C57921   6.348  11.309  -0.142  0.0466  0.0067  0.1482
  430MOL0     C57922   6.318  11.303  -0.280 -1.4433 -0.1011  0.0135
  430MOL0     O57923   6.200  11.321  -0.336 -0.2493  1.5954 -0.6812
  430MOL0     C57924   6.143  11.446  -0.319  1.3186 -0.3813 -0.1224
  430MOL0     C57925   5.992  11.419  -0.290 -0.2429 -0.5159 -0.2602
  430MOL0     C57926   5.897  11.548  -0.302 -0.5194 -0.3644 -0.1475
  430MOL0     C57927   5.762  11.514  -0.239 -0.6604 -0.1058  0.6287
  430MOL0     C57928   5.656  11.613  -0.276  0.3149  1.0457  0.3800
  430MOL0     C57929   5.526  11.568  -0.210  0.1672 -0.0864 -0.2068
  430MOL0     C57930   5.413  11.671  -0.226 -1.2065 -0.4597 -0.0472
  430MOL0     C57931   5.295  11.651  -0.136 -0.1700 -0.8147  0.1166
  430MOL0     N57932   5.214  11.771  -0.135  0.6976 -0.8028  0.1641
  430MOL0     C57933   5.172  11.851  -0.238  0.7333  0.0186 -0.3151
  430MOL0     C57934   5.121  11.961  -0.173  0.6165  0.3483  0.2912
  430MOL0     C57935   5.071  12.086  -0.251  0.8552 -0.2702 -0.3674
  430MOL0     C57936   4.927  12.126  -0.197  0.0571  0.1167  0.7762
  430MOL0     C57937   4.823  12.031  -0.261 -1.0017  0.4700  0.9196
  430MOL0     C57938   4.684  12.074  -0.233  0.4053  0.7297 -0.3931
  430MOL0     O57939   4.655  12.205  -0.289 -0.0662 -0.0444  0.2447
  430MOL0     C57940   4.544  12.269  -0.265  0.2245  0.2115 -0.7937
  430MOL0     C57941   4.537  12.400  -0.322  0.5355 -0.1785 -0.2052
  430MOL0     C57942   4.423  12.482  -0.311  0.3174  0.2342  0.5524
  430MOL0     C57943   4.441  12.613  -0.389  0.1358 -0.4026 -0.9654
  430MOL0     C57944   4.299  12.429  -0.257  0.1623  0.3182  0.4044
  430MOL0     C57945   4.164  12.490  -0.262 -0.2783 -0.6140 -0.0123
  430MOL0     O57946   4.060  12.414  -0.236  0.3951  0.7248 -0.0398
  430MOL0     C57947   3.934  12.461  -0.216  0.3876 -0.9879  1.1694
  430MOL0     C57948   3.853  12.417  -0.107 -0.4165 -0.7521  0.0821
  430MOL0     C57949   3.716  12.455  -0.103 -0.2150 -0.5854 -0.0266
  430MOL0     C57950   3.658  12.542  -0.205  0.1232  0.5895  0.7444
  430MOL0     O57951   3.523  12.581  -0.217  0.3498 -1.1114  0.1230
  430MOL0     C57952   3.425  12.497  -0.169  0.4047 -0.4159 -0.4041
  430MOL0     C57953   3.377  12.542  -0.027 -0.0894 -0.1769 -0.9336
  430MOL0     C57954   3.304  12.670  -0.014  0.3583  0.0935 -0.9162
  430MOL0     C57955   3.155  12.658  -0.031 -0.7545 -0.3119 -0.8683
  430MOL0     C57956   3.069  12.785   0.009 -0.6294 -0.3708  0.2003
  430MOL0     C57957   3.109  12.919  -0.056  0.6614  0.3660 -0.5623
  430MOL0     C57958   3.098  12.922  -0.208 -0.0825  0.1752 -0.3200
  430MOL0     C57959   2.968  12.862  -0.270 -0.7580  0.3058  0.0626
  430MOL0    Cl57960   2.821  12.932  -0.186 -0.0332  0.3089  0.5116
  430MOL0     C57961   3.744  12.580  -0.311  0.2351 -1.2398 -0.4929
  430MOL0     C57962   3.879  12.543  -0.315 -0.3919  0.2455 -0.3158
  430MOL0     O57963   4.165  12.610  -0.277  0.4341  0.1385 -0.2189
  430MOL0     C57964   4.313  12.297  -0.198  0.0189  0.0008  0.0481
  430MOL0     C57965   4.437  12.216  -0.193  0.3856  0.0210  0.1849
  430MOL0     N57966   5.122  11.947  -0.041  0.1162  0.0550  0.7995
  430MOL0     N57967   5.184  11.837  -0.018  0.1679  0.2198 -0.0702
  430MOL0     C57968   6.428  11.249  -0.353 -0.3948 -0.8055  0.0654
  430MOL0     C57969   6.557  11.225  -0.296 -0.3777 -0.3454 -0.1139
  430MOL0     C57970   6.874  11.240   0.053  0.2014  0.0241  0.3789
  430MOL0     C57971   6.911  11.259   0.187 -0.6565  0.6480  0.2141
  430MOL0     C57972   7.036  11.294   0.221 -0.4366 -0.3719 -0.4832
  430MOL0     C57973   7.137  11.324   0.124 -0.8563 -0.6330 -0.4835
  430MOL0     O57974   7.254  11.378   0.167 -0.5254  0.0911 -1.1568
  430MOL0     C57975   7.376  11.378   0.091 -0.3101  0.0618  0.4289
  430MOL0     C57976   7.483  11.325   0.183 -0.6320  0.3598 -0.4813
  430MOL0     C57977   7.619  11.310   0.117 -0.2917 -0.9110 -0.4303
  430MOL0     C57978   7.670  11.460   0.092 -1.1787 -0.1777  0.6143
  430MOL0     C57979   7.657  11.546   0.212 -0.5644 -0.2408 -0.3597
  430MOL0     C57980   7.662  11.619   0.304 -0.0414 -0.3969 -0.2363
  430MOL0     C57981   7.101  11.306  -0.009 -0.3308  0.1820 -0.0555
  430MOL0     C57982   6.973  11.270  -0.042  0.8078  0.6036  0.9837
  430MOL0     H57983   6.473  11.282   0.034  3.9704 -1.3826  0.2560
  430MOL0     H57984   6.263  11.335  -0.080  0.8509 -0.3312  1.4599
  430MOL0     H57985   6.192  11.508  -0.244  2.3406 -1.0932 -0.1939
  430MOL0     H57986   6.143  11.492  -0.418 -2.3595  3.0271  1.1534
  430MOL0     H57987   5.952  11.344  -0.358  0.4919 -0.7557 -0.4360
  430MOL0     H57988   5.964  11.380  -0.192 -2.1168  0.9551 -0.1406
  430MOL0     H57989   5.935  11.637  -0.251  1.2715  0.9372 -3.4297
  430MOL0     H57990   5.891  11.586  -0.404 -2.1557 -2.3718 -0.8834
  430MOL0     H57991   5.722  11.425  -0.289  0.9293  0.0454 -1.0215
  430MOL0     H57992   5.765  11.508  -0.130  1.4032  0.2398  0.6292
  430MOL0     H57993   5.702  11.707  -0.243  3.0677 -1.0467  3.0765
  430MOL0     H57994   5.649  11.622  -0.385 -3.5062  2.9593  0.6222
  430MOL0     H57995   5.485  11.470  -0.236 -1.3476  0.2793  0.6825
  430MOL0     H57996   5.547  11.549  -0.104  1.8913 -0.3681 -0.5698
  430MOL0     H57997   5.450  11.772  -0.208  0.6795 -0.7447 -1.9872
  430MOL0     H57998   5.386  11.658  -0.332 -0.4352  0.3577 -0.3549
  430MOL0     H57999   5.337  11.618  -0.040 -2.7365  0.4474  1.7975
  430MOL0     H58000   5.226  11.573  -0.171 -1.2588  0.8065 -1.5149
  430MOL0     H58001   5.181  11.834  -0.345 -2.8354 -2.5861 -0.3772
  430MOL0     H58002   5.136  12.173  -0.238  0.5833  0.0663 -1.2090
  430MOL0     H58003   5.074  12.057  -0.356 -1.9901 -3.4973  0.2572
  430MOL0     H58004   4.910  12.229  -0.232  1.5190  0.1802  0.1736
  430MOL0     H58005   4.938  12.105  -0.091  2.8955 -3.9730 -0.0932
  430MOL0     H58006   4.836  11.927  -0.228 -0.9476 -0.4970 -1.9159
  430MOL0     H58007   4.830  12.026  -0.370 -0.6232  1.6600  0.8692
  430MOL0     H58008   4.668  12.088  -0.126 -0.0302  1.7672 -0.5843
  430MOL0     H58009   4.603  12.007  -0.264 -1.3367  2.1787  0.8156
  430MOL0     H58010   4.631  12.438  -0.359  1.2258  1.9963  3.2983
  430MOL0     H58011   4.520  12.605  -0.464  1.4632 -1.2130  0.4576
  430MOL0     H58012   4.343  12.626  -0.437 -1.0809 -0.5817  1.3124
  430MOL0     H58013   4.479  12.687  -0.318  1.8911 -1.0073 -1.2184
  430MOL0     H58014   3.884  12.351  -0.027 -2.4640 -2.1221 -0.1846
  430MOL0     H58015   3.667  12.422  -0.012 -0.8333 -3.1314 -1.1844
  430MOL0     H58016   3.347  12.498  -0.245  0.3938 -0.7798 -0.4024
  430MOL0     H58017   3.478  12.401  -0.159  5.4876  1.8916 -1.7168
  430MOL0     H58018   3.310  12.468   0.018 -1.0308  1.3548  0.2706
  430MOL0     H58019   3.454  12.540   0.052 -1.6003 -0.2467  0.5929
  430MOL0     H58020   3.349  12.743  -0.082  0.8670  1.2772  0.6343
  430MOL0     H58021   3.311  12.695   0.092 -2.2537  2.0838 -1.1101
  430MOL0     H58022   3.131  12.633  -0.135 -0.8822 -2.2453 -0.4077
  430MOL0     H58023   3.113  12.582   0.036  0.5117 -0.8063 -0.6034
  430MOL0     H58024   3.080  12.795   0.117 -0.2557 -2.1803  0.3647
  430MOL0     H58025   2.963  12.763  -0.003 -0.2051 -2.7531  0.2219
  430MOL0     H58026   3.047  12.995  -0.010  0.7491 -0.0175  0.2013
  430MOL0     H58027   3.212  12.943  -0.027  1.7246 -2.9283 -1.2014
  430MOL0     H58028   3.174  12.854  -0.248  0.3247 -2.1303  3.7755
  430MOL0     H58029   3.107  13.026  -0.242 -1.4360  0.9700  1.5892
  430MOL0     H58030   2.972  12.753  -0.259 -2.6732  0.2784  0.8174
  430MOL0     H58031   2.969  12.876  -0.379 -2.8933 -0.7776 -0.1579
  430MOL0     H58032   3.705  12.656  -0.379  2.6113  0.9710  0.4368
  430MOL0     H58033   3.941  12.577  -0.397  2.6956  0.3549  1.8767
  430MOL0     H58034   4.224  12.264  -0.146 -1.2655  1.5172 -1.0636
  430MOL0     H58035   4.443  12.117  -0.149  0.9363  0.5626  1.3729
  430MOL0     H58036   6.418  11.232  -0.459 -1.9933  0.6727 -0.0564
  430MOL0     H58037   6.638  11.197  -0.363  0.7529  2.8045 -0.2515
  430MOL0     H58038   6.849  11.238   0.274 -0.0509 -0.8294  0.3247
  430MOL0     H58039   7.053  11.310   0.327  0.3686  1.0331 -0.7983
  430MOL0     H58040   7.363  11.312   0.005  1.9221  2.8559 -2.3051
  430MOL0     H58041   7.395  11.473   0.040 -0.3647 -2.2184 -4.4044
  430MOL0     H58042   7.453  11.224   0.211  1.0082  0.1553  0.6594
  430MOL0     H58043   7.485  11.382   0.276  2.7736  1.6857 -1.2028
  430MOL0     H58044   7.624  11.248   0.027 -0.4845 -0.5952 -0.6612
  430MOL0     H58045   7.691  11.266   0.186  3.9378  3.7925 -1.2127
  430MOL0     H58046   7.605  11.512   0.021  0.8670  2.7583  0.7001
  430MOL0     H58047   7.767  11.462   0.042 -2.3444 -4.1686 -2.2543
  430MOL0     H58048   7.675  11.680   0.391 -0.1386 -1.6866  0.7028
  430MOL0     H58049   7.177  11.325  -0.084  0.2236  0.6011  0.6041
  430MOL0     H58050   6.942  11.274  -0.146  2.1051 -0.5204  0.5198
  431MOL0     O58051   6.193   0.726  10.662 -0.1136 -0.7816  0.1516
  431MOL0     C58052   6.223   0.710  10.546  0.0104  0.6091  1.1761
  431MOL0     O58053   6.154   0.754  10.441 -0.3938 -0.5267 -0.4431
  431MOL0     C58054   6.038   0.815  10.449  1.0844 -0.6765 -0.4293
  431MOL0     C58055   5.940   0.781  10.363  0.9742 -0.2878  0.2639
  431MOL0     C58056   5.815   0.850  10.370 -0.2039 -0.2075  0.3687
  431MOL0     C58057   5.785   0.956  10.455 -0.3658 -0.1229  0.5922
  431MOL0     O58058   5.660   1.015  10.446  0.4051  0.0377 -0.7542
  431MOL0     C58059   5.625   1.089  10.566  0.4786 -0.2050  0.1993
  431MOL0     C58060   5.480   1.130  10.570  0.1347 -0.2027 -0.3777
  431MOL0     C58061   5.374   1.018  10.570 -0.3357  1.2112 -0.6410
  431MOL0     C58062   5.237   1.088  10.573 -0.4061  0.2824  0.7782
  431MOL0     C58063   5.124   0.998  10.593 -0.4009  0.0404  0.4219
  431MOL0     C58064   5.007   1.071  10.655 -0.0370 -0.3926 -0.7210
  431MOL0     C58065   5.007   1.072  10.817 -0.1317  0.1277  0.1895
  431MOL0     C58066   4.870   1.116  10.864  0.3522  0.0107 -0.0621
  431MOL0     N58067   4.811   1.231  10.788  0.3678  0.4914  0.1911
  431MOL0     C58068   4.863   1.361  10.780 -0.7099  0.9326 -0.2718
  431MOL0     C58069   4.774   1.427  10.700  0.1213  1.4303  0.4859
  431MOL0     C58070   4.783   1.568  10.645  0.1252  0.6451  0.4169
  431MOL0     C58071   4.687   1.662  10.727  0.4209  0.7918  0.2457
  431MOL0     C58072   4.552   1.718  10.672  0.1670  0.4456 -0.6444
  431MOL0     C58073   4.447   1.610  10.662 -0.6177 -0.1067  0.0137
  431MOL0     O58074   4.321   1.673  10.684  0.5020  0.0606  0.5710
  431MOL0     C58075   4.205   1.601  10.693 -0.7746  0.0394  0.0690
  431MOL0     C58076   4.212   1.461  10.699 -0.3802  0.0063  0.1997
  431MOL0     C58077   4.099   1.380  10.691  0.3545 -0.1488  0.1235
  431MOL0     C58078   4.128   1.230  10.700 -0.6273  0.2147 -0.1439
  431MOL0     C58079   3.974   1.441  10.677  0.0662 -0.0116 -0.3304
  431MOL0     C58080   3.840   1.373  10.671 -0.4567  0.2695 -0.3713
  431MOL0     O58081   3.728   1.455  10.671 -0.4087 -0.0087 -1.0404
  431MOL0     C58082   3.604   1.390  10.682 -0.0602  0.5631  0.4093
  431MOL0     C58083   3.540   1.296  10.597  0.9987 -0.2695 -0.3747
  431MOL0     C58084   3.411   1.239  10.633  0.4394 -1.0469  0.6760
  431MOL0     C58085   3.349   1.280  10.750  0.1956 -0.1964  0.0514
  431MOL0     O58086   3.218   1.244  10.786 -0.6100  1.3574 -0.1106
  431MOL0     C58087   3.159   1.130  10.716  0.1926  0.2537  0.7943
  431MOL0     C58088   3.074   1.064  10.812  0.0992 -0.4985  0.2455
  431MOL0     C58089   2.935   1.139  10.844  0.2669 -0.1824  0.0120
  431MOL0     C58090   2.838   1.049  10.915 -0.3065  0.2900 -0.4450
  431MOL0     C58091   2.703   1.126  10.928 -0.8330 -0.1277 -0.5158
  431MOL0     C58092   2.607   1.064  11.039  0.1622 -0.0359  0.2506
  431MOL0     C58093   2.670   1.047  11.175  0.3655  0.2798 -0.2439
  431MOL0     C58094   2.615   1.136  11.284 -0.4293 -1.1138  0.2357
  431MOL0    Cl58095   2.447   1.130  11.305 -0.1564 -0.0409 -0.0117
  431MOL0     C58096   3.419   1.377  10.831  0.3472 -0.7803 -0.1985
  431MOL0     C58097   3.540   1.443  10.794 -0.4269  0.4394 -0.7920
  431MOL0     O58098   3.837   1.253  10.667 -0.2578  0.0520 -0.3790
  431MOL0     C58099   3.975   1.583  10.685  0.7059  0.5739 -0.9105
  431MOL0     C58100   4.089   1.659  10.689 -0.4052 -1.0219  0.0698
  431MOL0     N58101   4.691   1.325  10.646 -0.0442 -0.8171 -0.3274
  431MOL0     N58102   4.703   1.219  10.708 -0.7116 -0.0088 -0.0748
  431MOL0     C58103   5.893   0.997  10.537 -0.2130 -0.4941 -0.5419
  431MOL0     C58104   6.013   0.927  10.529 -0.0965  0.5168  0.3572
  431MOL0     C58105   6.356   0.649  10.520 -0.1130 -0.3264  0.3602
  431MOL0     C58106   6.376   0.596  10.384  0.0329 -0.0398 -0.0224
  431MOL0     C58107   6.495   0.539  10.357 -0.3733 -0.5665 -0.0483
  431MOL0     C58108   6.594   0.520  10.456  0.2463 -0.5064 -0.7121
  431MOL0     O58109   6.694   0.442  10.410  0.1310 -0.5657 -0.4026
  431MOL0     C58110   6.806   0.416  10.496 -0.1707  0.0411  0.3617
  431MOL0     C58111   6.888   0.288  10.434 -0.9860 -0.1956 -0.0406
  431MOL0     C58112   6.931   0.307  10.284  0.5701 -0.0117 -0.9151
  431MOL0     C58113   6.896   0.187  10.192  0.4051 -0.0430  0.0214
  431MOL0     C58114   6.897   0.236  10.054 -0.2315  0.5098 -0.5781
  431MOL0     C58115   6.872   0.272   9.943 -0.2459 -0.9001  0.6110
  431MOL0     C58116   6.583   0.570  10.585 -0.7131  0.5249 -0.0839
  431MOL0     C58117   6.462   0.641  10.611 -0.7065  0.1280 -0.4681
  431MOL0     H58118   5.954   0.708  10.284  0.3500  1.3823 -1.4639
  431MOL0     H58119   5.731   0.819  10.308 -2.7093  1.6101  2.6034
  431MOL0     H58120   5.644   1.027  10.654 -1.4519  2.1642  2.4550
  431MOL0     H58121   5.688   1.178  10.575 -1.3816  1.4040 -1.6152
  431MOL0     H58122   5.470   1.201  10.653 -0.9569 -1.2463  0.4216
  431MOL0     H58123   5.469   1.189  10.478  2.1193  2.3153  0.8509
  431MOL0     H58124   5.379   0.960  10.477 -0.2499  0.6983 -0.3205
  431MOL0     H58125   5.390   0.944  10.649 -2.1157  0.3208 -1.0786
  431MOL0     H58126   5.239   1.168  10.648 -0.8478  0.3397  0.7320
  431MOL0     H58127   5.223   1.145  10.481 -0.3324  0.7054  1.0242
  431MOL0     H58128   5.079   0.975  10.496 -1.0863  0.4943  0.6207
  431MOL0     H58129   5.150   0.912  10.655 -1.1455 -0.7141 -0.2843
  431MOL0     H58130   5.009   1.176  10.624  1.8379 -0.3813 -0.6632
  431MOL0     H58131   4.913   1.031  10.614 -1.3653  2.4473 -0.7263
  431MOL0     H58132   5.041   0.972  10.845 -0.5099 -0.0773 -0.0657
  431MOL0     H58133   5.088   1.138  10.849  1.6527 -2.4143  1.2715
  431MOL0     H58134   4.862   1.150  10.968 -0.1772  4.4303 -1.3641
  431MOL0     H58135   4.808   1.027  10.845  1.7534 -1.0586  0.1910
  431MOL0     H58136   4.951   1.408  10.824  0.1092  1.6527 -2.5474
  431MOL0     H58137   4.878   1.622  10.645  0.4027  0.3007 -2.0421
  431MOL0     H58138   4.752   1.562  10.540  2.1974 -0.1107 -0.2030
  431MOL0     H58139   4.742   1.755  10.747  0.4709  1.0204 -0.8899
  431MOL0     H58140   4.664   1.613  10.822  0.6832 -0.9508 -0.5548
  431MOL0     H58141   4.553   1.772  10.577  2.5854 -0.5840 -1.2848
  431MOL0     H58142   4.516   1.801  10.734 -1.5487 -0.3006 -0.5664
  431MOL0     H58143   4.471   1.533  10.736  1.7915 -0.7206 -1.3075
  431MOL0     H58144   4.443   1.566  10.562  0.5759  0.4360 -0.2941
  431MOL0     H58145   4.306   1.408  10.690  0.4565  1.6476 -1.3402
  431MOL0     H58146   4.076   1.189  10.787 -0.0341 -1.8933 -0.7242
  431MOL0     H58147   4.083   1.178  10.614 -1.4475 -0.9783  0.9822
  431MOL0     H58148   4.237   1.217  10.697 -0.1824  2.9286  1.1659
  431MOL0     H58149   3.588   1.255  10.509 -0.7536 -3.5665  0.0645
  431MOL0     H58150   3.368   1.157  10.577  0.9264 -0.1141 -1.1249
  431MOL0     H58151   3.102   1.169  10.631 -1.5822 -0.5017  1.6056
  431MOL0     H58152   3.230   1.052  10.687  0.1762 -0.9534  3.7240
  431MOL0     H58153   3.040   0.965  10.779 -1.0945 -0.0325  0.0215
  431MOL0     H58154   3.128   1.045  10.905 -1.9178 -3.3594  0.9578
  431MOL0     H58155   2.895   1.190  10.756  3.9719  2.6511 -0.3109
  431MOL0     H58156   2.953   1.223  10.912  0.8037  0.2720 -0.6743
  431MOL0     H58157   2.816   0.956  10.863 -2.2157  0.2546  0.3367
  431MOL0     H58158   2.889   1.028  11.009 -0.6315  0.6799 -0.1759
  431MOL0     H58159   2.642   1.137  10.839 -0.9268  0.2066 -0.4146
  431MOL0     H58160   2.722   1.226  10.969 -0.5799 -0.2356 -0.3672
  431MOL0     H58161   2.516   1.123  11.057 -1.1362 -2.1517  0.8847
  431MOL0     H58162   2.577   0.967  10.998 -0.0936  0.2006 -0.1374
  431MOL0     H58163   2.778   1.058  11.185  0.1258  1.8009  1.0842
  431MOL0     H58164   2.648   0.947  11.216  4.1836 -0.5916  0.0536
  431MOL0     H58165   2.648   1.236  11.256  1.0443 -1.5154  0.4945
  431MOL0     H58166   2.662   1.105  11.378  1.2418 -0.8997 -0.4960
  431MOL0     H58167   3.374   1.394  10.929  1.5552 -1.6112  0.5309
  431MOL0     H58168   3.584   1.522  10.853  1.7148 -2.1152  1.2695
  431MOL0     H58169   3.876   1.625  10.681 -1.0080 -2.9816  0.4202
  431MOL0     H58170   4.087   1.767  10.681  2.5370 -0.7077  2.0200
  431MOL0     H58171   5.875   1.082  10.603 -0.6858 -1.4789  0.6319
  431MOL0     H58172   6.082   0.963  10.604 -1.2003  0.0844  1.6295
  431MOL0     H58173   6.306   0.608  10.302 -0.8133 -1.4536  0.4629
  431MOL0     H58174   6.529   0.493  10.265 -0.9463  0.5442 -0.8360
  431MOL0     H58175   6.861   0.508  10.516 -2.1356  1.6168 -1.1136
  431MOL0     H58176   6.775   0.371  10.591  0.9059 -0.4429  0.4992
  431MOL0     H58177   6.830   0.196  10.426 -1.5254  0.2030 -0.7391
  431MOL0     H58178   6.969   0.264  10.504 -0.3177 -1.5538 -1.2315
  431MOL0     H58179   7.039   0.322  10.280  1.1036 -2.6480  0.9696
  431MOL0     H58180   6.890   0.395  10.232  1.1822 -0.3022 -1.9057
  431MOL0     H58181   6.803   0.136  10.219 -0.1808  1.4013  0.8536
  431MOL0     H58182   6.971   0.114  10.222  1.1965  1.1211  0.9474
  431MOL0     H58183   6.848   0.287   9.839 -0.3636  1.6444  0.9492
  431MOL0     H58184   6.655   0.576  10.665 -0.5139  0.1877 -0.2360
  431MOL0     H58185   6.444   0.692  10.705 -2.1831 -1.4896  0.1995
  432MOL0     O58186   0.638   8.717   1.665  0.0269 -0.2986 -0.1898
  432MOL0     C58187   0.676   8.749   1.556 -0.0762 -0.8098 -0.0871
  432MOL0     O58188   0.605   8.826   1.464 -0.6395  0.4999  0.5895
  432MOL0     C58189   0.485   8.867   1.496 -0.3459 -0.1825  1.0847
  432MOL0     C58190   0.456   9.002   1.520  0.4365 -0.6441  0.5067
  432MOL0     C58191   0.326   9.055   1.552 -0.0674 -0.8966  0.4010
  432MOL0     C58192   0.218   8.963   1.547  0.4211  0.4774  0.6549
  432MOL0     O58193   0.090   9.013   1.580  0.7853  0.0911 -0.1194
  432MOL0     C58194  -0.031   8.937   1.581  0.0130  0.4497 -0.3583
  432MOL0     C58195  -0.071   8.899   1.444  1.0338  0.3642  0.2921
  432MOL0     C58196  -0.201   8.810   1.440 -0.6019  1.1123 -0.3313
  432MOL0     C58197  -0.314   8.906   1.437 -0.1448  0.6250  0.2824
  432MOL0     C58198  -0.440   8.828   1.406  0.3858 -1.0014 -0.9149
  432MOL0     C58199  -0.549   8.915   1.350  0.6536 -0.3850 -0.3554
  432MOL0     C58200  -0.669   8.829   1.309  1.1309 -0.9132  0.8685
  432MOL0     C58201  -0.786   8.921   1.275 -0.6580  0.5308  0.0557
  432MOL0     N58202  -0.898   8.830   1.242 -0.3927 -0.3190 -0.3032
  432MOL0     C58203  -0.932   8.793   1.115 -0.0976  0.5718  0.2486
  432MOL0     C58204  -1.032   8.702   1.125 -0.5467  0.1847 -0.2188
  432MOL0     C58205  -1.091   8.622   1.010 -0.3344 -0.0317 -0.2364
  432MOL0     C58206  -1.195   8.715   0.943 -0.5214 -0.1573  0.0043
  432MOL0     C58207  -1.136   8.812   0.838 -0.2619 -0.1097 -0.3830
  432MOL0     C58208  -1.254   8.897   0.786 -0.5757 -0.6160  0.4574
  432MOL0     O58209  -1.217   8.978   0.672 -0.5647  0.4100 -0.4194
  432MOL0     C58210  -1.274   8.941   0.552  0.5425  0.0212  0.4292
  432MOL0     C58211  -1.416   8.956   0.537  0.1385 -0.8207 -0.0213
  432MOL0     C58212  -1.480   8.932   0.412  0.8325 -0.1841  0.3516
  432MOL0     C58213  -1.627   8.956   0.388 -0.2979  0.4160  0.3965
  432MOL0     C58214  -1.401   8.882   0.308 -0.4414  0.1932 -0.1967
  432MOL0     C58215  -1.453   8.814   0.182 -0.7843  0.0502 -0.7452
  432MOL0     O58216  -1.379   8.845   0.058  0.0661  0.0230 -0.1886
  432MOL0     C58217  -1.397   8.763  -0.045 -0.3776 -0.0772 -0.4748
  432MOL0     C58218  -1.520   8.736  -0.098  0.0289  0.9144 -0.9110
  432MOL0     C58219  -1.536   8.652  -0.200  0.5204  0.7116 -0.2349
  432MOL0     C58220  -1.427   8.601  -0.264  0.1605 -0.1856  0.2028
  432MOL0     O58221  -1.442   8.520  -0.376 -0.3064 -1.0126 -0.1696
  432MOL0     C58222  -1.408   8.385  -0.332  0.4018  0.2686  0.2719
  432MOL0     C58223  -1.312   8.322  -0.438 -0.0773 -0.2270  0.3450
  432MOL0     C58224  -1.288   8.169  -0.423  0.3676 -0.6539 -0.4945
  432MOL0     C58225  -1.422   8.097  -0.413 -0.1596  0.5709  0.1997
  432MOL0     C58226  -1.414   7.937  -0.393 -0.3645  0.1329 -0.6404
  432MOL0     C58227  -1.555   7.871  -0.381 -0.4909 -0.5680 -0.3338
  432MOL0     C58228  -1.622   7.868  -0.518  0.0252  0.1595 -0.5471
  432MOL0     C58229  -1.744   7.772  -0.511  0.5428 -0.4310  0.3878
  432MOL0    Cl58230  -1.886   7.853  -0.431  0.0759  0.0968 -0.1447
  432MOL0     C58231  -1.299   8.631  -0.219 -1.2791 -0.2212  0.5473
  432MOL0     C58232  -1.289   8.711  -0.104 -0.8852  0.3534  0.6104
  432MOL0     O58233  -1.531   8.719   0.193 -0.3645 -0.2721 -0.4112
  432MOL0     C58234  -1.263   8.869   0.325  0.2695 -0.2702  0.2044
  432MOL0     C58235  -1.202   8.894   0.441  0.2485  1.0013  0.0217
  432MOL0     N58236  -1.045   8.676   1.261 -0.2274 -0.4960 -0.1654
  432MOL0     N58237  -0.983   8.766   1.328 -0.5146 -0.1337 -0.1420
  432MOL0     C58238   0.241   8.825   1.508 -1.7145 -0.6645 -1.1581
  432MOL0     C58239   0.375   8.778   1.494 -0.4549 -0.0478  1.0838
  432MOL0     C58240   0.816   8.725   1.530 -1.0198 -1.2291  0.4594
  432MOL0     C58241   0.884   8.791   1.424  0.5504  0.3060 -1.5448
  432MOL0     C58242   1.023   8.760   1.416  0.8154 -0.6735  0.2192
  432MOL0     C58243   1.087   8.673   1.500  0.2500 -0.5362 -0.9823
  432MOL0     O58244   1.228   8.663   1.478  0.2122  0.4124 -0.1599
  432MOL0     C58245   1.305   8.665   1.598 -1.2106  0.1161  0.0599
  432MOL0     C58246   1.377   8.534   1.608 -0.0487  0.8722  0.0600
  432MOL0     C58247   1.465   8.517   1.733 -0.4811 -0.6158 -0.1199
  432MOL0     C58248   1.501   8.373   1.730 -0.8227 -0.2042 -0.2572
  432MOL0     C58249   1.582   8.337   1.855  0.8914 -0.6062  0.6995
  432MOL0     C58250   1.650   8.314   1.954 -0.1517 -0.3675  0.0181
  432MOL0     C58251   1.018   8.610   1.599  0.3853  1.1429  0.3596
  432MOL0     C58252   0.885   8.639   1.614 -0.9188  0.5786 -0.5595
  432MOL0     H58253   0.548   9.057   1.509  0.2236 -0.4362 -0.2809
  432MOL0     H58254   0.324   9.157   1.589  3.5814 -0.7193  0.4896
  432MOL0     H58255  -0.018   8.846   1.642  1.1626 -0.7856 -2.3488
  432MOL0     H58256  -0.114   8.986   1.632 -0.3919 -2.1025  1.7018
  432MOL0     H58257  -0.085   8.994   1.391 -3.9955 -0.9503 -1.3089
  432MOL0     H58258   0.011   8.852   1.389  1.8804  2.1581 -0.0503
  432MOL0     H58259  -0.199   8.737   1.358 -0.3728 -1.1364  1.5809
  432MOL0     H58260  -0.212   8.752   1.532 -0.6207 -1.2959 -1.7674
  432MOL0     H58261  -0.309   8.946   1.539  4.4638 -0.0808  0.5432
  432MOL0     H58262  -0.302   8.981   1.357 -1.5622  0.6130  0.0307
  432MOL0     H58263  -0.421   8.748   1.334  2.6506 -3.7111  2.3668
  432MOL0     H58264  -0.485   8.788   1.498 -0.3461 -0.7844 -1.1710
  432MOL0     H58265  -0.565   8.989   1.429  5.2415  1.1398 -0.6003
  432MOL0     H58266  -0.512   8.968   1.262  0.4950  1.0608  0.4083
  432MOL0     H58267  -0.641   8.778   1.216  0.3139 -0.1719  0.1879
  432MOL0     H58268  -0.712   8.763   1.385 -1.1575  0.8917  1.2447
  432MOL0     H58269  -0.769   8.989   1.192 -1.4791 -0.6570 -1.1250
  432MOL0     H58270  -0.798   8.993   1.357  3.0193  2.2821 -0.7694
  432MOL0     H58271  -0.886   8.818   1.020 -0.5856 -1.0909 -0.4573
  432MOL0     H58272  -1.013   8.594   0.938  1.6193 -1.0202  2.1480
  432MOL0     H58273  -1.138   8.533   1.053  1.8666 -0.6871  0.9737
  432MOL0     H58274  -1.252   8.768   1.021 -1.5345 -1.3668  0.1345
  432MOL0     H58275  -1.277   8.655   0.903  0.6470 -2.6289  1.0813
  432MOL0     H58276  -1.076   8.757   0.764  1.1832 -0.3724  0.9401
  432MOL0     H58277  -1.065   8.875   0.892  1.3909 -2.2023  0.0651
  432MOL0     H58278  -1.288   8.961   0.869  0.6957  1.3108 -0.4220
  432MOL0     H58279  -1.337   8.833   0.755 -0.4894 -0.0322 -1.0580
  432MOL0     H58280  -1.469   8.998   0.622 -1.0636 -1.1673 -0.5738
  432MOL0     H58281  -1.657   9.042   0.449 -0.5968  0.7575 -0.2248
  432MOL0     H58282  -1.660   8.967   0.284 -2.6235  1.6395  1.1939
  432MOL0     H58283  -1.674   8.866   0.430  1.4119 -1.2927 -1.1423
  432MOL0     H58284  -1.610   8.785  -0.062  0.3808  2.2546 -1.7640
  432MOL0     H58285  -1.635   8.622  -0.235  1.2664 -1.8733 -0.3340
  432MOL0     H58286  -1.355   8.378  -0.236 -0.2524  3.7075  1.0062
  432MOL0     H58287  -1.498   8.324  -0.316  0.3084 -0.2479 -1.8750
  432MOL0     H58288  -1.354   8.342  -0.538  2.0624  4.5730  0.1091
  432MOL0     H58289  -1.212   8.367  -0.435 -0.1846 -0.0510  2.9128
  432MOL0     H58290  -1.242   8.158  -0.324  1.5020 -0.0802 -0.9334
  432MOL0     H58291  -1.216   8.129  -0.496  0.7563  0.6904 -0.8716
  432MOL0     H58292  -1.491   8.136  -0.337 -1.9115 -2.6015  0.4260
  432MOL0     H58293  -1.470   8.116  -0.509  0.3787  2.0600  0.2029
  432MOL0     H58294  -1.361   7.910  -0.301 -0.6131 -2.9235 -1.2889
  432MOL0     H58295  -1.355   7.903  -0.479  2.5017 -0.2251  1.3323
  432MOL0     H58296  -1.551   7.770  -0.342 -1.5995  0.4804  2.7750
  432MOL0     H58297  -1.607   7.932  -0.307 -1.6704 -1.9535  0.0097
  432MOL0     H58298  -1.551   7.829  -0.593  1.9649  0.3279  1.1230
  432MOL0     H58299  -1.651   7.967  -0.555  0.7224  0.0416 -1.4351
  432MOL0     H58300  -1.716   7.679  -0.460  2.6047 -0.1297 -0.0847
  432MOL0     H58301  -1.776   7.747  -0.612  1.3389  1.9298 -0.5248
  432MOL0     H58302  -1.214   8.591  -0.274 -2.8766  0.1276 -2.3689
  432MOL0     H58303  -1.187   8.728  -0.071 -0.6399  2.5490 -1.0359
  432MOL0     H58304  -1.211   8.851   0.231 -1.3741  1.4525 -1.0949
  432MOL0     H58305  -1.094   8.900   0.441  0.2151  1.7259 -0.0276
  432MOL0     H58306   0.164   8.749   1.514 -1.1155 -1.1976  0.9141
  432MOL0     H58307   0.396   8.674   1.469 -0.6183 -0.0868  1.1102
  432MOL0     H58308   0.838   8.865   1.359 -1.9130 -0.8892 -1.2940
  432MOL0     H58309   1.079   8.807   1.336  1.9571 -2.2691  0.0282
  432MOL0     H58310   1.377   8.746   1.584 -0.5388 -0.6623 -1.2009
  432MOL0     H58311   1.249   8.683   1.690 -1.7114 -1.5698  0.1170
  432MOL0     H58312   1.447   8.540   1.524  0.9816 -0.6468  0.7533
  432MOL0     H58313   1.313   8.446   1.599  1.7938 -0.4625 -0.6659
  432MOL0     H58314   1.420   8.539   1.830  1.1482 -2.2710  1.0907
  432MOL0     H58315   1.544   8.592   1.724 -0.4087 -0.5964  0.5614
  432MOL0     H58316   1.563   8.350   1.643 -0.8863 -2.1995  0.1977
  432MOL0     H58317   1.416   8.305   1.728  0.5133 -1.9229 -1.2964
  432MOL0     H58318   1.714   8.275   2.031  2.8336  1.6566 -1.2387
  432MOL0     H58319   1.079   8.553   1.669  0.5556 -0.4060 -0.9940
  432MOL0     H58320   0.840   8.589   1.699  1.6636 -0.3631  0.3512
  433MOL0     O58321   0.279  11.118   0.374  1.0526 -0.0856 -0.1303
  433MOL0     C58322   0.321  11.120   0.493 -0.2159  0.4384  0.7590
  433MOL0     O58323   0.246  11.110   0.602 -0.3163  0.0765 -0.0724
  433MOL0     C58324   0.107  11.129   0.595 -0.3785  0.0707  0.6435
  433MOL0     C58325   0.027  11.018   0.594  0.4540 -0.8964 -0.7609
  433MOL0     C58326  -0.112  11.030   0.579  0.7299 -0.8159  0.6359
  433MOL0     C58327  -0.170  11.158   0.557 -0.4652  0.3756 -0.0391
  433MOL0     O58328  -0.294  11.193   0.528  0.2015 -0.0722  0.1112
  433MOL0     C58329  -0.391  11.088   0.557  0.7922  0.5390 -0.4405
  433MOL0     C58330  -0.531  11.151   0.566 -0.4809  0.3105 -0.5204
  433MOL0     C58331  -0.552  11.246   0.692  0.3794  0.3858  0.3905
  433MOL0     C58332  -0.674  11.329   0.669 -0.7874  0.4228 -0.1203
  433MOL0     C58333  -0.801  11.247   0.707  0.5990 -0.3638 -0.0009
  433MOL0     C58334  -0.927  11.323   0.663  0.8646  0.7914 -0.2788
  433MOL0     C58335  -1.053  11.242   0.709  0.1154 -0.2674 -0.2257
  433MOL0     C58336  -1.183  11.314   0.683 -0.3671 -0.7932 -0.0769
  433MOL0     N58337  -1.299  11.249   0.746  0.1622  0.0675  0.0603
  433MOL0     C58338  -1.379  11.160   0.681 -0.1038  0.1200  0.6486
  433MOL0     C58339  -1.478  11.139   0.768  0.4129  0.0423  0.5515
  433MOL0     C58340  -1.576  11.027   0.746  0.4089 -0.3516  0.6814
  433MOL0     C58341  -1.649  11.039   0.614  0.5712 -0.9475  0.3718
  433MOL0     C58342  -1.776  10.948   0.599  0.1751  0.0196 -0.3670
  433MOL0     C58343  -1.819  10.955   0.448  0.1969  0.0245 -0.1763
  433MOL0     O58344  -1.886  10.835   0.401 -0.2266 -0.3985 -0.2832
  433MOL0     C58345  -2.016  10.797   0.436  0.7275 -0.0452 -0.6811
  433MOL0     C58346  -2.109  10.875   0.513 -0.3124  0.2443 -0.5445
  433MOL0     C58347  -2.241  10.826   0.543 -0.0544  0.3451  0.7090
  433MOL0     C58348  -2.338  10.925   0.610  0.1414  0.2799 -0.0619
  433MOL0     C58349  -2.283  10.701   0.504 -0.5897 -0.2626  0.4102
  433MOL0     C58350  -2.417  10.641   0.542  0.8981  0.0264 -0.0043
  433MOL0     O58351  -2.417  10.512   0.533  0.4982 -0.1428 -0.2474
  433MOL0     C58352  -2.530  10.426   0.505 -0.4898 -0.2944  0.3501
  433MOL0     C58353  -2.638  10.465   0.428  0.1499 -0.4716  0.9945
  433MOL0     C58354  -2.740  10.381   0.393 -0.3481  0.2214  0.2798
  433MOL0     C58355  -2.741  10.249   0.440  0.8359 -0.1786 -0.0926
  433MOL0     O58356  -2.832  10.149   0.415  0.3298  0.0693 -0.0519
  433MOL0     C58357  -2.887  10.157   0.284 -0.1597  0.0885  0.4989
  433MOL0     C58358  -3.004  10.047   0.272 -0.1380 -0.8784  0.8429
  433MOL0     C58359  -3.102  10.092   0.154 -0.4954 -0.1355 -0.6115
  433MOL0     C58360  -3.210   9.980   0.127 -0.9518 -0.5398 -0.1248
  433MOL0     C58361  -3.152   9.838   0.116  0.9446 -0.0648  0.6933
  433MOL0     C58362  -3.254   9.737   0.048 -0.0763  0.2171 -0.9021
  433MOL0     C58363  -3.371   9.686   0.147  0.6672 -0.2280  0.1567
  433MOL0     C58364  -3.304   9.601   0.261  0.5868 -0.3747  0.0566
  433MOL0    Cl58365  -3.427   9.524   0.361  0.0989  0.5696 -0.4288
  433MOL0     C58366  -2.623  10.209   0.517 -0.7479 -0.4400 -0.4694
  433MOL0     C58367  -2.519  10.297   0.546  0.1717  0.1430  0.0471
  433MOL0     O58368  -2.521  10.705   0.561 -0.1973 -0.3309  0.8027
  433MOL0     C58369  -2.187  10.616   0.442 -0.6851 -0.5523 -0.0655
  433MOL0     C58370  -2.057  10.667   0.403  0.1246 -0.4377 -0.9224
  433MOL0     N58371  -1.473  11.234   0.864 -0.2637 -0.0033  0.1118
  433MOL0     N58372  -1.366  11.299   0.850  0.9533  0.0200 -0.1960
  433MOL0     C58373  -0.087  11.269   0.562  0.0526 -0.0664  0.0261
  433MOL0     C58374   0.054  11.257   0.588  0.6960 -0.7040  0.3630
  433MOL0     C58375   0.462  11.093   0.515  0.5887  1.0274  0.5317
  433MOL0     C58376   0.518  11.099   0.646  0.3506  0.4403  0.2279
  433MOL0     C58377   0.642  11.050   0.675  0.1363  0.8868  0.3280
  433MOL0     C58378   0.733  11.013   0.580  0.0055  0.4470  0.6646
  433MOL0     O58379   0.868  10.999   0.597 -0.1254  0.0606 -0.3320
  433MOL0     C58380   0.917  11.013   0.734 -0.6330 -0.8139 -1.0050
  433MOL0     C58381   0.946  11.165   0.753 -0.4891 -0.1684  0.2294
  433MOL0     C58382   1.082  11.201   0.687  0.0673  0.3621  0.2365
  433MOL0     C58383   1.119  11.346   0.718  0.1058 -0.2185  1.1150
  433MOL0     C58384   1.227  11.383   0.629  0.6057  0.8593  0.1571
  433MOL0     C58385   1.323  11.416   0.566  0.1943 -0.4313  0.0248
  433MOL0     C58386   0.680  10.992   0.455  0.2691 -0.0466  0.5437
  433MOL0     C58387   0.549  11.035   0.423 -0.0087  0.2090  0.6262
  433MOL0     H58388   0.068  10.919   0.608  1.6981  0.0188  4.2407
  433MOL0     H58389  -0.171  10.938   0.576 -1.7551  0.7040 -0.1454
  433MOL0     H58390  -0.399  11.022   0.470 -0.3552  0.9645 -0.6865
  433MOL0     H58391  -0.367  11.029   0.645  1.6241 -1.8872 -2.1912
  433MOL0     H58392  -0.553  11.210   0.478 -1.0982  1.6908  0.5286
  433MOL0     H58393  -0.607  11.074   0.587 -1.8138  2.3041  2.8702
  433MOL0     H58394  -0.569  11.200   0.790 -2.6231  0.0879 -0.1551
  433MOL0     H58395  -0.465  11.311   0.702  0.2602  0.6943 -0.5269
  433MOL0     H58396  -0.669  11.414   0.739  0.3159  0.5711 -0.3653
  433MOL0     H58397  -0.675  11.379   0.572  3.4704  3.9248  1.3055
  433MOL0     H58398  -0.802  11.155   0.648 -1.7674 -1.0659  1.0134
  433MOL0     H58399  -0.797  11.216   0.812 -0.3653 -1.9315 -0.3906
  433MOL0     H58400  -0.927  11.425   0.703 -0.7867  1.4460 -1.7915
  433MOL0     H58401  -0.934  11.322   0.554  1.9823  1.8606 -0.3804
  433MOL0     H58402  -1.061  11.152   0.649  1.7918  0.5860 -1.8204
  433MOL0     H58403  -1.047  11.208   0.813  0.3058 -1.6030 -0.6649
  433MOL0     H58404  -1.190  11.325   0.574 -0.2982 -1.2170 -0.1271
  433MOL0     H58405  -1.168  11.412   0.730 -0.6696 -1.1657  0.8166
  433MOL0     H58406  -1.362  11.105   0.589  2.9277 -3.5442  3.0649
  433MOL0     H58407  -1.527  10.930   0.759 -0.5548 -0.7785  1.2643
  433MOL0     H58408  -1.653  11.028   0.824 -1.2584 -2.6876 -0.8177
  433MOL0     H58409  -1.581  11.013   0.533 -0.4170 -1.0843 -0.4332
  433MOL0     H58410  -1.676  11.144   0.595  1.7795 -1.0042 -2.0986
  433MOL0     H58411  -1.855  10.987   0.664  1.7094  0.2729  1.4460
  433MOL0     H58412  -1.745  10.847   0.628 -0.2426  0.1593  0.5928
  433MOL0     H58413  -1.735  10.950   0.379 -0.8828 -0.5846 -1.4995
  433MOL0     H58414  -1.884  11.038   0.419  1.1790  0.0130 -2.5967
  433MOL0     H58415  -2.064  10.968   0.545  0.5471 -0.6143  0.8379
  433MOL0     H58416  -2.394  10.875   0.690 -0.9733  0.4227 -0.7226
  433MOL0     H58417  -2.294  11.016   0.650 -0.8029  2.5900 -3.7435
  433MOL0     H58418  -2.422  10.955   0.546  0.5777  1.6231 -0.0430
  433MOL0     H58419  -2.636  10.568   0.393 -0.1692  0.1960  2.8172
  433MOL0     H58420  -2.813  10.413   0.320  0.5157  0.8310 -0.3372
  433MOL0     H58421  -2.931  10.255   0.265 -1.6621 -0.7337 -0.4507
  433MOL0     H58422  -2.809  10.137   0.210  0.5773 -1.7080  1.6788
  433MOL0     H58423  -2.952   9.958   0.236  1.9047  1.1451 -1.5573
  433MOL0     H58424  -3.063  10.034   0.364 -2.8052 -0.0784 -0.6258
  433MOL0     H58425  -3.037  10.099   0.067 -0.6453  0.7793 -0.6654
  433MOL0     H58426  -3.156  10.186   0.173 -0.1525  0.1256 -0.9211
  433MOL0     H58427  -3.287   9.977   0.205 -0.1105  0.7086  0.7747
  433MOL0     H58428  -3.261  10.005   0.034 -0.2773  0.4035 -0.2409
  433MOL0     H58429  -3.116   9.802   0.213  2.2342 -0.4324  0.1044
  433MOL0     H58430  -3.062   9.842   0.053  0.9816 -1.2774  0.6543
  433MOL0     H58431  -3.297   9.791  -0.036 -2.7067  1.8620  1.3197
  433MOL0     H58432  -3.200   9.643   0.031 -0.0021 -0.3286  1.7855
  433MOL0     H58433  -3.454   9.628   0.107  0.6264 -0.9071  1.1895
  433MOL0     H58434  -3.419   9.774   0.192  3.2553  0.6231  1.4954
  433MOL0     H58435  -3.257   9.669   0.333 -1.0012  1.2286 -0.3441
  433MOL0     H58436  -3.239   9.526   0.215  0.4065  0.9885 -2.5683
  433MOL0     H58437  -2.619  10.109   0.558 -0.4017 -0.3196 -0.2031
  433MOL0     H58438  -2.429  10.273   0.603 -0.1919 -0.1517  0.5043
  433MOL0     H58439  -2.206  10.516   0.404 -2.1411  0.0679 -1.0355
  433MOL0     H58440  -1.986  10.595   0.363  1.0388  1.0280 -1.9961
  433MOL0     H58441  -0.136  11.366   0.553 -1.0050 -0.5486  0.4216
  433MOL0     H58442   0.121  11.342   0.593 -0.4100  0.2333 -0.1437
  433MOL0     H58443   0.458  11.132   0.730  0.9550  2.4732 -0.0830
  433MOL0     H58444   0.667  11.062   0.780 -0.6422  0.3118  0.5848
  433MOL0     H58445   0.849  10.975   0.811  0.5082 -1.5481 -0.3289
  433MOL0     H58446   1.011  10.959   0.742 -0.4447 -0.2917  0.8349
  433MOL0     H58447   0.942  11.191   0.859  0.6004 -3.3246  1.1571
  433MOL0     H58448   0.873  11.219   0.693  0.6191 -0.8595 -1.8498
  433MOL0     H58449   1.082  11.194   0.578 -1.8399 -2.0844  0.3197
  433MOL0     H58450   1.158  11.133   0.726 -2.5807 -2.9379  0.0034
  433MOL0     H58451   1.147  11.364   0.822  1.6905 -0.4893  0.7680
  433MOL0     H58452   1.035  11.410   0.690  0.5005  0.7044  1.9863
  433MOL0     H58453   1.401  11.436   0.496 -0.8865 -2.1777 -1.7833
  433MOL0     H58454   0.746  10.956   0.376  1.2660  1.7305  0.5077
  433MOL0     H58455   0.518  11.028   0.319 -1.2987  0.3008  0.9852
  434MOL0     O58456   4.144  10.087   2.824  1.0461  0.0925 -0.8453
  434MOL0     C58457   4.245  10.059   2.891  0.2244  0.1878 -0.2088
  434MOL0     O58458   4.250   9.962   2.976 -0.4736 -0.3747  0.0719
  434MOL0     C58459   4.139   9.883   2.988 -0.2600  0.0890  0.3507
  434MOL0     C58460   4.072   9.873   3.108  0.0503 -0.7974 -0.6981
  434MOL0     C58461   3.956   9.790   3.114 -0.8317 -0.0590 -0.2461
  434MOL0     C58462   3.908   9.724   3.008 -0.3743  0.2524  0.0293
  434MOL0     O58463   3.785   9.659   3.013 -0.2004  0.1897 -0.4240
  434MOL0     C58464   3.684   9.716   3.098  0.1848  0.0586  0.1107
  434MOL0     C58465   3.545   9.700   3.043  0.0673  0.0696 -0.3426
  434MOL0     C58466   3.436   9.755   3.139 -0.6041  0.2253 -0.3921
  434MOL0     C58467   3.312   9.683   3.090 -0.1431  0.2568 -0.2994
  434MOL0     C58468   3.186   9.757   3.136  0.0431  0.5928  0.5529
  434MOL0     C58469   3.160   9.732   3.287 -0.0555  0.1262 -0.7674
  434MOL0     C58470   3.038   9.805   3.347  0.6330  0.5800  0.4755
  434MOL0     C58471   3.002   9.745   3.484 -0.6173 -0.7235 -0.3403
  434MOL0     N58472   2.878   9.801   3.546 -0.9090 -0.0731 -0.6993
  434MOL0     C58473   2.754   9.750   3.556  0.1717  0.5081 -0.4284
  434MOL0     C58474   2.686   9.829   3.647 -0.1066  0.7243  0.1606
  434MOL0     C58475   2.540   9.799   3.692  0.4069  0.1667 -0.9693
  434MOL0     C58476   2.456   9.919   3.739 -0.1614 -0.6519 -0.3687
  434MOL0     C58477   2.412  10.007   3.618  0.3290  0.3822 -0.0875
  434MOL0     C58478   2.274   9.973   3.562 -0.6076  1.0634  0.4744
  434MOL0     O58479   2.197  10.086   3.522 -0.4819  0.4493  0.3128
  434MOL0     C58480   2.064  10.060   3.490  0.7747 -0.6835 -0.6061
  434MOL0     C58481   2.000   9.940   3.461 -0.7999  0.5796 -0.1666
  434MOL0     C58482   1.865   9.924   3.459  0.0165 -0.1515 -0.1788
  434MOL0     C58483   1.803   9.792   3.449 -0.6669  0.1441  0.2396
  434MOL0     C58484   1.781  10.040   3.488 -0.2920  0.3920  0.2358
  434MOL0     C58485   1.643  10.026   3.519 -0.7808  0.2016 -0.4337
  434MOL0     O58486   1.561   9.971   3.417 -0.8846 -0.0577 -0.6277
  434MOL0     C58487   1.427   9.935   3.459 -0.2523  0.0242  0.0879
  434MOL0     C58488   1.336  10.018   3.524  0.8900  0.7963  0.8376
  434MOL0     C58489   1.205   9.963   3.550  0.0567  0.4029 -1.0085
  434MOL0     C58490   1.173   9.829   3.514 -0.2706  0.3588  0.6807
  434MOL0     O58491   1.049   9.774   3.535 -0.0255 -0.0869 -0.5315
  434MOL0     C58492   0.980   9.797   3.666 -0.2324 -0.5551  1.1656
  434MOL0     C58493   0.860   9.706   3.666  0.2559  0.4517 -0.2700
  434MOL0     C58494   0.758   9.743   3.771 -0.1092  0.3086  0.2636
  434MOL0     C58495   0.639   9.641   3.773  0.0305  0.0803 -0.6296
  434MOL0     C58496   0.530   9.686   3.880 -0.0317  0.7574  0.3090
  434MOL0     C58497   0.403   9.589   3.875  0.0896 -0.0753 -0.2461
  434MOL0     C58498   0.286   9.639   3.968  0.1542 -0.0577  0.4447
  434MOL0     C58499   0.158   9.570   3.923  0.6284 -0.0414  0.5543
  434MOL0    Cl58500   0.007   9.650   3.991 -0.3427  0.1550 -0.6678
  434MOL0     C58501   1.263   9.755   3.444 -0.6752  0.2010 -0.5264
  434MOL0     C58502   1.391   9.806   3.417  0.2548 -1.5878 -0.0062
  434MOL0     O58503   1.614  10.045   3.640 -0.6855  0.1016 -0.2674
  434MOL0     C58504   1.850  10.160   3.511  0.3895  0.5253 -0.2926
  434MOL0     C58505   1.986  10.172   3.511  0.2314 -0.3567  0.4856
  434MOL0     N58506   2.774   9.915   3.704 -0.1254 -0.2973 -0.2954
  434MOL0     N58507   2.889   9.904   3.641  0.3911 -0.2785 -0.2083
  434MOL0     C58508   3.980   9.718   2.886 -0.5555  0.8507 -0.3605
  434MOL0     C58509   4.102   9.797   2.882  0.5014  0.4940  0.1010
  434MOL0     C58510   4.370  10.139   2.889 -0.8398  0.4520  0.0460
  434MOL0     C58511   4.384  10.250   2.800  0.5307  0.0473 -1.2327
  434MOL0     C58512   4.497  10.326   2.799 -0.5059 -0.2515  0.4128
  434MOL0     C58513   4.609  10.301   2.878  0.3419  0.2918 -0.2191
  434MOL0     O58514   4.714  10.387   2.853  0.2822  0.6323  0.1635
  434MOL0     C58515   4.850  10.324   2.835 -0.0382  0.0688 -0.2140
  434MOL0     C58516   4.852  10.221   2.715  0.3973  0.6632  0.1939
  434MOL0     C58517   4.969  10.138   2.697 -0.6122  0.1962 -0.0799
  434MOL0     C58518   4.963  10.048   2.568  0.9561 -0.1542  0.2714
  434MOL0     C58519   4.936  10.121   2.444 -0.6745  0.2565  0.9756
  434MOL0     C58520   4.921  10.181   2.343  0.1902  0.5799  0.6122
  434MOL0     C58521   4.600  10.200   2.968 -0.3768 -0.7622 -0.0901
  434MOL0     C58522   4.487  10.115   2.970 -0.0395  0.6437 -0.0936
  434MOL0     H58523   4.099   9.935   3.192 -3.1062 -0.0109 -0.1353
  434MOL0     H58524   3.921   9.773   3.216 -1.9228  0.0581 -0.5951
  434MOL0     H58525   3.697   9.667   3.194  2.7035  0.3323 -0.0242
  434MOL0     H58526   3.691   9.825   3.111 -0.1398 -0.0199  0.9990
  434MOL0     H58527   3.522   9.741   2.944 -0.7498 -2.0642 -1.1156
  434MOL0     H58528   3.539   9.593   3.021  0.9784 -0.6756  2.5988
  434MOL0     H58529   3.450   9.713   3.239 -1.2620 -0.1520 -0.4480
  434MOL0     H58530   3.437   9.864   3.132  1.1580  0.3625  1.3586
  434MOL0     H58531   3.303   9.679   2.981 -0.4828  2.3621 -0.3861
  434MOL0     H58532   3.318   9.582   3.133 -0.0682 -0.0937 -1.1143
  434MOL0     H58533   3.196   9.863   3.112 -1.6542  0.2859 -1.8981
  434MOL0     H58534   3.106   9.708   3.079  0.1487  2.2583 -1.1410
  434MOL0     H58535   3.128   9.631   3.315  0.4727  1.0162  3.8279
  434MOL0     H58536   3.252   9.758   3.341  0.1815  0.4215 -1.3051
  434MOL0     H58537   3.057   9.912   3.357  0.2064  0.9183 -1.7579
  434MOL0     H58538   2.958   9.791   3.273  1.2332 -2.1048  0.2218
  434MOL0     H58539   3.082   9.770   3.555  0.1470  1.2750 -1.7966
  434MOL0     H58540   2.989   9.637   3.476 -2.4649 -0.5091 -0.7739
  434MOL0     H58541   2.721   9.652   3.522  0.1951  1.4024 -3.3470
  434MOL0     H58542   2.487   9.735   3.620 -0.1489 -0.2473 -0.2115
  434MOL0     H58543   2.547   9.743   3.786  1.5592  3.2572  0.9291
  434MOL0     H58544   2.517   9.976   3.810  2.3157 -2.8531 -0.6110
  434MOL0     H58545   2.361   9.890   3.787 -1.6181 -1.1903 -3.3314
  434MOL0     H58546   2.484   9.995   3.536 -0.3023 -2.0307 -0.3773
  434MOL0     H58547   2.411  10.112   3.647  1.1931  1.4973 -3.5526
  434MOL0     H58548   2.214   9.909   3.626 -0.7300 -0.3758 -1.0143
  434MOL0     H58549   2.283   9.911   3.472 -3.6206  1.9163 -0.5472
  434MOL0     H58550   2.066   9.855   3.444 -2.5546 -0.5511 -1.7382
  434MOL0     H58551   1.727   9.779   3.526 -2.0516  2.5255 -0.6421
  434MOL0     H58552   1.762   9.761   3.352  0.7609 -0.0326 -0.3408
  434MOL0     H58553   1.887   9.722   3.464  0.1712  1.1757  0.4478
  434MOL0     H58554   1.359  10.118   3.560 -1.7156  0.3210  4.3031
  434MOL0     H58555   1.133  10.028   3.598 -0.3464 -0.6667 -0.1380
  434MOL0     H58556   1.047   9.761   3.745  0.0514 -1.3740  0.5664
  434MOL0     H58557   0.946   9.900   3.673  1.6139  0.3045 -1.1197
  434MOL0     H58558   0.821   9.696   3.565 -0.4435  2.9421 -0.3095
  434MOL0     H58559   0.892   9.604   3.690  0.0775  1.0047  2.7788
  434MOL0     H58560   0.722   9.846   3.760 -0.5479  0.5546  3.2076
  434MOL0     H58561   0.807   9.742   3.869 -1.7932  2.0083  1.1762
  434MOL0     H58562   0.594   9.620   3.676  1.1860 -2.2727 -0.7113
  434MOL0     H58563   0.685   9.548   3.807 -1.1602 -0.5929 -0.8400
  434MOL0     H58564   0.517   9.791   3.851 -1.6550  0.1277 -1.4045
  434MOL0     H58565   0.565   9.683   3.984 -2.1686  2.5264  1.1607
  434MOL0     H58566   0.371   9.600   3.771  1.5674  1.3243 -0.5891
  434MOL0     H58567   0.437   9.488   3.896  5.3559  1.8285  2.0355
  434MOL0     H58568   0.268   9.743   3.940  0.9604 -0.3728 -1.4348
  434MOL0     H58569   0.321   9.619   4.069  0.1076  0.2259  0.5186
  434MOL0     H58570   0.162   9.464   3.952 -2.7187 -0.4918 -0.2605
  434MOL0     H58571   0.153   9.577   3.814 -2.3218  0.6359  0.6664
  434MOL0     H58572   1.237   9.651   3.427 -0.4377  0.0717 -0.1147
  434MOL0     H58573   1.475   9.749   3.380  1.8206 -0.1287  1.1873
  434MOL0     H58574   1.787  10.247   3.526  2.1898  1.8507 -0.0412
  434MOL0     H58575   2.026  10.271   3.528  1.4658 -0.5844 -0.8460
  434MOL0     H58576   3.932   9.658   2.810 -0.4885  1.3119 -0.7698
  434MOL0     H58577   4.147   9.790   2.784  0.6845 -1.5719  0.2747
  434MOL0     H58578   4.300  10.277   2.736  1.9130 -1.6198 -3.9744
  434MOL0     H58579   4.494  10.400   2.719 -2.8079 -0.2849  0.3978
  434MOL0     H58580   4.917  10.409   2.822 -0.2065  0.2918  0.3327
  434MOL0     H58581   4.874  10.272   2.929  1.7492  1.6078  0.2379
  434MOL0     H58582   4.836  10.285   2.627 -0.3882  0.4456  0.1755
  434MOL0     H58583   4.768  10.151   2.723 -0.8997  1.6249 -3.2074
  434MOL0     H58584   4.977  10.066   2.779 -3.7625 -0.4487 -0.2426
  434MOL0     H58585   5.064  10.192   2.703  0.7902 -2.0484 -0.8184
  434MOL0     H58586   4.882   9.975   2.578  1.8420 -1.6686 -2.4437
  434MOL0     H58587   5.052   9.985   2.564  0.5455 -1.0807  3.1527
  434MOL0     H58588   4.901  10.231   2.250  0.3178  0.0333  0.2916
  434MOL0     H58589   4.675  10.178   3.044 -0.4287 -0.9315 -0.0865
  434MOL0     H58590   4.493  10.032   3.040 -0.5652  1.2388  0.6777
  435MOL0     O58591   4.764   6.440   4.052 -0.0626 -0.5265  0.1284
  435MOL0     C58592   4.833   6.377   4.133 -1.3740 -0.0211 -0.1165
  435MOL0     O58593   4.784   6.288   4.227  0.0801  0.3089  0.8769
  435MOL0     C58594   4.648   6.280   4.240  0.0348 -0.3020 -0.8438
  435MOL0     C58595   4.590   6.154   4.256  0.8713 -0.1178  0.4598
  435MOL0     C58596   4.448   6.147   4.279  0.3498  0.0215 -1.4523
  435MOL0     C58597   4.376   6.269   4.309 -1.1482 -0.5250 -0.0623
  435MOL0     O58598   4.244   6.258   4.342 -0.2814 -0.1783  0.2922
  435MOL0     C58599   4.217   6.183   4.457 -0.0339  1.6421 -0.5303
  435MOL0     C58600   4.066   6.174   4.486  0.4396  0.6306  0.5514
  435MOL0     C58601   4.036   6.116   4.621 -0.8848 -0.4047 -0.7860
  435MOL0     C58602   3.883   6.124   4.641 -0.8875  0.3954 -0.3638
  435MOL0     C58603   3.841   6.050   4.770 -0.3360 -0.0969  0.2088
  435MOL0     C58604   3.692   6.074   4.789 -0.4982 -0.0547 -0.6040
  435MOL0     C58605   3.640   6.008   4.910 -0.7331  0.3756  0.3997
  435MOL0     C58606   3.495   6.011   4.925 -0.3953 -0.0626  0.3098
  435MOL0     N58607   3.447   6.125   4.999  0.1874 -0.2686  0.6535
  435MOL0     C58608   3.344   6.201   4.949  0.7579  0.5837 -0.2644
  435MOL0     C58609   3.273   6.257   5.052 -0.4349 -0.2919  0.6583
  435MOL0     C58610   3.154   6.340   5.043  0.2424 -0.1339  0.1123
  435MOL0     C58611   3.039   6.239   5.040 -0.2048  0.1179  0.5941
  435MOL0     C58612   2.893   6.284   5.006  0.0325 -0.5607  0.4392
  435MOL0     C58613   2.819   6.357   5.127  0.6513 -0.6622  0.1213
  435MOL0     O58614   2.684   6.382   5.082  0.3038 -0.6441  0.6925
  435MOL0     C58615   2.589   6.444   5.152  0.2313  0.9157 -1.0107
  435MOL0     C58616   2.609   6.528   5.257  0.4244  0.3763 -0.4436
  435MOL0     C58617   2.507   6.579   5.336  0.1994 -0.6558  0.5447
  435MOL0     C58618   2.541   6.658   5.464  0.4390  0.9620 -0.0891
  435MOL0     C58619   2.376   6.545   5.313  0.1170  0.0171 -0.0635
  435MOL0     C58620   2.253   6.580   5.394  0.1422 -0.3402  0.4637
  435MOL0     O58621   2.134   6.517   5.360  0.4541 -0.3171 -0.2088
  435MOL0     C58622   2.011   6.548   5.407 -0.6080  0.6429  0.3562
  435MOL0     C58623   1.966   6.682   5.416  0.2594  0.3467  0.6225
  435MOL0     C58624   1.851   6.708   5.488  0.6806 -0.1401 -0.6978
  435MOL0     C58625   1.762   6.609   5.521 -0.3226  0.0243 -0.2772
  435MOL0     O58626   1.646   6.622   5.585 -0.1547 -1.0270  0.5152
  435MOL0     C58627   1.590   6.739   5.656 -0.1039  0.1743  0.4749
  435MOL0     C58628   1.441   6.744   5.602 -0.1232 -0.7278  0.7409
  435MOL0     C58629   1.372   6.876   5.635 -0.7664 -0.5141 -0.6554
  435MOL0     C58630   1.242   6.907   5.554  0.3490  0.3254 -0.5646
  435MOL0     C58631   1.137   6.808   5.580  0.2342 -0.1643  0.3028
  435MOL0     C58632   1.033   6.806   5.472  0.3695 -0.2584  0.4484
  435MOL0     C58633   0.899   6.741   5.511  0.9349  0.8049  0.4426
  435MOL0     C58634   0.809   6.709   5.389 -0.6915 -0.9196 -0.3252
  435MOL0    Cl58635   0.664   6.659   5.460  0.0450  0.0136 -0.0509
  435MOL0     C58636   1.797   6.476   5.497  0.3022  0.1286 -0.8794
  435MOL0     C58637   1.919   6.439   5.430 -0.5566  0.1398 -0.3949
  435MOL0     O58638   2.271   6.671   5.476 -0.2169 -0.8013 -0.4724
  435MOL0     C58639   2.352   6.460   5.208 -0.3663  0.9429 -0.2407
  435MOL0     C58640   2.457   6.412   5.128  0.0306 -0.1206  0.3247
  435MOL0     N58641   3.336   6.207   5.165  0.3057  0.6242 -0.1990
  435MOL0     N58642   3.433   6.119   5.134  0.5727  0.3030  0.7215
  435MOL0     C58643   4.439   6.391   4.298 -1.5183 -0.1371  0.4868
  435MOL0     C58644   4.573   6.399   4.259  0.0855 -0.4655 -0.0931
  435MOL0     C58645   4.978   6.390   4.123  1.4116 -1.0693  0.1354
  435MOL0     C58646   5.067   6.287   4.170 -0.1117 -0.3216 -0.1784
  435MOL0     C58647   5.206   6.315   4.169  0.8809  0.8020  0.0321
  435MOL0     C58648   5.253   6.433   4.104  1.1899 -0.6215  0.0991
  435MOL0     O58649   5.387   6.458   4.121  0.8759 -0.2657  0.2712
  435MOL0     C58650   5.427   6.550   4.227  0.3947 -0.2425  0.6303
  435MOL0     C58651   5.555   6.494   4.294  0.0181 -0.6998 -0.7831
  435MOL0     C58652   5.677   6.499   4.199  0.3668 -0.8197  0.0469
  435MOL0     C58653   5.803   6.424   4.239 -0.7943 -0.0452  0.1615
  435MOL0     C58654   5.842   6.471   4.372  0.5756 -0.4779 -0.3100
  435MOL0     C58655   5.874   6.503   4.485  0.6099  0.1997  0.1407
  435MOL0     C58656   5.161   6.512   4.031 -0.4299 -0.2628 -0.3472
  435MOL0     C58657   5.033   6.499   4.049 -0.7809 -0.2522  0.5606
  435MOL0     H58658   4.655   6.073   4.226  2.0575  0.5207  1.2512
  435MOL0     H58659   4.390   6.056   4.278  0.5256 -0.0959 -2.2694
  435MOL0     H58660   4.247   6.078   4.459 -0.7708  1.4114  1.7292
  435MOL0     H58661   4.274   6.230   4.537 -0.0921  2.8741 -1.1957
  435MOL0     H58662   4.024   6.274   4.476  2.4809  1.5388  0.5808
  435MOL0     H58663   4.014   6.109   4.415  2.6343 -0.9654  0.2833
  435MOL0     H58664   4.073   6.013   4.628  0.5956  0.1713  0.6186
  435MOL0     H58665   4.086   6.174   4.699 -0.1422  0.4370 -1.8737
  435MOL0     H58666   3.853   6.226   4.664  0.6572  0.3177  2.4137
  435MOL0     H58667   3.823   6.079   4.561 -2.4419 -0.2435  1.0740
  435MOL0     H58668   3.868   5.944   4.759 -0.3578 -0.1823  0.8967
  435MOL0     H58669   3.902   6.082   4.856  2.1239  0.9251 -1.7955
  435MOL0     H58670   3.675   6.182   4.795 -1.1805 -0.2333  1.1236
  435MOL0     H58671   3.640   6.035   4.701 -1.5567  2.8437 -1.3739
  435MOL0     H58672   3.669   5.904   4.892  1.1582  1.5217 -4.6600
  435MOL0     H58673   3.698   6.050   4.993 -1.0055  1.0994  0.2339
  435MOL0     H58674   3.477   5.927   4.992 -1.9380  0.7622  0.9840
  435MOL0     H58675   3.442   5.995   4.830 -1.8521  0.8234  0.9348
  435MOL0     H58676   3.317   6.204   4.844 -0.4238 -0.5529 -0.0167
  435MOL0     H58677   3.137   6.406   5.129 -1.2609 -0.2828 -0.0565
  435MOL0     H58678   3.155   6.398   4.950  1.4435 -2.0689 -1.1547
  435MOL0     H58679   3.035   6.193   5.139 -1.8400  0.0435  0.5147
  435MOL0     H58680   3.068   6.158   4.973  0.3940 -2.0166  3.3013
  435MOL0     H58681   2.833   6.195   4.984  1.0845 -2.0152  2.9052
  435MOL0     H58682   2.896   6.356   4.924  2.8398  0.0192  0.9260
  435MOL0     H58683   2.877   6.446   5.152  1.5873 -1.1860 -0.1157
  435MOL0     H58684   2.812   6.307   5.224 -0.5168  1.7391  1.3653
  435MOL0     H58685   2.716   6.541   5.273  0.5014 -0.7809  0.0944
  435MOL0     H58686   2.518   6.602   5.555  1.1730  1.4489  0.4070
  435MOL0     H58687   2.646   6.690   5.469  1.3590 -1.9651  1.4257
  435MOL0     H58688   2.474   6.745   5.469  0.8372  1.1956  2.5990
  435MOL0     H58689   2.020   6.766   5.374 -0.2020 -0.6498 -2.1876
  435MOL0     H58690   1.835   6.814   5.510 -0.7496 -0.4092 -0.3476
  435MOL0     H58691   1.586   6.715   5.762 -0.0499 -1.0313  0.2151
  435MOL0     H58692   1.650   6.829   5.638  0.7350 -0.1268  1.6937
  435MOL0     H58693   1.436   6.742   5.493  1.8429 -1.1421  0.6271
  435MOL0     H58694   1.385   6.661   5.645 -0.5991  0.9754  3.7139
  435MOL0     H58695   1.443   6.956   5.612  1.8402 -2.5191 -0.0851
  435MOL0     H58696   1.358   6.870   5.744  2.0204 -0.5256 -0.2237
  435MOL0     H58697   1.203   7.006   5.579 -0.1468 -0.2640  1.0943
  435MOL0     H58698   1.268   6.902   5.448 -0.6313 -0.1263 -0.7971
  435MOL0     H58699   1.094   6.843   5.675 -2.9280  4.2237 -2.3706
  435MOL0     H58700   1.177   6.706   5.582 -0.3193 -0.3798  0.5167
  435MOL0     H58701   1.010   6.912   5.457  0.5620 -0.0372  1.5878
  435MOL0     H58702   1.063   6.767   5.375 -0.2621  1.1078 -0.3181
  435MOL0     H58703   0.844   6.810   5.576  1.0346  0.4565  0.9032
  435MOL0     H58704   0.915   6.654   5.575 -2.5591  0.4808  1.0834
  435MOL0     H58705   0.850   6.624   5.334 -2.0042 -1.2158 -0.8874
  435MOL0     H58706   0.799   6.798   5.326  0.3095 -0.5116  0.0676
  435MOL0     H58707   1.723   6.399   5.516  1.1650 -1.2539 -2.8100
  435MOL0     H58708   1.946   6.334   5.420  1.2619  0.7702 -3.1846
  435MOL0     H58709   2.255   6.424   5.177 -0.1290  0.3569 -0.3263
  435MOL0     H58710   2.422   6.344   5.051 -2.5298 -0.2082  1.4687
  435MOL0     H58711   4.382   6.481   4.318 -2.0572  0.0095 -1.4652
  435MOL0     H58712   4.622   6.496   4.267 -0.8662 -0.0067  0.2790
  435MOL0     H58713   5.025   6.198   4.218 -0.2379 -0.7361 -1.0353
  435MOL0     H58714   5.273   6.240   4.211  0.6129  1.3437  1.4682
  435MOL0     H58715   5.442   6.648   4.182 -1.4616 -0.0693  0.3041
  435MOL0     H58716   5.354   6.570   4.306  0.4507 -1.2767  0.9628
  435MOL0     H58717   5.553   6.385   4.305  0.7165 -0.8378 -1.8433
  435MOL0     H58718   5.581   6.540   4.390 -1.7880 -0.3842 -0.4008
  435MOL0     H58719   5.692   6.607   4.190  0.4085 -0.7289  1.0600
  435MOL0     H58720   5.646   6.468   4.099 -1.7069  1.3884 -0.0877
  435MOL0     H58721   5.875   6.447   4.161 -0.2603  1.2155  0.9943
  435MOL0     H58722   5.789   6.315   4.245  0.0543 -0.0746  2.5297
  435MOL0     H58723   5.914   6.524   4.582 -0.7239  1.2178  0.5005
  435MOL0     H58724   5.195   6.595   3.970 -3.7404  1.3300 -0.2262
  435MOL0     H58725   4.964   6.566   3.997 -3.3003 -3.1437 -0.0995
  436MOL0     O58726  11.259   9.847   4.319 -1.0569  0.3436  0.0458
  436MOL0     C58727  11.275   9.818   4.440 -0.0132  0.6747  0.0959
  436MOL0     O58728  11.173   9.784   4.526  0.2219 -0.4270 -0.2517
  436MOL0     C58729  11.039   9.790   4.493 -0.2735 -0.5826  0.1594
  436MOL0     C58730  10.954   9.704   4.559 -0.1564 -0.1302 -0.4920
  436MOL0     C58731  10.815   9.693   4.530  0.1428  0.5672  0.3633
  436MOL0     C58732  10.759   9.778   4.424 -0.0466  0.0122 -0.0571
  436MOL0     O58733  10.624   9.758   4.393  0.1953 -0.2125  0.0899
  436MOL0     C58734  10.576   9.627   4.370 -0.9986 -0.5857 -0.2165
  436MOL0     C58735  10.426   9.626   4.341  0.6895 -0.1153 -0.0943
  436MOL0     C58736  10.349   9.498   4.307 -0.3840  1.0200 -0.4856
  436MOL0     C58737  10.203   9.517   4.253  0.5721 -0.1606  0.6041
  436MOL0     C58738  10.136   9.377   4.231 -0.4552  0.2753  0.1927
  436MOL0     C58739   9.996   9.410   4.172 -0.1181 -0.6130 -0.1766
  436MOL0     C58740   9.928   9.279   4.136  0.7592 -0.2460 -0.1217
  436MOL0     C58741   9.778   9.304   4.094 -0.0937  1.1871  0.0706
  436MOL0     N58742   9.717   9.182   4.031 -0.1683  0.8593 -0.7310
  436MOL0     C58743   9.749   9.049   4.048  0.1373 -0.4835  0.0222
  436MOL0     C58744   9.667   8.977   3.964  0.2201 -0.0573 -0.6335
  436MOL0     C58745   9.662   8.828   3.942  0.8380 -0.0867  0.5936
  436MOL0     C58746   9.790   8.780   3.870  0.3054 -0.7913 -0.5442
  436MOL0     C58747   9.811   8.836   3.727  0.0853 -0.3680 -0.4271
  436MOL0     C58748   9.676   8.830   3.642  0.0569 -0.1527  0.0889
  436MOL0     O58749   9.608   8.708   3.647  0.9384  0.2695 -0.0259
  436MOL0     C58750   9.466   8.707   3.660 -0.1680 -0.0051  0.0771
  436MOL0     C58751   9.404   8.591   3.711 -0.1762  0.7172  0.3262
  436MOL0     C58752   9.269   8.580   3.729  0.2134 -0.3968  0.6475
  436MOL0     C58753   9.228   8.445   3.792  0.3382 -0.4720  0.5672
  436MOL0     C58754   9.184   8.686   3.680  0.7600 -0.0452 -0.7138
  436MOL0     C58755   9.030   8.680   3.691 -0.3861 -0.0294  1.1564
  436MOL0     O58756   8.984   8.558   3.667  0.1965 -0.1221  0.4481
  436MOL0     C58757   8.852   8.537   3.648  0.4792  0.2030  0.5161
  436MOL0     C58758   8.791   8.417   3.702 -0.5447  0.0945  0.1299
  436MOL0     C58759   8.656   8.403   3.699  0.5721 -0.0274 -0.4375
  436MOL0     C58760   8.570   8.490   3.625 -0.2351 -1.3341 -0.9789
  436MOL0     O58761   8.438   8.485   3.616 -0.4867 -0.1880  0.2595
  436MOL0     C58762   8.385   8.351   3.631 -0.3705 -0.2130 -0.9466
  436MOL0     C58763   8.242   8.356   3.577 -0.6370 -0.6378  0.6223
  436MOL0     C58764   8.227   8.399   3.425 -0.1534 -0.4655 -0.6371
  436MOL0     C58765   8.089   8.380   3.354 -1.0090  0.4779 -0.2357
  436MOL0     C58766   8.080   8.403   3.203 -1.0913  0.1939  0.3975
  436MOL0     C58767   7.957   8.343   3.136  0.4443  0.1827 -0.6302
  436MOL0     C58768   7.949   8.384   2.992 -0.6538 -0.4132 -0.0419
  436MOL0     C58769   7.830   8.331   2.915  0.1062  1.7368 -0.8000
  436MOL0    Cl58770   7.674   8.406   2.953 -0.5927  0.1308  0.1571
  436MOL0     C58771   8.632   8.607   3.569  0.3144 -0.0288 -0.5216
  436MOL0     C58772   8.771   8.626   3.579 -0.4722  0.6387  0.5505
  436MOL0     O58773   8.973   8.783   3.707  0.1761  0.5696 -0.3064
  436MOL0     C58774   9.243   8.797   3.615 -0.6680 -0.3929 -0.6394
  436MOL0     C58775   9.381   8.813   3.607 -0.4683  0.4281 -0.6140
  436MOL0     N58776   9.581   9.067   3.903 -0.9995  0.6575  0.0883
  436MOL0     N58777   9.618   9.182   3.944 -0.2933  0.0598  0.4775
  436MOL0     C58778  10.849   9.863   4.356 -0.5338 -0.1653  0.2663
  436MOL0     C58779  10.984   9.873   4.394  0.1145  0.1317  0.2158
  436MOL0     C58780  11.415   9.806   4.483  0.7756  0.4983 -0.0987
  436MOL0     C58781  11.444   9.770   4.612 -0.6168 -0.4789  0.1160
  436MOL0     C58782  11.574   9.773   4.653 -0.6366  0.1989 -0.0711
  436MOL0     C58783  11.683   9.807   4.565  0.3830  1.2696  0.7396
  436MOL0     O58784  11.815   9.810   4.602 -0.0731 -0.0922 -0.3034
  436MOL0     C58785  11.856   9.855   4.731 -0.3938  0.0317  0.1010
  436MOL0     C58786  12.012   9.857   4.726 -0.5454 -0.0744 -0.3030
  436MOL0     C58787  12.081   9.734   4.674 -0.2359 -0.2037  1.3084
  436MOL0     C58788  12.235   9.728   4.723  0.6643  0.8378 -0.3399
  436MOL0     C58789  12.306   9.847   4.689  0.9783  0.2570  0.2469
  436MOL0     C58790  12.375   9.937   4.660  0.7812  0.1866  0.3917
  436MOL0     C58791  11.640   9.830   4.432 -0.5603 -0.0794  0.2758
  436MOL0     C58792  11.509   9.825   4.390 -0.4577 -0.0948 -0.6458
  436MOL0     H58793  11.013   9.626   4.607  1.8308 -0.9865 -3.9500
  436MOL0     H58794  10.766   9.610   4.580  0.6075 -0.2997 -0.5983
  436MOL0     H58795  10.613   9.586   4.276 -2.1105  0.4393 -1.1345
  436MOL0     H58796  10.592   9.561   4.455 -0.8672 -1.1122 -0.6511
  436MOL0     H58797  10.375   9.673   4.426 -0.6600  0.8208 -1.3763
  436MOL0     H58798  10.415   9.695   4.257 -3.9670  1.9124  1.8327
  436MOL0     H58799  10.404   9.456   4.223  2.5033  1.8187  0.8682
  436MOL0     H58800  10.360   9.431   4.393 -0.6547  0.8064 -0.6166
  436MOL0     H58801  10.147   9.568   4.332  1.4874 -1.5599  2.2268
  436MOL0     H58802  10.197   9.567   4.156 -2.0952  1.7345  1.6302
  436MOL0     H58803  10.195   9.319   4.159 -1.6574 -1.0258  0.2123
  436MOL0     H58804  10.137   9.305   4.313  1.1216  0.2498  0.1680
  436MOL0     H58805   9.928   9.471   4.231  1.1502  1.6466 -0.9284
  436MOL0     H58806  10.010   9.471   4.082 -0.6612  0.8949  0.7397
  436MOL0     H58807   9.994   9.250   4.055 -0.5142  1.3241 -1.7967
  436MOL0     H58808   9.924   9.204   4.216  0.0646 -1.1359 -0.9560
  436MOL0     H58809   9.779   9.390   4.027  1.3212  0.5069 -0.8295
  436MOL0     H58810   9.736   9.320   4.194  0.8604  0.4656  0.6065
  436MOL0     H58811   9.820   8.997   4.111 -0.7072 -0.5277  0.9548
  436MOL0     H58812   9.650   8.777   4.038 -1.2806 -1.2607 -0.2194
  436MOL0     H58813   9.570   8.808   3.886 -0.1954  0.7537  1.9399
  436MOL0     H58814   9.782   8.671   3.859  0.3344 -1.0853  1.8124
  436MOL0     H58815   9.874   8.800   3.937 -1.1571  1.2692  0.7689
  436MOL0     H58816   9.901   8.791   3.685  2.0000  0.5181  2.4636
  436MOL0     H58817   9.837   8.943   3.722 -1.1676 -0.0255 -0.0292
  436MOL0     H58818   9.692   8.858   3.537 -0.0769 -0.5579 -0.0404
  436MOL0     H58819   9.612   8.912   3.676 -0.5841 -1.5099  2.3280
  436MOL0     H58820   9.472   8.512   3.741 -0.7347 -0.6133 -1.6761
  436MOL0     H58821   9.312   8.388   3.835  1.0778  0.2183  0.0575
  436MOL0     H58822   9.146   8.460   3.863 -0.8051  1.3496 -1.0637
  436MOL0     H58823   9.176   8.389   3.714  1.1422  2.8465 -2.5999
  436MOL0     H58824   8.849   8.341   3.753  1.6924  1.6135 -0.0460
  436MOL0     H58825   8.610   8.318   3.748  0.2029  0.7999  0.6851
  436MOL0     H58826   8.450   8.278   3.582  0.0483 -0.8218  0.4599
  436MOL0     H58827   8.379   8.332   3.739 -4.4267  1.8609 -0.6311
  436MOL0     H58828   8.201   8.255   3.577  0.3465 -1.0512  0.4436
  436MOL0     H58829   8.187   8.422   3.645  1.7872  1.5495  0.6274
  436MOL0     H58830   8.308   8.341   3.379 -0.1385  0.3867 -1.7489
  436MOL0     H58831   8.257   8.504   3.415 -0.0185 -0.6029 -1.9151
  436MOL0     H58832   8.064   8.275   3.370 -2.3031  0.4785 -1.9721
  436MOL0     H58833   8.014   8.437   3.410  1.5120  0.9677  2.9252
  436MOL0     H58834   8.170   8.360   3.159 -1.1156  1.2913 -0.7726
  436MOL0     H58835   8.095   8.508   3.177 -0.8300 -0.1633 -0.9803
  436MOL0     H58836   7.986   8.238   3.145  3.6099  0.7127 -2.7255
  436MOL0     H58837   7.865   8.370   3.189  1.2951  1.7841  0.1169
  436MOL0     H58838   8.040   8.339   2.951  1.7856  1.3242  2.9492
  436MOL0     H58839   7.960   8.493   2.985  0.1330 -0.3609  1.4290
  436MOL0     H58840   7.817   8.223   2.934 -0.0886  1.6068 -1.6483
  436MOL0     H58841   7.853   8.345   2.809  4.4756  0.7532 -0.1881
  436MOL0     H58842   8.571   8.680   3.517 -0.3057  0.6494  1.0710
  436MOL0     H58843   8.809   8.708   3.519 -1.6011  3.2277  3.1302
  436MOL0     H58844   9.181   8.877   3.575 -0.4977 -0.8334 -1.8237
  436MOL0     H58845   9.421   8.902   3.560  0.0122  0.3986 -0.2605
  436MOL0     H58846  10.810   9.934   4.284 -0.0497  3.1089  2.9891
  436MOL0     H58847  11.045   9.940   4.334  1.1361 -1.9633 -1.1978
  436MOL0     H58848  11.371   9.738   4.686 -1.5884 -2.3114 -1.5499
  436MOL0     H58849  11.592   9.745   4.756  0.9007 -0.2090 -0.4316
  436MOL0     H58850  11.813   9.955   4.742  0.0020  0.2181 -0.0227
  436MOL0     H58851  11.824   9.786   4.810  2.7285 -2.4722 -0.6050
  436MOL0     H58852  12.041   9.874   4.830 -1.1782  1.9684 -0.4153
  436MOL0     H58853  12.041   9.943   4.664 -1.3958  0.0028 -0.6187
  436MOL0     H58854  12.073   9.738   4.565  0.6089  0.6652  1.2626
  436MOL0     H58855  12.024   9.649   4.714  2.1085 -0.6759  4.0372
  436MOL0     H58856  12.284   9.643   4.674  0.1151  0.0677  0.4034
  436MOL0     H58857  12.244   9.704   4.830  0.5986 -1.1198 -0.7356
  436MOL0     H58858  12.437  10.022   4.637 -1.5927  1.8158 -0.4082
  436MOL0     H58859  11.716   9.841   4.356 -1.2772 -0.8712 -0.5762
  436MOL0     H58860  11.473   9.837   4.288  1.1326 -1.5319 -1.4215
  437MOL0     O58861   0.257   4.110   8.045 -0.0524 -0.6190 -0.2347
  437MOL0     C58862   0.215   4.034   7.957 -0.1223 -0.1376 -1.0653
  437MOL0     O58863   0.087   3.991   7.937 -0.2942 -0.6651  0.1971
  437MOL0     C58864  -0.004   4.031   8.032  0.5875  0.0859  0.6441
  437MOL0     C58865  -0.009   3.965   8.159 -0.3339  0.2006  0.7109
  437MOL0     C58866  -0.109   3.996   8.245 -0.4851 -0.0997 -0.4120
  437MOL0     C58867  -0.221   4.071   8.210  0.2661 -0.4495  1.2224
  437MOL0     O58868  -0.324   4.081   8.307  0.2030 -0.0812  0.0657
  437MOL0     C58869  -0.438   4.152   8.272 -0.1484 -0.4878  0.4673
  437MOL0     C58870  -0.539   4.050   8.223 -0.2050 -1.0284 -0.0867
  437MOL0     C58871  -0.560   3.937   8.327 -0.5689 -0.3659  0.5257
  437MOL0     C58872  -0.709   3.901   8.342  0.6438  0.6572 -0.2462
  437MOL0     C58873  -0.771   3.818   8.226 -0.4830 -0.9704 -1.2809
  437MOL0     C58874  -0.928   3.809   8.241  0.4990  0.1755  0.6673
  437MOL0     C58875  -0.986   3.723   8.127 -0.1624  0.2742  0.7038
  437MOL0     C58876  -1.132   3.698   8.137  0.3188 -0.7968 -0.1500
  437MOL0     N58877  -1.193   3.613   8.034 -0.3001 -0.1769  0.1579
  437MOL0     C58878  -1.132   3.502   7.982  0.4062  0.0713  0.0033
  437MOL0     C58879  -1.205   3.457   7.877  0.5059  0.0440 -0.3675
  437MOL0     C58880  -1.192   3.326   7.790 -0.8411  0.0766  0.1366
  437MOL0     C58881  -1.150   3.199   7.870  0.5020  0.1631 -0.3556
  437MOL0     C58882  -1.153   3.081   7.772  0.1197 -0.5162 -0.4681
  437MOL0     C58883  -1.109   2.956   7.849 -0.7410 -0.1841 -0.0957
  437MOL0     O58884  -0.964   2.956   7.887  0.5891 -0.2487 -0.6987
  437MOL0     C58885  -0.868   2.922   7.799 -0.1304 -1.2627  0.0136
  437MOL0     C58886  -0.740   2.919   7.850 -0.5295  0.5749 -0.2866
  437MOL0     C58887  -0.622   2.889   7.774  0.3751  0.3903 -0.3782
  437MOL0     C58888  -0.492   2.887   7.843 -0.1739  0.1240  0.7427
  437MOL0     C58889  -0.649   2.863   7.633 -0.1444  0.4513  0.4447
  437MOL0     C58890  -0.550   2.834   7.532  0.3313  0.1491  0.9257
  437MOL0     O58891  -0.574   2.743   7.435  0.3673 -0.2316 -0.1382
  437MOL0     C58892  -0.474   2.690   7.364  0.3611 -0.6006 -0.0320
  437MOL0     C58893  -0.385   2.591   7.413 -0.2068  0.1533  0.5530
  437MOL0     C58894  -0.275   2.537   7.340  0.0072 -0.1426  0.5894
  437MOL0     C58895  -0.250   2.582   7.211  0.2998  0.3870 -0.3037
  437MOL0     O58896  -0.134   2.560   7.151  0.1854  0.0420  0.5059
  437MOL0     C58897  -0.036   2.468   7.192  0.2412 -0.7817  0.5740
  437MOL0     C58898   0.094   2.486   7.094  0.7878  0.3525 -0.1295
  437MOL0     C58899   0.026   2.449   6.955  0.4548  0.9396 -0.3844
  437MOL0     C58900   0.123   2.462   6.842 -0.1368 -0.2062  0.1625
  437MOL0     C58901   0.057   2.447   6.700  0.1402  0.6632  0.2197
  437MOL0     C58902   0.163   2.439   6.591  1.0410  0.1874 -0.2409
  437MOL0     C58903   0.253   2.555   6.573  0.0734 -0.3185  0.4207
  437MOL0     C58904   0.179   2.689   6.539 -0.4375 -0.1738 -0.0398
  437MOL0    Cl58905   0.084   2.678   6.385 -0.0872  0.2553  0.1963
  437MOL0     C58906  -0.350   2.664   7.159  0.3741 -0.1195  0.0227
  437MOL0     C58907  -0.455   2.722   7.232  0.2426 -0.6606 -1.2430
  437MOL0     O58908  -0.449   2.910   7.532 -0.8428  0.7401 -0.5671
  437MOL0     C58909  -0.773   2.874   7.575 -0.5717 -0.3813  0.4887
  437MOL0     C58910  -0.884   2.902   7.660 -0.1461 -0.3993 -0.3061
  437MOL0     N58911  -1.313   3.536   7.876 -0.4838  0.1485 -0.0046
  437MOL0     N58912  -1.308   3.631   7.967  0.5193  0.3357 -0.0873
  437MOL0     C58913  -0.225   4.119   8.081  0.0245 -0.6179 -0.2903
  437MOL0     C58914  -0.116   4.108   7.998 -0.1411  0.5886 -0.4602
  437MOL0     C58915   0.314   3.981   7.871 -0.5422  0.3283 -0.6717
  437MOL0     C58916   0.276   3.940   7.742 -0.1329  0.7115 -0.3747
  437MOL0     C58917   0.374   3.900   7.652  0.3664 -0.1545  0.0475
  437MOL0     C58918   0.508   3.891   7.687  0.0789 -0.0021 -0.3732
  437MOL0     O58919   0.602   3.828   7.600  0.1162  0.0747  0.0392
  437MOL0     C58920   0.662   3.706   7.647  0.3505  0.2577  0.2839
  437MOL0     C58921   0.559   3.595   7.673 -0.5368  1.1919 -0.1109
  437MOL0     C58922   0.614   3.467   7.740  0.0737  0.5005 -0.0393
  437MOL0     C58923   0.609   3.455   7.890 -0.2333 -0.8388 -0.0581
  437MOL0     C58924   0.471   3.462   7.944 -0.0237  0.9129 -0.0675
  437MOL0     C58925   0.368   3.475   8.006  0.4491 -0.0061  0.2863
  437MOL0     C58926   0.548   3.916   7.823  0.3839 -0.1220 -0.5353
  437MOL0     C58927   0.455   3.970   7.908 -0.0638 -0.6506  0.8680
  437MOL0     H58928   0.071   3.900   8.191  1.0216  1.9786  1.1029
  437MOL0     H58929  -0.116   3.950   8.343 -1.8468  4.1898  1.7427
  437MOL0     H58930  -0.482   4.198   8.361 -3.7526 -0.2022 -1.2973
  437MOL0     H58931  -0.417   4.237   8.207  2.2101 -1.4344 -0.1138
  437MOL0     H58932  -0.636   4.092   8.195  0.1380 -1.6337 -2.4672
  437MOL0     H58933  -0.495   4.028   8.125 -1.7045 -0.0517 -1.0299
  437MOL0     H58934  -0.485   3.859   8.306  0.2526  1.0216 -2.1456
  437MOL0     H58935  -0.529   3.971   8.426  0.5371  0.0230  0.0633
  437MOL0     H58936  -0.714   3.832   8.427  1.4582 -0.0117 -0.7288
  437MOL0     H58937  -0.768   3.991   8.361 -1.3608 -0.2814 -1.6198
  437MOL0     H58938  -0.753   3.865   8.129 -0.2918  2.0671  0.0950
  437MOL0     H58939  -0.729   3.717   8.228  2.4808  0.1802  0.1941
  437MOL0     H58940  -0.947   3.742   8.325 -0.1268 -2.6869 -1.5984
  437MOL0     H58941  -0.969   3.909   8.226  2.7262  0.7024 -3.5451
  437MOL0     H58942  -0.965   3.778   8.036 -0.5464 -2.3562 -1.0883
  437MOL0     H58943  -0.935   3.626   8.126 -0.7856 -0.0902 -2.2910
  437MOL0     H58944  -1.175   3.798   8.136  0.4219 -0.7469 -1.3584
  437MOL0     H58945  -1.160   3.633   8.221  0.1800 -2.5647 -1.5051
  437MOL0     H58946  -1.036   3.464   8.014  0.1912 -1.1834 -0.7906
  437MOL0     H58947  -1.289   3.310   7.743 -0.5802  2.4290 -1.3774
  437MOL0     H58948  -1.121   3.348   7.710  1.6801  0.8972  2.4491
  437MOL0     H58949  -1.221   3.175   7.950  0.8018 -1.5958 -0.5588
  437MOL0     H58950  -1.053   3.210   7.918  0.2024  3.6275 -0.3196
  437MOL0     H58951  -1.089   3.090   7.684 -0.1498 -0.4822 -0.6629
  437MOL0     H58952  -1.254   3.074   7.730 -1.4773 -1.8476  3.1788
  437MOL0     H58953  -1.128   2.867   7.788 -0.4728 -0.5627  0.3601
  437MOL0     H58954  -1.165   2.950   7.943 -1.5467  1.0489 -0.4749
  437MOL0     H58955  -0.733   2.941   7.955 -0.7801  2.0098 -0.5523
  437MOL0     H58956  -0.488   2.942   7.938 -1.4397 -2.3683  2.3421
  437MOL0     H58957  -0.454   2.785   7.849  1.5286  0.4818 -2.1032
  437MOL0     H58958  -0.417   2.939   7.783  0.4303  0.1394  1.5019
  437MOL0     H58959  -0.404   2.549   7.511 -2.6045  0.9880  0.5087
  437MOL0     H58960  -0.211   2.472   7.398 -0.6956 -0.2245  1.2870
  437MOL0     H58961  -0.009   2.485   7.297  0.9065 -0.7186  0.4028
  437MOL0     H58962  -0.079   2.371   7.167  0.5266 -0.9049  0.5523
  437MOL0     H58963   0.117   2.593   7.097 -0.3854  0.6590  3.7858
  437MOL0     H58964   0.176   2.422   7.125 -0.2492 -0.5413  0.8357
  437MOL0     H58965  -0.062   2.512   6.938 -2.0616 -1.8828  1.2157
  437MOL0     H58966  -0.008   2.346   6.962  1.8096  0.3636 -1.6721
  437MOL0     H58967   0.182   2.552   6.864 -0.4153 -0.0416  0.2455
  437MOL0     H58968   0.202   2.392   6.872  1.8609  2.3372  1.2640
  437MOL0     H58969  -0.007   2.535   6.692  0.5762  0.8679 -1.3399
  437MOL0     H58970   0.001   2.354   6.710  0.3422  0.5745  0.5600
  437MOL0     H58971   0.223   2.348   6.600 -0.8396 -0.9842  1.3091
  437MOL0     H58972   0.090   2.425   6.511  0.0244  2.4171  0.1918
  437MOL0     H58973   0.318   2.537   6.488  0.5241 -0.7918  0.8587
  437MOL0     H58974   0.319   2.575   6.659  2.9009 -0.6082 -1.5506
  437MOL0     H58975   0.248   2.774   6.533 -2.2239  1.2720 -2.3883
  437MOL0     H58976   0.107   2.716   6.617 -0.0671  2.4354 -0.4951
  437MOL0     H58977  -0.337   2.672   7.052  0.9300 -0.0641  0.0940
  437MOL0     H58978  -0.517   2.796   7.182  0.4966 -0.1338 -0.7899
  437MOL0     H58979  -0.793   2.848   7.471  0.1371 -1.9196  0.7119
  437MOL0     H58980  -0.979   2.899   7.607 -0.8177 -2.5256  0.9037
  437MOL0     H58981  -0.311   4.171   8.040  0.8651 -0.0099 -1.3382
  437MOL0     H58982  -0.122   4.153   7.899 -0.4885  2.4427  0.3535
  437MOL0     H58983   0.175   3.931   7.705 -0.8418  0.2092  1.5621
  437MOL0     H58984   0.345   3.878   7.549 -1.6454  1.6567  0.1567
  437MOL0     H58985   0.733   3.678   7.569 -0.7638  0.8903 -0.9782
  437MOL0     H58986   0.717   3.732   7.739  0.8447  0.0136  0.0609
  437MOL0     H58987   0.516   3.555   7.581 -1.2560 -1.5964  1.3319
  437MOL0     H58988   0.485   3.628   7.746 -0.7835 -1.0715  0.7686
  437MOL0     H58989   0.720   3.462   7.714  0.0158 -2.0179 -0.1277
  437MOL0     H58990   0.563   3.378   7.702 -1.2061 -0.1366  2.8536
  437MOL0     H58991   0.678   3.529   7.934  1.1215 -2.9380  1.5466
  437MOL0     H58992   0.654   3.360   7.919 -1.0077 -0.7066  1.6992
  437MOL0     H58993   0.278   3.476   8.063  1.1239 -2.3807  1.4934
  437MOL0     H58994   0.647   3.887   7.856 -0.8276 -3.6913  0.4108
  437MOL0     H58995   0.481   3.996   8.010 -2.7623 -0.5193  1.5919
  438MOL0     O58996   3.220   0.494   7.651  0.5356  0.1022 -0.2034
  438MOL0     C58997   3.281   0.568   7.565 -0.2343  0.7841 -0.3704
  438MOL0     O58998   3.224   0.628   7.454 -0.6175 -0.6847  0.4807
  438MOL0     C58999   3.090   0.627   7.443  0.5732 -0.4258 -0.0865
  438MOL0     C59000   3.033   0.634   7.315 -0.0855 -0.7315  0.7473
  438MOL0     C59001   2.899   0.653   7.281 -0.3387  0.3550 -0.2891
  438MOL0     C59002   2.808   0.669   7.394 -0.3950 -0.2058 -0.4708
  438MOL0     O59003   2.676   0.676   7.371  0.8285 -0.0013 -0.4678
  438MOL0     C59004   2.590   0.588   7.453 -0.0946  0.4221  0.2888
  438MOL0     C59005   2.468   0.582   7.377  0.3106 -0.3037  0.5371
  438MOL0     C59006   2.349   0.522   7.452  0.7872 -0.7058 -0.3190
  438MOL0     C59007   2.218   0.504   7.374  0.4940 -0.1825 -0.5064
  438MOL0     C59008   2.103   0.449   7.452 -0.1992 -0.4414 -0.6658
  438MOL0     C59009   1.969   0.454   7.377  0.4850 -0.4569 -0.1085
  438MOL0     C59010   1.902   0.591   7.380 -0.1128  0.0365  0.7242
  438MOL0     C59011   1.771   0.583   7.306 -0.4456  0.2712 -1.3067
  438MOL0     N59012   1.692   0.710   7.304  0.1439  0.1617 -0.6810
  438MOL0     C59013   1.575   0.745   7.377 -0.4758  0.6301  0.0845
  438MOL0     C59014   1.549   0.871   7.327  0.4127  0.3117 -0.0030
  438MOL0     C59015   1.426   0.958   7.351 -0.3012  1.0608 -0.6756
  438MOL0     C59016   1.313   0.929   7.250  0.4967  1.6288 -1.5563
  438MOL0     C59017   1.199   1.038   7.264 -0.0931  0.6406  0.6355
  438MOL0     C59018   1.098   1.019   7.151 -0.2225 -0.4229  0.0355
  438MOL0     O59019   1.032   0.896   7.161  0.2755  0.2196 -0.4055
  438MOL0     C59020   0.898   0.894   7.205  0.1997  0.7060  0.6400
  438MOL0     C59021   0.879   0.815   7.313 -0.1809  0.6736 -0.9018
  438MOL0     C59022   0.754   0.798   7.377 -0.1700 -0.2397 -0.1054
  438MOL0     C59023   0.744   0.707   7.495  0.5620  0.4014  0.2276
  438MOL0     C59024   0.641   0.852   7.306 -0.5614  0.4269  0.6062
  438MOL0     C59025   0.505   0.833   7.348  0.1806  0.4240 -0.2749
  438MOL0     O59026   0.419   0.837   7.238 -0.2912  0.4283  0.0299
  438MOL0     C59027   0.285   0.831   7.258 -0.4387 -0.0785  1.1309
  438MOL0     C59028   0.211   0.885   7.368  0.5248 -0.3338 -0.0831
  438MOL0     C59029   0.070   0.873   7.370 -0.6136  0.0901 -1.4319
  438MOL0     C59030  -0.000   0.836   7.261  0.0696 -0.6266  0.4158
  438MOL0     O59031  -0.132   0.834   7.276  0.5316  0.4058 -1.2063
  438MOL0     C59032  -0.221   0.827   7.169 -0.0997 -0.7952  0.3943
  438MOL0     C59033  -0.297   0.950   7.139 -0.2733  0.3513 -0.1616
  438MOL0     C59034  -0.362   0.998   7.274  0.7075 -0.4592  0.3140
  438MOL0     C59035  -0.509   0.971   7.295 -1.1022  0.1937 -0.5791
  438MOL0     C59036  -0.570   1.033   7.421 -0.2910 -0.4564 -0.1232
  438MOL0     C59037  -0.535   1.171   7.457  0.5779 -0.8878  0.0388
  438MOL0     C59038  -0.552   1.281   7.358 -0.2985 -0.0401 -0.5706
  438MOL0     C59039  -0.517   1.404   7.429  0.0134  0.4449 -0.2624
  438MOL0    Cl59040  -0.341   1.415   7.458  0.3388 -0.2238 -0.0188
  438MOL0     C59041   0.071   0.789   7.146 -0.2440 -0.6628  0.1024
  438MOL0     C59042   0.213   0.780   7.152  0.8627 -0.0378 -0.3763
  438MOL0     O59043   0.481   0.846   7.465 -0.3681  0.4283 -0.2977
  438MOL0     C59044   0.660   0.928   7.190  0.1824 -0.1262  0.1719
  438MOL0     C59045   0.792   0.943   7.137  0.1971 -0.5742  0.5725
  438MOL0     N59046   1.649   0.909   7.241 -0.8967 -0.0741  0.6315
  438MOL0     N59047   1.731   0.812   7.223 -0.4546  0.0989  0.4633
  438MOL0     C59048   2.859   0.653   7.523  0.3279  0.5583 -0.8300
  438MOL0     C59049   2.993   0.632   7.546  0.6292  1.1456  0.1742
  438MOL0     C59050   3.413   0.622   7.598  0.2288  0.5661 -0.2941
  438MOL0     C59051   3.484   0.568   7.707 -0.5882  0.3919  0.0959
  438MOL0     C59052   3.612   0.615   7.741 -0.0190  0.4233 -0.0093
  438MOL0     C59053   3.664   0.724   7.670  0.6814 -0.0489 -0.5511
  438MOL0     O59054   3.773   0.794   7.702 -0.5445  0.4022 -0.5070
  438MOL0     C59055   3.814   0.785   7.842  0.8675  0.5788 -0.4634
  438MOL0     C59056   3.897   0.901   7.885 -0.0524 -0.2706 -0.0763
  438MOL0     C59057   3.815   1.030   7.883 -0.6625 -0.8648  0.1562
  438MOL0     C59058   3.776   1.066   8.029 -0.1967  0.2503  0.0285
  438MOL0     C59059   3.887   1.140   8.091  0.0188  0.0274  0.3847
  438MOL0     C59060   3.974   1.192   8.146 -0.0176 -0.3529 -0.8733
  438MOL0     C59061   3.593   0.777   7.566  0.9908 -0.0384  0.6616
  438MOL0     C59062   3.469   0.726   7.528 -0.4699 -0.2244 -0.6546
  438MOL0     H59063   3.092   0.640   7.224 -1.0040  4.1369  0.2146
  438MOL0     H59064   2.859   0.666   7.181 -0.2795  2.8801 -0.0414
  438MOL0     H59065   2.620   0.483   7.449  0.8292  0.7282 -1.8691
  438MOL0     H59066   2.570   0.625   7.555  0.4719  2.3023 -0.2386
  438MOL0     H59067   2.446   0.686   7.349 -0.7678 -1.0017 -1.4463
  438MOL0     H59068   2.487   0.533   7.281 -0.5583  3.5408 -1.8383
  438MOL0     H59069   2.382   0.425   7.491  1.4363  0.3220  1.8693
  438MOL0     H59070   2.332   0.575   7.547  2.3222  0.1086 -0.4645
  438MOL0     H59071   2.188   0.604   7.344 -0.6096  0.3210  2.0321
  438MOL0     H59072   2.226   0.446   7.281  0.4898 -3.0239  1.1521
  438MOL0     H59073   2.124   0.345   7.479  0.7544  0.1684  1.1100
  438MOL0     H59074   2.087   0.500   7.548 -2.2592 -2.2408  0.0146
  438MOL0     H59075   1.972   0.419   7.273  0.8096  1.5656 -0.8255
  438MOL0     H59076   1.902   0.389   7.433 -1.8970  0.5531 -1.6071
  438MOL0     H59077   1.869   0.619   7.481 -0.8596 -2.1730  1.1733
  438MOL0     H59078   1.964   0.669   7.337 -1.8228  1.3743  0.5895
  438MOL0     H59079   1.709   0.514   7.365 -0.9105  3.0981  1.8028
  438MOL0     H59080   1.798   0.539   7.209  3.2369 -3.5474  1.1214
  438MOL0     H59081   1.512   0.683   7.441 -0.0543 -1.5605 -1.4983
  438MOL0     H59082   1.405   0.938   7.457  1.3216  0.2199 -0.4767
  438MOL0     H59083   1.459   1.062   7.348  2.7716  0.2272  0.3111
  438MOL0     H59084   1.266   0.831   7.269  0.2237  2.1027  0.4528
  438MOL0     H59085   1.340   0.925   7.144  0.7683  1.2549 -1.4759
  438MOL0     H59086   1.246   1.136   7.262  1.9044 -0.1735  3.0222
  438MOL0     H59087   1.136   1.023   7.352 -2.8024 -3.0512 -1.5943
  438MOL0     H59088   1.148   1.031   7.055  0.7625 -0.2955  0.5465
  438MOL0     H59089   1.027   1.102   7.156  0.5537  0.2646 -0.1387
  438MOL0     H59090   0.967   0.772   7.360 -0.4854  3.1989  2.2986
  438MOL0     H59091   0.713   0.764   7.582  0.9046 -2.5911  2.4614
  438MOL0     H59092   0.674   0.625   7.477 -0.3529  0.9729  1.1100
  438MOL0     H59093   0.838   0.652   7.503 -0.6879 -1.6016  2.3438
  438MOL0     H59094   0.263   0.934   7.450  0.8619 -1.3435  0.3221
  438MOL0     H59095   0.016   0.901   7.460 -0.7845  0.7217 -1.7199
  438MOL0     H59096  -0.186   0.771   7.082 -0.6525 -1.2264  0.4405
  438MOL0     H59097  -0.293   0.756   7.210  1.0511 -1.6347  1.0014
  438MOL0     H59098  -0.220   1.020   7.106 -2.4382  3.0761  0.2045
  438MOL0     H59099  -0.382   0.938   7.071 -1.2125  1.8556  0.6829
  438MOL0     H59100  -0.357   1.108   7.274  0.3805 -0.4434  0.5776
  438MOL0     H59101  -0.311   0.964   7.365 -3.0927  1.6458  3.5724
  438MOL0     H59102  -0.564   1.020   7.214 -2.2784  0.7668  0.5376
  438MOL0     H59103  -0.528   0.863   7.287  1.2856 -0.4162  0.9374
  438MOL0     H59104  -0.531   0.980   7.508 -0.8508  1.3089  1.2619
  438MOL0     H59105  -0.679   1.019   7.427 -0.0890 -1.3807  2.5793
  438MOL0     H59106  -0.606   1.192   7.537 -1.7292  0.0749 -2.1371
  438MOL0     H59107  -0.431   1.165   7.492  0.2775  0.2172  1.2342
  438MOL0     H59108  -0.657   1.287   7.328 -1.4998 -0.1692  3.1134
  438MOL0     H59109  -0.491   1.263   7.269  0.1460 -1.8274  0.0507
  438MOL0     H59110  -0.575   1.408   7.522  0.2350 -2.0943  0.0442
  438MOL0     H59111  -0.555   1.491   7.375 -2.4179 -0.3208  0.1038
  438MOL0     H59112   0.023   0.746   7.059 -2.3460  1.8607 -0.1168
  438MOL0     H59113   0.266   0.732   7.070  3.5273  1.7114  0.1753
  438MOL0     H59114   0.575   0.979   7.146  0.3683  0.8916  0.9707
  438MOL0     H59115   0.807   0.986   7.038 -2.0633 -2.0037 -0.4543
  438MOL0     H59116   2.798   0.657   7.613 -0.5770 -1.0754 -1.3199
  438MOL0     H59117   3.030   0.629   7.648 -1.3413  0.6658  0.9151
  438MOL0     H59118   3.445   0.480   7.759  0.3343  0.1810  0.4577
  438MOL0     H59119   3.646   0.583   7.839  1.5572  1.5037 -0.1754
  438MOL0     H59120   3.722   0.776   7.900  0.8205 -0.2402 -0.6525
  438MOL0     H59121   3.878   0.697   7.854  1.6754  0.9259 -1.9128
  438MOL0     H59122   3.983   0.905   7.817  0.8549 -3.9442  0.6245
  438MOL0     H59123   3.938   0.886   7.985  1.1712 -1.1813 -0.6871
  438MOL0     H59124   3.724   1.020   7.823 -1.1471  0.3150  0.6668
  438MOL0     H59125   3.876   1.109   7.839  0.0900  0.8959  3.9994
  438MOL0     H59126   3.742   0.986   8.095 -2.5771  0.3260 -0.9781
  438MOL0     H59127   3.689   1.132   8.019  0.5188  1.1128 -0.6815
  438MOL0     H59128   4.053   1.247   8.193 -1.1774  3.1480 -2.6224
  438MOL0     H59129   3.636   0.863   7.515 -0.3529  0.1900 -0.1351
  438MOL0     H59130   3.415   0.779   7.450  0.6215  2.6422  0.4111
  439MOL0     O59131   4.312   6.030   4.710  0.2296  0.8927  0.2453
  439MOL0     C59132   4.408   6.029   4.792  0.0137  0.2119  0.3514
  439MOL0     O59133   4.400   5.969   4.912 -0.0849 -1.0185  0.6801
  439MOL0     C59134   4.286   5.906   4.942  0.3946  0.6246 -0.3020
  439MOL0     C59135   4.289   5.763   4.951 -0.0441  0.8807  0.6361
  439MOL0     C59136   4.185   5.688   5.009  0.3029  0.9026  0.0885
  439MOL0     C59137   4.073   5.760   5.053  0.7078 -0.2974  0.5720
  439MOL0     O59138   3.957   5.689   5.071  0.4587  0.1863  0.2195
  439MOL0     C59139   3.966   5.558   5.129  0.4672 -0.2191 -0.1616
  439MOL0     C59140   3.820   5.508   5.163 -0.2068  0.6816  0.6203
  439MOL0     C59141   3.732   5.616   5.216  0.1819  0.9016  1.1388
  439MOL0     C59142   3.592   5.578   5.275 -0.4111  0.7509  0.7027
  439MOL0     C59143   3.507   5.668   5.364 -0.0884  0.6357 -0.2032
  439MOL0     C59144   3.363   5.618   5.373  0.9174  0.8511 -0.0722
  439MOL0     C59145   3.269   5.661   5.253 -0.2058  0.2448  0.6233
  439MOL0     C59146   3.213   5.803   5.277  0.5004  0.2414  0.6461
  439MOL0     N59147   3.098   5.828   5.182  0.3468  0.0092  0.6996
  439MOL0     C59148   3.110   5.872   5.051 -0.0124 -0.8362  0.1588
  439MOL0     C59149   2.987   5.854   4.998 -0.7111 -0.4154 -0.2337
  439MOL0     C59150   2.926   5.881   4.860  0.2128  0.6100 -0.9451
  439MOL0     C59151   2.863   5.750   4.808  1.6136 -0.1925 -0.2649
  439MOL0     C59152   2.784   5.772   4.675  0.4134 -0.0097  0.2091
  439MOL0     C59153   2.702   5.640   4.638  0.8411  1.1255  0.0742
  439MOL0     O59154   2.599   5.656   4.544 -0.5449  0.0153  0.5828
  439MOL0     C59155   2.468   5.630   4.578  0.0551 -0.4469  0.9687
  439MOL0     C59156   2.367   5.692   4.500 -0.6146  0.2197  0.0713
  439MOL0     C59157   2.233   5.680   4.524  0.8645  0.5026 -0.1764
  439MOL0     C59158   2.136   5.779   4.456 -0.9502 -0.0773  0.0451
  439MOL0     C59159   2.188   5.585   4.615  0.0162  0.2396  0.8311
  439MOL0     C59160   2.047   5.557   4.643  0.1667 -0.4197  0.2881
  439MOL0     O59161   1.997   5.638   4.740 -0.0640  0.0271  0.4398
  439MOL0     C59162   1.862   5.630   4.753  0.1450  0.0534 -0.7569
  439MOL0     C59163   1.812   5.537   4.843 -0.1589 -1.0173  0.4812
  439MOL0     C59164   1.674   5.522   4.867  0.6695  0.1747  0.1747
  439MOL0     C59165   1.587   5.614   4.811 -1.0292  0.6828  0.4220
  439MOL0     O59166   1.459   5.625   4.858  0.3175  0.5370  0.4702
  439MOL0     C59167   1.354   5.644   4.766 -0.1208 -0.0017 -0.3476
  439MOL0     C59168   1.217   5.623   4.824  0.6141  0.0336  0.0536
  439MOL0     C59169   1.115   5.646   4.714  1.3540  0.9774  0.4480
  439MOL0     C59170   0.975   5.656   4.775 -0.5768 -0.0428 -0.0112
  439MOL0     C59171   0.876   5.624   4.662  0.0047  0.0495 -0.6182
  439MOL0     C59172   0.870   5.755   4.570 -0.7581  0.0808  0.1224
  439MOL0     C59173   0.787   5.764   4.439  0.7563  0.5519 -0.3331
  439MOL0     C59174   0.850   5.844   4.325  0.2555  0.5522  0.4587
  439MOL0    Cl59175   0.982   5.744   4.251 -0.0920  0.0061  0.1545
  439MOL0     C59176   1.639   5.716   4.737 -0.5904  0.4542 -0.0427
  439MOL0     C59177   1.773   5.724   4.693  0.8241  0.0744  0.3393
  439MOL0     O59178   1.984   5.468   4.581  0.0386 -0.4538 -0.5846
  439MOL0     C59179   2.284   5.511   4.682  0.1038  0.3681 -0.1319
  439MOL0     C59180   2.420   5.536   4.670 -0.3700  0.0937 -0.2704
  439MOL0     N59181   2.905   5.800   5.094  0.0942  0.3224  0.5015
  439MOL0     N59182   2.972   5.782   5.201  0.3780  0.0396 -0.4048
  439MOL0     C59183   4.072   5.901   5.049  0.3202  0.2445  0.7993
  439MOL0     C59184   4.178   5.973   4.992 -0.9484 -0.0958  0.0203
  439MOL0     C59185   4.536   6.089   4.760  1.0742 -0.9377  0.2690
  439MOL0     C59186   4.557   6.156   4.644  0.1508  0.5474  0.9889
  439MOL0     C59187   4.684   6.218   4.614  0.5360  0.5979 -0.5654
  439MOL0     C59188   4.789   6.212   4.712 -0.3883  0.0426  1.2550
  439MOL0     O59189   4.902   6.280   4.691 -0.2566  0.0589 -0.1147
  439MOL0     C59190   5.022   6.232   4.756 -0.7595 -0.9400 -0.3692
  439MOL0     C59191   5.148   6.269   4.670 -0.4574 -0.4283  0.5629
  439MOL0     C59192   5.169   6.419   4.648  0.5795 -0.5016 -0.4700
  439MOL0     C59193   5.285   6.454   4.559 -0.0369  0.1347 -0.2393
  439MOL0     C59194   5.419   6.416   4.621  0.7878 -0.2029 -0.1121
  439MOL0     C59195   5.524   6.381   4.669  0.2562  0.5249 -0.0672
  439MOL0     C59196   4.767   6.141   4.828  0.0121  0.2370  0.3004
  439MOL0     C59197   4.645   6.084   4.856  0.5845 -1.1589  1.3986
  439MOL0     H59198   4.367   5.714   4.893  1.7696  2.9160  1.2341
  439MOL0     H59199   4.186   5.580   4.997 -2.3485  0.8766 -0.4475
  439MOL0     H59200   4.007   5.488   5.055  2.3357  2.5890 -2.0181
  439MOL0     H59201   4.029   5.566   5.218  1.9594  1.2250 -1.2586
  439MOL0     H59202   3.763   5.470   5.077  0.4798 -0.2639  0.5716
  439MOL0     H59203   3.830   5.418   5.224  0.9127 -1.2665 -2.2130
  439MOL0     H59204   3.789   5.668   5.293 -0.6674  1.0989  1.6557
  439MOL0     H59205   3.714   5.690   5.136 -2.4157 -2.3752 -1.6472
  439MOL0     H59206   3.535   5.575   5.181  0.6817  3.4856 -0.1411
  439MOL0     H59207   3.583   5.478   5.318  0.8314  2.4474  5.5168
  439MOL0     H59208   3.555   5.673   5.461 -1.2133  0.9375  0.3585
  439MOL0     H59209   3.501   5.767   5.316 -2.3131  0.2390 -0.8825
  439MOL0     H59210   3.357   5.509   5.377 -1.1585  0.9677  1.5838
  439MOL0     H59211   3.309   5.659   5.459 -0.7055 -1.2589  0.0041
  439MOL0     H59212   3.325   5.648   5.160 -1.3844  4.0244 -0.7847
  439MOL0     H59213   3.187   5.589   5.246 -0.5213  0.5112  1.4393
  439MOL0     H59214   3.293   5.876   5.289  0.9804 -0.3452  1.0692
  439MOL0     H59215   3.160   5.809   5.373  0.9066  1.3054  0.8079
  439MOL0     H59216   3.194   5.909   4.994 -0.9183 -0.2908 -0.8566
  439MOL0     H59217   2.845   5.953   4.875  0.2307  0.6735 -1.1542
  439MOL0     H59218   2.997   5.926   4.790 -0.7523  0.6409 -1.9214
  439MOL0     H59219   2.796   5.703   4.880  0.9392  0.2252 -0.6116
  439MOL0     H59220   2.946   5.681   4.792  0.8843 -1.4112  0.9724
  439MOL0     H59221   2.859   5.784   4.597 -0.0129  0.4410 -0.1330
  439MOL0     H59222   2.714   5.856   4.675 -0.2070 -0.5144  0.3980
  439MOL0     H59223   2.653   5.598   4.726 -0.7549 -1.6844 -2.0005
  439MOL0     H59224   2.775   5.568   4.600 -1.3305 -1.0956 -0.1385
  439MOL0     H59225   2.410   5.755   4.422  1.9146 -1.8446 -0.3584
  439MOL0     H59226   2.167   5.789   4.351  1.5385  1.3484  0.8288
  439MOL0     H59227   2.035   5.739   4.446 -0.6405 -1.3823  1.5783
  439MOL0     H59228   2.135   5.878   4.501 -1.0694  0.0770 -0.2981
  439MOL0     H59229   1.875   5.460   4.886  1.7894 -1.9130 -3.4920
  439MOL0     H59230   1.637   5.446   4.935 -2.1033 -0.0897 -1.4761
  439MOL0     H59231   1.360   5.744   4.722 -2.2648 -0.1195 -1.0258
  439MOL0     H59232   1.368   5.576   4.681  2.8817  0.8162 -0.6240
  439MOL0     H59233   1.211   5.521   4.865 -1.3417 -0.2077 -0.7300
  439MOL0     H59234   1.202   5.703   4.897  1.2665  0.1401  0.0715
  439MOL0     H59235   1.123   5.565   4.641  0.2623  1.7752 -0.5992
  439MOL0     H59236   1.133   5.741   4.664 -1.3648  1.7631  0.7761
  439MOL0     H59237   0.966   5.593   4.864 -0.2077  0.6485  0.5187
  439MOL0     H59238   0.958   5.760   4.803  1.1128  0.1918  0.2622
  439MOL0     H59239   0.774   5.594   4.687  0.5782 -2.7128 -1.2773
  439MOL0     H59240   0.919   5.544   4.601  3.0005  0.4464  0.7925
  439MOL0     H59241   0.834   5.845   4.621 -0.5155  1.1290 -1.4892
  439MOL0     H59242   0.971   5.777   4.535 -0.6637 -1.2963 -0.5162
  439MOL0     H59243   0.688   5.802   4.465  0.0799 -0.7593 -0.8854
  439MOL0     H59244   0.768   5.662   4.404  3.3980 -0.5465  1.1108
  439MOL0     H59245   0.889   5.937   4.369 -0.6774  0.2727  1.9353
  439MOL0     H59246   0.783   5.867   4.242  1.5041  1.6836 -0.2773
  439MOL0     H59247   1.575   5.795   4.700 -0.9666  0.4923  0.6606
  439MOL0     H59248   1.789   5.801   4.617 -1.1306  0.1576 -0.0461
  439MOL0     H59249   2.244   5.426   4.737 -1.6770  1.1468 -0.1387
  439MOL0     H59250   2.487   5.479   4.733 -0.5507  1.2658  1.0208
  439MOL0     H59251   3.981   5.943   5.090 -0.2945  0.1502 -0.4267
  439MOL0     H59252   4.189   6.080   4.982  0.7184 -0.2574 -0.0673
  439MOL0     H59253   4.476   6.168   4.573  1.1063  0.7740 -0.0878
  439MOL0     H59254   4.702   6.265   4.518  1.0902  0.8283 -0.3520
  439MOL0     H59255   5.027   6.278   4.855 -1.2801 -3.0488  0.6774
  439MOL0     H59256   5.026   6.123   4.763  0.5562 -0.8511  0.7267
  439MOL0     H59257   5.143   6.224   4.571  0.5105 -0.0385  0.3300
  439MOL0     H59258   5.242   6.244   4.721  0.0355  1.6632  0.7538
  439MOL0     H59259   5.181   6.472   4.743  1.6429  1.4228 -1.6312
  439MOL0     H59260   5.074   6.449   4.605 -0.0191 -0.9639  0.4994
  439MOL0     H59261   5.283   6.562   4.541  1.1454  0.5845  1.9501
  439MOL0     H59262   5.268   6.406   4.462  0.4978 -0.4685 -0.0439
  439MOL0     H59263   5.602   6.353   4.736 -0.6218 -2.3990 -0.1082
  439MOL0     H59264   4.849   6.130   4.898  0.0444 -0.2037  0.2002
  439MOL0     H59265   4.634   6.048   4.958 -1.3047  1.7915  2.3493
  440MOL0     O59266   7.652   7.405   6.302 -0.1656  0.9521 -0.0575
  440MOL0     C59267   7.719   7.488   6.238  0.3186 -0.7647  0.6837
  440MOL0     O59268   7.693   7.529   6.105  0.3624 -0.2809  0.0766
  440MOL0     C59269   7.588   7.463   6.041 -0.1387 -0.1838 -0.2567
  440MOL0     C59270   7.453   7.512   6.051 -0.2968 -0.4423 -0.5044
  440MOL0     C59271   7.362   7.474   5.956  0.2476 -0.1763 -0.4316
  440MOL0     C59272   7.391   7.384   5.851 -0.3187  0.8518 -0.4810
  440MOL0     O59273   7.303   7.337   5.766  0.3397  0.5884  0.5790
  440MOL0     C59274   7.211   7.431   5.701 -0.1299  0.4148  0.9656
  440MOL0     C59275   7.080   7.383   5.634 -0.6251  0.1924 -1.0092
  440MOL0     C59276   7.101   7.275   5.525  0.1996  0.2847 -0.3246
  440MOL0     C59277   6.959   7.276   5.457 -0.0606  0.1599 -0.2674
  440MOL0     C59278   6.927   7.148   5.379 -0.0522  0.5893 -0.1613
  440MOL0     C59279   6.790   7.166   5.312  0.7143  0.0467  1.0119
  440MOL0     C59280   6.757   7.036   5.233  1.9821  0.2984  0.5457
  440MOL0     C59281   6.616   7.029   5.175 -0.1830 -0.2749  0.1278
  440MOL0     N59282   6.517   7.052   5.289  0.3838  0.1574 -0.1849
  440MOL0     C59283   6.443   7.169   5.310 -0.0859 -0.3122  0.0421
  440MOL0     C59284   6.363   7.133   5.410 -0.2737 -0.5251 -0.1462
  440MOL0     C59285   6.263   7.218   5.480 -0.7135  0.4611  0.3445
  440MOL0     C59286   6.141   7.264   5.404  0.2570 -1.1150  0.7945
  440MOL0     C59287   6.046   7.139   5.371 -0.1861 -0.1334  0.4533
  440MOL0     C59288   5.920   7.142   5.464  0.0689 -0.2231  0.4121
  440MOL0     O59289   5.810   7.069   5.393  0.1094  0.6696 -0.4684
  440MOL0     C59290   5.690   7.063   5.455  0.0274 -0.3408  0.2951
  440MOL0     C59291   5.573   7.102   5.389  0.8757 -0.1807  0.6582
  440MOL0     C59292   5.438   7.090   5.439  0.1659  0.5522  0.4801
  440MOL0     C59293   5.325   7.107   5.346 -0.2095 -0.6194  0.1158
  440MOL0     C59294   5.428   7.061   5.574  0.2031  0.7185 -0.3160
  440MOL0     C59295   5.306   7.053   5.649  0.6915  0.0763 -0.9083
  440MOL0     O59296   5.302   6.979   5.765 -1.0912  0.0371 -0.3257
  440MOL0     C59297   5.178   6.954   5.820  0.3414  0.4537  0.1976
  440MOL0     C59298   5.089   6.859   5.771 -0.4538 -0.1037  0.1466
  440MOL0     C59299   4.964   6.840   5.831  0.2884  0.9420  0.4584
  440MOL0     C59300   4.922   6.922   5.930  0.1299 -0.0104  0.1252
  440MOL0     O59301   4.791   6.916   5.980 -0.1253  0.3595 -0.0761
  440MOL0     C59302   4.725   7.042   5.997 -0.0849 -0.3085 -0.7852
  440MOL0     C59303   4.576   7.021   5.989  0.5078 -0.8446 -0.0259
  440MOL0     C59304   4.493   7.148   5.952 -0.3077  0.1196 -0.3583
  440MOL0     C59305   4.336   7.138   5.964 -0.5065  0.1192  0.2440
  440MOL0     C59306   4.294   7.108   6.104  0.3282 -0.3068  0.2277
  440MOL0     C59307   4.139   7.139   6.107  0.3742  0.3412 -1.0503
  440MOL0     C59308   4.056   7.033   6.022  0.1277 -0.0995  0.1000
  440MOL0     C59309   3.917   7.072   6.012 -0.5304 -0.1942 -1.0676
  440MOL0    Cl59310   3.897   7.229   5.931 -0.1747 -0.1625  0.3245
  440MOL0     C59311   5.007   7.015   5.983 -0.1682  0.4088  0.1126
  440MOL0     C59312   5.141   7.028   5.930 -0.2001  0.5821 -0.7527
  440MOL0     O59313   5.209   7.119   5.614 -0.0191  0.0721  1.0232
  440MOL0     C59314   5.543   7.025   5.649 -0.0183  0.1692  0.3395
  440MOL0     C59315   5.668   7.030   5.594 -0.5774 -0.1122  1.1458
  440MOL0     N59316   6.391   6.999   5.450  0.6362 -0.4102  0.2226
  440MOL0     N59317   6.483   6.952   5.379  0.1685  0.0022  0.6031
  440MOL0     C59318   7.522   7.333   5.840 -0.3939  0.2127 -1.0634
  440MOL0     C59319   7.618   7.378   5.927 -0.1041 -0.0091 -0.2203
  440MOL0     C59320   7.843   7.547   6.298  0.3985 -0.4718  0.4746
  440MOL0     C59321   7.870   7.544   6.430  0.4875  0.2387 -0.0634
  440MOL0     C59322   7.989   7.595   6.488  0.4119  0.6953 -0.4902
  440MOL0     C59323   8.085   7.642   6.400  0.0294 -0.9490 -0.0383
  440MOL0     O59324   8.209   7.701   6.436  0.3413  0.0795  0.6732
  440MOL0     C59325   8.254   7.660   6.570 -0.0661  0.2689 -0.1850
  440MOL0     C59326   8.377   7.738   6.616  0.4640 -0.0698  0.8468
  440MOL0     C59327   8.360   7.893   6.588 -0.0944 -0.4513 -0.4423
  440MOL0     C59328   8.479   7.976   6.656  0.0161  0.2184 -1.0326
  440MOL0     C59329   8.455   7.952   6.802  0.0301  0.3852 -0.0434
  440MOL0     C59330   8.439   7.932   6.923  0.2423 -0.4548  0.6238
  440MOL0     C59331   8.049   7.662   6.265  0.1782 -0.8196  0.1426
  440MOL0     C59332   7.937   7.606   6.206  0.0593  0.6591  0.0115
  440MOL0     H59333   7.433   7.593   6.121 -1.6188 -1.4547  0.3474
  440MOL0     H59334   7.265   7.523   5.954 -0.8721 -2.2468  0.0979
  440MOL0     H59335   7.179   7.512   5.768  1.9197  3.7765 -1.7854
  440MOL0     H59336   7.275   7.485   5.630  0.9020 -2.9150 -0.8747
  440MOL0     H59337   7.024   7.339   5.717 -0.4484  0.1602 -0.9065
  440MOL0     H59338   7.024   7.469   5.593  0.1741  1.1531 -0.1415
  440MOL0     H59339   7.181   7.302   5.455  1.7072  0.5152  1.4083
  440MOL0     H59340   7.119   7.174   5.563 -1.9630  0.0104  0.0943
  440MOL0     H59341   6.885   7.285   5.537  1.8969  0.4895  1.5986
  440MOL0     H59342   6.939   7.362   5.393 -4.7404 -0.8396 -0.4710
  440MOL0     H59343   7.006   7.130   5.306  0.1464  0.5407  0.0642
  440MOL0     H59344   6.925   7.064   5.450  0.5162  0.7743  0.0822
  440MOL0     H59345   6.705   7.175   5.379  0.1560 -4.2355  1.1533
  440MOL0     H59346   6.798   7.254   5.247  1.0533 -1.2887 -0.8621
  440MOL0     H59347   6.821   7.032   5.145 -0.4679  2.5813 -1.5090
  440MOL0     H59348   6.774   6.954   5.304  1.8067 -0.1611  0.0639
  440MOL0     H59349   6.598   6.931   5.130 -3.0521  0.5281 -0.6772
  440MOL0     H59350   6.602   7.102   5.094 -1.6666 -2.0310 -1.3014
  440MOL0     H59351   6.454   7.268   5.267  2.0873 -1.3930 -2.1094
  440MOL0     H59352   6.229   7.164   5.569 -0.8875 -0.9994 -0.5853
  440MOL0     H59353   6.316   7.310   5.509 -0.1605  0.1331  0.3953
  440MOL0     H59354   6.182   7.325   5.323  3.1652 -1.9687  1.4932
  440MOL0     H59355   6.085   7.332   5.469 -1.1264  0.6380 -2.0611
  440MOL0     H59356   6.087   7.037   5.370 -0.7063 -0.3422  0.2575
  440MOL0     H59357   6.015   7.142   5.266  2.3476  3.5724 -0.3686
  440MOL0     H59358   5.881   7.244   5.476  2.2375  1.0154 -2.1363
  440MOL0     H59359   5.958   7.093   5.554  1.8376 -0.0135 -0.1851
  440MOL0     H59360   5.585   7.136   5.287  3.1699 -1.1732  0.5191
  440MOL0     H59361   5.242   7.042   5.374 -1.8832  1.0851 -0.6433
  440MOL0     H59362   5.281   7.207   5.353  4.1977  1.7565 -1.9454
  440MOL0     H59363   5.349   7.079   5.243 -1.3645 -0.8522 -0.1033
  440MOL0     H59364   5.113   6.799   5.684 -2.4935 -0.4832 -0.2003
  440MOL0     H59365   4.885   6.768   5.811  1.5693 -0.0587 -1.3067
  440MOL0     H59366   4.751   7.093   6.090  3.4279  3.2029 -3.3731
  440MOL0     H59367   4.761   7.107   5.917  1.6292 -0.2896 -0.0251
  440MOL0     H59368   4.558   6.934   5.927  1.9074 -2.6222  1.9108
  440MOL0     H59369   4.544   6.993   6.090 -0.5195 -1.8736 -0.6226
  440MOL0     H59370   4.507   7.179   5.848 -4.3976 -0.9461 -1.4206
  440MOL0     H59371   4.525   7.228   6.019  2.6879 -1.2353  0.0287
  440MOL0     H59372   4.289   7.228   5.923  0.2612  0.1336 -0.6481
  440MOL0     H59373   4.307   7.055   5.899  0.5501  0.9699 -1.4128
  440MOL0     H59374   4.339   7.176   6.177  0.7196 -0.2634 -0.0542
  440MOL0     H59375   4.319   7.004   6.125 -1.1036 -0.8658 -0.7229
  440MOL0     H59376   4.093   7.120   6.205 -2.2199 -0.4314 -2.3190
  440MOL0     H59377   4.117   7.240   6.069 -1.0478 -0.4343 -2.3804
  440MOL0     H59378   4.065   6.933   6.065  1.1006 -0.6283 -1.2583
  440MOL0     H59379   4.093   7.027   5.919 -2.6915 -2.4681 -0.9194
  440MOL0     H59380   3.875   7.074   6.113  3.3673  3.1323  0.7809
  440MOL0     H59381   3.859   7.000   5.953 -1.6560  0.4899 -0.8289
  440MOL0     H59382   4.966   7.083   6.056  1.0911 -0.9316  2.1650
  440MOL0     H59383   5.206   7.107   5.968  0.1794 -0.1176  0.0822
  440MOL0     H59384   5.538   6.986   5.750  1.9264 -2.4156 -0.4637
  440MOL0     H59385   5.755   7.009   5.656  0.7246  1.3142 -0.1011
  440MOL0     H59386   7.556   7.284   5.749  1.3214  2.7118 -1.8792
  440MOL0     H59387   7.722   7.351   5.906 -0.8665 -1.7641 -2.1933
  440MOL0     H59388   7.795   7.491   6.488  0.7757  0.8398  0.8631
  440MOL0     H59389   7.979   7.585   6.596 -4.6860 -1.8901 -0.8902
  440MOL0     H59390   8.178   7.658   6.649 -1.9215 -3.1599 -1.8427
  440MOL0     H59391   8.285   7.556   6.569 -1.0276 -0.0557  1.3497
  440MOL0     H59392   8.455   7.713   6.542 -2.3811 -1.1937 -2.0100
  440MOL0     H59393   8.417   7.703   6.712 -1.4043 -1.5274  1.1618
  440MOL0     H59394   8.271   7.934   6.638  1.3936  1.7549  0.5516
  440MOL0     H59395   8.349   7.910   6.480  1.3748  2.5289 -0.2193
  440MOL0     H59396   8.474   8.080   6.625 -1.0576  0.5536  0.1802
  440MOL0     H59397   8.575   7.930   6.629 -0.2167 -1.6704  1.0584
  440MOL0     H59398   8.449   7.911   7.028 -0.9449 -0.5499  0.7304
  440MOL0     H59399   8.116   7.708   6.193  0.0101 -1.3016 -0.3217
  440MOL0     H59400   7.906   7.622   6.103 -0.2160 -0.6815 -0.1271
  441MOL0     O59401  10.836   5.060   7.322 -0.1733  0.8107 -0.4425
  441MOL0     C59402  10.900   5.007   7.404 -0.5962  0.5113 -0.0128
  441MOL0     O59403  10.874   5.012   7.538 -1.1198  1.0977  0.3718
  441MOL0     C59404  10.759   5.078   7.572  0.0672  0.4986  0.1192
  441MOL0     C59405  10.641   5.009   7.577 -0.1053 -0.0132 -1.0117
  441MOL0     C59406  10.522   5.065   7.607 -0.0308  0.4247  0.0419
  441MOL0     C59407  10.521   5.204   7.638  0.7931  0.2931  0.7214
  441MOL0     O59408  10.404   5.277   7.666  0.7115 -0.4366 -0.0850
  441MOL0     C59409  10.296   5.196   7.730 -0.6503 -0.7356 -0.1326
  441MOL0     C59410  10.173   5.167   7.647  0.0521 -0.0068 -0.7016
  441MOL0     C59411  10.076   5.113   7.744  0.4236  1.0963 -0.0941
  441MOL0     C59412   9.941   5.085   7.675 -0.5006 -0.6394 -0.1015
  441MOL0     C59413   9.813   5.086   7.767 -0.7276  0.2994  0.2368
  441MOL0     C59414   9.815   4.981   7.883 -0.4342 -0.9164 -0.1411
  441MOL0     C59415   9.712   5.013   7.989  0.3759 -0.4022  0.2870
  441MOL0     C59416   9.692   4.898   8.091 -0.2055  1.2907  0.3310
  441MOL0     N59417   9.571   4.925   8.172 -0.2168 -0.8723 -0.0679
  441MOL0     C59418   9.451   4.866   8.149  0.2836 -0.1770  0.5493
  441MOL0     C59419   9.352   4.938   8.202 -1.1719 -0.1655 -0.0512
  441MOL0     C59420   9.207   4.907   8.177 -0.0997  0.0729 -0.9048
  441MOL0     C59421   9.150   5.007   8.081  0.2067  0.3569 -0.7177
  441MOL0     C59422   9.106   5.135   8.158 -0.2513  0.0682 -0.1776
  441MOL0     C59423   9.088   5.252   8.070 -0.0927  0.0355  0.1675
  441MOL0     O59424   8.971   5.239   7.997 -0.0460  0.0417  0.4430
  441MOL0     C59425   8.862   5.301   8.049  0.6965 -0.0087 -0.5671
  441MOL0     C59426   8.756   5.227   8.105 -0.3156 -0.4369  0.1205
  441MOL0     C59427   8.651   5.293   8.167  0.0802  0.7444  1.0017
  441MOL0     C59428   8.552   5.204   8.234 -0.3756  0.0263  0.5233
  441MOL0     C59429   8.625   5.430   8.151  0.1501 -0.1333 -0.5406
  441MOL0     C59430   8.512   5.508   8.214 -0.2420 -0.6359 -0.1463
  441MOL0     O59431   8.395   5.447   8.244 -0.3838 -0.7441  0.1611
  441MOL0     C59432   8.285   5.509   8.284  0.0888 -0.4841 -0.1567
  441MOL0     C59433   8.254   5.645   8.251 -0.2139 -0.8252  0.0606
  441MOL0     C59434   8.132   5.703   8.284  0.0429 -0.2733  0.1866
  441MOL0     C59435   8.048   5.626   8.366 -0.1099 -0.4388  0.4133
  441MOL0     O59436   7.936   5.683   8.408  0.0961  0.0063  0.1433
  441MOL0     C59437   7.901   5.660   8.544 -0.1364  0.2507 -0.1829
  441MOL0     C59438   7.848   5.801   8.597 -0.5455 -0.3525 -1.1099
  441MOL0     C59439   7.796   5.774   8.744 -0.1559 -0.2196  1.5379
  441MOL0     C59440   7.816   5.903   8.829  0.6108  0.1220 -0.9131
  441MOL0     C59441   7.754   5.876   8.969 -0.1257 -0.1107 -0.3801
  441MOL0     C59442   7.702   5.991   9.053 -0.0194  0.6930  0.3975
  441MOL0     C59443   7.585   6.069   8.991  0.2965  1.0827  0.0732
  441MOL0     C59444   7.460   5.986   8.964  0.1826  0.4517  0.0488
  441MOL0    Cl59445   7.401   5.873   9.086 -0.0383  0.1898 -0.1684
  441MOL0     C59446   8.064   5.488   8.373  0.2700  0.9355 -0.3653
  441MOL0     C59447   8.186   5.427   8.336  0.2261  0.0367  0.7330
  441MOL0     O59448   8.538   5.625   8.249 -0.0304  0.6629  0.1609
  441MOL0     C59449   8.732   5.507   8.090 -0.0985  0.6342  0.0831
  441MOL0     C59450   8.847   5.442   8.046 -0.1612 -0.6580 -0.8015
  441MOL0     N59451   9.416   5.038   8.279  0.2533  0.5248 -0.5491
  441MOL0     N59452   9.545   5.035   8.257 -0.6781  0.4054  0.0174
  441MOL0     C59453  10.644   5.270   7.647 -0.4502 -0.1531 -0.5215
  441MOL0     C59454  10.764   5.211   7.607  0.0360 -0.0157  0.2941
  441MOL0     C59455  11.018   4.927   7.374 -0.4553  0.8436  0.7550
  441MOL0     C59456  11.057   4.899   7.241 -0.8619 -0.2267  0.2812
  441MOL0     C59457  11.178   4.839   7.206  0.5756  0.8705  0.4325
  441MOL0     C59458  11.262   4.791   7.302 -0.0593  1.0910 -0.3805
  441MOL0     O59459  11.388   4.728   7.269  0.0751 -0.6813 -0.0797
  441MOL0     C59460  11.478   4.685   7.373 -0.0235  0.2822  0.2463
  441MOL0     C59461  11.603   4.614   7.325 -0.1459 -0.2257  0.5270
  441MOL0     C59462  11.732   4.697   7.343 -0.1709  0.3941 -1.2825
  441MOL0     C59463  11.855   4.607   7.310  0.4657  0.0473  0.6703
  441MOL0     C59464  11.981   4.689   7.292  0.6742 -0.5179  0.0061
  441MOL0     C59465  12.082   4.761   7.275 -0.3522  0.3022 -0.0942
  441MOL0     C59466  11.231   4.821   7.442 -0.1260 -0.4800 -0.0244
  441MOL0     C59467  11.111   4.888   7.477  0.1941  0.3055  0.0917
  441MOL0     H59468  10.644   4.905   7.546 -0.0970 -0.3194 -0.0301
  441MOL0     H59469  10.430   5.008   7.595 -0.6366  1.4872 -0.5163
  441MOL0     H59470  10.331   5.104   7.777  3.0561  0.8378  0.5736
  441MOL0     H59471  10.263   5.260   7.813  2.3353 -1.1241  1.5137
  441MOL0     H59472  10.142   5.265   7.609  2.1749  2.4093  3.1057
  441MOL0     H59473  10.210   5.090   7.579  0.5392 -1.3032  0.9521
  441MOL0     H59474  10.118   5.024   7.791 -1.4595  2.4195  4.6936
  441MOL0     H59475  10.057   5.178   7.830 -2.7008 -1.2722  1.1984
  441MOL0     H59476   9.932   5.161   7.596  3.5037 -1.7398 -1.9056
  441MOL0     H59477   9.948   4.991   7.619 -1.9756 -0.4225 -0.6886
  441MOL0     H59478   9.820   5.182   7.819  1.9498 -0.3183  1.2239
  441MOL0     H59479   9.716   5.076   7.717 -2.2404 -1.4288  3.2655
  441MOL0     H59480   9.788   4.885   7.837 -0.6151 -0.6861 -0.5153
  441MOL0     H59481   9.913   4.969   7.930 -1.4803 -0.3367  2.3796
  441MOL0     H59482   9.729   5.110   8.036 -2.0241 -0.9395  2.5438
  441MOL0     H59483   9.614   5.018   7.940 -0.6880 -1.2035  2.1893
  441MOL0     H59484   9.782   4.876   8.150 -1.5929  0.6668  2.3062
  441MOL0     H59485   9.678   4.805   8.035 -1.2035  0.4326  1.9213
  441MOL0     H59486   9.429   4.786   8.080 -1.4734  0.8431 -0.1379
  441MOL0     H59487   9.196   4.802   8.148  0.9977 -0.3714  0.2188
  441MOL0     H59488   9.155   4.915   8.272  0.3775 -2.1785 -0.3966
  441MOL0     H59489   9.066   4.969   8.022  1.2170 -1.5055 -1.0127
  441MOL0     H59490   9.225   5.030   8.005 -1.3992 -0.7414 -2.7449
  441MOL0     H59491   9.182   5.153   8.234 -1.7102 -1.2561  1.6922
  441MOL0     H59492   9.012   5.116   8.211  1.6598 -1.0288  3.1228
  441MOL0     H59493   9.175   5.270   8.007 -0.9795 -2.0826 -1.8214
  441MOL0     H59494   9.077   5.341   8.133  1.3056 -0.8492  1.7664
  441MOL0     H59495   8.762   5.118   8.107 -3.2186 -0.7029 -1.3177
  441MOL0     H59496   8.460   5.192   8.177 -0.9296 -1.9164  1.7331
  441MOL0     H59497   8.584   5.100   8.244 -0.4559 -0.1342 -0.7676
  441MOL0     H59498   8.532   5.237   8.337 -1.4325 -0.2821  0.4239
  441MOL0     H59499   8.319   5.698   8.182 -1.4455  0.6235 -0.0420
  441MOL0     H59500   8.106   5.807   8.266 -2.4582 -0.8992 -0.1148
  441MOL0     H59501   7.815   5.592   8.548 -1.0845  1.2927 -1.7896
  441MOL0     H59502   7.977   5.612   8.607 -0.7075  1.6308  1.6692
  441MOL0     H59503   7.942   5.856   8.602 -0.4771 -0.1805  6.1143
  441MOL0     H59504   7.778   5.854   8.532 -0.6990  1.7277  0.6337
  441MOL0     H59505   7.855   5.692   8.785 -0.1478 -1.1826 -0.2825
  441MOL0     H59506   7.692   5.746   8.730 -0.5164  2.2061 -2.4684
  441MOL0     H59507   7.921   5.922   8.852  0.5885  0.5272 -1.1421
  441MOL0     H59508   7.776   5.994   8.784  1.0842 -0.2394 -2.0894
  441MOL0     H59509   7.833   5.831   9.030  0.8519  0.5802 -1.0774
  441MOL0     H59510   7.675   5.801   8.963  0.8818 -1.2751  0.4705
  441MOL0     H59511   7.678   5.958   9.154  1.2651  0.7512  0.7324
  441MOL0     H59512   7.789   6.056   9.062 -0.1990  0.8719  0.8738
  441MOL0     H59513   7.611   6.114   8.894  1.1827  0.2502 -0.1065
  441MOL0     H59514   7.556   6.139   9.069 -0.2247 -0.7461  1.6022
  441MOL0     H59515   7.478   5.922   8.877 -2.9978  0.0003 -0.4069
  441MOL0     H59516   7.374   6.045   8.931 -0.2964 -1.0159 -1.4615
  441MOL0     H59517   7.984   5.435   8.424 -0.4666  1.0885 -1.3348
  441MOL0     H59518   8.197   5.320   8.346  0.3830  0.0045  0.2346
  441MOL0     H59519   8.721   5.615   8.084  1.4461  0.9136  1.4787
  441MOL0     H59520   8.930   5.501   8.006  0.6794 -0.3984  1.2005
  441MOL0     H59521  10.631   5.371   7.685  1.8861 -0.6824  1.8960
  441MOL0     H59522  10.857   5.263   7.624 -0.4747  1.0048  0.0434
  441MOL0     H59523  10.995   4.939   7.161 -0.7358 -0.2383  0.1764
  441MOL0     H59524  11.206   4.824   7.102  1.2770 -0.0001  0.7331
  441MOL0     H59525  11.512   4.774   7.427 -2.3564  1.8667 -0.7230
  441MOL0     H59526  11.418   4.631   7.447 -2.0059 -1.8122 -2.6179
  441MOL0     H59527  11.591   4.588   7.219 -2.2538 -1.1139  0.9330
  441MOL0     H59528  11.615   4.523   7.384  0.1082  1.3648  3.0568
  441MOL0     H59529  11.730   4.726   7.449 -3.7023 -2.9280 -0.2145
  441MOL0     H59530  11.733   4.790   7.285 -1.2429  2.6467  2.0403
  441MOL0     H59531  11.833   4.537   7.228  2.5197 -0.4062  0.4364
  441MOL0     H59532  11.876   4.562   7.408  2.1842 -0.2649  0.2016
  441MOL0     H59533  12.175   4.810   7.254 -0.9905  0.5581 -2.6307
  441MOL0     H59534  11.295   4.787   7.522  1.2237  3.0988  0.6138
  441MOL0     H59535  11.098   4.908   7.583  0.4138 -1.1952  0.4326
  442MOL0     O59536  11.150   5.760   8.280 -0.0015  0.3803  0.0949
  442MOL0     C59537  11.261   5.796   8.254  0.1620  0.0947  0.2091
  442MOL0     O59538  11.300   5.907   8.177 -0.7777 -0.3420  0.4126
  442MOL0     C59539  11.198   5.976   8.099 -0.7846  1.1936 -0.9333
  442MOL0     C59540  11.227   6.109   8.057 -0.5527 -0.8909  0.0908
  442MOL0     C59541  11.135   6.183   7.972  0.3026  0.0394  0.4451
  442MOL0     C59542  11.022   6.119   7.917  0.1576 -0.1441  0.3859
  442MOL0     O59543  10.921   6.178   7.852  0.2943 -0.3072  0.3496
  442MOL0     C59544  10.907   6.317   7.826 -1.0335  0.2431 -0.3512
  442MOL0     C59545  10.789   6.346   7.740  0.8218 -0.0974 -0.3204
  442MOL0     C59546  10.652   6.275   7.784  0.2087 -0.1635 -0.1413
  442MOL0     C59547  10.589   6.374   7.881  0.0480  0.3748 -0.3271
  442MOL0     C59548  10.436   6.370   7.854 -0.3825  0.0457 -0.3378
  442MOL0     C59549  10.370   6.464   7.947  0.3787  0.2706 -0.2682
  442MOL0     C59550  10.223   6.505   7.926 -0.1195  0.7091 -0.1091
  442MOL0     C59551  10.137   6.378   7.893 -0.0990  0.4519 -0.9711
  442MOL0     N59552  10.002   6.400   7.929 -0.2226  0.1029 -0.5779
  442MOL0     C59553   9.934   6.356   8.044 -0.9719 -0.0405  0.1336
  442MOL0     C59554   9.802   6.361   8.013  0.0386 -0.1359 -0.4768
  442MOL0     C59555   9.691   6.302   8.095 -0.0321 -0.1473  0.2215
  442MOL0     C59556   9.581   6.264   8.006 -0.0787  0.1359  0.4714
  442MOL0     C59557   9.456   6.200   8.088  0.7887 -0.3210 -0.5806
  442MOL0     C59558   9.327   6.210   7.998 -0.7016 -0.1970 -1.6329
  442MOL0     O59559   9.229   6.129   8.054  0.4864 -1.0595 -0.5510
  442MOL0     C59560   9.111   6.135   7.992 -0.0905  0.6573  0.2560
  442MOL0     C59561   9.009   6.052   8.049  0.1197  0.0486 -0.2062
  442MOL0     C59562   8.878   6.041   8.002 -0.1811 -0.0078 -0.1961
  442MOL0     C59563   8.791   5.957   8.094  0.1297 -0.5367  0.0112
  442MOL0     C59564   8.848   6.099   7.877  0.3898  0.3426 -0.1522
  442MOL0     C59565   8.714   6.072   7.822  0.2475  0.4689  0.1948
  442MOL0     O59566   8.648   6.170   7.759  0.1737  0.3696 -0.2137
  442MOL0     C59567   8.534   6.149   7.693 -0.4576  0.2747  0.5273
  442MOL0     C59568   8.497   6.037   7.616 -0.7311 -0.4221 -0.2679
  442MOL0     C59569   8.360   6.027   7.572 -0.3228  0.3777 -0.1401
  442MOL0     C59570   8.265   6.132   7.590  0.5729 -0.4234 -0.3752
  442MOL0     O59571   8.137   6.133   7.539  0.7907 -0.0596  0.7733
  442MOL0     C59572   8.109   6.054   7.423  0.5081 -0.3698 -0.4201
  442MOL0     C59573   7.961   6.046   7.403  0.2090  0.7620 -0.1781
  442MOL0     C59574   7.888   5.990   7.531  0.3337 -0.6975 -0.1190
  442MOL0     C59575   7.751   5.942   7.491  0.6224  0.6415  0.1811
  442MOL0     C59576   7.664   5.909   7.615 -0.0637  0.1092  0.9187
  442MOL0     C59577   7.515   5.895   7.568 -1.3763 -0.9218  0.7185
  442MOL0     C59578   7.480   5.743   7.532 -0.7599  0.5453  0.4962
  442MOL0     C59579   7.337   5.701   7.526  0.1644 -0.9276 -0.1367
  442MOL0    Cl59580   7.288   5.685   7.700 -0.2430  0.0156  0.4701
  442MOL0     C59581   8.303   6.244   7.661 -0.0137 -0.3718 -0.0517
  442MOL0     C59582   8.440   6.256   7.700  0.4848  0.2034 -0.1569
  442MOL0     O59583   8.674   5.959   7.842 -0.4741  0.1735  0.8991
  442MOL0     C59584   8.947   6.187   7.821 -0.0922 -0.6354  0.3821
  442MOL0     C59585   9.076   6.205   7.872 -0.0319  0.6786 -0.3101
  442MOL0     N59586   9.795   6.437   7.894  0.1181 -1.0361 -0.3692
  442MOL0     N59587   9.912   6.456   7.844 -0.5347  0.4284 -0.1057
  442MOL0     C59588  11.002   5.984   7.945 -0.0124  0.6693  0.7829
  442MOL0     C59589  11.089   5.913   8.037  0.1386 -0.1214 -0.7293
  442MOL0     C59590  11.368   5.716   8.317 -0.1476  0.0866  0.1056
  442MOL0     C59591  11.496   5.762   8.320  0.0732  0.1228 -0.5545
  442MOL0     C59592  11.599   5.691   8.383  0.8229 -0.4765  1.2035
  442MOL0     C59593  11.579   5.565   8.436 -0.4888  0.7150 -0.1358
  442MOL0     O59594  11.678   5.493   8.496  0.4711  0.1419 -0.1038
  442MOL0     C59595  11.813   5.542   8.493 -0.0429 -0.6372 -0.3767
  442MOL0     C59596  11.896   5.443   8.564 -0.8198 -0.3773 -0.2876
  442MOL0     C59597  11.940   5.340   8.457 -1.0369 -0.1217  0.0446
  442MOL0     C59598  11.999   5.220   8.526 -0.3287 -0.3708 -0.7099
  442MOL0     C59599  12.122   5.248   8.598  0.6479 -0.8498 -0.1673
  442MOL0     C59600  12.232   5.262   8.642  0.0943  1.0514 -0.4451
  442MOL0     C59601  11.450   5.508   8.412  0.0174  0.1906 -0.8843
  442MOL0     C59602  11.343   5.579   8.361 -0.6842 -0.2794  0.5678
  442MOL0     H59603  11.305   6.172   8.100 -1.8463  1.5953 -0.9867
  442MOL0     H59604  11.159   6.285   7.944  0.6148 -0.4156 -1.0050
  442MOL0     H59605  10.895   6.370   7.921 -1.2462  1.0291 -0.8062
  442MOL0     H59606  11.002   6.355   7.786  1.9197 -3.1350  2.6663
  442MOL0     H59607  10.775   6.454   7.729  1.7573 -0.0072 -0.7482
  442MOL0     H59608  10.809   6.322   7.635 -2.2246  0.4922 -1.1385
  442MOL0     H59609  10.594   6.249   7.695  0.9892 -0.2056 -0.6518
  442MOL0     H59610  10.678   6.180   7.833  2.6922 -1.3995 -3.4573
  442MOL0     H59611  10.604   6.349   7.987 -2.2087 -0.7967 -0.2187
  442MOL0     H59612  10.636   6.472   7.869  2.7201 -0.4682  2.1652
  442MOL0     H59613  10.412   6.393   7.750  0.1709  0.9525 -0.2788
  442MOL0     H59614  10.404   6.266   7.865 -0.1046 -0.0060  0.0136
  442MOL0     H59615  10.397   6.438   8.050 -0.2120  1.4610  0.2115
  442MOL0     H59616  10.409   6.566   7.942 -2.2821  1.5813  2.5350
  442MOL0     H59617  10.182   6.555   8.015  0.2853 -0.0739  0.5289
  442MOL0     H59618  10.230   6.576   7.844  1.2687 -0.2912 -0.8887
  442MOL0     H59619  10.171   6.295   7.956 -0.4595 -0.0592 -1.4431
  442MOL0     H59620  10.153   6.349   7.789  1.5521  1.5462 -1.0529
  442MOL0     H59621   9.995   6.306   8.119  0.8309  0.3032 -1.0275
  442MOL0     H59622   9.737   6.219   8.149  2.6372  1.8527  1.2415
  442MOL0     H59623   9.661   6.383   8.162 -1.8575 -1.3817  0.9724
  442MOL0     H59624   9.616   6.193   7.931 -0.0188  0.4424  0.2062
  442MOL0     H59625   9.540   6.359   7.969 -0.5146 -1.5121 -3.7692
  442MOL0     H59626   9.428   6.266   8.171  3.7012  1.2005 -0.6853
  442MOL0     H59627   9.479   6.099   8.125 -2.3672 -1.3190 -1.0533
  442MOL0     H59628   9.357   6.175   7.898  3.2618 -2.3222  0.0884
  442MOL0     H59629   9.297   6.316   7.997  0.4604  0.1646 -0.6533
  442MOL0     H59630   9.029   5.996   8.140  0.6323 -0.6592 -0.7413
  442MOL0     H59631   8.841   5.946   8.191  0.4352  3.1129  0.4312
  442MOL0     H59632   8.689   5.991   8.117 -0.2695 -2.5895  1.5260
  442MOL0     H59633   8.789   5.861   8.042 -0.7312 -0.3642 -0.2839
  442MOL0     H59634   8.563   5.953   7.596 -1.6386 -1.2485  0.1412
  442MOL0     H59635   8.351   5.934   7.517  0.4532 -1.4155  2.5767
  442MOL0     H59636   8.158   6.102   7.338 -1.0795 -2.1234 -2.4658
  442MOL0     H59637   8.148   5.952   7.423  0.1075 -0.5247 -0.0833
  442MOL0     H59638   7.929   6.149   7.382 -0.2812  0.5083 -0.7222
  442MOL0     H59639   7.937   5.976   7.322  1.1975  0.4821 -0.2397
  442MOL0     H59640   7.878   6.060   7.615  2.2879 -4.2084  3.3574
  442MOL0     H59641   7.957   5.916   7.572  1.0025  0.5062  1.0362
  442MOL0     H59642   7.699   6.018   7.431  0.5647  0.2859 -0.2268
  442MOL0     H59643   7.750   5.848   7.434  1.3454  1.5048 -1.3228
  442MOL0     H59644   7.670   5.998   7.679  1.2989 -1.7871  3.6275
  442MOL0     H59645   7.712   5.831   7.676  0.6927  1.6535  2.4003
  442MOL0     H59646   7.449   5.938   7.643  0.0897 -0.9695  2.0826
  442MOL0     H59647   7.488   5.957   7.481  1.4605  2.7120  2.1709
  442MOL0     H59648   7.537   5.677   7.599 -2.2660 -1.1035  0.2205
  442MOL0     H59649   7.527   5.729   7.435  0.3359  0.0141  1.0807
  442MOL0     H59650   7.329   5.603   7.477 -1.7921 -1.7099  1.6080
  442MOL0     H59651   7.286   5.771   7.459  1.8072 -0.0856 -0.5499
  442MOL0     H59652   8.230   6.323   7.675  0.5467  0.1713 -0.1838
  442MOL0     H59653   8.464   6.349   7.752 -3.0970  0.5295  1.1784
  442MOL0     H59654   8.932   6.260   7.743  0.1635 -0.4316  0.5243
  442MOL0     H59655   9.149   6.264   7.818  1.5545 -2.0749 -1.4042
  442MOL0     H59656  10.915   5.933   7.905  0.5680 -0.1318  0.5248
  442MOL0     H59657  11.070   5.807   8.050  0.0696  0.1557  1.8801
  442MOL0     H59658  11.531   5.853   8.272 -2.0311  0.2416 -1.9692
  442MOL0     H59659  11.698   5.734   8.392 -0.2808  2.4314  0.4431
  442MOL0     H59660  11.841   5.558   8.389 -1.9016  1.8259 -0.5838
  442MOL0     H59661  11.822   5.640   8.542 -0.7599  1.6340 -4.3877
  442MOL0     H59662  11.843   5.394   8.646 -1.0741 -1.1300 -0.8926
  442MOL0     H59663  11.986   5.493   8.601 -1.5187 -0.7188  2.0518
  442MOL0     H59664  12.016   5.379   8.389 -3.3126  1.4266 -1.7726
  442MOL0     H59665  11.858   5.310   8.391  0.2487 -2.3041 -0.6794
  442MOL0     H59666  12.013   5.138   8.455 -2.6260 -0.5612 -1.0116
  442MOL0     H59667  11.920   5.189   8.596 -1.3200  0.7448 -1.2954
  442MOL0     H59668  12.328   5.276   8.687  0.0027  2.8189 -0.6919
  442MOL0     H59669  11.438   5.414   8.465  4.4701  1.4587  3.0818
  442MOL0     H59670  11.242   5.542   8.344 -2.7518  3.4623  3.2523
  443MOL0     O59671   0.620   0.998   1.463 -0.3843  0.5784 -0.2585
  443MOL0     C59672   0.668   0.892   1.507 -0.3666  0.2955  0.3196
  443MOL0     O59673   0.605   0.791   1.585 -0.1173 -0.8657 -0.3344
  443MOL0     C59674   0.469   0.786   1.601  0.2880  0.0445 -0.2382
  443MOL0     C59675   0.370   0.812   1.505  0.1088  0.2078  0.5086
  443MOL0     C59676   0.230   0.810   1.542 -0.6077  0.1580  1.5039
  443MOL0     C59677   0.192   0.774   1.669 -0.5791 -0.6929  0.8815
  443MOL0     O59678   0.057   0.765   1.708 -0.2043  0.0657 -0.4787
  443MOL0     C59679   0.016   0.631   1.721 -0.1899  0.2709  0.4583
  443MOL0     C59680  -0.027   0.586   1.859  0.2600  0.2839  0.2996
  443MOL0     C59681  -0.154   0.657   1.907 -0.1160  0.5196 -0.7590
  443MOL0     C59682  -0.252   0.718   1.803 -0.4610  0.8347  0.2340
  443MOL0     C59683  -0.356   0.819   1.860  0.8018  0.6539  0.0699
  443MOL0     C59684  -0.430   0.768   1.986 -0.1193 -0.4267 -0.5835
  443MOL0     C59685  -0.503   0.638   1.950 -0.8119  0.1135  0.0370
  443MOL0     C59686  -0.639   0.625   2.030 -0.2321 -0.3272 -0.1043
  443MOL0     N59687  -0.710   0.512   1.978  0.2907  0.0988  0.3593
  443MOL0     C59688  -0.697   0.384   2.031  1.1764 -0.1827 -0.4246
  443MOL0     C59689  -0.792   0.317   1.947 -0.2983 -0.3332 -0.3744
  443MOL0     C59690  -0.837   0.186   1.958  0.3107 -0.1881 -0.1835
  443MOL0     C59691  -0.975   0.139   1.891 -0.8835  0.3442 -0.6100
  443MOL0     C59692  -0.974  -0.013   1.893 -0.5163  0.2315  0.0800
  443MOL0     C59693  -1.086  -0.072   1.804  0.1157  0.0585 -0.7166
  443MOL0     O59694  -1.217  -0.046   1.866  0.9910 -0.8322 -0.5378
  443MOL0     C59695  -1.321  -0.135   1.831 -0.4352 -0.3089  0.4539
  443MOL0     C59696  -1.325  -0.212   1.711  0.7230 -0.2848 -0.0782
  443MOL0     C59697  -1.432  -0.300   1.680 -0.8392 -0.0694  0.3917
  443MOL0     C59698  -1.422  -0.383   1.548 -0.8608 -0.1330 -0.5123
  443MOL0     C59699  -1.552  -0.301   1.758 -0.2985 -0.9629 -0.8473
  443MOL0     C59700  -1.676  -0.388   1.738 -0.0899  0.5712 -0.4168
  443MOL0     O59701  -1.788  -0.355   1.811 -0.8346  0.8506 -0.8359
  443MOL0     C59702  -1.910  -0.391   1.757 -0.2950  0.3435  0.2792
  443MOL0     C59703  -1.955  -0.349   1.635 -0.5130 -0.6782 -0.8053
  443MOL0     C59704  -2.082  -0.364   1.587 -0.8597  1.0147 -0.1804
  443MOL0     C59705  -2.167  -0.441   1.659 -0.7485 -0.1044  0.1806
  443MOL0     O59706  -2.289  -0.475   1.600  0.0162  0.0938 -0.2355
  443MOL0     C59707  -2.290  -0.613   1.555  0.0760  0.0530 -0.1019
  443MOL0     C59708  -2.308  -0.625   1.400  0.3492 -0.6775  0.4661
  443MOL0     C59709  -2.458  -0.647   1.367 -0.3763 -0.0589  0.0126
  443MOL0     C59710  -2.514  -0.779   1.401  0.1741  0.2563  0.1679
  443MOL0     C59711  -2.650  -0.792   1.317  0.4176  0.5961 -0.1895
  443MOL0     C59712  -2.708  -0.937   1.302  0.3481 -0.8084 -0.2121
  443MOL0     C59713  -2.841  -0.930   1.230 -0.4478  0.3232  0.3859
  443MOL0     C59714  -2.898  -1.067   1.189 -0.1492 -0.1622 -0.4463
  443MOL0    Cl59715  -3.000  -1.138   1.318 -0.3245  0.1277 -0.1006
  443MOL0     C59716  -2.133  -0.481   1.789 -0.0802 -0.1040  0.4969
  443MOL0     C59717  -1.997  -0.463   1.833 -1.1796 -0.2842 -0.8624
  443MOL0     O59718  -1.672  -0.475   1.646 -0.3641 -0.1847 -0.5027
  443MOL0     C59719  -1.551  -0.222   1.868 -0.1193  0.0026 -0.7764
  443MOL0     C59720  -1.443  -0.145   1.909 -0.5998  0.0395  0.2290
  443MOL0     N59721  -0.848   0.408   1.859 -0.0195 -0.0046  0.4877
  443MOL0     N59722  -0.797   0.519   1.867 -0.1967  0.5813 -0.9742
  443MOL0     C59723   0.291   0.738   1.757 -0.9114 -0.3356  0.5973
  443MOL0     C59724   0.429   0.742   1.729 -0.5603 -0.1842 -0.4073
  443MOL0     C59725   0.811   0.882   1.485  0.6496 -0.0362 -0.3565
  443MOL0     C59726   0.888   0.782   1.555  0.6267  0.5132 -0.5562
  443MOL0     C59727   1.026   0.786   1.541  0.3905  0.3893  0.0200
  443MOL0     C59728   1.097   0.884   1.483  0.7470 -0.2588 -0.3454
  443MOL0     O59729   1.229   0.904   1.503 -0.0331  0.3793 -0.1649
  443MOL0     C59730   1.305   0.943   1.387 -0.6257 -1.0273 -0.5182
  443MOL0     C59731   1.361   1.082   1.419  0.5517  0.3398  0.4900
  443MOL0     C59732   1.429   1.168   1.308  0.2637  0.2594 -0.3994
  443MOL0     C59733   1.460   1.311   1.350  0.0642 -0.2141  0.2568
  443MOL0     C59734   1.516   1.386   1.238  0.5655  0.4405 -0.2042
  443MOL0     C59735   1.550   1.431   1.132 -0.2396  0.7579 -0.4485
  443MOL0     C59736   1.025   0.987   1.421  0.1955  0.4031 -0.8487
  443MOL0     C59737   0.887   0.987   1.423  0.7634 -0.8785  0.3228
  443MOL0     H59738   0.390   0.845   1.404 -1.5310 -2.3417 -0.7439
  443MOL0     H59739   0.159   0.831   1.463 -1.0993  3.4443  2.6667
  443MOL0     H59740  -0.069   0.609   1.656 -1.5898  1.8451  1.6651
  443MOL0     H59741   0.090   0.558   1.686  0.1510 -0.5049  2.6273
  443MOL0     H59742  -0.044   0.478   1.854 -2.0050  0.6463 -1.4776
  443MOL0     H59743   0.058   0.615   1.921 -0.3018  2.3592  0.1683
  443MOL0     H59744  -0.213   0.588   1.967  0.4430 -1.2184 -2.1377
  443MOL0     H59745  -0.124   0.738   1.975 -1.3298 -0.1556  0.6145
  443MOL0     H59746  -0.206   0.776   1.723  1.1724  0.2529  0.6949
  443MOL0     H59747  -0.282   0.635   1.738  0.0991 -0.0046  1.0091
  443MOL0     H59748  -0.305   0.914   1.882  1.4657  0.3333 -0.0650
  443MOL0     H59749  -0.424   0.854   1.782  0.7353 -2.5424 -1.4571
  443MOL0     H59750  -0.356   0.752   2.064 -1.0086  2.3940  0.9725
  443MOL0     H59751  -0.499   0.843   2.024 -0.4091 -1.0835  0.2235
  443MOL0     H59752  -0.527   0.622   1.845 -1.8031 -1.4426  0.4702
  443MOL0     H59753  -0.451   0.550   1.987 -0.5819 -0.3159 -1.2562
  443MOL0     H59754  -0.688   0.722   2.024  0.4818  0.0578  0.1215
  443MOL0     H59755  -0.619   0.611   2.137  0.8151  0.3072 -0.2059
  443MOL0     H59756  -0.633   0.349   2.112  0.9590  1.1292  0.3379
  443MOL0     H59757  -0.762   0.124   1.908 -0.4981 -1.6626  0.3600
  443MOL0     H59758  -0.839   0.164   2.065 -0.9533 -2.6518 -0.6513
  443MOL0     H59759  -0.983   0.166   1.785  0.4529 -0.3396 -0.9060
  443MOL0     H59760  -1.067   0.173   1.939 -0.8541 -0.8667  0.3294
  443MOL0     H59761  -0.973  -0.042   1.999  1.1485  3.1133  0.9866
  443MOL0     H59762  -0.885  -0.069   1.862 -1.2051 -1.8685  1.6672
  443MOL0     H59763  -1.062  -0.179   1.810 -1.1830 -0.1951  0.4047
  443MOL0     H59764  -1.086  -0.045   1.698 -1.8823 -2.6426 -1.5128
  443MOL0     H59765  -1.252  -0.227   1.633 -2.5551 -2.3881 -3.0708
  443MOL0     H59766  -1.519  -0.362   1.502 -2.0523 -0.8944  1.5355
  443MOL0     H59767  -1.351  -0.350   1.472 -0.7291  2.4289  0.6106
  443MOL0     H59768  -1.419  -0.491   1.562 -1.3011 -0.3616 -2.0639
  443MOL0     H59769  -1.891  -0.290   1.569 -1.0954 -0.1315 -0.8874
  443MOL0     H59770  -2.134  -0.321   1.501 -0.2969  1.4885 -0.2956
  443MOL0     H59771  -2.193  -0.660   1.576  0.0621 -0.7613 -1.7556
  443MOL0     H59772  -2.373  -0.671   1.596 -1.4771  1.2042 -1.4785
  443MOL0     H59773  -2.271  -0.528   1.365  0.3952  0.7056  3.9029
  443MOL0     H59774  -2.250  -0.705   1.353  1.8597 -0.3015  1.5993
  443MOL0     H59775  -2.452  -0.625   1.260  0.2923  0.7034  0.1968
  443MOL0     H59776  -2.518  -0.568   1.412  2.2367  2.2573 -0.2433
  443MOL0     H59777  -2.444  -0.860   1.378  0.9565  0.7907  0.6190
  443MOL0     H59778  -2.539  -0.780   1.508 -1.3180 -1.4622 -0.1317
  443MOL0     H59779  -2.630  -0.765   1.213 -0.0476  0.5275 -0.2962
  443MOL0     H59780  -2.723  -0.718   1.353  2.6680  2.9540 -0.1588
  443MOL0     H59781  -2.641  -1.013   1.260  0.3537 -0.7545 -0.2997
  443MOL0     H59782  -2.722  -0.977   1.403  1.0601  0.2771  0.3257
  443MOL0     H59783  -2.827  -0.874   1.137  1.1305 -0.3697  0.1677
  443MOL0     H59784  -2.915  -0.876   1.290 -0.5686  1.3812 -0.6761
  443MOL0     H59785  -2.817  -1.137   1.165  4.4952  3.7793  1.9162
  443MOL0     H59786  -2.954  -1.058   1.096  0.7937 -1.9585 -1.2448
  443MOL0     H59787  -2.202  -0.526   1.859  0.2909 -2.7680 -0.7527
  443MOL0     H59788  -1.976  -0.483   1.937  1.3733  1.7721 -0.8920
  443MOL0     H59789  -1.636  -0.226   1.936  1.4891  0.8286  1.3923
  443MOL0     H59790  -1.452  -0.097   2.006 -0.6834  1.6267 -0.5318
  443MOL0     H59791   0.254   0.714   1.856  0.8836 -0.1281  1.3521
  443MOL0     H59792   0.504   0.714   1.802 -0.6937  0.5603  0.0263
  443MOL0     H59793   0.834   0.707   1.612  0.2291 -0.4417 -2.1279
  443MOL0     H59794   1.075   0.715   1.607 -2.4076  0.4065  2.3188
  443MOL0     H59795   1.393   0.879   1.377  1.7331  2.2570 -2.8595
  443MOL0     H59796   1.256   0.941   1.289  0.5916  0.4232 -1.1789
  443MOL0     H59797   1.432   1.071   1.502 -0.2617  0.3591  1.1965
  443MOL0     H59798   1.267   1.119   1.459  0.1794 -2.2048  2.1992
  443MOL0     H59799   1.367   1.190   1.220 -0.0927  6.4127  0.9763
  443MOL0     H59800   1.528   1.133   1.276  0.3779  0.8533 -0.7177
  443MOL0     H59801   1.535   1.306   1.430  1.4818 -0.0772 -1.0373
  443MOL0     H59802   1.369   1.359   1.388 -1.8383 -2.8279 -0.6659
  443MOL0     H59803   1.576   1.468   1.035 -0.8048  1.8478 -0.2037
  443MOL0     H59804   1.079   1.069   1.375 -1.2507  2.0154  0.2319
  443MOL0     H59805   0.847   1.072   1.368  0.7253 -0.7373  0.5702
  444MOL0     O59806   9.804   4.054   0.633  0.3397 -0.6215  0.0542
  444MOL0     C59807   9.802   4.135   0.543 -0.6193  0.6234  0.2728
  444MOL0     O59808   9.733   4.119   0.434  0.0370 -0.5547 -0.3153
  444MOL0     C59809   9.642   4.018   0.420  0.7294 -0.4156  0.5360
  444MOL0     C59810   9.674   3.891   0.360 -0.0459  0.0534  0.0501
  444MOL0     C59811   9.562   3.807   0.329 -0.2055 -0.5595  0.6721
  444MOL0     C59812   9.429   3.830   0.381  0.3958  0.5374  0.4825
  444MOL0     O59813   9.317   3.747   0.375 -0.0233  0.0066  0.3122
  444MOL0     C59814   9.340   3.626   0.297 -0.2383 -0.6950 -0.0029
  444MOL0     C59815   9.223   3.530   0.320  0.1827 -0.1546 -0.1558
  444MOL0     C59816   9.108   3.555   0.228 -0.1683 -0.1809 -0.5540
  444MOL0     C59817   9.000   3.450   0.234 -0.2215 -0.1713 -0.3760
  444MOL0     C59818   8.870   3.485   0.172  0.1952 -0.2542  0.7224
  444MOL0     C59819   8.771   3.374   0.168 -0.2493  0.0369  0.2992
  444MOL0     C59820   8.659   3.409   0.077  0.8304  0.6402 -0.2228
  444MOL0     C59821   8.564   3.512   0.145 -0.4719  0.1025  0.9941
  444MOL0     N59822   8.430   3.490   0.093 -0.5192 -0.2675  0.0599
  444MOL0     C59823   8.363   3.382   0.132  0.0466  0.4490  0.3337
  444MOL0     C59824   8.241   3.402   0.091  0.8690 -0.5067  0.3905
  444MOL0     C59825   8.124   3.314   0.115 -1.2532  0.3810 -0.2189
  444MOL0     C59826   7.988   3.346   0.042  0.4214 -0.0314  0.9905
  444MOL0     C59827   7.875   3.238   0.033 -0.5607  0.2942  0.1108
  444MOL0     C59828   7.758   3.277  -0.056 -0.4986 -1.2728 -0.8537
  444MOL0     O59829   7.691   3.390   0.005  0.4303 -0.1760 -0.3906
  444MOL0     C59830   7.557   3.415  -0.009  0.5886 -0.0657 -0.2450
  444MOL0     C59831   7.480   3.370  -0.112 -0.1093  0.9845  1.1043
  444MOL0     C59832   7.340   3.383  -0.112  0.5937 -0.0529  1.0113
  444MOL0     C59833   7.265   3.311  -0.216 -1.0339  0.0927  0.0682
  444MOL0     C59834   7.280   3.485  -0.024 -0.3223 -0.1701  0.3195
  444MOL0     C59835   7.139   3.524  -0.019  0.1224 -0.0347  0.3701
  444MOL0     O59836   7.083   3.566   0.099  0.1743  0.1448 -0.0960
  444MOL0     C59837   6.966   3.631   0.120  1.1148  0.5444 -0.0460
  444MOL0     C59838   6.945   3.682   0.248  0.7048 -0.7438 -0.7309
  444MOL0     C59839   6.834   3.747   0.289 -0.5471 -0.3204  0.3606
  444MOL0     C59840   6.736   3.769   0.193 -0.3138  0.2528  0.8604
  444MOL0     O59841   6.639   3.850   0.237  0.3403  0.1193  0.5033
  444MOL0     C59842   6.499   3.840   0.187  0.2199 -0.1193  0.5530
  444MOL0     C59843   6.413   3.736   0.265  0.0660  1.0113  0.0912
  444MOL0     C59844   6.265   3.750   0.224  0.6842 -0.1121  0.3453
  444MOL0     C59845   6.177   3.634   0.293 -0.6161 -0.2913 -0.0196
  444MOL0     C59846   6.058   3.602   0.199  0.2129  0.7528 -0.6734
  444MOL0     C59847   5.964   3.724   0.197 -1.0115  0.8520 -0.5735
  444MOL0     C59848   5.911   3.784   0.327  0.2012  0.7259  0.0877
  444MOL0     C59849   5.771   3.835   0.309 -0.4300  0.2674  0.3303
  444MOL0    Cl59850   5.775   3.952   0.176 -0.0476  0.0859 -0.1344
  444MOL0     C59851   6.754   3.726   0.061 -0.0214  0.2485  0.4267
  444MOL0     C59852   6.871   3.651   0.021  0.7841 -0.1238 -0.0346
  444MOL0     O59853   7.075   3.494  -0.123  0.2450 -0.2839  0.4481
  444MOL0     C59854   7.368   3.540   0.069  0.5707 -0.5232  0.2304
  444MOL0     C59855   7.504   3.510   0.079  0.1121  0.3047 -0.1275
  444MOL0     N59856   8.232   3.524   0.027  0.5587 -0.2601 -0.1734
  444MOL0     N59857   8.341   3.580   0.043 -0.3208  0.0316  0.1505
  444MOL0     C59858   9.410   3.947   0.447 -0.3650  0.5121 -0.0396
  444MOL0     C59859   9.514   4.039   0.465 -0.2128  0.3852 -0.1586
  444MOL0     C59860   9.890   4.261   0.555  0.2896 -0.2973  0.8433
  444MOL0     C59861  10.007   4.269   0.636  0.6662 -1.0940  0.5405
  444MOL0     C59862  10.105   4.371   0.633  0.6443 -0.9052  0.7685
  444MOL0     C59863  10.096   4.465   0.535 -1.0045 -0.3312  0.3164
  444MOL0     O59864  10.199   4.555   0.536  0.5476  1.0436  0.3013
  444MOL0     C59865  10.201   4.663   0.445 -0.1830  0.1240  0.0146
  444MOL0     C59866  10.329   4.752   0.447  0.7376 -0.3091 -0.1780
  444MOL0     C59867  10.314   4.862   0.344 -0.5660  0.1651  0.5643
  444MOL0     C59868  10.431   4.962   0.353  0.1384 -0.0318  0.7892
  444MOL0     C59869  10.541   4.942   0.255  0.3946 -0.1051  0.6870
  444MOL0     C59870  10.637   4.926   0.182  0.1726  0.3187  0.5992
  444MOL0     C59871   9.988   4.465   0.444 -0.2926  1.3376  0.9699
  444MOL0     C59872   9.885   4.361   0.457 -0.5710 -0.0622 -0.6507
  444MOL0     H59873   9.768   3.878   0.307 -0.6650 -0.9980 -0.8441
  444MOL0     H59874   9.594   3.720   0.272  1.4599 -0.4075  1.3093
  444MOL0     H59875   9.356   3.645   0.191  1.4137 -1.5624  0.0689
  444MOL0     H59876   9.431   3.570   0.319 -0.3362 -1.5809 -1.7275
  444MOL0     H59877   9.267   3.431   0.315  2.3725  0.5769  2.3021
  444MOL0     H59878   9.190   3.536   0.425  0.8446 -2.5816  0.2582
  444MOL0     H59879   9.065   3.654   0.246  1.7739  0.9911 -1.9907
  444MOL0     H59880   9.134   3.567   0.122  0.4786 -0.8514 -0.4802
  444MOL0     H59881   9.029   3.357   0.184 -0.7703 -0.2666 -0.5314
  444MOL0     H59882   8.988   3.432   0.341  1.7214  1.1016  0.1114
  444MOL0     H59883   8.821   3.563   0.230  0.5782  0.1463  0.5220
  444MOL0     H59884   8.885   3.525   0.071 -1.6519  1.3261  1.0171
  444MOL0     H59885   8.812   3.284   0.121 -2.0017  0.9861 -3.4403
  444MOL0     H59886   8.737   3.358   0.271 -0.1800 -1.4388  0.1089
  444MOL0     H59887   8.698   3.443  -0.019  1.2012  0.9889  0.0467
  444MOL0     H59888   8.614   3.311   0.059  2.0862 -0.5860  2.5416
  444MOL0     H59889   8.594   3.615   0.126 -0.3329 -0.5638 -3.3371
  444MOL0     H59890   8.561   3.486   0.252 -1.3037  0.0643  0.9688
  444MOL0     H59891   8.401   3.302   0.194  0.9878  0.7079  0.1153
  444MOL0     H59892   8.153   3.215   0.080 -0.3768  0.1603  1.0853
  444MOL0     H59893   8.114   3.313   0.224  0.0255 -0.2356 -0.0911
  444MOL0     H59894   8.005   3.355  -0.066 -0.0301 -2.4766  0.6702
  444MOL0     H59895   7.946   3.434   0.093  1.4610 -0.0320  1.8937
  444MOL0     H59896   7.843   3.212   0.134 -4.4303 -1.0582 -1.2726
  444MOL0     H59897   7.915   3.154  -0.025 -0.9268  0.8265 -0.9403
  444MOL0     H59898   7.697   3.186  -0.066 -0.2958 -1.4845 -0.1940
  444MOL0     H59899   7.793   3.302  -0.156 -0.6112 -1.4202 -0.9305
  444MOL0     H59900   7.532   3.312  -0.187  0.1850 -0.0647  2.1046
  444MOL0     H59901   7.317   3.221  -0.252 -3.7739 -1.3787 -0.4826
  444MOL0     H59902   7.171   3.273  -0.174 -0.6625  0.8589  1.6378
  444MOL0     H59903   7.256   3.376  -0.304  1.9388  0.0422 -0.3675
  444MOL0     H59904   7.028   3.672   0.317 -0.2410 -2.7230  0.1901
  444MOL0     H59905   6.818   3.788   0.388  1.5866  3.0182 -0.4948
  444MOL0     H59906   6.460   3.938   0.214 -3.0282 -0.7218 -1.3722
  444MOL0     H59907   6.480   3.834   0.080 -3.3317  0.4767  1.0078
  444MOL0     H59908   6.455   3.646   0.219 -0.7972  1.2189 -1.1470
  444MOL0     H59909   6.430   3.737   0.373 -2.0740 -1.2074  0.5476
  444MOL0     H59910   6.260   3.742   0.115 -0.7635 -1.6961  0.4826
  444MOL0     H59911   6.235   3.846   0.267 -0.2971 -0.1652 -0.1866
  444MOL0     H59912   6.250   3.554   0.305  0.5131  0.9659  2.0947
  444MOL0     H59913   6.147   3.673   0.391 -0.6663 -0.9280  0.2238
  444MOL0     H59914   6.007   3.509   0.227  1.6658  0.0954 -0.0789
  444MOL0     H59915   6.101   3.570   0.104 -1.3675 -4.0669 -0.0360
  444MOL0     H59916   6.007   3.803   0.135 -0.4948  2.5688  1.8707
  444MOL0     H59917   5.875   3.699   0.137 -1.0714 -0.6118  0.0915
  444MOL0     H59918   5.980   3.866   0.351  0.0371  1.4226 -1.6485
  444MOL0     H59919   5.907   3.704   0.401 -1.4581 -1.3682 -2.0899
  444MOL0     H59920   5.716   3.872   0.396 -1.4737 -0.2591 -0.0846
  444MOL0     H59921   5.710   3.749   0.279 -0.1413  0.1174  0.1708
  444MOL0     H59922   6.675   3.741  -0.012  0.8091  1.9858 -0.1612
  444MOL0     H59923   6.867   3.599  -0.074 -0.8196 -1.5003  0.7283
  444MOL0     H59924   7.331   3.609   0.145 -1.9617 -1.4328 -0.0802
  444MOL0     H59925   7.568   3.555   0.155  1.5685  2.4336 -2.4897
  444MOL0     H59926   9.313   3.975   0.487  0.5600  0.3475  2.5024
  444MOL0     H59927   9.493   4.135   0.511 -0.1912 -1.1911  3.4280
  444MOL0     H59928  10.022   4.186   0.705  0.6579 -1.4917  0.0697
  444MOL0     H59929  10.189   4.371   0.702  2.4525 -0.0533 -1.3436
  444MOL0     H59930  10.199   4.617   0.346 -0.1279 -0.2433  0.1828
  444MOL0     H59931  10.113   4.725   0.462 -0.8148 -0.4817 -0.9779
  444MOL0     H59932  10.414   4.690   0.419  0.8518 -0.5038  0.5614
  444MOL0     H59933  10.349   4.795   0.546 -0.5193  0.1533 -0.1048
  444MOL0     H59934  10.224   4.922   0.358  0.0283  1.1828  0.1271
  444MOL0     H59935  10.316   4.813   0.246  2.1608  0.8141  0.2083
  444MOL0     H59936  10.482   4.962   0.450 -0.8966  2.9401  1.4309
  444MOL0     H59937  10.391   5.063   0.337  0.0440 -0.2085 -0.1937
  444MOL0     H59938  10.721   4.931   0.115  0.9354 -0.4213  1.4692
  444MOL0     H59939   9.993   4.522   0.351 -0.9024  0.8495  0.6304
  444MOL0     H59940   9.811   4.367   0.378  0.9570  2.7053 -2.0084
  445MOL0     O59941   8.878   1.538   6.877  0.4852 -0.1327 -0.6770
  445MOL0     C59942   8.886   1.564   6.757 -0.1198 -0.0720  0.0186
  445MOL0     O59943   8.775   1.585   6.671 -0.7348  0.6719 -0.0513
  445MOL0     C59944   8.651   1.628   6.713  0.0054  0.5989 -0.2692
  445MOL0     C59945   8.569   1.658   6.611 -0.4876  0.0971  0.3423
  445MOL0     C59946   8.440   1.704   6.629  0.0833 -0.1810 -0.2386
  445MOL0     C59947   8.383   1.715   6.758 -0.4414 -0.1628 -0.2740
  445MOL0     O59948   8.253   1.762   6.783 -0.1174 -0.5406  0.3962
  445MOL0     C59949   8.162   1.800   6.673 -0.6482 -0.3662  0.7243
  445MOL0     C59950   8.020   1.828   6.718 -0.3148  0.2006 -0.3299
  445MOL0     C59951   7.949   1.698   6.752  0.5589 -0.1948  0.1663
  445MOL0     C59952   7.808   1.730   6.822  0.1925  1.0009  0.9322
  445MOL0     C59953   7.715   1.602   6.845  0.2956 -0.3255 -0.1845
  445MOL0     C59954   7.569   1.658   6.843 -0.2430 -0.1140  0.7433
  445MOL0     C59955   7.533   1.747   6.963  0.6802 -0.2231  0.1415
  445MOL0     C59956   7.387   1.810   6.958  0.4515 -0.2573  0.5457
  445MOL0     N59957   7.290   1.714   6.991 -0.5613 -0.4606  0.0638
  445MOL0     C59958   7.262   1.673   7.117 -0.3334 -0.9039 -0.6596
  445MOL0     C59959   7.153   1.594   7.104  0.3291  0.6169 -0.4064
  445MOL0     C59960   7.082   1.525   7.226 -0.1899 -0.6029 -0.0798
  445MOL0     C59961   6.935   1.504   7.223  0.3191 -0.5745 -0.2825
  445MOL0     C59962   6.893   1.380   7.296  0.0448  0.0791  0.7339
  445MOL0     C59963   6.743   1.369   7.307  0.7726  0.3270 -0.4023
  445MOL0     O59964   6.673   1.356   7.184 -0.2909 -0.2106  0.4194
  445MOL0     C59965   6.545   1.315   7.176 -0.6347  0.1925  0.0212
  445MOL0     C59966   6.486   1.312   7.046  0.5183  0.3083 -0.2728
  445MOL0     C59967   6.349   1.270   7.034 -0.3591 -0.5423  0.5101
  445MOL0     C59968   6.291   1.260   6.886 -0.1360 -0.0841  0.3845
  445MOL0     C59969   6.276   1.226   7.149  0.0084 -0.8386 -0.6308
  445MOL0     C59970   6.125   1.206   7.141 -0.1954  0.0111 -0.4788
  445MOL0     O59971   6.065   1.141   7.250 -0.2527  0.4572 -0.6432
  445MOL0     C59972   5.933   1.148   7.264 -0.5392 -0.6059 -0.7796
  445MOL0     C59973   5.869   1.248   7.345  0.0128  0.0644 -0.5914
  445MOL0     C59974   5.732   1.254   7.352 -0.4325  0.3409 -0.3617
  445MOL0     C59975   5.657   1.155   7.291 -0.7872 -0.6842 -0.2450
  445MOL0     O59976   5.527   1.175   7.317  0.1864  0.1244 -0.7648
  445MOL0     C59977   5.425   1.122   7.233 -0.3364 -1.1535 -0.4506
  445MOL0     C59978   5.282   1.137   7.295  0.0764 -0.5296 -0.0589
  445MOL0     C59979   5.224   1.280   7.292 -0.4333  0.0967 -0.9971
  445MOL0     C59980   5.095   1.286   7.369 -0.6698 -0.3102 -0.9996
  445MOL0     C59981   4.993   1.386   7.313  0.6193  0.2968 -0.4381
  445MOL0     C59982   4.859   1.373   7.390  0.7471  0.1642  0.4836
  445MOL0     C59983   4.754   1.466   7.339  0.4220 -0.4827 -0.5586
  445MOL0     C59984   4.620   1.469   7.427 -0.9720  0.1698 -0.6646
  445MOL0    Cl59985   4.542   1.304   7.433 -0.0341  0.1349 -0.3969
  445MOL0     C59986   5.720   1.052   7.221 -0.5196 -0.6759 -0.6118
  445MOL0     C59987   5.866   1.059   7.198  0.7725  0.3134  1.1439
  445MOL0     O59988   6.062   1.241   7.044 -0.2916  0.1575  0.1711
  445MOL0     C59989   6.344   1.217   7.262  0.0821 -0.7018 -0.6249
  445MOL0     C59990   6.477   1.268   7.285  0.0912  0.5708  0.2526
  445MOL0     N59991   7.119   1.593   6.971  0.0426 -0.4758 -0.3929
  445MOL0     N59992   7.194   1.662   6.904 -0.5917 -0.1612 -0.1274
  445MOL0     C59993   8.470   1.685   6.869  0.3462 -0.6954  0.1360
  445MOL0     C59994   8.603   1.651   6.846 -0.1647  0.4990  0.0230
  445MOL0     C59995   9.014   1.538   6.689 -0.4573  0.0287 -0.4348
  445MOL0     C59996   9.130   1.507   6.764  0.9190  0.0520 -0.6305
  445MOL0     C59997   9.254   1.473   6.709  0.1723 -0.4688  0.3115
  445MOL0     C59998   9.263   1.492   6.567 -0.6408 -0.5447 -0.4167
  445MOL0     O59999   9.380   1.465   6.496  0.0537  0.9005  0.3055
  445MOL0     C60000   9.509   1.447   6.562  0.4212 -0.7552 -0.4934
  445MOL0     C60001   9.624   1.465   6.471 -0.3354 -0.8131 -0.0104
  445MOL0     C60002   9.675   1.610   6.443  0.6366  0.7281  0.6089
  445MOL0     C60003   9.769   1.662   6.557 -0.1739 -0.0091  0.0241
  445MOL0     C60004   9.695   1.723   6.668 -0.6750  0.2864  0.1196
  445MOL0     C60005   9.625   1.770   6.751  0.5151  0.2272  0.3605
  445MOL0     C60006   9.151   1.519   6.489 -0.4223  0.5527  0.7925
  445MOL0     C60007   9.026   1.545   6.547 -0.3428  0.3861 -0.3653
  445MOL0     H60008   8.603   1.654   6.508  0.7357 -0.0870  0.7453
  445MOL0     H60009   8.378   1.731   6.544  2.0182  1.6354 -1.1361
  445MOL0     H60010   8.199   1.879   6.606 -0.9185 -2.5809 -2.2557
  445MOL0     H60011   8.168   1.718   6.600  1.6238  0.9016 -0.6473
  445MOL0     H60012   8.019   1.893   6.806 -0.0873  1.4702 -1.2401
  445MOL0     H60013   7.974   1.876   6.631  0.5124  2.9180  0.6269
  445MOL0     H60014   7.929   1.649   6.656 -0.3964  0.8693 -0.1869
  445MOL0     H60015   8.003   1.625   6.814  3.0610  0.5399 -1.0034
  445MOL0     H60016   7.833   1.764   6.923  1.6789  0.9641  0.5859
  445MOL0     H60017   7.757   1.822   6.791  0.6664  1.6854  2.1217
  445MOL0     H60018   7.732   1.528   6.767 -1.7397 -0.6836 -0.3484
  445MOL0     H60019   7.740   1.556   6.941 -2.4674  0.1028  0.8377
  445MOL0     H60020   7.551   1.708   6.748 -0.0943 -1.5817 -0.0794
  445MOL0     H60021   7.496   1.576   6.848  0.8514 -1.4103 -2.2287
  445MOL0     H60022   7.538   1.683   7.052  0.9937 -0.5293 -0.0965
  445MOL0     H60023   7.610   1.823   6.982 -0.0012  0.1254  1.7071
  445MOL0     H60024   7.358   1.840   6.857  0.3960 -1.7933  0.0844
  445MOL0     H60025   7.375   1.896   7.025  0.2697  0.7661 -0.7610
  445MOL0     H60026   7.313   1.706   7.207 -0.5198 -1.0497 -0.5015
  445MOL0     H60027   7.131   1.428   7.239 -0.8496 -0.7727  1.3514
  445MOL0     H60028   7.117   1.582   7.312  3.1192 -2.5270  0.0379
  445MOL0     H60029   6.901   1.503   7.119 -1.4941  1.5259  0.2190
  445MOL0     H60030   6.889   1.590   7.273  0.1330 -0.2717 -0.9618
  445MOL0     H60031   6.942   1.384   7.393 -0.4536  2.7574  0.9504
  445MOL0     H60032   6.920   1.287   7.245  4.6345  1.2443  0.5691
  445MOL0     H60033   6.704   1.456   7.360  1.7809  0.2848  0.4546
  445MOL0     H60034   6.718   1.280   7.364 -0.4583  0.0950 -1.2571
  445MOL0     H60035   6.543   1.336   6.957  1.4887  0.7813  0.4614
  445MOL0     H60036   6.369   1.261   6.810  1.6996 -0.4586  2.1908
  445MOL0     H60037   6.235   1.167   6.872  0.1930 -0.4387  1.3798
  445MOL0     H60038   6.211   1.328   6.853 -1.5399 -2.1801 -0.8094
  445MOL0     H60039   5.929   1.326   7.391  2.2697 -1.5058 -0.6751
  445MOL0     H60040   5.694   1.339   7.408  0.9816  0.3744  0.5999
  445MOL0     H60041   5.432   1.174   7.137 -0.5643 -1.0682 -0.4228
  445MOL0     H60042   5.438   1.015   7.217  0.7124 -0.7106 -3.1897
  445MOL0     H60043   5.216   1.083   7.227  1.2393 -2.4041  0.2286
  445MOL0     H60044   5.273   1.074   7.384 -0.2925 -0.4879 -0.0634
  445MOL0     H60045   5.205   1.298   7.186  0.9906 -0.6603 -1.4163
  445MOL0     H60046   5.294   1.353   7.335  0.3872 -2.4934  2.5736
  445MOL0     H60047   5.051   1.187   7.384 -0.7949 -0.0629  0.3852
  445MOL0     H60048   5.114   1.323   7.471 -0.9449  0.1395 -1.1070
  445MOL0     H60049   4.967   1.375   7.207 -3.2723  0.9568  0.2767
  445MOL0     H60050   5.033   1.484   7.341 -4.0318  1.6364  2.8935
  445MOL0     H60051   4.814   1.273   7.396 -2.0239  1.3329  0.4934
  445MOL0     H60052   4.876   1.404   7.493 -1.6313  1.2348  0.6151
  445MOL0     H60053   4.721   1.435   7.240  1.5289  2.8648 -2.1264
  445MOL0     H60054   4.786   1.571   7.334 -3.2473  0.8059  0.1163
  445MOL0     H60055   4.542   1.538   7.395 -1.6087 -0.5838 -0.7713
  445MOL0     H60056   4.636   1.497   7.531  0.8953 -1.4416 -0.4433
  445MOL0     H60057   5.669   0.967   7.177  3.0614 -2.9186 -0.8218
  445MOL0     H60058   5.913   0.981   7.139  1.4435  2.2341 -1.0302
  445MOL0     H60059   6.285   1.184   7.347  0.8174  1.3094  0.7270
  445MOL0     H60060   6.524   1.245   7.381 -0.1645 -1.1794 -0.0119
  445MOL0     H60061   8.439   1.680   6.973 -1.0914 -1.8972 -0.3164
  445MOL0     H60062   8.667   1.641   6.934  0.3101  1.6284 -0.1777
  445MOL0     H60063   9.117   1.505   6.872 -4.4634  1.6394 -0.9851
  445MOL0     H60064   9.342   1.441   6.763 -0.8639  1.4590  3.4070
  445MOL0     H60065   9.520   1.503   6.656 -0.0366  0.2815 -1.0374
  445MOL0     H60066   9.516   1.343   6.595  1.7890  0.1891  2.5701
  445MOL0     H60067   9.597   1.415   6.377 -2.6305 -0.4612  0.4226
  445MOL0     H60068   9.705   1.409   6.519  0.8450 -0.2488 -1.2587
  445MOL0     H60069   9.586   1.670   6.424  0.6781  0.1372 -1.6909
  445MOL0     H60070   9.738   1.606   6.354  1.3758 -0.3037  1.1512
  445MOL0     H60071   9.839   1.736   6.518  1.5022 -0.7623  1.4915
  445MOL0     H60072   9.829   1.577   6.591  0.2040  0.1481 -0.2393
  445MOL0     H60073   9.546   1.809   6.812 -0.4952 -0.1396 -0.6962
  445MOL0     H60074   9.158   1.536   6.382  0.1287 -0.2661  0.6880
  445MOL0     H60075   8.934   1.562   6.491 -0.8743 -0.0440  0.3702
  446MOL0     O60076   9.724   2.362  11.346  0.0148 -0.7037  0.1611
  446MOL0     C60077   9.651   2.332  11.251 -0.2751  0.6161 -0.0832
  446MOL0     O60078   9.540   2.251  11.260  0.3103 -0.4912 -0.1030
  446MOL0     C60079   9.484   2.197  11.372  0.2444  0.4003 -0.8234
  446MOL0     C60080   9.357   2.148  11.347 -0.3256  0.0586 -0.3903
  446MOL0     C60081   9.281   2.096  11.455 -0.0626 -0.0089  0.3147
  446MOL0     C60082   9.333   2.074  11.583  0.2890 -0.3824 -0.6396
  446MOL0     O60083   9.259   2.021  11.688 -0.2834  0.4837  0.2426
  446MOL0     C60084   9.123   2.059  11.719 -0.1750  0.2088  1.3702
  446MOL0     C60085   9.094   2.012  11.868 -0.0188  0.0341 -0.2245
  446MOL0     C60086   8.954   2.058  11.907  0.4604  0.2270  0.3025
  446MOL0     C60087   8.847   1.983  11.825 -0.1657 -0.5578 -0.8964
  446MOL0     C60088   8.699   2.017  11.843 -0.3561  0.6588 -0.0805
  446MOL0     C60089   8.600   1.907  11.826  0.7804  0.1150  0.4758
  446MOL0     C60090   8.454   1.963  11.845  0.7655  0.1925 -0.0673
  446MOL0     C60091   8.358   1.850  11.851 -0.9186 -0.3845  0.1522
  446MOL0     N60092   8.225   1.891  11.886 -0.3328  0.5027 -0.1275
  446MOL0     C60093   8.171   1.918  12.007  0.5642  0.0766 -0.0403
  446MOL0     C60094   8.044   1.949  11.993 -0.2585 -0.6256  0.4749
  446MOL0     C60095   7.955   1.974  12.099 -0.0288 -0.1987 -0.6576
  446MOL0     C60096   7.904   1.850  12.171 -0.0324  0.6014  0.4207
  446MOL0     C60097   7.791   1.770  12.101  0.5602  0.3381 -0.2078
  446MOL0     C60098   7.650   1.828  12.154  0.5291  0.6366  0.1186
  446MOL0     O60099   7.631   1.760  12.280  0.0219  0.0234  0.1768
  446MOL0     C60100   7.501   1.748  12.327 -0.8327 -0.2303  0.9110
  446MOL0     C60101   7.445   1.872  12.363  0.5444 -0.1172  0.2120
  446MOL0     C60102   7.305   1.879  12.381 -0.3373  1.0846 -0.7247
  446MOL0     C60103   7.241   2.009  12.386  0.3159 -0.2652 -0.0880
  446MOL0     C60104   7.235   1.747  12.402  0.2007 -0.4226  0.5076
  446MOL0     C60105   7.089   1.742  12.434 -0.0667  0.1058  0.0005
  446MOL0     O60106   7.039   1.619  12.441  0.2765 -0.1887 -0.0320
  446MOL0     C60107   6.917   1.582  12.499  0.3256  0.0416 -0.3875
  446MOL0     C60108   6.882   1.452  12.489 -0.0798  1.0620  0.6673
  446MOL0     C60109   6.766   1.388  12.545 -0.5798  0.0335  0.0348
  446MOL0     C60110   6.679   1.468  12.621  0.1462  0.2767 -0.5001
  446MOL0     O60111   6.563   1.419  12.679  0.1550 -0.2843  0.0987
  446MOL0     C60112   6.442   1.437  12.615  0.8109  0.5018  0.6029
  446MOL0     C60113   6.336   1.391  12.710 -0.5977  0.5148 -0.6932
  446MOL0     C60114   6.206   1.434  12.647  0.7074 -0.1782 -0.2833
  446MOL0     C60115   6.098   1.405  12.749  0.0640  1.0227 -0.0631
  446MOL0     C60116   5.956   1.437  12.695 -0.0909  0.6579  0.1061
  446MOL0     C60117   5.933   1.373  12.553 -0.1147  0.0630 -0.1547
  446MOL0     C60118   5.784   1.387  12.513 -0.4321  0.5332 -0.2008
  446MOL0     C60119   5.760   1.289  12.396 -0.9175  0.8487 -0.3175
  446MOL0    Cl60120   5.610   1.333  12.309  0.5520  0.2503 -0.0744
  446MOL0     C60121   6.714   1.598  12.641 -0.5556 -0.0773 -0.1562
  446MOL0     C60122   6.830   1.655  12.584 -0.4770  0.0511 -0.4082
  446MOL0     O60123   7.034   1.839  12.479 -0.2094 -0.3334  0.3375
  446MOL0     C60124   7.302   1.631  12.379 -0.3207 -0.4048  0.1550
  446MOL0     C60125   7.433   1.632  12.332  0.2284  0.3662 -0.5334
  446MOL0     N60126   8.017   1.950  11.854  0.3878 -0.0211  0.1772
  446MOL0     N60127   8.133   1.916  11.791  0.3828  0.3335 -0.3727
  446MOL0     C60128   9.463   2.120  11.608  0.2133  0.4936  0.3808
  446MOL0     C60129   9.538   2.180  11.500 -0.3563  0.2113  0.3466
  446MOL0     C60130   9.714   2.350  11.116  0.2328 -0.7467  0.7430
  446MOL0     C60131   9.643   2.322  10.998 -0.5064 -0.8059  0.3454
  446MOL0     C60132   9.712   2.334  10.875  0.3241 -0.1723 -0.5457
  446MOL0     C60133   9.836   2.396  10.872  0.1636  0.1606  0.1354
  446MOL0     O60134   9.879   2.411  10.742 -0.3293 -0.1930 -0.2533
  446MOL0     C60135  10.012   2.464  10.733  0.4569 -0.7898 -0.2206
  446MOL0     C60136  10.066   2.441  10.594  0.6301  0.0595  0.5467
  446MOL0     C60137  10.191   2.534  10.564 -0.6498 -0.1945  0.1076
  446MOL0     C60138  10.325   2.483  10.635 -0.5271 -0.9698 -0.0712
  446MOL0     C60139  10.428   2.590  10.625 -0.1229 -0.3142  0.8132
  446MOL0     C60140  10.518   2.670  10.619  0.2618  0.6457  0.0139
  446MOL0     C60141   9.911   2.425  10.992 -0.1817 -0.0469  0.3659
  446MOL0     C60142   9.845   2.396  11.109  0.3578  0.8345 -0.0285
  446MOL0     H60143   9.314   2.153  11.248 -0.0902 -5.0349 -1.0029
  446MOL0     H60144   9.174   2.080  11.440 -0.6569  4.0667 -0.8507
  446MOL0     H60145   9.125   2.165  11.692  2.4737 -0.1425 -0.2338
  446MOL0     H60146   9.055   2.007  11.650  0.2854 -3.2664  3.3060
  446MOL0     H60147   9.113   1.905  11.879  0.2300  0.0562 -0.4376
  446MOL0     H60148   9.169   2.057  11.934 -0.3851 -2.3647  1.9737
  446MOL0     H60149   8.948   2.029  12.012  2.0208  1.7341  0.8500
  446MOL0     H60150   8.941   2.166  11.899 -3.6851 -0.1760 -1.0014
  446MOL0     H60151   8.859   2.011  11.720  1.7440  1.7964 -0.1378
  446MOL0     H60152   8.864   1.877  11.844  4.5450 -0.1850 -1.8886
  446MOL0     H60153   8.689   2.052  11.946 -0.1426 -0.7769  0.4464
  446MOL0     H60154   8.666   2.090  11.768 -1.9987 -1.4289 -1.5213
  446MOL0     H60155   8.612   1.873  11.723 -0.7830  1.6236 -0.2675
  446MOL0     H60156   8.626   1.823  11.891 -0.8127 -0.3049  0.6319
  446MOL0     H60157   8.465   2.028  11.932  1.9325 -0.2506  0.1473
  446MOL0     H60158   8.407   2.025  11.770 -2.6202  0.3750  1.9968
  446MOL0     H60159   8.389   1.782  11.931 -1.2993 -0.8354 -0.0792
  446MOL0     H60160   8.368   1.787  11.762  2.6239 -0.5328  0.5270
  446MOL0     H60161   8.207   1.906  12.109 -2.3656  1.1119  1.2296
  446MOL0     H60162   8.004   2.038  12.173  0.8642 -0.8839 -0.6438
  446MOL0     H60163   7.875   2.023  12.043  0.8115  0.3952 -1.3795
  446MOL0     H60164   7.865   1.877  12.270 -1.7977  0.8592 -0.3162
  446MOL0     H60165   7.994   1.792  12.191 -0.6767 -0.6150 -0.0942
  446MOL0     H60166   7.801   1.664  12.127 -3.1266 -1.4180 -4.6313
  446MOL0     H60167   7.805   1.785  11.993  2.1866  2.0482  0.1762
  446MOL0     H60168   7.568   1.795  12.090 -0.5300  0.6326  1.4522
  446MOL0     H60169   7.654   1.938  12.154 -0.8239  0.7405  2.3801
  446MOL0     H60170   7.505   1.962  12.367  0.4763 -0.0757  0.2738
  446MOL0     H60171   7.167   2.012  12.305 -0.6962  1.9561  0.8193
  446MOL0     H60172   7.184   2.018  12.479 -1.1285 -0.1272 -0.9623
  446MOL0     H60173   7.301   2.099  12.368 -2.5301  1.5993 -0.9392
  446MOL0     H60174   6.948   1.386  12.433 -1.6637  1.9369 -2.4713
  446MOL0     H60175   6.757   1.281  12.530  0.7480 -0.4081  1.9299
  446MOL0     H60176   6.414   1.540  12.590 -2.4857 -0.3120  0.5289
  446MOL0     H60177   6.425   1.386  12.520 -0.1906  0.6406  0.6936
  446MOL0     H60178   6.352   1.283  12.723  0.9753  1.0429  2.7426
  446MOL0     H60179   6.347   1.442  12.806  1.8985 -0.6418 -0.2715
  446MOL0     H60180   6.195   1.380  12.553  2.3329  1.0786 -1.2499
  446MOL0     H60181   6.195   1.542  12.634 -1.0755 -0.2528  0.3026
  446MOL0     H60182   6.090   1.298  12.768 -4.3126  1.4283  1.6661
  446MOL0     H60183   6.117   1.466  12.838  1.2604  3.2577 -1.7412
  446MOL0     H60184   5.940   1.545  12.696 -0.0755  0.6631  1.5198
  446MOL0     H60185   5.881   1.402  12.767 -0.8787  2.1833  0.0722
  446MOL0     H60186   5.995   1.433  12.486 -1.0259  1.2934  0.0561
  446MOL0     H60187   5.972   1.272  12.536  2.6769  1.3253 -1.8697
  446MOL0     H60188   5.756   1.488  12.481 -0.4162  0.3313 -0.8625
  446MOL0     H60189   5.717   1.370  12.598  0.2401  0.2844  0.2897
  446MOL0     H60190   5.756   1.190  12.443  2.3721  0.0216 -1.4662
  446MOL0     H60191   5.842   1.306  12.326 -1.8139 -0.3001 -1.6936
  446MOL0     H60192   6.648   1.653  12.707 -0.2462  0.6474 -0.4355
  446MOL0     H60193   6.842   1.761  12.603 -3.2125  0.2792  0.5398
  446MOL0     H60194   7.260   1.534  12.404 -2.9023  0.6832  0.4366
  446MOL0     H60195   7.491   1.544  12.306 -3.3862 -1.5905 -2.7659
  446MOL0     H60196   9.497   2.119  11.711 -1.0794 -1.3723  0.8431
  446MOL0     H60197   9.637   2.210  11.531  0.1198 -1.3458  0.4134
  446MOL0     H60198   9.540   2.292  11.013 -1.3502  1.2106 -1.0863
  446MOL0     H60199   9.677   2.305  10.776  0.3149 -2.7161  0.1246
  446MOL0     H60200   9.991   2.569  10.753 -2.3257 -1.7067  2.3417
  446MOL0     H60201  10.086   2.425  10.803  1.6390  2.6229  0.6232
  446MOL0     H60202   9.991   2.487  10.529 -0.9025  1.2840  3.0396
  446MOL0     H60203  10.080   2.334  10.575  1.7930 -0.2456  2.8125
  446MOL0     H60204  10.174   2.637  10.594  1.0898  0.1237  0.0993
  446MOL0     H60205  10.215   2.525  10.457 -1.8215  2.4876 -0.4503
  446MOL0     H60206  10.358   2.399  10.573  0.8093 -2.1662  2.1196
  446MOL0     H60207  10.320   2.449  10.739  0.9767 -0.6989  0.1076
  446MOL0     H60208  10.591   2.748  10.620  0.4806  0.4448  0.3014
  446MOL0     H60209  10.013   2.462  10.992 -0.0699  0.0715 -3.2963
  446MOL0     H60210   9.900   2.418  11.200 -0.8291 -2.2197  1.5574
  447MOL0     O60211   6.141   8.325   7.662 -0.3160  0.0294  0.1787
  447MOL0     C60212   6.137   8.351   7.545 -0.1759 -0.1510 -0.1584
  447MOL0     O60213   6.019   8.387   7.471 -1.0047 -0.1266  0.6699
  447MOL0     C60214   5.907   8.430   7.538 -0.2322 -0.0758 -0.2371
  447MOL0     C60215   5.787   8.366   7.527  0.2647  0.0817 -0.2895
  447MOL0     C60216   5.674   8.404   7.612 -0.1973  0.2504 -0.2207
  447MOL0     C60217   5.681   8.519   7.699  0.3594 -0.0069  0.2206
  447MOL0     O60218   5.580   8.577   7.774 -0.1674  0.0766 -0.2278
  447MOL0     C60219   5.472   8.488   7.820  0.2530  0.5823 -0.0938
  447MOL0     C60220   5.380   8.570   7.913  0.2802  0.0762 -0.6346
  447MOL0     C60221   5.242   8.495   7.933 -0.4515  0.0998  0.4230
  447MOL0     C60222   5.119   8.576   7.906  0.8216 -0.4655  1.4948
  447MOL0     C60223   4.983   8.494   7.909 -0.4792 -0.1757  0.3157
  447MOL0     C60224   4.860   8.585   7.888 -0.2255  0.5675  0.7251
  447MOL0     C60225   4.846   8.621   7.741 -0.2924 -0.5878  0.2954
  447MOL0     C60226   4.733   8.722   7.723 -0.0600 -0.0504 -0.3085
  447MOL0     N60227   4.597   8.674   7.747  0.1349 -0.8115 -0.1771
  447MOL0     C60228   4.526   8.692   7.859  0.5932  0.1764 -1.3538
  447MOL0     C60229   4.429   8.605   7.844  0.6138  0.4962 -0.1702
  447MOL0     C60230   4.314   8.591   7.951 -0.9139 -0.2259  0.4810
  447MOL0     C60231   4.193   8.672   7.906  0.1747  0.2353  0.6646
  447MOL0     C60232   4.107   8.679   8.034 -0.4049 -0.6143  0.4955
  447MOL0     C60233   3.969   8.747   8.008  0.0458  0.4873 -0.0633
  447MOL0     O60234   3.885   8.739   8.129 -0.4354  0.8653 -0.7397
  447MOL0     C60235   3.792   8.829   8.160  0.3650 -0.7697 -0.1435
  447MOL0     C60236   3.767   8.946   8.092  0.1441  0.7939 -0.3800
  447MOL0     C60237   3.665   9.026   8.124 -0.5513 -1.0356  0.1466
  447MOL0     C60238   3.647   9.136   8.027  0.0496  0.2026 -0.7137
  447MOL0     C60239   3.573   8.992   8.229  0.1612  0.3818  0.4259
  447MOL0     C60240   3.458   9.077   8.260  1.0467  0.3301 -0.1361
  447MOL0     O60241   3.462   9.214   8.277 -0.0473  0.3189 -0.4935
  447MOL0     C60242   3.349   9.286   8.322 -0.3606  0.0998 -0.1827
  447MOL0     C60243   3.219   9.261   8.280  0.2075  0.5068  0.0079
  447MOL0     C60244   3.114   9.322   8.342  0.5732  0.1051  0.4624
  447MOL0     C60245   3.138   9.424   8.444  0.3858  0.1684  0.6821
  447MOL0     O60246   3.032   9.496   8.499  0.3185  0.3422  0.2392
  447MOL0     C60247   2.917   9.425   8.555 -0.1396  0.2019 -0.7857
  447MOL0     C60248   2.859   9.488   8.682 -0.2666  0.5860 -0.3417
  447MOL0     C60249   2.961   9.499   8.799  0.6510 -0.0391 -0.9582
  447MOL0     C60250   2.890   9.568   8.918 -0.4096 -0.2313 -0.5914
  447MOL0     C60251   2.974   9.581   9.046 -0.0175  0.2139  0.2352
  447MOL0     C60252   2.898   9.695   9.121 -0.4478  0.5060  0.1438
  447MOL0     C60253   2.951   9.700   9.268 -0.2470 -0.1686  0.5726
  447MOL0     C60254   2.866   9.794   9.348  0.1538 -0.7481  0.6915
  447MOL0    Cl60255   2.838   9.961   9.265  0.3603  0.0511  0.0719
  447MOL0     C60256   3.267   9.451   8.478  0.1211 -0.0923  0.4173
  447MOL0     C60257   3.372   9.382   8.418 -0.2167  0.7208  0.9491
  447MOL0     O60258   3.358   9.009   8.290  0.4491 -0.6468 -0.7103
  447MOL0     C60259   3.597   8.877   8.301 -0.4384 -0.1684 -0.6319
  447MOL0     C60260   3.711   8.795   8.269  0.8755  0.2943  0.5780
  447MOL0     N60261   4.434   8.541   7.721  0.0001 -1.0256 -0.9210
  447MOL0     N60262   4.541   8.585   7.669  0.8019  0.2507 -0.0081
  447MOL0     C60263   5.805   8.588   7.695  0.4033  0.2050 -1.2140
  447MOL0     C60264   5.915   8.547   7.616 -0.2008  0.8423 -0.0243
  447MOL0     C60265   6.273   8.350   7.470  0.0157 -0.2799  0.2542
  447MOL0     C60266   6.273   8.365   7.330  0.3019 -1.0867 -0.5304
  447MOL0     C60267   6.400   8.374   7.264 -0.2992  0.0520  0.3693
  447MOL0     C60268   6.529   8.365   7.332  0.2697  0.4163  0.2597
  447MOL0     O60269   6.655   8.380   7.270  0.5084 -0.5116 -0.0584
  447MOL0     C60270   6.671   8.385   7.133 -0.5347  0.8309 -0.4097
  447MOL0     C60271   6.664   8.530   7.096  0.5202 -0.8593  0.0704
  447MOL0     C60272   6.701   8.557   6.945 -0.4017 -0.0724 -0.3239
  447MOL0     C60273   6.835   8.624   6.925  0.4307  0.0589 -0.5724
  447MOL0     C60274   6.942   8.528   6.958  0.1533 -0.0364  0.1187
  447MOL0     C60275   7.022   8.445   6.972 -0.2490  0.9266 -0.0629
  447MOL0     C60276   6.523   8.352   7.472  0.0619  1.0717  0.0135
  447MOL0     C60277   6.397   8.332   7.537 -0.0258 -0.7889 -0.0097
  447MOL0     H60278   5.788   8.277   7.464  1.1343 -2.0895  2.6000
  447MOL0     H60279   5.581   8.350   7.599  0.3244 -0.7647  0.1466
  447MOL0     H60280   5.427   8.445   7.729  1.9623 -0.8971 -0.2860
  447MOL0     H60281   5.523   8.402   7.863  0.0759 -0.2533 -1.4761
  447MOL0     H60282   5.430   8.612   8.000 -4.1514  0.3619  2.1177
  447MOL0     H60283   5.360   8.657   7.849 -0.8815 -1.1987 -2.0758
  447MOL0     H60284   5.244   8.412   7.861 -3.5100 -0.9464  1.4002
  447MOL0     H60285   5.237   8.461   8.037  1.4298  2.5575  1.4135
  447MOL0     H60286   5.112   8.662   7.973  1.8892  0.3274  0.6338
  447MOL0     H60287   5.115   8.613   7.803 -0.9050 -1.5629  1.1237
  447MOL0     H60288   4.991   8.422   7.827 -1.3412 -0.2391  0.2810
  447MOL0     H60289   4.981   8.428   7.996  1.4764 -3.6353 -2.0263
  447MOL0     H60290   4.767   8.529   7.905 -1.7582  2.7206 -0.0920
  447MOL0     H60291   4.856   8.672   7.954  0.8134  0.6355  0.7090
  447MOL0     H60292   4.941   8.672   7.721 -1.3542  1.6033  0.5350
  447MOL0     H60293   4.841   8.542   7.665 -1.5492  0.4841 -0.7928
  447MOL0     H60294   4.743   8.765   7.623 -2.2131  0.4742 -0.3563
  447MOL0     H60295   4.742   8.796   7.803  0.4422 -1.3020  0.8290
  447MOL0     H60296   4.559   8.744   7.948 -2.1524  1.6767 -1.1197
  447MOL0     H60297   4.287   8.485   7.960  0.4110 -0.6006  0.3535
  447MOL0     H60298   4.347   8.619   8.051 -3.0306  1.1837  0.8347
  447MOL0     H60299   4.135   8.612   7.836 -0.3366  1.8707 -0.3557
  447MOL0     H60300   4.230   8.760   7.852  4.4362 -1.5140  0.3214
  447MOL0     H60301   4.158   8.743   8.107 -2.3538  0.0390  1.3607
  447MOL0     H60302   4.090   8.585   8.087 -3.9327 -0.6123 -0.3523
  447MOL0     H60303   3.906   8.695   7.935  0.5159  0.3353 -0.3692
  447MOL0     H60304   3.992   8.849   7.976  2.3343 -0.5022 -1.8525
  447MOL0     H60305   3.823   8.970   8.002  2.6650 -1.6646  0.3770
  447MOL0     H60306   3.737   9.152   7.966 -1.1827 -2.0555 -3.3312
  447MOL0     H60307   3.564   9.111   7.960 -1.0701 -2.0603  1.3502
  447MOL0     H60308   3.623   9.228   8.080 -1.0593  1.9501 -3.9697
  447MOL0     H60309   3.206   9.187   8.202  1.7648  3.6293 -3.5287
  447MOL0     H60310   3.015   9.300   8.303  0.9792 -0.4222 -0.2963
  447MOL0     H60311   2.850   9.405   8.471 -1.2420 -0.2023  0.1500
  447MOL0     H60312   2.953   9.328   8.591 -0.3038  1.3210  2.7948
  447MOL0     H60313   2.818   9.584   8.647 -0.6439  0.4634 -0.2406
  447MOL0     H60314   2.779   9.426   8.724 -0.5104  0.7876 -0.5056
  447MOL0     H60315   3.043   9.562   8.763  2.7957 -2.4632 -0.5901
  447MOL0     H60316   3.008   9.405   8.827  1.2996  0.6865  0.4850
  447MOL0     H60317   2.864   9.664   8.874  1.9586  0.4097 -0.7159
  447MOL0     H60318   2.802   9.509   8.944 -0.4854  0.9741  2.3791
  447MOL0     H60319   3.076   9.612   9.021  1.1618 -3.8916 -0.7793
  447MOL0     H60320   2.975   9.488   9.104 -0.4702  0.2996  0.3818
  447MOL0     H60321   2.927   9.789   9.072 -2.4169  0.7795 -0.6005
  447MOL0     H60322   2.791   9.675   9.109 -0.1919  0.1259 -2.0835
  447MOL0     H60323   3.057   9.723   9.258 -0.1761 -1.3949 -3.0204
  447MOL0     H60324   2.939   9.601   9.314 -2.2050 -0.2009  0.1014
  447MOL0     H60325   2.923   9.823   9.437  1.6016  0.3484 -0.5523
  447MOL0     H60326   2.772   9.746   9.378  0.2604 -0.5594  1.3414
  447MOL0     H60327   3.299   9.518   8.558  2.2835 -0.7909  0.2023
  447MOL0     H60328   3.473   9.410   8.446  0.5296  1.9965 -2.5330
  447MOL0     H60329   3.529   8.856   8.384  0.0568  1.6410  0.2749
  447MOL0     H60330   3.714   8.706   8.331  1.8157  1.5074  2.3533
  447MOL0     H60331   5.816   8.682   7.749 -1.3840  2.9477 -5.1509
  447MOL0     H60332   6.009   8.602   7.623  1.8626 -2.4524 -0.0446
  447MOL0     H60333   6.180   8.384   7.278  0.9678  2.2056 -0.7063
  447MOL0     H60334   6.407   8.378   7.155  0.5559  0.9611  0.4399
  447MOL0     H60335   6.768   8.338   7.115 -0.5658 -0.7280  2.6942
  447MOL0     H60336   6.592   8.337   7.075 -0.8672 -0.3032  0.8977
  447MOL0     H60337   6.733   8.582   7.163  1.2860  0.6589 -1.8112
  447MOL0     H60338   6.559   8.555   7.112 -0.8680 -3.6745 -3.2295
  447MOL0     H60339   6.627   8.626   6.905 -0.3677  0.0999 -0.0950
  447MOL0     H60340   6.685   8.459   6.898  0.4254 -0.2886 -0.1628
  447MOL0     H60341   6.825   8.714   6.986 -4.1573 -0.2087 -0.5322
  447MOL0     H60342   6.842   8.650   6.819 -3.2894  0.2834 -0.9095
  447MOL0     H60343   7.093   8.370   6.997 -0.9115  1.2430  3.2784
  447MOL0     H60344   6.615   8.339   7.528  0.5499 -0.0829 -1.0072
  447MOL0     H60345   6.407   8.309   7.642  0.5482 -1.0973 -0.1293
  448MOL0     O60346  10.658   2.537   2.235  0.0904 -0.0954  0.0329
  448MOL0     C60347  10.729   2.483   2.318 -0.3390 -0.1898 -0.6076
  448MOL0     O60348  10.692   2.382   2.402 -0.3264  0.3405 -0.3522
  448MOL0     C60349  10.570   2.326   2.424  0.0090 -0.2817 -1.0065
  448MOL0     C60350  10.457   2.334   2.340  0.3985 -0.0589 -0.6156
  448MOL0     C60351  10.331   2.275   2.365  0.0047 -0.3676  0.4558
  448MOL0     C60352  10.311   2.199   2.489 -0.4411  0.6437 -0.2645
  448MOL0     O60353  10.203   2.117   2.530  0.2604 -0.1100 -0.5204
  448MOL0     C60354  10.079   2.147   2.459  0.2233 -0.8853  0.2024
  448MOL0     C60355   9.963   2.082   2.531  0.1972  0.6185 -0.0243
  448MOL0     C60356   9.828   2.092   2.450  0.0243 -0.5475  0.1576
  448MOL0     C60357   9.727   2.182   2.509  0.5433  0.5675  0.0468
  448MOL0     C60358   9.592   2.167   2.429 -0.8008  0.4955 -0.2690
  448MOL0     C60359   9.499   2.271   2.468  0.3067  0.0471 -0.4332
  448MOL0     C60360   9.362   2.253   2.400  1.1635  0.0643 -0.6855
  448MOL0     C60361   9.263   2.371   2.437 -0.1101  0.2867 -0.0668
  448MOL0     N60362   9.129   2.361   2.381  0.0156  0.0357  0.7552
  448MOL0     C60363   9.104   2.403   2.257  0.1378 -0.5297  0.3401
  448MOL0     C60364   8.963   2.383   2.253 -0.4923  1.2224  0.1341
  448MOL0     C60365   8.878   2.420   2.136 -0.0878 -0.5462  0.9799
  448MOL0     C60366   8.737   2.464   2.167  0.0615 -0.0367  0.3054
  448MOL0     C60367   8.721   2.601   2.224 -0.3725 -0.2585  0.0529
  448MOL0     C60368   8.571   2.635   2.202 -0.5506  0.2749  0.6933
  448MOL0     O60369   8.515   2.713   2.312  0.7516 -0.3341 -0.3464
  448MOL0     C60370   8.377   2.752   2.310  0.1368  0.1350  0.4334
  448MOL0     C60371   8.348   2.855   2.401 -0.4249  0.3703 -0.4526
  448MOL0     C60372   8.220   2.890   2.427  0.1966 -0.5698  0.9624
  448MOL0     C60373   8.196   3.009   2.516 -0.1483 -0.4513 -0.4156
  448MOL0     C60374   8.115   2.801   2.374  0.6310  0.2209  0.4322
  448MOL0     C60375   7.972   2.814   2.408 -0.6724  0.6945 -1.1842
  448MOL0     O60376   7.881   2.734   2.338  0.1110 -0.0842 -1.0334
  448MOL0     C60377   7.762   2.707   2.403 -0.3361  0.2044  0.6680
  448MOL0     C60378   7.749   2.667   2.536 -0.2995 -0.6405  0.0757
  448MOL0     C60379   7.620   2.638   2.591 -0.4694 -0.8104  0.6168
  448MOL0     C60380   7.508   2.676   2.515  0.1022  0.6906 -0.4914
  448MOL0     O60381   7.380   2.652   2.566 -0.0595 -0.6594 -0.4071
  448MOL0     C60382   7.279   2.603   2.470 -0.1195 -0.6975 -0.1374
  448MOL0     C60383   7.143   2.572   2.537 -0.0658  0.3163  0.6426
  448MOL0     C60384   7.020   2.654   2.494  0.8803 -0.0638  1.1103
  448MOL0     C60385   6.903   2.625   2.575 -0.5532  0.4584 -0.2022
  448MOL0     C60386   6.782   2.697   2.528 -0.0576  0.1008 -0.2620
  448MOL0     C60387   6.668   2.653   2.631 -0.2311 -0.4080  0.6607
  448MOL0     C60388   6.532   2.688   2.567 -0.2965 -0.1174 -0.4282
  448MOL0     C60389   6.410   2.613   2.633  0.4695  0.0629 -0.4224
  448MOL0    Cl60390   6.267   2.677   2.554 -0.0814 -0.3863  0.4190
  448MOL0     C60391   7.525   2.715   2.379 -0.3780  0.1631 -0.0724
  448MOL0     C60392   7.654   2.730   2.323  0.2013 -0.1911 -0.3500
  448MOL0     O60393   7.942   2.900   2.491 -0.4106 -0.2407 -0.5510
  448MOL0     C60394   8.148   2.707   2.276  0.7211 -0.2972  0.5938
  448MOL0     C60395   8.279   2.684   2.241 -0.3919 -0.2839  0.6078
  448MOL0     N60396   8.915   2.331   2.379  0.1518 -0.4392 -0.6005
  448MOL0     N60397   9.023   2.319   2.455 -0.5450  0.0508 -0.4055
  448MOL0     C60398  10.424   2.194   2.574  0.1445  0.5134  0.0330
  448MOL0     C60399  10.545   2.258   2.538 -0.9997 -0.1924  0.5125
  448MOL0     C60400  10.861   2.530   2.330 -0.1142 -0.0085 -0.0293
  448MOL0     C60401  10.912   2.636   2.260  0.0803 -0.1054  0.0232
  448MOL0     C60402  11.043   2.682   2.260 -0.3455  0.2553  0.5091
  448MOL0     C60403  11.136   2.600   2.327 -0.5354  0.1248 -0.3325
  448MOL0     O60404  11.275   2.629   2.304  0.1025 -0.0579  0.1686
  448MOL0     C60405  11.371   2.545   2.364  0.1396  0.0270  0.5721
  448MOL0     C60406  11.515   2.591   2.336 -0.2881 -0.5135  0.1723
  448MOL0     C60407  11.541   2.733   2.400 -0.4530  0.1680  0.2233
  448MOL0     C60408  11.658   2.739   2.480  0.7274 -0.0309  0.2135
  448MOL0     C60409  11.776   2.735   2.397 -0.6629  0.5789 -0.1140
  448MOL0     C60410  11.873   2.747   2.326 -0.1291 -0.6949 -0.5293
  448MOL0     C60411  11.089   2.481   2.399  0.5907  0.1180 -0.3247
  448MOL0     C60412  10.956   2.454   2.401  0.2918  0.1264  0.1495
  448MOL0     H60413  10.472   2.391   2.249  2.5172 -2.6071 -2.0043
  448MOL0     H60414  10.250   2.285   2.294 -2.0229  0.4292  2.7688
  448MOL0     H60415  10.070   2.256   2.461  2.5040 -0.5480 -2.0803
  448MOL0     H60416  10.087   2.110   2.357 -0.1098  0.3173 -0.2765
  448MOL0     H60417   9.995   1.978   2.541  0.4975  0.7793  0.7670
  448MOL0     H60418   9.950   2.115   2.635  2.2527 -1.2648  0.9041
  448MOL0     H60419   9.854   2.135   2.353  1.7189  0.4698  1.0225
  448MOL0     H60420   9.781   1.997   2.426  1.1490 -1.0879  0.0466
  448MOL0     H60421   9.707   2.163   2.614  0.8434  1.6972  0.3215
  448MOL0     H60422   9.774   2.281   2.508  0.7838  0.4535 -0.7975
  448MOL0     H60423   9.619   2.179   2.323  1.4039  1.9701  0.3814
  448MOL0     H60424   9.554   2.065   2.437  1.0800 -0.1503  1.1724
  448MOL0     H60425   9.497   2.268   2.577 -0.8786 -0.1079 -0.4503
  448MOL0     H60426   9.528   2.374   2.443 -0.1288  1.0571  2.8373
  448MOL0     H60427   9.356   2.243   2.291 -0.9989 -0.8673 -0.5132
  448MOL0     H60428   9.312   2.167   2.443  0.3194  1.5064  1.3532
  448MOL0     H60429   9.311   2.462   2.402 -0.3959  0.2857 -0.4678
  448MOL0     H60430   9.243   2.387   2.543 -2.3814  1.9772 -0.6821
  448MOL0     H60431   9.170   2.446   2.183 -3.7995  0.9530 -2.6803
  448MOL0     H60432   8.925   2.490   2.066 -2.1857 -1.1434 -1.1800
  448MOL0     H60433   8.861   2.332   2.072 -2.7210  1.7566 -1.8062
  448MOL0     H60434   8.692   2.388   2.232 -1.4043  0.4881 -0.0357
  448MOL0     H60435   8.686   2.463   2.070  0.2080  2.3623  0.1490
  448MOL0     H60436   8.785   2.677   2.176  0.2976 -0.1613  1.0692
  448MOL0     H60437   8.747   2.588   2.329  0.0143 -3.7517 -0.3626
  448MOL0     H60438   8.525   2.536   2.207 -0.2588  0.0395 -0.8796
  448MOL0     H60439   8.570   2.667   2.097  0.3646 -3.2448 -0.5274
  448MOL0     H60440   8.431   2.893   2.461  0.0679 -3.0756  1.2968
  448MOL0     H60441   8.129   3.085   2.474  0.3850  0.4341  0.3158
  448MOL0     H60442   8.160   2.981   2.615  0.0420 -0.0055 -0.2194
  448MOL0     H60443   8.293   3.054   2.538 -0.0292 -0.2511 -1.2877
  448MOL0     H60444   7.839   2.643   2.592  1.6990  3.5120 -0.9573
  448MOL0     H60445   7.610   2.582   2.683 -3.2830  0.1027  0.9609
  448MOL0     H60446   7.267   2.690   2.405 -1.5278 -0.5665  0.2702
  448MOL0     H60447   7.307   2.520   2.404  0.6505 -2.8671  2.6951
  448MOL0     H60448   7.118   2.467   2.515  4.0481 -0.8746  0.8705
  448MOL0     H60449   7.154   2.588   2.645 -2.1329  2.3543  0.6348
  448MOL0     H60450   6.993   2.655   2.388 -1.3917  1.9160  1.6484
  448MOL0     H60451   7.039   2.760   2.513 -0.5452  0.4177  0.0281
  448MOL0     H60452   6.891   2.516   2.574  2.3393  0.0551 -0.9336
  448MOL0     H60453   6.927   2.651   2.678 -2.0758 -3.5089  1.3522
  448MOL0     H60454   6.751   2.665   2.428  2.6577 -2.0650 -0.5213
  448MOL0     H60455   6.792   2.806   2.529  0.0430  0.1664 -2.6590
  448MOL0     H60456   6.676   2.547   2.657 -1.0763 -0.6953 -0.2101
  448MOL0     H60457   6.676   2.699   2.730 -0.4265 -0.7467  0.8351
  448MOL0     H60458   6.531   2.656   2.462 -0.0133 -0.6061 -0.2887
  448MOL0     H60459   6.507   2.794   2.574 -0.1920 -0.1868  1.4607
  448MOL0     H60460   6.407   2.634   2.740 -1.5644  3.8005 -1.0709
  448MOL0     H60461   6.421   2.505   2.618  0.9484  0.2065 -1.1651
  448MOL0     H60462   7.439   2.754   2.325 -1.1363 -2.0886 -0.5964
  448MOL0     H60463   7.652   2.763   2.220  1.2416 -0.4831 -0.4801
  448MOL0     H60464   8.075   2.647   2.223 -0.3027 -0.6127  2.2654
  448MOL0     H60465   8.303   2.606   2.169 -0.9548  2.1553 -2.4800
  448MOL0     H60466  10.425   2.135   2.666 -0.6002  0.6744  0.1482
  448MOL0     H60467  10.624   2.235   2.609 -0.3347  1.4379  0.3489
  448MOL0     H60468  10.838   2.699   2.210 -0.5134  0.2391  1.2998
  448MOL0     H60469  11.085   2.757   2.193 -0.3583  1.1109  1.4305
  448MOL0     H60470  11.365   2.549   2.473  2.9272  0.9428  0.7797
  448MOL0     H60471  11.356   2.442   2.330 -0.6789  0.3767 -0.1693
  448MOL0     H60472  11.534   2.589   2.228 -1.3747 -1.1417 -0.0142
  448MOL0     H60473  11.576   2.519   2.392  0.5824 -0.3127 -0.4892
  448MOL0     H60474  11.459   2.759   2.468  1.9418 -0.4797  3.6047
  448MOL0     H60475  11.547   2.805   2.318 -1.4614 -0.4172 -0.3911
  448MOL0     H60476  11.660   2.651   2.545 -0.9688 -0.3036 -0.0557
  448MOL0     H60477  11.661   2.824   2.550  0.1061  0.9724 -0.9432
  448MOL0     H60478  11.957   2.755   2.260  0.0381  2.5895 -0.0549
  448MOL0     H60479  11.159   2.417   2.452 -1.2430 -0.9378  0.9078
  448MOL0     H60480  10.925   2.364   2.453 -3.0369  1.2582  0.4234
  449MOL0     O60481   2.118  10.973   2.290 -0.8511  0.2777  0.0759
  449MOL0     C60482   2.131  10.849   2.260  0.1120  0.5110 -0.5646
  449MOL0     O60483   2.032  10.758   2.262  0.3053  0.2458  0.1902
  449MOL0     C60484   1.910  10.798   2.311 -0.0319  0.6647  0.4365
  449MOL0     C60485   1.870  10.826   2.448 -0.6197 -0.0047 -0.0245
  449MOL0     C60486   1.739  10.857   2.480  0.0402 -0.8900 -0.1974
  449MOL0     C60487   1.638  10.850   2.383 -0.3318 -0.7433  0.2823
  449MOL0     O60488   1.502  10.861   2.403  0.1089  0.6908 -0.2330
  449MOL0     C60489   1.463  10.926   2.528 -0.2148 -0.1029  0.1634
  449MOL0     C60490   1.332  11.000   2.499 -0.0007  0.4359 -0.8169
  449MOL0     C60491   1.224  10.943   2.588  1.3613 -0.5501  0.7984
  449MOL0     C60492   1.111  11.051   2.611  1.0481  0.6629 -0.0069
  449MOL0     C60493   1.048  11.117   2.479 -0.4494  0.4575 -0.4564
  449MOL0     C60494   0.952  11.234   2.511 -0.4631 -0.0104  0.7908
  449MOL0     C60495   0.907  11.295   2.380 -0.1179 -0.1576 -0.0144
  449MOL0     C60496   0.816  11.416   2.398  0.3785 -0.7693  0.2647
  449MOL0     N60497   0.714  11.433   2.295  0.1471 -0.3971 -0.4893
  449MOL0     C60498   0.584  11.481   2.323 -0.3738 -1.6402  0.5044
  449MOL0     C60499   0.516  11.460   2.205  0.2982  0.6296 -0.4876
  449MOL0     C60500   0.373  11.491   2.191  0.6817 -0.6535 -0.1809
  449MOL0     C60501   0.311  11.418   2.078  0.2656 -0.4396 -0.2395
  449MOL0     C60502   0.270  11.270   2.111 -0.5548  0.0128  1.0322
  449MOL0     C60503   0.120  11.250   2.121  0.2984 -0.1043 -1.6301
  449MOL0     O60504   0.096  11.106   2.131  0.2959 -0.4078 -0.1367
  449MOL0     C60505   0.017  11.052   2.033 -0.8378  0.1739 -0.8858
  449MOL0     C60506  -0.117  11.044   2.063  0.4527  1.0751  0.5392
  449MOL0     C60507  -0.198  10.969   1.972 -0.1623  0.2553 -0.5451
  449MOL0     C60508  -0.335  10.944   2.035  0.2003  0.9017 -0.1107
  449MOL0     C60509  -0.149  10.896   1.855 -0.3954  0.0365  0.2958
  449MOL0     C60510  -0.231  10.808   1.764 -0.3196 -0.8930 -0.1096
  449MOL0     O60511  -0.360  10.783   1.799  0.0530 -0.7867  0.1659
  449MOL0     C60512  -0.456  10.710   1.730 -0.1411  0.6967 -0.4707
  449MOL0     C60513  -0.585  10.710   1.787  0.1710  1.0667  0.2773
  449MOL0     C60514  -0.693  10.633   1.729 -0.7212 -0.6736 -0.8164
  449MOL0     C60515  -0.675  10.572   1.604 -0.0125  0.1887  0.6278
  449MOL0     O60516  -0.782  10.505   1.550 -0.2656  0.0891 -0.4202
  449MOL0     C60517  -0.898  10.585   1.508 -0.4477 -0.7183 -0.4495
  449MOL0     C60518  -1.012  10.494   1.468 -0.3740  0.0003  0.3545
  449MOL0     C60519  -0.971  10.394   1.352 -0.3234 -0.8922 -0.2851
  449MOL0     C60520  -1.094  10.310   1.322 -0.0010  0.3181  0.4044
  449MOL0     C60521  -1.186  10.390   1.215 -0.2351 -0.2692 -0.0875
  449MOL0     C60522  -1.309  10.305   1.192 -0.7728  0.2321  0.4118
  449MOL0     C60523  -1.412  10.370   1.095  0.3675  0.5364 -0.1705
  449MOL0     C60524  -1.523  10.270   1.051  0.1194 -0.3870 -0.3961
  449MOL0    Cl60525  -1.617  10.202   1.180  0.3458  0.3335  0.0409
  449MOL0     C60526  -0.545  10.558   1.548 -0.0573 -1.2657 -0.0836
  449MOL0     C60527  -0.441  10.632   1.615  0.6200  0.3721 -0.0151
  449MOL0     O60528  -0.172  10.769   1.660  0.0407  0.3028 -0.1341
  449MOL0     C60529  -0.005  10.909   1.841 -0.0177 -0.5391  0.6204
  449MOL0     C60530   0.079  10.982   1.931 -0.4286 -0.6081  0.1614
  449MOL0     N60531   0.601  11.405   2.106 -0.6512 -0.5923 -0.0861
  449MOL0     N60532   0.714  11.395   2.164 -1.0144 -0.1721 -0.4102
  449MOL0     C60533   1.682  10.825   2.255 -0.2368 -0.1342  0.8082
  449MOL0     C60534   1.811  10.796   2.221  0.3732 -0.0247  0.2726
  449MOL0     C60535   2.261  10.798   2.221 -0.3361 -0.9767 -0.3149
  449MOL0     C60536   2.284  10.662   2.165  0.0882  0.1552 -0.8639
  449MOL0     C60537   2.409  10.624   2.127 -0.0601  0.0657  0.5627
  449MOL0     C60538   2.526  10.703   2.161  0.9099  0.4546  0.2280
  449MOL0     O60539   2.657  10.664   2.127  0.1136  0.2578 -0.2606
  449MOL0     C60540   2.685  10.533   2.092  0.0802  0.3839  0.7039
  449MOL0     C60541   2.715  10.429   2.204 -0.3452 -0.2143 -0.2802
  449MOL0     C60542   2.819  10.492   2.295 -0.1240  0.0288  1.0807
  449MOL0     C60543   2.862  10.405   2.415  0.1249 -0.3847 -0.0618
  449MOL0     C60544   2.783  10.422   2.538  0.5544 -0.4481  0.4601
  449MOL0     C60545   2.701  10.411   2.631  0.6903  0.7043  0.5355
  449MOL0     C60546   2.508  10.828   2.222  0.4263  0.2133 -0.5310
  449MOL0     C60547   2.379  10.871   2.245 -0.7501 -0.5684 -0.2079
  449MOL0     H60548   1.937  10.826   2.534 -0.2510  0.4053 -0.3110
  449MOL0     H60549   1.714  10.876   2.584 -0.2268  2.2696 -0.7347
  449MOL0     H60550   1.462  10.860   2.615 -5.6701 -0.8018 -0.1230
  449MOL0     H60551   1.537  11.006   2.540 -0.1680  0.0992 -1.2566
  449MOL0     H60552   1.350  11.105   2.525  1.5530  0.4524 -1.8192
  449MOL0     H60553   1.317  10.998   2.391  1.3526  0.7486 -1.0393
  449MOL0     H60554   1.196  10.850   2.537  0.6701  1.4879 -2.9427
  449MOL0     H60555   1.250  10.916   2.691  1.2433 -1.6003  0.5708
  449MOL0     H60556   1.026  11.005   2.662  1.1942  0.8661  0.4220
  449MOL0     H60557   1.158  11.128   2.673  3.7725  0.8354 -2.0882
  449MOL0     H60558   1.134  11.159   2.426  0.6585  1.1621  1.7714
  449MOL0     H60559   0.995  11.041   2.421 -2.5928  0.1564  1.7133
  449MOL0     H60560   0.862  11.200   2.564 -0.0818  0.2969  1.6461
  449MOL0     H60561   1.009  11.306   2.570  0.5382  0.3880 -0.6136
  449MOL0     H60562   0.993  11.322   2.318  0.2201  0.1588  0.5847
  449MOL0     H60563   0.850  11.216   2.329  0.1565 -1.7466  1.9999
  449MOL0     H60564   0.870  11.511   2.397 -1.4700  0.4041 -3.3302
  449MOL0     H60565   0.760  11.418   2.492 -0.8530  0.2016 -0.4633
  449MOL0     H60566   0.552  11.517   2.420  1.7467  4.4638 -0.6513
  449MOL0     H60567   0.321  11.464   2.283  0.3656  2.1682  0.5359
  449MOL0     H60568   0.358  11.598   2.177 -1.4292 -0.8811  0.0545
  449MOL0     H60569   0.376  11.421   1.990  0.0020  2.8799 -0.4215
  449MOL0     H60570   0.222  11.467   2.039 -0.3722 -2.0569 -0.9097
  449MOL0     H60571   0.311  11.224   2.201 -3.0175 -1.5303  1.4876
  449MOL0     H60572   0.307  11.216   2.024  1.7037  2.4941  0.3279
  449MOL0     H60573   0.071  11.295   2.034  0.9162 -0.1866 -2.0241
  449MOL0     H60574   0.084  11.304   2.208  2.5697  2.5058 -2.1717
  449MOL0     H60575  -0.167  11.091   2.147 -0.4525  0.5089  0.3356
  449MOL0     H60576  -0.341  10.998   2.129  2.1414 -0.1228  0.6578
  449MOL0     H60577  -0.419  10.982   1.976 -0.8743 -0.6062  0.3826
  449MOL0     H60578  -0.346  10.838   2.060 -0.7156  0.7329 -1.1434
  449MOL0     H60579  -0.589  10.782   1.869  0.6869  1.5869 -0.1489
  449MOL0     H60580  -0.787  10.640   1.783  0.2509  2.7656  0.7283
  449MOL0     H60581  -0.932  10.646   1.592  0.1142 -2.4615  1.1077
  449MOL0     H60582  -0.874  10.652   1.425 -0.7259  1.8945  1.4544
  449MOL0     H60583  -1.052  10.441   1.555 -3.7919 -1.4067 -1.8952
  449MOL0     H60584  -1.090  10.558   1.425  0.3371  0.7014  0.0657
  449MOL0     H60585  -0.893  10.327   1.389  0.8676  1.1795  1.1618
  449MOL0     H60586  -0.932  10.447   1.265  3.0307 -2.7480 -0.0752
  449MOL0     H60587  -1.069  10.210   1.284 -0.8055 -0.5301  1.9927
  449MOL0     H60588  -1.151  10.286   1.412  0.3221 -1.9575  0.0801
  449MOL0     H60589  -1.129  10.416   1.125  0.5062  2.1973  1.0085
  449MOL0     H60590  -1.225  10.485   1.251 -2.7553 -0.1108 -2.8648
  449MOL0     H60591  -1.274  10.207   1.159  0.6113  0.2310  1.7842
  449MOL0     H60592  -1.366  10.299   1.285  1.2021  0.5463  1.7002
  449MOL0     H60593  -1.365  10.388   0.998 -0.3838 -3.3654 -1.4685
  449MOL0     H60594  -1.459  10.460   1.135 -2.9460 -0.9002 -0.4306
  449MOL0     H60595  -1.477  10.190   0.991 -1.9749 -2.9345  1.1533
  449MOL0     H60596  -1.595  10.309   0.978  0.1549 -0.4287 -0.4539
  449MOL0     H60597  -0.531  10.523   1.446  0.0764  1.4133 -1.0724
  449MOL0     H60598  -0.344  10.633   1.566 -0.0878 -3.2760 -1.7899
  449MOL0     H60599   0.042  10.844   1.769 -0.0726 -0.0194  0.1116
  449MOL0     H60600   0.187  10.971   1.928  0.0451  2.6964  1.2181
  449MOL0     H60601   1.599  10.832   2.186 -2.3006  1.6714  3.2966
  449MOL0     H60602   1.830  10.755   2.122 -0.7962  0.0059  0.0245
  449MOL0     H60603   2.203  10.593   2.140  2.2728 -1.9614 -2.5556
  449MOL0     H60604   2.406  10.531   2.072 -0.1276  0.2271  0.2935
  449MOL0     H60605   2.614  10.496   2.018  3.1048 -0.9920 -1.7346
  449MOL0     H60606   2.779  10.538   2.037  0.3820 -2.9500  0.7242
  449MOL0     H60607   2.754  10.332   2.173  0.3551 -0.6497  1.8039
  449MOL0     H60608   2.631  10.410   2.271  0.7867  3.6865  2.6447
  449MOL0     H60609   2.788  10.592   2.326  1.6033  0.6524  0.8945
  449MOL0     H60610   2.901  10.509   2.224 -2.2239  1.4603 -1.1597
  449MOL0     H60611   2.962  10.434   2.449 -0.1916 -0.6674  1.1585
  449MOL0     H60612   2.852  10.300   2.387  0.3438 -0.7567  1.1878
  449MOL0     H60613   2.624  10.408   2.706 -1.1062  3.1414 -1.0566
  449MOL0     H60614   2.590  10.896   2.239 -1.1555  1.6456  1.9423
  449MOL0     H60615   2.378  10.973   2.280 -1.9450 -0.5457 -0.2698
  450MOL0     O60616   2.008   8.879   3.706  0.1616  0.1408 -0.0039
  450MOL0     C60617   2.113   8.813   3.718  0.3892 -0.2684 -0.3430
  450MOL0     O60618   2.124   8.677   3.736  0.2048  0.0331  0.3343
  450MOL0     C60619   2.000   8.622   3.762 -0.0925 -0.0210 -0.2734
  450MOL0     C60620   1.971   8.557   3.887 -0.0227 -0.3104  0.9495
  450MOL0     C60621   1.853   8.476   3.909 -0.6378  0.0606  0.3403
  450MOL0     C60622   1.752   8.466   3.816 -0.1875 -0.5268  0.3743
  450MOL0     O60623   1.639   8.398   3.853 -0.3864 -0.0182  0.9853
  450MOL0     C60624   1.531   8.380   3.764  0.1113 -0.4302  0.0179
  450MOL0     C60625   1.414   8.301   3.834 -0.7970  0.4836 -0.6466
  450MOL0     C60626   1.360   8.201   3.733 -0.5243 -0.5721 -0.9225
  450MOL0     C60627   1.284   8.080   3.792  0.2280 -0.5028 -0.4619
  450MOL0     C60628   1.237   7.972   3.697  0.3380 -0.4616 -0.5578
  450MOL0     C60629   1.158   8.025   3.575  0.3814 -0.2623 -0.0128
  450MOL0     C60630   1.125   7.908   3.476  0.5252 -0.4796 -0.5933
  450MOL0     C60631   1.036   7.960   3.361 -0.3171  0.3855 -0.0416
  450MOL0     N60632   1.109   8.010   3.243 -0.7354 -0.3330  0.2125
  450MOL0     C60633   1.167   7.925   3.157  0.2641  0.4665  0.0389
  450MOL0     C60634   1.257   7.987   3.075 -0.1316  0.0740 -0.3657
  450MOL0     C60635   1.353   7.946   2.970  0.6620  0.2701 -0.4707
  450MOL0     C60636   1.296   8.004   2.836 -0.1872 -0.9771  0.4289
  450MOL0     C60637   1.152   7.950   2.816  1.0522 -0.2532  0.4184
  450MOL0     C60638   1.100   8.003   2.684  0.3559  0.7895 -0.2646
  450MOL0     O60639   1.104   8.147   2.663  0.0128  0.5656 -0.2165
  450MOL0     C60640   0.998   8.226   2.673  0.3451 -0.9861 -0.7257
  450MOL0     C60641   1.017   8.367   2.658 -0.3269 -0.0432  0.2548
  450MOL0     C60642   0.915   8.460   2.684  0.3793 -0.0773 -0.5649
  450MOL0     C60643   0.934   8.601   2.625  0.3435  0.1294 -0.6425
  450MOL0     C60644   0.783   8.411   2.724  0.7017  0.0620  0.2803
  450MOL0     C60645   0.665   8.501   2.730 -0.0836 -0.1140  0.7743
  450MOL0     O60646   0.685   8.620   2.789 -0.1086 -0.2593 -0.2533
  450MOL0     C60647   0.593   8.722   2.787 -0.1049 -0.0960 -0.3401
  450MOL0     C60648   0.592   8.817   2.690 -0.0065 -0.1921  0.5140
  450MOL0     C60649   0.507   8.927   2.684  0.5389 -0.5668  0.6194
  450MOL0     C60650   0.413   8.944   2.795  0.3413 -0.5090 -0.6517
  450MOL0     O60651   0.320   9.045   2.809 -0.5082  0.3767 -0.5304
  450MOL0     C60652   0.211   9.043   2.714 -0.4139  0.1043 -0.3539
  450MOL0     C60653   0.090   9.095   2.783 -0.9483  0.1461  0.1642
  450MOL0     C60654   0.046   9.003   2.902  0.0478  0.0286 -0.9028
  450MOL0     C60655  -0.099   9.024   2.948 -0.3010 -0.2254 -0.8138
  450MOL0     C60656  -0.116   9.141   3.044 -0.7062 -0.6792  0.8745
  450MOL0     C60657  -0.261   9.178   3.070 -0.1375 -0.0962  0.1111
  450MOL0     C60658  -0.267   9.296   3.170 -0.2678 -0.0099 -0.7857
  450MOL0     C60659  -0.397   9.293   3.265 -0.5036 -0.1060 -0.3842
  450MOL0    Cl60660  -0.546   9.265   3.169  0.2555 -0.1614 -0.0448
  450MOL0     C60661   0.412   8.845   2.898 -0.1332 -0.5114 -0.7276
  450MOL0     C60662   0.507   8.733   2.895  1.3742 -0.6039  0.6590
  450MOL0     O60663   0.551   8.460   2.693  0.4344  0.6983  0.3815
  450MOL0     C60664   0.766   8.276   2.731  0.3149  0.0752 -0.2951
  450MOL0     C60665   0.871   8.183   2.709 -0.0747 -0.3679 -0.7523
  450MOL0     N60666   1.258   8.114   3.128 -1.2519 -0.1057 -1.0328
  450MOL0     N60667   1.167   8.128   3.221 -0.3811 -0.5406 -0.2244
  450MOL0     C60668   1.777   8.537   3.691 -0.0973  0.5352 -0.4141
  450MOL0     C60669   1.895   8.608   3.663 -0.7996 -0.4685 -0.1871
  450MOL0     C60670   2.238   8.890   3.702  0.1596  0.0705 -0.2247
  450MOL0     C60671   2.365   8.825   3.696  0.1571 -0.0613 -0.4525
  450MOL0     C60672   2.477   8.907   3.673 -0.5905 -0.0439 -0.7886
  450MOL0     C60673   2.475   9.043   3.640  0.6674 -0.2944 -0.3558
  450MOL0     O60674   2.577   9.112   3.585  0.0934 -0.1181  0.1664
  450MOL0     C60675   2.539   9.183   3.469  0.2173  0.5399 -0.1367
  450MOL0     C60676   2.659   9.237   3.393 -0.0576 -0.0581 -0.8352
  450MOL0     C60677   2.777   9.144   3.397  0.5445 -0.0984  0.4747
  450MOL0     C60678   2.900   9.209   3.340  0.1338  0.4010 -0.0669
  450MOL0     C60679   2.918   9.226   3.200 -0.3063  0.2451  0.1468
  450MOL0     C60680   2.947   9.243   3.083  1.3243  0.2864 -0.3588
  450MOL0     C60681   2.345   9.098   3.643  0.2632  0.0101 -0.4012
  450MOL0     C60682   2.233   9.022   3.686 -0.1360 -0.0767  0.9048
  450MOL0     H60683   2.059   8.570   3.948  3.0143 -0.2417 -3.0065
  450MOL0     H60684   1.842   8.424   4.003  2.8746 -0.7035  0.4802
  450MOL0     H60685   1.494   8.480   3.739  1.3733  0.7547  2.4962
  450MOL0     H60686   1.556   8.337   3.667 -0.8978 -1.4415  0.1895
  450MOL0     H60687   1.449   8.257   3.928 -0.8388  2.3683  0.2998
  450MOL0     H60688   1.326   8.358   3.866  0.0609  0.7709  1.3243
  450MOL0     H60689   1.306   8.251   3.652 -0.5962 -1.2601 -1.3051
  450MOL0     H60690   1.443   8.149   3.684 -0.6261  0.3991 -2.1938
  450MOL0     H60691   1.345   8.038   3.872  0.0632 -3.3744 -1.7128
  450MOL0     H60692   1.193   8.120   3.838  1.9113  0.0453  2.6972
  450MOL0     H60693   1.328   7.934   3.650  0.9451 -1.9479  1.6670
  450MOL0     H60694   1.178   7.891   3.741  0.8306 -1.3585 -1.5070
  450MOL0     H60695   1.061   8.063   3.608  1.1634  1.3777  0.4904
  450MOL0     H60696   1.211   8.108   3.527  0.6859 -0.9220 -0.8274
  450MOL0     H60697   1.217   7.862   3.437  0.6830 -1.5168  0.8771
  450MOL0     H60698   1.078   7.824   3.528  1.3888  0.7987  2.4634
  450MOL0     H60699   0.965   8.037   3.393  3.2554  3.6985  0.6701
  450MOL0     H60700   0.973   7.872   3.341 -2.3810  1.4019  1.5884
  450MOL0     H60701   1.144   7.818   3.153 -2.7510  1.0213 -3.6945
  450MOL0     H60702   1.451   7.985   2.997  0.5264 -0.6544  1.5306
  450MOL0     H60703   1.351   7.837   2.962  1.0999  0.2643 -0.4734
  450MOL0     H60704   1.373   7.980   2.761 -0.3703  0.3890 -0.2267
  450MOL0     H60705   1.284   8.113   2.834  0.9155 -0.8539 -0.9124
  450MOL0     H60706   1.091   7.985   2.900 -1.0889 -1.7027 -0.4521
  450MOL0     H60707   1.155   7.841   2.808  1.8076 -0.1281 -1.3906
  450MOL0     H60708   0.998   7.968   2.672 -1.0948  4.5341 -0.1987
  450MOL0     H60709   1.160   7.957   2.604  2.2778  2.4457  0.1309
  450MOL0     H60710   1.113   8.412   2.632  0.8930 -2.6844 -0.1142
  450MOL0     H60711   0.913   8.670   2.707 -0.7644  0.4042 -1.1485
  450MOL0     H60712   1.037   8.622   2.595  2.0408 -1.5963  3.1860
  450MOL0     H60713   0.867   8.626   2.543 -0.8788 -1.0539 -0.0334
  450MOL0     H60714   0.661   8.795   2.609  1.3873  0.2760  1.5463
  450MOL0     H60715   0.502   8.996   2.601  0.8646 -0.4534  0.6902
  450MOL0     H60716   0.238   9.100   2.625  0.1467 -2.4722 -1.9676
  450MOL0     H60717   0.191   8.937   2.692 -0.5822 -0.0953  0.6945
  450MOL0     H60718   0.094   9.199   2.814  0.5321  0.4523 -0.9548
  450MOL0     H60719   0.016   9.084   2.702 -0.0159 -3.5263 -0.3559
  450MOL0     H60720   0.120   9.012   2.983 -0.2368 -0.3896 -0.5909
  450MOL0     H60721   0.055   8.897   2.874 -0.4834  0.2954 -2.0919
  450MOL0     H60722  -0.163   9.034   2.859 -1.2294 -1.1885 -0.2698
  450MOL0     H60723  -0.140   8.936   2.998 -0.2338 -0.1955 -0.7067
  450MOL0     H60724  -0.071   9.229   2.997  0.3006 -1.4742  0.3045
  450MOL0     H60725  -0.062   9.103   3.131  1.0503 -0.5624 -0.1139
  450MOL0     H60726  -0.319   9.197   2.979 -0.3555 -1.6089 -0.0798
  450MOL0     H60727  -0.312   9.092   3.115 -2.7173 -0.2446 -2.7804
  450MOL0     H60728  -0.255   9.393   3.121 -0.8000 -0.2822 -1.4840
  450MOL0     H60729  -0.181   9.280   3.236 -0.7046  2.0510  0.3647
  450MOL0     H60730  -0.406   9.387   3.322 -1.1422 -0.4402  0.0724
  450MOL0     H60731  -0.382   9.220   3.345  1.3227  1.8652  1.2364
  450MOL0     H60732   0.340   8.850   2.979 -0.3646  2.0297 -1.0237
  450MOL0     H60733   0.498   8.672   2.984  1.1406  0.2318  1.2259
  450MOL0     H60734   0.664   8.240   2.745 -0.1465 -0.3040 -3.7623
  450MOL0     H60735   0.852   8.078   2.723 -0.6410 -0.3019 -0.9842
  450MOL0     H60736   1.694   8.545   3.621 -0.4213 -1.9929 -0.4133
  450MOL0     H60737   1.912   8.655   3.566 -1.9168  2.4125  0.9068
  450MOL0     H60738   2.380   8.719   3.713 -2.6378 -0.4931 -0.2834
  450MOL0     H60739   2.573   8.860   3.657  0.7393  0.9397  3.1702
  450MOL0     H60740   2.498   9.112   3.396 -0.3494 -1.5408  2.0870
  450MOL0     H60741   2.472   9.267   3.490 -0.5208 -0.5913  2.3505
  450MOL0     H60742   2.694   9.327   3.444 -0.4410 -0.5126  0.2650
  450MOL0     H60743   2.631   9.253   3.288 -1.4972 -3.1643 -1.0269
  450MOL0     H60744   2.741   9.053   3.347  0.7857 -1.0918  2.0569
  450MOL0     H60745   2.794   9.113   3.500  2.7712  2.7037  1.0767
  450MOL0     H60746   2.985   9.153   3.379 -2.1239 -3.5191 -0.3163
  450MOL0     H60747   2.911   9.307   3.390 -1.3227  1.5743 -1.9149
  450MOL0     H60748   2.963   9.253   2.977  1.5198 -0.3623 -0.3972
  450MOL0     H60749   2.322   9.202   3.621 -2.3102 -0.1580  1.0735
  450MOL0     H60750   2.142   9.081   3.687 -0.1123  0.0434 -0.8272
  451MOL0     O60751   8.427  10.799   4.561 -0.4231  1.0042 -0.2465
  451MOL0     C60752   8.541  10.802   4.616 -0.1983  0.5488 -0.4298
  451MOL0     O60753   8.655  10.838   4.557  0.2817  0.4815 -0.2115
  451MOL0     C60754   8.636  10.866   4.420 -0.5025 -0.0452 -0.1646
  451MOL0     C60755   8.677  10.768   4.330  0.0819  0.6965 -0.2372
  451MOL0     C60756   8.664  10.787   4.194 -0.0894 -1.4583 -0.3151
  451MOL0     C60757   8.616  10.910   4.147  0.0575  0.3581 -0.8935
  451MOL0     O60758   8.582  10.928   4.017 -0.6758  1.0514  0.0563
  451MOL0     C60759   8.677  10.987   3.934 -0.5124  0.5021  0.1666
  451MOL0     C60760   8.625  11.014   3.790  0.2570  0.5908 -0.3196
  451MOL0     C60761   8.537  11.137   3.784  0.4733  0.2515 -0.2897
  451MOL0     C60762   8.415  11.132   3.868 -0.2049 -0.0515  0.5432
  451MOL0     C60763   8.303  11.227   3.830 -0.4297 -0.1565  1.0188
  451MOL0     C60764   8.172  11.196   3.904 -0.4757 -0.4580  1.0387
  451MOL0     C60765   8.050  11.264   3.833 -0.2052  0.2378 -0.3997
  451MOL0     C60766   7.920  11.218   3.898 -1.3939  0.0006  0.0655
  451MOL0     N60767   7.799  11.269   3.831  0.3128  0.3035 -0.5681
  451MOL0     C60768   7.780  11.319   3.699  0.1749 -0.0146 -0.1349
  451MOL0     C60769   7.650  11.359   3.697 -0.1329 -0.5226 -0.1027
  451MOL0     C60770   7.582  11.423   3.573 -0.3059 -0.4586 -0.0668
  451MOL0     C60771   7.477  11.532   3.619  0.1902  1.2322 -0.1375
  451MOL0     C60772   7.347  11.465   3.673 -0.1167  0.3095 -0.0039
  451MOL0     C60773   7.229  11.572   3.667  0.3060 -0.4070  0.0175
  451MOL0     O60774   7.118  11.501   3.714 -0.1760 -0.3808 -0.0483
  451MOL0     C60775   6.986  11.551   3.691 -0.4068  0.0134  0.7575
  451MOL0     C60776   6.873  11.472   3.715  0.4718  0.0578 -0.4509
  451MOL0     C60777   6.742  11.520   3.704  1.1826 -0.5770  0.3194
  451MOL0     C60778   6.634  11.413   3.740  1.2551 -0.0227 -0.4877
  451MOL0     C60779   6.716  11.656   3.661 -0.9733  0.5928 -0.5393
  451MOL0     C60780   6.582  11.717   3.650 -0.1753  0.7008  0.3049
  451MOL0     O60781   6.464  11.647   3.671 -0.0593 -1.1401  0.2913
  451MOL0     C60782   6.347  11.722   3.648  0.5026 -0.6903  0.3138
  451MOL0     C60783   6.320  11.837   3.730  0.0229 -0.4055  0.3727
  451MOL0     C60784   6.209  11.915   3.704 -0.1242  0.5361 -0.7920
  451MOL0     C60785   6.113  11.877   3.610  0.0910 -0.4296  0.0002
  451MOL0     O60786   6.002  11.958   3.593  0.2930  1.1826 -0.1701
  451MOL0     C60787   5.879  11.885   3.563  0.6480 -0.0500  0.6592
  451MOL0     C60788   5.766  11.994   3.562  0.5691 -0.8135  0.5994
  451MOL0     C60789   5.738  12.055   3.701 -0.1271 -0.1678  1.1184
  451MOL0     C60790   5.624  12.157   3.681  0.0452 -1.0579 -0.1274
  451MOL0     C60791   5.613  12.246   3.806  0.6958 -0.8319 -0.2534
  451MOL0     C60792   5.473  12.309   3.810  0.3717 -0.5050 -0.1866
  451MOL0     C60793   5.438  12.377   3.946  0.2523 -0.6546  0.5500
  451MOL0     C60794   5.413  12.277   4.058 -1.0917 -1.3702 -0.0276
  451MOL0    Cl60795   5.327  12.371   4.184  0.5341  0.5302  0.0530
  451MOL0     C60796   6.142  11.765   3.529  0.1281 -0.4498  0.2776
  451MOL0     C60797   6.250  11.690   3.554  0.0421 -0.0416 -0.6222
  451MOL0     O60798   6.587  11.825   3.607  0.0617 -1.0085 -0.1115
  451MOL0     C60799   6.838  11.725   3.629 -0.2942 -0.7163 -0.2241
  451MOL0     C60800   6.968  11.678   3.649 -0.0075 -0.0740 -0.4797
  451MOL0     N60801   7.600  11.347   3.829  0.1338  0.0855  0.2771
  451MOL0     N60802   7.694  11.294   3.907  0.6524  0.4037 -0.2173
  451MOL0     C60803   8.579  11.010   4.241 -0.2605  0.4702 -0.1950
  451MOL0     C60804   8.588  10.986   4.375  0.0250 -0.6513 -0.2789
  451MOL0     C60805   8.562  10.761   4.758  0.2059 -0.6931  0.5960
  451MOL0     C60806   8.676  10.811   4.822 -0.1304 -1.0127  0.5543
  451MOL0     C60807   8.702  10.783   4.958  0.1521  0.6566  1.0934
  451MOL0     C60808   8.620  10.694   5.023 -0.0518 -0.8740  0.3372
  451MOL0     O60809   8.624  10.671   5.155  0.6182  0.2097 -0.7128
  451MOL0     C60810   8.608  10.773   5.254  0.7119  0.4253  0.4750
  451MOL0     C60811   8.707  10.754   5.368 -0.1069  0.3895 -0.2605
  451MOL0     C60812   8.840  10.796   5.323  0.0797 -0.6079 -0.0156
  451MOL0     C60813   8.956  10.765   5.410  0.1993  0.1348 -0.6893
  451MOL0     C60814   9.088  10.831   5.374 -1.1560  0.6995 -0.1601
  451MOL0     C60815   9.183  10.898   5.342 -0.6740 -0.0014 -0.1535
  451MOL0     C60816   8.495  10.661   4.959 -0.4014  0.2059 -0.9073
  451MOL0     C60817   8.469  10.681   4.829  0.0559  0.1981  0.1577
  451MOL0     H60818   8.716  10.680   4.379  0.5154 -0.0321 -1.8483
  451MOL0     H60819   8.707  10.721   4.120  1.3386  1.6146 -2.4456
  451MOL0     H60820   8.700  11.089   3.967  1.9155  0.3184 -0.7612
  451MOL0     H60821   8.775  10.941   3.939 -0.3322  0.8722  0.1116
  451MOL0     H60822   8.713  11.028   3.727  0.7927  3.0391  0.8711
  451MOL0     H60823   8.563  10.935   3.746 -0.1807  1.4628 -1.3187
  451MOL0     H60824   8.581  11.233   3.812 -1.5856  0.6024  2.1757
  451MOL0     H60825   8.507  11.144   3.679  2.6216 -0.3921 -0.9896
  451MOL0     H60826   8.370  11.032   3.870 -2.1870  0.7647 -0.1973
  451MOL0     H60827   8.451  11.160   3.967 -2.3587  1.3150  1.0064
  451MOL0     H60828   8.318  11.335   3.830 -3.2930  0.4274 -2.4030
  451MOL0     H60829   8.291  11.202   3.724  0.8314 -0.4629  0.9402
  451MOL0     H60830   8.157  11.087   3.907  0.0424 -0.5464  0.6346
  451MOL0     H60831   8.184  11.240   4.003 -0.3100 -0.3343  0.9639
  451MOL0     H60832   8.056  11.373   3.848 -0.3756  0.0866  0.9455
  451MOL0     H60833   8.048  11.249   3.725  0.0162  3.6963 -1.0243
  451MOL0     H60834   7.915  11.254   4.001 -0.1795  0.2069  0.0645
  451MOL0     H60835   7.921  11.109   3.900  2.2308 -0.1358 -1.7093
  451MOL0     H60836   7.857  11.320   3.623  0.4127  5.1147 -0.1449
  451MOL0     H60837   7.662  11.465   3.512 -0.0859 -2.9375 -1.6093
  451MOL0     H60838   7.543  11.339   3.515 -0.0271  0.4093 -1.5541
  451MOL0     H60839   7.455  11.605   3.540 -2.7458 -0.1331 -0.7151
  451MOL0     H60840   7.520  11.591   3.700 -0.9289  1.2961  0.4405
  451MOL0     H60841   7.372  11.427   3.772  0.9987 -1.8314 -1.0448
  451MOL0     H60842   7.308  11.387   3.606 -1.7366  0.1025  1.1240
  451MOL0     H60843   7.223  11.601   3.562  5.1914 -2.1908 -1.0268
  451MOL0     H60844   7.253  11.657   3.732 -2.4065  1.2151 -0.9481
  451MOL0     H60845   6.888  11.372   3.754 -1.1520 -1.5349 -3.4910
  451MOL0     H60846   6.575  11.436   3.829  1.1408  1.8830 -1.0005
  451MOL0     H60847   6.559  11.411   3.660  0.0384  0.8413  0.6031
  451MOL0     H60848   6.676  11.313   3.755 -1.9306 -1.3049  0.7249
  451MOL0     H60849   6.389  11.869   3.808  1.0546  1.3414 -1.1687
  451MOL0     H60850   6.190  11.986   3.783  0.4418  0.0723 -0.2275
  451MOL0     H60851   5.870  11.831   3.468  1.8273 -1.1797  1.1572
  451MOL0     H60852   5.848  11.808   3.634 -1.4755 -0.3839 -0.5382
  451MOL0     H60853   5.789  12.077   3.494 -0.1158  0.3767  1.7721
  451MOL0     H60854   5.677  11.942   3.526 -0.2554  0.0048  1.3828
  451MOL0     H60855   5.829  12.104   3.738 -0.2577  1.5666 -0.7033
  451MOL0     H60856   5.705  11.982   3.776 -1.0064 -3.9820 -2.6166
  451MOL0     H60857   5.654  12.215   3.593  0.4551  1.0306  1.3092
  451MOL0     H60858   5.532  12.100   3.665 -2.2474  2.3014  0.1206
  451MOL0     H60859   5.688  12.325   3.816 -1.8471  1.9316 -1.3735
  451MOL0     H60860   5.622  12.183   3.894  1.7034 -0.1428  0.1516
  451MOL0     H60861   5.465  12.376   3.724 -0.6410  1.3068  1.2524
  451MOL0     H60862   5.393  12.235   3.794 -1.0941  1.3193 -1.8438
  451MOL0     H60863   5.346  12.434   3.936  0.3693  0.0917  2.9233
  451MOL0     H60864   5.517  12.450   3.967  0.3006 -0.8011  0.8850
  451MOL0     H60865   5.499  12.229   4.106 -2.3963 -2.7092  1.0721
  451MOL0     H60866   5.348  12.196   4.026 -2.3965 -1.0115  1.5995
  451MOL0     H60867   6.065  11.739   3.457 -1.3263 -2.0032  2.2667
  451MOL0     H60868   6.277  11.600   3.499 -0.0834  0.9418 -2.3788
  451MOL0     H60869   6.825  11.821   3.581  3.1367  1.2906  2.3667
  451MOL0     H60870   7.052  11.738   3.616  0.6269 -2.1528 -3.0341
  451MOL0     H60871   8.537  11.102   4.203 -0.8967 -1.2356 -4.0566
  451MOL0     H60872   8.571  11.069   4.443  2.2752  1.0676 -1.6721
  451MOL0     H60873   8.751  10.878   4.781  1.3364 -2.9969 -0.1840
  451MOL0     H60874   8.790  10.829   5.002  0.6093  2.9635 -1.9132
  451MOL0     H60875   8.627  10.872   5.213  1.1521  0.8729  1.7157
  451MOL0     H60876   8.503  10.771   5.286  0.4724 -0.4410 -0.3364
  451MOL0     H60877   8.725  10.651   5.401 -0.2395  0.8083  1.1973
  451MOL0     H60878   8.674  10.822   5.446 -1.1263  0.2628 -0.5616
  451MOL0     H60879   8.834  10.902   5.299  1.1090 -0.6556 -0.5457
  451MOL0     H60880   8.856  10.740   5.231 -2.7343  0.7275 -1.4398
  451MOL0     H60881   8.960  10.656   5.413 -1.2127  0.0901  0.5730
  451MOL0     H60882   8.917  10.796   5.507  0.9667 -1.9903  0.3552
  451MOL0     H60883   9.273  10.957   5.331  0.7322 -2.0169  0.0582
  451MOL0     H60884   8.420  10.615   5.023  1.2185 -2.5600 -0.8281
  451MOL0     H60885   8.380  10.648   4.778  0.9943  0.6791 -1.9008
  452MOL0     O60886   6.330   7.569   6.647 -0.3002 -0.5375 -0.0330
  452MOL0     C60887   6.258   7.580   6.546 -0.0210  0.8614 -1.4828
  452MOL0     O60888   6.293   7.576   6.414 -1.0426  0.2923  0.3946
  452MOL0     C60889   6.424   7.565   6.380 -0.0585  0.4172 -0.3046
  452MOL0     C60890   6.450   7.606   6.252  0.1378 -0.5261 -0.5762
  452MOL0     C60891   6.583   7.610   6.194  0.1285 -0.1692  0.3591
  452MOL0     C60892   6.695   7.560   6.260  0.6139 -0.2701 -0.9857
  452MOL0     O60893   6.812   7.565   6.199  0.6293  0.1218  0.0553
  452MOL0     C60894   6.914   7.473   6.238  0.6473 -0.1983  0.1583
  452MOL0     C60895   7.004   7.432   6.117 -0.2817 -0.0984  0.1219
  452MOL0     C60896   6.970   7.299   6.034 -0.2740 -0.1029 -0.0697
  452MOL0     C60897   6.858   7.333   5.945 -0.4924 -0.1577 -0.5613
  452MOL0     C60898   6.802   7.215   5.860  0.3094  0.7643 -0.3364
  452MOL0     C60899   6.668   7.263   5.799  0.7637  0.3246  0.6288
  452MOL0     C60900   6.625   7.172   5.685 -0.1217 -0.9984  0.6973
  452MOL0     C60901   6.571   7.042   5.739 -0.2167 -0.1670  0.5911
  452MOL0     N60902   6.448   7.063   5.825  0.4616  1.1484  0.0927
  452MOL0     C60903   6.447   7.084   5.960 -0.5312  0.2501 -0.3023
  452MOL0     C60904   6.317   7.091   6.001 -1.0129 -0.6636  0.1870
  452MOL0     C60905   6.289   7.108   6.147  0.4172  0.6482  0.4681
  452MOL0     C60906   6.294   7.264   6.175 -0.3850  0.5877 -0.3747
  452MOL0     C60907   6.234   7.363   6.064 -0.1773  1.2001 -0.1108
  452MOL0     C60908   6.086   7.344   6.052  1.0216  0.7001  0.9105
  452MOL0     O60909   6.004   7.450   6.116 -0.0949 -0.3123 -0.0096
  452MOL0     C60910   5.866   7.457   6.093 -0.0441  0.3585 -1.0348
  452MOL0     C60911   5.796   7.373   6.009  0.2892 -0.3351  0.4197
  452MOL0     C60912   5.657   7.365   6.011 -0.6992 -0.3572  0.3418
  452MOL0     C60913   5.597   7.272   5.919 -0.3816  0.0563  0.3637
  452MOL0     C60914   5.581   7.462   6.090 -0.2599  0.2085  0.6898
  452MOL0     C60915   5.437   7.468   6.098 -0.8648 -0.1840 -0.1681
  452MOL0     O60916   5.371   7.381   6.019 -0.0093 -0.2730 -0.5740
  452MOL0     C60917   5.245   7.406   5.973 -0.2507  0.1978  0.9590
  452MOL0     C60918   5.217   7.383   5.838  0.4840 -0.0771  0.0637
  452MOL0     C60919   5.081   7.366   5.790 -0.2826  0.3853 -0.1187
  452MOL0     C60920   4.968   7.379   5.873 -0.0756 -0.3592  0.4707
  452MOL0     O60921   4.849   7.361   5.814  0.9800 -0.0674  0.3528
  452MOL0     C60922   4.740   7.437   5.886 -0.4813 -0.0275  0.1883
  452MOL0     C60923   4.625   7.472   5.797  0.0064 -0.2449 -0.9491
  452MOL0     C60924   4.536   7.574   5.865 -0.4195  0.1855 -0.0875
  452MOL0     C60925   4.430   7.642   5.774  0.5522 -1.0325 -0.3162
  452MOL0     C60926   4.351   7.744   5.854 -0.7720 -0.2992  1.2907
  452MOL0     C60927   4.271   7.840   5.766 -0.3386  0.3409  0.1513
  452MOL0     C60928   4.191   7.930   5.855  0.4618 -0.5143 -0.6805
  452MOL0     C60929   4.094   8.025   5.782 -0.9097 -0.0687 -0.5820
  452MOL0    Cl60930   3.971   7.931   5.702  0.1663 -0.1199  0.3897
  452MOL0     C60931   4.996   7.421   6.007 -0.0446 -0.0015  0.3199
  452MOL0     C60932   5.136   7.427   6.055  0.1883  0.0299 -0.8888
  452MOL0     O60933   5.389   7.556   6.156  0.3049 -0.2017 -0.4150
  452MOL0     C60934   5.657   7.545   6.180  0.6218  0.0551  0.3426
  452MOL0     C60935   5.800   7.552   6.171  0.5292 -0.0469  0.6344
  452MOL0     N60936   6.235   7.082   5.891  0.1074 -0.4709  0.5898
  452MOL0     N60937   6.317   7.065   5.791  0.1929  0.9105 -0.1525
  452MOL0     C60938   6.676   7.514   6.396  0.3372  0.3605  0.2132
  452MOL0     C60939   6.540   7.516   6.449  0.8221 -0.3128 -0.5743
  452MOL0     C60940   6.115   7.582   6.578  0.4090 -0.2823 -0.2126
  452MOL0     C60941   6.062   7.630   6.701 -0.3447  0.2458 -0.3506
  452MOL0     C60942   5.923   7.619   6.737 -0.2278  0.6280 -0.0202
  452MOL0     C60943   5.837   7.561   6.642  1.0149  0.0668  0.2110
  452MOL0     O60944   5.701   7.574   6.670  0.1442 -0.1157  0.6638
  452MOL0     C60945   5.617   7.590   6.556  0.3864  0.3303  0.6528
  452MOL0     C60946   5.482   7.636   6.603 -0.1913 -0.3527 -0.2957
  452MOL0     C60947   5.484   7.776   6.674  0.5968  0.3210  0.4817
  452MOL0     C60948   5.380   7.865   6.620 -1.0120  0.4213 -0.0185
  452MOL0     C60949   5.276   7.881   6.723 -0.8974  0.1043 -0.3261
  452MOL0     C60950   5.190   7.890   6.807  0.4067 -0.2925  0.0350
  452MOL0     C60951   5.891   7.516   6.520  0.6120  1.0092 -0.8857
  452MOL0     C60952   6.032   7.512   6.495 -0.0734  0.2619 -0.0390
  452MOL0     H60953   6.361   7.646   6.204  0.1680 -1.2286 -1.2386
  452MOL0     H60954   6.597   7.660   6.099  0.3234  0.1061  0.5309
  452MOL0     H60955   6.973   7.528   6.312  0.1717  1.0400 -0.3538
  452MOL0     H60956   6.871   7.383   6.283 -0.6323  0.1887 -0.2392
  452MOL0     H60957   7.022   7.513   6.046 -0.5394 -0.5471 -0.4629
  452MOL0     H60958   7.101   7.405   6.159 -0.3096 -0.2531  0.0859
  452MOL0     H60959   7.054   7.268   5.971 -1.4335 -0.4104 -1.5156
  452MOL0     H60960   6.946   7.222   6.108  1.0505  0.7808  1.3487
  452MOL0     H60961   6.782   7.379   6.009 -0.2108  0.6799 -0.8157
  452MOL0     H60962   6.892   7.406   5.872 -0.7439 -0.8415 -1.3836
  452MOL0     H60963   6.867   7.169   5.784  0.4424  0.1836  0.1230
  452MOL0     H60964   6.793   7.136   5.934 -0.5868  1.6498  0.5280
  452MOL0     H60965   6.584   7.269   5.870  0.5250  1.4317  0.2684
  452MOL0     H60966   6.670   7.363   5.755  3.9893  0.7684  1.4929
  452MOL0     H60967   6.549   7.224   5.626  0.5779 -2.2212 -1.4366
  452MOL0     H60968   6.703   7.150   5.610 -0.7611  1.8148 -0.9307
  452MOL0     H60969   6.654   6.987   5.784  0.4521  0.6114  0.3230
  452MOL0     H60970   6.540   6.993   5.646 -1.5002  2.3714 -0.4280
  452MOL0     H60971   6.527   7.104   6.030  0.6410  3.4834 -2.3484
  452MOL0     H60972   6.192   7.063   6.168  0.4450 -0.1326 -0.9366
  452MOL0     H60973   6.357   7.052   6.211  0.4121 -0.5300 -0.5367
  452MOL0     H60974   6.398   7.287   6.198 -0.3261  0.3742 -0.4251
  452MOL0     H60975   6.246   7.280   6.272 -0.7843 -3.4282  0.2686
  452MOL0     H60976   6.272   7.345   5.963 -1.4610 -3.5276 -0.0185
  452MOL0     H60977   6.258   7.466   6.088  1.2154  1.1219 -1.0645
  452MOL0     H60978   6.063   7.250   6.103  0.8771 -0.0770 -0.5375
  452MOL0     H60979   6.055   7.344   5.947  2.3410  0.8136  0.5078
  452MOL0     H60980   5.846   7.295   5.952 -1.7524 -2.9758  1.9506
  452MOL0     H60981   5.532   7.326   5.850  0.6380  1.9150  0.7942
  452MOL0     H60982   5.668   7.222   5.854 -1.8332  1.6624 -2.6811
  452MOL0     H60983   5.544   7.195   5.976 -1.2736  0.9842  0.8355
  452MOL0     H60984   5.297   7.368   5.766 -1.8140 -1.7688 -2.3486
  452MOL0     H60985   5.059   7.347   5.685 -1.2086  1.7321 -0.1945
  452MOL0     H60986   4.705   7.379   5.972  1.3047 -1.2089  0.1685
  452MOL0     H60987   4.790   7.528   5.920  0.5415 -0.9863  1.3436
  452MOL0     H60988   4.669   7.512   5.705  1.0266 -1.5826 -1.0766
  452MOL0     H60989   4.572   7.380   5.769  0.1199  0.7136 -4.8947
  452MOL0     H60990   4.604   7.647   5.909 -0.7629 -0.2566  1.2196
  452MOL0     H60991   4.491   7.530   5.954  1.4015 -0.5025  0.5289
  452MOL0     H60992   4.483   7.682   5.687  1.0608 -0.1664  0.3758
  452MOL0     H60993   4.350   7.573   5.745 -0.1113  0.1329 -1.3105
  452MOL0     H60994   4.430   7.809   5.892  1.6823 -1.9773 -0.5980
  452MOL0     H60995   4.297   7.690   5.933 -0.1458 -0.9719  1.2754
  452MOL0     H60996   4.334   7.902   5.701  1.4265 -1.2704  0.2350
  452MOL0     H60997   4.196   7.786   5.707  0.9335 -0.6036 -0.6498
  452MOL0     H60998   4.260   7.992   5.914 -1.0501  1.0673 -0.4892
  452MOL0     H60999   4.133   7.870   5.924  1.0451 -0.6624 -0.3115
  452MOL0     H61000   4.147   8.083   5.706 -0.3573  0.0521 -0.1135
  452MOL0     H61001   4.050   8.100   5.848 -0.9558 -1.1580  0.6622
  452MOL0     H61002   4.914   7.444   6.074 -2.0113  0.0233 -1.9567
  452MOL0     H61003   5.163   7.440   6.159  4.0744 -1.0639 -1.6322
  452MOL0     H61004   5.612   7.617   6.247  2.0258 -1.3996  3.0583
  452MOL0     H61005   5.860   7.620   6.230  2.7097 -1.5949  0.3060
  452MOL0     H61006   6.759   7.479   6.457 -0.8182  0.8075  2.1076
  452MOL0     H61007   6.531   7.474   6.548 -2.8572  1.5704  0.1096
  452MOL0     H61008   6.124   7.675   6.778 -2.4650  0.7735  1.1248
  452MOL0     H61009   5.894   7.653   6.836 -3.0250 -1.9040  0.1829
  452MOL0     H61010   5.658   7.669   6.492  0.8085 -1.0477 -0.8421
  452MOL0     H61011   5.599   7.500   6.497 -0.7160  2.2212 -2.1198
  452MOL0     H61012   5.444   7.563   6.675  0.3007  1.1583  1.5745
  452MOL0     H61013   5.418   7.642   6.515  0.1260  1.2159 -0.4553
  452MOL0     H61014   5.579   7.823   6.648 -1.0181  3.2006 -0.7750
  452MOL0     H61015   5.477   7.766   6.783  3.2563  0.1122  0.6944
  452MOL0     H61016   5.322   7.827   6.536 -1.9614  2.1661 -0.1887
  452MOL0     H61017   5.427   7.961   6.598  0.6136 -0.0511  1.1437
  452MOL0     H61018   5.119   7.894   6.887  1.4183 -0.6635  0.9953
  452MOL0     H61019   5.840   7.461   6.443  1.2829  0.7275 -1.1406
  452MOL0     H61020   6.067   7.452   6.412 -0.9273 -0.7727  0.3293
  453MOL0     O61021   5.928   7.442   2.679  0.4493  0.4416  0.7885
  453MOL0     C61022   5.961   7.480   2.563  0.5041 -0.0099  0.0632
  453MOL0     O61023   5.875   7.470   2.453 -0.1224 -0.1859 -0.5474
  453MOL0     C61024   5.742   7.443   2.477 -0.4899 -0.5671 -0.0283
  453MOL0     C61025   5.669   7.490   2.590 -0.2796 -0.3365 -0.2460
  453MOL0     C61026   5.534   7.463   2.616 -0.0256 -0.9092 -0.2790
  453MOL0     C61027   5.469   7.390   2.522  0.4736  0.9047  0.6125
  453MOL0     O61028   5.333   7.354   2.536  1.1006  0.5885  0.8126
  453MOL0     C61029   5.259   7.391   2.648 -0.2653 -0.1805  0.5396
  453MOL0     C61030   5.111   7.367   2.618 -1.1421  0.3051  0.0005
  453MOL0     C61031   5.077   7.220   2.611  0.6286 -0.5216 -1.3630
  453MOL0     C61032   4.926   7.198   2.584 -0.1160  0.0144  0.3935
  453MOL0     C61033   4.884   7.051   2.606 -0.1455  0.2534  0.0214
  453MOL0     C61034   4.740   7.033   2.562 -0.9381  0.4678  0.5504
  453MOL0     C61035   4.682   6.895   2.614 -0.2322  0.1367  0.3199
  453MOL0     C61036   4.732   6.775   2.530  0.0901 -0.6210  0.6935
  453MOL0     N61037   4.685   6.787   2.396  0.0027 -0.5901  0.7219
  453MOL0     C61038   4.564   6.843   2.352 -0.3578  0.1510  0.5961
  453MOL0     C61039   4.575   6.834   2.219 -0.8697 -0.5800 -0.0935
  453MOL0     C61040   4.444   6.855   2.135 -0.1275  0.5135  0.4729
  453MOL0     C61041   4.456   6.764   2.014  0.0563 -0.4733  0.4832
  453MOL0     C61042   4.318   6.747   1.943 -0.9579  0.0409  0.6803
  453MOL0     C61043   4.217   6.640   2.012 -0.3978  0.2723 -0.2324
  453MOL0     O61044   4.161   6.682   2.137  0.3131 -0.0607  0.0600
  453MOL0     C61045   4.059   6.599   2.181 -0.5895  0.2099 -0.1478
  453MOL0     C61046   3.917   6.629   2.183 -0.3688 -0.3325  0.5615
  453MOL0     C61047   3.825   6.542   2.234  0.3377  0.2269 -0.5850
  453MOL0     C61048   3.677   6.580   2.231  0.1703  0.4203 -0.2471
  453MOL0     C61049   3.869   6.417   2.291  0.0712  0.5971  0.9290
  453MOL0     C61050   3.787   6.316   2.359  0.3104  0.3146  0.2267
  453MOL0     O61051   3.665   6.352   2.398  0.0652  0.5386  0.2473
  453MOL0     C61052   3.586   6.250   2.447 -0.2168 -0.4381  0.7495
  453MOL0     C61053   3.540   6.144   2.370 -0.4759  0.2484  0.4178
  453MOL0     C61054   3.452   6.046   2.426 -0.5656 -0.3452 -0.7470
  453MOL0     C61055   3.407   6.058   2.562  1.1446 -0.7053 -0.3901
  453MOL0     O61056   3.305   5.985   2.622  0.2974 -0.1645 -0.1535
  453MOL0     C61057   3.199   5.920   2.545  0.2278 -0.4971 -0.0442
  453MOL0     C61058   3.087   5.881   2.638 -0.1762  0.2752  0.9103
  453MOL0     C61059   3.112   5.776   2.741 -0.2829 -0.3512  0.6541
  453MOL0     C61060   2.997   5.770   2.849 -0.4892 -0.0577 -0.0915
  453MOL0     C61061   3.034   5.675   2.969 -0.3015 -0.9603  0.3861
  453MOL0     C61062   2.919   5.661   3.073  0.0221  0.1860  0.2370
  453MOL0     C61063   2.970   5.574   3.186 -0.1817 -0.0054 -0.5872
  453MOL0     C61064   2.855   5.524   3.279  0.5492 -0.0800  0.3847
  453MOL0    Cl61065   2.764   5.393   3.196  0.1301 -0.0856 -0.2227
  453MOL0     C61066   3.460   6.173   2.637 -0.2214  0.8546 -0.2219
  453MOL0     C61067   3.552   6.263   2.585  0.7153 -1.2319 -0.1341
  453MOL0     O61068   3.828   6.202   2.373  0.0180  0.5543  0.1868
  453MOL0     C61069   4.011   6.387   2.285  0.1591  0.4380 -0.6223
  453MOL0     C61070   4.099   6.476   2.227  0.4026  0.3162  0.3992
  453MOL0     N61071   4.700   6.784   2.179 -0.4952 -1.0291 -0.0034
  453MOL0     N61072   4.769   6.780   2.289 -0.1081  0.5915 -0.6857
  453MOL0     C61073   5.537   7.343   2.406  0.7680  0.6971 -1.1103
  453MOL0     C61074   5.671   7.372   2.381  0.0740  0.2629 -0.3619
  453MOL0     C61075   6.098   7.511   2.540  0.5014 -0.9253  0.2088
  453MOL0     C61076   6.136   7.567   2.423  0.1199 -0.1387  0.0422
  453MOL0     C61077   6.266   7.620   2.398  1.0421  0.1301 -0.6472
  453MOL0     C61078   6.368   7.594   2.492  1.1107 -0.9987 -0.7515
  453MOL0     O61079   6.489   7.644   2.457 -0.0536  0.7565  0.3706
  453MOL0     C61080   6.597   7.632   2.558  0.3959  0.0093  0.2582
  453MOL0     C61081   6.600   7.755   2.647  0.0159 -0.1267  0.9748
  453MOL0     C61082   6.740   7.761   2.717  0.0115  0.2518  0.1122
  453MOL0     C61083   6.750   7.878   2.814  0.5200 -0.9341  0.3177
  453MOL0     C61084   6.655   7.859   2.931 -1.0210 -0.1313 -0.1835
  453MOL0     C61085   6.607   7.849   3.047  0.5544 -0.2401  0.7815
  453MOL0     C61086   6.329   7.527   2.616 -0.1793 -0.4252  0.7191
  453MOL0     C61087   6.199   7.490   2.639 -0.0790  0.6176 -0.2962
  453MOL0     H61088   5.715   7.545   2.671 -2.7852  0.3335  0.7923
  453MOL0     H61089   5.480   7.509   2.697 -1.0038 -1.3249 -0.6793
  453MOL0     H61090   5.288   7.321   2.727  1.8553 -1.6004 -1.3563
  453MOL0     H61091   5.279   7.494   2.676  4.0280 -0.8144  0.4527
  453MOL0     H61092   5.045   7.409   2.695  0.2532  0.7767  0.9870
  453MOL0     H61093   5.096   7.424   2.526  3.0148  0.5096 -0.7275
  453MOL0     H61094   5.139   7.166   2.539  0.7469  0.9269 -2.3927
  453MOL0     H61095   5.093   7.172   2.708 -2.0320  0.0848 -0.5343
  453MOL0     H61096   4.859   7.246   2.655 -1.6649  1.4171 -1.9063
  453MOL0     H61097   4.887   7.227   2.486 -2.0997 -3.0024  0.1379
  453MOL0     H61098   4.946   6.990   2.539  1.9354 -0.0186  2.0802
  453MOL0     H61099   4.912   7.019   2.707  0.0018  0.5950  0.0911
  453MOL0     H61100   4.675   7.109   2.606  0.3175  2.5627 -1.0097
  453MOL0     H61101   4.717   7.054   2.458 -2.6746  3.0204  1.3654
  453MOL0     H61102   4.704   6.875   2.719 -0.8383 -0.9741  0.2452
  453MOL0     H61103   4.574   6.888   2.599  0.0077 -3.6808 -0.5830
  453MOL0     H61104   4.696   6.681   2.573 -0.1168 -2.0574 -2.3354
  453MOL0     H61105   4.841   6.769   2.530  0.1015 -0.3994  0.8962
  453MOL0     H61106   4.474   6.880   2.401 -1.0367  0.2774 -0.6866
  453MOL0     H61107   4.354   6.827   2.190 -1.0208  0.8959 -0.7460
  453MOL0     H61108   4.420   6.953   2.092 -1.8537 -1.4180 -3.3762
  453MOL0     H61109   4.483   6.661   2.041  2.6618  0.2570  0.9694
  453MOL0     H61110   4.531   6.808   1.948 -0.3582 -1.9835 -1.0451
  453MOL0     H61111   4.323   6.731   1.835 -1.9740  2.8536  0.1333
  453MOL0     H61112   4.275   6.847   1.947  2.2349  1.6994 -1.9000
  453MOL0     H61113   4.263   6.542   2.029 -1.6938 -0.0998  1.3242
  453MOL0     H61114   4.149   6.610   1.932  0.2714  0.3451 -0.8425
  453MOL0     H61115   3.884   6.728   2.152  0.1299  0.1790  1.6138
  453MOL0     H61116   3.608   6.502   2.197 -0.8799  1.8935 -1.6332
  453MOL0     H61117   3.658   6.615   2.332  0.9625 -1.2981  0.5294
  453MOL0     H61118   3.651   6.656   2.156  0.2007 -0.6451 -1.3782
  453MOL0     H61119   3.574   6.130   2.268  3.3591  2.7639  1.1466
  453MOL0     H61120   3.419   5.962   2.365 -0.7748  0.2761 -1.5143
  453MOL0     H61121   3.159   5.985   2.467  0.2723 -1.2799 -0.7307
  453MOL0     H61122   3.242   5.839   2.486  1.3282  0.9701 -1.3511
  453MOL0     H61123   3.061   5.975   2.688  1.8782  1.8550 -0.7997
  453MOL0     H61124   2.997   5.848   2.585 -0.7793  1.7691  0.9506
  453MOL0     H61125   3.211   5.801   2.779  1.9928 -0.1036 -4.5710
  453MOL0     H61126   3.126   5.677   2.697  1.2003  0.8898 -1.8730
  453MOL0     H61127   2.986   5.869   2.896  2.1984 -0.4928  1.6289
  453MOL0     H61128   2.903   5.737   2.804  1.2286 -1.4636 -2.9416
  453MOL0     H61129   3.131   5.707   3.009  0.1367 -1.3801 -0.3035
  453MOL0     H61130   3.053   5.577   2.924  0.5898 -0.0197 -1.3770
  453MOL0     H61131   2.885   5.758   3.109 -2.2356 -0.6467  0.5418
  453MOL0     H61132   2.838   5.606   3.023  0.5600  0.5037 -1.0147
  453MOL0     H61133   3.030   5.632   3.257 -0.8782 -0.2799  0.2410
  453MOL0     H61134   3.030   5.488   3.155  2.7204  1.3734  0.8123
  453MOL0     H61135   2.782   5.595   3.319 -0.7207 -0.4338 -1.1996
  453MOL0     H61136   2.903   5.466   3.358  1.3198  0.7462  0.5374
  453MOL0     H61137   3.417   6.193   2.734 -2.1176 -1.4630 -0.4858
  453MOL0     H61138   3.586   6.343   2.650  1.6835 -1.2461 -0.6086
  453MOL0     H61139   4.047   6.289   2.314 -1.6449  0.5453  2.3815
  453MOL0     H61140   4.206   6.458   2.217  0.7349  0.7487  2.6828
  453MOL0     H61141   5.479   7.280   2.339 -0.9686  1.6110 -0.5383
  453MOL0     H61142   5.711   7.317   2.297  0.3831 -0.1413  0.0400
  453MOL0     H61143   6.058   7.578   2.349  0.3398  0.9188 -0.0451
  453MOL0     H61144   6.274   7.675   2.305 -0.6683  1.5369 -0.0145
  453MOL0     H61145   6.604   7.540   2.617 -1.0829  0.9714  2.0504
  453MOL0     H61146   6.690   7.626   2.501 -0.0453 -0.0910 -0.4557
  453MOL0     H61147   6.520   7.759   2.721  0.7755 -0.3633  1.8379
  453MOL0     H61148   6.596   7.847   2.587  2.2446 -0.6789 -0.1546
  453MOL0     H61149   6.820   7.788   2.647  2.0320  1.5172  2.7138
  453MOL0     H61150   6.766   7.664   2.760 -1.9337  1.0096  3.4256
  453MOL0     H61151   6.729   7.963   2.749  0.0797 -1.7742 -0.6520
  453MOL0     H61152   6.848   7.897   2.861  1.1720 -0.0487 -1.3258
  453MOL0     H61153   6.570   7.830   3.146 -0.6425  1.1863  0.6526
  453MOL0     H61154   6.401   7.492   2.689 -2.4622 -1.5998  2.5252
  453MOL0     H61155   6.184   7.435   2.732  2.9112 -1.6315 -0.9950
  454MOL0     O61156  10.085   5.884   3.598 -0.7125 -0.1576  0.0512
  454MOL0     C61157  10.144   5.892   3.493 -0.3354 -0.5906  0.1159
  454MOL0     O61158  10.093   5.943   3.388  0.1890 -0.1481  0.0131
  454MOL0     C61159   9.959   5.973   3.377 -0.6113 -1.0563 -0.4148
  454MOL0     C61160   9.868   6.015   3.472 -0.1327 -0.4038 -0.6753
  454MOL0     C61161   9.734   6.039   3.446  0.1714  0.1703  0.1295
  454MOL0     C61162   9.683   6.033   3.317  0.2977 -0.1283  0.1831
  454MOL0     O61163   9.551   6.055   3.308  0.1402 -0.7477 -0.9045
  454MOL0     C61164   9.473   5.946   3.264  0.2271  0.1300 -0.2790
  454MOL0     C61165   9.334   6.010   3.268  0.6194 -0.2747 -0.2775
  454MOL0     C61166   9.221   5.917   3.226  0.6413  0.8176  0.9847
  454MOL0     C61167   9.085   5.977   3.250  0.5154 -0.3894  0.0785
  454MOL0     C61168   8.960   5.881   3.239  0.4326 -0.6028 -0.6956
  454MOL0     C61169   8.952   5.767   3.348  0.9657  0.1090  0.0794
  454MOL0     C61170   8.807   5.705   3.323 -0.6835 -0.0094 -0.2071
  454MOL0     C61171   8.782   5.597   3.427 -0.2964  0.6279  0.0866
  454MOL0     N61172   8.772   5.643   3.570  0.3762 -0.7355 -0.2753
  454MOL0     C61173   8.882   5.640   3.664  0.4206 -0.1032 -0.3724
  454MOL0     C61174   8.835   5.719   3.768  0.5938 -1.0389  0.1358
  454MOL0     C61175   8.896   5.724   3.909  0.6205 -0.5011  0.3046
  454MOL0     C61176   8.998   5.833   3.908 -0.7526 -0.4019  0.4451
  454MOL0     C61177   9.076   5.825   4.033  1.0283 -1.4881  0.3461
  454MOL0     C61178   9.188   5.726   4.018  0.1773  0.0800  0.8804
  454MOL0     O61179   9.281   5.759   4.115 -0.1481  0.1410 -0.0555
  454MOL0     C61180   9.373   5.657   4.139  0.6066 -0.6292  0.9582
  454MOL0     C61181   9.442   5.660   4.262 -0.7931  0.1341  0.0756
  454MOL0     C61182   9.531   5.563   4.300 -0.1167  0.6496  0.3898
  454MOL0     C61183   9.605   5.586   4.422 -0.3988 -0.3041  0.7412
  454MOL0     C61184   9.572   5.458   4.211  0.3938 -0.1756 -0.0763
  454MOL0     C61185   9.675   5.360   4.253 -0.8717  0.2161 -0.4672
  454MOL0     O61186   9.672   5.292   4.379  0.0649 -0.3842 -0.2185
  454MOL0     C61187   9.764   5.194   4.413 -0.1018  0.0295  0.0162
  454MOL0     C61188   9.808   5.092   4.318 -1.2581  0.7567 -0.4067
  454MOL0     C61189   9.894   4.992   4.371  0.2845 -0.0793 -0.0424
  454MOL0     C61190   9.922   4.976   4.506  0.2977  0.7268 -0.2108
  454MOL0     O61191   9.987   4.864   4.550 -0.1617 -0.5089 -0.1995
  454MOL0     C61192  10.089   4.808   4.467 -0.1297 -0.2199 -0.1292
  454MOL0     C61193  10.176   4.724   4.557  0.3011  0.5133 -0.0422
  454MOL0     C61194  10.268   4.808   4.641 -0.0006  0.6074  0.0806
  454MOL0     C61195  10.392   4.843   4.550 -0.8881 -0.1469  0.4186
  454MOL0     C61196  10.505   4.905   4.633 -0.3965 -0.8801 -0.0154
  454MOL0     C61197  10.603   4.959   4.545 -0.7308  0.0162  1.3794
  454MOL0     C61198  10.716   5.040   4.610 -0.3042  0.2622 -0.4538
  454MOL0     C61199  10.827   5.073   4.508 -0.0733  0.3531 -0.5338
  454MOL0    Cl61200  10.969   5.125   4.604 -0.4673  0.7879 -0.0113
  454MOL0     C61201   9.880   5.077   4.593 -1.2248  0.6307 -0.0367
  454MOL0     C61202   9.807   5.182   4.545 -0.2028 -0.2047  0.7886
  454MOL0     O61203   9.752   5.326   4.164  0.2172  0.0134  0.2359
  454MOL0     C61204   9.512   5.455   4.087 -0.5659 -0.4255  0.0607
  454MOL0     C61205   9.415   5.555   4.045  0.8587 -0.0727  0.6324
  454MOL0     N61206   8.708   5.774   3.732  0.2550 -0.5908 -0.5536
  454MOL0     N61207   8.672   5.727   3.614  0.4810  0.3859 -0.2620
  454MOL0     C61208   9.768   5.991   3.218 -1.2274  0.1930  0.3968
  454MOL0     C61209   9.907   5.961   3.246  0.3208 -0.0808  0.1039
  454MOL0     C61210  10.284   5.841   3.473  0.0567 -0.4942 -0.1431
  454MOL0     C61211  10.344   5.835   3.341 -0.2936  1.0502  0.0233
  454MOL0     C61212  10.474   5.798   3.331 -0.2352  0.9941 -0.9459
  454MOL0     C61213  10.545   5.748   3.435 -0.2317 -0.2118 -0.2537
  454MOL0     O61214  10.670   5.699   3.406 -0.0606 -1.0021 -0.5775
  454MOL0     C61215  10.732   5.611   3.505  0.2447 -0.5542  0.5207
  454MOL0     C61216  10.836   5.525   3.438 -0.0604 -0.1079  0.4414
  454MOL0     C61217  10.917   5.453   3.547  0.2007 -0.3717  0.1287
  454MOL0     C61218  11.055   5.414   3.489  0.3709 -0.2642 -0.1628
  454MOL0     C61219  11.156   5.397   3.599 -0.0217 -0.3355 -0.2265
  454MOL0     C61220  11.232   5.369   3.688 -1.6355  0.9577  0.1229
  454MOL0     C61221  10.483   5.745   3.562 -0.8207  1.0074  0.2176
  454MOL0     C61222  10.362   5.803   3.586  0.8226  0.1548  0.6382
  454MOL0     H61223   9.904   6.033   3.573  0.9389  0.1626 -1.1450
  454MOL0     H61224   9.679   6.084   3.528 -0.7043  0.5107 -0.6291
  454MOL0     H61225   9.504   5.905   3.167  1.5622  0.0512  0.1567
  454MOL0     H61226   9.481   5.870   3.342 -1.8316  1.4804  1.3464
  454MOL0     H61227   9.313   6.057   3.365  0.2999  1.5556 -1.1848
  454MOL0     H61228   9.335   6.092   3.196 -0.0573 -1.2757 -1.4518
  454MOL0     H61229   9.223   5.890   3.120  2.6787 -1.2058  1.4715
  454MOL0     H61230   9.225   5.824   3.283  0.2985 -1.9976 -3.1557
  454MOL0     H61231   9.084   6.010   3.355  1.3605 -1.8262  0.5684
  454MOL0     H61232   9.062   6.067   3.192  1.2710  0.2617  0.7633
  454MOL0     H61233   8.893   5.965   3.262  0.5781 -0.6658 -0.0226
  454MOL0     H61234   8.947   5.836   3.140  2.3633 -1.0445 -0.7900
  454MOL0     H61235   9.024   5.688   3.322 -0.3673 -1.6723  1.5190
  454MOL0     H61236   8.965   5.808   3.448 -0.9573  2.9224 -0.7013
  454MOL0     H61237   8.731   5.784   3.320  0.5332  1.1589 -2.6344
  454MOL0     H61238   8.822   5.653   3.228  1.9427 -0.3893  0.3425
  454MOL0     H61239   8.861   5.522   3.418 -1.2913 -0.6834  1.7096
  454MOL0     H61240   8.684   5.559   3.397 -0.1519  1.5801 -1.7371
  454MOL0     H61241   8.980   5.594   3.654  0.7746  0.2055  1.3490
  454MOL0     H61242   8.821   5.733   3.988 -1.1502 -1.3988 -1.1859
  454MOL0     H61243   8.937   5.623   3.919  2.5508 -0.1450 -2.7172
  454MOL0     H61244   8.925   5.914   3.905 -1.8573 -1.3511  0.9645
  454MOL0     H61245   9.056   5.832   3.815  1.2463 -0.6975  1.6463
  454MOL0     H61246   9.011   5.795   4.116 -2.8263 -2.2205 -2.6724
  454MOL0     H61247   9.118   5.923   4.059  0.4146 -1.9219  3.4810
  454MOL0     H61248   9.237   5.724   3.921  1.5745 -2.1565  1.5599
  454MOL0     H61249   9.145   5.626   4.036  2.5795 -1.0983  0.4176
  454MOL0     H61250   9.427   5.741   4.333  3.3038  2.6953 -1.6493
  454MOL0     H61251   9.584   5.684   4.467 -3.5077 -1.4900  2.1855
  454MOL0     H61252   9.579   5.513   4.500 -0.4549  0.9161  1.9083
  454MOL0     H61253   9.711   5.568   4.405 -0.3578 -0.0739  0.7442
  454MOL0     H61254   9.784   5.080   4.213  2.7463 -0.1414 -1.3600
  454MOL0     H61255   9.931   4.919   4.300  1.0546 -1.3584  1.6038
  454MOL0     H61256  10.039   4.731   4.409  1.5518 -2.1550  0.8374
  454MOL0     H61257  10.146   4.884   4.413  1.5915 -1.3721 -0.0179
  454MOL0     H61258  10.113   4.656   4.616  0.4531 -0.0215 -0.4853
  454MOL0     H61259  10.236   4.656   4.495 -1.4153 -1.1860  0.0373
  454MOL0     H61260  10.302   4.759   4.733 -0.1918 -1.1726 -0.7483
  454MOL0     H61261  10.203   4.888   4.678 -0.6178  0.5834 -0.9359
  454MOL0     H61262  10.420   4.756   4.489 -0.3366  0.2448  0.0997
  454MOL0     H61263  10.358   4.917   4.476  3.8694  1.4327 -0.5358
  454MOL0     H61264  10.537   4.830   4.705  0.9039 -1.5739 -1.2551
  454MOL0     H61265  10.467   4.989   4.692 -0.9709  0.3277 -2.0092
  454MOL0     H61266  10.648   4.880   4.484 -2.9657 -1.2637  1.2428
  454MOL0     H61267  10.550   5.024   4.474  0.9389 -1.4835 -1.4147
  454MOL0     H61268  10.754   4.974   4.688  1.5548  2.2985  0.4750
  454MOL0     H61269  10.668   5.128   4.653 -1.2056  0.6812 -2.2201
  454MOL0     H61270  10.795   5.152   4.440  1.2905  1.6345  0.2394
  454MOL0     H61271  10.840   4.983   4.448 -1.4663  0.0395 -0.3917
  454MOL0     H61272   9.903   5.080   4.699  1.7384 -0.7755 -0.5275
  454MOL0     H61273   9.775   5.262   4.611  2.2096  0.8363  0.8083
  454MOL0     H61274   9.548   5.393   4.006  0.0338 -0.0084 -0.0033
  454MOL0     H61275   9.374   5.556   3.945  2.9677 -1.2088 -0.2931
  454MOL0     H61276   9.726   5.983   3.118  0.9222 -0.6603 -0.4967
  454MOL0     H61277   9.970   5.922   3.167  0.0517  1.1765 -0.7717
  454MOL0     H61278  10.298   5.881   3.254  0.2767 -0.4306 -1.1081
  454MOL0     H61279  10.516   5.799   3.231 -1.5052 -4.5459 -1.8970
  454MOL0     H61280  10.761   5.661   3.597 -1.2921  3.0379 -0.7774
  454MOL0     H61281  10.652   5.542   3.536  1.3406 -1.4388  1.4782
  454MOL0     H61282  10.906   5.586   3.380 -0.1105 -1.7892 -1.5347
  454MOL0     H61283  10.801   5.446   3.371 -0.6182  0.2691  0.2891
  454MOL0     H61284  10.865   5.368   3.590  0.4627 -1.1845 -1.0914
  454MOL0     H61285  10.935   5.517   3.634  2.6172 -2.8465  1.6271
  454MOL0     H61286  11.099   5.491   3.425 -1.1144  0.0238 -0.8694
  454MOL0     H61287  11.046   5.330   3.420 -0.8564  0.1524 -0.5302
  454MOL0     H61288  11.287   5.337   3.774 -1.6246  1.2786  0.2367
  454MOL0     H61289  10.537   5.717   3.652  1.2103  0.4387 -1.0993
  454MOL0     H61290  10.314   5.802   3.683 -1.9283 -2.2495 -0.5864
  455MOL0     O61291   9.006   6.528   4.167 -0.2175 -0.4668 -0.2875
  455MOL0     C61292   9.025   6.522   4.288 -0.0226 -0.4104 -0.3492
  455MOL0     O61293   8.929   6.501   4.380  0.8944  0.1969 -0.6700
  455MOL0     C61294   8.792   6.495   4.346  0.8220  0.4812  0.3566
  455MOL0     C61295   8.725   6.522   4.223 -0.3528 -0.7561 -0.2242
  455MOL0     C61296   8.591   6.506   4.209  0.5927 -0.3075 -1.1351
  455MOL0     C61297   8.510   6.449   4.312  0.6368 -0.8525  0.4960
  455MOL0     O61298   8.377   6.431   4.275  0.4633 -0.3380 -0.3055
  455MOL0     C61299   8.287   6.384   4.366 -0.3880 -0.0320 -0.0486
  455MOL0     C61300   8.148   6.373   4.318 -0.8405  0.4475  0.2929
  455MOL0     C61301   8.147   6.251   4.224 -0.5510 -0.8522  0.1166
  455MOL0     C61302   8.002   6.222   4.205 -0.5054  0.7804  0.2289
  455MOL0     C61303   7.995   6.088   4.132 -0.1164  0.7798  0.0956
  455MOL0     C61304   7.858   6.047   4.092 -0.1303  0.0281  0.6996
  455MOL0     C61305   7.850   5.913   4.014 -0.0803 -0.9246  0.3255
  455MOL0     C61306   7.707   5.856   4.015  0.4850 -0.5789 -0.0891
  455MOL0     N61307   7.703   5.718   3.962 -0.1691 -0.7305  0.6886
  455MOL0     C61308   7.663   5.603   4.026 -0.3638 -0.2082  1.3157
  455MOL0     C61309   7.646   5.512   3.924  0.7279  0.0948  0.0957
  455MOL0     C61310   7.608   5.368   3.930 -0.4681 -0.3702  0.0314
  455MOL0     C61311   7.458   5.360   3.983 -0.0993 -0.9445  0.2905
  455MOL0     C61312   7.390   5.225   3.940 -0.2276  0.3644 -0.1993
  455MOL0     C61313   7.377   5.199   3.794  0.5269  0.6491  0.1949
  455MOL0     O61314   7.308   5.310   3.745  0.6007  1.0941 -0.0909
  455MOL0     C61315   7.233   5.300   3.624  0.0099 -0.1193  0.2739
  455MOL0     C61316   7.268   5.223   3.508  0.1154  0.2262 -0.2069
  455MOL0     C61317   7.195   5.217   3.393  0.1478 -0.4417  0.1179
  455MOL0     C61318   7.258   5.144   3.278 -0.3686  0.1690 -0.1656
  455MOL0     C61319   7.067   5.285   3.388  0.2989  0.0823 -0.4997
  455MOL0     C61320   6.982   5.284   3.270 -0.6453  0.1805  0.1429
  455MOL0     O61321   6.888   5.379   3.264  0.2471 -0.4136 -0.3502
  455MOL0     C61322   6.829   5.424   3.144 -0.5528  0.9985 -0.2371
  455MOL0     C61323   6.719   5.504   3.164  0.6695 -0.3688  0.0969
  455MOL0     C61324   6.648   5.566   3.058  0.1811 -0.6963  0.3538
  455MOL0     C61325   6.686   5.552   2.930 -0.1696 -0.1153  0.2313
  455MOL0     O61326   6.631   5.640   2.841 -0.2625 -1.0083  0.3837
  455MOL0     C61327   6.647   5.623   2.700 -0.1514  0.4716  0.3059
  455MOL0     C61328   6.564   5.496   2.665 -0.3153 -0.3805  0.2076
  455MOL0     C61329   6.418   5.521   2.708  0.7964  0.1759 -0.1449
  455MOL0     C61330   6.375   5.643   2.621  0.4625  0.0899  0.1555
  455MOL0     C61331   6.226   5.668   2.647 -0.2160 -0.1264  0.8623
  455MOL0     C61332   6.168   5.777   2.559 -0.4048  0.3497  0.1297
  455MOL0     C61333   6.017   5.789   2.562  0.9062  0.6835  0.1191
  455MOL0     C61334   5.969   5.918   2.488 -0.0800 -0.0439  0.0701
  455MOL0    Cl61335   6.034   5.910   2.332 -0.1372  0.0992 -0.2807
  455MOL0     C61336   6.798   5.472   2.908  0.2253 -0.0153  0.4289
  455MOL0     C61337   6.870   5.403   3.008 -0.0361  0.5450 -0.2702
  455MOL0     O61338   7.006   5.205   3.182 -0.6488  0.6434  0.6901
  455MOL0     C61339   7.036   5.369   3.493  0.4206 -0.1691 -0.0139
  455MOL0     C61340   7.117   5.371   3.610 -0.6067  0.0544  1.1302
  455MOL0     N61341   7.663   5.573   3.807 -0.4642 -0.5423  0.6620
  455MOL0     N61342   7.701   5.697   3.828 -0.5339 -0.7833  0.8493
  455MOL0     C61343   8.580   6.418   4.428  0.1695  0.3662  0.7238
  455MOL0     C61344   8.713   6.448   4.450 -0.1277 -1.0801  0.0105
  455MOL0     C61345   9.162   6.507   4.339  0.2492 -0.4041 -0.5574
  455MOL0     C61346   9.181   6.492   4.478 -0.3712  0.2946  0.8600
  455MOL0     C61347   9.307   6.501   4.531  0.7556 -0.0601  0.6855
  455MOL0     C61348   9.420   6.498   4.452 -0.6140 -0.2609  0.4811
  455MOL0     O61349   9.540   6.491   4.516  1.0781 -0.2531 -0.4779
  455MOL0     C61350   9.650   6.542   4.442  0.1580 -0.2309  0.1359
  455MOL0     C61351   9.769   6.556   4.537 -0.0293  0.6175 -0.8833
  455MOL0     C61352   9.804   6.422   4.594  0.1764 -0.4602  0.2567
  455MOL0     C61353   9.945   6.420   4.645 -0.7309  0.0764 -0.2704
  455MOL0     C61354   9.950   6.474   4.782 -0.3228  0.5961 -0.5991
  455MOL0     C61355   9.966   6.510   4.894 -0.1751  0.3641 -0.0559
  455MOL0     C61356   9.402   6.520   4.315  0.2218 -0.6195  0.0425
  455MOL0     C61357   9.278   6.522   4.256 -0.5149 -0.1878 -0.3105
  455MOL0     H61358   8.774   6.570   4.139 -2.3907  1.5619 -0.1950
  455MOL0     H61359   8.542   6.524   4.114 -3.0376 -0.0324  0.6358
  455MOL0     H61360   8.314   6.289   4.414  4.3269  0.8999 -0.4445
  455MOL0     H61361   8.279   6.465   4.438 -1.6076  0.5501 -0.7966
  455MOL0     H61362   8.080   6.351   4.401 -0.8786 -3.1582 -0.5628
  455MOL0     H61363   8.120   6.464   4.264 -0.3560 -0.3084 -1.2735
  455MOL0     H61364   8.204   6.279   4.135  0.5376 -2.2485  0.3525
  455MOL0     H61365   8.208   6.171   4.266  0.0118 -0.7255 -0.4458
  455MOL0     H61366   7.953   6.225   4.303 -1.6296 -1.5846 -0.1970
  455MOL0     H61367   7.952   6.304   4.153  2.0805  1.3899 -1.5199
  455MOL0     H61368   8.062   6.088   4.045 -2.1318 -0.2636 -1.5450
  455MOL0     H61369   8.033   6.011   4.200 -0.8403 -0.3553 -0.7302
  455MOL0     H61370   7.793   6.041   4.180 -1.7221 -0.7953 -0.4808
  455MOL0     H61371   7.811   6.118   4.023 -0.7398  0.8893  1.9570
  455MOL0     H61372   7.904   5.929   3.920 -0.3965 -0.3266  0.2457
  455MOL0     H61373   7.910   5.838   4.067  2.1701 -2.3767 -3.8226
  455MOL0     H61374   7.628   5.913   3.965  1.2167 -0.5407 -1.2565
  455MOL0     H61375   7.674   5.852   4.119  1.9659  0.3390  0.4523
  455MOL0     H61376   7.646   5.564   4.126 -1.2369 -4.5566 -0.3095
  455MOL0     H61377   7.617   5.316   3.834  0.1505 -1.7617  0.8081
  455MOL0     H61378   7.675   5.317   4.000  0.1304  0.7496  0.3124
  455MOL0     H61379   7.389   5.432   3.937  0.4842 -1.0431 -0.7703
  455MOL0     H61380   7.466   5.373   4.091  1.7326 -2.8745  0.4588
  455MOL0     H61381   7.287   5.230   3.976 -0.3683  1.1530 -0.6845
  455MOL0     H61382   7.443   5.140   3.983 -1.2512 -0.1645  0.0348
  455MOL0     H61383   7.335   5.103   3.766 -3.0733  1.9734  0.5156
  455MOL0     H61384   7.476   5.195   3.747  0.8467  0.2004  0.8863
  455MOL0     H61385   7.352   5.156   3.518 -1.9793 -2.4522  0.9449
  455MOL0     H61386   7.197   5.056   3.254 -0.4376  0.4375 -0.9945
  455MOL0     H61387   7.271   5.215   3.195 -1.2109  0.1363 -0.3426
  455MOL0     H61388   7.354   5.107   3.313 -1.2240 -3.0718 -0.8966
  455MOL0     H61389   6.684   5.516   3.266  1.2823 -1.3745  0.4310
  455MOL0     H61390   6.567   5.636   3.072  1.3615  0.8190 -0.1486
  455MOL0     H61391   6.625   5.713   2.643 -1.7773 -0.7275 -1.0748
  455MOL0     H61392   6.752   5.595   2.691  0.3080  1.5099  1.9387
  455MOL0     H61393   6.559   5.467   2.560  0.0335 -1.4420  0.4717
  455MOL0     H61394   6.613   5.418   2.723  0.7669  0.5034  0.5039
  455MOL0     H61395   6.400   5.545   2.813  0.7441  2.6227 -0.6568
  455MOL0     H61396   6.363   5.429   2.688  1.3840 -0.3296  0.5310
  455MOL0     H61397   6.431   5.733   2.648  1.6922 -0.7893  0.6271
  455MOL0     H61398   6.389   5.626   2.513  0.5745  1.8168 -0.1342
  455MOL0     H61399   6.213   5.701   2.751 -1.1296  2.3614  0.0251
  455MOL0     H61400   6.175   5.574   2.624 -0.3576  0.2137 -0.2509
  455MOL0     H61401   6.216   5.871   2.589 -1.8583  1.4746 -0.9032
  455MOL0     H61402   6.188   5.760   2.452  2.2099  1.6853  0.3169
  455MOL0     H61403   5.977   5.798   2.664  2.4750  0.7658  0.7629
  455MOL0     H61404   5.964   5.702   2.523 -2.9150  1.2347  3.3787
  455MOL0     H61405   6.015   6.007   2.532  0.9305  1.2890 -3.3902
  455MOL0     H61406   5.861   5.912   2.502 -0.1769  1.1846 -0.1026
  455MOL0     H61407   6.829   5.445   2.808  1.7921 -3.0913  1.5950
  455MOL0     H61408   6.963   5.359   2.974  0.8377  0.2896  2.2297
  455MOL0     H61409   6.954   5.440   3.497  2.0752  1.8700 -0.5585
  455MOL0     H61410   7.090   5.431   3.696 -0.4640 -1.9151  2.6237
  455MOL0     H61411   8.535   6.372   4.516  0.4867  0.1293  0.7612
  455MOL0     H61412   8.772   6.437   4.540  1.5402 -0.4003 -0.9491
  455MOL0     H61413   9.092   6.481   4.540 -0.4596 -1.6088  0.4480
  455MOL0     H61414   9.329   6.504   4.637  0.9170 -0.8851  0.6757
  455MOL0     H61415   9.685   6.471   4.366 -1.4705  1.8206 -2.7345
  455MOL0     H61416   9.634   6.639   4.395 -3.3225 -1.0888 -0.8023
  455MOL0     H61417   9.772   6.628   4.618 -0.3005 -0.7164  0.3556
  455MOL0     H61418   9.841   6.589   4.462  1.3997  0.7313  0.4963
  455MOL0     H61419   9.782   6.346   4.519 -1.0098  0.4321 -0.3430
  455MOL0     H61420   9.739   6.396   4.679  0.5579  2.2381  1.4853
  455MOL0     H61421  10.023   6.471   4.587  0.6566 -1.0795  0.5192
  455MOL0     H61422   9.974   6.315   4.654  1.8399  0.9307  3.1300
  455MOL0     H61423   9.974   6.544   4.995 -2.2766 -2.1176  1.0631
  455MOL0     H61424   9.477   6.524   4.237  1.0297  1.2126  0.8717
  455MOL0     H61425   9.262   6.535   4.150 -0.5959 -0.8067 -0.3792
  456MOL0     O61426   9.786   3.994   5.994  0.2307  0.0998 -1.2354
  456MOL0     C61427   9.833   4.059   5.899 -0.1384  0.1432  0.8914
  456MOL0     O61428   9.789   4.058   5.762 -0.0197 -0.4290 -0.8274
  456MOL0     C61429   9.682   3.985   5.727 -0.1649 -0.1951  0.6517
  456MOL0     C61430   9.645   4.019   5.598  0.2616  0.2236 -0.8090
  456MOL0     C61431   9.522   3.974   5.549  0.1561  0.2251  0.3028
  456MOL0     C61432   9.441   3.876   5.621 -0.5171  0.5124  0.3023
  456MOL0     O61433   9.319   3.828   5.577  0.7055  0.2224 -0.6484
  456MOL0     C61434   9.332   3.750   5.461 -0.5591  0.4583 -0.5401
  456MOL0     C61435   9.207   3.666   5.436  0.4717  0.9234  0.3416
  456MOL0     C61436   9.232   3.568   5.315  0.4273  0.6250  0.0076
  456MOL0     C61437   9.299   3.438   5.346  0.0009 -0.8013 -0.6562
  456MOL0     C61438   9.354   3.354   5.232  0.0982  0.1020  0.5935
  456MOL0     C61439   9.444   3.237   5.279 -0.1340 -0.1172  0.1132
  456MOL0     C61440   9.461   3.141   5.166  0.2452 -0.0636 -0.4370
  456MOL0     C61441   9.575   3.027   5.190 -0.0275  0.9209 -0.2729
  456MOL0     N61442   9.538   2.927   5.291  0.7352 -0.1328  0.2687
  456MOL0     C61443   9.432   2.843   5.276 -0.3007  0.3911  0.4262
  456MOL0     C61444   9.449   2.765   5.388  0.0054  0.7526  0.1943
  456MOL0     C61445   9.359   2.647   5.417  0.0415  0.2368  0.1620
  456MOL0     C61446   9.350   2.539   5.303 -0.4868  1.0975  1.4121
  456MOL0     C61447   9.285   2.414   5.347  0.4124  0.5999  0.2703
  456MOL0     C61448   9.137   2.449   5.401  0.1094  1.1448  0.5806
  456MOL0     O61449   9.063   2.327   5.431  0.2589 -0.2394  0.4953
  456MOL0     C61450   8.936   2.336   5.488  0.7752  0.7498 -0.0364
  456MOL0     C61451   8.874   2.219   5.543  0.0496 -0.3370  0.6175
  456MOL0     C61452   8.756   2.221   5.614  0.9175  0.0557  0.2251
  456MOL0     C61453   8.708   2.082   5.666  0.4976  0.1864  0.4519
  456MOL0     C61454   8.681   2.338   5.630  0.3724 -0.8828 -0.0859
  456MOL0     C61455   8.544   2.357   5.684  0.0723  0.8021 -1.2536
  456MOL0     O61456   8.479   2.243   5.687 -0.3982 -0.6151 -0.3798
  456MOL0     C61457   8.365   2.237   5.763 -0.7734  0.6289 -0.7255
  456MOL0     C61458   8.363   2.268   5.898  0.1498 -0.6460 -0.2467
  456MOL0     C61459   8.261   2.259   5.983 -0.3093 -0.4801  0.0780
  456MOL0     C61460   8.135   2.230   5.923  0.0851 -0.2152 -0.3971
  456MOL0     O61461   8.027   2.215   6.009 -0.1277 -0.1491  0.3218
  456MOL0     C61462   7.894   2.160   5.970 -0.3892 -0.0750  1.1744
  456MOL0     C61463   7.793   2.270   5.958 -0.2340 -0.8379  0.2681
  456MOL0     C61464   7.654   2.224   5.918  0.3815  0.5919  0.5126
  456MOL0     C61465   7.565   2.319   5.852 -0.3577 -0.1696  0.1419
  456MOL0     C61466   7.432   2.241   5.822  0.0100 -0.7177 -0.2166
  456MOL0     C61467   7.321   2.328   5.761 -0.1377 -0.6542  0.0704
  456MOL0     C61468   7.251   2.422   5.866  0.7881  0.0516  0.6490
  456MOL0     C61469   7.140   2.497   5.796  0.1217  0.9013 -0.0729
  456MOL0    Cl61470   7.069   2.608   5.900 -0.0428 -0.2015 -0.2046
  456MOL0     C61471   8.129   2.206   5.782 -0.2959  0.4197  0.2083
  456MOL0     C61472   8.243   2.196   5.711 -0.5252 -0.2001  0.7099
  456MOL0     O61473   8.499   2.463   5.714  0.7421 -0.5900 -0.1986
  456MOL0     C61474   8.744   2.453   5.588 -0.5107 -0.7385 -0.0784
  456MOL0     C61475   8.869   2.456   5.517  0.7031  0.0141  0.2402
  456MOL0     N61476   9.558   2.798   5.460  0.3293 -0.6357 -0.2217
  456MOL0     N61477   9.612   2.901   5.406 -0.4099 -1.2478 -0.9594
  456MOL0     C61478   9.486   3.831   5.738 -0.1087  0.3543 -0.6455
  456MOL0     C61479   9.600   3.890   5.796  0.2258 -0.9639 -0.0823
  456MOL0     C61480   9.966   4.124   5.928  0.0613 -1.2663  0.0106
  456MOL0     C61481  10.007   4.221   5.840 -0.1820  0.8118 -0.0124
  456MOL0     C61482  10.127   4.297   5.864  0.2342 -0.7619  0.7980
  456MOL0     C61483  10.213   4.269   5.971  0.8619 -0.6750  0.2740
  456MOL0     O61484  10.315   4.357   5.985 -0.2964  0.4294 -0.7031
  456MOL0     C61485  10.435   4.304   6.048 -0.5641 -0.3212 -0.3104
  456MOL0     C61486  10.440   4.354   6.193 -0.1864  0.8158  0.7346
  456MOL0     C61487  10.573   4.323   6.266 -0.1375 -0.1599  0.6969
  456MOL0     C61488  10.627   4.180   6.267  0.0976  0.1385  0.5989
  456MOL0     C61489  10.529   4.080   6.318  1.0014  0.2136 -0.4056
  456MOL0     C61490  10.436   4.018   6.371  0.6989 -0.4377  0.3205
  456MOL0     C61491  10.166   4.169   6.060 -1.0883 -0.7381 -1.1828
  456MOL0     C61492  10.044   4.110   6.049  0.5058  0.1369  0.5805
  456MOL0     H61493   9.700   4.094   5.542  0.8304 -0.9162 -1.8233
  456MOL0     H61494   9.485   4.016   5.456  2.5108  2.9858  0.4899
  456MOL0     H61495   9.342   3.818   5.375  2.7559 -2.4777 -2.7465
  456MOL0     H61496   9.425   3.693   5.463 -0.4805  0.5632  1.9570
  456MOL0     H61497   9.181   3.612   5.528  1.7181  0.0925  0.2367
  456MOL0     H61498   9.129   3.741   5.425 -0.4274  0.1722  1.3542
  456MOL0     H61499   9.138   3.552   5.261  0.8465 -0.5128 -0.4183
  456MOL0     H61500   9.295   3.617   5.240 -2.6438  2.8947 -1.3468
  456MOL0     H61501   9.388   3.461   5.406  1.0729  1.3329 -2.9350
  456MOL0     H61502   9.232   3.380   5.411  0.5238  0.2158  0.8566
  456MOL0     H61503   9.269   3.317   5.173  0.8961 -2.8580  1.1099
  456MOL0     H61504   9.414   3.423   5.172  1.6260 -1.4609  0.2639
  456MOL0     H61505   9.543   3.275   5.307 -0.6622  1.8555 -0.5804
  456MOL0     H61506   9.402   3.190   5.368  0.3778  1.3432  1.1770
  456MOL0     H61507   9.369   3.084   5.152 -0.6299  1.0814  0.5229
  456MOL0     H61508   9.486   3.193   5.073 -0.8727  0.6500 -0.3545
  456MOL0     H61509   9.662   3.077   5.232  1.7034 -2.5679  0.6836
  456MOL0     H61510   9.600   2.986   5.092 -1.5428  0.9948 -0.7193
  456MOL0     H61511   9.367   2.834   5.190  1.9644 -3.1189 -1.2026
  456MOL0     H61512   9.370   2.599   5.514 -2.5590 -2.1911 -0.6059
  456MOL0     H61513   9.259   2.690   5.422  0.1411  0.4144  0.7544
  456MOL0     H61514   9.454   2.521   5.275 -1.0840 -0.8604  0.2637
  456MOL0     H61515   9.293   2.576   5.217 -0.8134 -0.9083  0.7073
  456MOL0     H61516   9.354   2.366   5.418  0.3406 -1.8399 -1.2019
  456MOL0     H61517   9.268   2.353   5.258  0.3937  3.1104 -1.5572
  456MOL0     H61518   9.085   2.499   5.319 -0.1882 -1.8795 -1.2138
  456MOL0     H61519   9.138   2.514   5.490 -0.6898  1.3227  0.4686
  456MOL0     H61520   8.917   2.121   5.524  1.6297  0.6178 -1.0129
  456MOL0     H61521   8.666   2.100   5.765 -1.7300 -1.3448 -0.1208
  456MOL0     H61522   8.636   2.047   5.591  0.3251  2.4318 -0.5087
  456MOL0     H61523   8.783   2.003   5.661 -1.8387 -2.1368 -1.3236
  456MOL0     H61524   8.454   2.308   5.944  1.8178 -4.0959 -0.2555
  456MOL0     H61525   8.271   2.267   6.091 -0.1271 -1.4512  0.1374
  456MOL0     H61526   7.907   2.117   5.870 -0.4367  3.0474 -0.2956
  456MOL0     H61527   7.858   2.087   6.043  0.6659 -1.3657  0.4519
  456MOL0     H61528   7.766   2.315   6.053 -1.2132 -1.9708  0.5506
  456MOL0     H61529   7.825   2.342   5.882 -3.2840 -2.7779 -3.1612
  456MOL0     H61530   7.601   2.197   6.010  2.9770 -2.8578  1.2137
  456MOL0     H61531   7.654   2.130   5.862 -0.1075  0.1196  1.2868
  456MOL0     H61532   7.552   2.406   5.916 -0.2970 -0.1239  0.0931
  456MOL0     H61533   7.618   2.355   5.763 -3.5542 -0.4399 -2.0216
  456MOL0     H61534   7.393   2.191   5.911  0.3794  0.7473  0.8109
  456MOL0     H61535   7.473   2.173   5.747  0.8493 -0.9006  0.3957
  456MOL0     H61536   7.377   2.378   5.682  0.3647 -0.5637  0.4769
  456MOL0     H61537   7.241   2.264   5.722 -1.6027 -1.4946  3.9729
  456MOL0     H61538   7.324   2.485   5.917 -0.7482  0.4868  2.4603
  456MOL0     H61539   7.210   2.368   5.953 -2.8633  0.5301 -0.5788
  456MOL0     H61540   7.060   2.429   5.764 -1.4521  1.2317  2.8330
  456MOL0     H61541   7.181   2.563   5.719 -0.2152  3.8312  2.1057
  456MOL0     H61542   8.040   2.174   5.730  0.9514 -3.2294  0.0107
  456MOL0     H61543   8.228   2.163   5.609  1.7527 -0.9234  0.5443
  456MOL0     H61544   8.697   2.545   5.622  0.1133 -1.0961  1.8653
  456MOL0     H61545   8.916   2.553   5.503  1.1718 -0.3245 -0.6396
  456MOL0     H61546   9.436   3.741   5.773  2.1138 -1.9546 -2.9154
  456MOL0     H61547   9.630   3.862   5.897  0.1253 -1.4854 -0.1970
  456MOL0     H61548   9.939   4.256   5.763 -1.0197  1.8737  1.1612
  456MOL0     H61549  10.148   4.384   5.803 -1.1859  0.1295  1.5337
  456MOL0     H61550  10.443   4.195   6.050 -0.4704 -0.3022  0.9761
  456MOL0     H61551  10.526   4.349   6.006  1.0192 -2.9928  0.0119
  456MOL0     H61552  10.355   4.310   6.247  0.3303  0.4765  1.2844
  456MOL0     H61553  10.426   4.462   6.201  3.2513  1.5853 -1.8692
  456MOL0     H61554  10.578   4.360   6.369  4.0831  0.9969  0.2908
  456MOL0     H61555  10.643   4.383   6.206 -0.2068 -0.1685  0.6068
  456MOL0     H61556  10.713   4.180   6.335 -2.1178 -2.5322  3.7017
  456MOL0     H61557  10.657   4.159   6.164  1.5143 -0.9962  1.2024
  456MOL0     H61558  10.354   3.953   6.393  0.6174 -0.8918 -1.2038
  456MOL0     H61559  10.228   4.145   6.146  0.1148  2.0849 -1.1799
  456MOL0     H61560  10.012   4.038   6.123  2.0449  1.5485  2.7354
  457MOL0     O61561   8.801   2.872   1.470 -0.1915  0.3964 -0.5346
  457MOL0     C61562   8.888   2.943   1.418  0.5206 -0.0201  0.0731
  457MOL0     O61563   8.898   3.081   1.427  0.0749  0.1960  0.2656
  457MOL0     C61564   8.774   3.137   1.471  0.0822 -0.1896 -0.2739
  457MOL0     C61565   8.720   3.230   1.378 -0.5364 -0.4125 -0.2791
  457MOL0     C61566   8.606   3.305   1.413 -0.6684  0.4465  0.7311
  457MOL0     C61567   8.553   3.291   1.544  0.1535 -0.2278  0.9290
  457MOL0     O61568   8.435   3.351   1.582  0.3613 -0.2291 -0.3359
  457MOL0     C61569   8.381   3.459   1.506 -0.0122 -0.5636  0.3843
  457MOL0     C61570   8.299   3.547   1.600 -0.5310 -0.9542 -0.5390
  457MOL0     C61571   8.180   3.477   1.656  0.9344  1.0456 -0.0507
  457MOL0     C61572   8.096   3.581   1.731 -0.6599  0.1709  0.4535
  457MOL0     C61573   7.952   3.556   1.727 -0.7312  0.0898 -0.2961
  457MOL0     C61574   7.908   3.415   1.765  0.2457  0.1132  0.4287
  457MOL0     C61575   7.755   3.398   1.774 -0.2242  0.2561 -0.1343
  457MOL0     C61576   7.676   3.500   1.852 -0.3258  0.2882 -0.0901
  457MOL0     N61577   7.542   3.454   1.887  0.4789  0.1496 -0.4770
  457MOL0     C61578   7.458   3.530   1.962  0.5659 -0.0269 -0.0642
  457MOL0     C61579   7.344   3.456   1.976 -0.2504 -0.9138  0.3887
  457MOL0     C61580   7.221   3.487   2.065 -0.2624 -0.1973 -0.2962
  457MOL0     C61581   7.144   3.611   2.027 -0.2219 -0.1100  0.0560
  457MOL0     C61582   7.151   3.649   1.879  0.0092 -0.5446 -0.1454
  457MOL0     C61583   7.047   3.753   1.846 -0.0111  1.2073 -0.0968
  457MOL0     O61584   6.915   3.696   1.856  0.4480 -0.2463 -0.0644
  457MOL0     C61585   6.802   3.763   1.791 -0.2806  0.4333 -0.2568
  457MOL0     C61586   6.678   3.697   1.787  1.1126  0.1538 -0.6786
  457MOL0     C61587   6.562   3.757   1.734 -0.9833 -0.5624  0.7179
  457MOL0     C61588   6.431   3.683   1.742  0.4992 -0.6696 -0.9801
  457MOL0     C61589   6.576   3.893   1.672  0.0653 -0.6335 -0.4508
  457MOL0     C61590   6.463   3.959   1.591  0.2491 -0.4667  0.2739
  457MOL0     O61591   6.460   4.092   1.564  0.0173 -1.4978 -0.4447
  457MOL0     C61592   6.342   4.133   1.510 -0.6919 -0.2480  0.3592
  457MOL0     C61593   6.241   4.185   1.592  0.3229 -0.2087 -0.1042
  457MOL0     C61594   6.125   4.232   1.527  0.8414  0.3231 -0.3521
  457MOL0     C61595   6.100   4.203   1.391  1.1608 -0.0675 -0.0984
  457MOL0     O61596   5.975   4.224   1.330  0.9366  0.0141 -0.7451
  457MOL0     C61597   5.848   4.235   1.402  0.0585  0.2791  0.2775
  457MOL0     C61598   5.738   4.183   1.309 -0.6842  0.0195  0.6606
  457MOL0     C61599   5.611   4.166   1.381  0.7782 -0.3973  0.0618
  457MOL0     C61600   5.488   4.158   1.278 -1.2731 -0.5989  0.7300
  457MOL0     C61601   5.366   4.141   1.359  0.3816  0.8618  0.5857
  457MOL0     C61602   5.232   4.145   1.272 -0.4537  0.2960  0.9023
  457MOL0     C61603   5.102   4.154   1.355  0.1549  0.0232  0.0217
  457MOL0     C61604   4.976   4.163   1.276  0.8557 -0.2966  0.3704
  457MOL0    Cl61605   4.956   4.334   1.226 -0.3390  0.1781 -0.0707
  457MOL0     C61606   6.193   4.132   1.319 -0.3358  0.4231 -0.7100
  457MOL0     C61607   6.325   4.115   1.368 -0.7255  0.5579 -0.3386
  457MOL0     O61608   6.385   3.880   1.540 -0.4233  0.0644  0.4135
  457MOL0     C61609   6.697   3.960   1.686 -0.1909  0.2158  1.2040
  457MOL0     C61610   6.807   3.886   1.727 -0.3631  0.2706  0.0215
  457MOL0     N61611   7.345   3.351   1.883 -0.4396  0.0276 -0.4827
  457MOL0     N61612   7.474   3.346   1.844 -0.1083 -0.1137 -0.9043
  457MOL0     C61613   8.621   3.218   1.637 -0.5650 -0.2952 -0.8484
  457MOL0     C61614   8.726   3.131   1.604  0.0948  0.3346  0.6636
  457MOL0     C61615   9.014   2.887   1.359 -0.1383 -0.2821  0.0086
  457MOL0     C61616   9.136   2.945   1.367 -0.4181 -0.3574 -0.0826
  457MOL0     C61617   9.252   2.890   1.303 -0.6150 -0.9567  0.2167
  457MOL0     C61618   9.246   2.766   1.235 -0.3712 -0.0538 -0.7926
  457MOL0     O61619   9.371   2.712   1.201  0.1601 -0.0324 -0.0535
  457MOL0     C61620   9.399   2.570   1.222 -0.6921  0.6943  0.7473
  457MOL0     C61621   9.544   2.536   1.183  0.3035 -0.2388 -0.9620
  457MOL0     C61622   9.592   2.581   1.042 -0.0815  0.4754 -0.5432
  457MOL0     C61623   9.725   2.517   0.991  0.9169  0.2042 -0.1246
  457MOL0     C61624   9.761   2.547   0.850  0.5313  0.4037  0.1771
  457MOL0     C61625   9.806   2.586   0.742  0.1469 -0.0901 -1.0492
  457MOL0     C61626   9.127   2.697   1.224 -0.4896 -0.3191 -0.4752
  457MOL0     C61627   9.013   2.766   1.287 -0.0425  0.2171  0.0263
  457MOL0     H61628   8.745   3.225   1.272  0.2242 -0.7800 -0.0886
  457MOL0     H61629   8.549   3.357   1.337 -1.1021  1.0925  1.4829
  457MOL0     H61630   8.460   3.516   1.457 -1.1405 -1.3768 -2.6102
  457MOL0     H61631   8.321   3.414   1.426 -0.4703  1.5752 -0.5264
  457MOL0     H61632   8.353   3.587   1.686 -2.0014  1.3214 -0.5942
  457MOL0     H61633   8.271   3.634   1.540 -0.4758  0.0076  0.7858
  457MOL0     H61634   8.130   3.415   1.581 -3.6064  2.4829  1.4385
  457MOL0     H61635   8.201   3.404   1.735 -1.1065 -0.1503 -0.5336
  457MOL0     H61636   8.129   3.579   1.835 -1.6717  2.0934  0.8566
  457MOL0     H61637   8.110   3.679   1.686  0.0212 -0.1477 -0.0452
  457MOL0     H61638   7.898   3.626   1.792  0.0271  2.0418 -1.6509
  457MOL0     H61639   7.919   3.576   1.625 -3.2048  1.4534  0.6682
  457MOL0     H61640   7.945   3.339   1.695 -2.7606 -3.5333  2.4108
  457MOL0     H61641   7.953   3.388   1.862  0.8496  1.2520  0.4772
  457MOL0     H61642   7.722   3.391   1.669  2.3040  1.4693 -1.0935
  457MOL0     H61643   7.735   3.302   1.823 -1.3298  0.9925  0.9100
  457MOL0     H61644   7.665   3.593   1.796  0.8745 -0.4944 -1.6968
  457MOL0     H61645   7.726   3.517   1.948 -2.6937 -0.0114  1.2948
  457MOL0     H61646   7.477   3.624   2.013 -1.7268  0.9057 -0.8165
  457MOL0     H61647   7.161   3.396   2.061 -1.2830  0.5050 -1.4015
  457MOL0     H61648   7.254   3.492   2.169 -1.5168 -0.4563  0.1296
  457MOL0     H61649   7.180   3.695   2.088  5.0176 -0.8371 -1.5656
  457MOL0     H61650   7.041   3.584   2.053 -0.2142  1.2784  1.7002
  457MOL0     H61651   7.141   3.559   1.818  2.9224 -1.0611  0.0254
  457MOL0     H61652   7.245   3.697   1.850 -1.8928  1.7887 -3.2502
  457MOL0     H61653   7.079   3.791   1.749 -0.4069  1.8045  0.0005
  457MOL0     H61654   7.041   3.834   1.918  0.8096 -0.8908  2.4993
  457MOL0     H61655   6.672   3.602   1.840  1.6390 -0.2192 -1.2778
  457MOL0     H61656   6.387   3.654   1.645 -0.2362  1.1705 -1.2239
  457MOL0     H61657   6.431   3.599   1.812 -1.4788 -0.0193 -0.1354
  457MOL0     H61658   6.367   3.749   1.800  3.0968 -0.0812  1.4494
  457MOL0     H61659   6.269   4.194   1.697  0.4538 -2.1090  0.0616
  457MOL0     H61660   6.056   4.290   1.587  1.2519 -0.4183  0.8865
  457MOL0     H61661   5.846   4.187   1.500 -0.5817  3.3347  1.8829
  457MOL0     H61662   5.834   4.343   1.415 -1.5394 -0.0130  1.2573
  457MOL0     H61663   5.731   4.252   1.224 -0.9043 -1.3835 -0.4908
  457MOL0     H61664   5.764   4.084   1.270  2.1477  1.3948 -1.2780
  457MOL0     H61665   5.590   4.245   1.454  0.2347 -1.6170  1.2652
  457MOL0     H61666   5.629   4.071   1.432  1.1286 -0.6395 -0.5053
  457MOL0     H61667   5.497   4.242   1.208  2.0751 -0.7956  0.7503
  457MOL0     H61668   5.494   4.067   1.217 -0.5322 -0.2213  0.2268
  457MOL0     H61669   5.364   4.216   1.438 -1.0234  0.7475  0.6899
  457MOL0     H61670   5.370   4.048   1.417  1.8444  0.2299 -0.4664
  457MOL0     H61671   5.247   4.227   1.201  3.6585  1.1787  2.5138
  457MOL0     H61672   5.234   4.049   1.218  1.9790  1.8434 -2.1264
  457MOL0     H61673   5.110   4.237   1.425 -0.9848  0.9524 -0.9148
  457MOL0     H61674   5.104   4.063   1.416  4.5049  1.7422  2.9142
  457MOL0     H61675   4.897   4.129   1.342  1.3196 -1.7705  0.2043
  457MOL0     H61676   4.973   4.099   1.187 -1.6014 -0.7142  0.6949
  457MOL0     H61677   6.165   4.096   1.221  3.0167 -4.0666 -0.3086
  457MOL0     H61678   6.409   4.078   1.310 -0.2807 -0.2700  0.7926
  457MOL0     H61679   6.697   4.056   1.636 -1.5428 -0.2133  0.3128
  457MOL0     H61680   6.904   3.933   1.716 -0.4154  0.2115 -0.7304
  457MOL0     H61681   8.567   3.198   1.728  0.9563  2.9073  0.9229
  457MOL0     H61682   8.773   3.061   1.672 -0.9852 -2.2543 -1.0818
  457MOL0     H61683   9.140   3.038   1.422  0.0064  0.2961 -1.1794
  457MOL0     H61684   9.344   2.947   1.304 -1.5740  0.6465  0.8554
  457MOL0     H61685   9.403   2.545   1.329  0.9169  2.9547  1.2916
  457MOL0     H61686   9.334   2.506   1.162  0.4048  1.3898 -1.2939
  457MOL0     H61687   9.556   2.429   1.204 -1.4755  0.0875  2.5566
  457MOL0     H61688   9.613   2.581   1.255 -0.7130 -0.2735  0.0734
  457MOL0     H61689   9.601   2.689   1.028 -3.6748  0.8400 -1.1165
  457MOL0     H61690   9.509   2.553   0.976 -1.2590  2.0899  0.1866
  457MOL0     H61691   9.714   2.409   1.005  0.4696  0.4493  1.7330
  457MOL0     H61692   9.804   2.555   1.056  0.7073  0.5153 -0.0451
  457MOL0     H61693   9.850   2.626   0.653  0.9686  2.2093  0.3029
  457MOL0     H61694   9.113   2.608   1.164 -0.7229  0.2278 -1.2485
  457MOL0     H61695   8.920   2.710   1.282 -0.8520  1.1406  2.9457
  458MOL0     O61696   8.134   2.262   8.552  0.0220  0.1787 -0.6373
  458MOL0     C61697   8.177   2.356   8.614 -0.2676 -0.1416  0.2491
  458MOL0     O61698   8.102   2.437   8.695 -0.8185 -0.3809 -0.0631
  458MOL0     C61699   7.974   2.415   8.674  0.6762 -0.5842  0.2977
  458MOL0     C61700   7.907   2.337   8.763 -0.0416 -0.2016  0.4900
  458MOL0     C61701   7.770   2.320   8.756 -1.3172  0.5802 -0.0517
  458MOL0     C61702   7.682   2.372   8.662  0.1477 -0.3978  1.1491
  458MOL0     O61703   7.553   2.345   8.661  0.6316  0.3686  0.4397
  458MOL0     C61704   7.461   2.440   8.608 -0.1036 -0.3729  0.4315
  458MOL0     C61705   7.313   2.400   8.601  0.3525 -0.3928 -0.0652
  458MOL0     C61706   7.254   2.367   8.745  0.0540 -0.0516  0.0655
  458MOL0     C61707   7.117   2.298   8.742 -0.3969 -0.8018  0.8340
  458MOL0     C61708   7.021   2.361   8.635  0.0280 -0.0119 -0.2839
  458MOL0     C61709   6.883   2.304   8.646  0.0234  0.0847 -0.1891
  458MOL0     C61710   6.865   2.151   8.591 -0.2496 -0.4861 -0.1753
  458MOL0     C61711   6.738   2.097   8.647 -0.2659  0.0504 -0.8842
  458MOL0     N61712   6.620   2.179   8.617  0.3449  0.0005  0.3524
  458MOL0     C61713   6.596   2.221   8.488 -0.5555 -0.3223  0.0656
  458MOL0     C61714   6.478   2.299   8.497  0.2326  0.1404 -0.7400
  458MOL0     C61715   6.400   2.356   8.385  1.1653  0.2054 -0.6530
  458MOL0     C61716   6.293   2.259   8.324 -0.8566 -0.1493  0.0778
  458MOL0     C61717   6.351   2.180   8.200 -0.0809 -0.2457 -0.2804
  458MOL0     C61718   6.235   2.113   8.125 -0.1958 -0.1161 -0.1349
  458MOL0     O61719   6.187   2.005   8.215  0.0966 -0.1810 -0.2842
  458MOL0     C61720   6.072   1.937   8.178 -0.0740  0.0873  0.2061
  458MOL0     C61721   6.009   1.854   8.270  0.8452 -0.6969  0.0535
  458MOL0     C61722   5.884   1.778   8.249 -0.9220 -0.2864  0.7305
  458MOL0     C61723   5.823   1.709   8.373  0.3899  0.8420  0.6476
  458MOL0     C61724   5.839   1.776   8.113  0.6691  0.4852 -0.3493
  458MOL0     C61725   5.720   1.699   8.056 -0.2345 -0.2339 -0.3173
  458MOL0     O61726   5.648   1.765   7.963  0.7823  0.3962 -0.2077
  458MOL0     C61727   5.525   1.723   7.927  0.5079  0.4824  0.2061
  458MOL0     C61728   5.489   1.709   7.788  0.1516  0.9821  0.1749
  458MOL0     C61729   5.365   1.661   7.753  0.4916 -0.2519  0.2229
  458MOL0     C61730   5.270   1.622   7.854 -0.5975  0.0072  0.5488
  458MOL0     O61731   5.146   1.593   7.801  1.1379 -0.0574 -0.3246
  458MOL0     C61732   5.036   1.577   7.885  0.2807  0.4064  0.1863
  458MOL0     C61733   5.013   1.427   7.897 -0.0860 -0.3556 -0.5649
  458MOL0     C61734   4.878   1.397   7.957 -0.4258 -0.1883  0.8123
  458MOL0     C61735   4.789   1.297   7.880  0.2786 -0.4135 -0.1193
  458MOL0     C61736   4.643   1.296   7.927 -0.2349 -0.0432  0.2783
  458MOL0     C61737   4.568   1.196   7.840 -1.2356 -0.1215  0.4746
  458MOL0     C61738   4.425   1.178   7.876 -0.2780 -0.1618 -0.4859
  458MOL0     C61739   4.343   1.091   7.777 -0.5265  0.0065 -0.1516
  458MOL0    Cl61740   4.274   1.196   7.647  0.1012 -0.1804 -0.1732
  458MOL0     C61741   5.304   1.635   7.991  0.3726  0.9021  0.0459
  458MOL0     C61742   5.431   1.690   8.017  0.0920 -0.2368 -0.6979
  458MOL0     O61743   5.706   1.586   8.094  0.8246  0.6176  0.0100
  458MOL0     C61744   5.909   1.857   8.020 -0.1130 -1.2552  0.2860
  458MOL0     C61745   6.020   1.938   8.051  0.1236  0.3913 -0.0126
  458MOL0     N61746   6.449   2.293   8.635  0.0764 -0.3159  1.3029
  458MOL0     N61747   6.532   2.237   8.703 -0.6000 -0.0266 -0.1323
  458MOL0     C61748   7.746   2.457   8.565  1.0174  0.2674  0.2027
  458MOL0     C61749   7.891   2.471   8.571 -0.2258 -0.5998 -0.8756
  458MOL0     C61750   8.326   2.376   8.617  0.0093  0.3874  0.5501
  458MOL0     C61751   8.373   2.503   8.660  0.0895 -0.5644 -1.0808
  458MOL0     C61752   8.510   2.530   8.663 -0.1872 -0.3196 -0.5722
  458MOL0     C61753   8.608   2.431   8.630 -0.5280 -1.2689  0.3170
  458MOL0     O61754   8.733   2.473   8.619  0.1912 -0.2089 -0.1329
  458MOL0     C61755   8.825   2.425   8.717  0.0478 -1.5724 -0.0953
  458MOL0     C61756   8.965   2.471   8.675  0.1880  0.0355  0.6402
  458MOL0     C61757   9.061   2.401   8.753 -0.1303  0.2956  0.0662
  458MOL0     C61758   9.207   2.425   8.696  0.8497 -0.2781 -0.0952
  458MOL0     C61759   9.308   2.362   8.774 -1.2757 -0.1506  0.0607
  458MOL0     C61760   9.393   2.326   8.847 -0.6904  0.3860  0.7894
  458MOL0     C61761   8.562   2.309   8.577 -0.1015  0.3315  0.4317
  458MOL0     C61762   8.424   2.281   8.573  0.2153  0.2829  0.0509
  458MOL0     H61763   7.961   2.277   8.836  1.3602 -1.8419 -1.7176
  458MOL0     H61764   7.720   2.254   8.827  1.1770  0.6620  1.9593
  458MOL0     H61765   7.479   2.539   8.652  1.2832  0.3648 -1.6066
  458MOL0     H61766   7.502   2.452   8.507  2.4407 -0.4675  1.3816
  458MOL0     H61767   7.254   2.486   8.569 -0.6193 -1.8091 -2.3741
  458MOL0     H61768   7.305   2.309   8.540 -1.2897 -1.1005  1.1281
  458MOL0     H61769   7.327   2.297   8.787  1.2316  1.7785  1.1976
  458MOL0     H61770   7.236   2.459   8.801  1.5674  1.4492 -1.7396
  458MOL0     H61771   7.132   2.190   8.733  1.1051 -0.4227 -4.5398
  458MOL0     H61772   7.080   2.309   8.844 -1.1757  0.5725  0.4221
  458MOL0     H61773   7.013   2.468   8.655  0.9477  0.1980 -0.9405
  458MOL0     H61774   7.054   2.353   8.531 -0.9910  0.1119 -0.6190
  458MOL0     H61775   6.853   2.326   8.749 -0.1816 -1.6788  0.1688
  458MOL0     H61776   6.826   2.364   8.575  0.8300  0.8443 -0.2164
  458MOL0     H61777   6.861   2.153   8.482 -0.6800  1.1523 -0.1561
  458MOL0     H61778   6.946   2.086   8.625 -0.6438  0.6964  3.5099
  458MOL0     H61779   6.743   2.071   8.753  0.0730  4.0377  0.2260
  458MOL0     H61780   6.733   1.996   8.603  0.5854 -1.1630  1.6193
  458MOL0     H61781   6.658   2.194   8.403  0.1791  2.0613 -0.2194
  458MOL0     H61782   6.353   2.446   8.424 -2.4855 -1.4188 -0.9056
  458MOL0     H61783   6.480   2.382   8.315  0.0261 -0.7825 -2.3796
  458MOL0     H61784   6.208   2.319   8.287  0.1556 -0.8227 -3.8330
  458MOL0     H61785   6.253   2.195   8.403  1.6092 -0.8984  0.7997
  458MOL0     H61786   6.414   2.101   8.242 -0.8050 -0.8451 -0.3177
  458MOL0     H61787   6.416   2.248   8.143  1.3207 -3.0052 -2.2503
  458MOL0     H61788   6.257   2.064   8.030 -0.8235 -0.8579  0.0876
  458MOL0     H61789   6.163   2.193   8.106  0.0855  1.4090  4.1246
  458MOL0     H61790   6.051   1.852   8.371  0.4518  2.0481  0.3484
  458MOL0     H61791   5.864   1.608   8.378  0.9158  0.4640 -4.9973
  458MOL0     H61792   5.841   1.769   8.463  0.8968  3.3617 -1.0226
  458MOL0     H61793   5.715   1.697   8.356  0.2498  1.0429  1.3522
  458MOL0     H61794   5.563   1.736   7.713  1.2962  1.3100  1.3900
  458MOL0     H61795   5.339   1.661   7.648  0.5049 -1.1473  0.2160
  458MOL0     H61796   5.053   1.615   7.986  1.3071  0.5282 -0.0256
  458MOL0     H61797   4.945   1.624   7.847 -0.4682 -1.5023 -0.5170
  458MOL0     H61798   5.009   1.367   7.805 -0.8959 -1.0500 -0.0909
  458MOL0     H61799   5.083   1.393   7.974  1.4860 -3.4122 -3.1051
  458MOL0     H61800   4.825   1.492   7.957  0.7566  0.4934  0.1058
  458MOL0     H61801   4.888   1.362   8.060  1.3844  2.2339  1.5456
  458MOL0     H61802   4.790   1.327   7.775 -2.6402  1.4585  0.2789
  458MOL0     H61803   4.833   1.198   7.892 -1.6192 -1.3255 -0.4624
  458MOL0     H61804   4.606   1.399   7.920  1.8756  0.9403  2.2140
  458MOL0     H61805   4.639   1.269   8.033 -3.9800  0.6496  0.4650
  458MOL0     H61806   4.575   1.228   7.735  1.5035 -0.1841  0.5610
  458MOL0     H61807   4.617   1.100   7.860  1.7724  1.5376  1.7160
  458MOL0     H61808   4.370   1.270   7.900  0.1441 -0.5350  2.1510
  458MOL0     H61809   4.430   1.117   7.966 -0.8524 -0.6848 -0.7975
  458MOL0     H61810   4.265   1.031   7.825  2.1174 -2.9314  0.8062
  458MOL0     H61811   4.418   1.020   7.742 -0.5388  0.9785 -2.2995
  458MOL0     H61812   5.235   1.613   8.071  2.2203  0.7188  1.6737
  458MOL0     H61813   5.458   1.693   8.122  0.4261  1.5050 -0.8059
  458MOL0     H61814   5.888   1.834   7.916  2.9173 -0.9050 -0.5086
  458MOL0     H61815   6.081   1.984   7.975  0.3225 -2.7119 -1.9066
  458MOL0     H61816   7.690   2.503   8.485  0.1868  1.2146  1.3127
  458MOL0     H61817   7.937   2.538   8.500 -1.2160  1.2543  0.1527
  458MOL0     H61818   8.313   2.584   8.701 -1.8819 -1.0427 -2.8648
  458MOL0     H61819   8.543   2.632   8.678 -0.1628 -0.4720  0.4946
  458MOL0     H61820   8.807   2.467   8.816  0.8103 -2.9210  0.6391
  458MOL0     H61821   8.825   2.316   8.725  3.5824 -1.5932  1.5001
  458MOL0     H61822   8.977   2.579   8.683 -1.7454  0.2514  1.1647
  458MOL0     H61823   8.978   2.434   8.573 -0.2606 -0.9472  0.9305
  458MOL0     H61824   9.038   2.294   8.758 -0.3149  0.3737  1.5533
  458MOL0     H61825   9.062   2.437   8.856  1.0939  1.2678 -0.2654
  458MOL0     H61826   9.233   2.529   8.718  2.9073 -0.4103 -1.6566
  458MOL0     H61827   9.218   2.398   8.591  1.6462 -1.2279  0.2197
  458MOL0     H61828   9.471   2.277   8.903  1.2446  0.8617 -1.3205
  458MOL0     H61829   8.640   2.238   8.551 -0.2678  0.7897 -1.4907
  458MOL0     H61830   8.384   2.192   8.525  1.4287  0.5618 -1.5471
  459MOL0     O61831   4.898   6.840   3.788  0.5006 -0.8742  0.3231
  459MOL0     C61832   4.831   6.819   3.683  1.0702  0.5146 -0.5260
  459MOL0     O61833   4.692   6.820   3.681 -0.9649 -1.1477 -0.2461
  459MOL0     C61834   4.630   6.821   3.806  0.6534 -0.7077 -0.7173
  459MOL0     C61835   4.646   6.714   3.899 -0.3582  0.0083  0.1145
  459MOL0     C61836   4.571   6.722   4.020 -0.0007  0.0919  1.1120
  459MOL0     C61837   4.469   6.826   4.042 -0.4532 -0.3181 -0.2469
  459MOL0     O61838   4.409   6.824   4.168 -0.4194 -0.6185 -0.0808
  459MOL0     C61839   4.301   6.920   4.202 -0.6638  0.0358 -0.3309
  459MOL0     C61840   4.215   6.868   4.311  0.2288  0.8389 -0.3237
  459MOL0     C61841   4.131   6.744   4.272  0.0020 -0.4379  0.3168
  459MOL0     C61842   4.057   6.675   4.389  0.0653 -0.0652 -0.5549
  459MOL0     C61843   3.995   6.544   4.355 -0.2808 -0.1620  0.3712
  459MOL0     C61844   3.871   6.571   4.277 -0.2112 -0.3745 -0.5445
  459MOL0     C61845   3.814   6.450   4.196  0.0008 -0.0316  0.8075
  459MOL0     C61846   3.741   6.354   4.295 -0.8152  0.0682  0.6702
  459MOL0     N61847   3.615   6.418   4.344 -0.6118 -0.2811 -0.1646
  459MOL0     C61848   3.490   6.430   4.277 -0.7567 -0.1804 -0.3731
  459MOL0     C61849   3.413   6.485   4.376 -0.3348 -0.3570  0.5609
  459MOL0     C61850   3.280   6.539   4.353 -0.1124  0.4066  0.1527
  459MOL0     C61851   3.158   6.444   4.348 -0.5678  0.4475 -0.2620
  459MOL0     C61852   3.163   6.338   4.237 -0.7604 -0.1359  0.6083
  459MOL0     C61853   3.035   6.257   4.222 -0.0621 -0.1004  0.6034
  459MOL0     O61854   2.917   6.338   4.229 -0.2595  0.0707 -0.4836
  459MOL0     C61855   2.799   6.273   4.260  0.7574  0.4596 -0.1777
  459MOL0     C61856   2.779   6.131   4.267  0.5563  0.2949  0.1441
  459MOL0     C61857   2.656   6.078   4.322 -0.6906 -0.5335 -0.5937
  459MOL0     C61858   2.646   5.930   4.342 -0.2413  0.1100  0.0828
  459MOL0     C61859   2.549   6.174   4.351 -0.0606  0.3479  0.1840
  459MOL0     C61860   2.421   6.132   4.393  0.8779  0.4759 -0.0542
  459MOL0     O61861   2.315   6.209   4.358  0.1802 -0.4168  0.0040
  459MOL0     C61862   2.187   6.163   4.377 -0.3122 -0.3056 -0.0224
  459MOL0     C61863   2.112   6.104   4.273  0.6013 -0.4817  0.7287
  459MOL0     C61864   1.983   6.053   4.305 -1.2066  0.4985 -0.0033
  459MOL0     C61865   1.923   6.073   4.430 -0.1745 -0.3331 -0.0425
  459MOL0     O61866   1.790   6.029   4.446 -0.3755  0.2511 -0.0477
  459MOL0     C61867   1.711   6.078   4.554 -0.2741 -0.3010 -0.8524
  459MOL0     C61868   1.645   6.218   4.544 -0.1122  0.4174  0.2402
  459MOL0     C61869   1.526   6.233   4.638 -0.4062  1.5139  0.0484
  459MOL0     C61870   1.562   6.185   4.782  0.1774 -1.6166 -0.2242
  459MOL0     C61871   1.457   6.228   4.881  0.0823  1.4260  0.6305
  459MOL0     C61872   1.336   6.128   4.881 -0.4953 -0.3007  0.3555
  459MOL0     C61873   1.226   6.191   4.970  0.1877  0.3914 -0.3561
  459MOL0     C61874   1.105   6.109   5.010  0.3726 -0.6413  0.7267
  459MOL0    Cl61875   1.061   5.998   4.874  0.4438  0.1065  0.3477
  459MOL0     C61876   2.000   6.136   4.524  0.3302  0.8284  0.3774
  459MOL0     C61877   2.127   6.182   4.501  0.1002 -0.1665 -0.1594
  459MOL0     O61878   2.401   6.038   4.471 -0.3366  0.2534 -0.2549
  459MOL0     C61879   2.569   6.306   4.313  0.1073  0.3884 -0.6164
  459MOL0     C61880   2.694   6.357   4.277 -0.3319 -0.1520  0.1670
  459MOL0     N61881   3.475   6.503   4.500  0.3180 -0.0096 -0.4797
  459MOL0     N61882   3.595   6.457   4.474  0.3360 -0.0162  0.3416
  459MOL0     C61883   4.440   6.916   3.936  0.4542 -0.0953 -0.1842
  459MOL0     C61884   4.525   6.917   3.828  0.5630 -0.0282  0.3698
  459MOL0     C61885   4.903   6.782   3.557  0.5360 -0.2575  0.4946
  459MOL0     C61886   4.817   6.764   3.441 -0.0878  0.4485 -0.3310
  459MOL0     C61887   4.877   6.719   3.327  0.0138  0.0575  0.1716
  459MOL0     C61888   5.012   6.699   3.316  0.1412  0.7063 -0.3175
  459MOL0     O61889   5.072   6.661   3.198 -0.6473 -0.2768 -0.3236
  459MOL0     C61890   5.056   6.524   3.169 -1.0755  0.5490  0.0288
  459MOL0     C61891   5.171   6.478   3.087 -0.9254  0.0936  0.1673
  459MOL0     C61892   5.303   6.512   3.171  0.2096  0.1429  0.2212
  459MOL0     C61893   5.421   6.447   3.101  0.4064  0.6424 -0.6611
  459MOL0     C61894   5.417   6.301   3.105 -0.0997 -0.0549  0.3430
  459MOL0     C61895   5.407   6.180   3.102  0.2146 -0.0344  0.1263
  459MOL0     C61896   5.094   6.723   3.423  1.1660 -0.1666 -0.8389
  459MOL0     C61897   5.041   6.778   3.540  0.2680 -0.2570 -0.1715
  459MOL0     H61898   4.728   6.645   3.881  2.9463  1.8914  5.4468
  459MOL0     H61899   4.582   6.648   4.099 -1.0907 -1.7151 -0.3305
  459MOL0     H61900   4.360   7.007   4.231  3.0568 -1.1567 -3.4321
  459MOL0     H61901   4.237   6.957   4.121  0.0216  3.2306  0.4561
  459MOL0     H61902   4.273   6.845   4.401  0.1205  4.3187  0.7778
  459MOL0     H61903   4.149   6.948   4.346  1.8813  1.4125  1.7034
  459MOL0     H61904   4.058   6.777   4.198  0.7841 -1.9944 -1.2257
  459MOL0     H61905   4.188   6.662   4.228 -0.3853 -1.1564  1.1100
  459MOL0     H61906   4.125   6.647   4.471 -0.7989 -1.0875 -0.1727
  459MOL0     H61907   3.970   6.733   4.422 -1.9208 -1.1535 -3.4555
  459MOL0     H61908   4.066   6.480   4.302 -0.6101 -0.4721  0.3030
  459MOL0     H61909   3.970   6.501   4.452  0.3868 -0.4495  0.4170
  459MOL0     H61910   3.792   6.613   4.341 -2.1127 -2.7125 -1.1978
  459MOL0     H61911   3.898   6.646   4.202  0.2351  1.2065  1.1454
  459MOL0     H61912   3.748   6.478   4.113 -0.2414  1.3586  1.4377
  459MOL0     H61913   3.896   6.392   4.153  0.4606  1.0820  0.1211
  459MOL0     H61914   3.791   6.339   4.391 -1.0205  0.2301  0.8034
  459MOL0     H61915   3.713   6.263   4.241 -1.4527 -0.0904  1.2441
  459MOL0     H61916   3.461   6.423   4.173 -0.9369 -0.3707 -0.3095
  459MOL0     H61917   3.266   6.610   4.435 -0.8425 -0.2761  0.6377
  459MOL0     H61918   3.296   6.601   4.264  4.3284  0.1677  0.5630
  459MOL0     H61919   3.062   6.495   4.338 -0.8614 -0.5169 -3.2649
  459MOL0     H61920   3.152   6.401   4.449  1.8140 -1.2053 -0.7446
  459MOL0     H61921   3.242   6.266   4.258  1.7012  2.1912 -0.1634
  459MOL0     H61922   3.176   6.387   4.140 -3.4553  2.0719  1.2168
  459MOL0     H61923   3.028   6.179   4.298  1.8805 -0.6877  0.2506
  459MOL0     H61924   3.039   6.212   4.122 -0.0813  1.7769 -0.2762
  459MOL0     H61925   2.855   6.056   4.246 -4.7704 -4.8719 -3.9032
  459MOL0     H61926   2.592   5.882   4.261  1.0703 -0.1517 -0.6569
  459MOL0     H61927   2.744   5.881   4.338  0.1721  0.3688  3.6256
  459MOL0     H61928   2.603   5.893   4.436  0.1610 -1.7733 -0.4381
  459MOL0     H61929   2.157   6.101   4.175  1.0666  2.9964  0.7087
  459MOL0     H61930   1.915   6.007   4.234 -0.3213  1.9016 -1.8338
  459MOL0     H61931   1.621   6.021   4.578  0.0173 -0.5304 -0.2673
  459MOL0     H61932   1.767   6.073   4.648  1.3623  0.7632 -1.7321
  459MOL0     H61933   1.718   6.299   4.547  0.0369  0.3478 -0.9017
  459MOL0     H61934   1.609   6.220   4.441  2.2761  3.0633 -0.6572
  459MOL0     H61935   1.443   6.179   4.592  0.1033  1.4154 -0.7821
  459MOL0     H61936   1.502   6.340   4.639  1.2160  1.9268 -0.9860
  459MOL0     H61937   1.559   6.076   4.775 -3.3898 -1.7548  1.2463
  459MOL0     H61938   1.664   6.219   4.804  0.3734 -1.1813 -1.7309
  459MOL0     H61939   1.412   6.318   4.838 -0.1699  0.5402 -1.0598
  459MOL0     H61940   1.491   6.229   4.985  0.4992 -2.8226  0.7348
  459MOL0     H61941   1.300   6.108   4.779 -0.4642  0.7208  0.1329
  459MOL0     H61942   1.360   6.029   4.922 -1.6153 -0.1505  1.3973
  459MOL0     H61943   1.186   6.271   4.908 -0.5082 -1.4901 -2.5072
  459MOL0     H61944   1.266   6.231   5.064 -0.2963 -0.3320  0.1702
  459MOL0     H61945   1.014   6.168   5.025 -0.9485 -2.7282  1.2784
  459MOL0     H61946   1.119   6.047   5.099 -0.3068  0.1357  1.3946
  459MOL0     H61947   1.947   6.141   4.618 -2.2256 -2.2515 -0.6894
  459MOL0     H61948   2.182   6.228   4.583  0.4779 -0.7562 -0.0781
  459MOL0     H61949   2.483   6.371   4.310  0.5120  0.9402 -0.5198
  459MOL0     H61950   2.705   6.465   4.267 -2.3119  0.1473  0.8565
  459MOL0     H61951   4.367   6.994   3.953 -0.4402 -1.6008  4.0830
  459MOL0     H61952   4.536   7.000   3.758  2.5764 -0.7782 -0.2907
  459MOL0     H61953   4.708   6.763   3.444 -0.1483 -0.1263 -1.8138
  459MOL0     H61954   4.812   6.697   3.242 -0.6817 -0.3498  0.8015
  459MOL0     H61955   5.032   6.472   3.263 -3.8893  2.3058  0.4211
  459MOL0     H61956   4.969   6.520   3.103  0.4658  1.9788 -2.1875
  459MOL0     H61957   5.179   6.532   2.992 -1.1511 -0.2535 -0.0519
  459MOL0     H61958   5.168   6.370   3.071 -1.0642 -0.1862  1.9230
  459MOL0     H61959   5.305   6.471   3.273  1.2178 -0.2716  0.0410
  459MOL0     H61960   5.320   6.620   3.174 -0.2101  0.2618 -1.3065
  459MOL0     H61961   5.518   6.471   3.145  0.7183 -1.7030  0.0688
  459MOL0     H61962   5.419   6.477   2.996  3.5012 -1.7174 -1.5556
  459MOL0     H61963   5.404   6.076   3.075 -2.3309  0.0671 -0.1696
  459MOL0     H61964   5.199   6.707   3.406  1.2569  0.3733 -0.8229
  459MOL0     H61965   5.110   6.807   3.619 -0.0941  1.7929 -0.5587
  460MOL0     O61966   8.312   6.938   0.332  0.4936  0.1160  0.7718
  460MOL0     C61967   8.372   7.042   0.330 -0.0164  0.6556  1.1538
  460MOL0     O61968   8.329   7.165   0.359  0.2326  0.2261 -0.6280
  460MOL0     C61969   8.200   7.189   0.396  0.9288  0.2715  0.3553
  460MOL0     C61970   8.106   7.100   0.469 -0.1642 -0.7881 -0.3965
  460MOL0     C61971   7.978   7.140   0.502  0.4448 -0.6650 -0.4499
  460MOL0     C61972   7.942   7.275   0.473 -0.3553 -0.3938 -0.1164
  460MOL0     O61973   7.842   7.339   0.539 -0.3381  0.5059 -0.3232
  460MOL0     C61974   7.713   7.342   0.470 -0.0994  0.1214  0.2974
  460MOL0     C61975   7.685   7.482   0.435 -0.5868  0.1077  0.3134
  460MOL0     C61976   7.545   7.504   0.359  0.0206  0.3639 -0.5079
  460MOL0     C61977   7.429   7.513   0.461 -0.7362 -0.4996 -0.0202
  460MOL0     C61978   7.300   7.570   0.403 -0.1958 -0.3407 -0.5796
  460MOL0     C61979   7.205   7.615   0.512 -0.4764 -0.1374  0.2274
  460MOL0     C61980   7.073   7.643   0.462  0.1762 -0.1207 -0.0166
  460MOL0     C61981   7.046   7.765   0.378 -0.0319 -0.6296  0.8029
  460MOL0     N61982   6.906   7.806   0.399  0.0060  0.6879 -0.7490
  460MOL0     C61983   6.870   7.885   0.495 -0.0930 -0.1254 -1.1254
  460MOL0     C61984   6.732   7.894   0.489 -0.4087  0.6548  0.3622
  460MOL0     C61985   6.635   7.956   0.593  0.4929 -0.6953 -0.4370
  460MOL0     C61986   6.685   8.094   0.640  0.7835  0.2228 -0.8316
  460MOL0     C61987   6.766   8.091   0.771  0.9489 -0.4050  0.5158
  460MOL0     C61988   6.785   8.224   0.843  0.9306 -0.7488  0.7272
  460MOL0     O61989   6.907   8.227   0.925  0.5410 -0.1331 -0.2160
  460MOL0     C61990   7.023   8.264   0.859 -1.0379 -0.7501 -0.5050
  460MOL0     C61991   7.048   8.271   0.718  0.4156 -0.4003  0.1216
  460MOL0     C61992   7.171   8.318   0.665 -0.3021 -0.4121 -1.0811
  460MOL0     C61993   7.197   8.314   0.512 -0.1969  0.7755  0.9626
  460MOL0     C61994   7.269   8.374   0.756 -0.2642 -0.4127  0.9724
  460MOL0     C61995   7.382   8.447   0.706  0.6066  0.0179 -0.0217
  460MOL0     O61996   7.491   8.436   0.783  0.0308 -0.3247  0.2368
  460MOL0     C61997   7.587   8.524   0.752 -0.0446  0.8145  0.2650
  460MOL0     C61998   7.712   8.469   0.707 -0.7544 -0.3944 -0.1974
  460MOL0     C61999   7.807   8.563   0.677 -0.2953  0.0394  0.4661
  460MOL0     C62000   7.794   8.703   0.696  0.4420 -0.0030 -0.3832
  460MOL0     O62001   7.904   8.791   0.669  0.2996 -0.5271  0.0041
  460MOL0     C62002   7.890   8.932   0.694 -0.3939 -0.3104  0.1959
  460MOL0     C62003   8.012   8.998   0.626 -0.1364  0.7871 -0.5263
  460MOL0     C62004   8.033   9.132   0.682  0.2668 -0.3332 -0.2611
  460MOL0     C62005   7.942   9.236   0.620  0.6480 -0.5487  0.5172
  460MOL0     C62006   7.960   9.365   0.691  0.8543 -0.1999  0.1689
  460MOL0     C62007   8.088   9.438   0.669 -0.6261 -0.0597 -0.4028
  460MOL0     C62008   8.074   9.581   0.716 -0.7534 -0.1986  0.7881
  460MOL0     C62009   8.207   9.658   0.692  0.7528 -0.4140 -0.4302
  460MOL0    Cl62010   8.258   9.665   0.525  0.0310 -0.4491 -0.2623
  460MOL0     C62011   7.680   8.754   0.758  1.7559 -0.4034  0.2865
  460MOL0     C62012   7.580   8.665   0.782  0.4686 -0.5279  0.1175
  460MOL0     O62013   7.368   8.518   0.606 -0.0347 -0.0052 -0.5144
  460MOL0     C62014   7.250   8.360   0.893  0.7428  0.6552 -0.9130
  460MOL0     C62015   7.129   8.309   0.945  0.5730  0.3979 -0.3614
  460MOL0     N62016   6.702   7.831   0.372 -0.3652 -0.0752 -0.2054
  460MOL0     N62017   6.798   7.771   0.324 -1.3956  0.1374 -0.5731
  460MOL0     C62018   8.034   7.364   0.409  0.4675 -0.3491 -0.4178
  460MOL0     C62019   8.158   7.320   0.363  0.1639  0.2154  0.6126
  460MOL0     C62020   8.519   7.031   0.323 -0.3031  0.5054 -0.4169
  460MOL0     C62021   8.578   6.914   0.273  0.3403 -0.1685 -0.0168
  460MOL0     C62022   8.717   6.901   0.276 -0.2835 -0.3694 -0.1226
  460MOL0     C62023   8.802   7.008   0.322  0.2160  0.6282  1.2937
  460MOL0     O62024   8.946   6.986   0.311  0.7088 -0.3012 -0.2540
  460MOL0     C62025   9.019   7.107   0.292 -0.5019  0.6790 -0.4264
  460MOL0     C62026   9.171   7.081   0.251  0.2563  0.5039 -1.3002
  460MOL0     C62027   9.238   6.962   0.325 -0.1305  0.5392 -0.3643
  460MOL0     C62028   9.387   6.944   0.280  0.9311  0.2405 -0.0819
  460MOL0     C62029   9.412   6.907   0.134 -1.0884 -0.5822 -0.7241
  460MOL0     C62030   9.442   6.896   0.021 -0.2460 -0.3004  0.1671
  460MOL0     C62031   8.737   7.121   0.363 -0.2340 -0.0135  0.2867
  460MOL0     C62032   8.599   7.141   0.366 -0.0747 -0.4861  0.3807
  460MOL0     H62033   8.137   6.999   0.492 -1.1858 -0.5548  2.3912
  460MOL0     H62034   7.918   7.074   0.564 -0.1787  0.3784  0.0834
  460MOL0     H62035   7.721   7.285   0.377 -0.7001  0.0062  0.3092
  460MOL0     H62036   7.630   7.300   0.529 -0.2853  0.4947  0.3010
  460MOL0     H62037   7.696   7.544   0.525  2.9851  0.3744 -0.1659
  460MOL0     H62038   7.763   7.516   0.367 -1.7951  2.3101 -0.0807
  460MOL0     H62039   7.547   7.598   0.304  3.8447  0.7313 -0.0047
  460MOL0     H62040   7.523   7.426   0.286 -0.2791 -0.8072  0.7817
  460MOL0     H62041   7.412   7.409   0.491 -0.4067 -0.8426 -0.9703
  460MOL0     H62042   7.455   7.576   0.547 -2.3923 -0.1725  0.2671
  460MOL0     H62043   7.326   7.651   0.334  0.9602 -1.0529 -1.0243
  460MOL0     H62044   7.253   7.499   0.335 -2.2838 -0.4528  0.8890
  460MOL0     H62045   7.194   7.537   0.588 -0.0032  0.5278  1.0046
  460MOL0     H62046   7.252   7.703   0.559 -1.9892  1.5441 -1.2624
  460MOL0     H62047   7.057   7.551   0.405 -0.6216 -1.0260  1.5852
  460MOL0     H62048   6.990   7.628   0.531  0.6147  0.5053  0.6594
  460MOL0     H62049   7.076   7.740   0.276 -0.1414  0.2770  0.5405
  460MOL0     H62050   7.116   7.840   0.415  1.0276 -1.5377  0.6973
  460MOL0     H62051   6.939   7.929   0.566  0.4163 -0.2991 -1.5046
  460MOL0     H62052   6.536   7.968   0.548  0.5506 -2.2584 -1.0283
  460MOL0     H62053   6.624   7.895   0.683  0.7926 -1.2992 -0.8044
  460MOL0     H62054   6.600   8.162   0.644  3.6255  4.1535 -0.8032
  460MOL0     H62055   6.749   8.140   0.564  2.0729 -1.5596 -0.9058
  460MOL0     H62056   6.866   8.057   0.742  0.3523 -1.6873 -0.1466
  460MOL0     H62057   6.720   8.019   0.840  2.2284 -2.3846 -0.5918
  460MOL0     H62058   6.704   8.258   0.908  0.9290  2.1349 -0.6346
  460MOL0     H62059   6.795   8.311   0.778  2.2186  1.5498  3.7635
  460MOL0     H62060   6.986   8.229   0.639  2.2819 -3.9465  0.3446
  460MOL0     H62061   7.298   8.299   0.472 -0.7429 -0.6417  0.0144
  460MOL0     H62062   7.160   8.221   0.468  1.1788  0.6778 -0.0732
  460MOL0     H62063   7.154   8.402   0.465 -0.3999  0.2906  0.2177
  460MOL0     H62064   7.718   8.361   0.707  0.3030 -0.3434 -0.5059
  460MOL0     H62065   7.905   8.538   0.640  0.4296  0.4676  2.0104
  460MOL0     H62066   7.797   8.970   0.649 -1.4395 -2.5652  0.3395
  460MOL0     H62067   7.895   8.948   0.802 -0.2936 -0.7956  0.2642
  460MOL0     H62068   8.102   8.938   0.638 -0.0339  0.0962 -3.7801
  460MOL0     H62069   8.001   9.000   0.517  1.3352  1.5154 -0.6768
  460MOL0     H62070   8.136   9.164   0.661 -1.4838  3.9402 -4.1461
  460MOL0     H62071   8.014   9.139   0.789 -1.8715 -1.2525 -0.5304
  460MOL0     H62072   7.952   9.256   0.513 -1.2883 -1.1605  0.1820
  460MOL0     H62073   7.836   9.213   0.631  1.1218 -2.5838  1.2691
  460MOL0     H62074   7.936   9.355   0.797 -1.4672  0.8945 -0.1839
  460MOL0     H62075   7.880   9.424   0.645 -0.3074 -0.0149  2.2848
  460MOL0     H62076   8.159   9.378   0.726 -0.0810 -0.6215 -1.6245
  460MOL0     H62077   8.127   9.433   0.567  0.6480 -0.1618  0.0761
  460MOL0     H62078   8.049   9.584   0.823  1.5204 -1.6870  1.4482
  460MOL0     H62079   7.999   9.645   0.670  2.0329  1.1187 -2.2384
  460MOL0     H62080   8.280   9.617   0.763 -3.2166 -3.4867  2.3633
  460MOL0     H62081   8.179   9.757   0.730 -2.7870 -0.8228 -1.6357
  460MOL0     H62082   7.653   8.854   0.791  0.1391 -1.6052  2.9522
  460MOL0     H62083   7.489   8.706   0.823  1.4221  3.6392 -1.3916
  460MOL0     H62084   7.329   8.371   0.966  0.0676 -4.4059  1.0142
  460MOL0     H62085   7.115   8.294   1.052  1.2496 -0.6026 -0.4063
  460MOL0     H62086   8.022   7.471   0.406  3.0712  0.1611  2.3163
  460MOL0     H62087   8.222   7.391   0.312  2.6681 -0.4754  2.6227
  460MOL0     H62088   8.528   6.827   0.231 -1.1356 -1.0213  3.1868
  460MOL0     H62089   8.766   6.815   0.230  0.5968  0.1738 -0.2154
  460MOL0     H62090   8.983   7.165   0.207 -1.4596 -0.0011 -0.5093
  460MOL0     H62091   9.005   7.162   0.385 -1.4015  1.2117 -0.8552
  460MOL0     H62092   9.226   7.173   0.270 -1.9786  1.7988 -0.6890
  460MOL0     H62093   9.167   7.061   0.143  0.3694  0.8742 -1.3739
  460MOL0     H62094   9.173   6.875   0.307 -0.9604  0.9019  0.7500
  460MOL0     H62095   9.240   6.978   0.433 -3.2177 -0.4184 -0.0599
  460MOL0     H62096   9.441   6.870   0.340  1.6934 -0.2747 -1.3470
  460MOL0     H62097   9.447   7.034   0.294  0.7080  0.0390  2.6599
  460MOL0     H62098   9.492   6.904  -0.073  1.5910  1.4205  1.2107
  460MOL0     H62099   8.801   7.202   0.397  1.9641 -0.5293 -2.3356
  460MOL0     H62100   8.553   7.233   0.400  2.0065  0.2897  1.2661
  461MOL0     O62101   4.895  10.289   1.592 -0.4351 -0.2494  0.3083
  461MOL0     C62102   4.905  10.388   1.515 -0.7463  0.9286 -0.2508
  461MOL0     O62103   4.814  10.483   1.502  0.1400  0.1980 -0.0968
  461MOL0     C62104   4.687  10.458   1.544  0.0562  0.0183  0.6802
  461MOL0     C62105   4.615  10.345   1.498 -0.7068 -0.5342 -0.5550
  461MOL0     C62106   4.491  10.315   1.552  0.6535  0.2316 -0.7333
  461MOL0     C62107   4.426  10.406   1.638  0.1731  0.0190  0.2766
  461MOL0     O62108   4.298  10.356   1.665  0.2234  0.0294  0.0626
  461MOL0     C62109   4.233  10.409   1.782 -0.9393  0.0903  0.1221
  461MOL0     C62110   4.133  10.304   1.836  0.0518  0.5475  0.4077
  461MOL0     C62111   4.187  10.233   1.955 -0.6023 -0.2900 -0.1282
  461MOL0     C62112   4.071  10.205   2.062 -0.4157  0.2233 -0.4518
  461MOL0     C62113   4.112  10.118   2.186  0.8807  0.2880 -0.3288
  461MOL0     C62114   3.986  10.093   2.262 -0.0672  0.0843  0.6965
  461MOL0     C62115   4.024  10.020   2.394  0.3482  0.0758  0.4121
  461MOL0     C62116   3.914   9.910   2.430 -0.5654  0.2096 -1.1065
  461MOL0     N62117   3.800   9.979   2.498  0.2601  0.0474  0.0193
  461MOL0     C62118   3.800  10.020   2.632 -0.4014  0.0835 -1.5257
  461MOL0     C62119   3.679  10.086   2.654 -0.1667  0.1846  0.1188
  461MOL0     C62120   3.632  10.149   2.780 -0.4226 -0.5193 -0.0636
  461MOL0     C62121   3.722  10.269   2.817  0.4197  0.9644  0.0874
  461MOL0     C62122   3.786  10.350   2.699  0.6779  0.3370  0.1730
  461MOL0     C62123   3.905  10.442   2.743  0.0770 -0.9793 -0.3437
  461MOL0     O62124   3.971  10.496   2.629  0.3170 -0.3752 -0.1331
  461MOL0     C62125   4.098  10.559   2.635 -0.0498 -0.1656  0.9508
  461MOL0     C62126   4.182  10.575   2.746  0.1866  0.2731  0.0268
  461MOL0     C62127   4.312  10.629   2.749  0.5321 -0.0355 -0.6014
  461MOL0     C62128   4.382  10.641   2.888 -0.7871 -0.0634  0.5096
  461MOL0     C62129   4.375  10.658   2.627  0.1185  1.3566  0.0479
  461MOL0     C62130   4.516  10.706   2.607 -0.0435  1.0519 -0.7830
  461MOL0     O62131   4.567  10.710   2.480 -0.7015  0.1010 -0.2147
  461MOL0     C62132   4.696  10.681   2.449  0.2698 -0.0779  0.1523
  461MOL0     C62133   4.793  10.617   2.534 -0.0615  0.1546  0.2386
  461MOL0     C62134   4.919  10.593   2.489  0.0110  0.0794  0.7465
  461MOL0     C62135   4.957  10.628   2.361 -0.0500  0.3624 -0.3690
  461MOL0     O62136   5.087  10.587   2.317  0.1882 -0.5373  0.0787
  461MOL0     C62137   5.091  10.544   2.185  0.1770 -0.0247  0.0773
  461MOL0     C62138   5.235  10.506   2.148  0.2534 -0.7131 -0.1578
  461MOL0     C62139   5.258  10.353   2.144  0.1656  0.2096  0.2120
  461MOL0     C62140   5.280  10.305   2.285 -0.1715 -0.2183  0.1751
  461MOL0     C62141   5.310  10.158   2.303 -0.4259 -0.1571 -0.3705
  461MOL0     C62142   5.411  10.126   2.417 -0.9237 -0.4663 -0.7902
  461MOL0     C62143   5.416   9.980   2.438 -0.6326 -0.1063 -0.5846
  461MOL0     C62144   5.509   9.939   2.553 -0.2071 -0.3992  0.2480
  461MOL0    Cl62145   5.555   9.771   2.514  0.2041 -0.3608  0.4217
  461MOL0     C62146   4.865  10.701   2.284 -1.2902 -0.0092  0.6179
  461MOL0     C62147   4.738  10.731   2.330  0.2455 -0.3458  0.4904
  461MOL0     O62148   4.585  10.731   2.708  0.6072  0.6514  0.1003
  461MOL0     C62149   4.291  10.641   2.509  0.1361  0.3194  0.7435
  461MOL0     C62150   4.151  10.598   2.515 -0.1153  0.5281  0.6177
  461MOL0     N62151   3.616  10.087   2.532  0.5863 -0.1520 -0.1025
  461MOL0     N62152   3.689  10.029   2.443 -0.1081  0.8122  0.0294
  461MOL0     C62153   4.495  10.515   1.687 -0.2010  0.2819  0.1915
  461MOL0     C62154   4.624  10.542   1.638 -0.2194 -0.2288 -0.6756
  461MOL0     C62155   5.047  10.421   1.470  0.3937 -0.3222  0.0093
  461MOL0     C62156   5.149  10.334   1.482 -0.7502  0.1957  0.6607
  461MOL0     C62157   5.276  10.364   1.433  0.0953  0.0066  0.0677
  461MOL0     C62158   5.304  10.496   1.389 -0.5655  0.7141 -0.4834
  461MOL0     O62159   5.436  10.524   1.365  0.0089  0.2919 -0.2395
  461MOL0     C62160   5.483  10.640   1.431  0.0736  0.2358  0.2327
  461MOL0     C62161   5.476  10.637   1.579 -0.4273 -0.5348 -0.3662
  461MOL0     C62162   5.546  10.759   1.645 -0.1719  0.6747 -0.6895
  461MOL0     C62163   5.689  10.728   1.651 -0.1081 -0.0639  0.4709
  461MOL0     C62164   5.765  10.816   1.745  0.5036 -0.3794 -0.0180
  461MOL0     C62165   5.823  10.890   1.815  0.5463 -0.1051 -0.0838
  461MOL0     C62166   5.198  10.586   1.380  0.4435 -0.2973 -0.1688
  461MOL0     C62167   5.074  10.547   1.409  1.4526  0.2170  0.3585
  461MOL0     H62168   4.650  10.266   1.431 -0.9444 -0.3443 -0.9110
  461MOL0     H62169   4.436  10.224   1.532  1.6220 -0.6315  0.4107
  461MOL0     H62170   4.304  10.444   1.857  0.7821  0.3128 -1.5326
  461MOL0     H62171   4.164  10.491   1.760 -4.7266 -2.6241  0.8894
  461MOL0     H62172   4.047  10.364   1.867  1.8960  3.2304  0.6488
  461MOL0     H62173   4.105  10.225   1.766  0.7873 -0.8374  1.6116
  461MOL0     H62174   4.229  10.137   1.924 -3.0946 -1.2283 -0.8521
  461MOL0     H62175   4.263  10.292   2.007 -1.3450 -0.9252  1.7584
  461MOL0     H62176   4.038  10.304   2.096 -1.3811  0.2739 -1.4637
  461MOL0     H62177   3.983  10.158   2.015 -0.9691  1.0238 -0.2414
  461MOL0     H62178   4.157  10.021   2.163  1.3132  0.6065 -0.8315
  461MOL0     H62179   4.175  10.175   2.256 -2.5438  2.4904  1.2744
  461MOL0     H62180   3.928  10.185   2.277  1.6350  1.4528 -0.6642
  461MOL0     H62181   3.923  10.033   2.197  0.3777  0.0740  0.2736
  461MOL0     H62182   4.122   9.972   2.392  0.2508 -0.2667  2.2269
  461MOL0     H62183   4.044  10.087   2.478 -0.0230 -1.7814  2.0488
  461MOL0     H62184   3.954   9.831   2.494  0.4553  0.4875 -1.3895
  461MOL0     H62185   3.868   9.861   2.344 -2.6757  0.5428 -0.2420
  461MOL0     H62186   3.873  10.004   2.712 -2.6964  1.4757  1.0394
  461MOL0     H62187   3.531  10.183   2.757 -0.0343  0.2552 -0.6785
  461MOL0     H62188   3.621  10.084   2.867  1.9851 -0.8371  0.0740
  461MOL0     H62189   3.802  10.238   2.884  0.8125  0.1179 -0.7481
  461MOL0     H62190   3.658  10.341   2.869 -0.9366  1.1809 -1.7589
  461MOL0     H62191   3.711  10.407   2.644  1.4662  0.5174 -0.7595
  461MOL0     H62192   3.825  10.278   2.627  0.8589  1.2565 -0.6740
  461MOL0     H62193   3.966  10.375   2.806  0.3788 -1.6364 -1.3152
  461MOL0     H62194   3.870  10.518   2.814  0.3628 -2.5613  1.5899
  461MOL0     H62195   4.146  10.544   2.844  1.2780  0.5298  0.5138
  461MOL0     H62196   4.425  10.741   2.901 -0.6203  0.2339 -1.9688
  461MOL0     H62197   4.318  10.635   2.976 -0.1302  0.2955  1.0339
  461MOL0     H62198   4.464  10.570   2.899  3.2143  3.6164 -2.0943
  461MOL0     H62199   4.774  10.580   2.635  0.0996  0.9815  0.5778
  461MOL0     H62200   4.997  10.543   2.544  0.9068  2.2527  1.5414
  461MOL0     H62201   5.022  10.461   2.167  0.8707 -0.0186 -3.1086
  461MOL0     H62202   5.068  10.625   2.116  1.6615  0.1436 -0.2376
  461MOL0     H62203   5.265  10.554   2.054  1.0782  1.7289  1.2488
  461MOL0     H62204   5.293  10.547   2.231 -0.2088 -0.7345  0.1785
  461MOL0     H62205   5.346  10.330   2.083 -0.0440  0.0579 -0.0366
  461MOL0     H62206   5.170  10.304   2.100  0.0706  0.6667 -0.1158
  461MOL0     H62207   5.363  10.359   2.332 -0.5083  2.2090 -1.8039
  461MOL0     H62208   5.200  10.341   2.349 -0.4074  2.0522 -1.2956
  461MOL0     H62209   5.370  10.127   2.218  0.6130  0.9066 -0.0448
  461MOL0     H62210   5.217  10.104   2.323 -0.2878 -0.1228  0.3990
  461MOL0     H62211   5.512  10.168   2.408 -0.4807 -0.6752  2.1552
  461MOL0     H62212   5.363  10.174   2.503  0.2244  0.1554 -0.4775
  461MOL0     H62213   5.456   9.938   2.346  3.1368 -2.1041  1.6957
  461MOL0     H62214   5.315   9.942   2.452 -1.3396  1.6355 -0.6473
  461MOL0     H62215   5.447   9.951   2.642 -0.4071  2.8761 -0.2239
  461MOL0     H62216   5.599  10.000   2.564 -0.9062  0.9659 -1.2495
  461MOL0     H62217   4.891  10.730   2.182  2.0321  0.8645  1.5756
  461MOL0     H62218   4.653  10.763   2.270  0.2554 -0.9179  0.1568
  461MOL0     H62219   4.327  10.645   2.407 -0.3833  1.1519  0.5833
  461MOL0     H62220   4.093  10.583   2.424 -0.3477  0.7195  0.7328
  461MOL0     H62221   4.443  10.577   1.759  0.2377 -1.2973  1.9406
  461MOL0     H62222   4.668  10.630   1.685  0.1175 -1.1598  0.8435
  461MOL0     H62223   5.128  10.237   1.526 -0.8024  1.1008  2.7885
  461MOL0     H62224   5.347  10.283   1.427 -1.3289 -1.3031  0.1433
  461MOL0     H62225   5.589  10.650   1.405  0.2865 -2.3955 -0.1572
  461MOL0     H62226   5.422  10.723   1.394 -2.7804 -0.9194  1.9637
  461MOL0     H62227   5.505  10.544   1.629 -0.1104  0.5330  1.5108
  461MOL0     H62228   5.371  10.659   1.603  0.7920  1.7126  3.9542
  461MOL0     H62229   5.509  10.770   1.747 -4.0157  0.5161 -1.8719
  461MOL0     H62230   5.514  10.851   1.595 -3.1815 -0.5109 -1.1743
  461MOL0     H62231   5.727  10.736   1.549 -0.4515 -0.5612  0.3008
  461MOL0     H62232   5.705  10.629   1.695  1.9698 -0.1159 -0.3016
  461MOL0     H62233   5.867  10.966   1.877 -1.4850  2.1622 -1.2686
  461MOL0     H62234   5.210  10.684   1.335 -3.6252 -0.0505 -1.0550
  461MOL0     H62235   4.992  10.615   1.387  2.9006  1.9590  0.2138
  462MOL0     O62236   6.708  10.278   7.353  0.0194 -0.1140  0.2262
  462MOL0     C62237   6.700  10.268   7.481 -1.1139  0.5110  0.0296
  462MOL0     O62238   6.589  10.241   7.553 -0.5528  0.4335 -0.3820
  462MOL0     C62239   6.484  10.174   7.486 -0.6390  0.0798  0.0794
  462MOL0     C62240   6.352  10.221   7.486  0.1047  0.3409 -0.3098
  462MOL0     C62241   6.247  10.145   7.429 -0.5872 -0.3248  0.7264
  462MOL0     C62242   6.276  10.029   7.363 -0.4730  0.1780  1.0338
  462MOL0     O62243   6.167   9.959   7.306 -0.5356  0.2897 -0.2527
  462MOL0     C62244   6.161   9.820   7.325 -0.0755  0.4545 -0.5033
  462MOL0     C62245   6.084   9.778   7.457  0.5220  0.2046  0.5264
  462MOL0     C62246   5.930   9.825   7.465  0.0047  0.8094 -0.2019
  462MOL0     C62247   5.923   9.977   7.484 -0.1423  0.0710  0.1201
  462MOL0     C62248   5.777  10.026   7.530 -0.2829 -0.3716  0.3007
  462MOL0     C62249   5.663   9.995   7.442  0.6422 -0.7320 -0.3484
  462MOL0     C62250   5.539  10.073   7.487  0.1966  0.5754  0.5053
  462MOL0     C62251   5.439  10.083   7.365  0.2690 -0.5922  0.5266
  462MOL0     N62252   5.305  10.126   7.406  0.2425  0.4721  0.4456
  462MOL0     C62253   5.201  10.089   7.343 -0.3083  1.2396 -0.3706
  462MOL0     C62254   5.092  10.144   7.399 -0.3069  0.1257  0.2650
  462MOL0     C62255   4.946  10.158   7.346 -0.8759 -0.1744 -0.5853
  462MOL0     C62256   4.858  10.036   7.368 -0.2400  0.1089 -0.3055
  462MOL0     C62257   4.713  10.068   7.354 -0.4403 -0.9233  0.3334
  462MOL0     C62258   4.645  10.137   7.475  0.1711  0.1482  0.6043
  462MOL0     O62259   4.508  10.166   7.442 -0.3710  0.2058  0.1330
  462MOL0     C62260   4.411  10.163   7.540  0.5866  0.0861 -0.1007
  462MOL0     C62261   4.286  10.223   7.511  0.2689 -0.5125  0.8060
  462MOL0     C62262   4.184  10.229   7.615  0.4479 -0.5062 -0.1342
  462MOL0     C62263   4.054  10.306   7.587 -0.1763 -0.8381 -0.5666
  462MOL0     C62264   4.196  10.148   7.733 -0.1845 -0.1098  0.1592
  462MOL0     C62265   4.083  10.102   7.819  1.0743  0.0437  0.6231
  462MOL0     O62266   3.963  10.072   7.766 -0.9536  0.0447 -0.0116
  462MOL0     C62267   3.864  10.029   7.847  0.0407 -1.8678 -0.4963
  462MOL0     C62268   3.859   9.896   7.879  0.8847 -0.0972  0.0940
  462MOL0     C62269   3.740   9.832   7.926 -0.3143 -0.2559  0.4426
  462MOL0     C62270   3.640   9.914   7.976  0.3782  0.9365  0.1445
  462MOL0     O62271   3.535   9.854   8.049 -0.1138 -0.0050 -0.5398
  462MOL0     C62272   3.447   9.940   8.128  0.9521  0.5358  0.4896
  462MOL0     C62273   3.337   9.869   8.216  0.7245  0.3074  0.3808
  462MOL0     C62274   3.289   9.944   8.353  0.2402  0.8330 -0.7978
  462MOL0     C62275   3.207   9.852   8.438 -0.6411 -0.1705  0.6878
  462MOL0     C62276   3.166   9.915   8.571 -0.1366 -0.3316  0.3427
  462MOL0     C62277   3.087   9.822   8.668 -0.1225  1.3849  0.2972
  462MOL0     C62278   3.067   9.887   8.809  0.0205 -0.3580  0.3553
  462MOL0     C62279   2.929   9.958   8.817  0.0162 -0.4780  0.4268
  462MOL0    Cl62280   2.950  10.078   8.958  0.0609  0.0531  0.0340
  462MOL0     C62281   3.657  10.049   7.954  0.0604 -0.8004  0.2909
  462MOL0     C62282   3.760  10.111   7.883  0.1223  1.6213 -0.7273
  462MOL0     O62283   4.109  10.099   7.934 -0.1077  0.1164 -0.5704
  462MOL0     C62284   4.325  10.097   7.761 -0.5231  0.0115  0.1081
  462MOL0     C62285   4.424  10.109   7.666  0.7264  0.1774 -1.0799
  462MOL0     N62286   5.132  10.219   7.505  0.4776 -0.0436 -0.0758
  462MOL0     N62287   5.263  10.197   7.514  0.3055 -0.3244 -0.2339
  462MOL0     C62288   6.410   9.981   7.359  0.2083 -0.1874 -0.7234
  462MOL0     C62289   6.512  10.050   7.427  0.8788  0.4207  0.8353
  462MOL0     C62290   6.825  10.294   7.562  0.8851  0.7509  0.6809
  462MOL0     C62291   6.944  10.319   7.492  0.0524 -0.2534  0.4119
  462MOL0     C62292   7.066  10.331   7.562 -0.1143 -0.8424 -0.7129
  462MOL0     C62293   7.076  10.316   7.701 -0.7502 -1.1368  0.4546
  462MOL0     O62294   7.195  10.288   7.769  0.0976  0.1127  0.3764
  462MOL0     C62295   7.316  10.332   7.715  0.1235 -0.5878  0.1073
  462MOL0     C62296   7.432  10.338   7.821 -0.1788 -0.0939  0.0858
  462MOL0     C62297   7.464  10.206   7.893 -0.0868 -0.7407 -0.6647
  462MOL0     C62298   7.605  10.184   7.949 -0.2873  0.3006  0.8370
  462MOL0     C62299   7.597  10.217   8.090 -0.5530  0.1957 -0.9805
  462MOL0     C62300   7.609  10.246   8.214 -0.2831 -1.4702  0.3189
  462MOL0     C62301   6.954  10.308   7.771  0.5719 -0.2207 -0.3010
  462MOL0     C62302   6.833  10.298   7.710 -0.0630  0.5208  0.3572
  462MOL0     H62303   6.337  10.308   7.550 -1.0577  0.0857 -0.2270
  462MOL0     H62304   6.143  10.176   7.428 -1.6573 -3.4712 -1.3776
  462MOL0     H62305   6.096   9.779   7.247 -0.0162  2.1885 -1.5113
  462MOL0     H62306   6.260   9.776   7.313 -0.4901  0.2690 -4.4545
  462MOL0     H62307   6.083   9.669   7.470 -0.7873  0.4180  2.7095
  462MOL0     H62308   6.128   9.822   7.547 -1.3073 -0.3837  1.7588
  462MOL0     H62309   5.885   9.787   7.373 -1.6345 -1.3463  1.3774
  462MOL0     H62310   5.879   9.776   7.549 -1.0280  2.3119  0.1052
  462MOL0     H62311   6.001  10.018   7.548  0.8569  0.0008 -1.0324
  462MOL0     H62312   5.934  10.024   7.386 -1.7216  1.3585  0.5017
  462MOL0     H62313   5.755  10.003   7.635 -1.2712  0.2515  0.2424
  462MOL0     H62314   5.788  10.135   7.540  0.7324 -0.5120  0.9118
  462MOL0     H62315   5.694  10.011   7.339 -0.0902 -1.9327 -0.7676
  462MOL0     H62316   5.631   9.890   7.444 -2.8343  0.1778 -0.7472
  462MOL0     H62317   5.491  10.024   7.572  0.3680 -0.6363 -0.0690
  462MOL0     H62318   5.556  10.178   7.511  3.6936 -0.3407  2.6996
  462MOL0     H62319   5.420   9.992   7.309 -1.9666 -1.5383  2.6157
  462MOL0     H62320   5.475  10.158   7.294  0.8922 -1.9677 -0.6456
  462MOL0     H62321   5.204  10.049   7.242  1.5025  1.1591 -0.3200
  462MOL0     H62322   4.895  10.244   7.391 -0.7544 -0.5074  0.2014
  462MOL0     H62323   4.959  10.185   7.240  1.3307  1.7771  0.1057
  462MOL0     H62324   4.872   9.987   7.464  1.2518  0.9411 -0.0692
  462MOL0     H62325   4.882   9.951   7.304 -0.2985 -1.4447  1.6809
  462MOL0     H62326   4.656   9.975   7.343 -0.7401 -0.4516 -2.9918
  462MOL0     H62327   4.695  10.121   7.260 -0.3033 -2.5877 -0.6860
  462MOL0     H62328   4.686  10.234   7.504 -1.7746  0.9962  0.7008
  462MOL0     H62329   4.661  10.079   7.566  2.7807  0.1865  0.2431
  462MOL0     H62330   4.271  10.268   7.413  0.8328 -1.6802  0.1555
  462MOL0     H62331   4.071  10.393   7.523 -0.6585  1.8393  2.6751
  462MOL0     H62332   3.974  10.250   7.537 -0.4491 -1.5204  0.5919
  462MOL0     H62333   4.004  10.359   7.669 -1.0237 -0.4772 -1.2887
  462MOL0     H62334   3.939   9.825   7.857 -0.6298 -1.3907 -1.5717
  462MOL0     H62335   3.733   9.725   7.942 -1.7528 -0.1860  0.4363
  462MOL0     H62336   3.517   9.987   8.197  0.5976 -0.8863  1.8867
  462MOL0     H62337   3.389  10.008   8.065  0.8722 -1.1690 -1.4009
  462MOL0     H62338   3.247   9.855   8.156  0.4824  0.5210  0.6923
  462MOL0     H62339   3.371   9.768   8.241 -1.1836 -0.3363  0.4958
  462MOL0     H62340   3.237  10.039   8.339 -0.4372  0.8174  1.2500
  462MOL0     H62341   3.380   9.970   8.408 -1.5446  1.5719  2.0441
  462MOL0     H62342   3.111   9.837   8.387  0.3392  3.0495 -2.4972
  462MOL0     H62343   3.270   9.765   8.457 -1.3997 -0.2957  2.9128
  462MOL0     H62344   3.092   9.990   8.544 -0.1521 -0.4144  0.1547
  462MOL0     H62345   3.260   9.953   8.612 -0.0289 -0.0676 -0.1407
  462MOL0     H62346   2.986   9.793   8.638  1.7779 -3.1700 -2.7452
  462MOL0     H62347   3.151   9.735   8.688 -1.2054  0.6357  0.5839
  462MOL0     H62348   3.149   9.957   8.830  0.1926  0.4014 -2.4653
  462MOL0     H62349   3.062   9.814   8.891  2.6188 -0.0275  0.9155
  462MOL0     H62350   2.838   9.899   8.829 -0.2268 -0.2058 -0.0502
  462MOL0     H62351   2.904  10.014   8.727 -2.2769 -0.3479  1.1037
  462MOL0     H62352   3.590  10.118   8.003 -1.7657 -3.5262  1.8532
  462MOL0     H62353   3.761  10.218   7.866  0.0989  2.1026  1.8982
  462MOL0     H62354   4.339  10.046   7.856 -2.0347  0.0842  0.3980
  462MOL0     H62355   4.520  10.073   7.702 -0.3180 -0.7938  0.8898
  462MOL0     H62356   6.439   9.887   7.312  1.4026  0.1200 -0.6264
  462MOL0     H62357   6.608  10.002   7.444  1.3918  0.7591 -0.9008
  462MOL0     H62358   6.957  10.332   7.385  0.4509  0.5792  0.5528
  462MOL0     H62359   7.160  10.346   7.510  1.1683 -1.2714  1.3647
  462MOL0     H62360   7.338  10.255   7.640  1.2892 -1.4457  1.2974
  462MOL0     H62361   7.308  10.432   7.671  1.3639 -0.5575 -0.0735
  462MOL0     H62362   7.410  10.416   7.895  1.2727  1.2896 -0.8523
  462MOL0     H62363   7.521  10.378   7.772 -0.9495  1.4324 -0.1622
  462MOL0     H62364   7.448  10.125   7.821  1.0064 -2.1140  0.5780
  462MOL0     H62365   7.387  10.191   7.968 -0.2022 -0.2386 -0.6798
  462MOL0     H62366   7.678  10.248   7.901  0.6555 -1.4548 -0.1683
  462MOL0     H62367   7.640  10.086   7.916  1.1726  0.9804  0.2810
  462MOL0     H62368   7.609  10.287   8.312  1.5381  2.3736 -1.0872
  462MOL0     H62369   6.957  10.303   7.879  2.8541 -2.0615 -0.3778
  462MOL0     H62370   6.745  10.288   7.772 -0.1985  0.3138  0.1322
  463MOL0     O62371   8.167   4.104   0.589 -0.2655  0.0481  0.0521
  463MOL0     C62372   8.194   4.201   0.654  0.6874 -0.5953  0.3327
  463MOL0     O62373   8.108   4.285   0.717 -0.0950 -0.8971 -0.1142
  463MOL0     C62374   7.972   4.263   0.714 -0.0771  0.5544 -1.0144
  463MOL0     C62375   7.903   4.292   0.832 -0.1207 -0.0911  0.1999
  463MOL0     C62376   7.768   4.296   0.835  1.0429 -0.2129  0.1019
  463MOL0     C62377   7.691   4.279   0.725  0.3244  0.3268 -0.5429
  463MOL0     O62378   7.550   4.269   0.743 -0.8877  1.1132  0.4680
  463MOL0     C62379   7.476   4.258   0.616 -0.4566 -0.4043  0.1083
  463MOL0     C62380   7.323   4.262   0.651  0.4640 -0.8068 -0.4318
  463MOL0     C62381   7.237   4.284   0.528  0.0599  0.8864  0.2489
  463MOL0     C62382   7.105   4.218   0.537 -0.2796 -0.0668  0.9872
  463MOL0     C62383   7.009   4.262   0.422  0.1532 -0.2772 -0.2516
  463MOL0     C62384   6.863   4.245   0.470 -0.8436 -0.2972  0.9348
  463MOL0     C62385   6.818   4.105   0.447 -0.0017  0.0111 -0.1027
  463MOL0     C62386   6.692   4.076   0.531  1.1942  0.3509  0.3371
  463MOL0     N62387   6.709   4.110   0.677  0.0658 -0.4624 -0.5956
  463MOL0     C62388   6.655   4.218   0.744  0.0326 -0.2511  0.0596
  463MOL0     C62389   6.660   4.184   0.873  0.0211  0.1309 -0.3717
  463MOL0     C62390   6.588   4.279   0.965 -0.4529 -0.3275 -0.1685
  463MOL0     C62391   6.438   4.311   0.944 -0.8639  0.0146  0.1395
  463MOL0     C62392   6.338   4.193   0.976 -0.1560  0.0480  0.5827
  463MOL0     C62393   6.192   4.240   0.932 -0.2743 -0.4365 -0.7183
  463MOL0     O62394   6.102   4.134   0.939  1.4416 -0.6503  0.7106
  463MOL0     C62395   5.975   4.153   0.887 -0.5274 -0.4892  0.0095
  463MOL0     C62396   5.881   4.058   0.913  0.1488 -0.3071  0.6377
  463MOL0     C62397   5.750   4.063   0.870 -0.8886  0.5021 -0.2142
  463MOL0     C62398   5.659   3.952   0.913 -0.1167  0.6484 -0.1504
  463MOL0     C62399   5.702   4.162   0.780 -0.0908 -0.4903 -0.3068
  463MOL0     C62400   5.582   4.156   0.687  0.4720  0.6214 -0.6000
  463MOL0     O62401   5.581   4.261   0.594  0.0079  0.0222 -0.5518
  463MOL0     C62402   5.484   4.247   0.500 -0.1298 -0.7744 -0.1748
  463MOL0     C62403   5.525   4.180   0.387 -0.8257 -0.3446 -0.1254
  463MOL0     C62404   5.442   4.166   0.279  0.4338  0.8052 -0.6355
  463MOL0     C62405   5.312   4.222   0.278 -0.7942  0.7381 -0.6634
  463MOL0     O62406   5.226   4.199   0.173 -0.1712 -0.3200 -0.9066
  463MOL0     C62407   5.091   4.187   0.205  1.2265 -0.2300 -0.4236
  463MOL0     C62408   5.019   4.324   0.178 -0.1577  0.6171 -0.5795
  463MOL0     C62409   4.874   4.337   0.214 -0.9709  0.5709 -0.3640
  463MOL0     C62410   4.861   4.429   0.340  0.2434  0.0325 -0.1430
  463MOL0     C62411   4.715   4.466   0.374 -0.1335 -0.7878  0.2394
  463MOL0     C62412   4.704   4.580   0.478 -0.0518 -0.5934  0.2500
  463MOL0     C62413   4.572   4.589   0.559  1.1736  0.3996  0.0133
  463MOL0     C62414   4.584   4.617   0.705 -0.2108  0.2516 -0.3636
  463MOL0    Cl62415   4.706   4.510   0.792  0.0460  0.2328  0.1175
  463MOL0     C62416   5.278   4.310   0.389 -0.4185 -0.6705  0.2122
  463MOL0     C62417   5.364   4.322   0.492  0.5539 -0.3771 -0.8308
  463MOL0     O62418   5.495   4.072   0.697 -0.5455  0.5548  0.7658
  463MOL0     C62419   5.790   4.271   0.769  1.0292 -0.1061 -0.2277
  463MOL0     C62420   5.928   4.263   0.816 -0.3223  0.5612 -0.0055
  463MOL0     N62421   6.725   4.064   0.891  0.7445 -0.0073  1.2013
  463MOL0     N62422   6.756   4.024   0.773  0.3869 -1.2791  0.5435
  463MOL0     C62423   7.761   4.249   0.607  0.1085  0.0142  0.2873
  463MOL0     C62424   7.893   4.238   0.600 -0.2950  0.5213  0.8824
  463MOL0     C62425   8.340   4.226   0.687  0.7031 -0.2966  0.1020
  463MOL0     C62426   8.443   4.122   0.686  0.5581  0.5044  0.2087
  463MOL0     C62427   8.580   4.148   0.702 -0.0595 -0.9065  0.0779
  463MOL0     C62428   8.613   4.283   0.745 -0.4639 -0.2568 -0.3999
  463MOL0     O62429   8.748   4.331   0.740  0.4172  0.3089  0.2290
  463MOL0     C62430   8.789   4.386   0.617  0.1220 -0.4643 -0.1098
  463MOL0     C62431   8.859   4.521   0.629  0.3020  0.4554 -0.8626
  463MOL0     C62432   8.986   4.495   0.723  0.2057 -0.4408 -0.8426
  463MOL0     C62433   9.032   4.629   0.774 -0.2005  1.3821  0.5274
  463MOL0     C62434   9.122   4.625   0.885 -0.5291 -0.1329  0.6281
  463MOL0     C62435   9.193   4.601   0.981 -0.1027 -0.5470  0.2136
  463MOL0     C62436   8.514   4.379   0.761  0.0241 -0.5164  0.9065
  463MOL0     C62437   8.386   4.349   0.741  0.8033  0.5833 -0.5748
  463MOL0     H62438   7.961   4.324   0.918  2.7715  0.2980 -1.7425
  463MOL0     H62439   7.726   4.324   0.930 -1.1797 -0.7170 -0.6782
  463MOL0     H62440   7.495   4.342   0.548 -1.9537  0.2369  0.4287
  463MOL0     H62441   7.494   4.165   0.561 -0.0749  0.2603 -0.9316
  463MOL0     H62442   7.300   4.164   0.693  0.4661 -0.6485 -0.0588
  463MOL0     H62443   7.312   4.345   0.721  2.8171 -0.0960 -0.8273
  463MOL0     H62444   7.213   4.389   0.507 -1.6187  0.0971 -2.1549
  463MOL0     H62445   7.278   4.240   0.437 -2.2913  0.6556 -0.7593
  463MOL0     H62446   7.127   4.111   0.525 -1.0639  0.0517 -2.8138
  463MOL0     H62447   7.053   4.242   0.630 -1.1950  0.6957  0.3006
  463MOL0     H62448   7.025   4.367   0.395 -2.0903  0.2139  0.1283
  463MOL0     H62449   7.027   4.201   0.333  2.3539 -0.8564  0.5111
  463MOL0     H62450   6.844   4.277   0.572 -1.9969 -0.3902  0.7624
  463MOL0     H62451   6.805   4.316   0.410  2.6930  1.3837 -0.8167
  463MOL0     H62452   6.799   4.082   0.342  0.3518  1.6710 -0.5625
  463MOL0     H62453   6.893   4.036   0.486 -0.6307  0.1530  1.4468
  463MOL0     H62454   6.659   3.972   0.519 -2.1100  1.2463  0.6536
  463MOL0     H62455   6.608   4.132   0.490  2.3360  1.3348 -0.7183
  463MOL0     H62456   6.616   4.303   0.690 -0.0190 -1.0103 -1.1506
  463MOL0     H62457   6.615   4.254   1.068  0.7761  0.8466 -0.1660
  463MOL0     H62458   6.636   4.377   0.954  1.8403 -0.8896  3.2281
  463MOL0     H62459   6.421   4.347   0.842 -2.5350  1.3138  0.8328
  463MOL0     H62460   6.415   4.394   1.011  2.0060 -2.5650  4.8839
  463MOL0     H62461   6.350   4.168   1.082  1.0778 -0.4126  0.3528
  463MOL0     H62462   6.358   4.103   0.917 -2.1996 -1.2767  1.8078
  463MOL0     H62463   6.206   4.284   0.834  4.0660 -0.7520 -0.4308
  463MOL0     H62464   6.152   4.317   0.999  1.6916 -0.3498  0.4428
  463MOL0     H62465   5.911   3.985   0.987  1.2307  0.1286  0.6425
  463MOL0     H62466   5.558   3.989   0.933  0.6340  3.2490 -0.8023
  463MOL0     H62467   5.652   3.874   0.837 -1.2459  0.0316  0.5672
  463MOL0     H62468   5.691   3.902   1.005 -0.4852  1.0133  0.1784
  463MOL0     H62469   5.622   4.131   0.380 -0.6648  0.1446 -2.0413
  463MOL0     H62470   5.482   4.100   0.203  0.6742 -0.5607  0.6309
  463MOL0     H62471   5.043   4.115   0.137  1.5467 -0.8671  0.0141
  463MOL0     H62472   5.074   4.157   0.309 -1.3176 -0.1685 -0.7533
  463MOL0     H62473   5.081   4.408   0.212  1.1983 -0.0619 -1.2943
  463MOL0     H62474   5.032   4.340   0.070  0.0633 -1.0156 -0.8193
  463MOL0     H62475   4.830   4.239   0.237 -0.5256  0.7946  1.6498
  463MOL0     H62476   4.827   4.372   0.122 -1.1149 -0.5368 -0.7263
  463MOL0     H62477   4.912   4.375   0.421  3.7313 -0.2005 -2.2808
  463MOL0     H62478   4.920   4.517   0.314  0.0948  0.1046 -0.2350
  463MOL0     H62479   4.664   4.376   0.410 -0.8915 -0.4817 -0.0481
  463MOL0     H62480   4.670   4.496   0.279  0.7084 -1.8880 -0.5332
  463MOL0     H62481   4.781   4.561   0.554  0.8869 -2.8178 -1.1483
  463MOL0     H62482   4.722   4.677   0.431  2.0702 -1.3422 -0.6105
  463MOL0     H62483   4.534   4.486   0.555  1.3091  0.3110  0.7401
  463MOL0     H62484   4.507   4.658   0.505 -0.5240 -0.5896  0.6808
  463MOL0     H62485   4.489   4.618   0.758  0.1278 -1.9334  0.3740
  463MOL0     H62486   4.629   4.717   0.706 -1.3678  0.7946  1.3014
  463MOL0     H62487   5.179   4.354   0.391 -0.8364 -1.6019  0.8428
  463MOL0     H62488   5.349   4.383   0.581 -0.8509 -1.8450 -0.0097
  463MOL0     H62489   5.767   4.362   0.716  3.0933 -0.2025 -1.4073
  463MOL0     H62490   5.989   4.350   0.793 -0.6819  0.1202 -3.0131
  463MOL0     H62491   7.713   4.236   0.510 -0.5229  1.6823  0.3365
  463MOL0     H62492   7.939   4.229   0.502 -0.4372 -1.1615  0.9369
  463MOL0     H62493   8.404   4.024   0.660 -2.0769  1.0933  1.5889
  463MOL0     H62494   8.652   4.073   0.671 -1.9491 -2.1714 -1.4845
  463MOL0     H62495   8.858   4.311   0.576 -0.8834  0.1605 -3.2067
  463MOL0     H62496   8.700   4.406   0.557 -0.2519  0.9801  0.8773
  463MOL0     H62497   8.794   4.595   0.676  2.2331  1.4585  0.3637
  463MOL0     H62498   8.892   4.561   0.533  3.5800  0.5983  0.1929
  463MOL0     H62499   9.068   4.434   0.684 -0.9105 -3.4594  1.1409
  463MOL0     H62500   8.955   4.439   0.812 -0.5082  0.7378 -0.3134
  463MOL0     H62501   8.953   4.702   0.795 -0.3541  1.5860 -0.6736
  463MOL0     H62502   9.098   4.658   0.692 -1.1903 -1.5896 -1.5039
  463MOL0     H62503   9.254   4.572   1.064  1.5097  1.1735 -0.2970
  463MOL0     H62504   8.544   4.479   0.790 -0.4598  0.5530 -1.9313
  463MOL0     H62505   8.310   4.423   0.762 -1.5053 -1.4274 -1.3889
  464MOL0     O62506   8.666   4.150   2.687 -0.5448  0.4335  0.7999
  464MOL0     C62507   8.613   4.253   2.647 -0.1469 -0.4969 -0.1231
  464MOL0     O62508   8.683   4.362   2.606  0.4486 -0.5351 -0.7148
  464MOL0     C62509   8.812   4.371   2.653 -0.7236 -0.7736 -0.2403
  464MOL0     C62510   8.840   4.418   2.784  0.7886  0.0847 -0.0873
  464MOL0     C62511   8.970   4.444   2.835 -0.1583  0.6366  0.6851
  464MOL0     C62512   9.073   4.415   2.747  0.8589  0.4603  0.4853
  464MOL0     O62513   9.205   4.419   2.778  0.0684 -0.0417 -0.3080
  464MOL0     C62514   9.260   4.542   2.831  1.1018  0.1713  0.7270
  464MOL0     C62515   9.396   4.529   2.894 -1.5488  0.2932  1.0492
  464MOL0     C62516   9.475   4.656   2.925 -0.1271 -0.7445  0.5588
  464MOL0     C62517   9.599   4.628   3.005  0.5382  0.1892 -0.1688
  464MOL0     C62518   9.696   4.750   2.994  0.0260  0.1708  0.0611
  464MOL0     C62519   9.827   4.720   3.069 -0.4016  0.1166 -0.9623
  464MOL0     C62520   9.808   4.698   3.219  0.3805  0.0959 -0.0354
  464MOL0     C62521   9.938   4.714   3.291  0.1200 -0.7770 -0.2111
  464MOL0     N62522  10.027   4.599   3.253 -0.0622 -0.5764  0.2303
  464MOL0     C62523  10.015   4.463   3.277  0.2079 -0.6234 -0.4426
  464MOL0     C62524  10.122   4.411   3.210  0.2702 -0.0714 -0.3363
  464MOL0     C62525  10.147   4.264   3.195  0.7377 -0.6761  0.0179
  464MOL0     C62526  10.190   4.233   3.054 -0.2498 -0.1180  0.5367
  464MOL0     C62527  10.074   4.220   2.956  1.1271  0.5586  0.0179
  464MOL0     C62528   9.998   4.350   2.912  0.2951  0.6471 -0.4264
  464MOL0     O62529   9.890   4.325   2.816  0.5403 -0.0716  0.1419
  464MOL0     C62530   9.770   4.283   2.851 -0.7387  0.5438  0.1255
  464MOL0     C62531   9.683   4.267   2.746 -0.0742 -0.0371 -0.2202
  464MOL0     C62532   9.554   4.204   2.769 -0.2439 -0.3763  0.5125
  464MOL0     C62533   9.463   4.182   2.647  0.3527 -0.8307 -0.5100
  464MOL0     C62534   9.513   4.183   2.904 -0.1119  0.4313  0.2392
  464MOL0     C62535   9.380   4.124   2.940 -0.3342  0.0083 -0.4689
  464MOL0     O62536   9.300   4.081   2.843 -0.6163 -0.3369 -0.1927
  464MOL0     C62537   9.185   4.016   2.876 -0.9645  0.2008 -0.4574
  464MOL0     C62538   9.191   3.881   2.905 -0.1395  0.0584 -0.3506
  464MOL0     C62539   9.078   3.809   2.942 -0.1297  0.0066  0.3307
  464MOL0     C62540   8.955   3.876   2.940  0.8358 -0.3312  0.5636
  464MOL0     O62541   8.838   3.799   2.970  0.4463  0.4630 -0.4223
  464MOL0     C62542   8.710   3.856   2.914  1.0554  0.1138  0.6136
  464MOL0     C62543   8.609   3.731   2.917  0.9420 -0.6102  0.6482
  464MOL0     C62544   8.477   3.770   2.870  0.5529 -0.1046  0.2590
  464MOL0     C62545   8.387   3.804   2.992  0.3998 -0.4177 -0.0346
  464MOL0     C62546   8.266   3.883   2.941 -0.7381 -0.4474  0.3151
  464MOL0     C62547   8.161   3.903   3.056 -0.1980 -1.0726 -0.2767
  464MOL0     C62548   8.035   3.967   2.984  0.3635 -0.1258 -0.6076
  464MOL0     C62549   7.916   3.975   3.089  0.1960  0.1222  0.1128
  464MOL0    Cl62550   7.771   4.065   3.022 -0.1477 -0.0327 -0.0597
  464MOL0     C62551   8.940   4.016   2.899 -0.1013  0.4160  0.0320
  464MOL0     C62552   9.060   4.072   2.865  0.2605 -0.7327 -0.7343
  464MOL0     O62553   9.345   4.129   3.058 -0.6579  0.2633  0.0895
  464MOL0     C62554   9.604   4.194   3.008 -0.4711 -0.7137 -0.8848
  464MOL0     C62555   9.726   4.244   2.978 -0.8142  0.2167 -0.4595
  464MOL0     N62556  10.203   4.505   3.158  0.0674 -0.1631 -0.2313
  464MOL0     N62557  10.148   4.620   3.185  0.1728 -1.0048  0.6381
  464MOL0     C62558   9.051   4.357   2.617  0.2705 -0.1913  0.4509
  464MOL0     C62559   8.924   4.346   2.572 -0.1527  0.8450 -0.7356
  464MOL0     C62560   8.469   4.258   2.624 -0.0853  0.4736 -0.4154
  464MOL0     C62561   8.378   4.170   2.688  0.9009  0.3774 -0.2001
  464MOL0     C62562   8.247   4.175   2.666  0.3952  0.0790  0.0797
  464MOL0     C62563   8.193   4.268   2.575  0.4084 -0.3805 -0.1255
  464MOL0     O62564   8.065   4.279   2.537  0.5661 -0.3054  0.4041
  464MOL0     C62565   7.982   4.170   2.558 -0.2063 -0.1380  0.2868
  464MOL0     C62566   7.863   4.163   2.465  0.8324 -1.5104  0.1190
  464MOL0     C62567   7.759   4.063   2.504 -0.6394  1.3406 -0.0033
  464MOL0     C62568   7.682   4.108   2.629  0.3499 -0.3279  0.6830
  464MOL0     C62569   7.540   4.069   2.620  0.1790  0.1627  0.2566
  464MOL0     C62570   7.430   4.025   2.606 -0.1289  0.0371  0.2304
  464MOL0     C62571   8.276   4.359   2.509  0.9731 -0.0455 -1.1508
  464MOL0     C62572   8.413   4.353   2.537  0.1475  0.2807  0.3644
  464MOL0     H62573   8.756   4.429   2.852  0.4836  1.0565 -0.6086
  464MOL0     H62574   9.001   4.480   2.933  0.8363 -1.6236  1.2695
  464MOL0     H62575   9.265   4.612   2.748 -0.7021  2.5427  2.4682
  464MOL0     H62576   9.193   4.574   2.912 -0.5241 -0.5755 -0.2541
  464MOL0     H62577   9.387   4.460   2.978 -4.1255 -2.9605 -1.6277
  464MOL0     H62578   9.461   4.469   2.829  1.0603  0.1878  3.5469
  464MOL0     H62579   9.513   4.708   2.837  1.7490 -2.3160  0.3819
  464MOL0     H62580   9.412   4.729   2.976 -0.2713  0.0049 -0.6472
  464MOL0     H62581   9.571   4.608   3.109  0.4294  3.3933  0.5104
  464MOL0     H62582   9.653   4.541   2.965 -0.3702 -0.7415  0.5590
  464MOL0     H62583   9.717   4.768   2.888 -0.3158  1.2308  0.1600
  464MOL0     H62584   9.641   4.837   3.030 -1.7260 -0.5254 -0.8206
  464MOL0     H62585   9.886   4.637   3.026  0.2364  0.4164 -0.6769
  464MOL0     H62586   9.865   4.822   3.059  1.2339 -0.1445  1.7679
  464MOL0     H62587   9.733   4.771   3.254 -0.2226 -0.5490  0.0335
  464MOL0     H62588   9.768   4.598   3.236  3.2457 -1.4224 -1.5093
  464MOL0     H62589   9.922   4.716   3.399 -0.7104 -1.5163 -0.3174
  464MOL0     H62590   9.977   4.812   3.260 -0.3667 -1.1173 -2.0389
  464MOL0     H62591   9.934   4.410   3.327  1.5786 -1.1197  1.3933
  464MOL0     H62592  10.225   4.233   3.266 -0.2317 -3.2324  0.0578
  464MOL0     H62593  10.061   4.205   3.226  1.1147 -0.8658  0.7182
  464MOL0     H62594  10.247   4.141   3.067 -2.0796 -1.2804  0.7390
  464MOL0     H62595  10.247   4.319   3.017  1.4284 -1.1649  0.6135
  464MOL0     H62596   9.995   4.153   2.992 -1.5870  3.0904 -0.8466
  464MOL0     H62597  10.115   4.176   2.864  1.2985 -0.5670  0.6217
  464MOL0     H62598  10.074   4.404   2.855 -0.2038 -0.1237 -1.8571
  464MOL0     H62599   9.956   4.411   2.993  1.3140  0.6927  0.0856
  464MOL0     H62600   9.720   4.301   2.649  0.4964  1.6713  0.5426
  464MOL0     H62601   9.514   4.230   2.563  0.3132 -1.7156 -1.0552
  464MOL0     H62602   9.446   4.074   2.638 -0.0322 -0.9409  1.3022
  464MOL0     H62603   9.371   4.239   2.660  0.4296 -1.1725  1.8876
  464MOL0     H62604   9.283   3.826   2.923 -1.7425 -2.4627  0.6808
  464MOL0     H62605   9.093   3.704   2.961 -0.4262 -0.3171 -1.0933
  464MOL0     H62606   8.683   3.940   2.979 -0.8981 -1.1052  1.4828
  464MOL0     H62607   8.715   3.890   2.811 -3.2164 -2.2106 -0.6256
  464MOL0     H62608   8.646   3.647   2.858 -1.0705 -0.3783 -1.0185
  464MOL0     H62609   8.607   3.691   3.019  1.8561  0.7391  1.2299
  464MOL0     H62610   8.429   3.688   2.815 -2.9615  1.8820  0.0377
  464MOL0     H62611   8.496   3.845   2.793  0.6844 -2.5537 -2.2874
  464MOL0     H62612   8.349   3.705   3.020  0.3230 -0.2983  0.2811
  464MOL0     H62613   8.450   3.856   3.064  1.1012 -3.6873  1.9353
  464MOL0     H62614   8.229   3.825   2.856  3.4760 -3.0725 -0.0407
  464MOL0     H62615   8.300   3.976   2.895 -1.5547 -0.9035 -1.3047
  464MOL0     H62616   8.129   3.809   3.102 -1.7187 -0.5060 -0.1106
  464MOL0     H62617   8.197   3.972   3.132 -0.3508 -0.0816 -1.0760
  464MOL0     H62618   8.006   3.900   2.903  1.1233 -0.7356 -0.3880
  464MOL0     H62619   8.061   4.068   2.950 -1.2983  0.9076  0.9623
  464MOL0     H62620   7.953   4.016   3.183  1.2703 -0.8246  0.1322
  464MOL0     H62621   7.891   3.871   3.110 -0.8603 -0.7887 -4.5589
  464MOL0     H62622   8.854   4.078   2.879 -0.5976 -0.5012 -0.7293
  464MOL0     H62623   9.076   4.173   2.828  3.1129 -0.7745  0.1021
  464MOL0     H62624   9.588   4.155   3.108  2.5320  1.1878  0.5028
  464MOL0     H62625   9.800   4.241   3.058 -2.0941  1.4017  0.8347
  464MOL0     H62626   9.138   4.324   2.561  0.5984  2.0894 -0.4564
  464MOL0     H62627   8.910   4.310   2.471 -0.0189  0.4867 -0.6305
  464MOL0     H62628   8.415   4.104   2.766 -2.4735  2.1551  3.2338
  464MOL0     H62629   8.179   4.116   2.726 -1.0671  1.4878 -0.1040
  464MOL0     H62630   8.046   4.083   2.541 -1.8095 -0.8163 -2.9699
  464MOL0     H62631   7.950   4.176   2.663  0.5578  1.8618  0.4418
  464MOL0     H62632   7.890   4.126   2.365 -1.3855 -0.3554 -0.9961
  464MOL0     H62633   7.808   4.258   2.457 -0.0869 -2.1116 -1.1954
  464MOL0     H62634   7.804   3.964   2.519 -2.3194  0.4778 -0.4398
  464MOL0     H62635   7.691   4.058   2.419  2.1474  0.6842 -2.3757
  464MOL0     H62636   7.682   4.217   2.626 -0.1596 -0.3432 -0.4174
  464MOL0     H62637   7.729   4.069   2.720  1.9140  0.3493  0.1887
  464MOL0     H62638   7.333   3.982   2.591 -0.8211  1.4910  0.3285
  464MOL0     H62639   8.239   4.413   2.422  0.7842  0.3701 -0.8165
  464MOL0     H62640   8.477   4.412   2.472 -0.7750  0.8802 -0.0199
  465MOL0     O62641   1.442  11.192   7.397 -0.1437 -0.6268 -0.6703
  465MOL0     C62642   1.387  11.138   7.299  0.5952  0.3118 -0.5149
  465MOL0     O62643   1.252  11.100   7.286  0.1433 -0.3426  0.4912
  465MOL0     C62644   1.154  11.127   7.379  0.3850  0.3376 -0.0242
  465MOL0     C62645   1.024  11.094   7.333  0.4909  0.1699 -0.0495
  465MOL0     C62646   0.917  11.105   7.417  0.3093  0.1750  0.1506
  465MOL0     C62647   0.935  11.165   7.545  0.0290 -0.9792  0.4377
  465MOL0     O62648   0.836  11.160   7.632 -0.1903 -0.3686 -0.7927
  465MOL0     C62649   0.713  11.212   7.605  0.3180 -0.3734 -0.4062
  465MOL0     C62650   0.605  11.157   7.710 -0.4579 -0.1688  1.0663
  465MOL0     C62651   0.472  11.230   7.690  1.3048  0.0888  0.0297
  465MOL0     C62652   0.360  11.147   7.754  0.2228 -0.2990  0.0253
  465MOL0     C62653   0.222  11.172   7.684 -1.5863  0.4819 -0.0980
  465MOL0     C62654   0.163  11.315   7.677 -0.1484  0.1881 -0.1936
  465MOL0     C62655   0.030  11.313   7.600  0.0030 -0.6174  0.1696
  465MOL0     C62656  -0.033  11.448   7.587  0.4190 -0.9672 -0.5907
  465MOL0     N62657  -0.163  11.459   7.525 -0.3028 -0.0553 -0.1101
  465MOL0     C62658  -0.250  11.365   7.505  0.6895 -0.0293  0.4380
  465MOL0     C62659  -0.371  11.432   7.484 -0.3413 -0.3123 -0.1551
  465MOL0     C62660  -0.506  11.365   7.461  0.0546  0.6404 -0.1130
  465MOL0     C62661  -0.618  11.428   7.545  0.1041 -0.0993  0.0717
  465MOL0     C62662  -0.697  11.525   7.460  0.2587  0.0567 -0.4783
  465MOL0     C62663  -0.805  11.600   7.533 -0.0361  0.6678  0.1655
  465MOL0     O62664  -0.888  11.670   7.441 -0.4403  0.3127 -0.2128
  465MOL0     C62665  -0.994  11.730   7.507 -0.3748 -0.5411  0.3011
  465MOL0     C62666  -1.119  11.675   7.488  0.6714 -0.6421 -0.0503
  465MOL0     C62667  -1.234  11.732   7.547 -0.5558 -0.0009  0.5328
  465MOL0     C62668  -1.367  11.656   7.532  0.5546 -0.2023 -0.0457
  465MOL0     C62669  -1.218  11.846   7.632  0.0503  0.2670  0.4066
  465MOL0     C62670  -1.324  11.917   7.710  1.0271 -0.6240 -0.5578
  465MOL0     O62671  -1.472  11.890   7.682 -0.4475 -0.1242  0.5559
  465MOL0     C62672  -1.553  11.943   7.777  0.4222 -0.3110  0.8152
  465MOL0     C62673  -1.617  12.064   7.744 -0.2744 -0.2233 -0.5937
  465MOL0     C62674  -1.727  12.118   7.813 -1.1460  0.4324  0.4661
  465MOL0     C62675  -1.783  12.038   7.919 -0.1357  0.1352  0.5371
  465MOL0     O62676  -1.894  12.078   7.991  0.4653  0.2194  0.7388
  465MOL0     C62677  -2.007  12.095   7.908 -0.1210 -0.6589  0.2290
  465MOL0     C62678  -2.122  12.105   8.002  0.9993 -1.0560 -0.0634
  465MOL0     C62679  -2.130  11.972   8.084 -0.2805  0.5865  0.0062
  465MOL0     C62680  -2.259  11.969   8.164  0.5401  0.0560 -0.2241
  465MOL0     C62681  -2.280  11.823   8.226 -0.5552 -0.7963  0.9178
  465MOL0     C62682  -2.153  11.787   8.297 -0.3377  0.6471  0.4886
  465MOL0     C62683  -2.178  11.662   8.394 -0.7963 -0.3273 -0.1040
  465MOL0     C62684  -2.044  11.610   8.465 -0.1443 -0.0544  0.3208
  465MOL0    Cl62685  -1.979  11.728   8.593  0.2606  0.3927  0.0901
  465MOL0     C62686  -1.718  11.921   7.959  0.2710  0.2158 -0.3530
  465MOL0     C62687  -1.603  11.873   7.889  0.6106  0.3465 -0.0387
  465MOL0     O62688  -1.285  11.999   7.792  0.8922 -0.0761  0.3245
  465MOL0     C62689  -1.089  11.897   7.646  0.1087 -0.1359  0.1476
  465MOL0     C62690  -0.979  11.839   7.583 -0.6009  0.3857 -0.5060
  465MOL0     N62691  -0.354  11.566   7.486  0.3467 -0.2479  0.3381
  465MOL0     N62692  -0.228  11.585   7.517  0.1537 -0.4350 -0.7551
  465MOL0     C62693   1.063  11.199   7.590 -0.1945 -0.2732  1.0059
  465MOL0     C62694   1.172  11.194   7.501  0.7956  0.1394  0.3266
  465MOL0     C62695   1.465  11.105   7.179 -0.8525 -0.6865  0.5800
  465MOL0     C62696   1.407  11.043   7.065  0.5350  0.2730 -0.3438
  465MOL0     C62697   1.494  11.019   6.949  0.7258 -0.0781 -0.5883
  465MOL0     C62698   1.633  11.032   6.964 -1.0703  0.2139 -0.2448
  465MOL0     O62699   1.728  10.998   6.870 -0.4223 -0.5771  0.4655
  465MOL0     C62700   1.688  10.972   6.739 -0.3688  0.2791 -0.0388
  465MOL0     C62701   1.804  10.924   6.659  0.7735  0.2249 -0.3921
  465MOL0     C62702   1.906  11.030   6.633  0.0911 -0.0866  0.2218
  465MOL0     C62703   2.017  10.964   6.533  0.0062 -0.8207 -0.3193
  465MOL0     C62704   2.123  10.910   6.623 -0.4658 -0.4347  0.3540
  465MOL0     C62705   2.208  10.861   6.690 -0.6957  0.2919 -0.2827
  465MOL0     C62706   1.685  11.079   7.083 -1.5604  0.3869 -0.4250
  465MOL0     C62707   1.605  11.116   7.181 -0.0483 -0.6618 -0.6801
  465MOL0     H62708   1.017  11.050   7.234  1.0121  0.2562 -0.1304
  465MOL0     H62709   0.823  11.059   7.392  0.1589 -0.1574  1.2453
  465MOL0     H62710   0.704  11.318   7.628  1.7125 -0.1827 -0.6312
  465MOL0     H62711   0.670  11.195   7.506 -1.1281  3.1324 -0.5174
  465MOL0     H62712   0.590  11.049   7.701 -5.6357  0.3954 -0.2028
  465MOL0     H62713   0.649  11.180   7.808 -1.9583  2.9684  1.1072
  465MOL0     H62714   0.466  11.326   7.741  3.2892 -1.1015  2.7221
  465MOL0     H62715   0.453  11.237   7.582 -0.1636 -3.1155 -0.0406
  465MOL0     H62716   0.387  11.041   7.750  0.0201 -0.3178 -1.1495
  465MOL0     H62717   0.342  11.170   7.860 -0.1316  0.8288 -0.2724
  465MOL0     H62718   0.229  11.128   7.584 -1.4074  1.6915 -0.6339
  465MOL0     H62719   0.151  11.115   7.745 -1.3542  2.2630  1.9673
  465MOL0     H62720   0.153  11.356   7.778 -1.5960 -0.5407 -0.0231
  465MOL0     H62721   0.237  11.383   7.633 -0.0844 -0.2700 -0.8163
  465MOL0     H62722   0.040  11.270   7.500  3.8310  0.1857  0.0356
  465MOL0     H62723  -0.038  11.248   7.655  0.6868 -0.3763  1.3359
  465MOL0     H62724   0.030  11.518   7.531  1.7640 -0.2654  1.6541
  465MOL0     H62725  -0.043  11.483   7.690 -2.2500  0.0506 -1.1200
  465MOL0     H62726  -0.231  11.258   7.507  0.8445 -0.0077  2.7866
  465MOL0     H62727  -0.531  11.360   7.355 -3.0804  0.1623  0.5624
  465MOL0     H62728  -0.493  11.262   7.495  1.2027 -0.4116 -3.3795
  465MOL0     H62729  -0.568  11.480   7.628 -1.4738  1.5297  0.0592
  465MOL0     H62730  -0.685  11.353   7.588  0.2331 -0.4088 -0.2569
  465MOL0     H62731  -0.740  11.466   7.379  0.8920 -2.7385  1.0667
  465MOL0     H62732  -0.634  11.601   7.415  0.7898  0.4014  0.7843
  465MOL0     H62733  -0.761  11.671   7.603  0.6460  3.0952 -2.5414
  465MOL0     H62734  -0.859  11.521   7.586  0.4858 -0.3988 -0.8484
  465MOL0     H62735  -1.136  11.600   7.411 -2.7284  1.2222 -1.3393
  465MOL0     H62736  -1.354  11.548   7.517 -0.3745 -0.0898 -1.9024
  465MOL0     H62737  -1.426  11.665   7.624 -2.7241  2.7275 -2.1878
  465MOL0     H62738  -1.422  11.703   7.450  2.4794  0.4257 -1.0375
  465MOL0     H62739  -1.586  12.124   7.659  1.2372  0.6653  0.5224
  465MOL0     H62740  -1.763  12.218   7.794  0.2575  1.1789  1.4955
  465MOL0     H62741  -1.994  12.182   7.842  2.4259 -0.8396  0.4123
  465MOL0     H62742  -2.033  12.007   7.848 -0.6985  0.1008 -0.6579
  465MOL0     H62743  -2.118  12.194   8.066 -1.4608  0.0016 -1.2160
  465MOL0     H62744  -2.211  12.129   7.942 -0.4388 -2.0842  1.5838
  465MOL0     H62745  -2.042  11.979   8.150 -0.1673 -2.4688  0.3295
  465MOL0     H62746  -2.124  11.885   8.019  2.0280  0.7769 -0.1186
  465MOL0     H62747  -2.251  12.052   8.235 -1.4946 -0.9350  1.2831
  465MOL0     H62748  -2.342  11.988   8.095  0.8902 -1.9034 -1.2624
  465MOL0     H62749  -2.313  11.746   8.156 -0.0615 -0.4834  0.3384
  465MOL0     H62750  -2.365  11.824   8.296 -1.0687  0.5372  0.3135
  465MOL0     H62751  -2.083  11.745   8.223 -1.3484  2.3173 -1.5198
  465MOL0     H62752  -2.113  11.872   8.352 -0.8824  1.6722 -0.6397
  465MOL0     H62753  -2.219  11.581   8.332  0.9728 -1.0228 -0.4107
  465MOL0     H62754  -2.261  11.686   8.461  1.3847  2.5050  1.8186
  465MOL0     H62755  -1.962  11.583   8.398 -0.5922 -0.8947  0.0945
  465MOL0     H62756  -2.065  11.512   8.508 -1.4560 -0.9323 -2.0779
  465MOL0     H62757  -1.766  11.865   8.039 -0.4652  4.3138  2.3604
  465MOL0     H62758  -1.565  11.776   7.917  0.9742  0.2203 -0.9272
  465MOL0     H62759  -1.067  11.987   7.703 -0.9978 -0.5242  1.2092
  465MOL0     H62760  -0.878  11.880   7.581  0.4836 -1.9068  1.6855
  465MOL0     H62761   1.075  11.248   7.686  1.4551  1.9154 -0.2194
  465MOL0     H62762   1.268  11.227   7.542  2.0541 -2.8636  0.0287
  465MOL0     H62763   1.300  11.025   7.059  0.2312  1.7027  0.2801
  465MOL0     H62764   1.447  10.985   6.858 -1.5669 -4.6529  1.9616
  465MOL0     H62765   1.611  10.895   6.733 -0.3914  0.4260 -2.2543
  465MOL0     H62766   1.643  11.063   6.697  0.3229  1.1133  0.9803
  465MOL0     H62767   1.764  10.892   6.562 -2.4617  0.8823  0.5902
  465MOL0     H62768   1.855  10.840   6.706  0.0879 -0.4507 -0.8234
  465MOL0     H62769   1.946  11.061   6.729  0.1256  0.8097 -0.0787
  465MOL0     H62770   1.864  11.121   6.590  0.7112 -0.6680 -1.7295
  465MOL0     H62771   2.052  11.047   6.470  1.1008 -0.3690  0.8308
  465MOL0     H62772   1.978  10.882   6.472  1.8000 -1.3434 -0.8295
  465MOL0     H62773   2.268  10.797   6.752 -3.2042 -1.4878  0.4693
  465MOL0     H62774   1.793  11.091   7.083 -1.5461  1.1412  3.0739
  465MOL0     H62775   1.656  11.151   7.271  0.1034 -1.0546 -0.6102
  466MOL0     O62776   3.972   2.272   6.326 -0.0565  0.4702 -0.3565
  466MOL0     C62777   3.950   2.274   6.205 -1.1137 -0.2083 -0.0115
  466MOL0     O62778   3.848   2.335   6.146 -0.9262 -0.7548 -0.5249
  466MOL0     C62779   3.763   2.425   6.211  0.1247 -0.0725  0.2275
  466MOL0     C62780   3.810   2.525   6.298  0.5058 -0.0426  0.2176
  466MOL0     C62781   3.720   2.616   6.356 -0.6517 -0.1420  0.9606
  466MOL0     C62782   3.582   2.603   6.333 -0.3354  0.8525 -0.3515
  466MOL0     O62783   3.504   2.699   6.387  0.5550  1.0548  0.6198
  466MOL0     C62784   3.354   2.687   6.372 -0.4801  0.2714 -1.0860
  466MOL0     C62785   3.281   2.794   6.457  0.0801  0.7989  0.2242
  466MOL0     C62786   3.330   2.934   6.427 -0.1761  0.0033  0.2593
  466MOL0     C62787   3.227   3.023   6.491  0.6482  0.1870  0.8230
  466MOL0     C62788   3.234   3.172   6.469  0.2723  0.3886  0.0989
  466MOL0     C62789   3.140   3.232   6.574 -0.8011 -0.0530  0.4451
  466MOL0     C62790   2.996   3.255   6.532  0.2097  0.4118 -0.1066
  466MOL0     C62791   2.967   3.337   6.411 -1.0067  0.2180 -0.5518
  466MOL0     N62792   2.823   3.354   6.389 -0.2406 -0.8981 -0.0870
  466MOL0     C62793   2.735   3.432   6.460 -0.5926 -0.3861 -0.3313
  466MOL0     C62794   2.614   3.413   6.401  0.2963 -0.6418 -0.2708
  466MOL0     C62795   2.488   3.496   6.446 -0.4104  0.5275  0.2725
  466MOL0     C62796   2.384   3.520   6.334 -0.2555 -0.4055  0.4783
  466MOL0     C62797   2.264   3.590   6.386 -0.7975  0.2541  0.8844
  466MOL0     C62798   2.168   3.640   6.275 -0.1653 -0.5954 -0.1023
  466MOL0     O62799   2.107   3.543   6.189  0.1234  0.3091 -0.3194
  466MOL0     C62800   2.100   3.576   6.059 -0.9786 -0.7331  0.6521
  466MOL0     C62801   2.077   3.711   6.009  0.1065  0.0256 -1.0723
  466MOL0     C62802   2.086   3.742   5.868  0.3987 -0.0675 -1.0637
  466MOL0     C62803   2.065   3.889   5.837  0.8318 -0.2201 -0.2888
  466MOL0     C62804   2.123   3.640   5.776  0.7144  0.2485 -0.4573
  466MOL0     C62805   2.140   3.659   5.633 -0.4553 -0.5087  0.6133
  466MOL0     O62806   2.199   3.563   5.561 -0.6485  0.1650  0.2221
  466MOL0     C62807   2.228   3.570   5.428  0.0012  0.7062 -0.1093
  466MOL0     C62808   2.207   3.673   5.339 -0.1176  0.3310  0.9077
  466MOL0     C62809   2.243   3.652   5.205  0.7074 -0.5448  0.0982
  466MOL0     C62810   2.290   3.534   5.155  0.8512  0.2733 -0.0968
  466MOL0     O62811   2.324   3.511   5.020  0.6832  0.3572 -0.1669
  466MOL0     C62812   2.320   3.611   4.927 -0.3948 -0.5169  0.5595
  466MOL0     C62813   2.441   3.707   4.941 -0.0453 -0.5091  0.3032
  466MOL0     C62814   2.578   3.657   4.961 -0.7162 -0.9999 -0.0969
  466MOL0     C62815   2.679   3.767   4.949 -0.5406  0.1024  0.1359
  466MOL0     C62816   2.815   3.705   4.975  0.8357 -0.1614 -0.1281
  466MOL0     C62817   2.927   3.804   4.924 -0.0772  1.3171 -0.4378
  466MOL0     C62818   3.071   3.742   4.944  0.3142 -0.3002 -0.2040
  466MOL0     C62819   3.176   3.854   4.935 -0.0147 -0.2590  0.1102
  466MOL0    Cl62820   3.345   3.796   4.929  0.3658 -0.2829  0.0322
  466MOL0     C62821   2.318   3.440   5.253  0.1905  1.4527  0.4223
  466MOL0     C62822   2.286   3.452   5.384  1.4710  0.2939 -0.3321
  466MOL0     O62823   2.100   3.771   5.590  0.1045 -0.1124 -0.8137
  466MOL0     C62824   2.138   3.508   5.827  0.2189  0.1138 -0.0582
  466MOL0     C62825   2.124   3.471   5.969  0.1446 -0.2220 -1.1485
  466MOL0     N62826   2.641   3.334   6.290 -0.3520 -0.0886  0.1471
  466MOL0     N62827   2.761   3.306   6.279 -0.0130  0.6457 -1.0528
  466MOL0     C62828   3.538   2.512   6.235  0.5177 -0.7199 -0.6504
  466MOL0     C62829   3.626   2.425   6.177  0.2562  0.2626 -0.0123
  466MOL0     C62830   4.061   2.227   6.121 -0.5897  1.0520 -0.1147
  466MOL0     C62831   4.177   2.179   6.177  0.2802  0.4158  0.5149
  466MOL0     C62832   4.290   2.149   6.099 -0.7063 -0.7507  0.0340
  466MOL0     C62833   4.268   2.143   5.960 -0.2409 -0.2429 -0.0551
  466MOL0     O62834   4.362   2.103   5.866 -0.4549  0.5230  0.1699
  466MOL0     C62835   4.488   2.054   5.911 -0.8180  0.5032 -0.0791
  466MOL0     C62836   4.593   2.061   5.793 -0.9186 -0.0855  0.4792
  466MOL0     C62837   4.729   2.119   5.829 -0.0441  1.1215  0.0827
  466MOL0     C62838   4.830   2.019   5.869  0.6126  0.4418  0.6586
  466MOL0     C62839   4.972   2.058   5.872 -0.6330 -0.2963  0.5302
  466MOL0     C62840   5.094   2.085   5.872 -0.2508 -0.6586  0.6616
  466MOL0     C62841   4.150   2.185   5.904  1.0493 -0.1636 -0.2821
  466MOL0     C62842   4.043   2.236   5.982 -0.2157  0.4916  0.1190
  466MOL0     H62843   3.912   2.539   6.332 -0.0083 -0.6302  2.1430
  466MOL0     H62844   3.759   2.693   6.423  1.1474 -0.9533  0.9175
  466MOL0     H62845   3.333   2.717   6.269  0.0430  0.3203 -1.1840
  466MOL0     H62846   3.326   2.584   6.395 -0.8221  0.5435 -0.2596
  466MOL0     H62847   3.174   2.773   6.453 -0.0604  1.1556  1.6218
  466MOL0     H62848   3.312   2.779   6.561 -2.1554  1.1603  0.9930
  466MOL0     H62849   3.423   2.957   6.479 -0.0944  0.7408 -0.2062
  466MOL0     H62850   3.343   2.952   6.320  0.4799  1.0911  0.5056
  466MOL0     H62851   3.125   2.998   6.461 -0.6714  2.8585  2.6990
  466MOL0     H62852   3.232   2.999   6.598  2.3833 -0.4540  0.6274
  466MOL0     H62853   3.330   3.213   6.502 -0.7720 -0.3343  4.7185
  466MOL0     H62854   3.202   3.195   6.367 -3.3080  0.0563  1.0432
  466MOL0     H62855   3.141   3.182   6.672  1.6296 -1.6963 -0.3086
  466MOL0     H62856   3.184   3.328   6.603 -4.6482  2.6035 -1.6597
  466MOL0     H62857   2.942   3.162   6.516 -0.1749  0.0527  2.7994
  466MOL0     H62858   2.956   3.292   6.627 -1.1078 -0.6170 -0.2507
  466MOL0     H62859   3.022   3.287   6.330  4.0714  0.2064  2.4720
  466MOL0     H62860   3.008   3.438   6.423 -3.6543  1.3515 -0.5293
  466MOL0     H62861   2.771   3.499   6.538 -1.4856 -1.6506  1.2252
  466MOL0     H62862   2.444   3.444   6.531  1.7313  0.7872  1.6313
  466MOL0     H62863   2.526   3.589   6.489  1.7404 -0.6810  1.1252
  466MOL0     H62864   2.354   3.428   6.282  0.8523 -0.0579 -0.8219
  466MOL0     H62865   2.428   3.587   6.260  0.7642 -1.3375  0.2223
  466MOL0     H62866   2.297   3.681   6.435 -0.3402  0.0366  0.9845
  466MOL0     H62867   2.216   3.518   6.453  3.5051 -3.5212  0.3640
  466MOL0     H62868   2.228   3.708   6.213 -0.3182  1.4437  1.8723
  466MOL0     H62869   2.081   3.689   6.318  0.9029  0.7803  0.5768
  466MOL0     H62870   2.052   3.784   6.086  3.1667  1.4084 -1.2542
  466MOL0     H62871   2.144   3.935   5.776  1.7192 -0.9685  0.2761
  466MOL0     H62872   1.967   3.900   5.789  1.5884  1.1491 -1.6031
  466MOL0     H62873   2.062   3.947   5.930  0.8225  1.7705 -1.4694
  466MOL0     H62874   2.176   3.769   5.378  2.6584  1.7350 -0.0322
  466MOL0     H62875   2.233   3.740   5.142  0.7359  1.1222  2.2680
  466MOL0     H62876   2.317   3.568   4.826 -0.5333 -2.0302  1.1863
  466MOL0     H62877   2.227   3.667   4.933 -0.9980 -1.2201 -1.3711
  466MOL0     H62878   2.449   3.775   4.855  1.6875  2.2982  2.5003
  466MOL0     H62879   2.420   3.771   5.028  2.6017  1.2380 -0.2180
  466MOL0     H62880   2.594   3.579   4.885 -3.3899 -0.6800 -1.0678
  466MOL0     H62881   2.590   3.606   5.057 -0.2919  0.2763  0.5591
  466MOL0     H62882   2.669   3.824   4.856  0.9778 -2.0638 -1.4474
  466MOL0     H62883   2.672   3.839   5.031 -0.7295  0.5717 -0.2867
  466MOL0     H62884   2.828   3.611   4.920 -1.5163  0.3653 -1.7223
  466MOL0     H62885   2.826   3.678   5.081  1.2132  0.5872  0.0289
  466MOL0     H62886   2.911   3.811   4.816  0.3995  0.7823 -0.5452
  466MOL0     H62887   2.908   3.905   4.962 -1.3638 -0.1984  3.3528
  466MOL0     H62888   3.100   3.670   4.868  0.2619  0.0125 -0.5217
  466MOL0     H62889   3.070   3.705   5.047  1.4901 -0.1478 -0.1287
  466MOL0     H62890   3.175   3.920   5.022  0.8175 -0.0358 -0.0367
  466MOL0     H62891   3.154   3.907   4.841 -1.0079  1.2006  1.1189
  466MOL0     H62892   2.361   3.344   5.228  0.7234  2.0575 -1.1169
  466MOL0     H62893   2.311   3.376   5.457  0.1201 -1.1655 -1.3244
  466MOL0     H62894   2.152   3.420   5.764 -0.2453 -0.1908  0.2580
  466MOL0     H62895   2.162   3.374   5.997  1.1427  0.2300 -0.9054
  466MOL0     H62896   3.431   2.513   6.216  0.5677 -1.3705 -0.9906
  466MOL0     H62897   3.594   2.360   6.096 -1.8771  0.7836  0.3679
  466MOL0     H62898   4.179   2.174   6.285 -1.8783 -0.4460  0.5640
  466MOL0     H62899   4.367   2.113   6.165  0.6911 -0.9117 -1.6185
  466MOL0     H62900   4.528   2.117   5.991  3.2762 -0.2962 -1.2766
  466MOL0     H62901   4.476   1.950   5.946  0.1276 -1.2125 -4.3049
  466MOL0     H62902   4.559   2.133   5.717 -2.6044  1.1007  2.2644
  466MOL0     H62903   4.606   1.962   5.748  2.6887  0.0514  0.9346
  466MOL0     H62904   4.708   2.196   5.904 -0.8130  1.8534 -0.8681
  466MOL0     H62905   4.767   2.179   5.746 -0.2265  3.1101  1.3839
  466MOL0     H62906   4.808   1.936   5.802  0.3294  2.1053 -1.4345
  466MOL0     H62907   4.806   2.000   5.974 -0.6771 -1.4190  0.0792
  466MOL0     H62908   5.200   2.101   5.879  0.3085 -4.0102  1.4744
  466MOL0     H62909   4.148   2.191   5.796  3.6592  0.9170 -0.3352
  466MOL0     H62910   3.956   2.282   5.935 -2.0010 -1.4205  1.3260
  467MOL0     O62911   5.454   8.663   4.805 -0.0304  0.1986  0.1532
  467MOL0     C62912   5.398   8.677   4.695  0.5482 -0.6619  0.2650
  467MOL0     O62913   5.457   8.654   4.576 -0.3929 -0.2119 -0.1748
  467MOL0     C62914   5.585   8.613   4.555 -0.5214 -0.3140 -0.1979
  467MOL0     C62915   5.695   8.696   4.584  0.8318  0.2999  0.6850
  467MOL0     C62916   5.824   8.650   4.567 -0.2548 -0.9502 -0.1020
  467MOL0     C62917   5.840   8.514   4.539 -0.7265  0.5677  0.2383
  467MOL0     O62918   5.961   8.459   4.522 -0.0471  0.0679  0.0788
  467MOL0     C62919   6.079   8.533   4.520 -0.5912 -0.6515  0.0266
  467MOL0     C62920   6.203   8.432   4.501  1.3482  0.7469  0.2356
  467MOL0     C62921   6.190   8.355   4.368  0.9960 -0.4066 -0.2113
  467MOL0     C62922   6.299   8.247   4.367 -0.0062 -0.7743  0.7973
  467MOL0     C62923   6.298   8.145   4.242 -0.5130 -0.3759  0.4608
  467MOL0     C62924   6.345   8.215   4.114 -0.2282  0.3245  0.3402
  467MOL0     C62925   6.387   8.108   4.015 -0.7237 -0.3324  0.6219
  467MOL0     C62926   6.457   8.143   3.884  0.0116 -0.0078  0.4788
  467MOL0     N62927   6.582   8.213   3.902 -1.0081 -0.0798 -0.8548
  467MOL0     C62928   6.614   8.342   3.863 -0.3133 -0.1192 -0.8423
  467MOL0     C62929   6.744   8.355   3.906  0.8680  0.0131  0.4340
  467MOL0     C62930   6.832   8.474   3.920  0.0732  0.0800  0.4737
  467MOL0     C62931   6.821   8.513   4.070 -0.0633  0.3428 -0.8762
  467MOL0     C62932   6.742   8.644   4.070  0.8138  0.1145  0.6076
  467MOL0     C62933   6.714   8.695   4.210  0.0877  0.3138 -0.8424
  467MOL0     O62934   6.624   8.602   4.271  0.0599  0.2694  0.1042
  467MOL0     C62935   6.513   8.658   4.324 -0.9481  0.8726  0.7314
  467MOL0     C62936   6.406   8.681   4.242  0.6670  0.0678  0.0205
  467MOL0     C62937   6.298   8.760   4.287 -0.0925 -0.4232  0.1375
  467MOL0     C62938   6.187   8.780   4.180 -0.4973  0.0110 -0.2578
  467MOL0     C62939   6.290   8.800   4.421 -0.3263  0.8991 -0.1873
  467MOL0     C62940   6.168   8.865   4.483  0.8385 -0.2725 -0.5804
  467MOL0     O62941   6.177   8.905   4.616 -0.1533  0.4577 -0.1621
  467MOL0     C62942   6.062   8.950   4.674 -0.5298 -0.0648 -0.2683
  467MOL0     C62943   6.017   9.082   4.644 -0.5730  0.0502 -0.5702
  467MOL0     C62944   5.893   9.120   4.678 -0.0357 -1.2729 -0.7631
  467MOL0     C62945   5.817   9.053   4.770  0.8666 -0.5780 -0.2226
  467MOL0     O62946   5.716   9.118   4.822  0.3246  0.1811 -0.1971
  467MOL0     C62947   5.588   9.046   4.810  0.3175 -0.7062 -0.6376
  467MOL0     C62948   5.479   9.131   4.876 -0.4702  0.3752  0.5079
  467MOL0     C62949   5.353   9.042   4.919  0.0093 -0.4067  0.5204
  467MOL0     C62950   5.228   9.131   4.911  0.7920 -0.3881 -0.2589
  467MOL0     C62951   5.096   9.056   4.957  0.1608  0.1006  0.2274
  467MOL0     C62952   4.962   9.123   4.915  0.2927 -0.0157  0.5804
  467MOL0     C62953   4.938   9.272   4.955 -1.3239  0.0567 -0.4719
  467MOL0     C62954   4.808   9.337   4.910  0.5188 -0.3775  0.0556
  467MOL0    Cl62955   4.660   9.269   4.985  0.3806 -0.9013 -0.1350
  467MOL0     C62956   5.878   8.927   4.821  0.7715 -0.1280  0.1601
  467MOL0     C62957   5.992   8.868   4.757  0.6888 -0.1094  0.0226
  467MOL0     O62958   6.060   8.869   4.424  0.1978 -0.1865 -0.0009
  467MOL0     C62959   6.400   8.766   4.502 -0.5580  0.5946  0.8563
  467MOL0     C62960   6.509   8.698   4.451  0.0741 -0.2471  1.1901
  467MOL0     N62961   6.781   8.225   3.944  0.8181  0.0283  0.1816
  467MOL0     N62962   6.684   8.140   3.959 -0.6506 -0.0097 -0.8812
  467MOL0     C62963   5.736   8.431   4.518  0.3202  0.4286 -0.4042
  467MOL0     C62964   5.596   8.478   4.520 -0.6435 -0.5936  0.2610
  467MOL0     C62965   5.250   8.713   4.699  0.7240 -0.0346  0.0808
  467MOL0     C62966   5.167   8.677   4.809 -0.8996  0.2106 -0.2793
  467MOL0     C62967   5.032   8.711   4.810  1.2114 -0.5856  0.6027
  467MOL0     C62968   4.973   8.783   4.701  1.2521 -0.4409  0.9470
  467MOL0     O62969   4.836   8.821   4.698 -0.0698 -0.5133 -0.5509
  467MOL0     C62970   4.757   8.817   4.578  0.4769 -0.2664  0.4820
  467MOL0     C62971   4.609   8.816   4.633 -0.7746  0.3803  0.7365
  467MOL0     C62972   4.568   8.942   4.714 -0.6193 -0.3060  0.9911
  467MOL0     C62973   4.420   8.936   4.742 -0.7057 -0.4203 -0.6218
  467MOL0     C62974   4.370   9.074   4.760 -0.0803  0.3298 -1.1210
  467MOL0     C62975   4.342   9.189   4.781  0.1679 -0.7707 -0.6207
  467MOL0     C62976   5.057   8.820   4.595  0.6856  0.2642 -0.8005
  467MOL0     C62977   5.191   8.776   4.585  0.3769  0.2652 -0.5536
  467MOL0     H62978   5.680   8.797   4.620 -2.3842 -0.7738  2.7398
  467MOL0     H62979   5.906   8.718   4.586 -2.4836  1.4895  1.4458
  467MOL0     H62980   6.082   8.606   4.437 -0.0862  0.7985  1.2715
  467MOL0     H62981   6.100   8.596   4.607  0.9046  0.0955 -0.8267
  467MOL0     H62982   6.288   8.499   4.490  1.5582  0.3418 -0.6869
  467MOL0     H62983   6.209   8.361   4.584 -0.4129 -1.9594 -1.7989
  467MOL0     H62984   6.093   8.304   4.367 -0.2043  1.7726 -1.2562
  467MOL0     H62985   6.198   8.432   4.291 -2.4234  1.1103  0.7414
  467MOL0     H62986   6.386   8.312   4.360 -1.5970  1.3206 -0.8050
  467MOL0     H62987   6.299   8.188   4.459  2.4225 -1.5260  0.3763
  467MOL0     H62988   6.358   8.056   4.262 -2.0499 -2.3164 -2.7089
  467MOL0     H62989   6.196   8.107   4.231  0.4632 -3.1340  0.1737
  467MOL0     H62990   6.265   8.279   4.075 -1.3695 -1.5118 -0.5096
  467MOL0     H62991   6.431   8.280   4.128 -0.4473  1.0319 -1.3809
  467MOL0     H62992   6.468   8.048   4.058  1.1234  1.9135  0.4918
  467MOL0     H62993   6.291   8.061   3.993 -1.1258  0.8028 -0.1267
  467MOL0     H62994   6.403   8.206   3.813  0.8864  2.3391  1.7896
  467MOL0     H62995   6.480   8.050   3.832  0.7501 -0.2414  1.2002
  467MOL0     H62996   6.557   8.431   3.837  1.9869  1.6770 -0.0300
  467MOL0     H62997   6.933   8.446   3.887 -1.3518  0.7136 -5.6207
  467MOL0     H62998   6.791   8.543   3.846 -2.3668 -2.6932 -0.9641
  467MOL0     H62999   6.924   8.526   4.106  0.1081  1.6420 -1.7688
  467MOL0     H63000   6.777   8.437   4.135  1.6106 -0.5692 -0.7354
  467MOL0     H63001   6.640   8.631   4.034  0.2511  1.7762  1.5055
  467MOL0     H63002   6.798   8.723   4.018 -0.2676 -1.1518 -2.7154
  467MOL0     H63003   6.653   8.786   4.202 -1.6720 -0.5040  1.8975
  467MOL0     H63004   6.808   8.716   4.261 -0.1010  2.6413 -1.3167
  467MOL0     H63005   6.408   8.628   4.147 -0.0761  0.1836 -0.0638
  467MOL0     H63006   6.238   8.795   4.085 -0.2994  1.3729  0.0415
  467MOL0     H63007   6.120   8.694   4.190 -0.4986  0.2398  2.4895
  467MOL0     H63008   6.130   8.872   4.199  0.7500  0.6383  0.6408
  467MOL0     H63009   6.090   9.132   4.581  1.5712 -0.2568  1.5136
  467MOL0     H63010   5.850   9.206   4.628  0.1574 -1.3395 -1.0396
  467MOL0     H63011   5.566   9.031   4.704  1.8079  1.2710 -1.2961
  467MOL0     H63012   5.603   8.947   4.855  0.3266  0.3627  1.8329
  467MOL0     H63013   5.526   9.174   4.965  0.7768  0.7653 -0.3138
  467MOL0     H63014   5.460   9.225   4.822  0.7479  0.8578  0.8801
  467MOL0     H63015   5.353   9.018   5.026  2.1429  1.5138  1.0348
  467MOL0     H63016   5.341   8.957   4.852  0.6537 -0.8843  0.9921
  467MOL0     H63017   5.238   9.211   4.985 -0.8192 -0.3525 -0.0354
  467MOL0     H63018   5.217   9.175   4.811  0.4095 -0.8579 -0.4245
  467MOL0     H63019   5.103   9.041   5.065 -0.0534  1.5009  0.4488
  467MOL0     H63020   5.091   8.956   4.913  1.5560 -0.2467  0.7955
  467MOL0     H63021   4.952   9.121   4.806  0.8839 -1.3919  0.5265
  467MOL0     H63022   4.884   9.055   4.950  0.9323 -0.8236  0.4704
  467MOL0     H63023   5.028   9.321   4.917 -0.9635 -0.2643 -0.0358
  467MOL0     H63024   4.961   9.292   5.060  3.0164 -2.3929 -0.7110
  467MOL0     H63025   4.802   9.315   4.803 -0.1124  1.0675 -0.2323
  467MOL0     H63026   4.809   9.446   4.907 -0.0030 -0.2135  3.0966
  467MOL0     H63027   5.830   8.865   4.896  0.7804  0.3469  0.5629
  467MOL0     H63028   6.032   8.773   4.791 -1.4516 -0.1176  2.8408
  467MOL0     H63029   6.406   8.797   4.605 -0.6282  1.2801  0.6581
  467MOL0     H63030   6.590   8.665   4.516  0.5541  0.2255  0.8446
  467MOL0     H63031   5.754   8.327   4.493  0.1883  0.5390 -0.9730
  467MOL0     H63032   5.506   8.420   4.503 -0.2196 -1.5177  1.0688
  467MOL0     H63033   5.213   8.634   4.896 -0.6690  2.4579  0.7884
  467MOL0     H63034   4.969   8.708   4.898 -1.2686  3.2700 -0.7979
  467MOL0     H63035   4.770   8.908   4.518 -0.2016  0.4769  1.4451
  467MOL0     H63036   4.777   8.732   4.511 -1.6950 -0.2694 -0.2292
  467MOL0     H63037   4.607   8.728   4.698 -0.7092 -0.5966 -0.5549
  467MOL0     H63038   4.547   8.814   4.543 -1.4829 -1.5006  1.2027
  467MOL0     H63039   4.596   9.033   4.661 -2.2939 -0.5017 -0.3118
  467MOL0     H63040   4.613   8.948   4.813 -0.3427 -1.2313  0.9261
  467MOL0     H63041   4.392   8.882   4.833 -1.3079  1.0534  0.1026
  467MOL0     H63042   4.369   8.895   4.655 -1.0041 -1.3770 -0.0107
  467MOL0     H63043   4.336   9.291   4.811 -1.3571 -0.8812 -0.4695
  467MOL0     H63044   5.010   8.876   4.515 -0.5692  1.1949  0.5377
  467MOL0     H63045   5.250   8.794   4.496  1.0769 -3.9703 -1.1792
  468MOL0     O63046   8.069   2.198  10.535  0.3093  0.0416 -0.2601
  468MOL0     C63047   8.135   2.228  10.434  0.1474  0.1501 -0.4367
  468MOL0     O63048   8.082   2.264  10.316  0.1957 -0.4131 -0.0330
  468MOL0     C63049   7.955   2.280  10.298 -0.3470 -0.8136 -0.7175
  468MOL0     C63050   7.914   2.383  10.217 -0.1439 -0.1048  1.3285
  468MOL0     C63051   7.790   2.379  10.157 -0.3673  0.4128 -0.5608
  468MOL0     C63052   7.700   2.274  10.194 -0.4508 -0.2283  0.5612
  468MOL0     O63053   7.571   2.256  10.145 -0.5224 -0.1742  0.2894
  468MOL0     C63054   7.493   2.376  10.172 -0.3292 -0.6934 -0.5376
  468MOL0     C63055   7.351   2.340  10.115  0.1932 -0.7608 -0.4259
  468MOL0     C63056   7.271   2.240  10.194 -0.8209  0.4279 -0.1725
  468MOL0     C63057   7.132   2.197  10.144  0.1077  0.4096  0.6945
  468MOL0     C63058   7.063   2.098  10.230  0.6334  0.3971 -0.6446
  468MOL0     C63059   6.915   2.094  10.195 -0.6855  0.4485 -0.3218
  468MOL0     C63060   6.833   2.014  10.308 -0.7678 -0.1562  0.2643
  468MOL0     C63061   6.825   2.084  10.448  0.1461 -1.6205 -0.1419
  468MOL0     N63062   6.712   2.034  10.534  0.6143  0.2220 -0.2500
  468MOL0     C63063   6.604   2.101  10.595  0.4377 -0.1271  0.3299
  468MOL0     C63064   6.538   2.008  10.665  0.2718  0.0454  0.6333
  468MOL0     C63065   6.411   2.020  10.745  0.0236  0.6059  0.1946
  468MOL0     C63066   6.280   2.060  10.666 -0.6937 -0.7623  0.1500
  468MOL0     C63067   6.153   2.048  10.748 -0.3280 -0.2178 -0.0063
  468MOL0     C63068   6.022   2.083  10.676 -0.0794 -0.0260  0.2487
  468MOL0     O63069   5.940   2.177  10.749 -0.2216 -0.1834 -0.2827
  468MOL0     C63070   5.816   2.218  10.691  0.2314  0.5031  0.6395
  468MOL0     C63071   5.781   2.188  10.559 -0.1951  0.0745  0.8153
  468MOL0     C63072   5.654   2.213  10.506  0.6737 -0.1905  0.3929
  468MOL0     C63073   5.624   2.171  10.364 -0.2257 -0.2201  0.9188
  468MOL0     C63074   5.562   2.289  10.595 -0.3756  0.1805  0.7528
  468MOL0     C63075   5.441   2.353  10.549  0.1117  0.1834 -1.2091
  468MOL0     O63076   5.390   2.446  10.634  0.2185  0.4876 -0.4691
  468MOL0     C63077   5.273   2.505  10.603 -0.1704 -0.9488  0.4979
  468MOL0     C63078   5.154   2.487  10.667  0.3561 -0.0237  0.6518
  468MOL0     C63079   5.036   2.561  10.637 -0.4591 -0.6540 -0.0264
  468MOL0     C63080   5.043   2.661  10.538 -0.4779  0.8076 -0.2961
  468MOL0     O63081   4.942   2.735  10.500  0.1939  0.0592  0.2632
  468MOL0     C63082   4.810   2.688  10.524  0.3470  0.2033 -0.0290
  468MOL0     C63083   4.700   2.769  10.450 -0.0877  0.5225 -0.4630
  468MOL0     C63084   4.741   2.922  10.453  0.0803 -1.0600  0.1823
  468MOL0     C63085   4.620   3.009  10.415  0.4172  0.1255 -0.5783
  468MOL0     C63086   4.673   3.152  10.362  0.1254  0.5138  0.9177
  468MOL0     C63087   4.761   3.216  10.459 -0.8300 -0.8125  0.6700
  468MOL0     C63088   4.782   3.364  10.409 -0.3119  0.4995  0.7967
  468MOL0     C63089   4.851   3.438  10.525 -0.3515  0.2765  0.3157
  468MOL0    Cl63090   4.858   3.611  10.468 -0.0093  0.4476  0.4349
  468MOL0     C63091   5.162   2.674  10.468  0.1066  0.1729  0.2804
  468MOL0     C63092   5.274   2.590  10.496 -0.0627 -0.7446 -0.2368
  468MOL0     O63093   5.394   2.319  10.444 -0.1024  0.3537 -0.4230
  468MOL0     C63094   5.597   2.311  10.731  0.0557  0.8036 -0.8778
  468MOL0     C63095   5.719   2.286  10.776 -0.4369  1.3318  0.2213
  468MOL0     N63096   6.592   1.885  10.631 -0.0411 -0.0035  0.6561
  468MOL0     N63097   6.700   1.906  10.567  0.1935 -0.0628  0.1980
  468MOL0     C63098   7.745   2.162  10.265 -0.1781  0.1717  0.4777
  468MOL0     C63099   7.875   2.171  10.320 -0.1000  0.8749 -0.6870
  468MOL0     C63100   8.283   2.219  10.437  0.4769  0.3358 -0.3164
  468MOL0     C63101   8.346   2.166  10.547 -0.9239  0.3056 -0.3341
  468MOL0     C63102   8.486   2.146  10.554  1.0077  0.3306 -0.4651
  468MOL0     C63103   8.569   2.203  10.461 -0.0908 -0.5415  0.4282
  468MOL0     O63104   8.705   2.203  10.463 -0.3004  0.7650 -0.0523
  468MOL0     C63105   8.757   2.089  10.531  0.3190 -0.1838  0.1325
  468MOL0     C63106   8.739   1.958  10.460  0.3122 -0.1320 -0.7197
  468MOL0     C63107   8.849   1.851  10.475 -0.1852 -0.5387  0.7003
  468MOL0     C63108   8.838   1.740  10.369  1.1978 -0.1411 -0.4315
  468MOL0     C63109   8.716   1.661  10.401 -0.6903  0.5251 -0.3665
  468MOL0     C63110   8.620   1.588  10.427  0.0705 -0.4597  0.3236
  468MOL0     C63111   8.507   2.265  10.346 -0.1042  0.5475  0.0528
  468MOL0     C63112   8.366   2.278  10.340 -0.5744  0.2941 -0.1011
  468MOL0     H63113   7.992   2.455  10.195  2.5815 -3.0579  0.3649
  468MOL0     H63114   7.758   2.461  10.093  1.7857  2.4934  0.8700
  468MOL0     H63115   7.487   2.398  10.279 -0.4934 -1.0657 -0.4697
  468MOL0     H63116   7.529   2.472  10.134 -0.6755 -0.3957 -0.1248
  468MOL0     H63117   7.287   2.427  10.132  1.6241 -0.1823  2.7116
  468MOL0     H63118   7.357   2.312  10.010 -1.5588  1.6384 -1.2598
  468MOL0     H63119   7.333   2.151  10.208  0.2636  1.2331  0.2443
  468MOL0     H63120   7.268   2.286  10.294  3.9279 -1.5501  1.1407
  468MOL0     H63121   7.081   2.293  10.136  3.1490  2.1351  0.3723
  468MOL0     H63122   7.147   2.148  10.046  1.0424 -1.8920  1.8988
  468MOL0     H63123   7.106   1.997  10.228  2.8398  1.1104  2.3831
  468MOL0     H63124   7.066   2.129  10.335 -2.8277  2.0298 -0.8723
  468MOL0     H63125   6.868   2.191  10.180  1.2114  1.3634 -0.6891
  468MOL0     H63126   6.915   2.032  10.106 -1.9718 -1.8683  1.1903
  468MOL0     H63127   6.731   2.005  10.268 -2.2991 -0.8174  3.9310
  468MOL0     H63128   6.878   1.916  10.325  2.3737  0.9399 -1.0171
  468MOL0     H63129   6.809   2.192  10.445  0.6053 -1.4663  1.8803
  468MOL0     H63130   6.918   2.087  10.505 -0.7589 -4.1119  1.6430
  468MOL0     H63131   6.588   2.208  10.585 -0.4247 -0.3219 -0.5484
  468MOL0     H63132   6.386   1.927  10.797  0.0574  0.9251  0.7874
  468MOL0     H63133   6.433   2.094  10.822 -1.0620  0.9225  0.2180
  468MOL0     H63134   6.274   1.993  10.580 -0.3340  0.4208 -0.8353
  468MOL0     H63135   6.288   2.167  10.643 -2.0416 -0.8117 -0.6323
  468MOL0     H63136   6.161   2.115  10.834 -1.8368  2.7437 -1.9817
  468MOL0     H63137   6.138   1.943  10.773  0.4700 -0.0363  1.3680
  468MOL0     H63138   5.970   1.992  10.646 -0.3960  0.6755 -1.4731
  468MOL0     H63139   6.047   2.122  10.577 -1.6561 -1.2648 -0.6798
  468MOL0     H63140   5.848   2.120  10.508 -1.3690  0.4530 -1.3647
  468MOL0     H63141   5.680   2.077  10.354 -0.6946 -0.2992 -1.5615
  468MOL0     H63142   5.519   2.147  10.343  0.0322 -0.8149  0.2469
  468MOL0     H63143   5.660   2.245  10.292  1.4813 -2.0323 -0.1851
  468MOL0     H63144   5.150   2.399  10.730 -0.8488 -0.5635 -0.1382
  468MOL0     H63145   4.937   2.543  10.676 -0.5775  1.8216  1.0066
  468MOL0     H63146   4.803   2.587  10.483  3.5942  0.0999 -0.5868
  468MOL0     H63147   4.793   2.692  10.632 -0.5166 -0.5060 -0.1264
  468MOL0     H63148   4.671   2.730  10.352  1.1035  1.0602 -1.0448
  468MOL0     H63149   4.612   2.747  10.511  2.6770 -1.9362  3.0746
  468MOL0     H63150   4.827   2.929  10.385  2.3547  0.4059  2.9721
  468MOL0     H63151   4.794   2.944  10.547  3.6760 -1.5339 -1.5705
  468MOL0     H63152   4.567   2.969  10.328 -1.4970  2.6764 -0.6882
  468MOL0     H63153   4.543   3.007  10.493 -3.1359 -2.4277 -3.7550
  468MOL0     H63154   4.581   3.211  10.358  0.5934  1.2615 -2.6636
  468MOL0     H63155   4.717   3.137  10.263 -1.6153  2.1207 -0.1800
  468MOL0     H63156   4.704   3.205  10.552 -1.8999 -0.1642  0.1112
  468MOL0     H63157   4.864   3.180  10.471  0.2705  1.9936  0.5185
  468MOL0     H63158   4.683   3.406  10.386 -0.8207 -0.8273  0.4734
  468MOL0     H63159   4.843   3.371  10.319 -1.1584  0.0187  0.1723
  468MOL0     H63160   4.952   3.405  10.553 -0.2579  0.2520 -0.0431
  468MOL0     H63161   4.782   3.415  10.606 -0.3501 -1.0033 -0.0241
  468MOL0     H63162   5.163   2.743  10.384 -0.8163  0.6918  0.6875
  468MOL0     H63163   5.359   2.582  10.429  0.4457 -0.9809  0.4202
  468MOL0     H63164   5.535   2.381  10.786  0.0001  2.2560 -2.7047
  468MOL0     H63165   5.739   2.310  10.880 -0.5364  3.6404 -0.2459
  468MOL0     H63166   7.681   2.078  10.289  0.8316 -0.7101  0.1864
  468MOL0     H63167   7.907   2.085  10.378 -3.7861  0.6865  1.4138
  468MOL0     H63168   8.292   2.130  10.633  2.4211 -0.8662  1.4575
  468MOL0     H63169   8.513   2.092  10.645 -0.2183  1.5675  0.6781
  468MOL0     H63170   8.861   2.119  10.546  0.2594 -0.6944  1.7518
  468MOL0     H63171   8.704   2.080  10.627 -2.9504 -1.0877 -1.5914
  468MOL0     H63172   8.739   1.991  10.356 -3.5398  0.3859 -0.6899
  468MOL0     H63173   8.650   1.900  10.485 -0.0549  0.5448 -0.4221
  468MOL0     H63174   8.855   1.810  10.576 -1.1071 -0.9685  0.5959
  468MOL0     H63175   8.947   1.899  10.469 -0.3641 -0.2122  0.3576
  468MOL0     H63176   8.923   1.671  10.364 -0.7613 -2.6714 -0.6042
  468MOL0     H63177   8.825   1.790  10.273 -1.4309 -0.4353 -0.3108
  468MOL0     H63178   8.532   1.533  10.454  0.0692 -0.0316  1.2209
  468MOL0     H63179   8.575   2.302  10.269 -0.9205  1.9797 -0.0180
  468MOL0     H63180   8.331   2.333  10.253  2.0713  3.4449  0.6419
  469MOL0     O63181   8.147   0.653   5.815 -0.2084  0.4306  0.4865
  469MOL0     C63182   8.225   0.748   5.837 -0.4408 -0.1696 -0.2127
  469MOL0     O63183   8.206   0.873   5.802  0.4221 -0.5604  0.2303
  469MOL0     C63184   8.093   0.903   5.736 -0.1222 -0.6711 -0.3338
  469MOL0     C63185   8.113   0.937   5.601 -0.2613  0.3825  1.2893
  469MOL0     C63186   8.012   0.947   5.510 -0.5877 -0.0978 -0.0343
  469MOL0     C63187   7.882   0.942   5.553  0.2698 -0.4225 -0.0866
  469MOL0     O63188   7.776   0.958   5.470 -0.3802 -0.2539 -0.9620
  469MOL0     C63189   7.789   0.930   5.324  0.0088 -0.0180  0.3377
  469MOL0     C63190   7.647   0.924   5.254 -0.1601 -0.0864  0.5080
  469MOL0     C63191   7.571   1.052   5.243 -0.0346 -0.6256  0.0113
  469MOL0     C63192   7.415   1.036   5.230 -0.0120 -0.0680 -0.5026
  469MOL0     C63193   7.319   1.162   5.250 -0.5136  0.0731  0.0294
  469MOL0     C63194   7.181   1.125   5.194 -0.6250  0.1533 -0.8606
  469MOL0     C63195   7.070   1.237   5.204 -0.0619 -0.2464  0.2951
  469MOL0     C63196   7.086   1.333   5.315 -0.0777  0.6328  0.2446
  469MOL0     N63197   6.989   1.438   5.316 -0.2083 -1.1363 -0.5547
  469MOL0     C63198   6.852   1.432   5.287 -0.4967 -0.3119  0.4375
  469MOL0     C63199   6.812   1.567   5.306  0.1329  0.9559  0.1517
  469MOL0     C63200   6.679   1.622   5.258 -0.9210 -0.4774  0.5937
  469MOL0     C63201   6.588   1.661   5.369  0.2705 -0.0623 -0.9997
  469MOL0     C63202   6.622   1.800   5.429 -0.4563  0.2354  1.3313
  469MOL0     C63203   6.526   1.822   5.544  0.1203 -0.1976 -0.2963
  469MOL0     O63204   6.549   1.956   5.593  0.5518 -0.1028  0.2312
  469MOL0     C63205   6.442   2.017   5.656  0.4689 -0.4337 -0.1593
  469MOL0     C63206   6.323   2.047   5.589 -1.0025  0.4489 -0.4513
  469MOL0     C63207   6.215   2.118   5.639 -0.0220 -1.1148  0.5912
  469MOL0     C63208   6.116   2.181   5.550  0.0307 -0.7384  0.1033
  469MOL0     C63209   6.222   2.150   5.778 -0.1382 -0.3530  1.0905
  469MOL0     C63210   6.120   2.226   5.836  0.8389 -0.5681  0.5871
  469MOL0     O63211   6.166   2.310   5.934  0.1787  0.9408 -0.5800
  469MOL0     C63212   6.082   2.321   6.050 -0.7439 -0.4765  0.1960
  469MOL0     C63213   6.035   2.208   6.106  0.4439  1.3118  0.2037
  469MOL0     C63214   5.964   2.206   6.224 -0.9248  0.3214 -0.6058
  469MOL0     C63215   5.950   2.322   6.302 -0.0161 -0.1310  0.0748
  469MOL0     O63216   5.882   2.307   6.426 -0.9617  0.6689  0.3991
  469MOL0     C63217   5.891   2.411   6.521  0.2992  0.7199 -0.4149
  469MOL0     C63218   5.800   2.370   6.643  0.1466  0.3029  0.2575
  469MOL0     C63219   5.807   2.481   6.745 -0.7808 -0.0858  0.7196
  469MOL0     C63220   5.950   2.533   6.792  0.2046 -0.1671 -1.2265
  469MOL0     C63221   5.965   2.580   6.934  0.9881 -0.1091 -0.3783
  469MOL0     C63222   5.912   2.469   7.031  0.0425  0.5505  0.4848
  469MOL0     C63223   5.952   2.507   7.169  0.3323  0.0868 -0.6016
  469MOL0     C63224   5.883   2.432   7.288  0.2488  0.4622 -0.0436
  469MOL0    Cl63225   5.709   2.471   7.307 -0.1727 -0.2070 -0.0197
  469MOL0     C63226   6.001   2.436   6.257  0.4143 -0.1396 -0.5504
  469MOL0     C63227   6.073   2.436   6.135  0.6683  0.8912  0.1451
  469MOL0     O63228   5.999   2.193   5.820  0.3053 -0.1447 -0.7958
  469MOL0     C63229   6.336   2.115   5.853 -1.1606  0.9423 -0.5736
  469MOL0     C63230   6.449   2.058   5.789 -0.0789  0.4841 -0.6606
  469MOL0     N63231   6.920   1.640   5.340  0.3872  0.1172 -0.4748
  469MOL0     N63232   7.029   1.568   5.344  0.5928  0.1396  0.3720
  469MOL0     C63233   7.859   0.907   5.685 -0.5384 -0.0623 -0.5434
  469MOL0     C63234   7.963   0.894   5.784  0.6746 -0.3659  0.5581
  469MOL0     C63235   8.356   0.716   5.909  0.1878  1.1573  0.0090
  469MOL0     C63236   8.382   0.591   5.968  0.2550 -0.1686  0.3662
  469MOL0     C63237   8.500   0.567   6.039  0.6626  0.0399  1.1480
  469MOL0     C63238   8.599   0.664   6.058  0.3254 -1.0203  0.6258
  469MOL0     O63239   8.716   0.625   6.127  0.1851 -0.4200 -0.6190
  469MOL0     C63240   8.808   0.720   6.178  0.1678 -0.7581 -0.2119
  469MOL0     C63241   8.765   0.820   6.286 -0.0482 -0.0353  0.2094
  469MOL0     C63242   8.768   0.749   6.417  0.9642 -0.4479 -1.0637
  469MOL0     C63243   8.679   0.816   6.520 -0.1712 -0.5577  0.6472
  469MOL0     C63244   8.704   0.771   6.658 -0.9873 -0.8712 -0.3251
  469MOL0     C63245   8.727   0.730   6.770  0.0516 -0.7313  0.3310
  469MOL0     C63246   8.580   0.788   5.986  0.5509 -0.4098 -1.0101
  469MOL0     C63247   8.460   0.813   5.919 -0.5813  0.2609 -0.5279
  469MOL0     H63248   8.211   0.925   5.557 -0.6881  2.2035 -0.2882
  469MOL0     H63249   8.036   0.951   5.404 -1.3595  1.0610 -0.1925
  469MOL0     H63250   7.845   1.012   5.280  0.0304  0.6613  1.5873
  469MOL0     H63251   7.841   0.836   5.304  0.0661  0.1180 -0.1564
  469MOL0     H63252   7.663   0.875   5.158 -0.8339 -2.5002  1.5633
  469MOL0     H63253   7.583   0.856   5.310 -0.9533 -0.6930 -1.0789
  469MOL0     H63254   7.582   1.120   5.327  0.5140 -0.3881 -0.2468
  469MOL0     H63255   7.595   1.109   5.153 -4.6779  2.6036  0.4782
  469MOL0     H63256   7.390   0.987   5.136 -0.4633  0.1930 -0.5272
  469MOL0     H63257   7.399   0.967   5.313  1.4514  0.5553  0.3426
  469MOL0     H63258   7.306   1.198   5.352 -0.9588 -2.0481  0.7713
  469MOL0     H63259   7.361   1.240   5.186  3.3962 -2.0177 -0.3095
  469MOL0     H63260   7.191   1.101   5.088  1.2224  4.2427 -1.7996
  469MOL0     H63261   7.148   1.033   5.244 -0.0873  1.0813  1.3289
  469MOL0     H63262   7.067   1.305   5.119  0.6832  0.5581  0.8936
  469MOL0     H63263   6.984   1.169   5.211  0.6516 -1.5755 -2.4078
  469MOL0     H63264   7.187   1.375   5.315  1.0136 -1.6760 -2.5737
  469MOL0     H63265   7.068   1.268   5.402  2.2808 -3.7077 -2.1674
  469MOL0     H63266   6.799   1.343   5.255 -1.8968  0.6153  0.0995
  469MOL0     H63267   6.691   1.701   5.183 -2.1223  0.0953  0.9847
  469MOL0     H63268   6.629   1.540   5.205 -2.1002  1.2851 -1.1729
  469MOL0     H63269   6.593   1.578   5.441 -1.7144 -0.3023 -1.0683
  469MOL0     H63270   6.485   1.657   5.331 -0.7302 -0.2836  1.5162
  469MOL0     H63271   6.612   1.887   5.364 -0.8442 -1.5522 -1.1741
  469MOL0     H63272   6.723   1.809   5.469 -0.7373  2.5847  1.6551
  469MOL0     H63273   6.547   1.749   5.622  1.8004 -0.1981 -0.7216
  469MOL0     H63274   6.428   1.811   5.497  0.9362  0.5900 -2.2995
  469MOL0     H63275   6.327   2.029   5.482 -1.2038  3.6972 -1.1039
  469MOL0     H63276   6.111   2.289   5.567 -0.6388 -0.8037  0.3462
  469MOL0     H63277   6.152   2.182   5.447 -0.8121 -3.4633 -0.3097
  469MOL0     H63278   6.015   2.139   5.560 -1.0929  0.6876 -3.5248
  469MOL0     H63279   6.046   2.108   6.063 -3.3743  0.9946 -0.3730
  469MOL0     H63280   5.933   2.118   6.279 -2.8789  1.9006  0.9381
  469MOL0     H63281   5.995   2.419   6.555  0.2287 -2.9830  1.1807
  469MOL0     H63282   5.844   2.506   6.490  0.0099  0.8569  0.4101
  469MOL0     H63283   5.694   2.369   6.613 -0.2880  2.3204  1.5901
  469MOL0     H63284   5.824   2.270   6.681 -2.9670  0.0955  2.0698
  469MOL0     H63285   5.744   2.453   6.830 -0.8565  0.4716  0.8494
  469MOL0     H63286   5.759   2.571   6.706  0.4279 -0.3982 -1.6704
  469MOL0     H63287   6.024   2.452   6.786  1.3602  0.7143  0.4432
  469MOL0     H63288   5.982   2.610   6.722 -0.3290 -1.1301 -2.5715
  469MOL0     H63289   5.901   2.667   6.947 -1.0146 -1.4100 -1.0929
  469MOL0     H63290   6.067   2.611   6.959  0.4179  2.4791 -0.9465
  469MOL0     H63291   5.803   2.464   7.026  0.0683  0.7922 -3.6864
  469MOL0     H63292   5.948   2.373   6.994 -2.1244  0.2773 -1.1143
  469MOL0     H63293   5.931   2.613   7.187 -0.8005 -0.2656  0.2956
  469MOL0     H63294   6.059   2.486   7.180  0.1376 -0.0677  1.3335
  469MOL0     H63295   5.939   2.452   7.379  1.7897 -2.6369 -0.1919
  469MOL0     H63296   5.889   2.324   7.275 -1.3877  0.6066 -2.8556
  469MOL0     H63297   5.995   2.527   6.315  1.0460  0.4869 -1.4415
  469MOL0     H63298   6.126   2.522   6.095  2.4443 -1.8081 -4.0066
  469MOL0     H63299   6.350   2.130   5.960  1.7583  0.4771 -0.8044
  469MOL0     H63300   6.543   2.052   5.843  1.1560  1.7761 -2.5062
  469MOL0     H63301   7.757   0.881   5.711 -1.0270 -0.4594 -2.6789
  469MOL0     H63302   7.951   0.859   5.886  2.5395 -0.9702  0.6020
  469MOL0     H63303   8.313   0.509   5.953  0.7516 -0.4653 -0.3415
  469MOL0     H63304   8.512   0.474   6.093  1.1358 -0.9018 -0.5310
  469MOL0     H63305   8.894   0.666   6.220 -0.4110 -1.9326 -0.5023
  469MOL0     H63306   8.846   0.773   6.090  0.7349 -0.6928  0.0673
  469MOL0     H63307   8.668   0.863   6.260  0.5494  1.6951  0.7180
  469MOL0     H63308   8.839   0.901   6.282 -1.3665  1.1837 -0.0910
  469MOL0     H63309   8.869   0.738   6.457  0.0541 -0.8882  1.2324
  469MOL0     H63310   8.724   0.649   6.409 -0.0486 -0.1762  0.7268
  469MOL0     H63311   8.575   0.800   6.491 -0.0713  2.7003 -2.2108
  469MOL0     H63312   8.701   0.922   6.504 -0.8122 -0.5016  0.0768
  469MOL0     H63313   8.751   0.694   6.868 -1.4113  0.2657  1.0911
  469MOL0     H63314   8.670   0.848   5.995  1.5556 -2.2200  4.1025
  469MOL0     H63315   8.447   0.913   5.879  2.0821  0.9789  0.1818
  470MOL0     O63316   8.705   4.356   4.527  0.2585  0.5533 -0.1309
  470MOL0     C63317   8.695   4.322   4.640  0.8942  0.7766  0.2863
  470MOL0     O63318   8.592   4.250   4.703 -0.3788 -0.0139  0.2069
  470MOL0     C63319   8.472   4.213   4.653  0.1012 -0.0002 -0.3350
  470MOL0     C63320   8.442   4.223   4.516  0.5159 -0.7312 -1.1133
  470MOL0     C63321   8.322   4.187   4.455 -0.1721 -0.5276  0.3187
  470MOL0     C63322   8.222   4.131   4.532 -0.0407 -1.3569 -0.2048
  470MOL0     O63323   8.095   4.090   4.504 -0.6036 -0.0892 -0.0266
  470MOL0     C63324   8.068   4.119   4.364  0.3065  0.9619  0.5167
  470MOL0     C63325   7.934   4.057   4.307  0.0865  0.0425  0.2375
  470MOL0     C63326   7.818   4.145   4.347 -0.3879  0.6394 -0.4643
  470MOL0     C63327   7.699   4.100   4.258  0.3770 -0.0563  0.0461
  470MOL0     C63328   7.560   4.100   4.330  0.0837  0.1830 -0.3600
  470MOL0     C63329   7.522   3.983   4.420 -0.2453  0.4832  0.5201
  470MOL0     C63330   7.385   4.019   4.483 -0.2833  0.0249 -0.0208
  470MOL0     C63331   7.269   4.023   4.388 -0.0371 -0.3178  0.4183
  470MOL0     N63332   7.135   4.050   4.441 -0.5585  0.5133 -0.0418
  470MOL0     C63333   7.016   4.029   4.371 -0.1273 -0.2582 -0.1046
  470MOL0     C63334   6.925   4.089   4.445 -0.4353  0.8729 -0.2360
  470MOL0     C63335   6.777   4.088   4.414 -0.9427  0.8188 -0.7722
  470MOL0     C63336   6.721   4.223   4.448  1.1003 -0.3547  0.4345
  470MOL0     C63337   6.560   4.201   4.462 -0.4029 -0.3907 -0.4303
  470MOL0     C63338   6.494   4.163   4.329 -0.1772 -0.5561  0.2980
  470MOL0     O63339   6.352   4.187   4.340  0.1525  0.1690 -0.1233
  470MOL0     C63340   6.298   4.236   4.221  0.4686  1.3919  0.2979
  470MOL0     C63341   6.333   4.355   4.147  0.1335 -1.1824 -0.4697
  470MOL0     C63342   6.255   4.403   4.039  0.7597 -0.7748 -0.1847
  470MOL0     C63343   6.272   4.546   3.989  0.4243 -0.2250  0.0429
  470MOL0     C63344   6.147   4.318   3.989 -0.4998 -0.0704 -0.4467
  470MOL0     C63345   6.062   4.341   3.867  0.1330 -0.0620 -0.2731
  470MOL0     O63346   5.940   4.283   3.858  0.3823 -0.1247  0.0840
  470MOL0     C63347   5.873   4.274   3.740 -0.4599  0.2891 -0.1879
  470MOL0     C63348   5.742   4.316   3.752  0.0373  0.1960  0.2166
  470MOL0     C63349   5.675   4.314   3.627 -0.1124  0.6180  1.1664
  470MOL0     C63350   5.724   4.249   3.516 -0.6257 -0.1617  0.4574
  470MOL0     O63351   5.627   4.225   3.413 -0.3692 -0.1038  0.6261
  470MOL0     C63352   5.587   4.088   3.408 -0.3636 -0.4828 -0.0807
  470MOL0     C63353   5.519   4.038   3.275 -0.1991 -0.0119  0.1027
  470MOL0     C63354   5.598   4.088   3.152 -0.5244 -0.2639  1.2071
  470MOL0     C63355   5.742   4.020   3.152  0.0235 -0.3604  0.2676
  470MOL0     C63356   5.821   4.055   3.035 -0.5637 -0.3199  0.5075
  470MOL0     C63357   5.948   3.977   3.014  0.5024  0.0523  0.3986
  470MOL0     C63358   6.041   4.022   2.892  0.6607  0.0135  0.2304
  470MOL0     C63359   6.178   3.964   2.903  0.0973  0.4091  0.2060
  470MOL0    Cl63360   6.313   4.087   2.861 -0.1629  0.1676 -0.3022
  470MOL0     C63361   5.853   4.200   3.514  0.3054 -0.6070  0.5891
  470MOL0     C63362   5.930   4.217   3.627 -0.4381  0.2477  0.1272
  470MOL0     O63363   6.119   4.413   3.783  0.0855  0.0462 -0.9203
  470MOL0     C63364   6.117   4.202   4.055 -0.1354  0.0687  0.1002
  470MOL0     C63365   6.184   4.158   4.164 -0.3266  0.0495 -0.5908
  470MOL0     N63366   6.986   4.127   4.566 -0.0078  0.9188 -1.0067
  470MOL0     N63367   7.112   4.117   4.561 -0.9871 -0.0865  0.0914
  470MOL0     C63368   8.247   4.117   4.669 -0.7654 -0.7834  0.5823
  470MOL0     C63369   8.368   4.162   4.731  0.1503  0.5840 -0.2367
  470MOL0     C63370   8.829   4.352   4.710 -0.0065 -1.0793 -0.2785
  470MOL0     C63371   8.847   4.299   4.830 -0.8371 -0.3781 -0.1589
  470MOL0     C63372   8.972   4.318   4.893  0.2320  0.0738  0.0119
  470MOL0     C63373   9.067   4.409   4.840  0.2426 -0.1006 -1.4128
  470MOL0     O63374   9.177   4.423   4.914  0.6548  0.2244  0.3561
  470MOL0     C63375   9.289   4.494   4.851  0.1810 -0.3343 -0.4296
  470MOL0     C63376   9.417   4.463   4.928 -0.0310  0.2548 -0.1515
  470MOL0     C63377   9.529   4.532   4.863  0.2829 -0.7598 -0.0729
  470MOL0     C63378   9.662   4.524   4.928 -0.4769  0.5084  0.2693
  470MOL0     C63379   9.765   4.611   4.864  0.3904 -0.7794  0.7899
  470MOL0     C63380   9.853   4.680   4.812  1.0268  0.2680 -0.2231
  470MOL0     C63381   9.044   4.466   4.716  0.4770 -0.5029 -0.2532
  470MOL0     C63382   8.920   4.446   4.654 -0.3536  0.0587  0.5428
  470MOL0     H63383   8.513   4.266   4.446 -2.0380  2.7677 -1.8021
  470MOL0     H63384   8.292   4.215   4.354 -2.0422  3.0343  1.6651
  470MOL0     H63385   8.069   4.226   4.344  1.7484  0.8191 -0.3037
  470MOL0     H63386   8.146   4.086   4.294  1.7531  0.5431  2.2349
  470MOL0     H63387   7.943   4.046   4.199 -0.3542  0.0194  0.2036
  470MOL0     H63388   7.914   3.959   4.352 -2.2002 -0.0042 -0.7744
  470MOL0     H63389   7.797   4.132   4.453  4.2556 -1.3049  0.4705
  470MOL0     H63390   7.853   4.246   4.323  1.9222  0.1332  0.4852
  470MOL0     H63391   7.697   4.168   4.172  1.4584 -1.9517 -1.5515
  470MOL0     H63392   7.713   3.997   4.224 -0.7089  0.0824 -0.8762
  470MOL0     H63393   7.558   4.197   4.380 -0.7959 -0.0152  0.0243
  470MOL0     H63394   7.482   4.108   4.254 -0.1312  0.8470 -0.0817
  470MOL0     H63395   7.505   3.898   4.354 -2.1700 -0.5010  2.1760
  470MOL0     H63396   7.609   3.966   4.485 -0.3705 -0.6316  0.4095
  470MOL0     H63397   7.363   3.950   4.565  1.2780 -0.0720  0.3359
  470MOL0     H63398   7.401   4.121   4.517 -0.0429  0.3824 -1.1614
  470MOL0     H63399   7.268   3.922   4.346 -0.6111  0.3195 -1.1726
  470MOL0     H63400   7.291   4.086   4.301  2.3614  0.7888  1.7471
  470MOL0     H63401   7.005   3.978   4.276  0.4066 -0.5927  0.0071
  470MOL0     H63402   6.759   4.070   4.308 -2.5180  2.2344 -0.7939
  470MOL0     H63403   6.740   4.016   4.488 -0.7884  3.0941  1.6791
  470MOL0     H63404   6.743   4.298   4.372  1.3684  2.5751  3.1971
  470MOL0     H63405   6.750   4.264   4.545  0.5472 -3.3465  1.9839
  470MOL0     H63406   6.519   4.301   4.478  0.6457  0.2174 -1.3398
  470MOL0     H63407   6.541   4.128   4.541  3.2113 -2.8172 -1.5507
  470MOL0     H63408   6.516   4.057   4.313  2.3125 -0.4861  2.5299
  470MOL0     H63409   6.536   4.212   4.241 -0.7184 -2.8248 -1.3391
  470MOL0     H63410   6.412   4.420   4.185 -0.7262  2.1587 -3.8297
  470MOL0     H63411   6.309   4.541   3.886  2.0991 -1.4326  0.6690
  470MOL0     H63412   6.170   4.586   3.979  1.3145  2.3564  0.6603
  470MOL0     H63413   6.333   4.609   4.054  3.0755 -1.4364 -1.1331
  470MOL0     H63414   5.689   4.369   3.830 -1.4753 -1.0831  0.1123
  470MOL0     H63415   5.576   4.358   3.621 -0.8133 -1.0351 -1.3968
  470MOL0     H63416   5.670   4.021   3.433  0.1331  0.8425  2.0870
  470MOL0     H63417   5.504   4.065   3.475  0.9554 -1.5768  1.2761
  470MOL0     H63418   5.520   3.929   3.273  1.2583 -0.0199 -0.5316
  470MOL0     H63419   5.414   4.067   3.271  0.2086  1.6875  0.6059
  470MOL0     H63420   5.612   4.197   3.157  1.5359 -0.4865  1.4418
  470MOL0     H63421   5.557   4.059   3.056  3.2026  0.3853 -0.7817
  470MOL0     H63422   5.799   4.044   3.242  0.6600 -1.1540  0.0881
  470MOL0     H63423   5.730   3.911   3.161 -0.6667 -0.2123  1.2734
  470MOL0     H63424   5.860   4.155   3.056  1.4503 -0.7234 -0.9601
  470MOL0     H63425   5.767   4.070   2.942  2.0282  1.4382 -0.8254
  470MOL0     H63426   6.009   3.975   3.105  0.6814  0.2203  0.2829
  470MOL0     H63427   5.920   3.874   2.988 -2.9425  0.3242  2.4263
  470MOL0     H63428   6.041   4.132   2.894  2.0686  0.0371  0.0311
  470MOL0     H63429   5.999   3.989   2.797  0.1710 -0.8632  0.7376
  470MOL0     H63430   6.180   3.877   2.836  1.2579  0.0661  0.6518
  470MOL0     H63431   6.203   3.931   3.004 -3.2287 -3.1923  0.0620
  470MOL0     H63432   5.891   4.146   3.427 -1.4433  0.2138 -0.7366
  470MOL0     H63433   6.034   4.191   3.642  0.1360  2.0317 -0.5165
  470MOL0     H63434   6.037   4.142   4.013 -0.7232  3.1269 -3.6837
  470MOL0     H63435   6.165   4.060   4.207  0.0577 -0.5912 -1.8237
  470MOL0     H63436   8.168   4.069   4.726 -0.0126 -1.8291  0.7810
  470MOL0     H63437   8.373   4.151   4.839 -1.2178 -2.2661 -0.3774
  470MOL0     H63438   8.779   4.236   4.886  2.5032 -3.7326  0.5349
  470MOL0     H63439   9.004   4.275   4.988 -0.0983  0.2792  0.2155
  470MOL0     H63440   9.301   4.476   4.744 -0.4792  0.3511 -0.6265
  470MOL0     H63441   9.262   4.600   4.859  4.3022  0.8490 -0.2881
  470MOL0     H63442   9.435   4.355   4.929  0.1000  0.2315  2.5579
  470MOL0     H63443   9.397   4.484   5.034 -0.3650 -2.2079  0.3482
  470MOL0     H63444   9.505   4.638   4.849  1.3250 -0.9248 -4.3124
  470MOL0     H63445   9.538   4.502   4.759  2.0763 -3.3572  0.7144
  470MOL0     H63446   9.698   4.420   4.926  0.4707  0.7993  1.0784
  470MOL0     H63447   9.656   4.548   5.035  2.4032  0.4982  0.5063
  470MOL0     H63448   9.932   4.740   4.772  3.1736 -1.1479  1.6013
  470MOL0     H63449   9.110   4.523   4.652 -0.9463 -2.1726 -3.4215
  470MOL0     H63450   8.907   4.509   4.566  2.6637  1.6976  1.0985
  471MOL0     O63451   5.711   6.251  10.541  0.0581  0.0966 -0.2734
  471MOL0     C63452   5.790   6.164  10.501  0.0846 -0.4470 -0.3581
  471MOL0     O63453   5.775   6.085  10.390  0.0292  0.3554  0.7914
  471MOL0     C63454   5.660   6.074  10.319  0.0569 -0.4313 -0.2723
  471MOL0     C63455   5.655   6.141  10.195  0.1397  1.0775 -0.2802
  471MOL0     C63456   5.547   6.123  10.117  1.0995 -0.7622  0.1661
  471MOL0     C63457   5.439   6.040  10.162 -0.3323 -0.3843  0.3669
  471MOL0     O63458   5.332   6.019  10.080 -0.4022 -0.1144  0.1745
  471MOL0     C63459   5.247   6.137  10.088 -1.1632  0.1785  0.3925
  471MOL0     C63460   5.120   6.112  10.164 -0.7238  0.4440 -0.7963
  471MOL0     C63461   5.034   6.234  10.185 -0.0414 -1.5448  0.5747
  471MOL0     C63462   4.969   6.287  10.051 -0.1395 -0.0215 -0.7064
  471MOL0     C63463   4.849   6.381  10.079 -0.2109 -0.0229  0.2177
  471MOL0     C63464   4.752   6.404   9.953  0.8606 -0.0436 -0.1698
  471MOL0     C63465   4.810   6.491   9.846  0.6621 -0.1969 -0.0539
  471MOL0     C63466   4.714   6.546   9.733 -0.1764  0.5255  0.3240
  471MOL0     N63467   4.598   6.612   9.788  0.1797 -0.2918  0.3452
  471MOL0     C63468   4.601   6.723   9.865 -1.1349 -0.7677  0.2702
  471MOL0     C63469   4.481   6.735   9.925  0.0358  0.0808  0.4312
  471MOL0     C63470   4.461   6.839  10.035  0.3475  0.1249 -0.4371
  471MOL0     C63471   4.390   6.963   9.973  1.0295 -0.6100 -0.3304
  471MOL0     C63472   4.353   7.060  10.083 -0.1775  0.0368  0.7494
  471MOL0     C63473   4.213   7.117  10.042  0.4338 -0.4506  0.3862
  471MOL0     O63474   4.177   7.217  10.136  0.6751 -0.5591  0.5683
  471MOL0     C63475   4.072   7.302  10.107 -0.4472 -0.6532 -0.2253
  471MOL0     C63476   4.070   7.422  10.179  0.3973  0.4535  0.3256
  471MOL0     C63477   3.956   7.510  10.166 -0.5691 -0.1079  0.8364
  471MOL0     C63478   3.960   7.630  10.253  1.0450  0.0370  1.0120
  471MOL0     C63479   3.852   7.482  10.075  0.0778  0.0954 -0.6155
  471MOL0     C63480   3.731   7.558  10.055 -0.3250 -0.9065 -0.3015
  471MOL0     O63481   3.620   7.491  10.019  0.2867  0.7117 -0.1642
  471MOL0     C63482   3.490   7.546  10.015 -0.6002  0.3004 -0.0998
  471MOL0     C63483   3.386   7.455  10.034  0.1100 -0.2712 -0.9072
  471MOL0     C63484   3.253   7.492  10.053 -0.3596 -0.7120  0.5949
  471MOL0     C63485   3.226   7.633  10.031  0.4961  0.4230 -0.3483
  471MOL0     O63486   3.101   7.681  10.055  0.0800  0.1942 -0.3497
  471MOL0     C63487   2.990   7.594  10.062 -0.0630  0.6036 -0.9113
  471MOL0     C63488   2.856   7.654  10.076  0.6509  0.1973  0.4886
  471MOL0     C63489   2.819   7.730   9.944  0.2983  0.1624 -0.5393
  471MOL0     C63490   2.682   7.791   9.967  0.2167  0.1827  0.7094
  471MOL0     C63491   2.683   7.915   9.884  0.3742 -0.3290  0.9334
  471MOL0     C63492   2.544   7.976   9.876  0.6625  0.2271 -0.3318
  471MOL0     C63493   2.553   8.098   9.784  0.1776 -0.9228  0.2397
  471MOL0     C63494   2.422   8.176   9.810  0.4551 -0.3804  0.4914
  471MOL0    Cl63495   2.390   8.236   9.985 -0.3506 -0.3011  0.3479
  471MOL0     C63496   3.328   7.721  10.005  0.0763  0.5918  0.0447
  471MOL0     C63497   3.460   7.676   9.992  0.3610  0.2154 -0.2625
  471MOL0     O63498   3.745   7.681  10.076  0.4366 -0.4744  0.6559
  471MOL0     C63499   3.873   7.365   9.995  0.3215  0.5034  0.0792
  471MOL0     C63500   3.969   7.277  10.011 -0.8385  0.2249 -0.3087
  471MOL0     N63501   4.393   6.633   9.875 -1.1139 -0.4078 -0.8605
  471MOL0     N63502   4.476   6.556   9.809 -0.0805 -0.7971 -0.7149
  471MOL0     C63503   5.442   5.989  10.290 -0.1737  0.5406 -0.3216
  471MOL0     C63504   5.562   5.994  10.368  0.2668 -0.0720  0.4458
  471MOL0     C63505   5.916   6.149  10.579  0.2736 -0.3838 -0.0944
  471MOL0     C63506   5.909   6.157  10.719 -0.0207 -0.3704 -0.3433
  471MOL0     C63507   6.020   6.149  10.793 -0.5206  0.0751 -0.0681
  471MOL0     C63508   6.147   6.137  10.742  0.1203  1.1814 -0.5675
  471MOL0     O63509   6.262   6.135  10.812  0.0340  0.4478  0.1665
  471MOL0     C63510   6.257   6.162  10.952 -0.4443  0.5495  0.1255
  471MOL0     C63511   6.234   6.033  11.031  0.3470  0.1132 -0.0113
  471MOL0     C63512   6.299   6.031  11.175 -0.1270 -0.3386 -0.0973
  471MOL0     C63513   6.273   5.895  11.246 -0.6046  0.4236  0.6203
  471MOL0     C63514   6.147   5.896  11.315 -0.3286  0.4121 -0.4466
  471MOL0     C63515   6.037   5.898  11.371 -0.3076  0.2235  0.6303
  471MOL0     C63516   6.156   6.126  10.604  0.6183  0.6062  0.8773
  471MOL0     C63517   6.046   6.132  10.522  0.0760 -0.8936 -0.0439
  471MOL0     H63518   5.738   6.204  10.166  0.6069  1.5953  2.0333
  471MOL0     H63519   5.519   6.186  10.032 -1.3759 -1.4933  0.3449
  471MOL0     H63520   5.286   6.230  10.129 -0.5060  0.6135 -1.1583
  471MOL0     H63521   5.227   6.168   9.985 -0.0339  1.9284  0.6739
  471MOL0     H63522   5.072   6.025  10.117  0.0854  0.7184 -2.2052
  471MOL0     H63523   5.161   6.074  10.258  2.9633  0.9675 -1.9989
  471MOL0     H63524   4.956   6.221  10.261 -1.6720 -2.4611 -1.1982
  471MOL0     H63525   5.097   6.306  10.238  1.9659 -2.6844 -0.1267
  471MOL0     H63526   5.048   6.337   9.993 -1.5326  2.7393 -0.3727
  471MOL0     H63527   4.943   6.204   9.985 -2.3211  0.1483 -0.1400
  471MOL0     H63528   4.785   6.347  10.161 -1.0737  0.7770 -0.1154
  471MOL0     H63529   4.874   6.483  10.112  1.2493  0.1709 -1.3521
  471MOL0     H63530   4.725   6.310   9.904  0.3603  0.5745 -1.1196
  471MOL0     H63531   4.656   6.446   9.986  0.5688 -0.2558 -0.7224
  471MOL0     H63532   4.861   6.576   9.892 -0.1883  0.3320 -0.0687
  471MOL0     H63533   4.882   6.429   9.791 -1.7440 -0.9371 -2.6369
  471MOL0     H63534   4.688   6.466   9.663  0.5762 -0.4125  1.0728
  471MOL0     H63535   4.768   6.622   9.675  1.0497  0.9621  1.9399
  471MOL0     H63536   4.685   6.791   9.872  0.4423 -2.6388  0.5547
  471MOL0     H63537   4.403   6.793  10.115  1.7976 -1.5353 -0.2971
  471MOL0     H63538   4.554   6.860  10.087  1.7840 -3.1682 -1.4527
  471MOL0     H63539   4.297   6.929   9.925  0.8562  1.3238 -1.4792
  471MOL0     H63540   4.449   7.009   9.893  1.1123 -0.3819 -0.1353
  471MOL0     H63541   4.430   7.137  10.084 -0.7961  0.6722  1.9040
  471MOL0     H63542   4.360   7.009  10.180 -0.0262 -1.4929 -0.0344
  471MOL0     H63543   4.130   7.046  10.052 -1.8993  1.7935 -1.7600
  471MOL0     H63544   4.215   7.161   9.942 -0.2539  1.8234  1.3027
  471MOL0     H63545   4.159   7.443  10.236  1.4067 -4.8340  1.1790
  471MOL0     H63546   3.876   7.625  10.323 -1.3325 -1.3221 -1.7682
  471MOL0     H63547   4.045   7.625  10.323 -0.9643 -2.5264  3.5098
  471MOL0     H63548   3.954   7.727  10.204  0.7260  1.3663  3.4870
  471MOL0     H63549   3.417   7.351  10.028  1.5642  0.1999 -2.1589
  471MOL0     H63550   3.182   7.410  10.052  0.2683 -1.4128  3.5646
  471MOL0     H63551   2.995   7.530   9.974 -0.2450  1.0914 -1.2789
  471MOL0     H63552   3.008   7.531  10.150 -2.9942  0.1986 -0.5061
  471MOL0     H63553   2.790   7.568  10.092 -0.5242  0.7804 -0.9938
  471MOL0     H63554   2.861   7.725  10.159 -0.9863  0.4834  0.3732
  471MOL0     H63555   2.813   7.659   9.861 -0.3066 -1.0756  0.5147
  471MOL0     H63556   2.886   7.809   9.911 -2.0974  1.4889 -2.5675
  471MOL0     H63557   2.613   7.711   9.939  0.1749  0.2809  0.5300
  471MOL0     H63558   2.653   7.823  10.068 -0.2943 -0.8287  0.8938
  471MOL0     H63559   2.716   7.895   9.781 -0.7617 -0.4167  0.5780
  471MOL0     H63560   2.750   7.993   9.921 -0.3491  1.2191 -0.8550
  471MOL0     H63561   2.468   7.905   9.841 -1.5181  2.2051  0.1365
  471MOL0     H63562   2.522   8.006   9.979  0.7769 -1.5924  0.2660
  471MOL0     H63563   2.556   8.065   9.680  0.0293 -1.3432  0.3707
  471MOL0     H63564   2.630   8.174   9.801 -0.7308 -0.4722  2.8422
  471MOL0     H63565   2.337   8.120   9.771 -0.3825  1.3764 -0.3564
  471MOL0     H63566   2.432   8.267   9.749 -0.6442 -0.5276  0.0593
  471MOL0     H63567   3.310   7.826   9.984  1.4136  1.0781  1.1935
  471MOL0     H63568   3.528   7.758   9.972  1.2850  0.0135  1.8202
  471MOL0     H63569   3.800   7.327   9.924  0.6601 -1.0897  0.5443
  471MOL0     H63570   3.983   7.187   9.952  0.3335 -1.0516  1.7893
  471MOL0     H63571   5.359   5.937  10.336 -1.5850  1.2632 -1.9802
  471MOL0     H63572   5.576   5.935  10.458  3.5640  0.3718  0.3520
  471MOL0     H63573   5.820   6.171  10.778  0.3271 -2.7504  0.8432
  471MOL0     H63574   6.006   6.163  10.899 -0.7964  0.1971 -0.1205
  471MOL0     H63575   6.360   6.198  10.965 -0.2267  0.7024 -1.7117
  471MOL0     H63576   6.194   6.250  10.966 -0.0438  0.8960 -0.1940
  471MOL0     H63577   6.290   5.951  10.987  0.0384 -0.6802  1.0265
  471MOL0     H63578   6.131   5.997  11.038  0.4028  0.2560  3.0950
  471MOL0     H63579   6.272   6.118  11.236  0.7458  0.2046 -0.4628
  471MOL0     H63580   6.407   6.042  11.163  0.1773  0.0548  2.3851
  471MOL0     H63581   6.352   5.877  11.319  2.5952 -0.4173 -2.7602
  471MOL0     H63582   6.288   5.812  11.177  1.6582 -0.1425  1.7035
  471MOL0     H63583   5.936   5.899  11.407  0.4015  1.2318  2.7657
  471MOL0     H63584   6.248   6.122  10.546 -1.0861 -4.9503 -2.1058
  471MOL0     H63585   6.043   6.137  10.413  0.5028  0.4974 -0.0050
  472MOL0     O63586   2.323   3.899   2.367 -0.3625 -0.0621  0.5790
  472MOL0     C63587   2.370   3.870   2.254  0.1227 -0.5745 -0.1924
  472MOL0     O63588   2.291   3.828   2.153  0.1145  0.4466 -0.7635
  472MOL0     C63589   2.158   3.791   2.177  0.4714 -0.0798  0.3001
  472MOL0     C63590   2.119   3.703   2.279 -1.1118  0.1698  0.1053
  472MOL0     C63591   1.984   3.671   2.292  0.6941  0.0274 -0.2764
  472MOL0     C63592   1.885   3.704   2.191 -0.1509  0.1798  0.6226
  472MOL0     O63593   1.750   3.666   2.205 -0.2258  0.5468 -0.1783
  472MOL0     C63594   1.721   3.533   2.242 -0.1747 -0.4881  0.1323
  472MOL0     C63595   1.597   3.486   2.171 -0.3755  1.3297  0.0964
  472MOL0     C63596   1.543   3.369   2.253  1.0506  0.4182  1.4338
  472MOL0     C63597   1.432   3.284   2.175 -0.7219  0.1098 -0.4047
  472MOL0     C63598   1.374   3.180   2.273 -0.4986 -0.5638 -0.2764
  472MOL0     C63599   1.282   3.090   2.198 -0.1039 -0.4912  0.0004
  472MOL0     C63600   1.207   3.000   2.304 -0.6015 -0.0933 -0.4306
  472MOL0     C63601   1.111   2.902   2.238 -0.5607  0.0886  0.2775
  472MOL0     N63602   1.037   2.812   2.328 -0.0084 -0.0353 -0.0131
  472MOL0     C63603   0.921   2.842   2.386 -0.2729 -0.2243 -0.0976
  472MOL0     C63604   0.884   2.719   2.441  0.1269 -0.6817 -0.1435
  472MOL0     C63605   0.774   2.699   2.547 -0.6349 -0.5379 -0.4545
  472MOL0     C63606   0.833   2.714   2.684  0.0365  1.0941  0.1536
  472MOL0     C63607   0.854   2.580   2.755 -0.4977  0.1614 -0.2998
  472MOL0     C63608   0.729   2.517   2.799  0.5579 -0.8163 -1.1729
  472MOL0     O63609   0.672   2.595   2.907 -0.5063 -0.1507  0.4616
  472MOL0     C63610   0.542   2.639   2.889  0.6517 -0.1999 -0.4024
  472MOL0     C63611   0.518   2.776   2.911  0.2718  0.0383  0.1672
  472MOL0     C63612   0.386   2.835   2.901 -0.9601  0.6938  0.6197
  472MOL0     C63613   0.370   2.982   2.933  0.3368  0.2039  0.0545
  472MOL0     C63614   0.286   2.744   2.868 -0.6123 -0.4543  0.8177
  472MOL0     C63615   0.154   2.786   2.854 -0.2785 -0.3906 -0.1368
  472MOL0     O63616   0.090   2.766   2.738  0.5624 -0.1046 -0.4772
  472MOL0     C63617  -0.045   2.778   2.738 -0.3116  0.6286 -0.4531
  472MOL0     C63618  -0.110   2.657   2.721 -0.7441  0.6576  0.5731
  472MOL0     C63619  -0.251   2.647   2.713  0.2255 -0.5224 -0.1576
  472MOL0     C63620  -0.337   2.761   2.725  0.3105 -0.2785 -0.1874
  472MOL0     O63621  -0.470   2.746   2.741 -0.0655 -0.0375  0.2130
  472MOL0     C63622  -0.534   2.640   2.676  0.3450 -0.8102 -0.5873
  472MOL0     C63623  -0.685   2.672   2.654  0.0088 -0.4440 -0.2670
  472MOL0     C63624  -0.751   2.680   2.794  0.7789  0.0622  0.0834
  472MOL0     C63625  -0.904   2.679   2.786 -1.0039  0.7476  0.2421
  472MOL0     C63626  -0.949   2.827   2.779 -0.3246  0.7515  0.7782
  472MOL0     C63627  -1.091   2.838   2.731 -0.0812 -1.0783 -0.8547
  472MOL0     C63628  -1.135   2.979   2.723  0.5897 -0.3669 -0.2863
  472MOL0     C63629  -1.110   3.052   2.858  0.1431  0.2726 -0.8454
  472MOL0    Cl63630  -1.171   3.216   2.850 -0.2345  0.1632 -0.3404
  472MOL0     C63631  -0.271   2.881   2.741  0.2818 -0.5279 -0.3515
  472MOL0     C63632  -0.127   2.891   2.751  0.9125  0.6583  0.1426
  472MOL0     O63633   0.105   2.832   2.961 -0.2360 -0.4054 -0.3318
  472MOL0     C63634   0.310   2.611   2.855 -0.2645 -0.0379 -0.1204
  472MOL0     C63635   0.439   2.559   2.859 -0.4259  1.6111 -0.7712
  472MOL0     N63636   0.975   2.626   2.406  0.3995  0.0760  0.0771
  472MOL0     N63637   1.073   2.688   2.349  0.0120  0.5235 -0.2349
  472MOL0     C63638   1.929   3.779   2.084 -0.6605 -0.3839  0.5073
  472MOL0     C63639   2.067   3.821   2.073 -0.8771  0.0626 -0.2188
  472MOL0     C63640   2.516   3.893   2.217  0.4831  0.3199 -0.3810
  472MOL0     C63641   2.558   3.913   2.087  0.1158  0.0108  0.6108
  472MOL0     C63642   2.689   3.933   2.053 -1.1234 -0.7767  0.0177
  472MOL0     C63643   2.788   3.930   2.158  0.3377  0.1301  0.1927
  472MOL0     O63644   2.918   3.957   2.137 -0.6125 -0.5820  0.0879
  472MOL0     C63645   2.955   4.065   2.046  0.1236  0.4466  0.5042
  472MOL0     C63646   3.040   4.171   2.110 -0.3467  0.1369 -0.6372
  472MOL0     C63647   3.094   4.277   2.006 -0.4983 -0.7346  0.4151
  472MOL0     C63648   3.193   4.387   2.069  1.0857 -0.2452  0.2459
  472MOL0     C63649   3.120   4.458   2.177 -0.2922  0.4183  0.7082
  472MOL0     C63650   3.074   4.531   2.265 -0.0673 -1.1920  0.1135
  472MOL0     C63651   2.752   3.900   2.290 -0.0894  0.2852  0.3095
  472MOL0     C63652   2.619   3.893   2.319 -0.0129  0.1721 -0.0389
  472MOL0     H63653   2.192   3.661   2.348 -2.0197 -1.3855  0.1533
  472MOL0     H63654   1.965   3.615   2.383  1.4875 -4.2629 -2.4969
  472MOL0     H63655   1.798   3.459   2.220 -0.9853 -2.4140  3.1602
  472MOL0     H63656   1.703   3.519   2.349 -2.4300 -3.4720 -0.5081
  472MOL0     H63657   1.532   3.573   2.172 -1.5008  0.5124  0.1666
  472MOL0     H63658   1.625   3.463   2.068  1.9267 -1.8037  1.2410
  472MOL0     H63659   1.617   3.295   2.284  0.3859 -0.6616  0.5257
  472MOL0     H63660   1.498   3.405   2.346 -0.4228 -2.1485  1.8133
  472MOL0     H63661   1.363   3.361   2.138  0.9518  1.3997 -0.9587
  472MOL0     H63662   1.468   3.233   2.086 -1.1244 -2.0377  0.5906
  472MOL0     H63663   1.452   3.117   2.317  0.9626  1.2312 -0.1748
  472MOL0     H63664   1.328   3.246   2.347 -1.6654  1.0581 -2.3195
  472MOL0     H63665   1.201   3.147   2.153  0.6391  0.9117  0.3663
  472MOL0     H63666   1.348   3.035   2.130 -0.6845 -1.6956  0.3876
  472MOL0     H63667   1.273   2.944   2.371  0.1314  1.3054  0.0599
  472MOL0     H63668   1.146   3.065   2.367 -1.9656 -2.1621  0.4940
  472MOL0     H63669   1.175   2.841   2.175 -0.0036 -1.5924  2.3328
  472MOL0     H63670   1.041   2.965   2.181 -0.8241 -0.3638  0.0957
  472MOL0     H63671   0.882   2.940   2.412 -0.1090 -0.2958  0.4164
  472MOL0     H63672   0.705   2.783   2.534  1.3412  1.7431  2.4885
  472MOL0     H63673   0.738   2.597   2.532 -0.9163 -0.5062 -0.0129
  472MOL0     H63674   0.767   2.779   2.741 -1.5139  0.9653 -1.4129
  472MOL0     H63675   0.931   2.764   2.679  0.9113 -0.6554 -1.7390
  472MOL0     H63676   0.921   2.591   2.841 -0.1661  2.7689 -0.8125
  472MOL0     H63677   0.905   2.507   2.691  1.9068 -0.2555  1.9029
  472MOL0     H63678   0.739   2.415   2.839 -1.6979 -0.1965  1.3078
  472MOL0     H63679   0.661   2.506   2.715 -0.3394 -1.6767 -0.3610
  472MOL0     H63680   0.601   2.843   2.933 -0.6602  0.8858  1.1698
  472MOL0     H63681   0.284   3.031   2.887  0.8568  0.0181 -1.1468
  472MOL0     H63682   0.344   3.000   3.038  1.5154 -0.4363  0.4737
  472MOL0     H63683   0.463   3.037   2.918  0.0380  1.0499  1.1489
  472MOL0     H63684  -0.047   2.568   2.717  0.3032  1.4168 -2.0749
  472MOL0     H63685  -0.303   2.552   2.700 -2.1109  0.9543 -2.4536
  472MOL0     H63686  -0.493   2.634   2.575  1.2602  1.7191 -0.4505
  472MOL0     H63687  -0.519   2.545   2.727  2.5658  0.8943  2.2218
  472MOL0     H63688  -0.703   2.761   2.593 -0.3599 -1.5936 -1.9038
  472MOL0     H63689  -0.729   2.597   2.588  0.8784  0.9398 -2.5506
  472MOL0     H63690  -0.713   2.765   2.852  0.4465  0.5027 -0.3384
  472MOL0     H63691  -0.717   2.597   2.857 -0.3449  0.0229  0.6781
  472MOL0     H63692  -0.941   2.630   2.695  0.0612  1.3160 -0.5157
  472MOL0     H63693  -0.948   2.620   2.867 -2.1397 -1.1743 -1.6493
  472MOL0     H63694  -0.887   2.881   2.706 -2.4317  0.0201 -1.7394
  472MOL0     H63695  -0.923   2.879   2.871 -2.8008  0.5855  1.6444
  472MOL0     H63696  -1.098   2.803   2.628  1.4435 -1.6933 -0.7753
  472MOL0     H63697  -1.166   2.787   2.792 -0.0437 -0.8947 -0.6518
  472MOL0     H63698  -1.231   2.995   2.673  2.2943  0.9601 -3.4134
  472MOL0     H63699  -1.072   3.030   2.649  0.3266  0.8387  0.2889
  472MOL0     H63700  -1.002   3.058   2.878  0.1508 -1.8607  0.0814
  472MOL0     H63701  -1.162   2.995   2.936  1.0686  0.6591  0.0882
  472MOL0     H63702  -0.339   2.964   2.754  2.4551  1.2476  0.3023
  472MOL0     H63703  -0.087   2.991   2.764  0.6180  0.8501 -0.3905
  472MOL0     H63704   0.229   2.543   2.828  1.2850 -1.8406 -0.4446
  472MOL0     H63705   0.447   2.452   2.838 -0.9387  0.9935  1.7770
  472MOL0     H63706   1.850   3.795   2.012  1.6337  3.0437 -1.5509
  472MOL0     H63707   2.099   3.880   1.987 -0.7613  2.3100  1.2889
  472MOL0     H63708   2.485   3.919   2.007 -0.3298 -0.3892  0.9753
  472MOL0     H63709   2.713   3.943   1.948 -1.8297  0.5224 -0.0311
  472MOL0     H63710   2.995   4.018   1.956 -0.4523  2.0052 -0.6184
  472MOL0     H63711   2.866   4.113   2.004  1.6405  0.8351 -2.5457
  472MOL0     H63712   3.125   4.123   2.159 -0.2398  1.9616  1.1003
  472MOL0     H63713   2.990   4.220   2.193 -1.1974  0.5977 -1.4020
  472MOL0     H63714   3.006   4.328   1.965 -1.6266 -1.9278  1.2687
  472MOL0     H63715   3.149   4.221   1.930  0.3418 -1.5242  1.5738
  472MOL0     H63716   3.226   4.467   2.002  1.6393  0.0014  0.8018
  472MOL0     H63717   3.284   4.339   2.104  1.5380  0.1072 -0.4236
  472MOL0     H63718   3.038   4.613   2.323  0.7901  0.2290 -1.2922
  472MOL0     H63719   2.821   3.891   2.373  2.9589  0.8434 -1.9560
  472MOL0     H63720   2.592   3.887   2.424  2.4633 -0.7379  0.6042
  473MOL0     O63721   5.757   4.508   7.251  0.1120  0.0053  0.1362
  473MOL0     C63722   5.720   4.601   7.180  0.1736 -0.0626 -0.0239
  473MOL0     O63723   5.793   4.655   7.070 -0.1337  0.7330  0.6199
  473MOL0     C63724   5.925   4.630   7.052  0.1070  1.1583 -0.2001
  473MOL0     C63725   6.024   4.658   7.149 -0.0186  0.3593  0.2503
  473MOL0     C63726   6.161   4.635   7.134 -0.7297  0.7400 -0.2377
  473MOL0     C63727   6.208   4.587   7.008  0.5735 -0.1511 -0.3034
  473MOL0     O63728   6.342   4.575   6.984 -0.5399 -0.2022  0.1552
  473MOL0     C63729   6.436   4.545   7.098  0.4160 -0.1872 -0.0659
  473MOL0     C63730   6.557   4.456   7.063 -0.0892 -0.6225  0.2138
  473MOL0     C63731   6.683   4.551   7.030  0.6529  0.0691 -0.0537
  473MOL0     C63732   6.798   4.485   6.954 -0.4720 -0.3055  0.6279
  473MOL0     C63733   6.892   4.587   6.884 -0.2166  0.0488  0.4190
  473MOL0     C63734   6.955   4.687   6.982  0.2533 -0.6522 -0.3591
  473MOL0     C63735   7.027   4.797   6.914 -0.3806 -0.2335  0.0240
  473MOL0     C63736   7.180   4.775   6.928  0.5116  0.2763  0.1713
  473MOL0     N63737   7.265   4.885   6.891 -0.6381 -0.3356  0.6876
  473MOL0     C63738   7.278   4.923   6.763 -1.2684 -0.0341  0.5444
  473MOL0     C63739   7.372   5.020   6.769 -0.4779 -0.9253 -0.0705
  473MOL0     C63740   7.451   5.079   6.653 -0.6410 -0.5165 -0.2734
  473MOL0     C63741   7.346   5.158   6.577 -0.8464 -0.5847  0.7800
  473MOL0     C63742   7.400   5.257   6.467  0.2512 -0.2013 -0.2007
  473MOL0     C63743   7.294   5.351   6.407 -0.3980 -0.1329 -0.7274
  473MOL0     O63744   7.187   5.273   6.348 -0.7080  0.0434 -0.1971
  473MOL0     C63745   7.078   5.330   6.289 -0.9801 -0.4568 -0.4967
  473MOL0     C63746   7.040   5.462   6.278 -0.2882  1.0265 -0.1651
  473MOL0     C63747   6.922   5.503   6.215 -0.6961  0.9230  0.9722
  473MOL0     C63748   6.877   5.650   6.219  0.0729  0.1085 -0.2115
  473MOL0     C63749   6.832   5.412   6.151  0.0520  0.1411  0.1741
  473MOL0     C63750   6.705   5.439   6.074  0.5802  0.3569 -0.0225
  473MOL0     O63751   6.629   5.328   6.058  0.9830 -0.2373  0.8989
  473MOL0     C63752   6.499   5.313   6.018  0.5057 -0.3436 -0.6586
  473MOL0     C63753   6.452   5.185   6.007  0.1133  1.0734  0.0838
  473MOL0     C63754   6.324   5.157   5.982  1.0157  0.6047 -0.2838
  473MOL0     C63755   6.230   5.262   5.965 -0.5885 -0.6429 -0.0623
  473MOL0     O63756   6.103   5.216   5.950  0.1271  0.6433  0.1418
  473MOL0     C63757   6.001   5.317   5.917  0.5195 -0.0941 -0.3522
  473MOL0     C63758   5.869   5.250   5.877 -0.6412  0.2383 -0.1919
  473MOL0     C63759   5.760   5.356   5.839  0.4406 -0.9548  0.2228
  473MOL0     C63760   5.618   5.286   5.826  0.6270  0.5417  0.4652
  473MOL0     C63761   5.538   5.304   5.957  0.1609  0.5347 -0.4449
  473MOL0     C63762   5.391   5.257   5.959  0.8851  0.2514  1.1919
  473MOL0     C63763   5.390   5.100   5.949  0.0530 -0.0098  0.1657
  473MOL0     C63764   5.406   5.023   6.086  0.1158  0.3434 -0.3766
  473MOL0    Cl63765   5.399   4.841   6.045  0.3853 -0.5670  0.4397
  473MOL0     C63766   6.269   5.395   5.961 -0.0657 -0.4966 -0.6212
  473MOL0     C63767   6.404   5.419   5.997 -0.1004  0.1647 -0.8073
  473MOL0     O63768   6.674   5.551   6.023 -0.4594  0.0946  0.6053
  473MOL0     C63769   6.884   5.279   6.149 -0.2433 -0.0240  0.6697
  473MOL0     C63770   7.005   5.242   6.208  0.2165 -0.5187  0.2214
  473MOL0     N63771   7.402   5.052   6.906  0.0498  0.4441 -0.0893
  473MOL0     N63772   7.338   4.964   6.975 -0.4208 -0.3949 -0.6236
  473MOL0     C63773   6.111   4.558   6.912  0.0638 -0.2108  0.7645
  473MOL0     C63774   5.977   4.571   6.935 -0.5862 -0.2251 -0.3076
  473MOL0     C63775   5.580   4.640   7.197  0.4977 -0.1701  0.4211
  473MOL0     C63776   5.526   4.741   7.113  1.0803 -0.7764  0.5486
  473MOL0     C63777   5.393   4.789   7.132  0.7716  0.1109 -0.1455
  473MOL0     C63778   5.308   4.737   7.234  0.3632 -0.0285 -0.6748
  473MOL0     O63779   5.185   4.794   7.255  0.1813  0.3786  0.1076
  473MOL0     C63780   5.093   4.800   7.146 -0.0930  0.5307 -0.2450
  473MOL0     C63781   4.956   4.754   7.197 -0.0880  0.0920  0.8282
  473MOL0     C63782   4.897   4.862   7.300 -0.6277  0.1522  0.5908
  473MOL0     C63783   4.743   4.863   7.265 -0.8389 -0.5310 -0.2267
  473MOL0     C63784   4.692   4.743   7.326 -0.0124 -0.5696  0.5485
  473MOL0     C63785   4.644   4.639   7.377 -0.3356 -0.5472  0.2605
  473MOL0     C63786   5.351   4.623   7.306 -0.8505 -0.2678  0.6900
  473MOL0     C63787   5.487   4.578   7.287  0.8277 -0.3848 -0.6343
  473MOL0     H63788   5.986   4.716   7.233  0.3100  1.0251 -0.0484
  473MOL0     H63789   6.232   4.657   7.214 -0.0839 -2.1883  0.1119
  473MOL0     H63790   6.459   4.638   7.151  1.4469 -0.7162  0.4392
  473MOL0     H63791   6.380   4.495   7.177 -0.1925  1.7984  0.8092
  473MOL0     H63792   6.568   4.391   7.150  0.9724  1.3630  1.6469
  473MOL0     H63793   6.544   4.393   6.974 -1.0836 -2.1483  1.3865
  473MOL0     H63794   6.646   4.632   6.967  0.8936  0.2661  0.0588
  473MOL0     H63795   6.714   4.590   7.127 -1.9259 -0.3798  1.0393
  473MOL0     H63796   6.852   4.417   7.021  3.4572  2.6131  0.7296
  473MOL0     H63797   6.759   4.422   6.873 -2.4418 -1.3353  2.2940
  473MOL0     H63798   6.968   4.522   6.839 -0.5799  1.2097 -2.0179
  473MOL0     H63799   6.838   4.626   6.798  0.8398 -1.8015 -1.1789
  473MOL0     H63800   6.867   4.729   7.031  0.0140  1.1848 -2.2179
  473MOL0     H63801   7.007   4.637   7.064  1.2977 -1.6452 -1.5862
  473MOL0     H63802   7.007   4.818   6.808  0.4165 -2.2159 -0.5537
  473MOL0     H63803   7.005   4.891   6.966 -1.3181 -0.9538  0.9528
  473MOL0     H63804   7.205   4.693   6.859 -0.5233 -0.1851  0.3368
  473MOL0     H63805   7.201   4.745   7.031  2.8998 -0.0694 -0.3425
  473MOL0     H63806   7.229   4.878   6.677  3.8423  0.1487 -2.9647
  473MOL0     H63807   7.532   5.146   6.682 -0.8466 -0.8458  1.1221
  473MOL0     H63808   7.491   4.995   6.595 -1.2963 -1.3202  0.4085
  473MOL0     H63809   7.295   5.215   6.655 -1.6501 -2.8423  1.9905
  473MOL0     H63810   7.274   5.089   6.532  0.8301  0.0021 -3.3444
  473MOL0     H63811   7.455   5.208   6.386  4.5365  0.4859  1.9757
  473MOL0     H63812   7.487   5.298   6.519  1.1168 -0.6341 -1.2799
  473MOL0     H63813   7.325   5.412   6.322 -1.5332  1.7750  0.1396
  473MOL0     H63814   7.254   5.414   6.487 -0.4404 -1.8839  0.7011
  473MOL0     H63815   7.102   5.535   6.329  1.9708 -1.3019  0.6151
  473MOL0     H63816   6.884   5.701   6.123  0.4917  2.7293  1.0916
  473MOL0     H63817   6.772   5.658   6.247 -0.0164 -5.0229  1.9747
  473MOL0     H63818   6.941   5.703   6.291  1.2939  0.6570 -1.6463
  473MOL0     H63819   6.534   5.118   6.028  1.0284  2.7180  2.1525
  473MOL0     H63820   6.306   5.051   5.973  4.4532 -0.0433 -0.8094
  473MOL0     H63821   5.987   5.379   6.006  0.1979  0.3541 -0.7077
  473MOL0     H63822   6.040   5.367   5.827  3.1137 -0.2684  0.5777
  473MOL0     H63823   5.902   5.179   5.800  0.8614  3.2476 -2.5602
  473MOL0     H63824   5.843   5.189   5.964 -0.0385  0.5775  0.2280
  473MOL0     H63825   5.786   5.421   5.755  1.4540  0.9707  1.9262
  473MOL0     H63826   5.758   5.428   5.921  2.0444  0.9855 -1.3237
  473MOL0     H63827   5.566   5.333   5.741  0.2558 -1.6698 -0.6075
  473MOL0     H63828   5.634   5.184   5.789 -1.5316  1.5529 -4.0454
  473MOL0     H63829   5.534   5.412   5.975 -0.4661  0.2845  1.0615
  473MOL0     H63830   5.604   5.253   6.026  2.5727  1.0108 -2.2767
  473MOL0     H63831   5.338   5.293   6.047  0.9053 -0.5871  1.5579
  473MOL0     H63832   5.339   5.297   5.872 -1.8982 -2.1548  1.6064
  473MOL0     H63833   5.464   5.071   5.874 -0.4284  0.8947 -0.6882
  473MOL0     H63834   5.296   5.064   5.905 -0.1532  0.6293  0.0709
  473MOL0     H63835   5.342   5.044   6.172  4.0918  0.2021  2.8762
  473MOL0     H63836   5.509   5.032   6.122  0.0960  2.1132 -0.6419
  473MOL0     H63837   6.197   5.476   5.965 -0.2137 -0.6693  2.1402
  473MOL0     H63838   6.418   5.525   6.018  1.6582 -0.1188 -0.3816
  473MOL0     H63839   6.834   5.200   6.094  1.1391 -0.9060  0.6454
  473MOL0     H63840   7.035   5.138   6.214 -0.7612 -0.7440  3.2917
  473MOL0     H63841   6.132   4.521   6.813 -0.0190 -1.4515  1.2024
  473MOL0     H63842   5.911   4.552   6.851 -0.9410 -0.3975  0.0052
  473MOL0     H63843   5.586   4.780   7.031  0.2271 -0.4664  0.0613
  473MOL0     H63844   5.356   4.863   7.062 -0.3929 -0.9658 -0.7134
  473MOL0     H63845   5.083   4.903   7.110 -2.0068  1.5636  2.8330
  473MOL0     H63846   5.115   4.733   7.062 -1.6897 -3.5093  2.2697
  473MOL0     H63847   4.964   4.654   7.241  1.2088  0.0241  0.4813
  473MOL0     H63848   4.900   4.728   7.107  1.0175 -0.7118  0.3435
  473MOL0     H63849   4.944   4.960   7.298 -0.1339 -0.0397  1.9360
  473MOL0     H63850   4.913   4.820   7.400 -0.6135 -3.2868 -0.7047
  473MOL0     H63851   4.715   4.864   7.159  0.0426  1.0862 -0.4787
  473MOL0     H63852   4.688   4.945   7.312 -3.3365 -2.9751  1.3947
  473MOL0     H63853   4.591   4.555   7.416 -0.6700 -1.0587 -1.2443
  473MOL0     H63854   5.294   4.583   7.390 -0.3516 -0.1190  1.1027
  473MOL0     H63855   5.520   4.500   7.354  1.0370 -1.6679 -2.1473
  474MOL0     O63856   7.509   9.371   8.927  0.2372  0.1603  0.3066
  474MOL0     C63857   7.470   9.259   8.904  0.4725 -0.8362 -0.8947
  474MOL0     O63858   7.354   9.210   8.944 -0.1821 -0.1330  0.3651
  474MOL0     C63859   7.273   9.284   9.029  0.8422 -0.5769 -0.6536
  474MOL0     C63860   7.133   9.257   9.023  0.1350  0.3632  0.7027
  474MOL0     C63861   7.041   9.320   9.102  0.0969 -0.8115  0.5731
  474MOL0     C63862   7.077   9.408   9.206  0.2035  0.0036 -0.5380
  474MOL0     O63863   6.991   9.474   9.291 -0.2769  0.1479 -0.5957
  474MOL0     C63864   6.852   9.503   9.253 -0.4105  0.7324 -0.3190
  474MOL0     C63865   6.804   9.618   9.339  1.2517 -0.0175 -0.0795
  474MOL0     C63866   6.660   9.659   9.310 -0.4124 -0.1049 -0.5264
  474MOL0     C63867   6.629   9.715   9.172  0.0058  0.4662 -0.0319
  474MOL0     C63868   6.492   9.778   9.147 -0.3970 -0.3539  0.1191
  474MOL0     C63869   6.384   9.674   9.178  0.5266 -0.7181  0.0008
  474MOL0     C63870   6.259   9.688   9.094  0.0528 -0.7675 -0.2753
  474MOL0     C63871   6.169   9.787   9.162  1.2170 -0.8161 -0.0712
  474MOL0     N63872   6.033   9.757   9.135  0.4828 -0.1703 -0.4757
  474MOL0     C63873   5.941   9.802   9.036  0.5007  0.3194  0.6071
  474MOL0     C63874   5.822   9.738   9.080 -0.5475 -0.1457  0.9988
  474MOL0     C63875   5.691   9.762   9.006  0.0561  0.9148 -0.1365
  474MOL0     C63876   5.570   9.770   9.096  0.3416  0.1669  0.1281
  474MOL0     C63877   5.458   9.798   8.998  0.1704  1.0974 -0.2935
  474MOL0     C63878   5.332   9.840   9.070  0.2791  0.1627  0.6315
  474MOL0     O63879   5.220   9.848   8.983  0.6044 -0.2510 -0.1465
  474MOL0     C63880   5.106   9.907   9.031  0.4104 -0.1655  0.7060
  474MOL0     C63881   5.075   9.941   9.167  0.3950 -0.4720  0.4263
  474MOL0     C63882   4.955   9.994   9.214 -0.1181  0.2194 -0.8151
  474MOL0     C63883   4.931  10.026   9.359  0.1464 -0.3408 -0.0571
  474MOL0     C63884   4.849  10.003   9.116  0.0818 -0.5583  0.7919
  474MOL0     C63885   4.703  10.020   9.138 -0.4071 -0.3784 -0.4181
  474MOL0     O63886   4.644  10.095   9.035 -0.2088 -0.4103  0.0411
  474MOL0     C63887   4.513  10.148   9.043 -0.7623 -0.0775  0.1498
  474MOL0     C63888   4.446  10.170   8.919 -0.1997  0.1970  1.1819
  474MOL0     C63889   4.312  10.221   8.912  0.0771 -0.9906  0.4543
  474MOL0     C63890   4.258  10.263   9.031  0.0035 -0.9465 -0.3688
  474MOL0     O63891   4.126  10.303   9.039 -0.0585 -0.3800 -0.2583
  474MOL0     C63892   4.110  10.443   9.070 -0.0234  0.1748 -0.8050
  474MOL0     C63893   3.972  10.457   9.133  0.8835  0.4005 -0.3591
  474MOL0     C63894   3.852  10.403   9.046 -0.5194 -1.2408  0.0308
  474MOL0     C63895   3.726  10.450   9.111 -0.3414 -0.4146  0.5504
  474MOL0     C63896   3.607  10.394   9.029  0.4739 -0.3752  0.0141
  474MOL0     C63897   3.473  10.446   9.079  0.2929 -0.3859  0.6277
  474MOL0     C63898   3.361  10.410   8.979 -0.6038 -0.2497  0.1385
  474MOL0     C63899   3.239  10.488   9.007 -0.7400  0.2577  0.0523
  474MOL0    Cl63900   3.103  10.402   8.913 -0.4608 -0.1234 -0.0682
  474MOL0     C63901   4.334  10.252   9.151  1.0347  0.6451 -0.1497
  474MOL0     C63902   4.460  10.192   9.161 -0.5115  0.5572 -0.0543
  474MOL0     O63903   4.643   9.965   9.232 -0.1611 -0.4207  0.2837
  474MOL0     C63904   4.882   9.981   8.977  0.5734  1.1923  0.3457
  474MOL0     C63905   5.000   9.929   8.938 -0.1466 -0.2129 -0.0889
  474MOL0     N63906   5.850   9.654   9.188  0.4969 -0.4407  0.9145
  474MOL0     N63907   5.973   9.659   9.216  0.7499 -0.7655  0.6139
  474MOL0     C63908   7.217   9.434   9.220  0.7876 -0.1852  0.3017
  474MOL0     C63909   7.309   9.372   9.138  0.8625 -0.1970  0.2297
  474MOL0     C63910   7.562   9.187   8.819  0.1904  0.9159 -0.6998
  474MOL0     C63911   7.691   9.225   8.771  0.0331 -0.2586 -0.9845
  474MOL0     C63912   7.767   9.144   8.692 -0.2438 -0.9017  0.0406
  474MOL0     C63913   7.711   9.022   8.642  0.0261 -0.2274  0.3812
  474MOL0     O63914   7.792   8.949   8.562 -0.7604 -0.1553 -0.3822
  474MOL0     C63915   7.745   8.830   8.501  0.3195 -0.5316  0.3689
  474MOL0     C63916   7.869   8.754   8.453  0.0796  0.5041 -0.1647
  474MOL0     C63917   7.933   8.822   8.337 -0.3265  0.7325 -0.1252
  474MOL0     C63918   8.089   8.803   8.333 -0.6072  0.2215  0.0040
  474MOL0     C63919   8.169   8.864   8.446 -0.2535 -0.0682 -0.9372
  474MOL0     C63920   8.222   8.912   8.548 -0.1838 -0.1426  0.4483
  474MOL0     C63921   7.584   8.984   8.676  0.8560 -0.0576  0.3421
  474MOL0     C63922   7.509   9.068   8.769 -0.0446  0.2533  0.4616
  474MOL0     H63923   7.098   9.171   8.966  3.1173 -0.8819  0.5979
  474MOL0     H63924   6.934   9.305   9.089 -0.0329  0.2371  0.2760
  474MOL0     H63925   6.855   9.535   9.149 -2.4024 -2.0242 -1.3180
  474MOL0     H63926   6.793   9.412   9.250  0.4136  0.1974 -3.7594
  474MOL0     H63927   6.804   9.583   9.442 -0.0206 -4.3471 -1.3335
  474MOL0     H63928   6.867   9.707   9.327 -1.2749  2.0174  0.7364
  474MOL0     H63929   6.611   9.563   9.325 -0.4289  0.2604  2.1395
  474MOL0     H63930   6.650   9.731   9.392  2.2101  2.0003 -1.8844
  474MOL0     H63931   6.699   9.797   9.156  1.1075  0.3015  3.2574
  474MOL0     H63932   6.647   9.638   9.096  2.7734  0.4051  0.6044
  474MOL0     H63933   6.468   9.869   9.202  2.7553  0.8273 -0.2633
  474MOL0     H63934   6.489   9.818   9.046  1.0399 -1.7597 -0.5356
  474MOL0     H63935   6.422   9.577   9.146  2.3298 -0.5552  1.4904
  474MOL0     H63936   6.361   9.672   9.285  0.0947  3.9567  0.2209
  474MOL0     H63937   6.283   9.732   8.997  2.7393  1.0048  1.0704
  474MOL0     H63938   6.213   9.590   9.079 -1.6203 -0.0330 -0.1518
  474MOL0     H63939   6.187   9.887   9.122 -1.0453 -0.6948 -0.9884
  474MOL0     H63940   6.191   9.793   9.268  2.0134 -2.5168 -0.1038
  474MOL0     H63941   5.954   9.868   8.950  0.0967 -0.2822  0.0807
  474MOL0     H63942   5.705   9.859   8.956  0.5845  0.2360 -1.3355
  474MOL0     H63943   5.679   9.685   8.930 -3.2291  0.6291  0.5104
  474MOL0     H63944   5.563   9.853   9.167 -2.1536  0.9374 -0.9048
  474MOL0     H63945   5.561   9.670   9.138  0.6719  0.5631  1.1868
  474MOL0     H63946   5.443   9.702   8.948  1.0207  0.4199  0.7052
  474MOL0     H63947   5.485   9.871   8.921  1.4238  1.9644  0.9120
  474MOL0     H63948   5.338   9.936   9.122  0.6994  0.2418  0.4438
  474MOL0     H63949   5.305   9.762   9.142 -1.8871 -1.6491 -1.9867
  474MOL0     H63950   5.152   9.917   9.240  2.1105  0.8052 -0.8592
  474MOL0     H63951   4.929   9.935   9.420  0.8531  0.2696  0.8957
  474MOL0     H63952   5.013  10.093   9.386 -0.2057  1.2590 -2.6173
  474MOL0     H63953   4.836  10.076   9.382 -0.8516 -1.1784 -2.1178
  474MOL0     H63954   4.506  10.137   8.835 -0.6176  2.1606  0.0393
  474MOL0     H63955   4.254  10.223   8.820  2.3542 -0.1560 -1.0720
  474MOL0     H63956   4.184  10.493   9.134  0.9222  3.3706 -4.0018
  474MOL0     H63957   4.117  10.491   8.971 -2.1376 -1.6719 -1.9568
  474MOL0     H63958   3.962  10.403   9.228 -0.5807 -2.9015 -2.2131
  474MOL0     H63959   3.954  10.562   9.161 -1.2932 -0.2471  0.9063
  474MOL0     H63960   3.855  10.296   9.029  0.7782 -0.9455 -1.8362
  474MOL0     H63961   3.869  10.458   8.953 -0.1397 -0.6979  0.4076
  474MOL0     H63962   3.729  10.415   9.215  0.5736  1.7750  1.3126
  474MOL0     H63963   3.706  10.557   9.121 -1.2940 -0.6802  1.6882
  474MOL0     H63964   3.602  10.285   9.016 -0.7237 -0.1182 -2.0077
  474MOL0     H63965   3.618  10.428   8.926  1.2046 -0.0552  0.1893
  474MOL0     H63966   3.444  10.414   9.180 -2.8118  0.0740 -0.0136
  474MOL0     H63967   3.482  10.555   9.079  3.4241 -0.5507  1.7224
  474MOL0     H63968   3.334  10.304   8.980 -1.7403 -0.0108 -1.7450
  474MOL0     H63969   3.406  10.438   8.883  1.6478  0.5496  1.3420
  474MOL0     H63970   3.245  10.588   8.962  0.7460  0.9563  1.6709
  474MOL0     H63971   3.217  10.485   9.114 -3.0341  3.3955 -0.1790
  474MOL0     H63972   4.285  10.286   9.242 -1.8494  0.6429 -1.5857
  474MOL0     H63973   4.512  10.183   9.255 -0.3894  0.4798 -0.1290
  474MOL0     H63974   4.817   9.989   8.891  0.0053 -1.8468  0.3689
  474MOL0     H63975   5.016   9.906   8.834  3.0061  1.2204 -0.0410
  474MOL0     H63976   7.255   9.512   9.285 -0.8509  2.3167 -1.5620
  474MOL0     H63977   7.413   9.404   9.145  0.9685  0.6341 -3.1647
  474MOL0     H63978   7.748   9.313   8.798  0.0807 -0.5774  0.0188
  474MOL0     H63979   7.868   9.171   8.662 -0.3066 -0.2201  0.3990
  474MOL0     H63980   7.681   8.770   8.566  0.9777 -0.9610  0.6371
  474MOL0     H63981   7.672   8.861   8.426 -1.3773  1.2756  2.6308
  474MOL0     H63982   7.841   8.653   8.422  1.9776 -0.0170 -0.2702
  474MOL0     H63983   7.942   8.747   8.534 -2.5417 -4.1014  2.2140
  474MOL0     H63984   7.921   8.930   8.346  1.3681  0.9444 -0.0930
  474MOL0     H63985   7.883   8.783   8.247 -0.0116 -0.5737  0.2418
  474MOL0     H63986   8.121   8.846   8.237  0.2842 -0.6122 -0.0919
  474MOL0     H63987   8.103   8.695   8.332 -0.8527  0.1866 -0.9700
  474MOL0     H63988   8.268   8.958   8.634  0.9618  0.2950 -0.3693
  474MOL0     H63989   7.532   8.895   8.641  1.7522  0.0649 -1.4252
  474MOL0     H63990   7.406   9.040   8.790  0.0313  0.7631  1.6092
  475MOL0     O63991   2.931   5.530   2.593 -0.4710  0.1991 -0.2044
  475MOL0     C63992   2.854   5.575   2.511 -0.1269  0.3837  0.0258
  475MOL0     O63993   2.717   5.564   2.516  0.0287 -0.3785  0.3521
  475MOL0     C63994   2.669   5.472   2.596 -0.1000 -0.0163 -0.2390
  475MOL0     C63995   2.639   5.500   2.728 -0.6701  0.2315 -1.2747
  475MOL0     C63996   2.588   5.404   2.821  0.1322  0.7097 -0.0097
  475MOL0     C63997   2.559   5.277   2.780 -0.1046  0.8757  0.8012
  475MOL0     O63998   2.523   5.164   2.868 -0.6382  0.0917 -0.6552
  475MOL0     C63999   2.458   5.191   2.998  0.1350  0.4659 -0.3171
  475MOL0     C64000   2.422   5.052   3.059 -0.7491  0.1887  1.2052
  475MOL0     C64001   2.302   4.996   2.968  0.3131 -0.6916 -0.1141
  475MOL0     C64002   2.291   4.842   2.986  0.6874 -0.1767 -0.4398
  475MOL0     C64003   2.144   4.796   2.987  0.4060 -0.6260 -0.3440
  475MOL0     C64004   2.079   4.834   2.848 -0.6154 -0.1443 -0.1412
  475MOL0     C64005   1.930   4.780   2.841  0.2583 -0.4201 -0.6133
  475MOL0     C64006   1.836   4.879   2.912  0.2002 -0.0458  0.7948
  475MOL0     N64007   1.696   4.844   2.890  0.2277  0.8940  0.4217
  475MOL0     C64008   1.621   4.769   2.984  0.4951  0.4236  0.5819
  475MOL0     C64009   1.500   4.738   2.922 -0.2084 -0.2778  0.9352
  475MOL0     C64010   1.389   4.645   2.982  0.6967 -0.7564 -0.6338
  475MOL0     C64011   1.301   4.725   3.077 -0.0743 -0.3261  1.3053
  475MOL0     C64012   1.188   4.629   3.119 -0.1539 -0.4357  0.8980
  475MOL0     C64013   1.116   4.696   3.230  0.1303  0.2522 -0.4536
  475MOL0     O64014   1.060   4.596   3.314 -0.0185  0.0019 -0.1290
  475MOL0     C64015   0.949   4.530   3.272  0.2758  0.6563 -0.1764
  475MOL0     C64016   0.912   4.434   3.363 -0.0253  0.6433  0.2790
  475MOL0     C64017   0.786   4.375   3.352  0.2874 -0.1456 -0.2211
  475MOL0     C64018   0.769   4.258   3.446  0.3944  0.4699 -0.4972
  475MOL0     C64019   0.685   4.421   3.257  0.0102  0.5059 -0.3756
  475MOL0     C64020   0.545   4.384   3.265  0.0449  0.3596 -0.0758
  475MOL0     O64021   0.509   4.270   3.332 -0.6749  0.0431  0.3726
  475MOL0     C64022   0.379   4.244   3.336 -0.9217 -0.7467 -0.4419
  475MOL0     C64023   0.303   4.301   3.446  0.2538  0.2920 -0.0939
  475MOL0     C64024   0.176   4.265   3.473  0.1267  0.4509 -1.0993
  475MOL0     C64025   0.108   4.208   3.364 -0.3916  1.1837 -0.2391
  475MOL0     O64026  -0.025   4.200   3.380  0.0991  0.2143  0.1499
  475MOL0     C64027  -0.099   4.092   3.318  0.2890  0.1379  0.4024
  475MOL0     C64028  -0.240   4.135   3.329 -0.4670 -0.3464  0.9747
  475MOL0     C64029  -0.270   4.091   3.476 -0.6828 -0.7828  0.1714
  475MOL0     C64030  -0.398   4.162   3.517 -0.7879  0.4322  0.3648
  475MOL0     C64031  -0.381   4.312   3.561 -0.9195 -0.6199  0.8536
  475MOL0     C64032  -0.268   4.355   3.651  0.9832  0.2450 -0.0804
  475MOL0     C64033  -0.291   4.287   3.782  0.0755  0.1580  0.1164
  475MOL0     C64034  -0.176   4.322   3.884  0.4128 -0.0796  0.5311
  475MOL0    Cl64035  -0.019   4.283   3.809  0.1061 -0.3685 -0.0556
  475MOL0     C64036   0.180   4.158   3.255  1.1026  0.0187  0.4004
  475MOL0     C64037   0.313   4.174   3.240  0.2571  0.2760  0.1230
  475MOL0     O64038   0.471   4.462   3.199  0.9365  0.1430  0.2325
  475MOL0     C64039   0.738   4.506   3.154 -0.1138 -0.0596  0.0111
  475MOL0     C64040   0.868   4.560   3.159 -0.1018  0.9546  0.3961
  475MOL0     N64041   1.504   4.819   2.809 -0.5401 -0.0045 -0.3727
  475MOL0     N64042   1.620   4.867   2.785  0.3412  0.0020 -0.0018
  475MOL0     C64043   2.591   5.242   2.646 -0.3364 -0.5053  0.0096
  475MOL0     C64044   2.647   5.339   2.553  0.8075 -0.2797 -0.5264
  475MOL0     C64045   2.915   5.638   2.385  0.7152 -0.2430 -0.6237
  475MOL0     C64046   3.060   5.648   2.366 -0.5509 -0.1226 -0.5879
  475MOL0     C64047   3.105   5.709   2.255  0.1642 -0.3613 -0.3240
  475MOL0     C64048   3.027   5.787   2.170  0.0158  0.5758 -0.5673
  475MOL0     O64049   3.073   5.857   2.063  1.1815  0.4027  0.9291
  475MOL0     C64050   3.213   5.869   2.037  0.5462  1.3641  0.3008
  475MOL0     C64051   3.266   5.773   1.934 -0.7628  0.2738 -0.6291
  475MOL0     C64052   3.384   5.829   1.853  0.2441 -0.1455  0.1147
  475MOL0     C64053   3.497   5.865   1.943  0.0337  0.7902 -0.7832
  475MOL0     C64054   3.611   5.931   1.876 -0.6260  0.1168  0.4272
  475MOL0     C64055   3.698   5.985   1.809  0.1404  0.3472  0.1867
  475MOL0     C64056   2.890   5.785   2.202 -0.5875  0.2905  0.4859
  475MOL0     C64057   2.832   5.710   2.302  0.7339  0.1938  0.3955
  475MOL0     H64058   2.639   5.600   2.769 -3.5973 -0.6297  1.1693
  475MOL0     H64059   2.586   5.448   2.920  1.0056 -0.2998  0.4780
  475MOL0     H64060   2.526   5.240   3.068  0.3827 -2.0533  1.3408
  475MOL0     H64061   2.365   5.248   2.986  1.0207  1.9247 -0.6040
  475MOL0     H64062   2.510   4.990   3.042 -0.3745  0.7282  1.1199
  475MOL0     H64063   2.397   5.050   3.165  1.2336 -1.7618  1.6963
  475MOL0     H64064   2.203   5.039   2.988  0.9494  3.1502 -3.7513
  475MOL0     H64065   2.322   5.019   2.863 -0.2611 -1.4228 -0.3912
  475MOL0     H64066   2.350   4.783   2.916  0.4923 -2.5193  1.2496
  475MOL0     H64067   2.331   4.814   3.083 -1.3272  0.0448  0.5131
  475MOL0     H64068   2.155   4.688   3.000 -0.7160 -0.5093  1.9670
  475MOL0     H64069   2.085   4.839   3.067  2.9519 -2.0064  2.4665
  475MOL0     H64070   2.065   4.942   2.836 -1.5157 -0.0878  1.1928
  475MOL0     H64071   2.138   4.797   2.764 -1.1724 -1.9770  0.2391
  475MOL0     H64072   1.893   4.768   2.739 -2.2236  0.4949  0.0965
  475MOL0     H64073   1.931   4.681   2.888 -3.7397 -0.9757 -1.3012
  475MOL0     H64074   1.844   4.982   2.876 -0.5598  0.3448  1.6930
  475MOL0     H64075   1.855   4.889   3.019 -2.8157  1.1878  1.3355
  475MOL0     H64076   1.655   4.729   3.079 -2.6771  1.1695  2.1445
  475MOL0     H64077   1.332   4.601   2.899  1.0586 -0.5863 -0.9815
  475MOL0     H64078   1.436   4.566   3.041  2.1516  1.3751  1.1985
  475MOL0     H64079   1.261   4.810   3.020  4.7058  2.9750  2.2774
  475MOL0     H64080   1.361   4.768   3.157  1.2077 -2.8619  1.7879
  475MOL0     H64081   1.229   4.537   3.161 -1.1826 -1.6249 -0.5899
  475MOL0     H64082   1.123   4.599   3.036  2.7371 -0.1653 -1.6891
  475MOL0     H64083   1.044   4.771   3.195  2.1275  3.5786  2.0005
  475MOL0     H64084   1.185   4.754   3.291 -0.9740 -0.7061  1.8197
  475MOL0     H64085   0.989   4.405   3.434 -3.4420 -1.0820  3.5873
  475MOL0     H64086   0.860   4.225   3.495  1.7207 -0.1257 -3.1644
  475MOL0     H64087   0.689   4.272   3.520  1.9131  0.7865  1.1490
  475MOL0     H64088   0.753   4.174   3.378  0.5694  2.0576 -2.6200
  475MOL0     H64089   0.354   4.350   3.529 -3.6031 -0.9531  3.3501
  475MOL0     H64090   0.126   4.298   3.563  0.4648  0.9365 -1.0875
  475MOL0     H64091  -0.079   4.080   3.211 -1.0324  2.1615 -0.1230
  475MOL0     H64092  -0.078   3.997   3.368 -1.9427 -1.1932 -1.0131
  475MOL0     H64093  -0.258   4.240   3.304 -1.4587 -0.4464  1.2227
  475MOL0     H64094  -0.305   4.073   3.266 -1.7860 -0.5740  2.4929
  475MOL0     H64095  -0.192   4.114   3.548  0.7153  1.9502 -2.0102
  475MOL0     H64096  -0.280   3.983   3.484  1.6507 -0.9252  2.3114
  475MOL0     H64097  -0.466   4.142   3.433  1.1968 -2.1850 -0.7891
  475MOL0     H64098  -0.435   4.105   3.602 -2.2154  0.6663 -0.0652
  475MOL0     H64099  -0.483   4.329   3.597 -0.8382 -0.4409  0.9944
  475MOL0     H64100  -0.378   4.377   3.473  0.0451  0.8795  1.9614
  475MOL0     H64101  -0.179   4.326   3.595 -0.1665 -0.8983 -1.3870
  475MOL0     H64102  -0.286   4.463   3.658 -0.3380 -0.0023  0.7356
  475MOL0     H64103  -0.290   4.179   3.764 -1.1238  0.3421 -1.2250
  475MOL0     H64104  -0.386   4.331   3.814  0.3237  2.6057 -2.1097
  475MOL0     H64105  -0.199   4.248   3.962  0.3932  1.6085  2.2039
  475MOL0     H64106  -0.189   4.422   3.925 -0.8437 -0.6931  1.7455
  475MOL0     H64107   0.137   4.106   3.170  2.1270 -0.5321  0.2114
  475MOL0     H64108   0.367   4.121   3.163 -0.0157  0.8408 -0.4648
  475MOL0     H64109   0.684   4.539   3.066  0.7897  0.7628 -0.2590
  475MOL0     H64110   0.894   4.623   3.074  2.4536 -0.2039  0.2267
  475MOL0     H64111   2.568   5.139   2.619  1.9672 -0.7949 -1.0818
  475MOL0     H64112   2.685   5.313   2.455  1.1492  1.5165 -0.9101
  475MOL0     H64113   3.126   5.581   2.420  0.3043  0.3647 -1.0079
  475MOL0     H64114   3.204   5.673   2.231  0.3661 -2.3298  2.8845
  475MOL0     H64115   3.240   5.968   1.998  1.4998  0.5113 -1.2781
  475MOL0     H64116   3.273   5.847   2.126  1.0770 -1.1529 -0.5972
  475MOL0     H64117   3.183   5.757   1.864 -0.7028  2.9791 -1.4159
  475MOL0     H64118   3.293   5.678   1.981 -1.3840  0.4448  0.1053
  475MOL0     H64119   3.364   5.924   1.801  1.6156  0.1439  0.0561
  475MOL0     H64120   3.430   5.759   1.782 -1.2589 -1.2773  0.2375
  475MOL0     H64121   3.536   5.780   2.001  0.4774 -0.5223 -2.8890
  475MOL0     H64122   3.452   5.938   2.011 -4.0001 -0.8382 -1.4342
  475MOL0     H64123   3.762   6.038   1.741  2.6577 -3.7224 -0.9511
  475MOL0     H64124   2.821   5.839   2.139 -2.5809 -2.9947 -0.3846
  475MOL0     H64125   2.724   5.694   2.307  0.7634 -0.1027  0.1144
  476MOL0     O64126   5.952   5.138   9.354  0.9672  0.3622  0.0997
  476MOL0     C64127   6.003   5.250   9.361 -0.1710 -0.6461 -0.2852
  476MOL0     O64128   5.939   5.368   9.335  0.0861  0.1184 -0.5545
  476MOL0     C64129   5.807   5.378   9.305  0.5811  0.0130  0.6447
  476MOL0     C64130   5.706   5.313   9.387 -0.3314  0.6692  0.5446
  476MOL0     C64131   5.573   5.342   9.376  0.2394 -0.5206 -0.0583
  476MOL0     C64132   5.524   5.443   9.285  0.0745 -0.2884 -0.5803
  476MOL0     O64133   5.397   5.483   9.268 -0.2705 -0.1845 -0.7555
  476MOL0     C64134   5.296   5.388   9.297 -0.5691  0.0269  0.3693
  476MOL0     C64135   5.164   5.436   9.245 -0.6359  0.2412  0.2346
  476MOL0     C64136   5.046   5.350   9.296  0.0768  0.3884  0.1896
  476MOL0     C64137   4.913   5.351   9.217 -0.0593  0.6183  0.1690
  476MOL0     C64138   4.828   5.232   9.273 -0.2884 -0.1871 -0.2998
  476MOL0     C64139   4.696   5.194   9.199 -0.0264  0.1660  0.3280
  476MOL0     C64140   4.611   5.084   9.274  0.4599  0.5672 -0.1160
  476MOL0     C64141   4.469   5.092   9.215  0.3006  0.0293  0.5675
  476MOL0     N64142   4.377   5.020   9.298  0.8604  0.7826  0.3428
  476MOL0     C64143   4.397   4.897   9.359  0.4343  0.1250 -0.1688
  476MOL0     C64144   4.282   4.876   9.427 -0.1349  0.6264 -0.2041
  476MOL0     C64145   4.254   4.756   9.516  0.7109 -0.2287  0.5819
  476MOL0     C64146   4.195   4.633   9.432 -0.4848 -0.0115 -0.4855
  476MOL0     C64147   4.174   4.508   9.516  0.1772 -0.6283 -1.1140
  476MOL0     C64148   4.090   4.532   9.643 -0.4797 -0.9798 -0.4418
  476MOL0     O64149   4.167   4.570   9.763 -0.5610 -0.3996  0.0408
  476MOL0     C64150   4.259   4.485   9.819 -0.0010  0.4946 -0.6026
  476MOL0     C64151   4.362   4.545   9.888  0.3657  0.1078 -0.0932
  476MOL0     C64152   4.473   4.472   9.939  0.5802  0.5163 -0.8672
  476MOL0     C64153   4.587   4.550  10.004  0.0787 -0.6127 -0.0138
  476MOL0     C64154   4.470   4.330   9.944  0.3237  1.0655 -0.4326
  476MOL0     C64155   4.575   4.241  10.005  0.0891  0.0680  0.0208
  476MOL0     O64156   4.665   4.302  10.086 -0.1725 -0.0253 -0.3077
  476MOL0     C64157   4.779   4.233  10.108  0.2911  0.1881  0.3617
  476MOL0     C64158   4.882   4.235  10.015  0.0516 -0.7828  0.1826
  476MOL0     C64159   5.002   4.174  10.060 -0.8798  0.2666  0.3716
  476MOL0     C64160   5.019   4.109  10.183  0.2364 -1.3175  0.1512
  476MOL0     O64161   5.142   4.053  10.210  0.4575 -0.0721  0.4249
  476MOL0     C64162   5.193   4.056  10.346 -0.1884  0.7325  0.6761
  476MOL0     C64163   5.263   4.185  10.385 -0.7263 -0.3089 -0.2083
  476MOL0     C64164   5.351   4.245  10.278  0.0578 -0.5683 -0.6388
  476MOL0     C64165   5.407   4.366  10.342 -0.2947 -0.4868 -0.4377
  476MOL0     C64166   5.486   4.447  10.238 -0.6387 -0.6153  0.4574
  476MOL0     C64167   5.609   4.526  10.301  0.5703 -0.3188 -0.8008
  476MOL0     C64168   5.688   4.602  10.190 -1.0202 -0.1114  0.0703
  476MOL0     C64169   5.802   4.682  10.257 -0.5984  0.0110 -0.0765
  476MOL0    Cl64170   5.753   4.789  10.377  0.3335 -0.0072 -0.3736
  476MOL0     C64171   4.908   4.102  10.269 -0.6777  1.5109 -0.2937
  476MOL0     C64172   4.788   4.158  10.229  0.0719  0.8266 -0.2478
  476MOL0     O64173   4.557   4.120   9.993  0.0366 -0.4685  0.2783
  476MOL0     C64174   4.365   4.269   9.874  1.2830 -0.1368  0.0624
  476MOL0     C64175   4.262   4.344   9.815  0.2050 -0.7751 -0.0668
  476MOL0     N64176   4.188   4.965   9.385 -0.1750  0.1496  0.4724
  476MOL0     N64177   4.241   5.053   9.306  0.0609  0.8394 -0.0819
  476MOL0     C64178   5.624   5.501   9.212  0.1488 -0.2724 -0.1528
  476MOL0     C64179   5.767   5.481   9.223  0.7860 -0.0144  0.7489
  476MOL0     C64180   6.145   5.259   9.410 -0.6312  0.2935  1.2962
  476MOL0     C64181   6.222   5.369   9.382 -0.4792  0.7394  1.1439
  476MOL0     C64182   6.347   5.387   9.447  0.0242 -0.3361 -0.5633
  476MOL0     C64183   6.389   5.284   9.538  0.0250 -0.0666 -0.0608
  476MOL0     O64184   6.507   5.307   9.594  0.2196  0.0819 -0.2909
  476MOL0     C64185   6.542   5.233   9.722 -0.0537 -0.2172 -0.0680
  476MOL0     C64186   6.675   5.300   9.762 -0.8497  0.2540  0.1682
  476MOL0     C64187   6.724   5.258   9.902 -0.9494 -0.3900 -0.6526
  476MOL0     C64188   6.842   5.338   9.966 -0.2887 -0.1208 -0.9044
  476MOL0     C64189   6.957   5.320   9.883 -0.5455  0.5287  0.1247
  476MOL0     C64190   7.059   5.305   9.820  0.1184 -0.5631 -0.6963
  476MOL0     C64191   6.315   5.163   9.551  0.1196 -1.3474  0.0645
  476MOL0     C64192   6.192   5.153   9.491  0.1206  0.1638 -0.1034
  476MOL0     H64193   5.747   5.240   9.456 -0.5958 -0.7206 -0.7031
  476MOL0     H64194   5.523   5.277   9.447  2.3641 -0.6450  1.4278
  476MOL0     H64195   5.326   5.294   9.249  0.9459  1.6219 -1.9994
  476MOL0     H64196   5.284   5.374   9.405 -0.2433  0.1006  0.4150
  476MOL0     H64197   5.149   5.540   9.274 -0.2852  0.3417  0.0603
  476MOL0     H64198   5.167   5.425   9.136  0.2398 -2.0042  0.4224
  476MOL0     H64199   5.091   5.250   9.295 -1.0570 -0.1757 -1.8043
  476MOL0     H64200   5.021   5.372   9.400 -0.2091  3.7415 -0.4744
  476MOL0     H64201   4.865   5.449   9.227  2.1494  1.6616  1.1409
  476MOL0     H64202   4.934   5.331   9.111 -0.1752  0.8175  0.1097
  476MOL0     H64203   4.895   5.146   9.267 -0.2393 -0.0853 -1.3698
  476MOL0     H64204   4.803   5.253   9.378  0.0473  0.1469 -0.2853
  476MOL0     H64205   4.637   5.286   9.205  1.8452  1.6414 -2.2229
  476MOL0     H64206   4.703   5.172   9.092 -1.6537 -2.0304  0.5907
  476MOL0     H64207   4.635   4.980   9.252 -0.9963  0.5933 -2.1978
  476MOL0     H64208   4.611   5.112   9.380  1.1164  1.1144 -0.2502
  476MOL0     H64209   4.469   5.070   9.108  1.5284  0.2601  0.5075
  476MOL0     H64210   4.437   5.196   9.214  0.5717  0.1224 -1.2661
  476MOL0     H64211   4.494   4.848   9.364  0.4238 -0.5506 -3.9653
  476MOL0     H64212   4.348   4.727   9.565  1.6400  0.8019 -0.5394
  476MOL0     H64213   4.193   4.775   9.605  1.6954 -2.1316  1.7417
  476MOL0     H64214   4.263   4.609   9.350  1.9738 -0.0722  1.4701
  476MOL0     H64215   4.101   4.663   9.384 -0.9843  1.5998  1.3494
  476MOL0     H64216   4.269   4.474   9.557  0.4335  1.0416 -0.2540
  476MOL0     H64217   4.134   4.430   9.450 -0.3708 -3.2479  2.0374
  476MOL0     H64218   4.030   4.445   9.672 -0.9147 -0.4557  0.2527
  476MOL0     H64219   4.024   4.617   9.625  0.9420  0.0339 -1.0509
  476MOL0     H64220   4.349   4.651   9.906 -2.1300  0.1540 -1.7505
  476MOL0     H64221   4.684   4.514   9.967 -1.7664 -2.3903 -3.6298
  476MOL0     H64222   4.579   4.658   9.993  3.2490 -0.3175 -0.4604
  476MOL0     H64223   4.580   4.535  10.112 -0.0108  0.0013  0.0693
  476MOL0     H64224   4.871   4.296   9.926  0.1258 -1.6487 -0.4251
  476MOL0     H64225   5.093   4.178  10.001 -0.7040  1.9164  0.6992
  476MOL0     H64226   5.112   4.038  10.418  1.6878 -0.0077  2.7249
  476MOL0     H64227   5.266   3.974  10.352 -0.4463  0.5681  1.9488
  476MOL0     H64228   5.186   4.261  10.403  1.2479  1.4009  1.4143
  476MOL0     H64229   5.323   4.169  10.475  2.7760  1.4932 -2.0220
  476MOL0     H64230   5.292   4.273  10.190 -0.6630 -1.1708 -0.3576
  476MOL0     H64231   5.429   4.183  10.235 -1.8024 -2.1613 -1.9020
  476MOL0     H64232   5.335   4.438  10.382 -0.0281 -0.0280 -0.7845
  476MOL0     H64233   5.473   4.343  10.427 -2.6209  2.8683  2.5969
  476MOL0     H64234   5.422   4.511  10.178 -0.6943  0.1883  1.3516
  476MOL0     H64235   5.522   4.369  10.170 -0.0500  0.8010 -0.9195
  476MOL0     H64236   5.558   4.590  10.373 -0.3207 -1.8658  0.0054
  476MOL0     H64237   5.676   4.459  10.355  0.6675  0.1611 -0.3169
  476MOL0     H64238   5.621   4.672  10.140 -1.0340 -0.3842 -0.2930
  476MOL0     H64239   5.727   4.527  10.121  0.5233 -0.1382  0.9408
  476MOL0     H64240   5.851   4.738  10.177  0.9907 -1.6090 -0.3106
  476MOL0     H64241   5.876   4.611  10.298 -0.1895 -0.1936 -1.1255
  476MOL0     H64242   4.906   4.044  10.360 -0.1950  0.3282 -1.0145
  476MOL0     H64243   4.704   4.126  10.289 -0.2280 -2.2842 -2.1087
  476MOL0     H64244   4.349   4.162   9.866 -1.9647  0.3603 -2.3438
  476MOL0     H64245   4.176   4.289   9.779 -0.8240  0.9658 -0.3929
  476MOL0     H64246   5.590   5.570   9.135  1.1570  0.1890 -0.1902
  476MOL0     H64247   5.837   5.533   9.159 -0.2738  0.3935 -0.1111
  476MOL0     H64248   6.189   5.453   9.321  1.1773  0.8280  0.3156
  476MOL0     H64249   6.401   5.478   9.423 -0.9279 -0.2992 -2.8399
  476MOL0     H64250   6.459   5.247   9.791 -0.0487 -3.3288  0.7416
  476MOL0     H64251   6.544   5.125   9.706  1.0813 -0.2327  0.0803
  476MOL0     H64252   6.672   5.409   9.762 -2.9629  0.2855  2.5867
  476MOL0     H64253   6.744   5.264   9.684 -0.2005  1.5386  0.1207
  476MOL0     H64254   6.766   5.157   9.908  3.3260  1.1577 -1.0370
  476MOL0     H64255   6.640   5.261   9.973  0.6297  1.7815  1.2681
  476MOL0     H64256   6.871   5.304  10.066  0.1053 -1.1295 -1.3408
  476MOL0     H64257   6.803   5.440   9.972 -2.3076 -0.9512  2.4813
  476MOL0     H64258   7.141   5.286   9.753  0.1824 -1.0572 -0.4888
  476MOL0     H64259   6.337   5.084   9.621  3.4894 -0.8480 -0.2537
  476MOL0     H64260   6.140   5.058   9.501  0.2329  0.0315 -0.6971
  477MOL0     O64261   8.335   8.281   6.767  0.1268  0.1946  0.3934
  477MOL0     C64262   8.294   8.307   6.880 -0.2469  0.4749  0.3103
  477MOL0     O64263   8.161   8.306   6.916  0.1192  0.0386 -0.1810
  477MOL0     C64264   8.073   8.255   6.825 -0.3904  0.5098 -0.3996
  477MOL0     C64265   7.970   8.325   6.791  0.5901 -0.4414 -0.1530
  477MOL0     C64266   7.863   8.267   6.719 -0.1882 -0.7664  0.6170
  477MOL0     C64267   7.866   8.139   6.671 -0.7459  0.1776 -1.0350
  477MOL0     O64268   7.767   8.100   6.583  0.1098  0.5606  0.2618
  477MOL0     C64269   7.743   7.959   6.576 -0.3526 -0.8184  0.0425
  477MOL0     C64270   7.606   7.926   6.513  0.0558 -0.1637 -0.2994
  477MOL0     C64271   7.560   7.786   6.563 -0.1392 -0.2692 -0.1523
  477MOL0     C64272   7.441   7.724   6.496 -0.1090 -0.2352 -0.2664
  477MOL0     C64273   7.308   7.743   6.565  0.3008 -0.1833 -1.2923
  477MOL0     C64274   7.187   7.693   6.488  0.9514  0.5944 -0.7573
  477MOL0     C64275   7.048   7.725   6.543  0.8274 -0.5873 -0.0884
  477MOL0     C64276   7.031   7.684   6.691  0.3115  0.7814 -0.2124
  477MOL0     N64277   6.894   7.672   6.726 -0.0163  0.6189  0.2945
  477MOL0     C64278   6.843   7.550   6.765  0.6625  0.1890 -0.2649
  477MOL0     C64279   6.724   7.586   6.823 -0.7371  1.2141 -0.6601
  477MOL0     C64280   6.626   7.493   6.890 -0.7945 -0.4180  0.1670
  477MOL0     C64281   6.530   7.575   6.982 -1.0148  0.5771 -0.0123
  477MOL0     C64282   6.434   7.488   7.067  0.1388 -0.0142  0.9627
  477MOL0     C64283   6.313   7.436   6.977  0.4715 -0.3618 -0.3036
  477MOL0     O64284   6.209   7.376   7.056  0.4613  0.0130 -0.3235
  477MOL0     C64285   6.093   7.434   7.099  0.1664 -0.0352 -0.6749
  477MOL0     C64286   6.073   7.575   7.099  0.3993 -0.4622  0.2797
  477MOL0     C64287   5.955   7.639   7.137 -0.5674 -0.2446 -0.8476
  477MOL0     C64288   5.948   7.790   7.118 -0.3531 -0.2273 -0.2061
  477MOL0     C64289   5.855   7.563   7.199  0.6586 -0.0075  0.5623
  477MOL0     C64290   5.723   7.615   7.215  0.5114  0.1508  0.3223
  477MOL0     O64291   5.661   7.676   7.112  0.3381 -0.2057  0.3227
  477MOL0     C64292   5.538   7.734   7.145 -0.1429  0.4302  0.0029
  477MOL0     C64293   5.429   7.687   7.069 -0.1193  0.1829  0.4051
  477MOL0     C64294   5.297   7.731   7.092 -0.1250 -0.2407 -0.3175
  477MOL0     C64295   5.279   7.824   7.200  0.5899 -0.0014  0.7059
  477MOL0     O64296   5.161   7.877   7.229  0.2580 -0.4030  0.2005
  477MOL0     C64297   5.047   7.797   7.249  1.0892  0.2697  0.0139
  477MOL0     C64298   4.913   7.880   7.232  0.1462 -0.0472  0.1064
  477MOL0     C64299   4.798   7.816   7.304 -0.4108  0.7242 -0.2386
  477MOL0     C64300   4.677   7.905   7.288  0.0040  0.5306  0.5616
  477MOL0     C64301   4.567   7.868   7.387 -0.2188 -0.2573  0.3230
  477MOL0     C64302   4.437   7.950   7.350 -0.5255 -0.5088  0.9807
  477MOL0     C64303   4.321   7.914   7.441  0.3322 -0.9816 -0.3689
  477MOL0     C64304   4.257   7.779   7.421 -0.3069  0.0786  0.8746
  477MOL0    Cl64305   4.215   7.747   7.243  0.3988 -0.0745 -0.2979
  477MOL0     C64306   5.387   7.870   7.265  0.1503 -0.0394 -0.2785
  477MOL0     C64307   5.518   7.824   7.243 -0.4857  0.2130  0.0840
  477MOL0     O64308   5.676   7.593   7.324  0.2923 -0.4874 -0.3097
  477MOL0     C64309   5.865   7.421   7.205 -0.0532 -0.1791  0.5468
  477MOL0     C64310   5.987   7.360   7.156  1.1362 -0.1837 -0.0138
  477MOL0     N64311   6.709   7.720   6.807 -0.3965 -1.1270 -0.6015
  477MOL0     N64312   6.818   7.779   6.764  0.5595 -0.4358  1.0775
  477MOL0     C64313   7.989   8.069   6.701  0.2690 -0.5701  0.6747
  477MOL0     C64314   8.092   8.121   6.780  0.2659  0.3959  1.0108
  477MOL0     C64315   8.402   8.333   6.981 -0.0633  1.1492  1.0853
  477MOL0     C64316   8.361   8.384   7.108 -0.7840 -0.3165 -0.9167
  477MOL0     C64317   8.462   8.425   7.198  0.0296 -0.3858  0.1042
  477MOL0     C64318   8.602   8.416   7.168  1.3781 -0.0031  0.9797
  477MOL0     O64319   8.695   8.443   7.256  0.1255 -0.0320  0.2226
  477MOL0     C64320   8.816   8.510   7.208  0.2774  0.0814 -0.5638
  477MOL0     C64321   8.917   8.508   7.330 -0.7435  0.7169  0.1322
  477MOL0     C64322   8.862   8.538   7.470  0.6333  0.0857 -0.6306
  477MOL0     C64323   8.963   8.554   7.577 -0.1308  0.0878  0.2375
  477MOL0     C64324   8.901   8.581   7.707 -0.0371  0.3653  0.0213
  477MOL0     C64325   8.843   8.597   7.809 -0.1088  0.4784 -0.4334
  477MOL0     C64326   8.632   8.351   7.045  0.2472 -1.1180  0.9083
  477MOL0     C64327   8.536   8.321   6.954 -0.4532  0.3746 -0.9709
  477MOL0     H64328   7.957   8.424   6.834  1.4010 -0.4374  0.1015
  477MOL0     H64329   7.765   8.311   6.703  0.7438  1.8039  1.5794
  477MOL0     H64330   7.826   7.926   6.513  1.8352  1.1010  1.6950
  477MOL0     H64331   7.746   7.921   6.679 -0.8734  0.2765  0.4804
  477MOL0     H64332   7.526   7.992   6.547 -1.2944 -1.3416 -1.1101
  477MOL0     H64333   7.613   7.918   6.404 -2.7068 -3.4313 -0.3992
  477MOL0     H64334   7.649   7.723   6.561  0.2816  0.2639  1.1279
  477MOL0     H64335   7.540   7.792   6.670  0.0081 -1.3145 -0.0579
  477MOL0     H64336   7.434   7.763   6.394  0.9297  0.8417  0.0575
  477MOL0     H64337   7.451   7.615   6.488  1.5331  0.0237 -3.0202
  477MOL0     H64338   7.308   7.678   6.654  0.4733 -1.5052 -2.2217
  477MOL0     H64339   7.297   7.847   6.595 -3.6160 -0.2835 -1.8750
  477MOL0     H64340   7.195   7.738   6.389  1.7272  0.1743 -0.8892
  477MOL0     H64341   7.204   7.585   6.482  1.0080  0.5995 -0.6931
  477MOL0     H64342   7.040   7.834   6.540 -0.0099 -0.6153  0.7290
  477MOL0     H64343   6.965   7.689   6.481 -3.8614  3.6807  2.8281
  477MOL0     H64344   7.087   7.758   6.748  0.5452  0.3372  0.1461
  477MOL0     H64345   7.067   7.584   6.716 -1.9176 -0.0395 -0.0998
  477MOL0     H64346   6.888   7.451   6.773 -0.4128 -0.3431 -0.5606
  477MOL0     H64347   6.576   7.420   6.825 -1.7193  0.0299  0.3542
  477MOL0     H64348   6.693   7.432   6.951  2.4930 -1.2393 -3.7799
  477MOL0     H64349   6.470   7.646   6.925 -0.9379  1.6067  1.1284
  477MOL0     H64350   6.602   7.616   7.055  1.0748  1.0644 -2.2185
  477MOL0     H64351   6.380   7.557   7.132  0.5020  0.1930  1.0448
  477MOL0     H64352   6.483   7.400   7.110 -0.4446  0.0492  1.7763
  477MOL0     H64353   6.346   7.358   6.908 -1.8444  0.5290 -2.5910
  477MOL0     H64354   6.280   7.517   6.910 -0.2983 -0.8798 -0.5672
  477MOL0     H64355   6.151   7.639   7.058  0.2906  0.0816  0.9166
  477MOL0     H64356   5.873   7.810   7.041 -1.1315 -0.2324  0.5314
  477MOL0     H64357   5.906   7.837   7.208  0.4225 -1.6931  0.9786
  477MOL0     H64358   6.045   7.832   7.093 -1.5260  1.6221 -1.9452
  477MOL0     H64359   5.461   7.619   6.991  2.4906  1.7871 -0.0647
  477MOL0     H64360   5.211   7.700   7.033 -0.5695 -2.9964  1.6019
  477MOL0     H64361   5.029   7.724   7.169 -0.3840 -0.4779  0.9723
  477MOL0     H64362   5.051   7.740   7.342  0.2862 -0.4557 -0.3835
  477MOL0     H64363   4.941   7.983   7.254  1.9084  0.3691 -3.4677
  477MOL0     H64364   4.891   7.865   7.126  0.0056 -0.6024  0.2116
  477MOL0     H64365   4.827   7.803   7.409  1.3034  0.2120 -0.7387
  477MOL0     H64366   4.783   7.715   7.265  0.5677  0.5221 -0.1213
  477MOL0     H64367   4.701   8.010   7.307 -0.6612  0.6839  0.5788
  477MOL0     H64368   4.636   7.897   7.187 -1.5848  2.2913  1.0146
  477MOL0     H64369   4.597   7.883   7.491 -0.2736  2.0268  0.0494
  477MOL0     H64370   4.552   7.760   7.377  0.8545 -0.3491 -0.5055
  477MOL0     H64371   4.464   8.055   7.369  2.0542 -1.0308  0.5440
  477MOL0     H64372   4.414   7.965   7.244  0.0860 -0.6503  0.8247
  477MOL0     H64373   4.243   7.990   7.435  1.1728  0.8537  5.3344
  477MOL0     H64374   4.348   7.930   7.546 -4.3533 -0.0527  0.9298
  477MOL0     H64375   4.162   7.781   7.476 -0.6582 -1.1232  0.3288
  477MOL0     H64376   4.321   7.697   7.454 -1.7931 -0.6059  2.1639
  477MOL0     H64377   5.378   7.932   7.353  1.9709 -1.5898  1.0868
  477MOL0     H64378   5.600   7.878   7.289 -2.3631  1.1693  2.5751
  477MOL0     H64379   5.781   7.358   7.233 -0.4030 -2.1007 -4.0674
  477MOL0     H64380   6.000   7.253   7.148 -0.0277 -0.2180 -2.7218
  477MOL0     H64381   8.015   7.969   6.668 -1.6371 -0.7333 -0.5429
  477MOL0     H64382   8.168   8.050   6.812 -0.9663 -1.9090 -0.7892
  477MOL0     H64383   8.258   8.404   7.136 -0.6479  1.2859 -1.5040
  477MOL0     H64384   8.433   8.470   7.293  1.2980  0.8162 -0.0418
  477MOL0     H64385   8.868   8.448   7.134  1.3427 -0.9988  1.0071
  477MOL0     H64386   8.801   8.614   7.177  1.7491  1.2689  2.3423
  477MOL0     H64387   9.007   8.561   7.298  1.0602 -3.2356 -2.1274
  477MOL0     H64388   8.947   8.403   7.338 -2.4666 -0.1812 -3.1862
  477MOL0     H64389   8.798   8.454   7.499 -1.8987  2.0019 -0.2040
  477MOL0     H64390   8.800   8.629   7.472  0.3969 -0.0746  0.8566
  477MOL0     H64391   9.011   8.649   7.549  0.4538 -0.5335 -0.9822
  477MOL0     H64392   9.029   8.467   7.583 -1.5459 -1.2511 -2.0622
  477MOL0     H64393   8.815   8.611   7.911 -2.4221 -0.3451 -0.8928
  477MOL0     H64394   8.738   8.331   7.027  0.3182  0.5030 -0.8236
  477MOL0     H64395   8.581   8.276   6.866  2.9785 -1.4844  1.4934
  478MOL0     O64396   6.147   7.071   7.398 -0.4993 -0.4122 -0.0483
  478MOL0     C64397   6.170   6.955   7.362  0.1045  0.2981 -0.6125
  478MOL0     O64398   6.078   6.864   7.336 -0.0786  0.7239 -0.2509
  478MOL0     C64399   5.951   6.892   7.387 -0.8736 -0.3947  0.1024
  478MOL0     C64400   5.930   6.907   7.522  0.5050  0.1907 -0.4989
  478MOL0     C64401   5.806   6.935   7.570 -0.8161 -0.2494 -0.0498
  478MOL0     C64402   5.687   6.937   7.490  0.1400 -0.9017 -0.4566
  478MOL0     O64403   5.572   6.970   7.557 -0.5620 -0.1602 -0.2215
  478MOL0     C64404   5.461   7.022   7.479 -0.2108 -0.6713  0.2682
  478MOL0     C64405   5.499   7.158   7.419 -0.4326 -0.2121  0.5405
  478MOL0     C64406   5.428   7.185   7.281 -0.7790 -0.5033 -0.2092
  478MOL0     C64407   5.276   7.206   7.307 -0.2914 -0.2175  0.7245
  478MOL0     C64408   5.220   7.286   7.191 -0.6776  0.0450 -0.3211
  478MOL0     C64409   5.063   7.305   7.213 -0.6732 -1.0164 -1.0392
  478MOL0     C64410   4.999   7.419   7.123 -0.7264 -0.3992 -0.2642
  478MOL0     C64411   4.982   7.391   6.978 -0.7113  0.2714  0.8532
  478MOL0     N64412   4.944   7.512   6.913  0.3489  0.0605  0.1057
  478MOL0     C64413   4.998   7.561   6.796 -0.6378 -0.8413 -1.4703
  478MOL0     C64414   4.908   7.658   6.764 -0.4946  1.3092  1.0769
  478MOL0     C64415   4.915   7.744   6.631 -0.2460  0.4115  0.2682
  478MOL0     C64416   5.028   7.712   6.527  0.2586 -0.3500  0.0327
  478MOL0     C64417   5.003   7.588   6.443  0.7562 -0.5389 -1.4686
  478MOL0     C64418   4.915   7.612   6.326 -0.7882 -0.0715 -1.0207
  478MOL0     O64419   4.805   7.516   6.344  0.3824  0.1969 -0.0568
  478MOL0     C64420   4.674   7.546   6.312 -0.9262 -1.1358  0.1727
  478MOL0     C64421   4.631   7.673   6.332  0.5759  0.7837  0.7522
  478MOL0     C64422   4.500   7.700   6.309 -0.7683 -0.5162  1.3872
  478MOL0     C64423   4.459   7.837   6.353 -0.2627 -0.5974  0.1953
  478MOL0     C64424   4.409   7.607   6.252 -0.7142 -0.0474  0.2749
  478MOL0     C64425   4.269   7.642   6.201 -1.1624  0.5873 -0.3955
  478MOL0     O64426   4.198   7.529   6.184  0.8083 -0.6218 -0.0187
  478MOL0     C64427   4.071   7.548   6.133 -0.4058  0.2860 -0.2184
  478MOL0     C64428   4.040   7.515   6.003 -1.1577 -0.3356  0.6804
  478MOL0     C64429   3.921   7.540   5.945  0.3415 -0.7990 -0.0926
  478MOL0     C64430   3.825   7.603   6.025 -0.2018  0.7824  0.0736
  478MOL0     O64431   3.705   7.637   5.983 -0.6197  0.2530  0.3790
  478MOL0     C64432   3.628   7.518   5.951  0.5366 -0.2903 -0.2304
  478MOL0     C64433   3.582   7.421   6.061 -0.1439  0.4567 -0.6033
  478MOL0     C64434   3.497   7.491   6.169 -0.3492  0.5998 -0.0313
  478MOL0     C64435   3.412   7.386   6.244 -0.0055 -0.7859  0.0302
  478MOL0     C64436   3.314   7.456   6.351  0.1408 -0.1321  0.4823
  478MOL0     C64437   3.232   7.369   6.444  0.1372  0.5425  0.7237
  478MOL0     C64438   3.159   7.462   6.540 -0.8281 -0.1233 -0.1229
  478MOL0     C64439   3.019   7.413   6.589 -0.3675  0.4498  0.1548
  478MOL0    Cl64440   2.901   7.454   6.458 -0.5659 -0.2147 -0.0518
  478MOL0     C64441   3.856   7.636   6.158  0.5822 -0.0325 -0.6012
  478MOL0     C64442   3.972   7.597   6.213  1.1939 -0.0495 -0.4070
  478MOL0     O64443   4.230   7.755   6.206  0.0032 -0.6542 -0.0678
  478MOL0     C64444   4.458   7.480   6.239 -0.7982  0.7286 -0.3712
  478MOL0     C64445   4.594   7.449   6.263 -0.0353  0.5412 -0.5057
  478MOL0     N64446   4.799   7.664   6.852 -0.1657  0.4380 -0.3558
  478MOL0     N64447   4.820   7.570   6.941 -0.0962  0.0393  0.1309
  478MOL0     C64448   5.706   6.915   7.355 -0.5703 -0.1090  0.6192
  478MOL0     C64449   5.836   6.894   7.307 -0.6741 -0.1893  0.0307
  478MOL0     C64450   6.309   6.907   7.369 -0.4756 -0.3563  0.6116
  478MOL0     C64451   6.344   6.782   7.334 -0.1794 -0.3470  0.5510
  478MOL0     C64452   6.466   6.726   7.333 -0.2645 -0.8246 -0.7210
  478MOL0     C64453   6.571   6.808   7.378  0.0166  0.7790 -0.0191
  478MOL0     O64454   6.698   6.746   7.373  0.1992  1.3738  0.4307
  478MOL0     C64455   6.819   6.811   7.429  0.7111  0.3818  0.1167
  478MOL0     C64456   6.905   6.686   7.472  1.0707 -0.5675  0.7495
  478MOL0     C64457   7.024   6.734   7.566  0.0504  1.0141 -0.5206
  478MOL0     C64458   7.168   6.690   7.523  0.7995 -0.6533  0.3313
  478MOL0     C64459   7.261   6.713   7.634  0.8519 -0.5844  0.1214
  478MOL0     C64460   7.331   6.740   7.729  0.4256  0.3069 -0.3302
  478MOL0     C64461   6.552   6.941   7.414  0.1266 -0.0842 -0.1636
  478MOL0     C64462   6.416   6.990   7.411 -0.1537 -0.5878 -0.2840
  478MOL0     H64463   6.018   6.889   7.584 -0.3725 -1.3987  0.3447
  478MOL0     H64464   5.801   6.948   7.678  0.3811 -2.4188  0.3264
  478MOL0     H64465   5.430   6.944   7.408 -1.1582 -0.1017  0.0337
  478MOL0     H64466   5.373   7.045   7.540 -1.9211 -3.0996 -1.1089
  478MOL0     H64467   5.474   7.230   7.498 -0.2291  1.0607 -0.5277
  478MOL0     H64468   5.606   7.168   7.401 -0.6452  3.2708  0.6659
  478MOL0     H64469   5.466   7.279   7.240  2.5895 -1.7983 -0.4421
  478MOL0     H64470   5.448   7.105   7.209  2.0230  0.1315 -0.2698
  478MOL0     H64471   5.233   7.105   7.310 -0.2335 -0.2734 -0.1927
  478MOL0     H64472   5.252   7.262   7.398 -0.1998 -0.5746  0.9717
  478MOL0     H64473   5.261   7.387   7.184 -0.3881 -0.1373 -1.4715
  478MOL0     H64474   5.244   7.223   7.105 -0.9420 -1.3292  0.5726
  478MOL0     H64475   5.019   7.213   7.175  0.3163 -1.4339 -1.2056
  478MOL0     H64476   5.040   7.324   7.318  0.5619 -0.3620 -0.8554
  478MOL0     H64477   4.898   7.448   7.155  0.3449  1.6506  1.5484
  478MOL0     H64478   5.061   7.507   7.141 -2.5334  0.8995 -0.0814
  478MOL0     H64479   4.917   7.307   6.952  1.5334 -1.0763 -0.7304
  478MOL0     H64480   5.081   7.356   6.947 -0.7350 -2.8670  3.7402
  478MOL0     H64481   5.093   7.535   6.752 -0.1217 -1.6789  0.0408
  478MOL0     H64482   4.819   7.763   6.581 -1.0326 -0.5612  1.3463
  478MOL0     H64483   4.922   7.845   6.672 -4.1351  0.0403  2.4270
  478MOL0     H64484   5.125   7.703   6.577 -0.9255  0.0478  2.5505
  478MOL0     H64485   5.030   7.799   6.460  1.6261  0.5499  1.1633
  478MOL0     H64486   4.977   7.508   6.512 -0.3654  2.1995  1.5794
  478MOL0     H64487   5.104   7.578   6.402  1.3498  1.2116 -0.5421
  478MOL0     H64488   4.959   7.604   6.227  1.0643 -0.7844 -0.1909
  478MOL0     H64489   4.883   7.717   6.330 -0.3429  0.0507 -0.3730
  478MOL0     H64490   4.695   7.753   6.368 -0.1375  1.9350 -0.4578
  478MOL0     H64491   4.436   7.890   6.260 -2.4144 -1.4878  0.1540
  478MOL0     H64492   4.364   7.824   6.406  0.2525 -1.3438  0.9537
  478MOL0     H64493   4.535   7.888   6.412  0.5973 -0.1683 -1.2311
  478MOL0     H64494   4.110   7.466   5.936  0.3102 -1.4092  2.8759
  478MOL0     H64495   3.899   7.506   5.845 -1.2154 -0.0515 -0.0362
  478MOL0     H64496   3.543   7.556   5.894  0.1076  0.4604  0.8777
  478MOL0     H64497   3.680   7.452   5.881 -1.3255 -0.3469 -1.6427
  478MOL0     H64498   3.519   7.347   6.011  1.3694  0.3295 -2.4006
  478MOL0     H64499   3.667   7.370   6.105  1.0175 -1.4334 -4.5994
  478MOL0     H64500   3.435   7.571   6.127  0.4904  1.1818 -0.1844
  478MOL0     H64501   3.560   7.546   6.239  5.6898 -2.2848 -2.5233
  478MOL0     H64502   3.351   7.336   6.168  0.1654  0.8038 -1.1968
  478MOL0     H64503   3.475   7.305   6.283  2.3267  1.3957  1.0952
  478MOL0     H64504   3.235   7.515   6.303 -1.9224 -3.3178 -0.3731
  478MOL0     H64505   3.374   7.526   6.409  0.1804 -0.8952  1.3990
  478MOL0     H64506   3.153   7.311   6.396  1.5149  0.3204 -1.3788
  478MOL0     H64507   3.297   7.304   6.503 -2.2297 -4.0093 -1.2653
  478MOL0     H64508   3.150   7.561   6.495  2.0394  0.6785  0.8793
  478MOL0     H64509   3.223   7.486   6.625  1.8847 -1.4794 -1.6375
  478MOL0     H64510   2.989   7.461   6.683  1.3490  0.4942  0.7113
  478MOL0     H64511   3.013   7.307   6.614  0.8794  0.0061 -1.2686
  478MOL0     H64512   3.781   7.690   6.215 -0.9152 -2.1254 -0.4495
  478MOL0     H64513   4.001   7.622   6.314 -0.6505  1.0796 -0.1073
  478MOL0     H64514   4.394   7.398   6.209  1.2363 -0.2805 -2.3039
  478MOL0     H64515   4.623   7.346   6.247  1.5591 -0.0363  4.5074
  478MOL0     H64516   5.627   6.893   7.285  0.7027 -2.4805 -0.1786
  478MOL0     H64517   5.846   6.874   7.200 -3.3462  0.2757 -0.3883
  478MOL0     H64518   6.264   6.732   7.281 -1.0325  1.4920  0.0187
  478MOL0     H64519   6.475   6.622   7.305  2.1368 -0.9480  0.2895
  478MOL0     H64520   6.859   6.877   7.351 -0.8901  0.6904 -0.4977
  478MOL0     H64521   6.784   6.865   7.518 -0.4138  1.1341 -0.7512
  478MOL0     H64522   6.948   6.635   7.386  1.6418 -0.8762  1.2161
  478MOL0     H64523   6.843   6.616   7.528  0.8054 -0.3181  0.7725
  478MOL0     H64524   7.003   6.694   7.665  0.9576 -2.2526 -1.5176
  478MOL0     H64525   7.017   6.841   7.585 -2.2768  0.3013  4.0675
  478MOL0     H64526   7.204   6.739   7.432 -0.0938 -1.2523 -0.3619
  478MOL0     H64527   7.168   6.584   7.497  0.8975 -1.3022  2.7347
  478MOL0     H64528   7.381   6.788   7.812 -1.6956  1.9926  0.0670
  478MOL0     H64529   6.633   7.010   7.436  0.1912 -0.3358  0.4175
  478MOL0     H64530   6.404   7.098   7.413  1.6972 -0.3428 -0.4869
  479MOL0     O64531   9.206   5.160   3.146  0.6185 -0.3936  0.1354
  479MOL0     C64532   9.255   5.255   3.203  0.3191 -0.6759  0.3815
  479MOL0     O64533   9.220   5.286   3.330 -0.4716  0.5442 -0.2531
  479MOL0     C64534   9.124   5.208   3.398 -0.3141  0.3561  0.3932
  479MOL0     C64535   9.163   5.110   3.485 -1.2843 -0.0277  0.8244
  479MOL0     C64536   9.074   5.026   3.542  0.1672  0.3878 -1.0148
  479MOL0     C64537   8.935   5.045   3.513  0.2673 -0.0129 -0.1416
  479MOL0     O64538   8.828   4.976   3.577  0.7585 -0.0797  0.3967
  479MOL0     C64539   8.847   4.856   3.643  0.9165  0.8225 -0.2523
  479MOL0     C64540   8.717   4.777   3.602  0.2690 -1.1650 -0.1096
  479MOL0     C64541   8.590   4.839   3.637 -0.6180 -0.6493 -0.3274
  479MOL0     C64542   8.480   4.746   3.584 -0.3283  0.3567 -0.2581
  479MOL0     C64543   8.406   4.815   3.469  0.9141 -0.0477  0.3073
  479MOL0     C64544   8.270   4.752   3.456 -0.0468 -0.7974 -0.4572
  479MOL0     C64545   8.193   4.783   3.325 -0.3710  0.1672  0.5645
  479MOL0     C64546   8.160   4.931   3.296 -0.2448  0.5966  0.9556
  479MOL0     N64547   8.095   5.008   3.409 -0.7148 -0.1107 -0.1244
  479MOL0     C64548   8.096   5.145   3.427 -0.4259  0.4459 -0.7681
  479MOL0     C64549   8.017   5.167   3.532  0.8514  0.4478 -0.6998
  479MOL0     C64550   7.986   5.296   3.606  0.2937  0.5539 -0.8330
  479MOL0     C64551   7.941   5.417   3.512  0.3922 -0.5311 -0.0233
  479MOL0     C64552   7.845   5.376   3.399  0.0490  0.0178 -0.9406
  479MOL0     C64553   7.717   5.305   3.450  0.9376  0.2419 -0.0141
  479MOL0     O64554   7.627   5.380   3.540 -0.3790  0.2180 -0.1579
  479MOL0     C64555   7.550   5.484   3.489 -0.3115 -0.8129  0.6965
  479MOL0     C64556   7.555   5.534   3.355 -0.5466 -0.4858 -0.1252
  479MOL0     C64557   7.478   5.652   3.311 -0.4416  0.1084  0.4939
  479MOL0     C64558   7.513   5.705   3.179  0.0079 -0.2471 -0.3724
  479MOL0     C64559   7.388   5.712   3.402  0.0800 -0.3656  0.3339
  479MOL0     C64560   7.292   5.821   3.367 -0.0502 -0.0979 -0.2565
  479MOL0     O64561   7.223   5.874   3.481 -0.1914  0.3385  0.5399
  479MOL0     C64562   7.097   5.922   3.464  0.3660  0.0570  0.2948
  479MOL0     C64563   7.065   6.043   3.404 -0.8522 -0.4072  0.0372
  479MOL0     C64564   6.935   6.098   3.404  0.5089  0.5647  0.8084
  479MOL0     C64565   6.836   6.025   3.467 -0.2960  0.1529  0.3627
  479MOL0     O64566   6.701   6.059   3.470  0.0450  0.6114  0.3559
  479MOL0     C64567   6.652   6.168   3.388 -0.0718  0.2914  0.2083
  479MOL0     C64568   6.501   6.164   3.371 -0.4921 -0.1981  0.0591
  479MOL0     C64569   6.456   6.027   3.324  0.5852  0.5496 -0.0785
  479MOL0     C64570   6.318   6.039   3.291  0.0214 -0.1406 -0.1744
  479MOL0     C64571   6.262   5.895   3.305  0.5283  0.2220  0.3080
  479MOL0     C64572   6.108   5.897   3.271 -0.0579 -0.6213  0.2750
  479MOL0     C64573   6.073   5.956   3.127  0.6864 -0.1756  0.7189
  479MOL0     C64574   5.997   5.845   3.054  0.6926  0.5020  0.0589
  479MOL0    Cl64575   5.895   5.910   2.930 -0.1391 -0.4742 -0.0198
  479MOL0     C64576   6.872   5.907   3.529  0.3985  0.3227  0.4337
  479MOL0     C64577   7.002   5.856   3.529 -0.0905  0.2027  0.3952
  479MOL0     O64578   7.284   5.872   3.254  0.3202  1.2794 -0.7246
  479MOL0     C64579   7.379   5.653   3.529  1.0629  0.1068  1.6993
  479MOL0     C64580   7.454   5.546   3.571 -0.1555 -0.5173 -0.2088
  479MOL0     N64581   7.970   5.050   3.584  0.1421  0.5404 -0.0572
  479MOL0     N64582   8.018   4.956   3.506 -0.1191  0.0250 -0.4934
  479MOL0     C64583   8.898   5.139   3.416 -0.5182  0.1411  0.0979
  479MOL0     C64584   8.989   5.221   3.357 -0.2356  0.9244 -1.0613
  479MOL0     C64585   9.350   5.338   3.132  0.0021  0.3741  1.0530
  479MOL0     C64586   9.384   5.466   3.184 -0.0619  1.6879 -0.6048
  479MOL0     C64587   9.496   5.532   3.137 -0.3597 -0.3344  0.4871
  479MOL0     C64588   9.580   5.483   3.040 -0.7644  0.6678 -0.2048
  479MOL0     O64589   9.690   5.544   2.993 -0.0033  0.4655  0.6783
  479MOL0     C64590   9.781   5.599   3.084 -0.2732  1.0173  0.0578
  479MOL0     C64591   9.909   5.617   3.000  0.6151 -0.1581  0.2492
  479MOL0     C64592   9.976   5.476   2.961 -0.9762  0.4887  0.0041
  479MOL0     C64593  10.079   5.504   2.846  0.9044  0.8583  0.4577
  479MOL0     C64594  10.183   5.599   2.888  0.4200  0.9831  0.6508
  479MOL0     C64595  10.256   5.661   2.953  0.1748 -0.3984 -0.5392
  479MOL0     C64596   9.550   5.357   2.988 -0.3752 -0.0997 -0.5537
  479MOL0     C64597   9.437   5.286   3.035  0.2798  0.1407  0.1278
  479MOL0     H64598   9.269   5.095   3.503 -0.9708 -1.3731 -1.7701
  479MOL0     H64599   9.103   4.944   3.608  1.2773  0.5854 -1.2284
  479MOL0     H64600   8.928   4.792   3.608  1.3673 -0.0464  2.1796
  479MOL0     H64601   8.854   4.863   3.752  3.9036 -1.8790 -0.1121
  479MOL0     H64602   8.722   4.772   3.493 -1.7439 -0.5933 -0.2752
  479MOL0     H64603   8.727   4.676   3.642 -3.2004 -1.1882  1.0706
  479MOL0     H64604   8.580   4.834   3.746  1.6432 -1.9088 -0.1028
  479MOL0     H64605   8.588   4.939   3.594  2.1837 -0.0296  0.7599
  479MOL0     H64606   8.522   4.652   3.546 -1.8436  0.3215 -1.9791
  479MOL0     H64607   8.414   4.726   3.669  1.0452  1.9787  1.2739
  479MOL0     H64608   8.389   4.921   3.489 -1.3770 -0.0582 -1.2928
  479MOL0     H64609   8.458   4.796   3.374 -1.5805 -2.1506 -0.7571
  479MOL0     H64610   8.290   4.645   3.459  2.6073 -0.3487  0.3758
  479MOL0     H64611   8.205   4.769   3.543  0.6033 -0.4352 -0.0357
  479MOL0     H64612   8.251   4.737   3.245 -1.3442 -1.9570  1.0283
  479MOL0     H64613   8.098   4.730   3.311 -0.8781  1.1946 -0.0272
  479MOL0     H64614   8.095   4.932   3.209  0.4162 -0.4173  0.4272
  479MOL0     H64615   8.251   4.979   3.259 -0.8114  1.3812  0.5558
  479MOL0     H64616   8.147   5.219   3.366 -1.8151  4.9276  2.9297
  479MOL0     H64617   7.896   5.270   3.662 -1.6516  2.6502 -2.8157
  479MOL0     H64618   8.065   5.327   3.676  0.3172 -0.8424 -0.2050
  479MOL0     H64619   8.032   5.469   3.479 -1.8724  3.2570 -0.9015
  479MOL0     H64620   7.883   5.483   3.578 -1.6827 -1.0858 -1.1869
  479MOL0     H64621   7.900   5.303   3.340 -0.2390 -1.0187  0.0260
  479MOL0     H64622   7.832   5.465   3.338 -0.5943  1.7871  1.6104
  479MOL0     H64623   7.733   5.200   3.478  0.8036 -0.4307 -2.2090
  479MOL0     H64624   7.654   5.290   3.361  1.0621  2.8017 -0.6115
  479MOL0     H64625   7.627   5.500   3.281  1.9978  1.3806  1.3116
  479MOL0     H64626   7.588   5.641   3.132  0.2552  0.7906 -1.4224
  479MOL0     H64627   7.424   5.706   3.116 -0.7920  1.2155  0.7052
  479MOL0     H64628   7.554   5.806   3.192 -1.4412  0.1476  1.6230
  479MOL0     H64629   7.144   6.100   3.356 -0.3173 -1.5700 -0.4907
  479MOL0     H64630   6.915   6.199   3.370  0.6876  0.1004 -0.7762
  479MOL0     H64631   6.682   6.261   3.438  0.4975 -0.0433  0.5064
  479MOL0     H64632   6.703   6.159   3.292  0.7138 -0.6296  0.6891
  479MOL0     H64633   6.446   6.187   3.462  0.8487  0.7628  0.6670
  479MOL0     H64634   6.477   6.226   3.284  2.5011 -2.2710 -2.4780
  479MOL0     H64635   6.477   5.965   3.412 -0.1126 -2.1059 -1.6572
  479MOL0     H64636   6.511   5.964   3.254  2.1942 -4.3309  4.8168
  479MOL0     H64637   6.274   6.112   3.360  1.6148 -1.0304  1.9100
  479MOL0     H64638   6.326   6.063   3.185 -2.4900 -1.7733 -0.8004
  479MOL0     H64639   6.277   5.853   3.405 -1.6653 -1.1098  0.1528
  479MOL0     H64640   6.312   5.829   3.234 -1.1248 -1.5709  0.7264
  479MOL0     H64641   6.064   5.796   3.271 -2.8137  0.4694  0.6791
  479MOL0     H64642   6.042   5.954   3.337 -0.2162  0.5805 -0.8763
  479MOL0     H64643   6.169   5.979   3.079  2.7527 -0.4282  4.3534
  479MOL0     H64644   6.014   6.047   3.126 -0.2269 -0.7568  0.1536
  479MOL0     H64645   5.926   5.794   3.120  1.5892 -1.8129 -0.6698
  479MOL0     H64646   6.064   5.769   3.014  0.0654 -0.2350  0.3611
  479MOL0     H64647   6.796   5.850   3.581  1.9212 -0.2444  2.1391
  479MOL0     H64648   7.017   5.771   3.594 -1.1672 -1.6940 -1.7130
  479MOL0     H64649   7.307   5.688   3.603 -0.7028 -1.8403  1.0208
  479MOL0     H64650   7.422   5.505   3.666  1.0902  0.4656  0.6698
  479MOL0     H64651   8.793   5.143   3.390 -0.9495 -2.5317  1.0400
  479MOL0     H64652   8.954   5.293   3.284 -0.1982  2.8438  0.7324
  479MOL0     H64653   9.328   5.513   3.264 -0.0689  0.6786 -0.0018
  479MOL0     H64654   9.527   5.633   3.162  0.1103 -0.2971 -0.2542
  479MOL0     H64655   9.745   5.698   3.113  0.7997  1.4193  0.0625
  479MOL0     H64656   9.801   5.549   3.179  0.9947 -1.5107 -1.4211
  479MOL0     H64657   9.985   5.671   3.058  2.0559  1.2596 -2.7636
  479MOL0     H64658   9.886   5.687   2.920  0.4264  2.1427  2.1947
  479MOL0     H64659   9.893   5.426   2.910 -2.7458  4.0674 -0.9899
  479MOL0     H64660  10.017   5.417   3.044 -2.7992 -0.6275  0.1655
  479MOL0     H64661  10.035   5.533   2.749  0.2942 -3.1708 -0.6549
  479MOL0     H64662  10.132   5.413   2.817  1.1111  0.5205  1.8297
  479MOL0     H64663  10.325   5.710   3.019  0.6775  1.7327 -2.4775
  479MOL0     H64664   9.613   5.316   2.910 -0.0827  2.7186 -1.9396
  479MOL0     H64665   9.420   5.191   2.985  0.3451  1.7796 -3.2815
  480MOL0     O64666   1.694   1.902   9.305  0.1863  0.2429 -0.0392
  480MOL0     C64667   1.689   1.860   9.188 -0.4275  0.1479 -0.3210
  480MOL0     O64668   1.606   1.919   9.095  0.0307 -0.8548  0.3596
  480MOL0     C64669   1.488   1.979   9.135 -0.4303  0.3574 -0.5745
  480MOL0     C64670   1.456   2.092   9.070 -0.0159  0.2287  1.6065
  480MOL0     C64671   1.339   2.168   9.097 -0.4662  0.5328  0.4821
  480MOL0     C64672   1.235   2.105   9.168 -0.5283  0.7775  1.1305
  480MOL0     O64673   1.112   2.157   9.154 -0.9010  0.0763  0.6381
  480MOL0     C64674   1.009   2.077   9.213  0.2482 -0.4383 -1.3124
  480MOL0     C64675   0.869   2.141   9.198  0.0082 -0.1782  0.0336
  480MOL0     C64676   0.751   2.086   9.278  0.6529  0.6985 -0.2255
  480MOL0     C64677   0.771   2.082   9.432  0.0747  0.4042  0.4431
  480MOL0     C64678   0.662   2.006   9.516 -0.5321  0.2503 -0.4892
  480MOL0     C64679   0.679   2.028   9.662 -0.2995  0.7624 -0.7114
  480MOL0     C64680   0.822   2.013   9.713  0.0284 -0.2653  0.0517
  480MOL0     C64681   0.818   2.039   9.861 -0.4975 -0.1483 -0.1364
  480MOL0     N64682   0.835   2.179   9.900  0.2340  0.1283 -0.5680
  480MOL0     C64683   0.794   2.285   9.813 -0.5712 -0.2816 -0.0448
  480MOL0     C64684   0.844   2.395   9.873  0.3754  0.3557 -0.1704
  480MOL0     C64685   0.813   2.539   9.830  0.9277 -0.1255 -0.1077
  480MOL0     C64686   0.670   2.574   9.853  0.4174  0.3430  0.3938
  480MOL0     C64687   0.648   2.722   9.817 -0.6112  0.6028  0.5262
  480MOL0     C64688   0.505   2.757   9.806 -0.4361  0.1726  0.1200
  480MOL0     O64689   0.446   2.769   9.933  0.1805  0.1380 -0.1198
  480MOL0     C64690   0.311   2.783   9.937 -0.0509  1.1100 -0.9648
  480MOL0     C64691   0.226   2.829   9.845 -0.0025  0.4360  0.5099
  480MOL0     C64692   0.082   2.820   9.852 -0.1538  0.3167 -0.0929
  480MOL0     C64693  -0.001   2.868   9.733 -0.0223  0.3067 -0.3598
  480MOL0     C64694   0.024   2.768   9.969 -0.5119  0.6969  0.2155
  480MOL0     C64695  -0.117   2.749   9.992  0.5310  0.1788  0.1887
  480MOL0     O64696  -0.196   2.759   9.883  0.1296  0.7829  0.2007
  480MOL0     C64697  -0.331   2.740   9.897 -0.1495  0.6296 -0.3393
  480MOL0     C64698  -0.409   2.846   9.876 -0.1689 -0.8580 -0.1639
  480MOL0     C64699  -0.545   2.843   9.901  0.0381  0.3926 -0.1834
  480MOL0     C64700  -0.600   2.731   9.962  0.6394  0.1878  0.0080
  480MOL0     O64701  -0.732   2.712   9.998 -0.6505  0.2028  0.5866
  480MOL0     C64702  -0.817   2.828   9.999  1.0650  0.0694 -0.2793
  480MOL0     C64703  -0.962   2.787  10.040 -1.2236  0.4053 -0.7645
  480MOL0     C64704  -1.068   2.898  10.056  0.2064 -0.6288 -0.0017
  480MOL0     C64705  -1.211   2.847  10.039  1.0775  0.1308 -1.1668
  480MOL0     C64706  -1.249   2.777  10.174  0.7277  0.0370 -0.3776
  480MOL0     C64707  -1.405   2.778  10.189  0.4921  0.5674  0.7090
  480MOL0     C64708  -1.462   2.645  10.246  0.5082 -0.5534  0.1231
  480MOL0     C64709  -1.591   2.656  10.331  0.8941 -0.0129  0.0228
  480MOL0    Cl64710  -1.631   2.505  10.414  0.4474 -0.2022 -0.1087
  480MOL0     C64711  -0.523   2.612   9.975  0.9068 -0.1564  0.3761
  480MOL0     C64712  -0.392   2.619   9.944 -1.2972  0.0377 -1.1422
  480MOL0     O64713  -0.162   2.751  10.108  0.0825  0.4295  0.0442
  480MOL0     C64714   0.112   2.746  10.081 -0.2607 -0.6843  0.1323
  480MOL0     C64715   0.251   2.749  10.057 -1.0121  0.7384 -0.1199
  480MOL0     N64716   0.934   2.360   9.976  0.6906 -1.0138 -0.0960
  480MOL0     N64717   0.925   2.236   9.987 -0.5103  0.3016  0.4796
  480MOL0     C64718   1.271   1.994   9.246 -0.4393 -0.3145 -0.2559
  480MOL0     C64719   1.390   1.926   9.225 -0.0856  0.4909  0.7832
  480MOL0     C64720   1.777   1.745   9.163  0.0644  0.1170 -0.3077
  480MOL0     C64721   1.858   1.688   9.277 -0.7890 -0.2726 -0.3826
  480MOL0     C64722   1.937   1.577   9.257 -1.0343 -0.0713  0.5229
  480MOL0     C64723   1.947   1.521   9.130  0.0306  0.2973 -0.3107
  480MOL0     O64724   2.035   1.417   9.115 -0.1431  0.1884  0.0046
  480MOL0     C64725   2.014   1.330   8.999 -0.4970 -0.1051 -0.3212
  480MOL0     C64726   2.125   1.221   8.984 -0.4102 -0.7135  0.0214
  480MOL0     C64727   2.264   1.298   8.990 -0.5275 -0.4588  0.2553
  480MOL0     C64728   2.373   1.201   8.926  1.0039  0.1884  0.2270
  480MOL0     C64729   2.497   1.272   8.939 -0.6949 -0.4546 -0.1299
  480MOL0     C64730   2.590   1.349   8.955  0.1607  0.2648 -0.2984
  480MOL0     C64731   1.866   1.567   9.024  0.9125 -0.3137 -0.1265
  480MOL0     C64732   1.778   1.678   9.042 -0.8633 -0.0996 -0.0526
  480MOL0     H64733   1.528   2.130   8.998 -0.4131  2.1626  2.1837
  480MOL0     H64734   1.318   2.259   9.043 -0.3188 -0.5297 -1.4743
  480MOL0     H64735   1.015   1.973   9.180  0.6508  0.1730 -3.2585
  480MOL0     H64736   1.034   2.061   9.319  2.3385 -2.6218 -2.0471
  480MOL0     H64737   0.885   2.249   9.211  1.8510 -0.0310 -2.7419
  480MOL0     H64738   0.834   2.126   9.096  1.2159  2.1911 -0.8112
  480MOL0     H64739   0.660   2.139   9.250 -0.9441  0.1315  3.3707
  480MOL0     H64740   0.725   1.984   9.249 -2.2143  0.2266  3.3287
  480MOL0     H64741   0.871   2.043   9.456  2.0605  4.1189 -0.8516
  480MOL0     H64742   0.773   2.186   9.467 -1.3699  1.0714 -1.2647
  480MOL0     H64743   0.562   2.032   9.480 -0.0637  1.7350 -0.7901
  480MOL0     H64744   0.666   1.898   9.494 -0.5354  0.3684 -1.1007
  480MOL0     H64745   0.641   2.127   9.690  0.8325  1.6638 -2.1601
  480MOL0     H64746   0.611   1.955   9.708  1.1163 -0.2531 -0.1762
  480MOL0     H64747   0.861   1.913   9.692  1.4074 -0.1788  1.9279
  480MOL0     H64748   0.888   2.089   9.669  0.7118 -1.3650 -0.8893
  480MOL0     H64749   0.897   1.989   9.918  0.1317  2.3341  1.3296
  480MOL0     H64750   0.724   2.007   9.906 -0.2584 -0.7479 -0.0475
  480MOL0     H64751   0.717   2.288   9.737  0.2116 -1.2198 -0.8944
  480MOL0     H64752   0.876   2.595   9.899 -0.7771  0.8796  0.6965
  480MOL0     H64753   0.853   2.546   9.728 -1.4679 -3.7869 -1.4807
  480MOL0     H64754   0.640   2.570   9.958 -0.7494 -0.3301  0.0439
  480MOL0     H64755   0.603   2.512   9.793  2.4262  2.0767 -4.1805
  480MOL0     H64756   0.712   2.740   9.731  2.2564  1.1943  2.6459
  480MOL0     H64757   0.708   2.786   9.883  3.8498  0.6573 -3.1165
  480MOL0     H64758   0.458   2.677   9.748  0.8089 -0.0658 -0.5955
  480MOL0     H64759   0.504   2.849   9.746 -1.5566 -1.3416 -2.3688
  480MOL0     H64760   0.271   2.863   9.752 -1.5412 -1.6786 -1.1338
  480MOL0     H64761   0.067   2.928   9.673 -1.1934  0.8201 -1.2088
  480MOL0     H64762  -0.039   2.777   9.684 -0.8802 -0.7157  2.0233
  480MOL0     H64763  -0.072   2.938   9.777  0.7259  0.2190  1.0304
  480MOL0     H64764  -0.361   2.935   9.837  1.8334 -1.2049  1.3406
  480MOL0     H64765  -0.600   2.935   9.883 -1.7061 -0.7098 -0.7116
  480MOL0     H64766  -0.790   2.896  10.080  0.3695  0.0346 -0.0058
  480MOL0     H64767  -0.825   2.882   9.905 -1.6559  0.3009  0.0005
  480MOL0     H64768  -0.990   2.711   9.966 -1.5172  0.5902 -0.8449
  480MOL0     H64769  -0.935   2.748  10.138 -0.9997 -0.4159 -1.1447
  480MOL0     H64770  -1.043   2.966   9.975  1.5599 -1.4683 -0.3275
  480MOL0     H64771  -1.038   2.942  10.152  1.0888 -1.9634  0.3675
  480MOL0     H64772  -1.283   2.926  10.018 -0.0663 -0.9314 -1.3369
  480MOL0     H64773  -1.211   2.775   9.957 -2.2526 -0.6331 -0.6483
  480MOL0     H64774  -1.203   2.823  10.262  0.8244 -1.4820  0.3965
  480MOL0     H64775  -1.212   2.674  10.172 -1.6858 -0.8950 -2.3205
  480MOL0     H64776  -1.445   2.866  10.240 -2.7546  0.3149 -1.1352
  480MOL0     H64777  -1.439   2.779  10.085 -1.0752 -1.8909  1.1175
  480MOL0     H64778  -1.382   2.607  10.311  1.5771 -0.4141 -1.0521
  480MOL0     H64779  -1.479   2.571  10.167 -1.5776 -0.2187  0.2010
  480MOL0     H64780  -1.671   2.683  10.261  1.8591 -0.5328 -1.3497
  480MOL0     H64781  -1.587   2.733  10.408 -0.7735  0.0523  0.0931
  480MOL0     H64782  -0.570   2.524  10.018  3.9036 -2.1729 -0.1848
  480MOL0     H64783  -0.342   2.527   9.973  1.0350  0.5674 -3.1422
  480MOL0     H64784   0.069   2.705  10.172  0.4103 -0.1890  0.6811
  480MOL0     H64785   0.323   2.725  10.135 -2.7699 -2.1246  0.7468
  480MOL0     H64786   1.203   1.940   9.311  1.8411 -1.5582  1.2210
  480MOL0     H64787   1.412   1.829   9.267  1.9326  0.8489  0.6556
  480MOL0     H64788   1.864   1.727   9.379 -0.4177 -2.9632  0.7125
  480MOL0     H64789   2.001   1.535   9.333  1.2279  2.5233  0.2258
  480MOL0     H64790   1.919   1.282   9.021  0.3078 -2.2736 -1.2800
  480MOL0     H64791   2.005   1.382   8.903 -3.0866  0.1336 -0.0161
  480MOL0     H64792   2.117   1.166   8.890 -0.1049 -1.6518  0.5258
  480MOL0     H64793   2.123   1.141   9.059 -0.3435 -1.1314 -0.4179
  480MOL0     H64794   2.280   1.301   9.098  0.3326  0.6171  0.1111
  480MOL0     H64795   2.251   1.398   8.947 -0.3003 -0.8649 -0.7744
  480MOL0     H64796   2.355   1.175   8.821 -0.1577 -3.3453  1.1700
  480MOL0     H64797   2.370   1.111   8.988 -0.0316  1.6839  2.4735
  480MOL0     H64798   2.671   1.418   8.962  0.3281  0.2239 -1.5856
  480MOL0     H64799   1.862   1.519   8.927  1.8754 -0.8511  0.0805
  480MOL0     H64800   1.705   1.709   8.969  1.2292  2.8488 -1.1144
  481MOL0     O64801   9.891   8.380   3.519  0.3918 -0.2504  0.0655
  481MOL0     C64802   9.831   8.304   3.599 -0.4083  0.2712  0.0627
  481MOL0     O64803   9.739   8.206   3.560  0.3158 -0.7737 -0.0463
  481MOL0     C64804   9.607   8.232   3.531 -0.1023 -0.0438  0.2346
  481MOL0     C64805   9.520   8.118   3.498 -0.6717 -0.5535 -0.5787
  481MOL0     C64806   9.389   8.139   3.455 -0.3822  0.9800 -0.7158
  481MOL0     C64807   9.339   8.264   3.444  0.8031  0.1659 -0.6440
  481MOL0     O64808   9.215   8.274   3.395  0.7985  0.1331  0.7256
  481MOL0     C64809   9.146   8.393   3.348  0.6198 -0.5376  0.0415
  481MOL0     C64810   9.005   8.354   3.311 -0.7264  0.2636  0.7322
  481MOL0     C64811   8.921   8.478   3.276  0.0414 -0.1086 -0.2567
  481MOL0     C64812   8.806   8.450   3.171  0.2697 -0.3677  0.3293
  481MOL0     C64813   8.704   8.565   3.158 -0.0277  0.1593  0.0907
  481MOL0     C64814   8.573   8.511   3.104  0.3574  1.1605 -0.0925
  481MOL0     C64815   8.483   8.629   3.077  0.3036  0.8567 -0.6659
  481MOL0     C64816   8.363   8.576   2.993 -0.0181  0.5634 -0.6661
  481MOL0     N64817   8.283   8.693   2.963  0.7274 -0.4778 -0.7868
  481MOL0     C64818   8.203   8.754   3.055  0.2505  0.5423 -0.8556
  481MOL0     C64819   8.143   8.851   2.987  0.1169  0.2561 -1.0557
  481MOL0     C64820   8.089   8.971   3.061  0.2938 -0.8200 -0.4550
  481MOL0     C64821   7.966   8.943   3.143 -0.1845  0.5270 -0.3758
  481MOL0     C64822   7.844   8.887   3.070  0.9640  0.1625  0.6963
  481MOL0     C64823   7.707   8.884   3.153 -0.3639 -0.9180 -0.2800
  481MOL0     O64824   7.666   8.749   3.163  0.3190  0.2204  0.3096
  481MOL0     C64825   7.544   8.721   3.224 -1.0144 -0.5441  0.1793
  481MOL0     C64826   7.433   8.809   3.238  0.2204 -0.1162  0.2856
  481MOL0     C64827   7.301   8.770   3.270  0.1612 -0.1965  0.3772
  481MOL0     C64828   7.192   8.869   3.274 -0.6020  0.4068 -0.1169
  481MOL0     C64829   7.275   8.630   3.282  0.5598 -0.0765  0.4582
  481MOL0     C64830   7.147   8.578   3.310  0.6383  0.4478  0.0220
  481MOL0     O64831   7.071   8.631   3.417  1.0123 -0.1767  0.3651
  481MOL0     C64832   6.942   8.587   3.430  0.9707 -0.2793  0.8097
  481MOL0     C64833   6.846   8.676   3.388 -0.0517 -0.2351  0.6175
  481MOL0     C64834   6.708   8.652   3.415  0.2925 -0.3320  0.1998
  481MOL0     C64835   6.670   8.535   3.479 -0.3442 -0.8183 -0.8838
  481MOL0     O64836   6.538   8.520   3.496 -0.0995  0.8773  0.2934
  481MOL0     C64837   6.486   8.385   3.501 -0.4497  0.0383 -0.3456
  481MOL0     C64838   6.329   8.378   3.502 -0.2252  0.4549  0.0337
  481MOL0     C64839   6.274   8.435   3.628  0.3392  0.8937  0.0033
  481MOL0     C64840   6.113   8.421   3.622 -0.7672  0.8478 -0.4241
  481MOL0     C64841   6.045   8.543   3.546  0.7585  1.5329 -0.8819
  481MOL0     C64842   5.888   8.545   3.564 -1.3818 -0.1718  1.0426
  481MOL0     C64843   5.822   8.663   3.487 -0.1582 -0.0715 -0.4197
  481MOL0     C64844   5.830   8.670   3.328  0.3309 -0.0709 -0.2571
  481MOL0    Cl64845   5.707   8.566   3.267 -0.2495 -0.2221 -0.0246
  481MOL0     C64846   6.769   8.440   3.521 -0.1575 -0.1104 -0.1792
  481MOL0     C64847   6.903   8.467   3.497  0.2388 -0.5125  0.4652
  481MOL0     O64848   7.123   8.471   3.257  0.0288  0.1404 -0.3348
  481MOL0     C64849   7.384   8.541   3.273  0.8953  0.7406 -0.1793
  481MOL0     C64850   7.514   8.588   3.249  0.5011  0.1995 -0.4368
  481MOL0     N64851   8.190   8.851   2.861 -0.1776  0.0742  0.4024
  481MOL0     N64852   8.274   8.752   2.843 -0.8557  0.3882 -0.0887
  481MOL0     C64853   9.418   8.375   3.472 -0.7498 -0.3938 -0.3752
  481MOL0     C64854   9.551   8.358   3.522  0.0813 -0.8346 -0.4760
  481MOL0     C64855   9.867   8.318   3.749 -0.3199 -0.1539  0.1525
  481MOL0     C64856   9.817   8.229   3.844 -0.6061 -0.4743  0.0853
  481MOL0     C64857   9.859   8.237   3.973  0.3852  0.1236 -0.2810
  481MOL0     C64858   9.944   8.335   4.015 -0.3129 -0.2441 -0.1363
  481MOL0     O64859   9.975   8.334   4.149  0.4122 -0.2968  1.1178
  481MOL0     C64860   9.993   8.467   4.206  0.9166 -0.0035 -0.1009
  481MOL0     C64861  10.068   8.433   4.347 -0.0002 -0.3775 -0.1600
  481MOL0     C64862  10.138   8.557   4.403 -0.3104  0.2007  0.7076
  481MOL0     C64863  10.273   8.569   4.332  1.1575 -0.1670  0.0405
  481MOL0     C64864  10.359   8.676   4.386 -0.0704 -0.9584 -0.2122
  481MOL0     C64865  10.427   8.766   4.434  0.2464 -0.5691 -0.4728
  481MOL0     C64866   9.988   8.431   3.926 -0.0108  0.4850 -0.3021
  481MOL0     C64867   9.950   8.420   3.791 -0.5431  0.0460 -0.3110
  481MOL0     H64868   9.573   8.024   3.514  1.0578  0.5465  0.4972
  481MOL0     H64869   9.322   8.057   3.435  1.0281 -0.2849 -0.4626
  481MOL0     H64870   9.133   8.467   3.427 -1.5757 -0.0974 -0.6375
  481MOL0     H64871   9.197   8.438   3.263 -1.5610 -2.4972 -2.5076
  481MOL0     H64872   9.019   8.299   3.217  1.2971  0.0619  1.0947
  481MOL0     H64873   8.951   8.291   3.382  1.8191 -3.6750 -0.5605
  481MOL0     H64874   8.879   8.516   3.368  0.3857 -1.3071  0.4248
  481MOL0     H64875   8.985   8.559   3.238  0.7334  0.3236  1.7025
  481MOL0     H64876   8.848   8.433   3.072 -0.4140 -1.4719  0.2121
  481MOL0     H64877   8.756   8.355   3.192 -1.2355  0.2662 -0.2796
  481MOL0     H64878   8.689   8.611   3.255 -3.2910 -0.4277 -0.0213
  481MOL0     H64879   8.742   8.636   3.084 -1.1708 -0.6116 -1.2960
  481MOL0     H64880   8.592   8.449   3.016 -1.8198 -1.5948  1.2319
  481MOL0     H64881   8.526   8.441   3.175  3.2184 -2.7480 -1.6962
  481MOL0     H64882   8.444   8.668   3.171  0.7845 -3.7029  1.6796
  481MOL0     H64883   8.542   8.703   3.022  1.6073  0.6066  0.3521
  481MOL0     H64884   8.308   8.491   3.034  2.9596 -1.4745 -0.5202
  481MOL0     H64885   8.401   8.541   2.896 -2.0245  0.5089 -1.4778
  481MOL0     H64886   8.201   8.733   3.161  1.5774 -0.6031 -1.0283
  481MOL0     H64887   8.167   9.004   3.130 -0.8980  0.5497  0.2910
  481MOL0     H64888   8.069   9.055   2.995 -3.3247 -1.0388  0.1752
  481MOL0     H64889   7.936   9.037   3.191  0.9951  0.3601  0.7523
  481MOL0     H64890   7.988   8.861   3.212 -0.8940  0.4205 -0.2663
  481MOL0     H64891   7.877   8.786   3.044  3.2409  1.0560 -0.1358
  481MOL0     H64892   7.833   8.951   2.982  1.7948 -1.9229 -1.0080
  481MOL0     H64893   7.630   8.936   3.096 -0.9406 -0.2857  1.0332
  481MOL0     H64894   7.728   8.920   3.254  0.0474 -0.0134 -0.6796
  481MOL0     H64895   7.443   8.912   3.207  1.3075  0.4975  2.4760
  481MOL0     H64896   7.146   8.887   3.371  0.9792  2.1422  0.3582
  481MOL0     H64897   7.228   8.959   3.224  2.7047 -0.1397  1.0325
  481MOL0     H64898   7.115   8.822   3.211  0.5230  0.2787 -1.4387
  481MOL0     H64899   6.872   8.753   3.316 -0.3898 -0.4343  0.2741
  481MOL0     H64900   6.649   8.725   3.362  1.0544 -1.8904 -3.0037
  481MOL0     H64901   6.525   8.319   3.424 -2.0602  2.4044 -3.4227
  481MOL0     H64902   6.532   8.345   3.592 -0.0252  1.8204  0.2660
  481MOL0     H64903   6.295   8.437   3.416  1.2118  1.9873  0.4732
  481MOL0     H64904   6.301   8.273   3.494  3.7453 -0.6672 -4.1812
  481MOL0     H64905   6.299   8.539   3.646  0.1941  1.0401 -0.5977
  481MOL0     H64906   6.311   8.389   3.720 -2.5292 -0.0665  0.7908
  481MOL0     H64907   6.089   8.327   3.571 -2.1783  1.6072 -1.2293
  481MOL0     H64908   6.074   8.423   3.724  1.9508 -1.9972  0.8287
  481MOL0     H64909   6.063   8.541   3.438 -3.3616  1.0972 -1.7282
  481MOL0     H64910   6.084   8.637   3.587  1.0601  1.3708 -0.7870
  481MOL0     H64911   5.854   8.450   3.523  2.2923 -0.6100 -1.4598
  481MOL0     H64912   5.864   8.569   3.668 -2.9225  2.7566  0.1185
  481MOL0     H64913   5.875   8.750   3.526 -2.5429  0.5394  1.7497
  481MOL0     H64914   5.719   8.669   3.523 -0.0094 -0.8149  0.1644
  481MOL0     H64915   5.930   8.641   3.293 -0.1163 -1.9399 -0.1264
  481MOL0     H64916   5.807   8.774   3.304 -1.5874  0.1182  1.9933
  481MOL0     H64917   6.749   8.343   3.566  0.7995 -0.2873 -0.1203
  481MOL0     H64918   6.979   8.395   3.526  0.5025  0.8271  3.3971
  481MOL0     H64919   7.370   8.433   3.275  1.6917  0.6182  2.0213
  481MOL0     H64920   7.601   8.524   3.240  0.4314  0.2623 -1.9860
  481MOL0     H64921   9.382   8.476   3.451  1.2905  0.2807 -0.8693
  481MOL0     H64922   9.611   8.437   3.565 -1.2278 -0.1472  0.1242
  481MOL0     H64923   9.747   8.153   3.811 -0.1939 -0.6563 -0.3765
  481MOL0     H64924   9.822   8.162   4.042 -0.1787  0.5055 -0.1614
  481MOL0     H64925  10.057   8.535   4.149  1.0334 -0.6530 -0.7545
  481MOL0     H64926   9.896   8.513   4.224  0.7656  0.8197 -2.6056
  481MOL0     H64927  10.137   8.349   4.351  2.8868  1.8834  2.4298
  481MOL0     H64928   9.985   8.407   4.413  1.4306 -3.1416  0.6950
  481MOL0     H64929  10.154   8.541   4.510  1.9831  0.0795  0.4036
  481MOL0     H64930  10.083   8.650   4.386  0.6928  0.8428  0.8386
  481MOL0     H64931  10.251   8.586   4.226  1.0634 -0.6534 -0.0198
  481MOL0     H64932  10.317   8.469   4.341  0.2598 -0.5469  0.3205
  481MOL0     H64933  10.470   8.839   4.500 -1.2579 -1.0361  1.1088
  481MOL0     H64934  10.049   8.518   3.947 -1.1990  1.1758  0.3824
  481MOL0     H64935   9.991   8.485   3.715 -0.9506 -0.1781 -0.7239
  482MOL0     O64936   3.877   4.210   1.368 -1.0350  0.1990  0.3620
  482MOL0     C64937   3.884   4.250   1.482 -1.0524 -0.7714 -0.1754
  482MOL0     O64938   3.819   4.208   1.594 -0.1852  0.9240  0.7363
  482MOL0     C64939   3.748   4.088   1.595  0.0552  0.1373 -0.4919
  482MOL0     C64940   3.807   3.962   1.607 -0.1227 -0.7027 -1.0440
  482MOL0     C64941   3.725   3.848   1.637  0.7561  0.5485  0.8018
  482MOL0     C64942   3.585   3.856   1.628 -0.0237 -0.1148  0.3523
  482MOL0     O64943   3.496   3.756   1.628  0.2069 -0.0392 -0.1811
  482MOL0     C64944   3.541   3.635   1.675 -0.1152  0.0773 -0.0117
  482MOL0     C64945   3.450   3.515   1.683 -0.0608 -0.4487  0.7450
  482MOL0     C64946   3.377   3.488   1.549  0.3246 -0.3122 -0.0864
  482MOL0     C64947   3.264   3.388   1.577  0.7293  0.2436 -0.1122
  482MOL0     C64948   3.157   3.403   1.484  0.1734  0.2394  0.4983
  482MOL0     C64949   3.035   3.311   1.525  0.1481 -0.4567  0.4931
  482MOL0     C64950   2.923   3.322   1.426 -0.3768 -0.3017 -0.4149
  482MOL0     C64951   2.804   3.238   1.460 -0.3904 -0.3887  0.0732
  482MOL0     N64952   2.714   3.229   1.352  0.4353 -0.0725 -0.2981
  482MOL0     C64953   2.685   3.118   1.281  0.0802 -0.0935 -0.5579
  482MOL0     C64954   2.572   3.155   1.210 -0.0097  0.8040 -0.2738
  482MOL0     C64955   2.493   3.061   1.128  0.2974 -0.0070  0.4465
  482MOL0     C64956   2.503   3.085   0.968 -0.1132  0.8436 -0.6599
  482MOL0     C64957   2.398   3.187   0.932 -0.2914  0.1057  0.1167
  482MOL0     C64958   2.392   3.213   0.782  0.6781 -0.2256  0.1034
  482MOL0     O64959   2.306   3.329   0.763 -0.4181 -0.6681  0.0917
  482MOL0     C64960   2.176   3.303   0.723  0.9831  0.0658  0.3994
  482MOL0     C64961   2.106   3.411   0.667 -0.1835 -0.0247 -0.0566
  482MOL0     C64962   1.972   3.397   0.624  0.5632 -0.0190 -0.0182
  482MOL0     C64963   1.907   3.522   0.574  0.6889 -0.5534  0.4812
  482MOL0     C64964   1.901   3.275   0.637 -0.4972 -0.3821 -0.2540
  482MOL0     C64965   1.752   3.252   0.591 -0.6032 -0.6274 -0.0637
  482MOL0     O64966   1.682   3.352   0.521  0.1650 -0.1564  0.2751
  482MOL0     C64967   1.551   3.327   0.472 -0.7631  0.0171 -0.8608
  482MOL0     C64968   1.516   3.353   0.342  0.3053 -0.0392 -0.1573
  482MOL0     C64969   1.391   3.333   0.288 -0.0108  0.2381 -0.5461
  482MOL0     C64970   1.298   3.275   0.376  0.6970  0.8403  1.1406
  482MOL0     O64971   1.171   3.250   0.327  1.0344  0.1444 -0.2035
  482MOL0     C64972   1.055   3.323   0.378 -0.4607  0.2439 -0.1951
  482MOL0     C64973   1.008   3.423   0.278 -0.3527  0.2863 -0.0814
  482MOL0     C64974   0.938   3.365   0.154  0.8770 -0.1254  0.2402
  482MOL0     C64975   0.870   3.488   0.088  0.8597 -0.6478  0.4797
  482MOL0     C64976   0.803   3.445  -0.048  0.3783 -0.0231 -0.9303
  482MOL0     C64977   0.758   3.563  -0.127  0.0091  0.0756  0.3698
  482MOL0     C64978   0.641   3.636  -0.053 -0.5134 -0.0595  1.0669
  482MOL0     C64979   0.566   3.728  -0.147  0.3208 -0.1314  0.1170
  482MOL0    Cl64980   0.403   3.776  -0.074  0.1031 -0.0847  0.4752
  482MOL0     C64981   1.321   3.243   0.508  0.1308  0.3808 -0.0073
  482MOL0     C64982   1.445   3.282   0.557  0.0458 -0.1694 -0.5813
  482MOL0     O64983   1.704   3.139   0.613  0.2056  0.8443  1.2886
  482MOL0     C64984   1.973   3.168   0.704  0.2425  0.5127  0.2844
  482MOL0     C64985   2.109   3.181   0.738 -0.7787  0.6124  0.2579
  482MOL0     N64986   2.552   3.285   1.233  0.3245  0.1172  0.2816
  482MOL0     N64987   2.636   3.335   1.326  1.4679 -0.5266 -0.2559
  482MOL0     C64988   3.530   3.982   1.599  0.0505  0.7362 -0.2715
  482MOL0     C64989   3.611   4.097   1.596 -0.4643 -0.4987  0.0119
  482MOL0     C64990   3.958   4.381   1.501 -0.5110 -0.1338 -0.3197
  482MOL0     C64991   3.993   4.429   1.627  0.3282 -0.5537 -0.2423
  482MOL0     C64992   4.088   4.537   1.642 -0.0493 -0.2491 -0.1280
  482MOL0     C64993   4.148   4.601   1.538  0.1613 -0.0242  0.6760
  482MOL0     O64994   4.227   4.713   1.563  0.2907 -0.1269 -0.9378
  482MOL0     C64995   4.301   4.772   1.450 -0.4353 -0.6378  0.1543
  482MOL0     C64996   4.436   4.711   1.406  0.1905 -0.3141 -0.7551
  482MOL0     C64997   4.547   4.730   1.516  0.0178  0.7497  0.0908
  482MOL0     C64998   4.642   4.843   1.460 -0.0520  0.2289  0.1565
  482MOL0     C64999   4.743   4.856   1.565  0.2601  0.4335  0.3279
  482MOL0     C65000   4.834   4.883   1.645 -1.0108  0.2105  0.1212
  482MOL0     C65001   4.108   4.556   1.407  0.6783 -0.1512 -0.3102
  482MOL0     C65002   4.009   4.450   1.394 -0.9739  0.1326  0.0299
  482MOL0     H65003   3.915   3.952   1.606 -0.0926 -0.3538 -1.3417
  482MOL0     H65004   3.764   3.751   1.666  0.3453  1.0094  3.1101
  482MOL0     H65005   3.622   3.601   1.610  0.9285 -2.0480  2.2250
  482MOL0     H65006   3.594   3.636   1.771 -1.4981 -0.7701  0.7987
  482MOL0     H65007   3.503   3.422   1.705 -0.4832 -0.5657  1.2842
  482MOL0     H65008   3.387   3.531   1.771  0.3889 -1.4721  1.2672
  482MOL0     H65009   3.335   3.585   1.522 -0.5255 -0.1077  1.8585
  482MOL0     H65010   3.433   3.462   1.458 -1.4764 -0.4969 -1.1840
  482MOL0     H65011   3.292   3.283   1.570 -2.5252 -0.8426  1.3241
  482MOL0     H65012   3.231   3.394   1.681 -1.3293 -1.6273 -0.5620
  482MOL0     H65013   3.111   3.502   1.484 -0.0987  0.1136  0.5402
  482MOL0     H65014   3.185   3.372   1.382 -1.2414 -1.1962  0.4958
  482MOL0     H65015   3.065   3.206   1.528 -2.0127 -1.1251  0.5795
  482MOL0     H65016   3.004   3.350   1.622 -0.4900  3.6678 -1.1635
  482MOL0     H65017   2.894   3.427   1.424 -0.5275 -0.3435 -0.4551
  482MOL0     H65018   2.960   3.298   1.326 -0.3310  2.7257 -1.2231
  482MOL0     H65019   2.755   3.276   1.550  0.6177 -0.4154  0.6595
  482MOL0     H65020   2.849   3.140   1.478 -1.2520 -1.0342 -1.1952
  482MOL0     H65021   2.743   3.026   1.275 -0.7971 -0.7348  0.5410
  482MOL0     H65022   2.519   2.963   1.170 -2.4857 -0.7311  0.6568
  482MOL0     H65023   2.387   3.068   1.152 -0.5437 -2.2992 -2.0596
  482MOL0     H65024   2.493   2.991   0.912 -0.6769 -0.1741  1.0634
  482MOL0     H65025   2.599   3.123   0.932 -0.3029  1.0949 -0.9024
  482MOL0     H65026   2.412   3.285   0.978 -1.7543  0.3864  0.0217
  482MOL0     H65027   2.299   3.159   0.968 -1.1068  1.9044 -0.5941
  482MOL0     H65028   2.357   3.121   0.733 -0.0214 -0.9668  1.9168
  482MOL0     H65029   2.490   3.238   0.738  1.8906  0.6026  3.0055
  482MOL0     H65030   2.152   3.508   0.655 -3.1424  1.5601  0.3821
  482MOL0     H65031   1.913   3.521   0.464 -1.0220 -1.1167  0.3534
  482MOL0     H65032   1.803   3.540   0.600  0.2339 -0.0413 -1.4755
  482MOL0     H65033   1.961   3.608   0.613 -1.2670  1.3490 -0.7819
  482MOL0     H65034   1.596   3.376   0.273 -2.1055  1.3249 -2.6834
  482MOL0     H65035   1.365   3.350   0.184 -2.1180 -0.3843 -0.1707
  482MOL0     H65036   0.972   3.266   0.418  0.7705 -1.4296  0.0831
  482MOL0     H65037   1.093   3.381   0.463 -3.0665  0.7392  0.7169
  482MOL0     H65038   0.941   3.492   0.329  0.1445 -0.0899  1.1199
  482MOL0     H65039   1.095   3.471   0.232  1.6729 -1.6347  1.4724
  482MOL0     H65040   0.860   3.298   0.191  1.3602 -0.4590  0.6735
  482MOL0     H65041   1.010   3.310   0.093  0.4961 -2.2203  1.5839
  482MOL0     H65042   0.793   3.525   0.157  0.4249 -1.0881  0.2377
  482MOL0     H65043   0.939   3.572   0.072 -1.9162  1.8619  0.7584
  482MOL0     H65044   0.726   3.368  -0.040  0.2209  0.3156  2.5385
  482MOL0     H65045   0.888   3.404  -0.103  1.0686  0.2006 -0.0521
  482MOL0     H65046   0.839   3.633  -0.152 -0.1808  0.6889  1.3896
  482MOL0     H65047   0.724   3.529  -0.226 -1.4579 -0.2086  0.9459
  482MOL0     H65048   0.673   3.687   0.038 -3.3566  3.8691  0.1416
  482MOL0     H65049   0.570   3.562  -0.015  0.6116 -0.7532  1.8635
  482MOL0     H65050   0.553   3.676  -0.243  3.2075  0.9156 -0.9678
  482MOL0     H65051   0.621   3.821  -0.164 -1.0114  1.1837  2.5818
  482MOL0     H65052   1.244   3.194   0.567  0.7824  1.2181  1.5963
  482MOL0     H65053   1.466   3.257   0.660 -1.1239 -2.7442 -0.8941
  482MOL0     H65054   1.912   3.079   0.714 -3.0754  2.5228 -0.7168
  482MOL0     H65055   2.156   3.088   0.768  0.8729  0.7508 -1.7276
  482MOL0     H65056   3.423   3.995   1.589 -0.2170 -1.3234 -0.5181
  482MOL0     H65057   3.560   4.190   1.577 -0.1352 -0.1997  0.5764
  482MOL0     H65058   3.959   4.380   1.717 -2.6996 -0.6275 -1.3209
  482MOL0     H65059   4.093   4.560   1.748 -1.0100  1.0945 -0.3506
  482MOL0     H65060   4.225   4.774   1.371 -1.9674  4.8681  1.3124
  482MOL0     H65061   4.328   4.878   1.453  2.0931 -1.2400  0.9777
  482MOL0     H65062   4.470   4.749   1.309  3.5359 -0.9254  0.0619
  482MOL0     H65063   4.418   4.606   1.381  1.3643 -0.2787 -1.8776
  482MOL0     H65064   4.603   4.636   1.528 -0.8118  0.2945  0.4832
  482MOL0     H65065   4.507   4.754   1.615  2.7308 -0.6665  1.6676
  482MOL0     H65066   4.593   4.939   1.441  2.7873  1.3873 -2.0906
  482MOL0     H65067   4.683   4.814   1.363 -0.8239  3.3324 -1.2213
  482MOL0     H65068   4.887   4.932   1.724  0.2907 -3.0566  1.4582
  482MOL0     H65069   4.152   4.590   1.314  2.3966 -2.3862 -0.4029
  482MOL0     H65070   3.991   4.410   1.295 -1.3483  3.1416 -1.2275
  483MOL0     O65071   7.314   6.060   2.467 -0.0171 -0.6437 -0.2287
  483MOL0     C65072   7.284   6.018   2.584  1.1492  0.8730  0.7245
  483MOL0     O65073   7.161   5.969   2.625 -0.3718 -0.5601  0.7887
  483MOL0     C65074   7.043   5.988   2.549 -0.5539 -0.1955 -0.4936
  483MOL0     C65075   6.928   5.931   2.607 -0.6470 -0.9372 -0.7833
  483MOL0     C65076   6.807   5.953   2.562 -0.1219  0.5619  0.3789
  483MOL0     C65077   6.788   6.031   2.449  0.3125  0.5082  0.7959
  483MOL0     O65078   6.662   6.044   2.408  0.4459  0.2048  0.2595
  483MOL0     C65079   6.643   6.059   2.271  0.1807  0.7746  0.1963
  483MOL0     C65080   6.526   5.971   2.218  0.5975  0.3213 -0.2133
  483MOL0     C65081   6.383   6.033   2.235 -0.0623 -0.4912 -0.4852
  483MOL0     C65082   6.322   6.087   2.106  0.5004  1.0865 -0.2541
  483MOL0     C65083   6.201   6.180   2.135  0.8028 -0.9234  0.3055
  483MOL0     C65084   6.131   6.245   2.021  0.6486 -0.2099  0.3500
  483MOL0     C65085   6.200   6.377   1.971  0.0089 -0.0750 -0.0402
  483MOL0     C65086   6.165   6.416   1.825  0.2641 -0.4479 -0.7075
  483MOL0     N65087   6.017   6.430   1.808  0.0468 -0.5060  0.5084
  483MOL0     C65088   5.931   6.519   1.869  0.4034  0.2535  0.6540
  483MOL0     C65089   5.809   6.492   1.826  0.3081  0.2677 -0.0582
  483MOL0     C65090   5.692   6.569   1.853  1.2634 -0.1594 -0.0891
  483MOL0     C65091   5.566   6.491   1.885 -0.8125  1.1454 -0.4364
  483MOL0     C65092   5.447   6.578   1.932 -0.1491 -0.2222  0.1618
  483MOL0     C65093   5.340   6.484   1.991  0.2437  0.1905 -0.4535
  483MOL0     O65094   5.246   6.563   2.066  0.7184 -0.1268  0.2741
  483MOL0     C65095   5.142   6.616   1.992 -0.4295  1.2250  1.1105
  483MOL0     C65096   5.015   6.556   1.994 -0.5901  0.5811  0.3944
  483MOL0     C65097   4.903   6.611   1.921 -0.0794  0.2222  0.3215
  483MOL0     C65098   4.775   6.536   1.931 -0.0144 -0.3792  0.4999
  483MOL0     C65099   4.921   6.728   1.844  0.0472 -0.0712  0.0199
  483MOL0     C65100   4.816   6.788   1.769  0.1909 -0.9219  0.1205
  483MOL0     O65101   4.728   6.711   1.704  0.7798 -0.2453 -0.4052
  483MOL0     C65102   4.636   6.740   1.613  0.2581 -0.0637  0.3646
  483MOL0     C65103   4.539   6.831   1.650 -0.2671 -0.0510 -0.3010
  483MOL0     C65104   4.435   6.856   1.563 -0.4727  0.9968  0.0400
  483MOL0     C65105   4.429   6.780   1.444 -0.4969 -0.0495  0.0116
  483MOL0     O65106   4.314   6.792   1.374  0.0405 -0.6999 -0.1552
  483MOL0     C65107   4.295   6.728   1.248  0.8670  0.2456 -1.3786
  483MOL0     C65108   4.161   6.761   1.189  1.1461  0.0591  0.0581
  483MOL0     C65109   4.048   6.743   1.295 -0.0073  0.3470 -0.3052
  483MOL0     C65110   3.901   6.780   1.253 -0.8820 -0.0831 -0.0958
  483MOL0     C65111   3.815   6.765   1.373  0.3812  0.0274  0.4069
  483MOL0     C65112   3.670   6.811   1.348  0.5534  0.3445 -0.3903
  483MOL0     C65113   3.632   6.925   1.442 -0.4738 -0.1829 -0.1407
  483MOL0     C65114   3.491   6.971   1.422  0.1514 -0.7829 -0.4379
  483MOL0    Cl65115   3.470   7.112   1.519 -0.0776  0.0458 -0.1444
  483MOL0     C65116   4.515   6.672   1.423 -0.1761 -0.3952  0.2756
  483MOL0     C65117   4.625   6.649   1.509  0.2479 -0.2107  0.2828
  483MOL0     O65118   4.812   6.907   1.777  0.1187  0.9101  0.2058
  483MOL0     C65119   5.042   6.788   1.856 -1.0020 -0.0615 -0.3295
  483MOL0     C65120   5.157   6.737   1.918  0.3133  0.1853 -0.7665
  483MOL0     N65121   5.814   6.383   1.749 -0.0817  0.5996 -0.2791
  483MOL0     N65122   5.940   6.350   1.741  0.3689  1.4621 -0.1584
  483MOL0     C65123   6.891   6.087   2.384 -0.7449  0.4968 -0.1850
  483MOL0     C65124   7.020   6.077   2.441  0.6121  0.6083  0.4670
  483MOL0     C65125   7.384   5.991   2.689 -0.0692 -0.9520 -0.5619
  483MOL0     C65126   7.357   5.933   2.820  0.1833  0.6261  0.2018
  483MOL0     C65127   7.455   5.928   2.918 -0.7567  0.0297 -0.6720
  483MOL0     C65128   7.587   5.974   2.898 -0.0463  0.0181 -0.3639
  483MOL0     O65129   7.682   5.976   3.002 -0.3872  0.7664 -0.1894
  483MOL0     C65130   7.818   5.978   2.984 -0.4820 -0.3812  0.6376
  483MOL0     C65131   7.863   5.828   2.969 -0.1775  0.2757  1.0047
  483MOL0     C65132   8.011   5.807   2.918  0.8970 -0.1348  0.2288
  483MOL0     C65133   8.045   5.659   2.893  0.0168  0.1357 -0.3515
  483MOL0     C65134   8.189   5.637   2.866 -0.0367 -0.4390  0.2852
  483MOL0     C65135   8.301   5.603   2.844  0.1125  0.6064 -0.0982
  483MOL0     C65136   7.611   6.039   2.780 -0.2868 -0.5097  0.0843
  483MOL0     C65137   7.513   6.043   2.672  0.2682 -0.1685 -0.3230
  483MOL0     H65138   6.936   5.864   2.692 -0.6181 -1.4683 -1.1980
  483MOL0     H65139   6.720   5.910   2.610  0.7003 -2.7976 -0.8322
  483MOL0     H65140   6.620   6.162   2.242 -1.7621  0.5302  0.7341
  483MOL0     H65141   6.730   6.027   2.212  1.2374 -1.1364  2.5980
  483MOL0     H65142   6.533   5.956   2.109 -0.3968  0.2856 -0.2758
  483MOL0     H65143   6.523   5.868   2.256  1.6501 -1.3435 -4.0637
  483MOL0     H65144   6.315   5.966   2.290  0.8528 -2.1905 -1.3451
  483MOL0     H65145   6.412   6.113   2.305  0.0223 -2.7513  2.2622
  483MOL0     H65146   6.397   6.133   2.041  1.9816 -1.4664 -0.4797
  483MOL0     H65147   6.289   5.997   2.052  4.7858 -1.5466  0.9849
  483MOL0     H65148   6.131   6.112   2.183  1.3973  0.1300  2.7904
  483MOL0     H65149   6.217   6.262   2.205  0.3696 -0.4313 -0.1602
  483MOL0     H65150   6.120   6.177   1.936  1.7237  0.6478 -0.5053
  483MOL0     H65151   6.032   6.264   2.062  2.4895  5.1746  3.3441
  483MOL0     H65152   6.174   6.462   2.034 -1.5851 -0.3206 -0.3299
  483MOL0     H65153   6.309   6.371   1.980 -0.1563 -0.3230  2.3978
  483MOL0     H65154   6.187   6.337   1.752 -2.8400 -1.9480 -0.1820
  483MOL0     H65155   6.213   6.514   1.809 -1.5306  0.8583  1.3727
  483MOL0     H65156   5.957   6.597   1.941  0.3965  0.0339  0.8955
  483MOL0     H65157   5.711   6.637   1.937  0.0738  0.2853 -0.1668
  483MOL0     H65158   5.660   6.622   1.763 -3.8926 -2.6145 -0.0597
  483MOL0     H65159   5.589   6.411   1.956  0.0171  0.0339 -1.9002
  483MOL0     H65160   5.543   6.442   1.790  0.3771  3.0756 -1.7674
  483MOL0     H65161   5.412   6.630   1.842 -1.7484 -1.2616  0.1504
  483MOL0     H65162   5.477   6.654   2.005 -0.4962  0.4494 -0.3764
  483MOL0     H65163   5.388   6.425   2.070  0.5117 -0.3530 -1.0190
  483MOL0     H65164   5.297   6.410   1.924 -1.8008  2.3694 -1.7003
  483MOL0     H65165   5.014   6.465   2.053 -0.0670  0.8106  0.7710
  483MOL0     H65166   4.689   6.602   1.940 -0.7814 -1.3822  0.6749
  483MOL0     H65167   4.772   6.484   1.834 -0.4895  1.7124 -0.6741
  483MOL0     H65168   4.767   6.472   2.019  0.8288 -1.0477  0.1028
  483MOL0     H65169   4.560   6.890   1.739 -0.4666  0.3274 -0.5019
  483MOL0     H65170   4.353   6.924   1.584  1.3283  2.9590  1.1065
  483MOL0     H65171   4.377   6.753   1.180  0.1866  3.5297 -1.1592
  483MOL0     H65172   4.288   6.620   1.261 -3.3963  0.4208 -0.9618
  483MOL0     H65173   4.166   6.865   1.155  0.4036 -0.1443 -0.7072
  483MOL0     H65174   4.140   6.695   1.104 -1.2295  1.2037 -0.3073
  483MOL0     H65175   4.073   6.814   1.374 -0.3963  1.5392 -1.2322
  483MOL0     H65176   4.039   6.639   1.330 -1.0893 -0.2153 -2.1413
  483MOL0     H65177   3.888   6.883   1.220 -1.4836 -0.2495 -0.4014
  483MOL0     H65178   3.857   6.716   1.176 -0.2269 -0.3724 -0.2377
  483MOL0     H65179   3.854   6.818   1.460 -0.8161 -0.4532  1.2733
  483MOL0     H65180   3.826   6.661   1.406  1.9428  0.3972  1.1232
  483MOL0     H65181   3.650   6.831   1.243 -0.6994 -2.1213 -0.6994
  483MOL0     H65182   3.598   6.731   1.371  0.1091  0.9096  0.2259
  483MOL0     H65183   3.693   7.010   1.414 -1.6599  0.4387 -0.9100
  483MOL0     H65184   3.657   6.896   1.545  2.4590  0.3950 -0.6211
  483MOL0     H65185   3.428   6.889   1.458  3.5155 -2.3569  2.3996
  483MOL0     H65186   3.468   7.001   1.320  2.7377 -0.6436 -1.0339
  483MOL0     H65187   4.502   6.610   1.334 -1.6302 -0.9452  0.8402
  483MOL0     H65188   4.703   6.574   1.502  0.9962  0.4114  1.6659
  483MOL0     H65189   5.067   6.881   1.806  0.6432  0.3268  1.0862
  483MOL0     H65190   5.250   6.794   1.913 -0.1401  0.9684 -0.5255
  483MOL0     H65191   6.877   6.157   2.302  1.9029  0.6850 -0.5521
  483MOL0     H65192   7.107   6.132   2.407  2.1569 -1.4721  0.8567
  483MOL0     H65193   7.260   5.899   2.856  0.9988 -0.3624  1.5947
  483MOL0     H65194   7.430   5.887   3.016  0.2257  1.8529  0.4135
  483MOL0     H65195   7.855   6.032   2.896 -0.0452  0.8755  1.5608
  483MOL0     H65196   7.871   6.020   3.069 -1.2045 -0.9993  1.4036
  483MOL0     H65197   7.794   5.773   2.904  0.2468 -0.9444  1.5433
  483MOL0     H65198   7.855   5.778   3.066 -1.2629 -0.3592  0.6154
  483MOL0     H65199   8.082   5.851   2.988  1.8544 -1.9298  0.4334
  483MOL0     H65200   8.021   5.853   2.819 -0.5680 -2.0793 -0.8911
  483MOL0     H65201   7.975   5.616   2.820  0.1316 -3.2518  1.3430
  483MOL0     H65202   8.028   5.603   2.985 -1.0019 -2.7473 -2.1607
  483MOL0     H65203   8.402   5.571   2.829 -0.3702 -0.0016 -2.4213
  483MOL0     H65204   7.710   6.077   2.758 -1.2961  1.7610 -0.9535
  483MOL0     H65205   7.537   6.097   2.581 -0.0140 -1.2225 -1.0421
  484MOL0     O65206  11.334   2.215   0.908 -0.5082 -0.7384  0.1063
  484MOL0     C65207  11.288   2.327   0.941 -0.4828 -0.0064 -0.0649
  484MOL0     O65208  11.160   2.363   0.928  0.2208 -0.0077  0.0538
  484MOL0     C65209  11.067   2.262   0.941 -0.2740  0.7378  0.6023
  484MOL0     C65210  10.942   2.290   0.885 -0.3067 -0.3187 -0.6694
  484MOL0     C65211  10.836   2.197   0.876  0.1007 -0.0017 -0.1186
  484MOL0     C65212  10.851   2.075   0.947  0.4543 -0.5761 -0.2174
  484MOL0     O65213  10.753   1.982   0.940  0.0166  0.1033 -0.2820
  484MOL0     C65214  10.754   1.894   0.832 -0.1719 -0.2747  0.3031
  484MOL0     C65215  10.646   1.779   0.853  0.1233  0.7441 -0.2597
  484MOL0     C65216  10.507   1.833   0.849  0.2591 -0.8730 -0.1744
  484MOL0     C65217  10.406   1.731   0.835  0.5241  0.7350  0.1460
  484MOL0     C65218  10.268   1.768   0.890  0.6164  0.1018 -0.3971
  484MOL0     C65219  10.161   1.687   0.819 -0.0238  0.3990  0.3586
  484MOL0     C65220  10.021   1.728   0.864 -0.2934 -0.3278  0.4139
  484MOL0     C65221   9.906   1.678   0.764 -1.0609 -0.1509  0.4124
  484MOL0     N65222   9.776   1.667   0.830 -0.6646 -0.6183  0.7399
  484MOL0     C65223   9.707   1.767   0.896 -0.2796  0.2233 -0.0656
  484MOL0     C65224   9.586   1.714   0.929 -0.1042 -0.2068  0.8212
  484MOL0     C65225   9.469   1.777   0.986 -0.2504  0.3426  0.6891
  484MOL0     C65226   9.349   1.758   0.896 -0.1009 -0.7848 -0.1234
  484MOL0     C65227   9.240   1.861   0.912 -0.2467 -1.0972  0.7130
  484MOL0     C65228   9.106   1.824   0.857 -0.6595 -0.5159  0.3016
  484MOL0     O65229   9.015   1.924   0.898  0.1480  0.0164 -0.7708
  484MOL0     C65230   8.881   1.888   0.883 -0.0529 -0.6575 -0.2427
  484MOL0     C65231   8.795   1.960   0.964  0.2156  0.7017  0.0856
  484MOL0     C65232   8.665   1.934   0.967  0.7766 -0.3023 -0.2677
  484MOL0     C65233   8.588   2.034   1.055  0.4047 -0.0859  1.3022
  484MOL0     C65234   8.599   1.834   0.891 -0.9104  0.2122  0.2232
  484MOL0     C65235   8.448   1.801   0.879 -1.1905  0.2382 -0.0495
  484MOL0     O65236   8.414   1.668   0.835  0.3434  0.2901 -0.6768
  484MOL0     C65237   8.279   1.633   0.843 -0.9515  0.3228  0.3047
  484MOL0     C65238   8.201   1.610   0.730 -0.3515 -0.1334 -0.1081
  484MOL0     C65239   8.077   1.543   0.731 -0.4681 -0.5931  0.1446
  484MOL0     C65240   8.024   1.498   0.854  0.1081  0.2919  0.2003
  484MOL0     O65241   7.908   1.428   0.855 -0.3707 -0.1870  0.0853
  484MOL0     C65242   7.810   1.463   0.967  0.0009 -0.3947 -0.5480
  484MOL0     C65243   7.833   1.354   1.070 -1.0156 -0.0600 -0.2518
  484MOL0     C65244   7.718   1.337   1.167  0.1620  0.1644  0.3841
  484MOL0     C65245   7.731   1.437   1.287 -0.0617  0.1637 -0.9659
  484MOL0     C65246   7.602   1.507   1.312  0.5666  0.8749 -1.3638
  484MOL0     C65247   7.494   1.420   1.380  0.0115  0.1520 -0.6300
  484MOL0     C65248   7.356   1.483   1.367  1.0955  0.3632  0.1657
  484MOL0     C65249   7.257   1.405   1.453 -0.0034  0.9181  0.0230
  484MOL0    Cl65250   7.289   1.423   1.635 -0.1979 -0.3647 -0.3809
  484MOL0     C65251   8.097   1.532   0.968 -0.4372  0.9494 -0.0317
  484MOL0     C65252   8.219   1.601   0.969  0.1011 -0.6044  0.1379
  484MOL0     O65253   8.365   1.889   0.907 -0.5475  0.2868 -0.1469
  484MOL0     C65254   8.689   1.769   0.797  1.0448 -0.3013 -0.2720
  484MOL0     C65255   8.820   1.802   0.788 -0.6701 -0.3614 -0.3494
  484MOL0     N65256   9.588   1.583   0.894 -0.0633 -0.5474 -0.3579
  484MOL0     N65257   9.703   1.549   0.844 -0.1770 -0.2107  0.4400
  484MOL0     C65258  10.973   2.049   1.005 -0.2719  0.0392 -0.4883
  484MOL0     C65259  11.075   2.137   1.006 -0.1482 -0.3646 -0.2711
  484MOL0     C65260  11.380   2.438   0.953 -0.7488  0.0262  0.3432
  484MOL0     C65261  11.521   2.429   0.963  0.2384 -0.2857  0.1631
  484MOL0     C65262  11.611   2.532   0.953  0.0081 -0.3626  0.7206
  484MOL0     C65263  11.568   2.667   0.918 -0.4310  0.8184 -0.3214
  484MOL0     O65264  11.646   2.776   0.880 -0.5537  0.3332  0.0603
  484MOL0     C65265  11.791   2.770   0.910  0.0609  0.1509  0.2850
  484MOL0     C65266  11.846   2.910   0.895 -0.0840  0.7367 -0.8958
  484MOL0     C65267  11.983   2.928   0.957  0.3409  0.1886 -0.0837
  484MOL0     C65268  11.970   2.983   1.101  0.3058  0.1459 -0.3358
  484MOL0     C65269  12.098   2.974   1.164 -1.0202  0.5159 -0.2571
  484MOL0     C65270  12.200   2.964   1.222  0.1620  0.0402  0.9728
  484MOL0     C65271  11.426   2.678   0.929  0.4355  0.0385  0.0910
  484MOL0     C65272  11.331   2.569   0.945  0.5029  0.8178 -1.0983
  484MOL0     H65273  10.931   2.386   0.836 -0.1272  0.5009  0.8318
  484MOL0     H65274  10.747   2.221   0.819 -0.7816 -0.7061  0.9115
  484MOL0     H65275  10.747   1.951   0.740 -0.2428 -0.8762 -0.0700
  484MOL0     H65276  10.849   1.840   0.836  0.9168  1.5496 -0.2690
  484MOL0     H65277  10.660   1.696   0.783  0.1814 -0.5811  1.2511
  484MOL0     H65278  10.663   1.731   0.950  2.7362  4.1552  1.1671
  484MOL0     H65279  10.490   1.900   0.934 -1.5846  0.6379 -1.6348
  484MOL0     H65280  10.508   1.906   0.767  0.4695 -1.9415 -1.1430
  484MOL0     H65281  10.398   1.718   0.726  0.4615  3.4638 -0.2541
  484MOL0     H65282  10.435   1.634   0.875  1.4616  1.3654  1.0590
  484MOL0     H65283  10.273   1.739   0.996 -3.0921  0.9999  0.1394
  484MOL0     H65284  10.243   1.873   0.870  1.8102  0.0434 -2.5404
  484MOL0     H65285  10.160   1.721   0.715  0.3197  0.5163  0.3942
  484MOL0     H65286  10.188   1.581   0.828 -2.0354 -0.1298  0.8250
  484MOL0     H65287  10.001   1.686   0.963 -0.4923 -2.0431 -0.3017
  484MOL0     H65288  10.012   1.837   0.869  1.4504  0.3874 -5.0655
  484MOL0     H65289   9.940   1.588   0.711  0.0291  1.4938 -1.8330
  484MOL0     H65290   9.890   1.752   0.685  1.9783  1.2034  0.9196
  484MOL0     H65291   9.743   1.869   0.903 -0.3172  0.2720 -0.5229
  484MOL0     H65292   9.447   1.737   1.085 -0.2536 -1.0256  0.1583
  484MOL0     H65293   9.502   1.881   0.984  0.8277  0.0061 -0.9424
  484MOL0     H65294   9.316   1.655   0.914 -0.0708 -0.9248 -0.8385
  484MOL0     H65295   9.380   1.761   0.791  0.6548  2.5116  0.0871
  484MOL0     H65296   9.275   1.952   0.863 -1.0246 -1.5822 -0.8005
  484MOL0     H65297   9.238   1.878   1.020  3.4019 -1.4815  0.9771
  484MOL0     H65298   9.075   1.730   0.904 -2.0547  0.2695  1.0298
  484MOL0     H65299   9.121   1.797   0.752  3.3460  0.5408  0.4479
  484MOL0     H65300   8.848   2.032   1.026  0.4218 -1.3498  2.4474
  484MOL0     H65301   8.647   2.120   1.089 -0.9077  1.6802 -0.6480
  484MOL0     H65302   8.500   2.080   1.010  1.2134 -0.5160 -0.8318
  484MOL0     H65303   8.547   1.969   1.133 -5.1948 -1.0105 -1.8853
  484MOL0     H65304   8.255   1.620   0.636  1.0050 -1.1727  0.5319
  484MOL0     H65305   8.032   1.508   0.638  0.4871 -3.1986  0.5879
  484MOL0     H65306   7.817   1.567   0.999  0.1442  0.2630 -2.5763
  484MOL0     H65307   7.710   1.451   0.926  1.2684 -0.3759 -3.9824
  484MOL0     H65308   7.829   1.267   1.004  0.4794  1.6610 -2.7994
  484MOL0     H65309   7.929   1.371   1.121 -2.2093  0.4046  1.9743
  484MOL0     H65310   7.721   1.231   1.194  1.1320  0.2047  0.4817
  484MOL0     H65311   7.634   1.362   1.102  1.1053 -2.0856 -1.8710
  484MOL0     H65312   7.761   1.385   1.378 -1.3100 -1.1586 -1.2772
  484MOL0     H65313   7.800   1.519   1.265  0.3499 -0.1959 -1.0450
  484MOL0     H65314   7.553   1.551   1.225 -0.5163  1.7450 -0.3581
  484MOL0     H65315   7.619   1.593   1.378  0.9001  0.0276 -0.3231
  484MOL0     H65316   7.490   1.320   1.337  0.8094 -0.3722  0.4550
  484MOL0     H65317   7.524   1.396   1.483 -2.9738  1.5029  0.6973
  484MOL0     H65318   7.323   1.485   1.263  0.4675  1.0743  0.3730
  484MOL0     H65319   7.357   1.582   1.413  0.9721 -0.1569  1.3519
  484MOL0     H65320   7.256   1.301   1.417  3.0631  0.9239 -0.3810
  484MOL0     H65321   7.153   1.434   1.439 -0.8779 -2.0121 -0.2170
  484MOL0     H65322   8.056   1.509   1.065  1.1050 -0.3872  0.3625
  484MOL0     H65323   8.275   1.609   1.062  2.0380 -0.5091 -0.9761
  484MOL0     H65324   8.657   1.687   0.734  2.4796 -0.5870 -0.6640
  484MOL0     H65325   8.888   1.752   0.720 -0.1070 -2.2132  1.4968
  484MOL0     H65326  10.986   1.968   1.077  1.8029  0.4979 -0.2986
  484MOL0     H65327  11.166   2.106   1.055 -0.5719  2.0312  2.2919
  484MOL0     H65328  11.571   2.333   0.960  1.2859  0.2476  0.1069
  484MOL0     H65329  11.714   2.499   0.955 -0.0603 -0.5978  0.2754
  484MOL0     H65330  11.802   2.724   1.009 -0.9964  0.0267  0.3582
  484MOL0     H65331  11.837   2.703   0.837 -0.6607  0.1919 -0.2148
  484MOL0     H65332  11.775   2.969   0.953 -0.9698 -1.0388 -0.0925
  484MOL0     H65333  11.836   2.926   0.787 -0.8436  0.4389 -0.8811
  484MOL0     H65334  12.038   3.002   0.898  1.5517 -0.3833  0.3102
  484MOL0     H65335  12.033   2.831   0.962  0.8298  0.5044  2.0453
  484MOL0     H65336  11.894   2.920   1.149  2.2771 -1.1567  1.2281
  484MOL0     H65337  11.936   3.087   1.097 -1.8320 -0.5427 -2.2538
  484MOL0     H65338  12.287   2.956   1.284  2.4593 -2.3004 -2.1983
  484MOL0     H65339  11.396   2.782   0.914 -1.4910 -0.3403  1.0093
  484MOL0     H65340  11.224   2.585   0.955  0.3548 -1.3336  1.7072
  485MOL0     O65341   1.108   7.524   0.023  0.4492  0.1020 -0.2583
  485MOL0     C65342   1.112   7.584  -0.088 -0.1673 -0.2230 -0.1165
  485MOL0     O65343   1.012   7.610  -0.170  0.5318 -0.2234 -0.1124
  485MOL0     C65344   0.886   7.558  -0.162 -0.2774  0.6697  0.3866
  485MOL0     C65345   0.797   7.649  -0.221  0.1003  0.1597 -0.7239
  485MOL0     C65346   0.663   7.617  -0.218 -0.2665 -0.6789 -0.7789
  485MOL0     C65347   0.614   7.508  -0.147 -1.1915 -0.0008  0.1355
  485MOL0     O65348   0.480   7.506  -0.112 -0.3742 -0.0361 -0.1838
  485MOL0     C65349   0.421   7.404  -0.018 -0.1817  0.4302  0.7790
  485MOL0     C65350   0.273   7.410  -0.013  0.1231 -0.4546  0.0396
  485MOL0     C65351   0.226   7.277   0.048  0.1160  0.4831 -0.1634
  485MOL0     C65352   0.081   7.301   0.107 -0.5781  0.5251  0.0068
  485MOL0     C65353   0.079   7.187   0.212 -0.5566  0.3455  0.7224
  485MOL0     C65354  -0.056   7.159   0.265  0.5293 -0.9626  0.2663
  485MOL0     C65355  -0.152   7.094   0.164  0.5430  0.3060  0.3642
  485MOL0     C65356  -0.233   6.972   0.217  0.0602 -0.3061 -0.2800
  485MOL0     N65357  -0.289   6.896   0.105  0.0512  0.0654 -0.8495
  485MOL0     C65358  -0.404   6.937   0.033  0.4399 -0.3149 -0.1559
  485MOL0     C65359  -0.413   6.842  -0.061  0.5616 -0.3972  0.1575
  485MOL0     C65360  -0.536   6.827  -0.144 -1.0990 -0.3762 -0.5250
  485MOL0     C65361  -0.502   6.753  -0.273  0.9020  0.2320  0.1353
  485MOL0     C65362  -0.643   6.734  -0.348 -0.8339 -0.2714 -0.1691
  485MOL0     C65363  -0.617   6.664  -0.481 -0.3693  0.4771  0.7016
  485MOL0     O65364  -0.743   6.640  -0.548 -1.2201 -0.9255  0.2118
  485MOL0     C65365  -0.740   6.554  -0.647  0.5551 -0.0035 -0.1506
  485MOL0     C65366  -0.624   6.510  -0.714  1.0093  0.2239  0.4991
  485MOL0     C65367  -0.639   6.421  -0.822  0.8455 -0.1190 -0.0249
  485MOL0     C65368  -0.510   6.364  -0.890  0.0221 -0.3104 -0.2817
  485MOL0     C65369  -0.767   6.367  -0.849  0.6067  0.3551 -0.5821
  485MOL0     C65370  -0.797   6.279  -0.963  0.7566  0.4305 -0.1723
  485MOL0     O65371  -0.911   6.201  -0.959  0.3634  0.0060 -0.2304
  485MOL0     C65372  -0.916   6.110  -1.063 -0.0976 -1.0478 -1.0290
  485MOL0     C65373  -0.864   5.982  -1.057 -0.1331  0.3336 -0.0722
  485MOL0     C65374  -0.879   5.900  -1.173  0.8611 -0.3488  0.4149
  485MOL0     C65375  -0.924   5.953  -1.298 -0.1571 -0.3100  0.5278
  485MOL0     O65376  -0.921   5.868  -1.405  0.0343 -0.7495 -0.2661
  485MOL0     C65377  -1.041   5.859  -1.484 -1.0631 -0.2943 -0.4771
  485MOL0     C65378  -1.008   5.737  -1.571 -0.1109 -0.7183 -0.0931
  485MOL0     C65379  -1.123   5.709  -1.665  0.4785  0.3179  0.4508
  485MOL0     C65380  -1.080   5.632  -1.791  0.4308  0.4758 -0.6405
  485MOL0     C65381  -1.203   5.607  -1.873  0.3236  0.1638 -0.4820
  485MOL0     C65382  -1.178   5.504  -1.980  0.2497 -0.2882  0.3331
  485MOL0     C65383  -1.279   5.503  -2.100  0.5892 -0.3706 -0.4170
  485MOL0     C65384  -1.414   5.436  -2.095 -0.0477 -0.1279 -0.0016
  485MOL0    Cl65385  -1.437   5.270  -2.026 -0.2404 -0.0648 -0.2274
  485MOL0     C65386  -0.964   6.086  -1.292  0.1225 -0.2420  0.7125
  485MOL0     C65387  -0.955   6.161  -1.180  0.1881 -0.0273  0.5947
  485MOL0     O65388  -0.740   6.307  -1.065 -0.0667 -0.0002  0.3260
  485MOL0     C65389  -0.876   6.411  -0.774  0.5321 -0.7225 -0.4905
  485MOL0     C65390  -0.863   6.505  -0.679  0.0539  0.5829  0.1227
  485MOL0     N65391  -0.313   6.747  -0.037 -0.3157  0.3170  0.8328
  485MOL0     N65392  -0.234   6.779   0.054  0.0045 -0.0914 -0.3643
  485MOL0     C65393   0.707   7.412  -0.103 -0.3584 -0.1356  0.0833
  485MOL0     C65394   0.846   7.441  -0.101 -0.1430 -0.0696 -0.5870
  485MOL0     C65395   1.242   7.641  -0.128  0.6383 -0.3166 -0.3390
  485MOL0     C65396   1.332   7.676  -0.022  0.1737  0.4605  0.8378
  485MOL0     C65397   1.455   7.736  -0.051  0.4988  0.4294 -0.0471
  485MOL0     C65398   1.482   7.778  -0.186  0.1985  0.1001  0.1234
  485MOL0     O65399   1.596   7.837  -0.236  0.1986 -0.4451  0.1522
  485MOL0     C65400   1.704   7.838  -0.146  0.1851 -0.4436 -0.5324
  485MOL0     C65401   1.810   7.931  -0.205 -0.1190 -0.3642 -0.0982
  485MOL0     C65402   1.866   7.894  -0.343  0.4249  0.9116  0.6698
  485MOL0     C65403   1.973   7.995  -0.384 -0.4126 -0.5551 -0.3431
  485MOL0     C65404   2.065   7.953  -0.491 -0.3825  0.0699 -0.3772
  485MOL0     C65405   2.150   7.923  -0.576 -0.0220  0.1451 -0.0077
  485MOL0     C65406   1.389   7.746  -0.285  0.0241 -0.2117  0.3023
  485MOL0     C65407   1.268   7.676  -0.260 -0.2739 -1.1768 -0.4711
  485MOL0     H65408   0.816   7.747  -0.262 -0.9648  2.3116  3.3843
  485MOL0     H65409   0.589   7.689  -0.252 -2.0055  0.4303  4.4059
  485MOL0     H65410   0.445   7.304  -0.056 -2.4546 -0.2421  1.0023
  485MOL0     H65411   0.474   7.404   0.078 -1.1465 -0.8846  1.3344
  485MOL0     H65412   0.249   7.498   0.048  3.1142  1.1580 -0.9026
  485MOL0     H65413   0.224   7.423  -0.110 -3.3042 -0.3293  1.6432
  485MOL0     H65414   0.204   7.199  -0.026 -0.9924 -1.0906  1.7191
  485MOL0     H65415   0.304   7.250   0.120  0.5822  0.1813 -0.7807
  485MOL0     H65416   0.063   7.395   0.161 -1.6679  1.0368 -1.1977
  485MOL0     H65417   0.009   7.294   0.026 -1.5007  1.4132  0.7189
  485MOL0     H65418   0.127   7.100   0.167 -2.8645 -1.1313  0.9544
  485MOL0     H65419   0.132   7.222   0.301 -1.1665  0.6658  0.9616
  485MOL0     H65420  -0.041   7.090   0.348  3.9273  0.1374  0.6827
  485MOL0     H65421  -0.093   7.255   0.300  2.1295  0.3358 -1.4193
  485MOL0     H65422  -0.223   7.165   0.119 -0.4937 -1.5643 -1.1351
  485MOL0     H65423  -0.099   7.047   0.080 -0.5005 -1.9464  0.8764
  485MOL0     H65424  -0.320   6.993   0.280  0.0135  1.5873 -0.9163
  485MOL0     H65425  -0.171   6.916   0.288 -1.3077 -1.7166 -0.1564
  485MOL0     H65426  -0.484   7.009   0.052 -0.3999 -1.0969 -0.6225
  485MOL0     H65427  -0.618   6.771  -0.101 -1.6428 -1.0076 -2.2797
  485MOL0     H65428  -0.581   6.927  -0.151  2.0150  1.1862 -0.1585
  485MOL0     H65429  -0.455   6.657  -0.246  1.1689  0.8175  1.8409
  485MOL0     H65430  -0.438   6.811  -0.341  1.9963 -0.4057  0.5844
  485MOL0     H65431  -0.676   6.835  -0.374  1.7689  1.4585  2.4774
  485MOL0     H65432  -0.719   6.684  -0.288 -1.6952  0.2861 -0.7736
  485MOL0     H65433  -0.574   6.564  -0.468 -1.4266 -0.3239 -1.3613
  485MOL0     H65434  -0.565   6.731  -0.549 -1.6084  0.2977 -0.4781
  485MOL0     H65435  -0.522   6.535  -0.684  1.6134 -2.1421  0.6171
  485MOL0     H65436  -0.505   6.256  -0.874 -4.5504 -0.8200 -0.8980
  485MOL0     H65437  -0.516   6.379  -0.999 -2.5879  0.3231 -0.1208
  485MOL0     H65438  -0.417   6.409  -0.856  0.2904 -1.3085  0.3577
  485MOL0     H65439  -0.826   5.935  -0.967  0.2143 -0.3127 -0.5527
  485MOL0     H65440  -0.843   5.798  -1.180  0.4548 -0.6610  2.4226
  485MOL0     H65441  -1.135   5.851  -1.428 -1.4836  1.0435 -0.9280
  485MOL0     H65442  -1.050   5.950  -1.546 -1.6279  0.3183  0.4859
  485MOL0     H65443  -0.921   5.759  -1.634 -0.2581 -0.6405 -0.2680
  485MOL0     H65444  -0.992   5.647  -1.511  2.4117  0.3690  1.0492
  485MOL0     H65445  -1.178   5.792  -1.710  0.7824 -0.0177 -0.5879
  485MOL0     H65446  -1.193   5.651  -1.605  2.2263 -3.2524 -0.6815
  485MOL0     H65447  -1.015   5.690  -1.857  1.7820  0.2513  0.4441
  485MOL0     H65448  -1.021   5.547  -1.756 -1.4864 -0.6236  0.0357
  485MOL0     H65449  -1.247   5.701  -1.908  0.1074  0.3368  0.2224
  485MOL0     H65450  -1.284   5.578  -1.805  0.6600  2.5168  1.0363
  485MOL0     H65451  -1.078   5.508  -2.024 -0.9951 -1.4447 -2.8850
  485MOL0     H65452  -1.195   5.409  -1.930  0.6650  0.1864  1.4106
  485MOL0     H65453  -1.211   5.459  -2.174 -1.6117 -0.5436 -2.4826
  485MOL0     H65454  -1.290   5.605  -2.137 -0.1374 -1.2113 -2.6961
  485MOL0     H65455  -1.450   5.438  -2.199  0.6402 -0.2238 -0.2490
  485MOL0     H65456  -1.476   5.502  -2.034 -1.5177 -0.8605 -0.6440
  485MOL0     H65457  -1.006   6.109  -1.389  2.2819 -0.8040 -0.4252
  485MOL0     H65458  -0.991   6.264  -1.177 -0.5226 -0.2453 -0.1073
  485MOL0     H65459  -0.974   6.369  -0.793  0.3327 -0.0375 -0.9981
  485MOL0     H65460  -0.941   6.522  -0.605 -1.2018  1.6684 -1.3811
  485MOL0     H65461   0.668   7.329  -0.044  1.4243  0.3487  2.0756
  485MOL0     H65462   0.920   7.378  -0.053 -0.9187 -0.1475  0.5402
  485MOL0     H65463   1.314   7.646   0.081  0.5701 -3.4749 -0.0904
  485MOL0     H65464   1.519   7.739   0.036 -0.5047  0.9796  0.6856
  485MOL0     H65465   1.678   7.867  -0.044 -0.5889 -1.9440 -0.2829
  485MOL0     H65466   1.738   7.735  -0.132  0.2917 -0.1931  1.2876
  485MOL0     H65467   1.893   7.942  -0.134  0.5119  1.1621 -1.0246
  485MOL0     H65468   1.771   8.033  -0.205  0.5062 -0.1141  0.5037
  485MOL0     H65469   1.781   7.905  -0.411  1.4248 -2.0397 -1.2394
  485MOL0     H65470   1.886   7.787  -0.351  1.3999  1.2324 -3.2012
  485MOL0     H65471   2.034   8.014  -0.296 -1.5722 -1.2349  0.6474
  485MOL0     H65472   1.930   8.088  -0.423 -1.1701 -0.4903  0.6003
  485MOL0     H65473   2.231   7.912  -0.645 -1.0521 -0.3576 -1.1883
  485MOL0     H65474   1.407   7.778  -0.388 -1.5157  0.6797  0.2807
  485MOL0     H65475   1.202   7.646  -0.341 -0.2277 -0.9747 -0.5822
  486MOL0     O65476   1.178   5.529   5.605 -0.1581  0.7973 -0.4847
  486MOL0     C65477   1.273   5.499   5.670 -0.4812  0.0047 -0.4354
  486MOL0     O65478   1.281   5.461   5.801  0.1729 -0.1350 -0.3387
  486MOL0     C65479   1.163   5.456   5.863 -0.0542  0.1959 -0.4888
  486MOL0     C65480   1.142   5.335   5.929 -0.2586  0.1513  0.8137
  486MOL0     C65481   1.020   5.305   5.993  0.4629  0.3737  0.4383
  486MOL0     C65482   0.914   5.400   5.985 -0.3529  0.5897 -0.1449
  486MOL0     O65483   0.781   5.386   6.027 -0.1970  0.6092  0.3514
  486MOL0     C65484   0.749   5.287   6.125 -0.4066  0.7612 -0.2232
  486MOL0     C65485   0.617   5.216   6.092  0.9411  0.7124  0.1840
  486MOL0     C65486   0.495   5.298   6.104  0.7989  0.4839  0.6309
  486MOL0     C65487   0.380   5.212   6.046 -0.1085 -1.1675 -0.1935
  486MOL0     C65488   0.246   5.291   6.059  0.1514 -0.9458  0.6591
  486MOL0     C65489   0.129   5.199   6.087  0.2284  0.2550  0.3622
  486MOL0     C65490   0.002   5.266   6.150 -1.5011  0.0261 -0.1646
  486MOL0     C65491  -0.078   5.338   6.044  0.0317 -0.7801  0.3879
  486MOL0     N65492  -0.207   5.397   6.088 -0.4504 -0.4375  0.1370
  486MOL0     C65493  -0.315   5.317   6.138  0.2454 -0.2573 -0.4651
  486MOL0     C65494  -0.419   5.404   6.155  0.7873  0.2672 -0.0104
  486MOL0     C65495  -0.563   5.371   6.198 -0.4063 -0.7468  0.1561
  486MOL0     C65496  -0.636   5.400   6.065  0.2127 -0.1277  0.4402
  486MOL0     C65497  -0.609   5.309   5.952  0.1244  0.0166 -0.4165
  486MOL0     C65498  -0.713   5.286   5.845 -0.6519  0.2215  0.0387
  486MOL0     O65499  -0.724   5.149   5.804  0.4162 -0.2999  0.3452
  486MOL0     C65500  -0.835   5.131   5.721  0.1220 -0.3860 -0.2536
  486MOL0     C65501  -0.961   5.138   5.786  0.9288  0.0477 -0.1428
  486MOL0     C65502  -1.079   5.118   5.718 -0.3697 -0.7407  0.6809
  486MOL0     C65503  -1.211   5.141   5.790 -0.2581  0.2384 -0.5213
  486MOL0     C65504  -1.079   5.084   5.578  0.6703 -0.3991 -0.4643
  486MOL0     C65505  -1.201   5.069   5.488  0.0600  0.4268 -0.8414
  486MOL0     O65506  -1.181   5.029   5.359 -0.8545 -0.7389 -0.5732
  486MOL0     C65507  -1.284   5.023   5.277  0.1355 -0.0669  0.0848
  486MOL0     C65508  -1.312   4.907   5.218 -0.5973  0.6087  0.6086
  486MOL0     C65509  -1.429   4.886   5.136 -1.2917  0.0172 -0.3377
  486MOL0     C65510  -1.502   4.995   5.106  1.0890 -0.4794 -0.9794
  486MOL0     O65511  -1.599   4.974   5.007  0.1316 -0.4665 -0.3610
  486MOL0     C65512  -1.688   5.082   4.968 -0.8615 -0.2905  0.0884
  486MOL0     C65513  -1.810   5.050   4.891 -0.9598 -0.4520 -0.1284
  486MOL0     C65514  -1.777   4.960   4.772 -0.4817  1.0128  0.9688
  486MOL0     C65515  -1.889   4.971   4.673  1.1080 -1.1056  0.3613
  486MOL0     C65516  -2.020   4.898   4.735  0.4693  0.4234 -0.2456
  486MOL0     C65517  -2.134   4.919   4.625  0.3290  0.0605 -0.2937
  486MOL0     C65518  -2.093   4.823   4.517 -0.2643 -0.5617 -0.2062
  486MOL0     C65519  -2.202   4.775   4.435  0.5990 -0.1208  0.2052
  486MOL0    Cl65520  -2.289   4.913   4.383 -0.3351  0.0432 -0.2871
  486MOL0     C65521  -1.478   5.119   5.170 -0.1070 -0.1493 -0.4259
  486MOL0     C65522  -1.363   5.128   5.251  0.3877  0.0722 -0.1391
  486MOL0     O65523  -1.308   5.087   5.543 -0.8410 -0.0545  0.3800
  486MOL0     C65524  -0.950   5.071   5.521 -0.9528  0.1346 -0.0981
  486MOL0     C65525  -0.829   5.097   5.589  0.8517  0.8130 -0.1301
  486MOL0     N65526  -0.365   5.530   6.111  0.6020  0.1713  0.6087
  486MOL0     N65527  -0.234   5.529   6.075  0.7456 -0.0761 -0.0995
  486MOL0     C65528   0.938   5.528   5.932  0.0469 -0.1211  1.0066
  486MOL0     C65529   1.066   5.563   5.877  0.1756  0.6959  0.3990
  486MOL0     C65530   1.409   5.502   5.610  0.4494 -0.1695  0.6696
  486MOL0     C65531   1.433   5.553   5.482  0.0606  0.1434  0.1655
  486MOL0     C65532   1.561   5.584   5.434 -0.3438  0.8352 -0.7545
  486MOL0     C65533   1.676   5.557   5.511  0.0733  0.3017  0.3638
  486MOL0     O65534   1.804   5.573   5.464  0.5141  0.6140  0.2335
  486MOL0     C65535   1.823   5.655   5.346  0.4770  0.2267 -0.2251
  486MOL0     C65536   1.979   5.654   5.338  0.8792 -0.6022  1.0060
  486MOL0     C65537   2.026   5.742   5.224  0.1177  0.1399  0.8949
  486MOL0     C65538   1.986   5.690   5.087 -0.2198  0.7788 -0.2991
  486MOL0     C65539   2.053   5.569   5.054 -0.3806 -0.7506  0.6601
  486MOL0     C65540   2.119   5.476   5.044  0.1841  0.1874  0.9911
  486MOL0     C65541   1.659   5.508   5.637 -1.1251  0.8217 -0.2218
  486MOL0     C65542   1.530   5.483   5.687  0.0047 -0.0218  1.0330
  486MOL0     H65543   1.226   5.266   5.923  0.5295  1.2094 -1.7788
  486MOL0     H65544   0.990   5.213   6.043 -0.1009  0.6161  0.5639
  486MOL0     H65545   0.826   5.209   6.121  0.1246  1.3094 -2.8754
  486MOL0     H65546   0.750   5.334   6.224  0.4543 -0.3417  0.3168
  486MOL0     H65547   0.630   5.166   5.996 -0.5486  1.5101 -0.4640
  486MOL0     H65548   0.623   5.139   6.170  0.0014  0.2746 -0.1499
  486MOL0     H65549   0.466   5.301   6.210 -2.3025 -0.2049 -0.0974
  486MOL0     H65550   0.504   5.399   6.063  1.3351  0.5151  0.8112
  486MOL0     H65551   0.398   5.182   5.942 -0.5627 -1.4416 -0.1944
  486MOL0     H65552   0.376   5.115   6.098 -0.0325 -0.7947  0.5244
  486MOL0     H65553   0.248   5.364   6.139 -0.9269 -0.5863  0.3728
  486MOL0     H65554   0.218   5.331   5.961 -1.3038  1.0064  1.8259
  486MOL0     H65555   0.103   5.142   5.998 -0.6707 -0.0639  0.8234
  486MOL0     H65556   0.165   5.127   6.161  0.4164  1.5873  1.6080
  486MOL0     H65557  -0.056   5.191   6.204 -0.0326 -4.1589 -3.7790
  486MOL0     H65558   0.039   5.343   6.218  0.6202 -2.0432  1.1652
  486MOL0     H65559  -0.095   5.264   5.965 -0.5201  0.9250 -1.1475
  486MOL0     H65560  -0.013   5.417   6.007  0.5725 -1.1655  0.5054
  486MOL0     H65561  -0.313   5.212   6.166 -0.2782  0.3343  2.0101
  486MOL0     H65562  -0.560   5.270   6.240  2.9364  0.2306  2.7196
  486MOL0     H65563  -0.571   5.445   6.279  1.4100 -1.8866  1.4559
  486MOL0     H65564  -0.612   5.497   6.022  1.6608 -1.1045 -1.1072
  486MOL0     H65565  -0.743   5.395   6.090 -0.5232  0.8648 -2.1401
  486MOL0     H65566  -0.593   5.210   5.997 -2.6332 -0.3985 -0.1866
  486MOL0     H65567  -0.514   5.333   5.902 -0.0509 -0.0053 -0.7617
  486MOL0     H65568  -0.687   5.352   5.762  0.1150  0.3774  0.3969
  486MOL0     H65569  -0.808   5.325   5.884 -1.9127 -0.0466 -2.5837
  486MOL0     H65570  -0.962   5.179   5.887  0.3588  3.4762 -1.4040
  486MOL0     H65571  -1.181   5.166   5.892 -0.5836 -2.2743  0.2595
  486MOL0     H65572  -1.262   5.228   5.747  3.2014  3.3980  1.1817
  486MOL0     H65573  -1.268   5.048   5.797 -0.6392  0.4586 -0.6660
  486MOL0     H65574  -1.247   4.822   5.231  0.0202  0.7374 -1.2780
  486MOL0     H65575  -1.443   4.800   5.072  0.0918  0.9724 -2.0377
  486MOL0     H65576  -1.742   5.126   5.052 -0.7098 -2.0275  1.1385
  486MOL0     H65577  -1.631   5.160   4.916 -1.8996 -0.9422 -2.1923
  486MOL0     H65578  -1.884   5.013   4.963 -1.4709  0.0353 -0.3985
  486MOL0     H65579  -1.859   5.141   4.857  1.6109  1.3111  0.6172
  486MOL0     H65580  -1.771   4.853   4.790 -0.6305  0.8683  0.2043
  486MOL0     H65581  -1.688   5.004   4.725 -0.3724  0.8622  1.0318
  486MOL0     H65582  -1.919   5.073   4.648  1.3298 -1.3662 -1.0787
  486MOL0     H65583  -1.851   4.935   4.577  0.4565  0.1276 -0.3812
  486MOL0     H65584  -2.056   4.950   4.825  0.2295 -0.0144 -0.0857
  486MOL0     H65585  -2.008   4.793   4.761 -2.7949 -0.0783 -0.2973
  486MOL0     H65586  -2.234   4.900   4.666 -0.6594  2.1428 -1.6079
  486MOL0     H65587  -2.132   5.018   4.581  1.0777 -0.3505 -1.2155
  486MOL0     H65588  -2.054   4.735   4.569  2.1826  0.0476 -0.8929
  486MOL0     H65589  -2.026   4.868   4.443 -0.4832  0.3134  0.1182
  486MOL0     H65590  -2.267   4.710   4.495 -0.3050 -0.0695 -0.6840
  486MOL0     H65591  -2.174   4.706   4.355  0.1205 -1.1786  0.9241
  486MOL0     H65592  -1.541   5.206   5.153  1.3081  0.9191 -0.3403
  486MOL0     H65593  -1.336   5.229   5.283 -2.0875 -0.1579  3.2392
  486MOL0     H65594  -0.933   5.036   5.419 -0.6930 -1.5082  0.4693
  486MOL0     H65595  -0.735   5.078   5.538  1.0994  2.5064 -0.3550
  486MOL0     H65596   0.850   5.589   5.917  0.5229  1.0363  2.7212
  486MOL0     H65597   1.083   5.663   5.838  0.9070 -0.2916 -2.0510
  486MOL0     H65598   1.348   5.585   5.422  0.1853  1.2396  0.5502
  486MOL0     H65599   1.569   5.626   5.335  2.3564  1.5513 -0.3242
  486MOL0     H65600   1.777   5.621   5.253  1.5339  0.2513 -0.7726
  486MOL0     H65601   1.787   5.757   5.366 -1.5326 -0.5616  0.4136
  486MOL0     H65602   2.015   5.552   5.319  0.1775 -0.6569 -0.1354
  486MOL0     H65603   2.018   5.696   5.431 -2.6850  1.1800  1.8568
  486MOL0     H65604   2.136   5.748   5.222  0.0580  1.8673 -1.4123
  486MOL0     H65605   1.976   5.838   5.236 -0.6735 -0.1436 -0.0370
  486MOL0     H65606   2.000   5.753   4.999 -1.7684  1.7166  0.0822
  486MOL0     H65607   1.881   5.660   5.077  0.4833 -1.1075 -3.0856
  486MOL0     H65608   2.169   5.381   5.043 -0.6735 -0.2722  0.1407
  486MOL0     H65609   1.750   5.494   5.695 -2.3310 -1.3202  1.2451
  486MOL0     H65610   1.527   5.449   5.790  0.4282 -3.0029  0.1613
  487MOL0     O65611   6.467  11.076   3.335 -0.4137  0.0144 -0.0485
  487MOL0     C65612   6.524  11.179   3.366  0.1135  0.4766  0.2500
  487MOL0     O65613   6.464  11.292   3.401  0.2733  0.2963 -0.0591
  487MOL0     C65614   6.335  11.321   3.373  0.6830 -0.6692  0.1529
  487MOL0     C65615   6.271  11.316   3.247 -0.5478  0.0749  1.1660
  487MOL0     C65616   6.138  11.350   3.233 -0.0608 -0.1196  0.3011
  487MOL0     C65617   6.060  11.384   3.349 -0.1496  0.8045 -0.2461
  487MOL0     O65618   5.929  11.434   3.353 -0.2185 -0.1899 -0.1666
  487MOL0     C65619   5.850  11.496   3.245 -0.0160 -0.1541  0.4694
  487MOL0     C65620   5.713  11.437   3.230  0.0902  0.4990  0.0963
  487MOL0     C65621   5.622  11.526   3.150 -0.1465 -0.1173 -0.2514
  487MOL0     C65622   5.496  11.458   3.101 -0.2968 -0.4015  0.0024
  487MOL0     C65623   5.408  11.556   3.027 -0.0473  0.0831  0.6214
  487MOL0     C65624   5.320  11.635   3.127 -0.3616 -0.6016 -1.5304
  487MOL0     C65625   5.210  11.707   3.059  0.5989 -0.0508 -0.2448
  487MOL0     C65626   5.132  11.811   3.138 -0.7244 -0.3998 -0.4798
  487MOL0     N65627   5.061  11.746   3.250  0.5968 -0.5678  0.0508
  487MOL0     C65628   4.925  11.714   3.261  0.0757 -0.9686 -0.4158
  487MOL0     C65629   4.913  11.655   3.385 -0.2633  0.0041  0.6508
  487MOL0     C65630   4.793  11.584   3.441 -0.4693  0.6568  0.4060
  487MOL0     C65631   4.764  11.457   3.355  0.5658 -0.3491 -0.2522
  487MOL0     C65632   4.658  11.381   3.435 -0.1876 -0.1418  0.5262
  487MOL0     C65633   4.629  11.245   3.366  1.1452 -1.1365 -0.3295
  487MOL0     O65634   4.539  11.290   3.265  0.6193 -0.3411  0.1842
  487MOL0     C65635   4.415  11.230   3.262 -0.3638  0.2675  0.2324
  487MOL0     C65636   4.306  11.317   3.270 -0.0000  0.3141 -0.8373
  487MOL0     C65637   4.185  11.274   3.214  0.5887  0.5868  0.9745
  487MOL0     C65638   4.078  11.382   3.221 -0.0367  0.6751 -0.3610
  487MOL0     C65639   4.174  11.140   3.157  0.3281 -0.2411  0.0770
  487MOL0     C65640   4.046  11.089   3.108 -0.8143 -0.4474 -0.2250
  487MOL0     O65641   4.048  10.964   3.049 -0.5647 -0.3529 -0.8509
  487MOL0     C65642   3.935  10.893   3.021  0.8428 -0.5616  0.4029
  487MOL0     C65643   3.841  10.875   3.123  0.0155 -0.7138  0.2606
  487MOL0     C65644   3.709  10.830   3.095 -0.5800 -0.0729  1.0970
  487MOL0     C65645   3.685  10.770   2.970 -0.7758  0.1523 -0.5245
  487MOL0     O65646   3.566  10.703   2.948 -0.1103  0.4157 -0.3924
  487MOL0     C65647   3.546  10.629   2.829  0.3103 -0.4426  0.9191
  487MOL0     C65648   3.401  10.578   2.837  0.2600  0.1715 -0.5515
  487MOL0     C65649   3.358  10.497   2.720 -0.4770 -0.5555  0.6547
  487MOL0     C65650   3.253  10.387   2.736  0.5531 -1.1150 -0.1798
  487MOL0     C65651   3.201  10.315   2.611 -0.0549  0.2044 -0.0957
  487MOL0     C65652   3.115  10.194   2.661  0.7470 -0.7158  0.0851
  487MOL0     C65653   3.200  10.078   2.716  0.5205  0.0024 -0.3843
  487MOL0     C65654   3.113   9.945   2.734 -0.3539  0.0714  0.9779
  487MOL0    Cl65655   2.983   9.974   2.852  0.1252  0.2204 -0.1085
  487MOL0     C65656   3.784  10.785   2.872 -0.5138 -0.2611  0.3529
  487MOL0     C65657   3.908  10.847   2.896 -0.4593  0.2633  0.7587
  487MOL0     O65658   3.941  11.155   3.126 -0.3922  0.4466  0.5453
  487MOL0     C65659   4.286  11.060   3.155 -0.2548  0.7348  0.3838
  487MOL0     C65660   4.403  11.103   3.207  0.3011 -0.4900  0.0234
  487MOL0     N65661   5.034  11.671   3.449 -0.1835  0.1290  0.7051
  487MOL0     N65662   5.116  11.734   3.373  0.2434  0.3896 -0.0253
  487MOL0     C65663   6.126  11.380   3.468  0.0986 -0.0944  0.7668
  487MOL0     C65664   6.256  11.342   3.482  0.2393 -0.1407  0.8210
  487MOL0     C65665   6.672  11.174   3.367  0.1227 -0.9245  0.6978
  487MOL0     C65666   6.736  11.291   3.408  0.3577 -1.1385  0.4672
  487MOL0     C65667   6.877  11.296   3.403 -0.4824  0.1715  1.4726
  487MOL0     C65668   6.954  11.186   3.345  0.1737  0.6595  0.5885
  487MOL0     O65669   7.087  11.187   3.319 -0.1187  0.2709 -0.3296
  487MOL0     C65670   7.179  11.268   3.392  0.9384  0.2732  0.1808
  487MOL0     C65671   7.309  11.280   3.325 -0.3484 -0.7620 -0.6944
  487MOL0     C65672   7.372  11.138   3.327 -0.2379 -1.2950 -0.3238
  487MOL0     C65673   7.518  11.137   3.260 -0.4269 -0.0538  0.0347
  487MOL0     C65674   7.586  11.010   3.282 -0.1932 -0.0181 -0.1745
  487MOL0     C65675   7.632  10.900   3.293 -0.1470  0.3415  0.3530
  487MOL0     C65676   6.883  11.072   3.309  0.6437 -0.3398  0.0837
  487MOL0     C65677   6.740  11.059   3.324 -0.8677 -0.0764  0.5996
  487MOL0     H65678   6.325  11.289   3.157 -1.3075  0.1794  0.6696
  487MOL0     H65679   6.092  11.352   3.134  0.2376  2.7224  0.1301
  487MOL0     H65680   5.818  11.598   3.269 -3.4396 -0.4709 -1.9968
  487MOL0     H65681   5.899  11.492   3.147  0.1966  0.4323  0.5483
  487MOL0     H65682   5.730  11.347   3.171  2.6601  0.9212  0.0597
  487MOL0     H65683   5.674  11.417   3.330  1.7117  1.2167  0.9145
  487MOL0     H65684   5.583  11.597   3.224 -0.4602  1.4928 -1.8781
  487MOL0     H65685   5.674  11.570   3.065 -2.0911 -2.7634 -3.0241
  487MOL0     H65686   5.521  11.377   3.031  0.2571 -1.0638  0.9409
  487MOL0     H65687   5.436  11.403   3.174 -0.1045 -1.3448 -0.5294
  487MOL0     H65688   5.469  11.627   2.970 -2.3481 -0.3868 -2.6604
  487MOL0     H65689   5.344  11.508   2.953  0.8871  0.8416 -0.7205
  487MOL0     H65690   5.276  11.582   3.212 -1.2328  3.5560  0.8759
  487MOL0     H65691   5.380  11.714   3.173 -1.3532 -0.1143 -1.0613
  487MOL0     H65692   5.247  11.760   2.971 -2.5102 -2.2205 -3.1383
  487MOL0     H65693   5.149  11.625   3.020 -1.8544  0.2676  2.5819
  487MOL0     H65694   5.068  11.859   3.064  1.2181  2.1835 -0.6440
  487MOL0     H65695   5.196  11.886   3.187  0.8931 -2.9647  1.6153
  487MOL0     H65696   4.847  11.717   3.185 -0.9518  0.9552  0.6253
  487MOL0     H65697   4.819  11.550   3.541 -1.1859  0.0506  0.3918
  487MOL0     H65698   4.702  11.645   3.447  0.9419  3.2028 -1.6787
  487MOL0     H65699   4.856  11.398   3.351  2.4277  2.3239  0.5382
  487MOL0     H65700   4.732  11.492   3.256  1.8673  1.6913  0.0114
  487MOL0     H65701   4.573  11.447   3.451  0.8514  1.1331  0.9874
  487MOL0     H65702   4.704  11.353   3.530 -0.4741 -2.4618  0.0562
  487MOL0     H65703   4.579  11.175   3.434  0.3790  1.0790  1.5327
  487MOL0     H65704   4.719  11.202   3.321  2.0836  1.4238 -1.0406
  487MOL0     H65705   4.315  11.416   3.312 -0.3899  0.0014  0.0059
  487MOL0     H65706   4.118  11.477   3.258  0.3444  0.9015 -1.3113
  487MOL0     H65707   4.036  11.399   3.121  0.7251  0.4596 -0.7236
  487MOL0     H65708   3.999  11.357   3.292  2.0055 -0.0660  1.7654
  487MOL0     H65709   3.871  10.913   3.220  0.3583  0.2964 -0.2187
  487MOL0     H65710   3.624  10.822   3.163 -0.6294 -1.7103  0.8973
  487MOL0     H65711   3.562  10.690   2.739  1.5016  1.4314  2.3274
  487MOL0     H65712   3.616  10.545   2.839  0.3654 -0.6334 -0.8178
  487MOL0     H65713   3.380  10.519   2.926 -1.5835 -0.6816 -1.4879
  487MOL0     H65714   3.338  10.667   2.834 -0.1374 -0.1107 -0.6230
  487MOL0     H65715   3.439  10.431   2.686  1.2564  0.2142  3.0441
  487MOL0     H65716   3.336  10.563   2.635  1.6648 -0.7457 -0.0966
  487MOL0     H65717   3.287  10.311   2.808 -1.2413 -0.7804  1.0980
  487MOL0     H65718   3.167  10.426   2.791  0.5804 -1.3210  0.0094
  487MOL0     H65719   3.292  10.285   2.557  0.7929  1.6141  0.4985
  487MOL0     H65720   3.141  10.382   2.548 -0.4342 -0.5187 -0.5209
  487MOL0     H65721   3.035  10.226   2.729  1.9777  2.4857  0.2101
  487MOL0     H65722   3.077  10.155   2.567  2.3633 -0.4283 -0.7139
  487MOL0     H65723   3.234  10.100   2.818 -0.2121 -2.0797  0.3589
  487MOL0     H65724   3.286  10.050   2.655  0.1457 -0.6656 -0.6091
  487MOL0     H65725   3.188   9.870   2.762 -0.1895 -1.1654 -2.3311
  487MOL0     H65726   3.066   9.925   2.637 -1.0194  2.6889  0.6923
  487MOL0     H65727   3.771  10.748   2.771  0.5940 -3.7886  1.3563
  487MOL0     H65728   3.988  10.862   2.825  0.0180  3.2988  1.7563
  487MOL0     H65729   4.285  10.959   3.115  1.8901  0.6962  0.3155
  487MOL0     H65730   4.487  11.036   3.193  0.8478  0.2452 -0.2783
  487MOL0     H65731   6.071  11.408   3.558 -0.6396 -1.4150  0.7580
  487MOL0     H65732   6.293  11.330   3.584 -3.3338  0.1186  2.2935
  487MOL0     H65733   6.679  11.375   3.447 -1.4521 -1.1921 -1.8103
  487MOL0     H65734   6.934  11.388   3.410  0.1201 -0.0912  0.3774
  487MOL0     H65735   7.139  11.369   3.389 -2.0571 -0.8240 -1.1599
  487MOL0     H65736   7.186  11.238   3.497 -1.3675 -1.3059 -0.0455
  487MOL0     H65737   7.356  11.353   3.392 -0.9404  0.4933 -1.5916
  487MOL0     H65738   7.294  11.320   3.224 -1.3745  1.9599  0.4217
  487MOL0     H65739   7.306  11.068   3.274 -1.9084 -0.6814  0.8715
  487MOL0     H65740   7.383  11.108   3.431  1.0137 -0.0188 -0.0669
  487MOL0     H65741   7.577  11.217   3.305 -1.8863  0.4963  1.0590
  487MOL0     H65742   7.512  11.146   3.151 -1.8622  0.3011  0.1238
  487MOL0     H65743   7.683  10.806   3.297 -0.1163  0.3595  0.3910
  487MOL0     H65744   6.945  10.990   3.273  1.5466  1.2264 -2.1236
  487MOL0     H65745   6.694  10.966   3.295 -2.3833  0.7445  0.2452
  488MOL0     O65746   1.381   3.798   2.953 -0.0653  0.4394  0.5886
  488MOL0     C65747   1.413   3.914   2.943 -0.3891 -0.5754  0.1255
  488MOL0     O65748   1.350   4.003   2.862  0.0833  0.7861  0.0459
  488MOL0     C65749   1.243   3.959   2.788 -0.0257  0.0350  0.4389
  488MOL0     C65750   1.268   3.893   2.674 -0.1555 -0.1500  0.0360
  488MOL0     C65751   1.165   3.854   2.588  0.3654 -0.4636 -0.9318
  488MOL0     C65752   1.031   3.895   2.604 -1.6143 -0.3941 -0.1592
  488MOL0     O65753   0.919   3.878   2.532 -0.3164  0.1867 -0.4369
  488MOL0     C65754   0.929   3.771   2.452  0.1130  0.3216  0.0271
  488MOL0     C65755   0.783   3.745   2.417 -0.2058  0.2387  0.9032
  488MOL0     C65756   0.757   3.654   2.302 -0.1867  0.9871  0.0304
  488MOL0     C65757   0.606   3.647   2.272  0.7254  0.5799 -0.0382
  488MOL0     C65758   0.576   3.565   2.148 -0.1192 -0.0689 -0.4235
  488MOL0     C65759   0.431   3.565   2.108 -0.2390  0.0462 -0.2386
  488MOL0     C65760   0.410   3.498   1.969  0.2514 -0.6268 -0.1576
  488MOL0     C65761   0.261   3.452   1.955  0.2891 -0.4334  0.2428
  488MOL0     N65762   0.226   3.418   1.818 -0.1602  0.1026 -0.3543
  488MOL0     C65763   0.208   3.506   1.724  0.3184 -0.4960  0.4722
  488MOL0     C65764   0.130   3.445   1.629 -0.2327  0.3185  0.5503
  488MOL0     C65765   0.085   3.515   1.505  0.3374  0.3551  0.8405
  488MOL0     C65766  -0.053   3.587   1.526  0.1734 -0.1140  1.0785
  488MOL0     C65767  -0.096   3.665   1.400 -0.0292 -0.6768  0.4927
  488MOL0     C65768  -0.230   3.735   1.423  0.1659 -0.8110 -0.2646
  488MOL0     O65769  -0.257   3.844   1.328 -0.5868 -0.3155 -0.0652
  488MOL0     C65770  -0.158   3.909   1.261  0.1022 -0.3827 -1.1582
  488MOL0     C65771  -0.131   3.878   1.133  0.2412 -0.6499  0.6788
  488MOL0     C65772  -0.045   3.955   1.059  0.3262 -0.8149  0.2908
  488MOL0     C65773  -0.025   3.906   0.910 -0.5015  0.4957  0.1448
  488MOL0     C65774   0.011   4.079   1.111  0.6279 -0.8423 -0.4860
  488MOL0     C65775   0.096   4.179   1.026 -0.3258  0.5319 -0.2616
  488MOL0     O65776   0.137   4.290   1.087  0.3018 -0.8281  0.6846
  488MOL0     C65777   0.238   4.368   1.030 -0.1423  0.5548 -0.5047
  488MOL0     C65778   0.229   4.426   0.906  0.1548  0.1398 -0.2125
  488MOL0     C65779   0.336   4.504   0.858  0.0138 -0.4814  0.2900
  488MOL0     C65780   0.447   4.530   0.942  0.3100 -1.3361  0.5438
  488MOL0     O65781   0.552   4.613   0.899  0.4808 -0.2545  0.0255
  488MOL0     C65782   0.591   4.578   0.767 -0.3942 -0.2644  0.7496
  488MOL0     C65783   0.742   4.607   0.748  0.9082  0.1002  0.2815
  488MOL0     C65784   0.838   4.536   0.838 -0.8973 -0.2149 -0.7030
  488MOL0     C65785   0.800   4.389   0.867  0.4963 -0.4734 -0.7455
  488MOL0     C65786   0.887   4.313   0.969 -0.8497 -0.1724  0.0680
  488MOL0     C65787   0.837   4.173   0.992 -0.1450  0.3952  0.1165
  488MOL0     C65788   0.912   4.094   1.094 -0.4721  0.7329 -0.9956
  488MOL0     C65789   0.866   3.943   1.106 -0.2605  0.2434 -0.2088
  488MOL0    Cl65790   0.702   3.938   1.174 -0.1106  0.2361 -0.4547
  488MOL0     C65791   0.450   4.484   1.076  0.1607 -0.0490 -0.7060
  488MOL0     C65792   0.346   4.405   1.118 -0.2017  0.7271  0.2520
  488MOL0     O65793   0.130   4.139   0.911  0.2311 -1.3607  0.6913
  488MOL0     C65794  -0.014   4.105   1.243 -1.1726  0.1017  0.3815
  488MOL0     C65795  -0.094   4.015   1.322 -1.1633 -0.0358  0.3545
  488MOL0     N65796   0.110   3.315   1.665  0.4025  1.0262 -0.3095
  488MOL0     N65797   0.171   3.300   1.776 -0.0126 -0.8087 -0.3293
  488MOL0     C65798   1.019   3.981   2.715 -0.5365  0.3649 -0.0153
  488MOL0     C65799   1.117   4.011   2.809  0.1925 -0.3499  0.3006
  488MOL0     C65800   1.548   3.957   2.998  0.1180  0.9936 -0.3610
  488MOL0     C65801   1.626   3.884   3.093 -0.5227  0.9455  1.0818
  488MOL0     C65802   1.753   3.919   3.137  0.5267  0.7729 -0.2782
  488MOL0     C65803   1.805   4.037   3.089 -0.9130  0.2064  0.0154
  488MOL0     O65804   1.936   4.083   3.118 -0.0669  0.6305  0.2564
  488MOL0     C65805   2.009   4.010   3.219 -0.0029 -0.4044  0.6822
  488MOL0     C65806   2.135   4.087   3.252  0.5925  0.5331 -0.1990
  488MOL0     C65807   2.096   4.220   3.310  0.5137  1.3403  0.3919
  488MOL0     C65808   2.209   4.312   3.352 -0.5279 -0.6009 -0.2043
  488MOL0     C65809   2.277   4.390   3.241 -0.0225  0.4473 -0.1101
  488MOL0     C65810   2.331   4.457   3.154  0.1881 -0.0821  0.5787
  488MOL0     C65811   1.732   4.122   3.002  0.1606  0.2700 -0.8736
  488MOL0     C65812   1.603   4.081   2.964  0.6128 -1.1551  0.0923
  488MOL0     H65813   1.372   3.866   2.658  0.2744  0.7500  1.1112
  488MOL0     H65814   1.201   3.808   2.497 -1.7365 -2.1352 -0.9979
  488MOL0     H65815   0.990   3.790   2.364 -0.5606  0.4702 -0.4146
  488MOL0     H65816   0.966   3.685   2.509  0.2851 -1.2981 -2.4161
  488MOL0     H65817   0.737   3.703   2.506  1.9852 -0.7595  1.6323
  488MOL0     H65818   0.736   3.840   2.390  0.8304  0.4182 -0.4238
  488MOL0     H65819   0.814   3.690   2.216  0.3552 -0.7506 -0.3897
  488MOL0     H65820   0.793   3.552   2.319  0.9686  1.3174 -0.3756
  488MOL0     H65821   0.544   3.612   2.354  1.4248  2.0229  1.1735
  488MOL0     H65822   0.576   3.752   2.262  0.9962  0.6644  0.0290
  488MOL0     H65823   0.649   3.601   2.075 -1.0194  0.0479 -1.2881
  488MOL0     H65824   0.597   3.461   2.173  2.3539  0.2058 -1.0940
  488MOL0     H65825   0.380   3.512   2.189  3.5550 -1.9238  1.0751
  488MOL0     H65826   0.392   3.667   2.109  2.1333  1.0230 -0.2730
  488MOL0     H65827   0.440   3.559   1.883 -0.2637  0.7151  0.5821
  488MOL0     H65828   0.473   3.409   1.969 -0.8704 -1.4628 -1.6957
  488MOL0     H65829   0.198   3.538   1.979  0.4538  0.2415 -1.5905
  488MOL0     H65830   0.241   3.368   2.023 -1.5325 -0.1035  0.1591
  488MOL0     H65831   0.244   3.608   1.719 -0.8313 -0.1172 -0.3716
  488MOL0     H65832   0.153   3.592   1.468 -0.1382  0.4829  0.2144
  488MOL0     H65833   0.068   3.445   1.423 -1.1398  0.2428  1.2000
  488MOL0     H65834  -0.052   3.654   1.613  0.7277 -0.7338  1.5531
  488MOL0     H65835  -0.126   3.509   1.549  0.7242 -1.7555 -2.2092
  488MOL0     H65836  -0.107   3.615   1.303 -2.2026  2.9331 -1.3802
  488MOL0     H65837  -0.019   3.743   1.389  0.2835 -0.7258  2.1100
  488MOL0     H65838  -0.244   3.772   1.525 -0.4810 -0.7727 -0.3656
  488MOL0     H65839  -0.314   3.668   1.403 -0.4547 -0.0038 -0.3829
  488MOL0     H65840  -0.174   3.787   1.093 -0.0765  0.3343 -1.3405
  488MOL0     H65841  -0.073   3.810   0.892  1.0489 -0.3856  0.5114
  488MOL0     H65842  -0.069   3.983   0.845  0.5045  0.3013 -0.7997
  488MOL0     H65843   0.078   3.894   0.874 -0.3758  2.0387 -0.1083
  488MOL0     H65844   0.146   4.401   0.840  0.2915 -0.7493 -0.0574
  488MOL0     H65845   0.329   4.532   0.753 -1.4131  0.5984  0.6341
  488MOL0     H65846   0.567   4.475   0.737  2.5875 -0.7041 -0.4558
  488MOL0     H65847   0.532   4.633   0.693 -0.3530 -0.8628  0.2615
  488MOL0     H65848   0.779   4.594   0.646  1.0407 -0.9949  0.4564
  488MOL0     H65849   0.748   4.714   0.773  1.1469  0.3784 -0.9165
  488MOL0     H65850   0.861   4.580   0.935 -2.1065 -0.3001 -0.3601
  488MOL0     H65851   0.929   4.516   0.781 -1.8035 -1.8991 -1.6584
  488MOL0     H65852   0.703   4.383   0.916  1.4561  0.1500  1.3549
  488MOL0     H65853   0.808   4.339   0.770 -1.9983 -0.4479 -1.0139
  488MOL0     H65854   0.873   4.368   1.063 -2.2433 -1.0425  0.4126
  488MOL0     H65855   0.994   4.317   0.946 -0.6092  3.1058  1.2079
  488MOL0     H65856   0.734   4.191   1.022 -0.9833  0.2287 -2.4546
  488MOL0     H65857   0.853   4.112   0.903  0.3446 -1.8248  1.6420
  488MOL0     H65858   0.916   4.144   1.191  3.0692 -1.2100  0.0451
  488MOL0     H65859   1.016   4.094   1.059  0.4563  2.6933  1.4938
  488MOL0     H65860   0.945   3.889   1.158 -1.2097  0.3679  1.4291
  488MOL0     H65861   0.868   3.901   1.005  0.8724 -0.9684  0.2974
  488MOL0     H65862   0.521   4.525   1.147 -1.3584  0.1267  0.7707
  488MOL0     H65863   0.363   4.369   1.218 -0.0712 -1.8444 -0.6239
  488MOL0     H65864   0.019   4.199   1.288  1.1835 -0.7702  0.6079
  488MOL0     H65865  -0.132   4.033   1.422 -1.4267 -0.2235  0.2896
  488MOL0     H65866   0.927   4.037   2.731 -0.7238 -0.0501  0.3889
  488MOL0     H65867   1.114   4.083   2.890  2.1246  1.2563 -0.9698
  488MOL0     H65868   1.575   3.795   3.131 -0.2671 -0.2093 -1.1323
  488MOL0     H65869   1.793   3.857   3.216  0.6547 -0.0442 -0.9758
  488MOL0     H65870   1.956   3.991   3.313  1.4427 -1.7799  1.2531
  488MOL0     H65871   2.039   3.913   3.179  1.2980  0.5439 -0.7515
  488MOL0     H65872   2.193   4.111   3.163 -1.6856  2.6888 -1.2436
  488MOL0     H65873   2.196   4.026   3.320 -2.6951 -0.5203  2.1248
  488MOL0     H65874   2.028   4.205   3.394 -2.1711  1.3617 -1.6418
  488MOL0     H65875   2.044   4.283   3.237 -3.4988 -0.1983  1.6574
  488MOL0     H65876   2.290   4.260   3.405  1.1734  0.5096 -1.6122
  488MOL0     H65877   2.173   4.389   3.421 -0.9737  0.2263 -1.3279
  488MOL0     H65878   2.387   4.520   3.088  0.9166 -1.9063 -0.6006
  488MOL0     H65879   1.783   4.214   2.975  0.2787  0.5092  0.1254
  488MOL0     H65880   1.553   4.150   2.897  2.4274 -0.3931 -0.5262
  489MOL0     O65881   5.916  11.254   8.815 -0.0147 -0.4033 -0.0270
  489MOL0     C65882   6.004  11.298   8.742 -0.6798 -0.0021  0.0398
  489MOL0     O65883   5.983  11.379   8.628  0.4085  0.4425 -1.2975
  489MOL0     C65884   5.855  11.412   8.584  0.3516  0.1692 -0.5283
  489MOL0     C65885   5.803  11.356   8.466 -0.2681 -0.0266  0.1216
  489MOL0     C65886   5.677  11.391   8.418  0.2535  0.7209 -0.4760
  489MOL0     C65887   5.597  11.480   8.494 -0.4786 -0.2110 -0.5246
  489MOL0     O65888   5.465  11.504   8.445 -0.5259 -0.1650  0.7495
  489MOL0     C65889   5.384  11.590   8.523 -0.3898  1.3027 -0.7522
  489MOL0     C65890   5.241  11.580   8.484  0.4045 -0.1415 -0.7210
  489MOL0     C65891   5.130  11.614   8.590 -1.2316 -0.2209 -0.5395
  489MOL0     C65892   4.998  11.554   8.546  0.3291 -0.2856  0.0989
  489MOL0     C65893   4.885  11.580   8.647  0.0637 -0.0761 -0.2491
  489MOL0     C65894   4.902  11.523   8.788 -0.2835 -0.0057  0.5164
  489MOL0     C65895   4.762  11.534   8.859  0.7045 -0.1133 -0.7572
  489MOL0     C65896   4.751  11.503   9.017  0.0043  0.3594  0.4039
  489MOL0     N65897   4.826  11.599   9.097  0.3391 -0.1546  0.4708
  489MOL0     C65898   4.869  11.725   9.067  0.8951 -0.6856 -0.2776
  489MOL0     C65899   4.895  11.780   9.194  0.6711  0.7749 -0.6499
  489MOL0     C65900   4.928  11.929   9.204  1.1026 -0.6743  0.2996
  489MOL0     C65901   4.804  11.994   9.264 -0.3410  0.3956  0.2526
  489MOL0     C65902   4.790  11.959   9.422  0.1985  0.0809  0.5674
  489MOL0     C65903   4.912  11.974   9.500 -0.9017  0.9809 -0.3750
  489MOL0     O65904   4.980  12.095   9.478  0.1923  0.1182 -0.5860
  489MOL0     C65905   5.104  12.099   9.535  0.3768 -0.4666  0.2682
  489MOL0     C65906   5.152  12.018   9.637  0.1185 -0.1141 -0.6884
  489MOL0     C65907   5.284  12.025   9.679 -0.2352  0.2751  0.2087
  489MOL0     C65908   5.325  11.932   9.790  0.2892 -0.1342 -0.5267
  489MOL0     C65909   5.380  12.112   9.610  0.8092 -0.5311 -0.9846
  489MOL0     C65910   5.526  12.119   9.642 -0.0343 -0.2878  0.6894
  489MOL0     O65911   5.581  12.047   9.741  0.4936  0.2882 -0.4292
  489MOL0     C65912   5.709  12.066   9.793  1.1762  0.2081 -0.5783
  489MOL0     C65913   5.796  12.169   9.761 -0.1729 -0.2354  0.7428
  489MOL0     C65914   5.924  12.175   9.822 -0.5411 -0.4141 -0.0889
  489MOL0     C65915   5.965  12.086   9.922  0.9769  0.2674  0.2309
  489MOL0     O65916   6.083  12.097   9.996 -0.2666  0.4009 -0.3204
  489MOL0     C65917   6.198  12.154   9.927 -0.5666 -0.5116 -0.0621
  489MOL0     C65918   6.322  12.091   9.994  0.1975 -0.4351  0.7910
  489MOL0     C65919   6.461  12.153   9.960 -0.3020 -1.7796  1.3516
  489MOL0     C65920   6.571  12.099  10.046  1.0127 -0.2753 -0.1988
  489MOL0     C65921   6.700  12.173  10.018  0.1074  0.8097  0.5817
  489MOL0     C65922   6.817  12.112  10.095  0.4622 -0.4874 -0.0921
  489MOL0     C65923   6.946  12.171  10.045  0.3103  0.3039 -0.3461
  489MOL0     C65924   7.065  12.147  10.142 -0.2407 -0.4760  0.1845
  489MOL0    Cl65925   7.088  11.975  10.142 -0.4996  0.1721 -0.7392
  489MOL0     C65926   5.875  11.981   9.953  0.0149 -0.7656  0.6131
  489MOL0     C65927   5.749  11.978   9.891 -0.5629  0.5777  0.0707
  489MOL0     O65928   5.591  12.188   9.559  0.1101  0.4695 -0.1660
  489MOL0     C65929   5.321  12.191   9.510 -0.0658 -0.3619  0.7343
  489MOL0     C65930   5.186  12.198   9.482  0.3289  0.2538  0.0073
  489MOL0     N65931   4.875  11.689   9.298 -0.5044 -0.2172  0.4231
  489MOL0     N65932   4.840  11.577   9.232  0.0721  0.2160  0.1153
  489MOL0     C65933   5.653  11.536   8.612 -0.1740 -0.6769 -0.4478
  489MOL0     C65934   5.776  11.495   8.664 -0.0661 -0.3832  0.3207
  489MOL0     C65935   6.141  11.270   8.777 -1.2176 -0.4200  0.2717
  489MOL0     C65936   6.242  11.356   8.728  1.1026  0.3913 -0.0355
  489MOL0     C65937   6.366  11.346   8.775  0.4976 -0.2572 -0.3018
  489MOL0     C65938   6.414  11.245   8.850  1.3548  0.6603 -0.8915
  489MOL0     O65939   6.545  11.244   8.894 -0.0175  0.4388  0.1504
  489MOL0     C65940   6.596  11.127   8.965 -0.1891  0.0814 -0.5161
  489MOL0     C65941   6.731  11.100   8.921  0.0884  0.9384 -0.0278
  489MOL0     C65942   6.720  11.073   8.767  0.6543  0.4050 -0.7801
  489MOL0     C65943   6.822  10.970   8.717 -0.8041 -0.1727 -0.2976
  489MOL0     C65944   6.953  11.031   8.722 -0.3027  0.6611  0.0521
  489MOL0     C65945   7.061  11.086   8.748 -0.6204 -0.3326  0.1252
  489MOL0     C65946   6.312  11.147   8.882 -0.7246  0.2305  0.5472
  489MOL0     C65947   6.180  11.159   8.852 -0.1049  0.1387 -0.0040
  489MOL0     H65948   5.869  11.282   8.422 -1.3808 -0.3662 -1.0597
  489MOL0     H65949   5.626  11.341   8.336  1.6364  1.9423 -2.1649
  489MOL0     H65950   5.384  11.546   8.623 -2.8350 -0.3248 -1.3900
  489MOL0     H65951   5.427  11.690   8.515 -0.1229  1.4189  1.4830
  489MOL0     H65952   5.227  11.643   8.395 -0.1333 -2.0506 -2.0446
  489MOL0     H65953   5.214  11.484   8.441  0.3375 -0.0770 -0.8251
  489MOL0     H65954   5.160  11.579   8.689 -1.9620  0.5884 -0.0154
  489MOL0     H65955   5.121  11.722   8.603  0.3080 -0.0072 -1.1027
  489MOL0     H65956   4.964  11.602   8.453 -1.4069  1.6581  1.6368
  489MOL0     H65957   5.005  11.446   8.529  0.0478  0.0581 -2.8219
  489MOL0     H65958   4.854  11.685   8.653 -1.6154 -0.4714 -1.3054
  489MOL0     H65959   4.798  11.533   8.602 -0.2537  0.0817  0.1920
  489MOL0     H65960   4.934  11.419   8.776  0.2873  0.0075  1.7269
  489MOL0     H65961   4.970  11.575   8.856 -1.3598 -2.1679  3.5187
  489MOL0     H65962   4.723  11.635   8.842  1.6711  0.2685 -0.7327
  489MOL0     H65963   4.686  11.473   8.808  0.5258 -0.2953 -0.2830
  489MOL0     H65964   4.780  11.402   9.049 -0.2275  0.0655 -0.2813
  489MOL0     H65965   4.645  11.494   9.041  0.0809 -1.3382  0.2750
  489MOL0     H65966   4.870  11.780   8.973  2.3474  1.2495  0.7883
  489MOL0     H65967   5.016  11.942   9.268  1.2245  1.5755 -0.2249
  489MOL0     H65968   4.950  11.961   9.102 -0.9944  0.5967  0.1895
  489MOL0     H65969   4.719  11.951   9.211  0.3287 -4.6043  2.6834
  489MOL0     H65970   4.800  12.103   9.255 -0.7206  0.2789 -1.2645
  489MOL0     H65971   4.748  11.859   9.426 -4.1589  1.4628 -2.8285
  489MOL0     H65972   4.709  12.021   9.463  1.7220 -0.4919  5.0479
  489MOL0     H65973   4.975  11.889   9.475  0.4065  2.2086 -1.4553
  489MOL0     H65974   4.892  11.966   9.607 -2.1739 -2.4694 -0.7385
  489MOL0     H65975   5.080  11.959   9.693 -0.9031  1.8826  0.2271
  489MOL0     H65976   5.235  11.875   9.815  1.0321 -2.0638 -2.0123
  489MOL0     H65977   5.403  11.863   9.756  1.4222  0.0558  1.5308
  489MOL0     H65978   5.363  11.978   9.882  1.4095  1.3341 -1.6506
  489MOL0     H65979   5.773  12.233   9.676 -2.4790 -2.4284 -0.3865
  489MOL0     H65980   5.965  12.267   9.781 -3.9186  2.1410  1.7292
  489MOL0     H65981   6.199  12.139   9.819  1.0265  4.3849 -0.9782
  489MOL0     H65982   6.176  12.259   9.949  0.2898 -0.1051 -1.0891
  489MOL0     H65983   6.302  12.098  10.101 -0.3660  0.3821  0.6393
  489MOL0     H65984   6.323  11.983   9.975  0.4581 -0.3169  0.0834
  489MOL0     H65985   6.456  12.262   9.971  2.9219 -1.4309  0.5011
  489MOL0     H65986   6.488  12.132   9.856  0.1613  1.6612  0.6549
  489MOL0     H65987   6.561  12.122  10.153 -1.4924  3.9901 -1.1328
  489MOL0     H65988   6.569  11.992  10.023  0.3541 -0.0868 -1.0868
  489MOL0     H65989   6.686  12.279  10.039  2.3677  1.5590 -1.2379
  489MOL0     H65990   6.718  12.157   9.911 -3.0939 -1.9003  0.2759
  489MOL0     H65991   6.811  12.131  10.202  1.6438 -0.2018 -0.0573
  489MOL0     H65992   6.820  12.003  10.086  0.5336 -0.4000 -1.3014
  489MOL0     H65993   6.927  12.278  10.031 -1.3810  0.2381  1.1444
  489MOL0     H65994   6.965  12.121   9.950  1.2301 -0.6201  0.3002
  489MOL0     H65995   7.048  12.181  10.245 -1.0294 -0.1553 -0.0456
  489MOL0     H65996   7.155  12.196  10.103 -1.5743  0.2743 -2.0886
  489MOL0     H65997   5.884  11.917  10.041  0.0110  0.5009  1.5615
  489MOL0     H65998   5.684  11.893   9.906 -0.8909  1.0076  1.1953
  489MOL0     H65999   5.391  12.255   9.457 -0.9593 -0.4555 -0.6095
  489MOL0     H66000   5.158  12.259   9.396  1.7011 -0.6281 -1.1004
  489MOL0     H66001   5.602  11.608   8.675  0.7721 -0.7940  0.4689
  489MOL0     H66002   5.810  11.523   8.763 -5.4779 -0.2601  2.5314
  489MOL0     H66003   6.221  11.441   8.663 -0.2021  0.0855 -0.0324
  489MOL0     H66004   6.444  11.419   8.754  0.3837  0.2507  0.9480
  489MOL0     H66005   6.603  11.165   9.068  1.2622 -0.4300 -0.4078
  489MOL0     H66006   6.539  11.034   8.961  0.1877 -0.1210 -1.2475
  489MOL0     H66007   6.775  11.015   8.974 -0.9080 -0.6564 -1.6196
  489MOL0     H66008   6.787  11.191   8.945  1.5111  0.0543  0.1197
  489MOL0     H66009   6.733  11.165   8.710  2.4477  1.4331  1.1568
  489MOL0     H66010   6.621  11.032   8.744  0.5605 -0.2072  0.5738
  489MOL0     H66011   6.794  10.953   8.613 -1.4993 -1.0159  0.0054
  489MOL0     H66012   6.816  10.872   8.767  2.8700  0.1838  1.1538
  489MOL0     H66013   7.148  11.146   8.766 -2.0846  1.4677  1.7594
  489MOL0     H66014   6.329  11.053   8.934 -0.7035 -0.3860 -0.5418
  489MOL0     H66015   6.100  11.090   8.878 -0.8075  0.0008 -2.2797
  490MOL0     O66016   5.411   2.643   9.754 -0.7065 -0.2885 -0.2205
  490MOL0     C66017   5.447   2.529   9.744 -0.0358 -0.4275 -0.2918
  490MOL0     O66018   5.370   2.415   9.729  0.3334  0.0550 -0.6603
  490MOL0     C66019   5.236   2.430   9.724  0.3040  0.3590 -0.6277
  490MOL0     C66020   5.156   2.462   9.836  0.5129 -0.7998 -0.2923
  490MOL0     C66021   5.015   2.481   9.837 -0.3567 -0.1982 -0.5736
  490MOL0     C66022   4.948   2.446   9.720  0.1430 -0.4624 -0.4058
  490MOL0     O66023   4.816   2.469   9.708  0.3203  0.3881  0.3400
  490MOL0     C66024   4.731   2.402   9.807 -0.6208 -0.4247  0.2990
  490MOL0     C66025   4.583   2.430   9.768 -0.0939  0.6499 -0.2112
  490MOL0     C66026   4.529   2.370   9.632 -0.0367  0.5018  0.2056
  490MOL0     C66027   4.427   2.472   9.573  0.2843  0.1518  0.0226
  490MOL0     C66028   4.335   2.411   9.466 -0.4996 -0.3836 -0.3266
  490MOL0     C66029   4.239   2.310   9.529 -0.0361 -0.9127 -0.2895
  490MOL0     C66030   4.117   2.383   9.596 -1.2210  0.6373  0.0689
  490MOL0     C66031   4.025   2.278   9.656 -0.7422 -0.2730  0.2611
  490MOL0     N66032   3.916   2.349   9.719  0.1321 -0.5154 -0.6686
  490MOL0     C66033   3.792   2.363   9.667 -0.2210 -0.3217 -0.0715
  490MOL0     C66034   3.732   2.452   9.747  0.9333 -0.2172  0.2472
  490MOL0     C66035   3.605   2.515   9.712  0.0882  0.2516 -0.8585
  490MOL0     C66036   3.491   2.412   9.727  0.0492  0.2382 -0.3149
  490MOL0     C66037   3.464   2.366   9.879 -0.2796  0.0768 -0.1212
  490MOL0     C66038   3.340   2.420   9.936 -0.9771 -0.0334  0.3238
  490MOL0     O66039   3.238   2.335   9.874  0.1071  0.4208  0.5567
  490MOL0     C66040   3.107   2.367   9.895  0.1221 -1.0066  0.3142
  490MOL0     C66041   3.007   2.298   9.829  0.3503  0.1074  0.6491
  490MOL0     C66042   2.871   2.322   9.838  0.2461  0.5945  0.0405
  490MOL0     C66043   2.778   2.243   9.756  0.3574 -0.5191 -0.5844
  490MOL0     C66044   2.821   2.419   9.938  0.0459  0.5268 -0.0117
  490MOL0     C66045   2.682   2.428  10.003  1.0331 -0.2336  1.0679
  490MOL0     O66046   2.565   2.406   9.920 -0.3934  0.4850 -0.2639
  490MOL0     C66047   2.439   2.404   9.966  0.3799 -0.4905 -0.3433
  490MOL0     C66048   2.345   2.435   9.869 -0.3413 -0.7034  0.0986
  490MOL0     C66049   2.207   2.439   9.894  0.5098  0.1804  0.6432
  490MOL0     C66050   2.163   2.407  10.028 -0.0496  0.2388  0.4921
  490MOL0     O66051   2.034   2.430  10.062  0.6796 -0.4118 -0.0872
  490MOL0     C66052   1.966   2.324  10.130  0.5392  0.6594  0.1483
  490MOL0     C66053   1.865   2.241  10.039  1.0083 -0.3615  0.0117
  490MOL0     C66054   1.750   2.325   9.981  0.0549  0.7921 -0.4181
  490MOL0     C66055   1.640   2.237   9.915  0.2372 -0.1474  0.0966
  490MOL0     C66056   1.518   2.327   9.894  0.0903 -0.0958  0.4953
  490MOL0     C66057   1.413   2.242   9.811 -0.4711 -0.4187 -0.2912
  490MOL0     C66058   1.294   2.321   9.762  0.2566  0.2995 -0.2468
  490MOL0     C66059   1.155   2.265   9.713  0.1804  0.7012 -0.2198
  490MOL0    Cl66060   1.184   2.133   9.592  0.0374 -0.1588 -0.2599
  490MOL0     C66061   2.261   2.369  10.127  0.0766  0.6147 -0.1699
  490MOL0     C66062   2.397   2.368  10.090 -0.1571 -0.0444  0.5261
  490MOL0     O66063   2.676   2.457  10.117  0.5209  0.1299 -0.9320
  490MOL0     C66064   2.924   2.489  10.005  0.3233  0.3709  1.2219
  490MOL0     C66065   3.059   2.470   9.984 -0.4464  0.5250 -0.3621
  490MOL0     N66066   3.811   2.487   9.852 -0.4284  0.2453  0.0696
  490MOL0     N66067   3.922   2.426   9.841  1.1361 -0.2681  0.6976
  490MOL0     C66068   5.023   2.414   9.603  1.1591 -0.7076  0.0816
  490MOL0     C66069   5.163   2.399   9.605 -1.0745  0.3112  0.3181
  490MOL0     C66070   5.593   2.488   9.757  0.5176 -0.7146 -0.0550
  490MOL0     C66071   5.694   2.586   9.782 -0.0569  0.4689  0.2225
  490MOL0     C66072   5.829   2.548   9.782 -0.4356  0.1919  0.0274
  490MOL0     C66073   5.875   2.425   9.747 -0.7972 -0.0254  0.5489
  490MOL0     O66074   6.009   2.379   9.744 -0.3166  0.5426  0.5333
  490MOL0     C66075   6.110   2.471   9.773  0.6516 -0.1518 -0.6793
  490MOL0     C66076   6.143   2.561   9.658 -0.0600  0.2220  0.7851
  490MOL0     C66077   6.211   2.476   9.546 -0.0695 -0.2871  0.5598
  490MOL0     C66078   6.339   2.546   9.486  0.8392  0.4817  0.0221
  490MOL0     C66079   6.442   2.574   9.592 -1.0406 -0.5461  0.4391
  490MOL0     C66080   6.531   2.603   9.669 -0.0219  0.0767 -0.6188
  490MOL0     C66081   5.780   2.326   9.717 -0.7265  0.7506  0.5211
  490MOL0     C66082   5.640   2.356   9.727 -0.7296  0.7314  0.2478
  490MOL0     H66083   5.201   2.462   9.935 -1.6362 -1.1078  0.7503
  490MOL0     H66084   4.956   2.535   9.911 -0.7260  0.7504 -1.5271
  490MOL0     H66085   4.742   2.293   9.802 -1.9587 -0.6279  1.1836
  490MOL0     H66086   4.756   2.434   9.908 -1.4877 -1.0471  0.7358
  490MOL0     H66087   4.531   2.384   9.853  1.8231 -1.4585 -0.0937
  490MOL0     H66088   4.568   2.538   9.782 -2.4898  0.5807 -1.7307
  490MOL0     H66089   4.611   2.341   9.566  0.6156 -1.3411  1.7571
  490MOL0     H66090   4.486   2.276   9.666 -0.9428  1.3170  1.3941
  490MOL0     H66091   4.365   2.512   9.654  1.6020  1.1707  0.5831
  490MOL0     H66092   4.475   2.564   9.538  2.0240 -1.8584 -3.3127
  490MOL0     H66093   4.270   2.484   9.418 -0.9563 -1.3415 -1.2170
  490MOL0     H66094   4.394   2.354   9.394  0.8927 -0.7441  1.0325
  490MOL0     H66095   4.206   2.242   9.450  2.5467 -0.5795 -1.7687
  490MOL0     H66096   4.290   2.249   9.604 -0.0924  0.1258  0.6191
  490MOL0     H66097   4.143   2.445   9.683 -0.3539  0.0074  0.2738
  490MOL0     H66098   4.066   2.444   9.521  0.6510  2.0227 -0.1705
  490MOL0     H66099   4.078   2.229   9.738 -0.3114  1.3193  0.9564
  490MOL0     H66100   3.997   2.206   9.578 -1.3445  1.3144 -1.0392
  490MOL0     H66101   3.762   2.327   9.569  0.2477  0.2523 -0.4334
  490MOL0     H66102   3.585   2.599   9.778  0.6053  1.2489 -1.9454
  490MOL0     H66103   3.609   2.547   9.608  2.0888 -3.2893 -2.0636
  490MOL0     H66104   3.522   2.326   9.667 -0.7089  1.2306 -2.2516
  490MOL0     H66105   3.398   2.450   9.683  0.7412  2.2591 -0.1074
  490MOL0     H66106   3.547   2.394   9.945 -2.0168 -0.8390  2.6060
  490MOL0     H66107   3.460   2.258   9.892 -2.2461  0.2044  0.6401
  490MOL0     H66108   3.338   2.527   9.916  2.5675  0.4313  1.5969
  490MOL0     H66109   3.334   2.412  10.045 -2.2449  0.1457  0.2736
  490MOL0     H66110   3.058   2.232   9.759 -0.6543 -1.6497  1.5136
  490MOL0     H66111   2.706   2.300   9.697 -1.5607 -0.4316  1.7189
  490MOL0     H66112   2.824   2.172   9.687  2.2495 -1.4827  1.5332
  490MOL0     H66113   2.722   2.176   9.822  0.0129  0.2571 -0.0779
  490MOL0     H66114   2.380   2.462   9.770  2.2428  0.6204  1.2869
  490MOL0     H66115   2.131   2.473   9.825 -0.3958  0.7573  1.8777
  490MOL0     H66116   2.039   2.254  10.172  0.5143  1.5548  1.7816
  490MOL0     H66117   1.907   2.359  10.215  0.1404 -1.9033  1.0356
  490MOL0     H66118   1.921   2.202   9.954 -0.6378 -2.7728 -0.0338
  490MOL0     H66119   1.831   2.157  10.100  1.9703 -1.1210 -0.4676
  490MOL0     H66120   1.789   2.401   9.912  2.2816 -0.2048 -0.3520
  490MOL0     H66121   1.700   2.367  10.069 -2.6871 -0.9058 -1.0237
  490MOL0     H66122   1.676   2.189   9.824 -2.1319 -0.5188 -0.7204
  490MOL0     H66123   1.610   2.150   9.974 -1.3036 -3.0271 -4.4021
  490MOL0     H66124   1.537   2.417   9.835  3.1345  0.1534  1.6831
  490MOL0     H66125   1.476   2.354   9.991  1.7896 -1.2873  1.6106
  490MOL0     H66126   1.460   2.188   9.729 -1.4084 -0.4420 -0.8330
  490MOL0     H66127   1.382   2.157   9.873  2.2311 -2.4306 -1.5131
  490MOL0     H66128   1.328   2.375   9.672 -1.0193 -2.6609 -2.6774
  490MOL0     H66129   1.265   2.390   9.842 -1.2764 -0.0280 -0.4890
  490MOL0     H66130   1.087   2.339   9.670  0.8039  2.1558  1.1889
  490MOL0     H66131   1.108   2.219   9.801  3.1995 -0.1446  1.0976
  490MOL0     H66132   2.249   2.322  10.224  0.8718 -2.2419 -1.3582
  490MOL0     H66133   2.473   2.343  10.163  0.0567 -1.0117 -0.0086
  490MOL0     H66134   2.902   2.556  10.088 -1.5636 -0.5512  1.5140
  490MOL0     H66135   3.122   2.529  10.050  0.1796 -0.3111 -0.2088
  490MOL0     H66136   4.981   2.412   9.503  1.5484  1.0670 -0.1479
  490MOL0     H66137   5.220   2.375   9.516 -0.6195 -2.9194  1.3247
  490MOL0     H66138   5.665   2.690   9.799 -0.6483  1.0898 -3.6434
  490MOL0     H66139   5.909   2.619   9.799 -0.5738  0.9152 -2.0129
  490MOL0     H66140   6.088   2.526   9.865  1.6927 -0.7465 -0.0474
  490MOL0     H66141   6.203   2.415   9.791 -0.5978 -2.6732 -1.5035
  490MOL0     H66142   6.210   2.639   9.696 -0.8557  0.4814  1.6819
  490MOL0     H66143   6.051   2.610   9.625 -1.7992 -2.5237  1.2555
  490MOL0     H66144   6.135   2.467   9.469 -2.9275  2.8089  2.7324
  490MOL0     H66145   6.236   2.377   9.584 -1.3617 -1.2437 -0.9834
  490MOL0     H66146   6.307   2.642   9.445  0.9016  0.9862  1.1075
  490MOL0     H66147   6.385   2.482   9.409 -2.6211  1.4636 -3.1461
  490MOL0     H66148   6.612   2.622   9.736 -1.9276 -0.6613  2.0703
  490MOL0     H66149   5.816   2.228   9.686  0.6964  1.3027  0.3581
  490MOL0     H66150   5.573   2.274   9.703  0.0701  0.8868 -3.0247
  491MOL0     O66151   1.000   9.890   8.344  0.5425  0.5200 -0.3865
  491MOL0     C66152   1.083   9.946   8.418  0.0242 -0.2744 -0.2764
  491MOL0     O66153   1.057   9.972   8.548  0.4307  0.1572  0.3702
  491MOL0     C66154   0.927   9.947   8.591  0.2668  0.0771  0.4821
  491MOL0     C66155   0.825  10.047   8.603  0.0086 -0.0402  0.7328
  491MOL0     C66156   0.694  10.017   8.646  0.2083 -0.7885  0.4643
  491MOL0     C66157   0.660   9.896   8.685  0.1974  0.1377 -0.0892
  491MOL0     O66158   0.539   9.864   8.742  0.6942 -0.0109  0.0119
  491MOL0     C66159   0.423   9.943   8.710 -0.8770 -0.4586  0.7758
  491MOL0     C66160   0.303   9.867   8.775 -0.2509 -0.1709 -0.4355
  491MOL0     C66161   0.172   9.953   8.787 -0.3621 -0.3037  0.2550
  491MOL0     C66162   0.065   9.873   8.852  0.3131  0.1869 -0.0907
  491MOL0     C66163  -0.049   9.951   8.922  0.6511 -0.3137 -1.1309
  491MOL0     C66164  -0.154   9.844   8.976  0.0764  0.6901 -0.0537
  491MOL0     C66165  -0.270   9.909   9.054  0.7634  0.0370  0.3492
  491MOL0     C66166  -0.220   9.982   9.183 -0.4131  0.1283 -0.4414
  491MOL0     N66167  -0.321  10.012   9.282 -0.2701 -0.1312  0.4273
  491MOL0     C66168  -0.396  10.121   9.285  0.0409  0.8900  0.6362
  491MOL0     C66169  -0.459  10.109   9.401  0.2547 -0.0952  0.3862
  491MOL0     C66170  -0.573  10.185   9.457  0.1709 -0.6850 -1.5043
  491MOL0     C66171  -0.709  10.120   9.416  0.0462 -0.5286 -0.3442
  491MOL0     C66172  -0.838  10.201   9.468 -0.7627  0.5286 -0.4282
  491MOL0     C66173  -0.960  10.136   9.416 -0.3312 -0.0875  0.4977
  491MOL0     O66174  -1.075  10.227   9.426 -0.0639  0.3091 -0.1933
  491MOL0     C66175  -1.203  10.173   9.408 -0.4892  0.7456 -0.4655
  491MOL0     C66176  -1.216  10.049   9.342  0.2984  0.2486  0.6248
  491MOL0     C66177  -1.351  10.008   9.314 -0.7347 -0.7810 -0.9162
  491MOL0     C66178  -1.363   9.869   9.249 -0.1894  0.4435 -0.5267
  491MOL0     C66179  -1.461  10.089   9.355  1.4874 -0.7671  0.2190
  491MOL0     C66180  -1.603  10.051   9.319 -0.2481  0.0137 -0.2500
  491MOL0     O66181  -1.681  10.165   9.316  0.0098 -0.2239 -0.0144
  491MOL0     C66182  -1.808  10.147   9.278  0.6500  0.1528 -0.3871
  491MOL0     C66183  -1.915  10.177   9.369  0.6793  1.2343 -0.2504
  491MOL0     C66184  -2.039  10.143   9.330  0.2900  1.2484  0.4533
  491MOL0     C66185  -2.070  10.093   9.206  0.3280  0.2303 -0.2154
  491MOL0     O66186  -2.196  10.055   9.182  0.3419  0.1615 -0.2740
  491MOL0     C66187  -2.266  10.117   9.074  0.2313  0.7341 -0.1998
  491MOL0     C66188  -2.413  10.085   9.099  0.0634 -0.7002 -0.7770
  491MOL0     C66189  -2.444   9.945   9.041  0.2292  0.0704 -0.5021
  491MOL0     C66190  -2.575   9.880   9.093 -0.6030  0.6966 -0.1684
  491MOL0     C66191  -2.609   9.757   8.992 -0.1244  0.0233 -0.8537
  491MOL0     C66192  -2.717   9.675   9.061  0.7536 -0.8370  1.1247
  491MOL0     C66193  -2.786   9.583   8.961 -0.0450  1.3869 -0.7478
  491MOL0     C66194  -2.885   9.652   8.871  0.5161 -0.2732  0.0000
  491MOL0    Cl66195  -2.916   9.556   8.720 -0.5595 -0.1155  0.1977
  491MOL0     C66196  -1.967  10.072   9.113 -0.1628  0.6328  0.0298
  491MOL0     C66197  -1.835  10.094   9.151 -0.4182  0.2762  0.0177
  491MOL0     O66198  -1.637   9.939   9.283  0.5054  1.1542 -0.0478
  491MOL0     C66199  -1.432  10.211   9.415  0.6559  0.4503 -0.1260
  491MOL0     C66200  -1.309  10.250   9.453  0.3832 -0.1633  0.6324
  491MOL0     N66201  -0.427   9.986   9.457  0.1101 -0.1231  0.0025
  491MOL0     N66202  -0.338   9.933   9.380  0.2175  0.1840  0.1433
  491MOL0     C66203   0.753   9.793   8.673 -0.2314 -0.4085 -0.7304
  491MOL0     C66204   0.885   9.812   8.624  0.9508  0.2363  0.0081
  491MOL0     C66205   1.221   9.966   8.372 -0.6344  0.9314  1.0743
  491MOL0     C66206   1.326  10.019   8.446 -0.0059  0.0845  0.4875
  491MOL0     C66207   1.450  10.046   8.392  0.0445 -0.6687 -0.2710
  491MOL0     C66208   1.479  10.031   8.259  0.5712  0.4140 -0.3933
  491MOL0     O66209   1.600  10.082   8.214 -0.5814  0.0697  0.5321
  491MOL0     C66210   1.620  10.095   8.074  0.3222  0.0012 -0.0077
  491MOL0     C66211   1.744  10.173   8.057 -0.3544  0.5337  0.3895
  491MOL0     C66212   1.867  10.076   8.089  0.6154 -0.0528  0.1324
  491MOL0     C66213   2.002  10.152   8.054  0.6334 -1.0016 -0.5271
  491MOL0     C66214   2.013  10.202   7.919  0.0126  0.4114  1.0331
  491MOL0     C66215   2.008  10.239   7.805 -0.1962 -0.4816  0.7399
  491MOL0     C66216   1.378   9.967   8.177  0.1841  0.4429 -0.2744
  491MOL0     C66217   1.253   9.939   8.235  0.9771 -0.1975  0.6970
  491MOL0     H66218   0.835  10.154   8.593 -2.9560  0.3664  1.3367
  491MOL0     H66219   0.624  10.100   8.651 -0.5799 -1.3573 -0.6819
  491MOL0     H66220   0.425  10.048   8.740 -2.1828 -0.7972  2.1480
  491MOL0     H66221   0.407   9.940   8.601  5.3512 -1.0434 -0.4947
  491MOL0     H66222   0.286   9.775   8.719 -0.6813  0.6546 -1.7133
  491MOL0     H66223   0.343   9.832   8.870  2.2403 -1.3565 -1.8291
  491MOL0     H66224   0.191  10.034   8.857 -0.3197  0.9593 -1.1708
  491MOL0     H66225   0.148  10.004   8.694  0.3742 -1.4692 -0.6153
  491MOL0     H66226   0.023   9.815   8.769 -0.4328  1.2145 -0.4440
  491MOL0     H66227   0.116   9.799   8.915  0.3001  0.3350  0.0962
  491MOL0     H66228  -0.006  10.006   9.006  2.2621  1.0489 -2.7385
  491MOL0     H66229  -0.103  10.021   8.857 -1.0599 -1.6889 -1.2578
  491MOL0     H66230  -0.191   9.799   8.884  0.2396 -0.7650  0.5599
  491MOL0     H66231  -0.109   9.770   9.043 -0.1363  1.6796  1.2359
  491MOL0     H66232  -0.320   9.978   8.986  0.4361 -0.5601 -0.0157
  491MOL0     H66233  -0.344   9.837   9.090 -1.3064  0.5746 -2.4905
  491MOL0     H66234  -0.169  10.072   9.148  1.7938 -0.9815 -0.2904
  491MOL0     H66235  -0.146   9.916   9.230  0.6207 -0.2094 -2.4589
  491MOL0     H66236  -0.409  10.203   9.215 -3.5136  0.5662  0.7172
  491MOL0     H66237  -0.568  10.182   9.567 -0.4868 -1.7135 -1.4873
  491MOL0     H66238  -0.557  10.291   9.434 -2.3646  0.6669  2.1229
  491MOL0     H66239  -0.720  10.018   9.453 -0.3475  0.0690  1.2666
  491MOL0     H66240  -0.712  10.110   9.307  3.3808  2.4015 -0.8623
  491MOL0     H66241  -0.832  10.301   9.425  3.0736 -0.0937 -1.6719
  491MOL0     H66242  -0.847  10.203   9.577 -1.0385 -0.6028 -0.4218
  491MOL0     H66243  -0.970  10.041   9.470  1.0103  0.1525  1.2248
  491MOL0     H66244  -0.957  10.108   9.311  0.3947 -1.2644  0.8069
  491MOL0     H66245  -1.137   9.978   9.319 -0.5989 -0.6916  0.3176
  491MOL0     H66246  -1.413   9.802   9.320  0.5458  1.4876  1.0170
  491MOL0     H66247  -1.409   9.875   9.149  1.6454  2.5529 -1.3220
  491MOL0     H66248  -1.264   9.829   9.226  0.1758  1.5670 -0.9528
  491MOL0     H66249  -1.890  10.221   9.465 -0.6058 -2.2358  1.8707
  491MOL0     H66250  -2.120  10.161   9.400  0.2950  1.5702  0.3813
  491MOL0     H66251  -2.250  10.225   9.077 -0.4212  0.8763 -1.2838
  491MOL0     H66252  -2.241  10.075   8.976  1.6119 -0.7273  0.7455
  491MOL0     H66253  -2.426  10.072   9.207 -2.2039 -0.8359 -1.0064
  491MOL0     H66254  -2.485  10.160   9.065  0.7787  0.5078  0.2690
  491MOL0     H66255  -2.366   9.868   9.044  1.9641  1.7295 -1.3064
  491MOL0     H66256  -2.454   9.967   8.935 -3.8207 -0.9093 -0.4915
  491MOL0     H66257  -2.554   9.845   9.194  0.8681  0.2308 -0.6084
  491MOL0     H66258  -2.658   9.949   9.108 -1.1638 -0.1023  0.5029
  491MOL0     H66259  -2.518   9.697   8.979 -0.1894 -1.2363  3.0222
  491MOL0     H66260  -2.636   9.808   8.899  0.3194 -0.1203 -1.0666
  491MOL0     H66261  -2.665   9.626   9.144 -0.0053 -0.8182  1.6211
  491MOL0     H66262  -2.797   9.738   9.100  0.0466 -1.2298  0.3259
  491MOL0     H66263  -2.832   9.501   9.018  4.0435 -1.9333 -1.7439
  491MOL0     H66264  -2.713   9.532   8.898  0.7566 -0.2454  1.4006
  491MOL0     H66265  -2.857   9.751   8.834  2.1613 -0.7683 -0.1846
  491MOL0     H66266  -2.974   9.671   8.931 -0.2886  2.3182 -1.8120
  491MOL0     H66267  -1.982  10.038   9.011 -0.2835  0.0939  0.2241
  491MOL0     H66268  -1.754  10.058   9.088 -1.3121  0.7322 -1.4082
  491MOL0     H66269  -1.511  10.278   9.449  0.5070  1.4780 -2.2728
  491MOL0     H66270  -1.303  10.337   9.517 -1.7211  0.1788  0.4196
  491MOL0     H66271   0.720   9.693   8.702 -1.4197 -0.4903 -2.1983
  491MOL0     H66272   0.953   9.728   8.620  1.3085  0.5531 -2.1937
  491MOL0     H66273   1.304  10.043   8.549  0.5795  2.0717  0.1964
  491MOL0     H66274   1.531  10.089   8.449  0.9994 -2.3269 -0.2981
  491MOL0     H66275   1.620   9.994   8.031 -2.9581 -0.5413  1.0001
  491MOL0     H66276   1.534  10.155   8.042  0.2050 -0.8633 -1.4363
  491MOL0     H66277   1.757  10.266   8.114 -0.5237 -0.0715  1.4463
  491MOL0     H66278   1.752  10.198   7.951 -0.8963  1.7239  0.6093
  491MOL0     H66279   1.862   9.983   8.032  0.9557 -1.0684  1.6843
  491MOL0     H66280   1.865  10.037   8.192 -3.4175 -2.2755 -0.5625
  491MOL0     H66281   2.092  10.096   8.079  2.2373  1.2818 -0.8811
  491MOL0     H66282   2.010  10.246   8.109 -1.2730 -1.0430 -0.1164
  491MOL0     H66283   2.001  10.284   7.708  0.9448  1.8133  1.6479
  491MOL0     H66284   1.406   9.940   8.076  0.6370 -1.3368  0.2941
  491MOL0     H66285   1.172   9.900   8.174  2.8347 -0.8041 -1.5563
  492MOL0     O66286   9.067  10.981   3.818 -0.5913 -0.1226  0.4810
  492MOL0     C66287   9.081  10.866   3.850  0.2735  0.2764  0.7261
  492MOL0     O66288   9.101  10.765   3.760 -1.2045 -0.2422  0.3148
  492MOL0     C66289   9.158  10.801   3.639  0.9501  0.0665 -0.3245
  492MOL0     C66290   9.080  10.810   3.529  0.7040 -0.2690  0.5609
  492MOL0     C66291   9.139  10.845   3.401 -0.0530 -0.2146 -0.9821
  492MOL0     C66292   9.278  10.856   3.389 -0.6532  0.0431 -0.8221
  492MOL0     O66293   9.327  10.903   3.269  0.1161 -0.2037 -0.7499
  492MOL0     C66294   9.469  10.950   3.250  0.4612  1.0081  0.3293
  492MOL0     C66295   9.478  11.024   3.112 -0.3988 -0.4207 -0.1887
  492MOL0     C66296   9.481  10.931   2.989  0.6579  0.1463  0.0106
  492MOL0     C66297   9.445  11.012   2.863  0.0154  0.0472  0.1605
  492MOL0     C66298   9.296  11.001   2.828 -0.3305 -0.3793  0.0423
  492MOL0     C66299   9.253  11.119   2.730  0.5567 -0.0936  0.1435
  492MOL0     C66300   9.094  11.118   2.706 -0.5801  0.2517 -0.2119
  492MOL0     C66301   9.046  11.251   2.644 -0.3104 -0.1540  1.0299
  492MOL0     N66302   8.920  11.239   2.576  0.0726  0.1666  0.2097
  492MOL0     C66303   8.913  11.233   2.439 -0.2033  0.6686  0.2501
  492MOL0     C66304   8.776  11.216   2.416  0.0500  0.4908  0.3474
  492MOL0     C66305   8.722  11.196   2.273 -1.0468 -0.5057  0.0063
  492MOL0     C66306   8.581  11.236   2.268  0.6441 -0.7482 -0.2394
  492MOL0     C66307   8.547  11.384   2.252  0.4223  0.2315 -0.2878
  492MOL0     C66308   8.398  11.400   2.285  0.3411 -0.4213 -0.1284
  492MOL0     O66309   8.325  11.350   2.165  0.4691  0.0933 -0.3596
  492MOL0     C66310   8.188  11.331   2.165  0.1226 -1.1239  0.0166
  492MOL0     C66311   8.133  11.277   2.047 -0.3159  0.0730  0.1821
  492MOL0     C66312   7.999  11.239   2.029  0.1378 -0.2071 -0.6389
  492MOL0     C66313   7.964  11.145   1.915 -0.3671 -0.3520  0.2639
  492MOL0     C66314   7.902  11.281   2.129  0.0814 -0.0273  0.2921
  492MOL0     C66315   7.748  11.258   2.115  0.7295  1.4375  0.2742
  492MOL0     O66316   7.673  11.298   2.212 -0.3523  0.2043 -0.0516
  492MOL0     C66317   7.542  11.294   2.230  0.4820  0.3988 -0.6531
  492MOL0     C66318   7.483  11.372   2.331 -0.0142 -0.1921 -1.1834
  492MOL0     C66319   7.348  11.370   2.357  0.6479 -0.1062 -0.4250
  492MOL0     C66320   7.261  11.280   2.292 -0.2581  0.2526 -0.0086
  492MOL0     O66321   7.127  11.265   2.312  0.1051 -0.3778 -0.3280
  492MOL0     C66322   7.063  11.372   2.384 -0.3229  0.1755  0.3466
  492MOL0     C66323   6.917  11.352   2.406  0.4806 -0.2188 -0.1401
  492MOL0     C66324   6.885  11.247   2.513  0.2948  0.1172 -0.4019
  492MOL0     C66325   6.738  11.203   2.517  0.8009 -0.1066 -0.6960
  492MOL0     C66326   6.700  11.112   2.635 -0.2504 -1.3235  0.3543
  492MOL0     C66327   6.545  11.116   2.652 -0.9260 -0.2104  0.5412
  492MOL0     C66328   6.466  11.060   2.539 -1.8426  0.4363  0.6006
  492MOL0     C66329   6.325  11.020   2.564  0.1583 -0.1192 -0.6325
  492MOL0    Cl66330   6.241  11.163   2.618 -0.2459  0.8292 -0.0205
  492MOL0     C66331   7.318  11.195   2.204  0.2113  0.2016  0.7579
  492MOL0     C66332   7.453  11.196   2.168  0.2201 -0.7918  0.2828
  492MOL0     O66333   7.701  11.206   2.014 -0.5134  0.2753 -0.7358
  492MOL0     C66334   7.958  11.327   2.248 -1.0914  0.7377  0.5482
  492MOL0     C66335   8.098  11.353   2.272 -1.0005  0.6164  0.3151
  492MOL0     N66336   8.706  11.210   2.541  0.5713 -0.2589  0.4765
  492MOL0     N66337   8.803  11.203   2.631  0.1029 -0.1509  0.2434
  492MOL0     C66338   9.352  10.836   3.507 -0.4173 -0.8434  0.0583
  492MOL0     C66339   9.291  10.818   3.630 -0.2361  0.6881 -0.0234
  492MOL0     C66340   9.062  10.835   3.995 -1.0332 -0.6266  0.5688
  492MOL0     C66341   9.095  10.707   4.036  1.1786 -0.9305 -0.0521
  492MOL0     C66342   9.078  10.671   4.166  0.1311 -0.2383  0.0076
  492MOL0     C66343   9.040  10.764   4.263  0.9289 -0.1384  0.3722
  492MOL0     O66344   9.011  10.737   4.400 -0.5031  0.7656  0.4797
  492MOL0     C66345   9.013  10.603   4.438  0.5984  0.3235  0.5520
  492MOL0     C66346   8.925  10.594   4.563  0.2598  0.1407  0.5762
  492MOL0     C66347   8.997  10.646   4.683  0.0070  0.6859  0.4829
  492MOL0     C66348   9.017  10.804   4.677  0.0206  1.1307 -0.8309
  492MOL0     C66349   9.026  10.869   4.808  0.0140 -0.1521  0.4825
  492MOL0     C66350   9.041  10.923   4.911  0.3724  1.0284  0.6244
  492MOL0     C66351   9.010  10.897   4.224  0.5446 -0.6162 -0.4170
  492MOL0     C66352   9.027  10.932   4.086  0.8280  0.5286 -0.8064
  492MOL0     H66353   8.972  10.799   3.538  0.5013  1.0495 -0.1196
  492MOL0     H66354   9.078  10.856   3.312 -3.1682  2.6104  1.2387
  492MOL0     H66355   9.489  11.023   3.329 -0.1473  1.4628  0.0652
  492MOL0     H66356   9.535  10.863   3.257 -0.6806  0.1454  0.6525
  492MOL0     H66357   9.394  11.093   3.113 -1.2199 -1.3866 -1.1708
  492MOL0     H66358   9.575  11.074   3.111  0.9743 -2.8771  0.0768
  492MOL0     H66359   9.581  10.893   2.968  0.9062  1.1438 -0.6976
  492MOL0     H66360   9.412  10.846   2.992 -0.8660  1.1683 -2.3382
  492MOL0     H66361   9.474  11.117   2.868 -0.8253  0.3871 -1.4289
  492MOL0     H66362   9.500  10.970   2.779  2.3587 -1.3613  2.2751
  492MOL0     H66363   9.260  10.899   2.810 -2.5524  0.2976  0.4737
  492MOL0     H66364   9.244  11.023   2.922 -0.2892 -1.6397  0.3827
  492MOL0     H66365   9.285  11.209   2.784 -0.4308  1.0099 -1.0525
  492MOL0     H66366   9.307  11.130   2.636  0.7876 -3.3329 -0.2145
  492MOL0     H66367   9.082  11.038   2.632 -0.2142  2.6963 -3.1246
  492MOL0     H66368   9.037  11.100   2.798 -1.7046 -0.9447 -1.1000
  492MOL0     H66369   9.118  11.297   2.575  0.6516  1.1056  2.8079
  492MOL0     H66370   9.046  11.326   2.723  1.2227  1.1680 -0.1552
  492MOL0     H66371   8.989  11.228   2.362 -1.8587 -0.6870 -1.3779
  492MOL0     H66372   8.788  11.249   2.205  3.8908 -1.7037  3.3456
  492MOL0     H66373   8.732  11.092   2.242  0.8271 -0.3995  0.1261
  492MOL0     H66374   8.537  11.196   2.360  0.3875 -0.3087 -0.1690
  492MOL0     H66375   8.534  11.185   2.183 -2.7597 -1.8669  2.1268
  492MOL0     H66376   8.567  11.416   2.150 -1.4520 -1.0611 -1.1205
  492MOL0     H66377   8.608  11.438   2.325  1.7093 -2.0607  0.4506
  492MOL0     H66378   8.359  11.498   2.314  0.6942 -0.7379  1.5204
  492MOL0     H66379   8.381  11.340   2.375 -1.5310  1.1865  0.6729
  492MOL0     H66380   8.207  11.266   1.969 -2.2542  2.7874 -2.2270
  492MOL0     H66381   8.051  11.096   1.869 -0.9283 -0.3772 -0.8150
  492MOL0     H66382   7.893  11.064   1.930 -1.0168  0.2935  0.7381
  492MOL0     H66383   7.912  11.210   1.844 -2.5659 -0.7692  1.4249
  492MOL0     H66384   7.542  11.447   2.383 -0.6404  0.3752 -1.2794
  492MOL0     H66385   7.314  11.438   2.434  0.5131 -0.5387 -0.0990
  492MOL0     H66386   7.099  11.382   2.487 -1.7427 -0.8772  0.9853
  492MOL0     H66387   7.072  11.472   2.340 -2.1096 -0.2125 -1.0366
  492MOL0     H66388   6.861  11.443   2.427  2.2041  0.5788  1.2565
  492MOL0     H66389   6.881  11.316   2.309  3.6089  0.8766 -1.8511
  492MOL0     H66390   6.915  11.283   2.611 -0.9791 -0.7493  0.3472
  492MOL0     H66391   6.953  11.162   2.499  0.4906  0.2577 -0.3133
  492MOL0     H66392   6.677  11.293   2.529 -1.2289 -1.5383  0.5228
  492MOL0     H66393   6.708  11.157   2.423  0.4554  0.8039 -1.0448
  492MOL0     H66394   6.742  11.144   2.731  0.0373 -0.9070  0.0957
  492MOL0     H66395   6.733  11.012   2.607 -1.3666 -1.1244 -1.9392
  492MOL0     H66396   6.519  11.061   2.743 -1.0483 -0.2673  0.4731
  492MOL0     H66397   6.518  11.218   2.680  0.2887 -0.3839  2.6045
  492MOL0     H66398   6.523  10.977   2.496 -1.7393  0.4257  0.7557
  492MOL0     H66399   6.462  11.137   2.461  0.6298 -0.7088 -0.7935
  492MOL0     H66400   6.325  10.944   2.642  0.0877 -1.2738 -1.7146
  492MOL0     H66401   6.277  10.977   2.476 -0.1307 -2.3994  0.5721
  492MOL0     H66402   7.258  11.121   2.151  1.1196 -0.8099  1.0957
  492MOL0     H66403   7.482  11.139   2.081  1.3236 -0.9087  0.7052
  492MOL0     H66404   7.886  11.328   2.329 -1.4444  1.1529  0.2312
  492MOL0     H66405   8.131  11.382   2.371  0.2640 -0.6579  0.3053
  492MOL0     H66406   9.459  10.836   3.493 -0.1495 -0.9164  1.9034
  492MOL0     H66407   9.347  10.798   3.720  0.4742  0.8108 -0.4307
  492MOL0     H66408   9.112  10.623   3.969 -1.5401  0.3657 -2.5991
  492MOL0     H66409   9.093  10.564   4.176  0.8136 -0.0260  1.6722
  492MOL0     H66410   8.971  10.538   4.361 -0.5249 -0.1888  1.5768
  492MOL0     H66411   9.117  10.577   4.458  1.1051  0.6065 -1.4692
  492MOL0     H66412   8.898  10.489   4.576  1.8010 -0.1339  1.8861
  492MOL0     H66413   8.830  10.648   4.555 -0.4414 -0.4360  3.5475
  492MOL0     H66414   9.093  10.595   4.688  0.6698  1.9553  1.2609
  492MOL0     H66415   8.935  10.629   4.771 -2.0643  1.1531 -0.8161
  492MOL0     H66416   8.923  10.832   4.628 -1.0577 -2.0501 -0.8550
  492MOL0     H66417   9.108  10.835   4.625  3.1518 -3.3110  1.3225
  492MOL0     H66418   9.059  10.947   5.014  0.0126 -0.6127  1.0945
  492MOL0     H66419   8.966  10.979   4.279 -1.1095  1.3911 -4.2951
  492MOL0     H66420   9.006  11.030   4.044 -2.0257  1.1850  1.8045
  493MOL0     O66421  10.361   9.027   0.156  0.4933  0.3241  0.1725
  493MOL0     C66422  10.476   9.059   0.131 -0.0715  0.1883 -0.0842
  493MOL0     O66423  10.517   9.135   0.019 -0.4416  0.4701  0.1725
  493MOL0     C66424  10.421   9.162  -0.072 -0.0413 -0.0459  0.4744
  493MOL0     C66425  10.332   9.268  -0.045  0.4466 -0.0831 -0.3968
  493MOL0     C66426  10.233   9.305  -0.139 -0.2916  0.6525  0.1116
  493MOL0     C66427  10.213   9.234  -0.258 -0.8854 -0.9672 -0.0460
  493MOL0     O66428  10.131   9.284  -0.363 -0.5806 -0.8887 -0.3204
  493MOL0     C66429  10.000   9.330  -0.336  0.7957  0.0144 -0.1333
  493MOL0     C66430   9.912   9.334  -0.462  1.2443  0.1407 -0.6252
  493MOL0     C66431   9.781   9.389  -0.430  1.3695  0.0760  0.9689
  493MOL0     C66432   9.692   9.419  -0.552 -0.4831  0.0753 -0.2227
  493MOL0     C66433   9.634   9.291  -0.609  0.1857 -0.5272 -0.1395
  493MOL0     C66434   9.497   9.313  -0.672 -0.6507 -0.2641  0.4793
  493MOL0     C66435   9.461   9.190  -0.748  0.6619 -0.3055  0.4613
  493MOL0     C66436   9.445   9.067  -0.656  0.6922  0.4946 -0.1990
  493MOL0     N66437   9.559   8.980  -0.668 -0.0648 -0.3822 -0.5404
  493MOL0     C66438   9.663   8.969  -0.574 -0.1588 -0.4755  0.3092
  493MOL0     C66439   9.754   8.877  -0.616  0.5847  0.4236 -0.9227
  493MOL0     C66440   9.868   8.828  -0.534  0.0684 -0.2072  0.2099
  493MOL0     C66441   9.972   8.753  -0.627  0.0546 -0.3737  0.3085
  493MOL0     C66442  10.034   8.835  -0.741 -0.3177 -0.0663  0.1290
  493MOL0     C66443  10.079   8.969  -0.676 -0.4326 -0.4964 -0.5927
  493MOL0     O66444  10.153   9.042  -0.778  0.5971 -0.2261  0.9435
  493MOL0     C66445  10.276   9.078  -0.736 -0.9161 -0.4163  1.0753
  493MOL0     C66446  10.404   9.003  -0.764 -0.0614 -0.4833  0.1869
  493MOL0     C66447  10.527   9.041  -0.713  0.7656 -0.1756  1.1204
  493MOL0     C66448  10.652   8.971  -0.752 -1.1011  0.4151  0.8730
  493MOL0     C66449  10.523   9.147  -0.624 -0.3015 -0.1859 -0.4213
  493MOL0     C66450  10.652   9.198  -0.556  0.9378  1.2323  0.1724
  493MOL0     O66451  10.648   9.327  -0.508  0.5521  0.5181 -0.0748
  493MOL0     C66452  10.749   9.369  -0.429  0.1447 -0.6274 -0.9301
  493MOL0     C66453  10.861   9.419  -0.489 -0.5538  0.7753 -0.4579
  493MOL0     C66454  10.967   9.456  -0.405  0.6582  0.0449  0.0941
  493MOL0     C66455  10.960   9.465  -0.265 -0.6682  0.2998  0.4750
  493MOL0     O66456  11.082   9.508  -0.198  0.6139 -0.2791  0.6850
  493MOL0     C66457  11.096   9.496  -0.056 -0.3902 -0.1609 -0.3610
  493MOL0     C66458  11.240   9.528  -0.024 -0.6367  0.4756  0.5216
  493MOL0     C66459  11.352   9.468  -0.120 -0.5865 -1.6818 -0.1362
  493MOL0     C66460  11.368   9.320  -0.103 -0.7143  0.3636 -0.1980
  493MOL0     C66461  11.453   9.270   0.013 -0.0876 -0.2900 -0.1138
  493MOL0     C66462  11.593   9.304  -0.018 -0.4578  0.1656 -0.1156
  493MOL0     C66463  11.687   9.215   0.068 -0.7967  0.1884 -0.2968
  493MOL0     C66464  11.816   9.289   0.134  0.4136  0.1672 -0.1288
  493MOL0    Cl66465  11.764   9.447   0.204  0.1930  0.3470 -0.1860
  493MOL0     C66466  10.838   9.425  -0.205 -0.1786 -0.0831  0.7430
  493MOL0     C66467  10.737   9.375  -0.292  0.0351  0.0476 -0.4665
  493MOL0     O66468  10.736   9.116  -0.524 -0.3251 -0.0376 -0.2236
  493MOL0     C66469  10.402   9.219  -0.593 -0.1215  0.1543  0.5934
  493MOL0     C66470  10.289   9.186  -0.650  0.4995  0.7718  0.1185
  493MOL0     N66471   9.710   8.827  -0.741  0.1348  0.4201 -0.3907
  493MOL0     N66472   9.599   8.893  -0.767  0.4496  0.3186  0.6390
  493MOL0     C66473  10.296   9.123  -0.281 -0.2724  1.1176  0.4109
  493MOL0     C66474  10.394   9.086  -0.187  0.1270 -0.3086 -1.4174
  493MOL0     C66475  10.580   9.012   0.226  0.2195  0.6198 -0.1310
  493MOL0     C66476  10.536   8.986   0.354  0.0491  0.5085  0.3797
  493MOL0     C66477  10.619   8.961   0.459  0.6050 -0.0796 -0.2209
  493MOL0     C66478  10.758   8.973   0.429  0.1717  0.3061 -0.1019
  493MOL0     O66479  10.851   8.941   0.524 -0.0249  0.8188 -0.1571
  493MOL0     C66480  10.950   9.034   0.558  0.0370 -0.3283 -0.2005
  493MOL0     C66481  10.893   9.163   0.614  0.9994 -0.1902 -0.3304
  493MOL0     C66482  11.000   9.275   0.622 -0.7548  0.0900 -0.2137
  493MOL0     C66483  10.972   9.391   0.711  0.3471  0.0861  0.2898
  493MOL0     C66484  10.845   9.452   0.677  0.2529  0.3224  0.5276
  493MOL0     C66485  10.738   9.493   0.648  0.6369 -0.5973  0.0402
  493MOL0     C66486  10.802   8.988   0.291  0.9479 -0.2318 -0.0742
  493MOL0     C66487  10.710   9.014   0.191  0.2418  0.2353 -0.0234
  493MOL0     H66488  10.337   9.318   0.051 -1.3404 -0.8779  0.1431
  493MOL0     H66489  10.165   9.386  -0.115  0.1950  1.0494  0.1668
  493MOL0     H66490   9.972   9.256  -0.260  0.3989 -0.9315 -1.1817
  493MOL0     H66491   9.996   9.427  -0.286 -0.9630 -0.2100  0.2513
  493MOL0     H66492   9.957   9.393  -0.542 -0.8215  1.8997 -0.5687
  493MOL0     H66493   9.907   9.232  -0.502 -0.3984 -1.2775  2.7217
  493MOL0     H66494   9.735   9.314  -0.365  1.8282 -0.6173  0.5087
  493MOL0     H66495   9.794   9.489  -0.386 -1.9657  1.7436 -1.3492
  493MOL0     H66496   9.612   9.486  -0.519 -0.7233  0.0081 -0.6630
  493MOL0     H66497   9.746   9.465  -0.635  0.2402 -1.1217 -0.4339
  493MOL0     H66498   9.702   9.241  -0.678  0.3160  0.7126 -0.9347
  493MOL0     H66499   9.619   9.219  -0.528  1.3495 -1.6002 -0.8566
  493MOL0     H66500   9.425   9.330  -0.591  0.5208 -1.4871  1.8143
  493MOL0     H66501   9.489   9.403  -0.735 -2.5337  0.1697  1.2485
  493MOL0     H66502   9.376   9.214  -0.814  0.0829  0.7763  1.5467
  493MOL0     H66503   9.535   9.168  -0.825 -1.3473  0.4742 -1.8529
  493MOL0     H66504   9.358   9.009  -0.686 -1.0108  1.8774  1.7986
  493MOL0     H66505   9.426   9.089  -0.551  0.7676 -0.8318  0.1115
  493MOL0     H66506   9.672   9.026  -0.482  0.7786  0.9159 -0.5996
  493MOL0     H66507   9.910   8.907  -0.471 -0.7508  0.1024  0.3756
  493MOL0     H66508   9.832   8.752  -0.464  2.2839 -0.2703  1.3746
  493MOL0     H66509   9.929   8.661  -0.667 -2.1771  0.4462  0.6536
  493MOL0     H66510  10.053   8.739  -0.555  1.7613  1.4108 -1.1434
  493MOL0     H66511   9.964   8.851  -0.824  0.0269 -2.5867 -0.7517
  493MOL0     H66512  10.123   8.781  -0.773  0.8225  0.1032  2.7943
  493MOL0     H66513  10.144   8.950  -0.590  2.7164 -1.7302 -3.0659
  493MOL0     H66514   9.994   9.034  -0.654 -0.1535  0.0512 -1.1031
  493MOL0     H66515  10.395   8.921  -0.835 -1.6469 -1.4788  1.4679
  493MOL0     H66516  10.709   9.045  -0.809 -1.0212  0.3003  0.8033
  493MOL0     H66517  10.699   8.933  -0.661 -1.7851  2.5938  2.2001
  493MOL0     H66518  10.636   8.892  -0.826 -1.6244  1.0087  0.3461
  493MOL0     H66519  10.885   9.419  -0.595  1.8160  0.2020  0.0079
  493MOL0     H66520  11.057   9.498  -0.447 -0.4535  1.8296 -0.5988
  493MOL0     H66521  11.043   9.574   0.000  0.7928  1.5640 -1.5391
  493MOL0     H66522  11.063   9.396  -0.024  1.5917 -1.2465 -1.5026
  493MOL0     H66523  11.243   9.636  -0.040  1.3371  0.3349 -0.3953
  493MOL0     H66524  11.259   9.509   0.082 -3.0363 -1.5672  0.6872
  493MOL0     H66525  11.447   9.514  -0.089 -2.7266  2.9203  0.4691
  493MOL0     H66526  11.337   9.479  -0.228  2.1633 -1.3337 -0.5629
  493MOL0     H66527  11.271   9.272  -0.092 -0.1036 -1.4443 -2.0758
  493MOL0     H66528  11.401   9.285  -0.201  0.8211  0.8382  0.1199
  493MOL0     H66529  11.444   9.162   0.027  0.3980 -0.2430  0.6428
  493MOL0     H66530  11.427   9.316   0.108  3.6186 -0.0341  0.9584
  493MOL0     H66531  11.621   9.295  -0.123  1.4677  3.6429 -0.0668
  493MOL0     H66532  11.619   9.407   0.010  0.3897 -0.6661  2.4440
  493MOL0     H66533  11.721   9.140  -0.004 -2.6977  1.1788 -2.3357
  493MOL0     H66534  11.635   9.182   0.159 -0.7702  3.5788  1.0925
  493MOL0     H66535  11.885   9.309   0.052 -1.2527  0.2883 -1.5624
  493MOL0     H66536  11.858   9.227   0.214 -0.2210  0.3784  0.3735
  493MOL0     H66537  10.825   9.434  -0.097  0.2835 -3.0234  1.1449
  493MOL0     H66538  10.649   9.342  -0.239  2.2604 -0.0630  3.6058
  493MOL0     H66539  10.412   9.304  -0.527  1.5626  0.2872  0.2234
  493MOL0     H66540  10.204   9.243  -0.616 -0.7385 -0.7430 -0.3382
  493MOL0     H66541  10.286   9.065  -0.371 -2.5400 -0.5794  1.6653
  493MOL0     H66542  10.452   8.994  -0.194  1.2726  0.1917  0.5587
  493MOL0     H66543  10.429   8.996   0.370 -1.5600 -0.6012 -6.3793
  493MOL0     H66544  10.593   8.954   0.564  2.2927  0.4006  0.2581
  493MOL0     H66545  11.016   9.000   0.638 -0.5936 -1.0997  0.0068
  493MOL0     H66546  11.006   9.041   0.465 -3.0887  0.2005 -2.2159
  493MOL0     H66547  10.851   9.144   0.713 -0.0052 -0.8157 -0.8613
  493MOL0     H66548  10.817   9.201   0.546 -0.2320  1.4389  1.8140
  493MOL0     H66549  11.019   9.309   0.520  2.7108 -1.3579 -0.1723
  493MOL0     H66550  11.092   9.231   0.660 -1.1087  1.5490  2.5963
  493MOL0     H66551  11.046   9.469   0.689  0.0410 -0.1328 -1.7199
  493MOL0     H66552  10.974   9.377   0.819 -0.0216 -1.4433  0.1141
  493MOL0     H66553  10.644   9.543   0.633  1.4776  1.5488  1.5309
  493MOL0     H66554  10.905   8.999   0.261  0.6064  2.3742 -0.5274
  493MOL0     H66555  10.722   9.042   0.087 -3.2711  1.9538 -0.1070
  494MOL0     O66556   5.801   2.717   3.674  0.5596 -0.7094 -0.4116
  494MOL0     C66557   5.825   2.806   3.597  0.5850  0.1590 -0.2479
  494MOL0     O66558   5.729   2.873   3.525  0.6393 -1.1479 -0.4300
  494MOL0     C66559   5.593   2.847   3.558 -0.0199  0.2562  0.4048
  494MOL0     C66560   5.495   2.819   3.455 -0.4933  0.1629  0.0881
  494MOL0     C66561   5.365   2.796   3.492 -0.2780 -0.4658  0.5602
  494MOL0     C66562   5.323   2.802   3.625  0.4402 -0.8216  0.4825
  494MOL0     O66563   5.190   2.775   3.647 -0.7541  0.6851  0.4172
  494MOL0     C66564   5.118   2.835   3.753  0.0689  0.2336  0.2677
  494MOL0     C66565   4.972   2.844   3.706  0.8629  1.1768  0.4116
  494MOL0     C66566   4.875   2.840   3.819  0.3070  0.0075  0.0276
  494MOL0     C66567   4.734   2.887   3.766  0.0282 -0.5656  0.2133
  494MOL0     C66568   4.621   2.857   3.863 -0.0455  0.0737  0.5547
  494MOL0     C66569   4.492   2.858   3.773 -0.9093 -0.7599  0.4267
  494MOL0     C66570   4.378   2.896   3.872  0.2026 -0.1692  0.2598
  494MOL0     C66571   4.236   2.894   3.795  0.6078 -0.6121 -0.2637
  494MOL0     N66572   4.135   2.977   3.860  0.0652 -0.0792  0.0901
  494MOL0     C66573   4.104   2.994   3.992 -0.9603  0.7107 -0.6770
  494MOL0     C66574   4.005   3.090   3.998  0.1579 -0.3239 -0.8530
  494MOL0     C66575   3.937   3.130   4.120  0.6365  0.2549  0.4735
  494MOL0     C66576   3.803   3.194   4.097  0.3733 -0.2016  0.7139
  494MOL0     C66577   3.682   3.104   4.083 -0.4834 -0.0886 -0.7519
  494MOL0     C66578   3.664   3.007   4.210 -0.1737 -0.1626 -0.5128
  494MOL0     O66579   3.537   2.945   4.188  0.1751 -0.4053 -0.0247
  494MOL0     C66580   3.485   2.870   4.289  0.6449 -0.2548 -0.7303
  494MOL0     C66581   3.522   2.865   4.424 -0.0219  0.4543 -0.5096
  494MOL0     C66582   3.465   2.779   4.522  0.7212 -0.2413 -0.0160
  494MOL0     C66583   3.508   2.797   4.671  0.6372  0.2824  0.2020
  494MOL0     C66584   3.349   2.700   4.483  0.8334  0.2733  0.2595
  494MOL0     C66585   3.269   2.614   4.571  1.0601 -0.1629  0.9288
  494MOL0     O66586   3.177   2.533   4.508  0.4916  0.2977 -0.3100
  494MOL0     C66587   3.100   2.446   4.582 -0.4602 -0.3873 -0.1850
  494MOL0     C66588   3.142   2.369   4.693 -0.1980 -0.1475 -0.2850
  494MOL0     C66589   3.058   2.269   4.750  0.6135  0.4837 -0.4563
  494MOL0     C66590   2.923   2.257   4.703 -1.1963 -0.6578  0.8143
  494MOL0     O66591   2.839   2.163   4.753  0.9795  0.0027 -0.3425
  494MOL0     C66592   2.891   2.032   4.778  0.3521 -0.0662  0.0661
  494MOL0     C66593   2.908   2.013   4.929  0.4653  0.1080  0.1091
  494MOL0     C66594   3.010   1.897   4.955  0.3604 -0.7801  0.8142
  494MOL0     C66595   3.028   1.874   5.102  0.1859 -0.5414 -1.1592
  494MOL0     C66596   3.130   1.764   5.138 -0.3577  0.4211  0.5145
  494MOL0     C66597   3.260   1.765   5.054  0.2281  0.3207  0.2129
  494MOL0     C66598   3.334   1.630   5.077 -0.2335 -0.4351 -0.2272
  494MOL0     C66599   3.410   1.600   4.952  0.2126 -0.4377  0.0747
  494MOL0    Cl66600   3.515   1.465   4.983  0.1122  0.0987  0.2025
  494MOL0     C66601   2.884   2.342   4.603 -0.0600 -0.1989  0.9767
  494MOL0     C66602   2.973   2.436   4.548  0.3932 -0.9581  0.2182
  494MOL0     O66603   3.286   2.613   4.691 -0.1458  0.7939 -0.9270
  494MOL0     C66604   3.315   2.700   4.346 -0.7822  0.7690 -0.1744
  494MOL0     C66605   3.373   2.783   4.255 -0.6692  0.1733  1.2399
  494MOL0     N66606   3.981   3.135   3.867 -0.0590  0.2228 -0.0217
  494MOL0     N66607   4.048   3.064   3.787 -0.0593  0.6718  0.4671
  494MOL0     C66608   5.413   2.851   3.722 -0.3456  1.6130 -0.0238
  494MOL0     C66609   5.548   2.861   3.686  0.6310 -0.7283  0.0136
  494MOL0     C66610   5.972   2.844   3.593 -0.2645  0.4388 -0.3806
  494MOL0     C66611   6.008   2.935   3.491  0.0844 -0.6622  0.6335
  494MOL0     C66612   6.139   2.984   3.487  0.0460  0.3494  1.0770
  494MOL0     C66613   6.233   2.934   3.577  0.2423  0.2034 -0.4745
  494MOL0     O66614   6.366   2.961   3.559  0.0851 -0.1895  0.0651
  494MOL0     C66615   6.389   3.099   3.520  0.2660  0.7376 -0.5549
  494MOL0     C66616   6.531   3.140   3.555  0.3537 -0.4208  0.4387
  494MOL0     C66617   6.630   3.031   3.500  0.5163  0.1932 -0.4577
  494MOL0     C66618   6.770   3.087   3.526 -0.5436  0.4045  0.8223
  494MOL0     C66619   6.862   2.989   3.460 -0.0952  0.2628 -0.0400
  494MOL0     C66620   6.935   2.912   3.401 -0.7867  1.2225 -1.2675
  494MOL0     C66621   6.197   2.850   3.677 -0.1662  0.8840  0.5441
  494MOL0     C66622   6.068   2.799   3.682 -0.4655  0.3027 -0.7872
  494MOL0     H66623   5.532   2.806   3.354  2.6737 -0.7612  1.2130
  494MOL0     H66624   5.309   2.755   3.408  1.3234 -2.0156  0.1772
  494MOL0     H66625   5.123   2.777   3.845  1.3589 -1.5465 -0.8710
  494MOL0     H66626   5.159   2.932   3.785 -1.7164  0.5163  1.8708
  494MOL0     H66627   4.954   2.934   3.646 -1.6054  0.7089  0.3860
  494MOL0     H66628   4.963   2.750   3.652  4.2907  1.0403 -0.1425
  494MOL0     H66629   4.857   2.739   3.858  0.7392  0.4464  1.4057
  494MOL0     H66630   4.900   2.906   3.902 -2.7274  0.2162  0.8957
  494MOL0     H66631   4.741   2.994   3.745 -1.7985 -0.8388 -2.2634
  494MOL0     H66632   4.708   2.837   3.672 -2.9257 -0.3951  0.8336
  494MOL0     H66633   4.636   2.755   3.900  2.9464  0.5147  0.8606
  494MOL0     H66634   4.631   2.923   3.949  2.8377 -1.3177  1.4124
  494MOL0     H66635   4.485   2.933   3.694  1.9561  0.5315  1.2646
  494MOL0     H66636   4.476   2.753   3.745 -3.6460 -1.1641  2.9716
  494MOL0     H66637   4.367   2.829   3.958 -1.0752  0.7565  0.8491
  494MOL0     H66638   4.390   3.000   3.904  2.7763  1.6230 -5.3976
  494MOL0     H66639   4.198   2.792   3.783  0.8014 -0.4748 -2.6194
  494MOL0     H66640   4.259   2.924   3.692  0.3652 -0.0085 -0.1478
  494MOL0     H66641   4.143   2.947   4.082 -1.5865  2.1164  0.3695
  494MOL0     H66642   3.933   3.036   4.175  0.5510  0.4500  0.8047
  494MOL0     H66643   4.002   3.194   4.179  0.1021  0.8735  0.4037
  494MOL0     H66644   3.807   3.253   4.005 -1.8379  0.4539  0.9798
  494MOL0     H66645   3.776   3.257   4.182 -4.1627 -1.9234  0.8611
  494MOL0     H66646   3.692   3.052   3.987 -0.6414  0.5364 -1.1089
  494MOL0     H66647   3.598   3.173   4.072 -0.2736 -0.0822 -2.6095
  494MOL0     H66648   3.676   3.069   4.299  2.4262  0.5850 -1.2779
  494MOL0     H66649   3.747   2.936   4.224  1.1258  1.7629  2.6024
  494MOL0     H66650   3.600   2.937   4.448  0.8080 -0.6637  0.2465
  494MOL0     H66651   3.522   2.693   4.701 -0.4055 -0.1481 -0.7339
  494MOL0     H66652   3.606   2.842   4.689  0.4063  0.5710  0.8027
  494MOL0     H66653   3.431   2.844   4.733 -1.5005 -2.7260  0.0351
  494MOL0     H66654   3.247   2.377   4.720 -0.5919 -0.1945  1.3728
  494MOL0     H66655   3.098   2.211   4.833  1.5362  0.8886 -0.6074
  494MOL0     H66656   2.809   1.964   4.753  2.7798 -3.0934 -0.2239
  494MOL0     H66657   2.970   2.001   4.709  0.7397  0.6709  0.1639
  494MOL0     H66658   2.943   2.102   4.982 -0.2438 -0.4863  1.6322
  494MOL0     H66659   2.813   1.986   4.976 -1.5997  1.4867 -2.9588
  494MOL0     H66660   3.101   1.930   4.905 -0.9845  2.7542  0.3877
  494MOL0     H66661   2.965   1.804   4.919 -1.8211  0.9722 -1.3355
  494MOL0     H66662   3.051   1.968   5.153 -3.1038  1.3835 -2.8550
  494MOL0     H66663   2.930   1.847   5.144  0.1374 -0.4768 -1.2305
  494MOL0     H66664   3.076   1.672   5.115  0.8972 -0.0826 -0.5220
  494MOL0     H66665   3.152   1.764   5.246 -0.3237 -2.3124  0.5735
  494MOL0     H66666   3.236   1.769   4.948 -0.1844  0.1060  0.2958
  494MOL0     H66667   3.318   1.854   5.079 -0.2002  0.5813  0.2943
  494MOL0     H66668   3.264   1.546   5.084 -0.3787 -0.2098  1.3256
  494MOL0     H66669   3.401   1.647   5.162  2.1035  1.8731 -2.3729
  494MOL0     H66670   3.481   1.678   4.923 -0.0018  0.0209  0.7801
  494MOL0     H66671   3.341   1.580   4.869 -1.6827 -1.0412  1.7253
  494MOL0     H66672   2.786   2.340   4.556  0.1794  2.4633  0.1582
  494MOL0     H66673   2.951   2.507   4.468  1.1258  0.7162  1.4467
  494MOL0     H66674   3.229   2.654   4.300 -0.2605 -0.8788  0.4057
  494MOL0     H66675   3.341   2.783   4.151  3.3711 -0.3191 -0.2098
  494MOL0     H66676   5.401   2.860   3.829  1.6777 -2.0154  0.6648
  494MOL0     H66677   5.618   2.887   3.766 -0.3612  0.4097  0.5489
  494MOL0     H66678   5.943   2.967   3.411  0.7682 -1.2500 -0.1738
  494MOL0     H66679   6.156   3.047   3.401 -1.7572 -1.0390 -0.3702
  494MOL0     H66680   6.372   3.123   3.415  1.0484  3.1056 -0.1842
  494MOL0     H66681   6.325   3.158   3.586  0.1892 -0.8737  0.8672
  494MOL0     H66682   6.531   3.159   3.663 -3.2272  1.2236  0.2658
  494MOL0     H66683   6.553   3.231   3.498 -0.5796 -1.2000 -1.2298
  494MOL0     H66684   6.606   3.015   3.394  3.1000 -1.9289 -0.8282
  494MOL0     H66685   6.634   2.940   3.561  1.1564  1.1022  0.9164
  494MOL0     H66686   6.781   3.091   3.635 -0.2301  0.7284  0.7802
  494MOL0     H66687   6.781   3.186   3.480  0.1578  0.8920  2.0021
  494MOL0     H66688   6.996   2.837   3.354  1.4036  1.0200  1.6289
  494MOL0     H66689   6.269   2.803   3.743 -0.8197 -1.3021 -0.2185
  494MOL0     H66690   6.044   2.717   3.750  1.1019  0.3918 -0.0926
  495MOL0     O66691   1.915   4.512   3.648  0.1611  0.7338 -0.1646
  495MOL0     C66692   1.972   4.458   3.744  0.9092  0.6771 -0.4057
  495MOL0     O66693   1.909   4.403   3.855 -0.3434  0.3639  1.0272
  495MOL0     C66694   1.778   4.402   3.860  0.4720  0.3024 -0.1853
  495MOL0     C66695   1.731   4.406   3.987 -0.5446  0.1124 -0.5508
  495MOL0     C66696   1.592   4.389   4.023 -0.8004 -0.7809 -0.0426
  495MOL0     C66697   1.492   4.398   3.918 -0.3216 -0.2981  0.2957
  495MOL0     O66698   1.357   4.403   3.938 -0.3435 -0.2013 -0.3797
  495MOL0     C66699   1.311   4.457   4.061 -0.2116 -0.1261  1.0355
  495MOL0     C66700   1.324   4.607   4.058  0.4002 -0.2338 -0.1887
  495MOL0     C66701   1.459   4.670   4.033  0.1613 -0.5465 -0.2112
  495MOL0     C66702   1.460   4.821   4.049  0.2189  0.2299 -0.7048
  495MOL0     C66703   1.432   4.877   4.188  0.0022  0.7386  0.5670
  495MOL0     C66704   1.378   5.020   4.178 -0.1949 -0.2927  1.2716
  495MOL0     C66705   1.247   5.030   4.098  0.8114  0.1055  0.0161
  495MOL0     C66706   1.183   5.167   4.106  0.5223 -0.0163  0.4065
  495MOL0     N66707   1.036   5.174   4.081  1.0063 -0.2877 -0.1222
  495MOL0     C66708   0.939   5.161   4.183  0.2699 -0.8126  0.1013
  495MOL0     C66709   0.819   5.143   4.130 -0.2145  0.6524  0.0188
  495MOL0     C66710   0.698   5.112   4.221 -0.3137 -0.1305 -0.3202
  495MOL0     C66711   0.571   5.139   4.143 -0.0592 -0.8592  0.0180
  495MOL0     C66712   0.453   5.084   4.213 -0.4548  0.4570  0.3324
  495MOL0     C66713   0.326   5.105   4.132 -0.5562 -0.2416  0.4751
  495MOL0     O66714   0.222   5.044   4.201  0.2483  0.1042  0.1442
  495MOL0     C66715   0.096   5.074   4.150 -0.4116  0.1576 -0.3483
  495MOL0     C66716   0.008   5.108   4.252 -0.1288 -0.7164 -0.2161
  495MOL0     C66717  -0.119   5.164   4.225 -0.6608 -0.2163 -0.2232
  495MOL0     C66718  -0.201   5.224   4.339 -0.7956 -0.2948 -0.8657
  495MOL0     C66719  -0.160   5.171   4.089 -0.1670  0.1106  0.6107
  495MOL0     C66720  -0.306   5.203   4.062  0.8679 -1.0681 -0.6883
  495MOL0     O66721  -0.327   5.215   3.927  0.3984 -0.6368 -0.5812
  495MOL0     C66722  -0.422   5.305   3.884 -0.6791  0.8830 -0.0738
  495MOL0     C66723  -0.555   5.263   3.859 -0.8321 -0.3097  0.4200
  495MOL0     C66724  -0.657   5.365   3.852  0.2559 -1.0682 -0.1630
  495MOL0     C66725  -0.624   5.501   3.868 -0.6560  0.7846  0.7919
  495MOL0     O66726  -0.725   5.597   3.872 -0.1233  0.1744 -0.4550
  495MOL0     C66727  -0.736   5.671   3.995  0.7578  0.0923  0.4374
  495MOL0     C66728  -0.858   5.765   4.010 -0.0675  0.1968 -0.1080
  495MOL0     C66729  -0.985   5.696   4.055 -0.0299  0.2327  0.2415
  495MOL0     C66730  -0.997   5.668   4.205  0.1769 -0.3746 -0.1623
  495MOL0     C66731  -1.148   5.625   4.237  0.2977  0.1701  0.5735
  495MOL0     C66732  -1.172   5.622   4.389  0.2754  0.0255  0.1131
  495MOL0     C66733  -1.306   5.561   4.433  0.0422 -0.7865  0.8550
  495MOL0     C66734  -1.320   5.406   4.432 -0.0271 -0.9235 -0.6762
  495MOL0    Cl66735  -1.217   5.333   4.533 -0.8795  0.2847 -0.2097
  495MOL0     C66736  -0.496   5.541   3.897  0.3139 -0.4384  0.0364
  495MOL0     C66737  -0.395   5.445   3.905  0.2342  0.3214 -0.4520
  495MOL0     O66738  -0.395   5.228   4.147  0.0940  0.0358  0.1305
  495MOL0     C66739  -0.068   5.127   3.989  0.9834  0.7667 -0.8100
  495MOL0     C66740   0.058   5.074   4.022 -0.6892 -0.4695 -0.9294
  495MOL0     N66741   0.840   5.151   3.992  0.9064  0.1785  0.5595
  495MOL0     N66742   0.965   5.171   3.964 -0.4975  0.5364  0.6087
  495MOL0     C66743   1.545   4.385   3.784  0.1248 -0.3163  0.0124
  495MOL0     C66744   1.686   4.387   3.758  0.0222  0.2483 -0.1460
  495MOL0     C66745   2.118   4.445   3.756  0.2586 -0.2976 -0.1478
  495MOL0     C66746   2.173   4.351   3.841 -0.4430 -0.0626  0.7505
  495MOL0     C66747   2.313   4.328   3.842  0.1601  0.3905  0.1761
  495MOL0     C66748   2.392   4.404   3.758  0.2341  0.0640  0.7641
  495MOL0     O66749   2.519   4.384   3.756 -0.3113  0.3011  0.0992
  495MOL0     C66750   2.584   4.373   3.885  0.0647  0.2312  0.8818
  495MOL0     C66751   2.734   4.380   3.861  0.7430  0.5607  0.3093
  495MOL0     C66752   2.824   4.344   3.985 -0.6027  0.9276  0.5138
  495MOL0     C66753   2.974   4.363   3.951  0.3341 -0.7328 -0.4481
  495MOL0     C66754   3.058   4.346   4.069  0.4719 -0.1657  0.5042
  495MOL0     C66755   3.119   4.332   4.174 -0.4237  0.3057  0.5021
  495MOL0     C66756   2.334   4.501   3.675  0.2620  0.1915 -0.4218
  495MOL0     C66757   2.196   4.529   3.680  0.4857 -0.0837  0.1855
  495MOL0     H66758   1.798   4.439   4.066  0.7478 -2.7465 -0.3401
  495MOL0     H66759   1.556   4.411   4.123 -0.0849 -2.2274  0.5617
  495MOL0     H66760   1.206   4.425   4.073 -1.0004  2.1609  0.6826
  495MOL0     H66761   1.364   4.414   4.146  2.2924 -0.8200 -0.7828
  495MOL0     H66762   1.258   4.635   3.976  0.5559  0.0741 -0.2104
  495MOL0     H66763   1.288   4.647   4.153  2.7738  0.9460  0.2907
  495MOL0     H66764   1.521   4.636   4.117  1.7010  2.7896  0.1760
  495MOL0     H66765   1.497   4.645   3.933 -1.6583 -2.7385 -0.4221
  495MOL0     H66766   1.558   4.861   4.023  0.4430 -1.3445 -2.5169
  495MOL0     H66767   1.388   4.857   3.975 -1.2240  0.5069  0.7925
  495MOL0     H66768   1.369   4.807   4.243 -1.8125 -0.2596 -2.4966
  495MOL0     H66769   1.526   4.893   4.242 -0.4101  0.1251  1.4927
  495MOL0     H66770   1.361   5.056   4.279  0.0132  1.5806  0.6668
  495MOL0     H66771   1.449   5.085   4.127  1.1002 -1.6742  1.2468
  495MOL0     H66772   1.259   5.010   3.991 -1.1823  3.6670 -1.0382
  495MOL0     H66773   1.170   4.966   4.141 -1.7737  1.6585 -1.9531
  495MOL0     H66774   1.225   5.226   4.024 -1.0175 -2.5277 -2.3613
  495MOL0     H66775   1.201   5.218   4.202 -2.9931 -0.0274  1.2006
  495MOL0     H66776   0.963   5.161   4.289  3.9998  1.6137 -0.5462
  495MOL0     H66777   0.701   5.008   4.257 -1.2229 -1.2095 -3.0707
  495MOL0     H66778   0.700   5.176   4.310  0.2658 -1.5503  0.7211
  495MOL0     H66779   0.575   5.080   4.050  0.0393 -1.2533  0.2695
  495MOL0     H66780   0.558   5.244   4.114 -1.0625 -0.8592  0.4369
  495MOL0     H66781   0.437   5.136   4.307  0.4863 -1.3826  1.5667
  495MOL0     H66782   0.465   4.977   4.235 -4.0884 -0.8632 -2.8763
  495MOL0     H66783   0.349   5.058   4.036  2.8155  0.4470  0.8023
  495MOL0     H66784   0.306   5.212   4.120  1.5184  0.1308 -0.0791
  495MOL0     H66785   0.050   5.104   4.353  3.1724 -1.8089 -1.4987
  495MOL0     H66786  -0.241   5.325   4.331 -1.8716 -0.5180  1.0510
  495MOL0     H66787  -0.287   5.158   4.352  1.2118 -2.4705  4.5942
  495MOL0     H66788  -0.131   5.227   4.424 -0.4920 -0.4246 -1.1094
  495MOL0     H66789  -0.586   5.160   3.871 -2.0013 -0.0874 -0.5094
  495MOL0     H66790  -0.762   5.344   3.834 -0.2214  1.7273 -1.1453
  495MOL0     H66791  -0.731   5.603   4.081 -1.7601  2.2612  2.4867
  495MOL0     H66792  -0.648   5.735   3.997  3.5611 -3.4104  2.7476
  495MOL0     H66793  -0.830   5.846   4.078  2.3360 -0.1814 -0.5560
  495MOL0     H66794  -0.877   5.815   3.914 -2.0680 -0.3907 -0.0662
  495MOL0     H66795  -0.995   5.604   3.997 -2.4361  0.5098  0.0950
  495MOL0     H66796  -1.058   5.769   4.017 -1.3306 -2.3572 -2.6970
  495MOL0     H66797  -0.922   5.599   4.243  0.6580  0.9276  1.3653
  495MOL0     H66798  -0.979   5.762   4.259 -0.2183 -0.0223 -0.6272
  495MOL0     H66799  -1.172   5.523   4.206  1.9552 -0.2438  0.5642
  495MOL0     H66800  -1.219   5.697   4.196 -0.8803 -1.1362  0.2169
  495MOL0     H66801  -1.096   5.560   4.437 -1.9909  0.1290  4.3509
  495MOL0     H66802  -1.160   5.724   4.427  1.3892  0.3185 -0.9579
  495MOL0     H66803  -1.373   5.603   4.358  3.8409  2.0356 -1.3384
  495MOL0     H66804  -1.344   5.599   4.528 -0.9179  0.6748 -0.0781
  495MOL0     H66805  -1.292   5.367   4.333  1.4325 -0.1167 -0.6126
  495MOL0     H66806  -1.423   5.378   4.451 -0.1494  0.2419  0.5386
  495MOL0     H66807  -0.482   5.646   3.918 -1.8674 -0.0855 -0.0442
  495MOL0     H66808  -0.295   5.472   3.937  0.0088  3.4407 -1.9662
  495MOL0     H66809  -0.109   5.126   3.888 -1.2323 -0.2872  0.0326
  495MOL0     H66810   0.130   5.048   3.945  2.3557  2.9339  0.4488
  495MOL0     H66811   1.466   4.378   3.709  1.1655 -0.1730 -1.1220
  495MOL0     H66812   1.727   4.377   3.658 -0.2499  2.7878 -0.5764
  495MOL0     H66813   2.111   4.279   3.895 -2.2382 -0.5813 -1.8100
  495MOL0     H66814   2.341   4.248   3.910 -0.5771  1.9107  2.3927
  495MOL0     H66815   2.558   4.467   3.935  2.4958  1.4555  0.0416
  495MOL0     H66816   2.551   4.296   3.954 -0.9626  1.8422  2.2820
  495MOL0     H66817   2.760   4.478   3.819 -0.2928 -0.7007 -3.7392
  495MOL0     H66818   2.772   4.311   3.787  1.1058 -0.3005  1.2779
  495MOL0     H66819   2.816   4.237   4.010  1.3688  0.5112 -0.3803
  495MOL0     H66820   2.788   4.395   4.075  0.1117  0.3160  1.1689
  495MOL0     H66821   2.978   4.469   3.923 -0.0582  0.0746  2.1953
  495MOL0     H66822   3.010   4.304   3.867 -1.0991 -1.8628 -0.2947
  495MOL0     H66823   3.157   4.329   4.274  1.5691  0.2413 -0.2063
  495MOL0     H66824   2.401   4.552   3.607 -0.5246  0.7194 -0.8229
  495MOL0     H66825   2.146   4.598   3.613  2.4734 -0.1805 -1.5154
  496MOL0     O66826   3.197   5.610   0.428 -0.5688 -0.7669  0.2368
  496MOL0     C66827   3.168   5.495   0.446 -0.3095  0.1255 -1.1083
  496MOL0     O66828   3.041   5.451   0.475 -0.6545  0.1307 -0.6930
  496MOL0     C66829   2.973   5.552   0.518  0.4046 -0.7421  0.0600
  496MOL0     C66830   2.878   5.610   0.434 -0.4688  0.3605 -0.0961
  496MOL0     C66831   2.796   5.702   0.492  0.2776 -0.3801  0.7990
  496MOL0     C66832   2.794   5.735   0.630 -0.3302  0.0832  0.6264
  496MOL0     O66833   2.711   5.833   0.676 -0.3556 -0.2518  0.7393
  496MOL0     C66834   2.678   5.843   0.814  0.1694  0.1067  0.3213
  496MOL0     C66835   2.636   5.987   0.852  0.7349 -0.0641 -0.2256
  496MOL0     C66836   2.534   6.002   0.967  0.0281 -0.0575  0.1967
  496MOL0     C66837   2.487   6.147   0.976 -0.3426  0.8364 -1.1054
  496MOL0     C66838   2.359   6.153   1.074 -0.1489  0.0084  0.4681
  496MOL0     C66839   2.292   6.287   1.076 -0.2308 -0.5954 -0.2727
  496MOL0     C66840   2.172   6.308   1.169  0.3965 -0.4165 -0.0352
  496MOL0     C66841   2.048   6.244   1.123  1.2724  0.3595  0.4827
  496MOL0     N66842   2.043   6.098   1.129  1.1052  0.2547  1.1896
  496MOL0     C66843   2.084   6.022   1.239 -0.9286 -0.2130  0.1175
  496MOL0     C66844   2.081   5.893   1.197 -0.0101  0.0776 -0.0744
  496MOL0     C66845   2.121   5.772   1.270  0.4521  0.9104 -0.0424
  496MOL0     C66846   2.254   5.717   1.209  0.2788  0.5895  0.0012
  496MOL0     C66847   2.309   5.611   1.298  0.1550  0.6072 -0.2954
  496MOL0     C66848   2.448   5.552   1.259  0.1922  0.1334  0.2921
  496MOL0     O66849   2.544   5.667   1.260 -0.2160  0.0791 -0.3861
  496MOL0     C66850   2.668   5.659   1.189  0.6703  0.2693 -0.8344
  496MOL0     C66851   2.702   5.539   1.129  1.1626  0.4154  0.2079
  496MOL0     C66852   2.826   5.525   1.073 -0.4506 -0.6589  0.2080
  496MOL0     C66853   2.864   5.390   1.019 -0.0733 -0.3373  0.2787
  496MOL0     C66854   2.914   5.640   1.059 -0.4841 -0.9056  0.3290
  496MOL0     C66855   3.056   5.640   1.003  0.2170  0.1742  0.3740
  496MOL0     O66856   3.117   5.761   0.980 -0.6835 -0.4533 -0.3487
  496MOL0     C66857   3.241   5.764   0.924  0.3876  0.3515  0.4005
  496MOL0     C66858   3.244   5.755   0.781 -0.1965  0.8820  0.2780
  496MOL0     C66859   3.367   5.743   0.718  0.2349  0.6603  0.0770
  496MOL0     C66860   3.494   5.752   0.780 -0.0897 -0.0657  0.2092
  496MOL0     O66861   3.615   5.753   0.726 -0.5582  0.2558  0.5622
  496MOL0     C66862   3.619   5.796   0.588 -0.0590  0.3515 -0.2907
  496MOL0     C66863   3.759   5.811   0.540 -0.1136 -0.7219 -0.5399
  496MOL0     C66864   3.852   5.687   0.573  0.7627 -0.2992  0.0653
  496MOL0     C66865   3.786   5.561   0.511 -0.1478  0.5107 -0.5531
  496MOL0     C66866   3.886   5.450   0.497  0.5528 -0.2396  0.5353
  496MOL0     C66867   4.005   5.489   0.407 -0.2848  0.4242 -0.5370
  496MOL0     C66868   4.092   5.364   0.377  0.9605 -0.4138 -0.1364
  496MOL0     C66869   4.194   5.358   0.491  0.0766 -0.3433  0.3816
  496MOL0    Cl66870   4.271   5.195   0.471  0.3483  0.1851 -0.0069
  496MOL0     C66871   3.488   5.766   0.920 -0.2626 -0.6670 -0.2053
  496MOL0     C66872   3.363   5.778   0.988 -0.1384 -0.4635 -0.0896
  496MOL0     O66873   3.112   5.530   0.990 -0.1070  0.0522 -0.2471
  496MOL0     C66874   2.875   5.761   1.117 -0.3992  0.0721 -0.3981
  496MOL0     C66875   2.757   5.762   1.187  0.0123 -0.6426 -0.7406
  496MOL0     N66876   2.034   5.900   1.066  0.2935  0.4626  0.3336
  496MOL0     N66877   2.014   6.013   1.026  0.6213 -0.3333 -0.0048
  496MOL0     C66878   2.881   5.669   0.712 -0.4790 -0.1918 -0.3259
  496MOL0     C66879   2.975   5.575   0.657  0.3422 -0.2686  0.8136
  496MOL0     C66880   3.277   5.393   0.421  0.2686 -0.0652  0.3080
  496MOL0     C66881   3.403   5.442   0.389  0.6530 -0.3720  0.2315
  496MOL0     C66882   3.503   5.361   0.363 -0.6052  0.4178  0.6106
  496MOL0     C66883   3.488   5.230   0.402  1.3245 -0.2809  0.0405
  496MOL0     O66884   3.603   5.158   0.391 -0.7699  0.0868  0.0981
  496MOL0     C66885   3.626   5.044   0.471  0.1485 -0.6750  0.4612
  496MOL0     C66886   3.767   5.056   0.537  0.7045  0.3029 -0.5509
  496MOL0     C66887   3.859   4.936   0.516  0.2336 -0.0403 -0.8072
  496MOL0     C66888   4.001   4.991   0.551  0.2293  0.5266  0.1310
  496MOL0     C66889   4.101   4.885   0.571 -0.1263  0.1784  0.2348
  496MOL0     C66890   4.198   4.816   0.594 -0.3560  0.2845 -0.0073
  496MOL0     C66891   3.367   5.170   0.430  0.5518  0.5482  0.9181
  496MOL0     C66892   3.250   5.256   0.432 -0.1864  0.1695 -0.1677
  496MOL0     H66893   2.887   5.578   0.330 -1.6635 -0.4718  0.0377
  496MOL0     H66894   2.718   5.750   0.434 -0.0712  0.7217  2.1248
  496MOL0     H66895   2.606   5.762   0.829  2.1524 -1.5781  1.2864
  496MOL0     H66896   2.753   5.830   0.893 -0.3446 -2.8131  0.4213
  496MOL0     H66897   2.728   6.044   0.866  1.7782 -1.6136 -0.4484
  496MOL0     H66898   2.588   6.033   0.765 -1.6124 -3.1417 -0.7442
  496MOL0     H66899   2.458   5.926   0.948  0.0054  0.0662 -0.2094
  496MOL0     H66900   2.581   5.978   1.063  0.9691  1.9578  0.3034
  496MOL0     H66901   2.571   6.205   1.017 -0.6217  0.9769 -0.7194
  496MOL0     H66902   2.455   6.193   0.882  1.0659  1.2599 -1.3944
  496MOL0     H66903   2.292   6.072   1.047 -0.0847  0.6089 -1.6895
  496MOL0     H66904   2.388   6.135   1.178 -2.7665 -1.1394  1.0680
  496MOL0     H66905   2.366   6.367   1.088  0.6056 -1.2776 -0.7770
  496MOL0     H66906   2.248   6.314   0.980  1.2745  1.9590 -0.3478
  496MOL0     H66907   2.200   6.272   1.268 -0.1073 -1.5288 -0.2827
  496MOL0     H66908   2.152   6.415   1.172  2.2287 -0.0526  1.8428
  496MOL0     H66909   2.012   6.269   1.023 -0.7157  0.6767  1.2151
  496MOL0     H66910   1.972   6.277   1.195  0.4847 -2.4203  1.0699
  496MOL0     H66911   2.120   6.057   1.335 -0.8303 -1.1620  0.4345
  496MOL0     H66912   2.139   5.802   1.374  1.2486  0.3216  0.0014
  496MOL0     H66913   2.047   5.692   1.273  0.4612  0.8955 -0.2276
  496MOL0     H66914   2.326   5.799   1.203  1.3166 -0.4056 -1.7763
  496MOL0     H66915   2.232   5.686   1.106  1.5677 -0.7136  0.0931
  496MOL0     H66916   2.237   5.529   1.311 -0.7384  1.5710  0.9859
  496MOL0     H66917   2.328   5.649   1.398 -0.1265 -0.5546  0.2110
  496MOL0     H66918   2.438   5.503   1.162  3.2199  2.0708 -1.1334
  496MOL0     H66919   2.482   5.483   1.338 -0.6132  2.3425  2.6990
  496MOL0     H66920   2.630   5.458   1.125  0.9111  0.5848  1.0202
  496MOL0     H66921   2.945   5.340   1.073 -0.9952 -1.0664  1.0166
  496MOL0     H66922   2.778   5.325   1.036  0.9694 -1.1337  2.9856
  496MOL0     H66923   2.892   5.392   0.913  3.3002 -3.9514  0.8707
  496MOL0     H66924   3.152   5.749   0.724  1.7301  4.1481 -3.7596
  496MOL0     H66925   3.361   5.721   0.612  2.0375 -0.8353  0.2342
  496MOL0     H66926   3.577   5.712   0.532 -3.1838  1.3732  0.3264
  496MOL0     H66927   3.565   5.889   0.567 -1.8944 -0.6352 -0.1846
  496MOL0     H66928   3.770   5.844   0.436 -1.3945  0.0436 -0.4448
  496MOL0     H66929   3.800   5.899   0.591  0.4376 -1.2004 -0.1360
  496MOL0     H66930   3.852   5.683   0.682  3.2600  0.4668  0.1458
  496MOL0     H66931   3.956   5.700   0.543  0.8511  0.5790  0.7152
  496MOL0     H66932   3.716   5.526   0.588 -0.9336 -2.3406 -2.4297
  496MOL0     H66933   3.731   5.583   0.419  0.9693 -0.1923 -1.4193
  496MOL0     H66934   3.832   5.365   0.455 -1.1034  0.5069  1.0768
  496MOL0     H66935   3.922   5.419   0.596  1.7127 -2.3129 -0.4546
  496MOL0     H66936   3.962   5.525   0.313 -3.6226 -0.3981  0.5216
  496MOL0     H66937   4.078   5.562   0.441 -0.5845 -0.9525  3.7522
  496MOL0     H66938   4.144   5.382   0.282 -2.7901  0.4260 -2.2270
  496MOL0     H66939   4.037   5.270   0.367 -2.7988  1.3851  1.5512
  496MOL0     H66940   4.159   5.370   0.594 -0.9968 -1.1197  0.1147
  496MOL0     H66941   4.272   5.434   0.479 -0.4898  0.0842 -0.6224
  496MOL0     H66942   3.588   5.778   0.959  0.4504  1.1661 -2.3392
  496MOL0     H66943   3.368   5.796   1.095 -1.1174  1.8623 -0.3641
  496MOL0     H66944   2.938   5.848   1.107  1.4635 -1.3612 -1.8904
  496MOL0     H66945   2.727   5.856   1.234 -0.2426 -0.7851 -0.6166
  496MOL0     H66946   2.888   5.687   0.819  1.8788 -0.2538 -0.4166
  496MOL0     H66947   3.046   5.527   0.724  1.5935 -1.2871 -1.1484
  496MOL0     H66948   3.422   5.549   0.380 -3.6349  0.7145  1.7152
  496MOL0     H66949   3.595   5.399   0.321 -1.2054 -0.4542 -1.6391
  496MOL0     H66950   3.551   5.045   0.550 -1.0848  0.8457 -0.6722
  496MOL0     H66951   3.624   4.949   0.417  0.5736 -1.4890  1.8291
  496MOL0     H66952   3.754   5.084   0.642  0.2933  0.7595 -0.7172
  496MOL0     H66953   3.814   5.145   0.494 -1.2730  1.9536  0.5487
  496MOL0     H66954   3.852   4.903   0.412 -2.5583  2.7166 -1.6315
  496MOL0     H66955   3.830   4.855   0.584 -1.0865  1.4580  0.4920
  496MOL0     H66956   3.995   5.056   0.638 -1.3765  3.6569 -2.0945
  496MOL0     H66957   4.027   5.056   0.467  1.2790 -1.8411 -1.4929
  496MOL0     H66958   4.279   4.754   0.627  0.1327  3.0074  4.7560
  496MOL0     H66959   3.359   5.069   0.469  1.6272 -0.2545 -0.8325
  496MOL0     H66960   3.150   5.215   0.447  0.4700 -0.9001  1.6139
  497MOL0     O66961   5.456   7.178   6.923  0.1963 -0.0995  0.2257
  497MOL0     C66962   5.491   7.060   6.917 -0.0148 -0.3555  0.0154
  497MOL0     O66963   5.408   6.950   6.922  0.7943  0.1991  0.2661
  497MOL0     C66964   5.273   6.966   6.933 -1.2103  0.2871 -0.8246
  497MOL0     C66965   5.208   6.943   7.061 -0.0081 -0.2823  0.9662
  497MOL0     C66966   5.072   6.972   7.079 -1.0814  0.3312  0.4398
  497MOL0     C66967   5.007   7.034   6.979  0.4009 -0.0923 -0.3305
  497MOL0     O66968   4.876   7.083   7.006  0.1695  0.1148 -0.0238
  497MOL0     C66969   4.794   7.033   7.113  0.5191 -0.1094  0.5354
  497MOL0     C66970   4.642   7.045   7.065 -0.0563 -0.2301 -0.5949
  497MOL0     C66971   4.599   6.924   6.977 -0.5231  0.1670  0.3459
  497MOL0     C66972   4.447   6.930   6.961 -0.9504  0.0803  0.7321
  497MOL0     C66973   4.386   6.809   6.885  0.7871  0.2362  0.0776
  497MOL0     C66974   4.247   6.845   6.822 -0.6710 -0.2584 -0.8257
  497MOL0     C66975   4.136   6.891   6.921 -0.6376 -0.2512 -0.1128
  497MOL0     C66976   4.032   6.983   6.843 -0.2357  0.3937  0.1100
  497MOL0     N66977   3.960   6.925   6.730  1.3470 -0.1763  0.4528
  497MOL0     C66978   3.924   6.799   6.693  0.0404  0.7680  0.0271
  497MOL0     C66979   3.821   6.816   6.608 -0.9460 -1.0768  1.4737
  497MOL0     C66980   3.751   6.701   6.536  0.5226 -0.0225 -0.1059
  497MOL0     C66981   3.602   6.710   6.558  0.1703  0.3984 -0.0288
  497MOL0     C66982   3.521   6.583   6.517  0.5704  0.2350 -0.0232
  497MOL0     C66983   3.374   6.621   6.493 -0.2158  0.4448 -0.6694
  497MOL0     O66984   3.300   6.510   6.447  0.5141  0.4918  0.3980
  497MOL0     C66985   3.161   6.520   6.448 -0.0018 -0.3818 -0.4457
  497MOL0     C66986   3.087   6.401   6.446  0.1982 -0.1968 -0.5725
  497MOL0     C66987   2.945   6.392   6.453 -0.7482 -1.1372  0.1749
  497MOL0     C66988   2.893   6.253   6.438  0.0544 -0.6072  0.1093
  497MOL0     C66989   2.876   6.513   6.446 -0.4341  0.1751 -0.0784
  497MOL0     C66990   2.727   6.525   6.447  0.6673  0.4799 -0.4211
  497MOL0     O66991   2.675   6.645   6.410  0.1145  0.1832 -0.5059
  497MOL0     C66992   2.536   6.642   6.422 -0.8036  0.8791 -0.4913
  497MOL0     C66993   2.447   6.635   6.318  0.0361  0.3237 -0.1855
  497MOL0     C66994   2.305   6.634   6.335 -0.9282  0.0003 -0.3955
  497MOL0     C66995   2.254   6.650   6.468 -0.0777 -0.2770 -0.1274
  497MOL0     O66996   2.117   6.663   6.493 -0.2932  0.0626 -0.4761
  497MOL0     C66997   2.034   6.713   6.391 -1.0565 -0.0815  0.0322
  497MOL0     C66998   2.054   6.865   6.373 -0.7991  0.1747  0.1142
  497MOL0     C66999   1.972   6.939   6.483 -0.5431 -0.2959  0.3234
  497MOL0     C67000   1.948   7.085   6.441 -1.2324 -0.4348  0.2724
  497MOL0     C67001   1.905   7.173   6.557  0.9716  0.4655  0.2314
  497MOL0     C67002   1.766   7.137   6.615 -0.0971 -0.2767  0.9726
  497MOL0     C67003   1.745   7.238   6.734 -0.2721  0.0183  0.0776
  497MOL0     C67004   1.609   7.217   6.805  0.1803 -0.0016 -0.4386
  497MOL0    Cl67005   1.478   7.286   6.716  0.5441  0.4083  0.3100
  497MOL0     C67006   2.348   6.669   6.572  0.7651  0.3119  0.5972
  497MOL0     C67007   2.484   6.657   6.548  1.0101 -0.0767 -0.5971
  497MOL0     O67008   2.663   6.431   6.496  1.1616 -0.6285  0.7088
  497MOL0     C67009   2.951   6.632   6.438  0.3226  0.1842  0.0573
  497MOL0     C67010   3.091   6.634   6.443 -0.8445  0.3877 -1.0203
  497MOL0     N67011   3.827   6.944   6.560  0.0778  0.0073  1.0965
  497MOL0     N67012   3.901   7.015   6.638  0.6388  0.2829 -0.5844
  497MOL0     C67013   5.072   7.077   6.862 -0.1244 -0.7901 -0.4175
  497MOL0     C67014   5.208   7.039   6.833 -0.4284 -0.9280  0.8048
  497MOL0     C67015   5.632   7.025   6.918 -0.0304 -0.0164 -0.4337
  497MOL0     C67016   5.729   7.124   6.939  0.6933  0.8170  1.1225
  497MOL0     C67017   5.864   7.099   6.936 -0.2423  0.1703  0.3711
  497MOL0     C67018   5.903   6.964   6.913 -0.7971  0.2942 -0.6830
  497MOL0     O67019   6.032   6.914   6.909  1.0346  0.5660 -0.3922
  497MOL0     C67020   6.128   7.007   6.956 -0.7763  0.2321 -0.1363
  497MOL0     C67021   6.271   6.949   6.952  0.2219 -0.6158  0.1324
  497MOL0     C67022   6.377   7.052   6.981 -0.5033 -1.0517  0.3572
  497MOL0     C67023   6.510   6.995   7.015 -0.0690  0.0997 -0.5552
  497MOL0     C67024   6.598   7.101   7.072 -0.1794 -0.6365  0.3113
  497MOL0     C67025   6.683   7.179   7.120  0.2592 -0.6088 -0.1292
  497MOL0     C67026   5.810   6.867   6.891  0.3577 -0.1145 -0.3724
  497MOL0     C67027   5.674   6.892   6.893 -0.0812 -0.6397 -0.2986
  497MOL0     H67028   5.261   6.911   7.150  0.2489 -0.3896  0.7754
  497MOL0     H67029   5.030   6.944   7.175  1.1465  5.1577  3.2018
  497MOL0     H67030   4.816   6.930   7.145 -0.6838  0.1814  2.4553
  497MOL0     H67031   4.814   7.101   7.196  0.1045 -0.1700  0.6897
  497MOL0     H67032   4.583   7.031   7.156  1.1935 -0.9466  0.1427
  497MOL0     H67033   4.617   7.141   7.018 -0.4622  1.1731  2.2648
  497MOL0     H67034   4.655   6.921   6.883 -0.8357 -2.2320  0.1774
  497MOL0     H67035   4.625   6.837   7.038 -3.0363 -0.6235  0.3912
  497MOL0     H67036   4.390   6.936   7.054 -0.8784  1.4664  0.7191
  497MOL0     H67037   4.423   7.023   6.908  1.2494  0.8368  0.9585
  497MOL0     H67038   4.463   6.776   6.814  3.5230 -0.5888  3.1665
  497MOL0     H67039   4.379   6.724   6.954  0.1573 -0.1849 -0.4815
  497MOL0     H67040   4.265   6.924   6.748  3.4569 -0.4852 -0.3084
  497MOL0     H67041   4.214   6.759   6.764 -0.8530 -0.5659 -0.2749
  497MOL0     H67042   4.073   6.810   6.959 -2.9379  1.6688  0.3976
  497MOL0     H67043   4.187   6.954   6.995  2.6183 -0.3389 -2.0580
  497MOL0     H67044   4.081   7.075   6.812  2.8456  0.0835  3.3714
  497MOL0     H67045   3.955   7.008   6.916  0.6435 -1.3167  1.7232
  497MOL0     H67046   3.929   6.701   6.739  1.8884  0.4794 -0.7047
  497MOL0     H67047   3.770   6.709   6.429 -0.9431 -2.7661 -0.6479
  497MOL0     H67048   3.789   6.604   6.570 -3.0028 -1.0600  1.2823
  497MOL0     H67049   3.574   6.792   6.491  1.9535  1.0910  0.0261
  497MOL0     H67050   3.577   6.730   6.662  0.0586 -0.2559  0.0732
  497MOL0     H67051   3.534   6.506   6.594 -1.2178  1.3087  1.4487
  497MOL0     H67052   3.554   6.551   6.418 -0.5265 -0.8340 -0.0654
  497MOL0     H67053   3.370   6.688   6.407  1.2347 -3.3805 -4.0948
  497MOL0     H67054   3.321   6.663   6.579 -0.6424 -1.1239 -0.1169
  497MOL0     H67055   3.142   6.307   6.447 -0.7262 -0.7759 -1.3416
  497MOL0     H67056   2.928   6.215   6.341 -0.4989  3.5688 -1.9870
  497MOL0     H67057   2.936   6.188   6.514  0.0787 -1.2312 -0.4234
  497MOL0     H67058   2.784   6.247   6.447  0.1855 -0.3315  2.1860
  497MOL0     H67059   2.487   6.612   6.220  0.2012 -2.4082  0.4220
  497MOL0     H67060   2.241   6.621   6.249  0.8669 -3.0131 -1.4116
  497MOL0     H67061   2.044   6.665   6.294  1.8407  2.7460 -1.2152
  497MOL0     H67062   1.930   6.692   6.420 -1.2276  3.9802  3.1793
  497MOL0     H67063   2.162   6.880   6.385 -1.0120  1.3855  0.6230
  497MOL0     H67064   2.028   6.891   6.270  0.5619  2.2768  0.2415
  497MOL0     H67065   2.025   6.940   6.579  0.0515 -1.2775  0.0226
  497MOL0     H67066   1.881   6.881   6.498 -1.1068  0.2763 -0.7104
  497MOL0     H67067   2.039   7.124   6.395 -1.2608  1.4756  1.7329
  497MOL0     H67068   1.870   7.076   6.364 -3.4753  3.1668  1.8230
  497MOL0     H67069   1.907   7.281   6.538 -1.9968  0.6935  0.6688
  497MOL0     H67070   1.979   7.153   6.635 -0.5979 -1.5423  1.2824
  497MOL0     H67071   1.693   7.153   6.535  0.8342 -2.0104 -0.3239
  497MOL0     H67072   1.762   7.035   6.654 -1.3255 -0.7331 -0.2690
  497MOL0     H67073   1.750   7.338   6.691 -1.9829 -0.3734 -1.1486
  497MOL0     H67074   1.827   7.219   6.804 -1.1266 -2.1136  0.5835
  497MOL0     H67075   1.620   7.258   6.906 -0.7630  0.4050 -0.4922
  497MOL0     H67076   1.601   7.108   6.809  0.5650 -0.0090  0.4772
  497MOL0     H67077   2.314   6.695   6.672 -0.3343  1.6283 -0.0893
  497MOL0     H67078   2.549   6.667   6.634 -1.3945 -1.3182  1.5218
  497MOL0     H67079   2.892   6.723   6.428  0.3300  0.1311 -0.5435
  497MOL0     H67080   3.151   6.724   6.452  0.1097 -0.3746  0.5325
  497MOL0     H67081   5.018   7.136   6.789  2.0885  0.9220 -0.7828
  497MOL0     H67082   5.272   7.052   6.746  1.4900 -2.9314  1.8100
  497MOL0     H67083   5.688   7.219   6.971  1.3586  1.0503  1.2892
  497MOL0     H67084   5.932   7.181   6.953 -1.7861  1.4895  0.4305
  497MOL0     H67085   6.120   7.096   6.893  0.3787  1.3645  1.2377
  497MOL0     H67086   6.106   7.035   7.060 -0.4530 -1.5131  0.4337
  497MOL0     H67087   6.288   6.898   6.857  3.4731 -2.4606  1.5444
  497MOL0     H67088   6.288   6.875   7.031 -0.2838 -0.1471  0.6914
  497MOL0     H67089   6.351   7.103   7.074 -1.7936 -1.8907  0.4783
  497MOL0     H67090   6.388   7.121   6.896  1.8758 -0.8608  0.7514
  497MOL0     H67091   6.569   6.963   6.929  0.2856  0.4199 -0.4380
  497MOL0     H67092   6.492   6.903   7.072 -1.6901  0.0245 -1.1587
  497MOL0     H67093   6.755   7.243   7.168  0.3878  1.5001 -2.8595
  497MOL0     H67094   5.843   6.764   6.890 -1.0502 -0.6056  0.4237
  497MOL0     H67095   5.598   6.815   6.893 -1.1359  0.1229  4.2203
  498MOL0     O67096   7.439   0.778  10.143 -0.5939  0.3305 -0.1154
  498MOL0     C67097   7.521   0.784  10.234 -0.0980  1.0640 -0.1597
  498MOL0     O67098   7.489   0.796  10.365  0.0015  0.2299 -0.2027
  498MOL0     C67099   7.371   0.824  10.410  0.3810 -0.0154 -1.0241
  498MOL0     C67100   7.265   0.732  10.414  0.7209  0.0127  0.2224
  498MOL0     C67101   7.143   0.769  10.463 -0.6065 -0.0001 -1.1619
  498MOL0     C67102   7.144   0.890  10.541  0.4401 -0.8105 -0.0461
  498MOL0     O67103   7.042   0.927  10.626  0.0715 -0.0596  0.2444
  498MOL0     C67104   6.912   0.886  10.575 -0.2053  0.4254 -0.1967
  498MOL0     C67105   6.817   1.001  10.615  0.8994  0.1524  0.3416
  498MOL0     C67106   6.676   0.966  10.560 -0.5667 -0.3684 -0.9235
  498MOL0     C67107   6.583   1.087  10.588  0.4159  0.1883 -0.5858
  498MOL0     C67108   6.443   1.083  10.525  0.0843  0.2939 -0.0290
  498MOL0     C67109   6.447   1.086  10.381  0.1182  0.1457  0.0204
  498MOL0     C67110   6.310   1.083  10.311  0.5619 -0.0027  0.1632
  498MOL0     C67111   6.208   1.194  10.342  0.2764 -0.2783 -0.0187
  498MOL0     N67112   6.097   1.210  10.243  0.0369 -0.0101 -0.0125
  498MOL0     C67113   6.007   1.112  10.210 -0.8729 -0.5598 -1.0215
  498MOL0     C67114   5.910   1.177  10.138 -0.7196  0.4926  0.1392
  498MOL0     C67115   5.808   1.112  10.066  1.3516 -0.0661  1.1941
  498MOL0     C67116   5.696   1.214  10.034  0.7811 -0.1356  0.0872
  498MOL0     C67117   5.614   1.249  10.160 -0.4736  0.1719  1.2646
  498MOL0     C67118   5.676   1.348  10.262 -0.1893  0.1043  0.3012
  498MOL0     O67119   5.577   1.364  10.368 -0.1611 -0.3542  0.0219
  498MOL0     C67120   5.466   1.439  10.350  0.5108 -0.3850 -0.3449
  498MOL0     C67121   5.374   1.453  10.459 -0.3029 -0.4174  0.1158
  498MOL0     C67122   5.256   1.526  10.457  0.8412  0.5349  0.1305
  498MOL0     C67123   5.154   1.520  10.573  0.0627 -0.1043 -0.3208
  498MOL0     C67124   5.227   1.601  10.341 -0.9038 -0.5122 -0.6922
  498MOL0     C67125   5.116   1.689  10.320  1.4746 -0.0646  1.0139
  498MOL0     O67126   5.002   1.643  10.354  0.4096  0.1800 -0.6778
  498MOL0     C67127   4.886   1.702  10.318 -0.5018 -0.3589 -0.5032
  498MOL0     C67128   4.779   1.642  10.252  0.6696  0.4005 -0.2199
  498MOL0     C67129   4.651   1.696  10.229 -0.6570 -1.1502  0.3350
  498MOL0     C67130   4.613   1.817  10.287  0.1777 -0.0370  0.1519
  498MOL0     O67131   4.483   1.869  10.286  0.7280  0.6366 -0.0822
  498MOL0     C67132   4.369   1.789  10.244 -0.5844 -0.1751 -0.3172
  498MOL0     C67133   4.253   1.883  10.250 -0.6338  0.0144 -0.7740
  498MOL0     C67134   4.114   1.806  10.222  0.4487 -0.6924 -0.7573
  498MOL0     C67135   4.007   1.839  10.327  0.5928  0.2961  0.7638
  498MOL0     C67136   3.900   1.727  10.304  0.7474  0.0379 -0.5646
  498MOL0     C67137   3.778   1.747  10.397  0.1011  0.3882  0.4749
  498MOL0     C67138   3.669   1.656  10.359 -0.8080  0.7240  0.3530
  498MOL0     C67139   3.541   1.679  10.426  0.0533 -0.6006  0.5611
  498MOL0    Cl67140   3.423   1.565  10.361  0.0672  0.3290  0.0149
  498MOL0     C67141   4.719   1.887  10.351  0.0181  0.3006 -0.5505
  498MOL0     C67142   4.853   1.829  10.366 -0.0866 -0.5096  0.1461
  498MOL0     O67143   5.133   1.797  10.267 -0.0825 -0.7873 -0.0638
  498MOL0     C67144   5.318   1.600  10.239 -0.5153 -0.2332  0.4980
  498MOL0     C67145   5.434   1.521  10.239 -0.3248  1.1679  0.0920
  498MOL0     N67146   5.952   1.307  10.134 -0.1987 -0.5377  0.4961
  498MOL0     N67147   6.067   1.335  10.198  0.4303 -1.0135  0.2237
  498MOL0     C67148   7.252   0.976  10.556 -0.5204  0.3414 -0.2559
  498MOL0     C67149   7.364   0.943  10.486  0.7626  0.0620  0.6098
  498MOL0     C67150   7.667   0.768  10.220  0.1777 -0.1927 -0.3252
  498MOL0     C67151   7.752   0.809  10.329  0.1231 -0.0309 -0.7316
  498MOL0     C67152   7.893   0.808  10.319 -0.8080  0.3047 -0.3035
  498MOL0     C67153   7.950   0.758  10.201  0.5240  0.2841 -0.0694
  498MOL0     O67154   8.084   0.746  10.183  0.2017  0.1687 -0.3309
  498MOL0     C67155   8.167   0.728  10.294  0.3829 -0.0610  0.7264
  498MOL0     C67156   8.223   0.588  10.290 -0.1884 -0.7180  0.6941
  498MOL0     C67157   8.342   0.582  10.378 -0.1069  0.1199  0.5168
  498MOL0     C67158   8.421   0.451  10.384  0.5954  0.2981  0.0695
  498MOL0     C67159   8.321   0.357  10.429  0.1693  0.8571  0.1896
  498MOL0     C67160   8.231   0.275  10.462 -0.7446 -0.4363  0.8479
  498MOL0     C67161   7.864   0.712  10.099 -0.4096  0.5672  0.2274
  498MOL0     C67162   7.719   0.727  10.105  0.7687 -0.5947  0.0171
  498MOL0     H67163   7.278   0.640  10.358  0.8234 -0.5149  1.0950
  498MOL0     H67164   7.054   0.709  10.447  0.4544 -1.8902 -0.2942
  498MOL0     H67165   6.927   0.874  10.468  1.3805 -1.6523  0.1885
  498MOL0     H67166   6.889   0.788  10.618  2.2262  0.3194  1.0552
  498MOL0     H67167   6.827   1.024  10.721 -2.4719  1.0001  0.5739
  498MOL0     H67168   6.839   1.099  10.573  0.8940  1.3466  2.9741
  498MOL0     H67169   6.681   0.945  10.453 -0.3147  1.1794 -1.2441
  498MOL0     H67170   6.635   0.880  10.613  0.1014  2.1155  4.2653
  498MOL0     H67171   6.555   1.088  10.693 -2.2647 -0.4919 -1.2126
  498MOL0     H67172   6.635   1.183  10.576  0.0252  0.7476  1.7842
  498MOL0     H67173   6.385   0.993  10.550 -1.1767  0.9766 -0.4348
  498MOL0     H67174   6.381   1.167  10.558 -3.1056 -1.1042 -1.9909
  498MOL0     H67175   6.495   1.175  10.340 -2.9385  1.7705 -0.3640
  498MOL0     H67176   6.506   1.002  10.344  1.7807  1.0610  0.4900
  498MOL0     H67177   6.313   1.077  10.202 -0.4728 -1.0748  0.1722
  498MOL0     H67178   6.260   0.990  10.339 -0.6415  1.0946  1.8745
  498MOL0     H67179   6.272   1.283  10.340 -0.1251  0.0426  1.0376
  498MOL0     H67180   6.167   1.173  10.441 -2.1710 -2.2119 -1.3232
  498MOL0     H67181   6.019   1.008  10.237  1.5611  0.1714  1.1967
  498MOL0     H67182   5.831   1.078   9.965 -4.8348 -1.5000 -0.1836
  498MOL0     H67183   5.773   1.028  10.127  0.3253  0.8371  1.8931
  498MOL0     H67184   5.620   1.166   9.971  1.7563  0.5112 -1.6364
  498MOL0     H67185   5.737   1.304   9.988  0.8060  0.5804  1.4581
  498MOL0     H67186   5.583   1.159  10.214  0.8899 -0.5425  0.9178
  498MOL0     H67187   5.523   1.298  10.123 -0.1826 -0.7993 -0.8981
  498MOL0     H67188   5.696   1.444  10.214  0.0832 -0.5953 -1.0453
  498MOL0     H67189   5.771   1.322  10.308  0.2711  0.2558 -0.5336
  498MOL0     H67190   5.389   1.400  10.553  3.0148 -0.6572 -0.4191
  498MOL0     H67191   5.182   1.437  10.639 -2.6264 -0.8674 -0.0230
  498MOL0     H67192   5.144   1.611  10.634  3.9165 -0.7227  1.5581
  498MOL0     H67193   5.058   1.483  10.535 -1.0788 -0.0323  2.2380
  498MOL0     H67194   4.787   1.540  10.217  1.0809  0.8884 -1.6247
  498MOL0     H67195   4.580   1.627  10.184 -1.0400  0.3512 -1.4517
  498MOL0     H67196   4.374   1.750  10.142  1.5194 -1.3181  0.1610
  498MOL0     H67197   4.353   1.712  10.320 -0.4852  0.3548  0.2538
  498MOL0     H67198   4.247   1.936  10.345 -1.8262 -0.5767 -0.5025
  498MOL0     H67199   4.280   1.957  10.174  1.5950 -0.2720 -0.3330
  498MOL0     H67200   4.137   1.699  10.218  0.1369 -0.7717 -0.4507
  498MOL0     H67201   4.083   1.829  10.120 -1.1848 -1.3030 -0.4315
  498MOL0     H67202   4.051   1.823  10.426  1.0733 -1.2023  0.3429
  498MOL0     H67203   3.971   1.940  10.304 -0.7662 -0.4292 -0.4826
  498MOL0     H67204   3.949   1.630  10.313 -0.6926 -0.4950  3.2537
  498MOL0     H67205   3.859   1.737  10.203 -2.3167  2.1914  0.7238
  498MOL0     H67206   3.801   1.732  10.503  1.1307 -1.5108  0.0364
  498MOL0     H67207   3.745   1.849  10.378  0.6758  0.4603 -0.1835
  498MOL0     H67208   3.700   1.553  10.375  1.1006  0.5213 -3.4927
  498MOL0     H67209   3.649   1.668  10.252 -0.3600 -2.4715 -0.1776
  498MOL0     H67210   3.506   1.781  10.411 -1.3675 -1.3422 -1.7621
  498MOL0     H67211   3.549   1.668  10.535 -5.4512  3.9984  1.9307
  498MOL0     H67212   4.696   1.981  10.401 -1.5436 -0.2336 -0.2060
  498MOL0     H67213   4.926   1.883  10.427 -2.8788  3.1767  0.5638
  498MOL0     H67214   5.306   1.668  10.156  0.1270  0.9472  1.3434
  498MOL0     H67215   5.495   1.534  10.150  0.4667 -0.6034  0.3373
  498MOL0     H67216   7.239   1.057  10.626 -1.3058  1.2899 -1.4562
  498MOL0     H67217   7.447   1.012  10.482  1.6230 -0.7699  2.7144
  498MOL0     H67218   7.712   0.831  10.428  0.4479 -1.0797 -0.3555
  498MOL0     H67219   7.965   0.853  10.387 -1.3259 -0.1763  0.5678
  498MOL0     H67220   8.242   0.805  10.274  0.4752 -0.7281 -1.9263
  498MOL0     H67221   8.130   0.739  10.396  0.5788  1.7118  0.6397
  498MOL0     H67222   8.241   0.559  10.186 -4.4168 -0.2364 -0.3614
  498MOL0     H67223   8.144   0.523  10.330 -1.2065  0.0271 -0.0663
  498MOL0     H67224   8.310   0.602  10.481  0.8250 -0.3315  0.9049
  498MOL0     H67225   8.402   0.671  10.361 -0.2419  0.2906  0.9211
  498MOL0     H67226   8.502   0.453  10.457 -0.4144  0.5116  1.2173
  498MOL0     H67227   8.456   0.416  10.286 -2.0558 -1.5624 -0.3329
  498MOL0     H67228   8.171   0.191  10.492 -0.2696 -2.3622 -2.8717
  498MOL0     H67229   7.900   0.649  10.018 -0.4866 -1.0730  1.4143
  498MOL0     H67230   7.652   0.693  10.027  1.0424 -1.0269 -0.0341
  499MOL0     O67231   4.120   4.128   1.753 -0.7176 -0.3399 -0.0676
  499MOL0     C67232   4.218   4.105   1.819 -0.0651 -0.2395  0.4576
  499MOL0     O67233   4.250   3.991   1.883 -0.2449  0.3000 -0.3947
  499MOL0     C67234   4.139   3.910   1.904 -0.3578  0.6044 -0.0639
  499MOL0     C67235   4.084   3.821   1.809  0.4440  0.5428  0.2398
  499MOL0     C67236   3.980   3.731   1.848 -0.0906 -0.2831 -0.3463
  499MOL0     C67237   3.933   3.719   1.983  0.7898  0.1191  1.4606
  499MOL0     O67238   3.821   3.635   2.001  0.0421 -0.1419 -0.3893
  499MOL0     C67239   3.758   3.631   2.126 -0.0812  1.2862 -0.1483
  499MOL0     C67240   3.680   3.758   2.152 -0.5975  0.0037  0.6117
  499MOL0     C67241   3.632   3.756   2.299  0.9951  0.2723 -1.1978
  499MOL0     C67242   3.570   3.899   2.334  0.1979  0.8418 -0.0247
  499MOL0     C67243   3.478   3.911   2.450  0.4767 -0.0576 -0.5210
  499MOL0     C67244   3.329   3.849   2.422 -0.4715  0.1727 -0.1384
  499MOL0     C67245   3.238   3.943   2.345 -0.2972  0.2338  0.5730
  499MOL0     C67246   3.156   4.024   2.441 -0.5686 -0.1040 -0.7690
  499MOL0     N67247   3.222   4.136   2.509  0.3642  0.0892  0.0165
  499MOL0     C67248   3.281   4.232   2.429 -0.2353 -0.2006  0.1062
  499MOL0     C67249   3.365   4.297   2.514 -0.2608 -0.1320 -0.9780
  499MOL0     C67250   3.470   4.394   2.499  0.4368 -0.2889 -0.0626
  499MOL0     C67251   3.439   4.522   2.568 -0.1003 -0.1511 -0.3538
  499MOL0     C67252   3.525   4.640   2.512 -0.3026 -0.1567 -0.2314
  499MOL0     C67253   3.675   4.631   2.565  0.4835 -0.1085  0.5023
  499MOL0     O67254   3.755   4.747   2.529 -0.0204  0.1359 -0.7618
  499MOL0     C67255   3.885   4.725   2.538  0.6427 -0.5600 -0.2769
  499MOL0     C67256   3.965   4.756   2.655  0.9088  0.6813 -0.7613
  499MOL0     C67257   4.107   4.760   2.652 -0.0677 -0.2179 -0.0568
  499MOL0     C67258   4.181   4.797   2.783  0.5319  0.4293  0.2514
  499MOL0     C67259   4.177   4.730   2.525 -0.5040  0.3683 -1.6401
  499MOL0     C67260   4.329   4.724   2.504 -0.2597  0.4167  0.0721
  499MOL0     O67261   4.368   4.662   2.392  0.0591  0.2354  0.8335
  499MOL0     C67262   4.497   4.617   2.395  0.5231 -0.1156  0.1672
  499MOL0     C67263   4.579   4.653   2.292  0.0606 -0.7762  0.5300
  499MOL0     C67264   4.716   4.612   2.295  0.0624  0.6337 -0.3241
  499MOL0     C67265   4.773   4.542   2.408 -0.6065  0.2415  0.2834
  499MOL0     O67266   4.906   4.513   2.411  0.5280 -0.2131  0.1861
  499MOL0     C67267   5.001   4.584   2.322  0.7156  0.8535  0.1391
  499MOL0     C67268   5.140   4.517   2.338  0.6447  0.7076 -0.5580
  499MOL0     C67269   5.206   4.552   2.476 -0.4119  0.2848 -0.3419
  499MOL0     C67270   5.341   4.484   2.503  1.0450  0.2832  0.4806
  499MOL0     C67271   5.441   4.519   2.396 -0.2009  0.6753  0.2621
  499MOL0     C67272   5.574   4.466   2.436 -0.5908 -0.1796  0.7974
  499MOL0     C67273   5.682   4.505   2.330  0.0575  0.2198 -0.2543
  499MOL0     C67274   5.678   4.416   2.205 -0.7334 -0.1568  0.1670
  499MOL0    Cl67275   5.745   4.241   2.229 -0.2895  0.1826 -0.4658
  499MOL0     C67276   4.681   4.498   2.497 -0.6910 -0.1491  0.1098
  499MOL0     C67277   4.549   4.536   2.495 -0.3784 -0.3284 -0.1549
  499MOL0     O67278   4.405   4.766   2.589 -0.4923 -0.6274  0.6064
  499MOL0     C67279   4.094   4.702   2.419  0.3989 -0.2817 -0.0624
  499MOL0     C67280   3.953   4.699   2.418  0.5454  0.1306  0.0631
  499MOL0     N67281   3.354   4.232   2.641  0.0574 -0.6579 -0.0815
  499MOL0     N67282   3.265   4.138   2.636 -0.7540 -0.4296 -0.2936
  499MOL0     C67283   3.998   3.804   2.078 -0.0291 -0.8587 -0.7245
  499MOL0     C67284   4.090   3.898   2.033  0.6431  0.0477  0.1510
  499MOL0     C67285   4.312   4.214   1.841 -0.6228 -0.9182 -0.8159
  499MOL0     C67286   4.391   4.216   1.958 -0.1389  0.0890  0.1420
  499MOL0     C67287   4.457   4.324   1.995 -0.5889  0.9952 -0.1463
  499MOL0     C67288   4.464   4.434   1.910 -0.9695 -0.1182 -0.0604
  499MOL0     O67289   4.548   4.535   1.954 -0.2353  0.3412 -0.3424
  499MOL0     C67290   4.650   4.590   1.866  0.2905 -0.6947 -0.5541
  499MOL0     C67291   4.786   4.520   1.885  1.0398 -0.5885 -0.1315
  499MOL0     C67292   4.906   4.594   1.818 -0.2329 -0.9616  0.3320
  499MOL0     C67293   5.034   4.535   1.871  0.3716  0.5838  0.2158
  499MOL0     C67294   5.049   4.388   1.877  0.6800 -0.3565  0.2315
  499MOL0     C67295   5.081   4.278   1.903  0.2220 -0.1778 -0.1517
  499MOL0     C67296   4.404   4.432   1.783 -0.3574 -0.1184  0.0149
  499MOL0     C67297   4.314   4.322   1.751 -0.3624 -1.0186  0.0592
  499MOL0     H67298   4.136   3.818   1.714  0.9946 -0.8902  0.5725
  499MOL0     H67299   3.943   3.678   1.760 -2.3889 -1.2074  1.0775
  499MOL0     H67300   3.676   3.558   2.130 -0.8274  2.1330  0.7531
  499MOL0     H67301   3.815   3.604   2.215  1.7666  2.2107 -1.0080
  499MOL0     H67302   3.742   3.848   2.141  0.1862 -0.3879  1.5873
  499MOL0     H67303   3.589   3.763   2.092 -0.4851  0.5469  0.4747
  499MOL0     H67304   3.558   3.676   2.299  2.0406 -0.7448 -0.3346
  499MOL0     H67305   3.719   3.725   2.358  0.8757  0.2217 -1.0488
  499MOL0     H67306   3.651   3.972   2.345  0.3959  0.2937  3.1298
  499MOL0     H67307   3.513   3.917   2.243 -1.7865 -0.1580  0.9636
  499MOL0     H67308   3.515   3.848   2.532  0.9471  0.1584 -0.5649
  499MOL0     H67309   3.476   4.015   2.482  1.0623 -0.7414  1.9482
  499MOL0     H67310   3.347   3.753   2.373 -1.6891  0.3712 -1.0296
  499MOL0     H67311   3.284   3.832   2.520 -0.9957  2.5393  0.0946
  499MOL0     H67312   3.303   4.000   2.278  0.0853  1.0213  1.6066
  499MOL0     H67313   3.172   3.878   2.286  0.3675  1.6757 -1.9241
  499MOL0     H67314   3.110   3.960   2.517 -0.8275 -1.0788 -1.7136
  499MOL0     H67315   3.074   4.064   2.381  0.7546  0.1894 -2.4736
  499MOL0     H67316   3.253   4.247   2.325  0.2737  0.7498  0.0926
  499MOL0     H67317   3.566   4.352   2.532 -0.0909 -0.7656  0.9120
  499MOL0     H67318   3.493   4.415   2.394 -0.2245  2.3019  0.2529
  499MOL0     H67319   3.456   4.511   2.675  1.4737  0.4264 -0.5215
  499MOL0     H67320   3.335   4.544   2.544  0.0924 -0.3380 -1.4270
  499MOL0     H67321   3.476   4.733   2.544 -0.1332 -0.6055  1.4116
  499MOL0     H67322   3.523   4.632   2.403 -2.0334  1.4253 -0.3706
  499MOL0     H67323   3.722   4.544   2.519 -0.1890 -1.1625  1.7353
  499MOL0     H67324   3.685   4.611   2.672  0.9035 -0.6109  0.3752
  499MOL0     H67325   3.911   4.779   2.747 -2.1790 -1.1448 -1.9550
  499MOL0     H67326   4.232   4.889   2.753  2.4519 -1.2832 -2.1107
  499MOL0     H67327   4.111   4.811   2.866  0.5202 -2.2438  0.7777
  499MOL0     H67328   4.242   4.708   2.799 -0.0009 -0.0676 -0.4131
  499MOL0     H67329   4.553   4.709   2.203  2.7968 -0.5033 -0.1986
  499MOL0     H67330   4.772   4.649   2.210  1.4946 -0.5687  0.0472
  499MOL0     H67331   4.976   4.559   2.218 -0.2987  0.4171  0.4765
  499MOL0     H67332   5.000   4.691   2.341  1.3804  0.4947  2.5092
  499MOL0     H67333   5.118   4.411   2.320  2.0229  0.3277 -0.0880
  499MOL0     H67334   5.206   4.545   2.255  2.6283 -1.0065  0.3663
  499MOL0     H67335   5.154   4.512   2.564 -0.8425 -2.4724 -1.7352
  499MOL0     H67336   5.226   4.659   2.491 -1.8099  0.5020  0.1971
  499MOL0     H67337   5.372   4.533   2.596 -0.1952  1.9987  0.0227
  499MOL0     H67338   5.338   4.375   2.509 -0.8461  0.2363 -0.7021
  499MOL0     H67339   5.446   4.627   2.381  1.0201  0.4103 -1.5344
  499MOL0     H67340   5.403   4.484   2.300 -0.9236  2.6278 -0.2093
  499MOL0     H67341   5.596   4.510   2.534 -1.4878  0.8712  0.5426
  499MOL0     H67342   5.551   4.359   2.436 -1.7126 -0.0198 -2.3940
  499MOL0     H67343   5.784   4.502   2.368 -0.2500 -1.9382  0.5747
  499MOL0     H67344   5.678   4.612   2.311  2.1860  0.3423 -0.2675
  499MOL0     H67345   5.746   4.457   2.130 -0.7330 -0.0367  0.2333
  499MOL0     H67346   5.575   4.419   2.170 -0.0773  0.9625 -1.8313
  499MOL0     H67347   4.707   4.440   2.584 -2.0353  0.3738  0.8883
  499MOL0     H67348   4.492   4.506   2.583 -1.4205 -0.2943 -0.7968
  499MOL0     H67349   4.137   4.665   2.327  1.1046  1.5714 -0.5143
  499MOL0     H67350   3.892   4.672   2.332 -3.4512  1.0813  2.3325
  499MOL0     H67351   3.973   3.793   2.183  1.0895 -1.6114 -0.5169
  499MOL0     H67352   4.123   3.964   2.112  1.8279  0.1874 -0.4412
  499MOL0     H67353   4.387   4.131   2.025 -0.7106 -2.3342 -2.7785
  499MOL0     H67354   4.505   4.331   2.092 -1.6456 -0.0093  0.4686
  499MOL0     H67355   4.617   4.590   1.762  0.2984  1.6043 -0.5948
  499MOL0     H67356   4.675   4.692   1.897  0.3993 -0.6924 -0.6467
  499MOL0     H67357   4.779   4.417   1.849  1.1937  0.1399 -2.3608
  499MOL0     H67358   4.812   4.523   1.991 -0.2355  0.0684  0.1913
  499MOL0     H67359   4.907   4.703   1.824  0.2877 -0.6094 -3.7695
  499MOL0     H67360   4.891   4.564   1.714 -0.8172 -1.8864  0.6613
  499MOL0     H67361   5.038   4.568   1.975 -2.0520 -1.1795  0.9712
  499MOL0     H67362   5.110   4.566   1.798 -1.3690  2.4348 -0.9195
  499MOL0     H67363   5.107   4.177   1.926 -0.7342 -0.2102  0.8699
  499MOL0     H67364   4.411   4.520   1.720 -3.8141  0.0939 -0.2470
  499MOL0     H67365   4.268   4.294   1.657  2.5287 -1.4664 -1.3390
  500MOL0     O67366   6.453   6.814   8.690  0.1442 -0.3110 -0.4738
  500MOL0     C67367   6.475   6.696   8.704  0.3362  0.4656 -0.2247
  500MOL0     O67368   6.384   6.601   8.735 -0.3126 -0.4016  0.5183
  500MOL0     C67369   6.253   6.645   8.764  0.0349 -0.4724 -0.3375
  500MOL0     C67370   6.220   6.744   8.856  0.1250 -0.9330 -0.7962
  500MOL0     C67371   6.080   6.768   8.887 -0.6901 -0.8238 -0.1541
  500MOL0     C67372   5.983   6.692   8.833  0.6026  0.1790  0.4794
  500MOL0     O67373   5.845   6.703   8.855  0.2846  0.5108  0.4139
  500MOL0     C67374   5.784   6.815   8.917  0.4461  1.1134 -0.8321
  500MOL0     C67375   5.649   6.768   8.966  0.1818 -1.3986  0.0699
  500MOL0     C67376   5.548   6.740   8.861  0.4042  0.2895 -0.5534
  500MOL0     C67377   5.425   6.681   8.935 -0.1401  0.1470  0.2288
  500MOL0     C67378   5.287   6.689   8.868 -0.5006 -0.1432 -0.5638
  500MOL0     C67379   5.285   6.583   8.757 -0.2765  0.0811  0.3473
  500MOL0     C67380   5.146   6.574   8.696 -0.3303  0.0788 -0.4110
  500MOL0     C67381   5.138   6.488   8.570  0.6002 -0.1695 -0.4691
  500MOL0     N67382   5.032   6.539   8.472  0.3681  0.4980  0.1089
  500MOL0     C67383   4.893   6.534   8.483 -0.1725 -0.3226  0.8264
  500MOL0     C67384   4.851   6.626   8.390 -0.0102  0.2211  0.7993
  500MOL0     C67385   4.704   6.637   8.353  0.1989 -0.1114 -0.6990
  500MOL0     C67386   4.677   6.774   8.281 -0.3834  0.6171  0.4569
  500MOL0     C67387   4.690   6.899   8.381 -0.1040 -0.4843 -0.4994
  500MOL0     C67388   4.555   6.915   8.465 -0.3008 -0.0009  0.5720
  500MOL0     O67389   4.436   6.917   8.385 -0.0455 -0.0513 -0.6217
  500MOL0     C67390   4.313   6.901   8.442 -0.1190  0.3941  0.7919
  500MOL0     C67391   4.206   6.849   8.368 -0.1236 -0.3366  0.2913
  500MOL0     C67392   4.076   6.832   8.421 -0.7424 -0.4015 -0.5912
  500MOL0     C67393   3.976   6.759   8.345 -0.2077  0.7798  0.5981
  500MOL0     C67394   4.055   6.888   8.550  0.5845  0.7615 -0.7360
  500MOL0     C67395   3.924   6.890   8.614 -0.8016 -0.4368  0.4012
  500MOL0     O67396   3.927   6.887   8.756  0.8063  0.8721  0.2922
  500MOL0     C67397   3.824   6.956   8.813 -0.4816  0.2631 -0.2883
  500MOL0     C67398   3.839   7.091   8.855  0.3704 -0.0114 -0.0714
  500MOL0     C67399   3.718   7.145   8.907  0.1732 -0.2322  0.3356
  500MOL0     C67400   3.600   7.072   8.929  0.1477 -1.2212  0.4243
  500MOL0     O67401   3.491   7.131   8.991 -0.0100  0.0180 -0.4117
  500MOL0     C67402   3.429   7.247   8.929  0.3152 -0.2618 -0.0364
  500MOL0     C67403   3.362   7.319   9.043 -0.3391 -0.6954 -0.1899
  500MOL0     C67404   3.291   7.226   9.143  0.7331 -0.0220 -0.5616
  500MOL0     C67405   3.179   7.305   9.223  1.2180 -0.2543 -0.7696
  500MOL0     C67406   3.043   7.229   9.218  0.2030 -0.4792  0.3253
  500MOL0     C67407   2.938   7.308   9.308 -0.7589  0.0554  0.7129
  500MOL0     C67408   2.797   7.257   9.283  0.4842 -0.3561 -0.4258
  500MOL0     C67409   2.744   7.314   9.155 -0.4271  0.8722  1.5831
  500MOL0    Cl67410   2.567   7.288   9.139 -0.3975  0.0684  0.3961
  500MOL0     C67411   3.596   6.937   8.896 -0.5062  0.6447 -0.1449
  500MOL0     C67412   3.708   6.884   8.838 -0.3523 -0.3195  0.5246
  500MOL0     O67413   3.830   6.924   8.542 -0.5375 -0.2352  0.0406
  500MOL0     C67414   4.153   6.954   8.618  0.4390  1.0190 -0.2204
  500MOL0     C67415   4.283   6.961   8.565  0.0776 -0.4441 -0.6655
  500MOL0     N67416   4.968   6.674   8.324 -0.5688  0.5133  1.1427
  500MOL0     N67417   5.076   6.622   8.379  0.3957  0.5563 -0.3604
  500MOL0     C67418   6.022   6.590   8.744 -0.2161 -0.3604 -0.3259
  500MOL0     C67419   6.153   6.562   8.715  0.1470  0.9937  0.5640
  500MOL0     C67420   6.616   6.660   8.692 -0.3325 -0.2515  0.2933
  500MOL0     C67421   6.718   6.747   8.662 -0.0840  1.2861 -0.1620
  500MOL0     C67422   6.851   6.708   8.652  0.1709 -0.5185 -0.1432
  500MOL0     C67423   6.888   6.576   8.656 -0.5021  0.4091 -0.1011
  500MOL0     O67424   7.020   6.543   8.623  0.4977  0.2186  0.2702
  500MOL0     C67425   7.130   6.636   8.639  0.0018 -0.1294 -0.2168
  500MOL0     C67426   7.253   6.554   8.670 -0.5133 -0.1719  0.0335
  500MOL0     C67427   7.246   6.459   8.796 -0.6238 -0.2981  0.1782
  500MOL0     C67428   7.358   6.350   8.813 -0.7017 -0.5482 -0.0091
  500MOL0     C67429   7.484   6.405   8.871 -0.4568 -0.1631 -0.0510
  500MOL0     C67430   7.584   6.436   8.929 -0.6967  0.3866 -0.5142
  500MOL0     C67431   6.783   6.481   8.671 -0.8144  0.1414 -0.4881
  500MOL0     C67432   6.650   6.524   8.675  0.1772 -0.0914  0.0288
  500MOL0     H67433   6.305   6.800   8.894 -0.9285 -0.2884  0.6530
  500MOL0     H67434   6.068   6.849   8.958 -0.7356  0.5364 -1.6628
  500MOL0     H67435   5.837   6.846   9.007  0.0406  1.0999 -0.5863
  500MOL0     H67436   5.775   6.900   8.849  1.5397  0.5079 -1.7791
  500MOL0     H67437   5.659   6.684   9.036 -2.3305  0.5858  3.0640
  500MOL0     H67438   5.603   6.842   9.032 -2.9632 -1.9891 -1.2567
  500MOL0     H67439   5.523   6.830   8.803  0.7014  0.0438 -1.0711
  500MOL0     H67440   5.592   6.670   8.789  1.4800 -1.1890  1.4639
  500MOL0     H67441   5.447   6.575   8.943 -1.2816 -0.0345  1.3180
  500MOL0     H67442   5.421   6.732   9.032 -3.0617  2.2381 -0.8330
  500MOL0     H67443   5.203   6.671   8.936 -0.9985  4.1460  0.2489
  500MOL0     H67444   5.268   6.786   8.820 -0.5637 -1.2310 -2.8688
  500MOL0     H67445   5.351   6.615   8.676  0.9513  0.7397  1.5668
  500MOL0     H67446   5.314   6.483   8.790 -3.4598 -1.3119 -0.6753
  500MOL0     H67447   5.083   6.541   8.779  1.9430  2.0402  2.3180
  500MOL0     H67448   5.116   6.676   8.671 -1.7677  0.1414  1.3860
  500MOL0     H67449   5.106   6.387   8.594  2.4519 -0.5891  0.3990
  500MOL0     H67450   5.239   6.474   8.530  0.9235  1.5391 -0.3547
  500MOL0     H67451   4.835   6.466   8.544 -0.3563 -1.5788 -0.6921
  500MOL0     H67452   4.682   6.557   8.282  0.2980 -0.9598  0.2074
  500MOL0     H67453   4.651   6.627   8.448 -1.7976 -0.2948 -1.8001
  500MOL0     H67454   4.582   6.771   8.226 -0.0189 -0.3277 -0.1389
  500MOL0     H67455   4.767   6.773   8.220 -0.4656  1.3872  0.3176
  500MOL0     H67456   4.697   6.985   8.313 -4.4599  0.7156  0.2834
  500MOL0     H67457   4.780   6.885   8.441  1.1224 -2.0765 -2.5634
  500MOL0     H67458   4.559   7.010   8.519 -4.1709  2.0241 -2.2352
  500MOL0     H67459   4.548   6.829   8.533  0.0442  1.0673  2.0208
  500MOL0     H67460   4.230   6.811   8.269  3.2170  2.0820  0.0081
  500MOL0     H67461   3.926   6.837   8.286  0.9153 -1.5667 -3.9353
  500MOL0     H67462   4.016   6.686   8.274  2.7112  3.0463 -0.3053
  500MOL0     H67463   3.902   6.707   8.406 -1.5286 -1.2711 -2.5213
  500MOL0     H67464   3.934   7.142   8.851  0.2062  0.4309  1.1529
  500MOL0     H67465   3.727   7.245   8.948  2.6398 -0.6750  1.0135
  500MOL0     H67466   3.494   7.306   8.864 -4.6435  2.5593 -3.0520
  500MOL0     H67467   3.349   7.205   8.868  1.3581  0.2776 -1.8601
  500MOL0     H67468   3.440   7.370   9.099 -0.1755 -1.6770  0.5099
  500MOL0     H67469   3.294   7.396   9.005 -1.2792 -2.2962 -1.9350
  500MOL0     H67470   3.366   7.189   9.214  0.1430  0.7044  0.4776
  500MOL0     H67471   3.252   7.139   9.089  0.9363 -1.1519  1.0291
  500MOL0     H67472   3.211   7.318   9.327  0.4298 -3.7227  0.0129
  500MOL0     H67473   3.155   7.399   9.172 -2.0401 -1.2884 -1.4105
  500MOL0     H67474   3.062   7.132   9.265 -1.8429 -0.3003  1.6024
  500MOL0     H67475   3.020   7.198   9.115  0.9444 -4.3953  1.2049
  500MOL0     H67476   2.961   7.292   9.413  0.5086  2.5038  0.8742
  500MOL0     H67477   2.966   7.411   9.285  0.6261 -0.4667 -0.1570
  500MOL0     H67478   2.739   7.292   9.369 -2.0989 -2.2490 -1.2729
  500MOL0     H67479   2.799   7.148   9.289  0.0818 -0.3426  0.0331
  500MOL0     H67480   2.782   7.273   9.061 -1.7906  2.2614  0.3813
  500MOL0     H67481   2.775   7.419   9.157 -0.1781  0.8238  0.7103
  500MOL0     H67482   3.496   6.896   8.904 -1.1850  2.2712  0.0447
  500MOL0     H67483   3.703   6.788   8.788  4.3428  0.2996 -1.7299
  500MOL0     H67484   4.131   7.015   8.705  1.8195  1.4946 -0.1829
  500MOL0     H67485   4.361   7.007   8.625  1.0269 -3.6226  0.7205
  500MOL0     H67486   5.951   6.519   8.704  1.7175 -2.2733 -0.5331
  500MOL0     H67487   6.175   6.476   8.653 -1.8499  0.4884  0.5014
  500MOL0     H67488   6.698   6.853   8.657 -2.9189  0.7913 -1.0073
  500MOL0     H67489   6.923   6.787   8.634 -0.3237 -0.1161 -0.3449
  500MOL0     H67490   7.159   6.682   8.544 -0.2131  3.4140  1.2742
  500MOL0     H67491   7.108   6.717   8.709 -2.5832  0.1068 -1.2007
  500MOL0     H67492   7.341   6.619   8.673  0.0827 -0.8254 -1.6872
  500MOL0     H67493   7.266   6.494   8.579  3.6080  2.8568 -1.7054
  500MOL0     H67494   7.153   6.403   8.785 -1.5869  0.7821  2.1432
  500MOL0     H67495   7.234   6.529   8.879 -1.6138 -1.1816  0.8006
  500MOL0     H67496   7.388   6.305   8.718  1.6780  2.0102 -0.6281
  500MOL0     H67497   7.322   6.273   8.882 -4.1274  2.1743  1.5646
  500MOL0     H67498   7.664   6.465   8.994 -3.2115  0.8611  2.6380
  500MOL0     H67499   6.812   6.377   8.656 -2.3014  0.0899 -4.0997
  500MOL0     H67500   6.573   6.448   8.669 -1.6486  0.8274  5.4987
  501MOL0     O67501   3.305   8.383   3.446 -0.3811  0.8735  0.2202
  501MOL0     C67502   3.383   8.313   3.376  0.9802  0.1612 -0.4880
  501MOL0     O67503   3.337   8.198   3.318  0.0263  1.3120 -0.8317
  501MOL0     C67504   3.207   8.144   3.330 -0.2620  0.0682 -1.0700
  501MOL0     C67505   3.093   8.170   3.253  0.5974 -0.3325  0.7493
  501MOL0     C67506   2.972   8.101   3.271  0.2154 -0.2741  0.2882
  501MOL0     C67507   2.964   8.009   3.382 -0.2522  0.0545  0.5255
  501MOL0     O67508   2.836   7.957   3.408 -0.2838  0.2610 -0.4820
  501MOL0     C67509   2.806   7.886   3.531  0.0640  0.6081 -0.0530
  501MOL0     C67510   2.655   7.848   3.529 -0.6871  0.3017  0.9005
  501MOL0     C67511   2.605   7.824   3.389  0.3259  0.9560  0.0791
  501MOL0     C67512   2.456   7.785   3.388 -0.1471  0.1493 -0.9489
  501MOL0     C67513   2.411   7.701   3.272  0.6838  0.1795  0.4499
  501MOL0     C67514   2.266   7.642   3.299 -0.3993 -0.5668 -0.6514
  501MOL0     C67515   2.202   7.565   3.184  0.6357  0.0540 -0.0074
  501MOL0     C67516   2.061   7.526   3.217 -0.0218  0.0825 -0.3582
  501MOL0     N67517   2.066   7.417   3.315  0.1689  0.0370  0.0966
  501MOL0     C67518   2.090   7.282   3.282  0.2261 -0.0793  0.5351
  501MOL0     C67519   2.043   7.218   3.389  0.8867  0.8429 -0.1017
  501MOL0     C67520   2.044   7.071   3.409 -0.6968  0.1976  0.3741
  501MOL0     C67521   1.922   6.996   3.348  0.4212 -0.8705  0.0093
  501MOL0     C67522   1.963   6.853   3.357 -0.0929 -0.2284  0.3377
  501MOL0     C67523   1.868   6.779   3.273  0.9138  0.7412  0.0990
  501MOL0     O67524   1.946   6.660   3.242  0.4723 -0.3356  0.2861
  501MOL0     C67525   1.875   6.572   3.152 -0.9330 -0.4409 -0.3958
  501MOL0     C67526   1.742   6.550   3.142  0.1770 -0.2825 -0.0305
  501MOL0     C67527   1.686   6.463   3.049 -0.5783 -0.2152  0.5681
  501MOL0     C67528   1.537   6.452   3.057  0.5811  0.1969 -0.0918
  501MOL0     C67529   1.769   6.395   2.952  0.4920 -0.3514 -0.0501
  501MOL0     C67530   1.719   6.298   2.854 -0.5387  0.4801 -0.0770
  501MOL0     O67531   1.811   6.219   2.797  0.6563  0.3859  0.0794
  501MOL0     C67532   1.777   6.173   2.668 -0.1583  0.3313 -0.4348
  501MOL0     C67533   1.813   6.259   2.562  0.0946  0.2755 -0.0763
  501MOL0     C67534   1.784   6.212   2.435  0.3247 -0.2278  0.4103
  501MOL0     C67535   1.707   6.088   2.412  0.5126 -0.3676  0.0328
  501MOL0     O67536   1.682   6.062   2.282  0.4344  0.2661  0.4455
  501MOL0     C67537   1.601   5.951   2.257  0.2772  0.0500  0.1669
  501MOL0     C67538   1.444   5.986   2.276 -0.2994  0.6462 -0.1042
  501MOL0     C67539   1.392   6.101   2.189 -0.1566 -0.0690  0.0091
  501MOL0     C67540   1.240   6.102   2.213  0.3368  0.3476  0.8936
  501MOL0     C67541   1.167   6.000   2.120  0.1855 -0.1782  1.0177
  501MOL0     C67542   1.018   6.011   2.160 -0.1819  0.4273  0.3930
  501MOL0     C67543   0.949   6.139   2.137  0.6873  0.3075  0.7166
  501MOL0     C67544   0.811   6.142   2.200  0.3342 -0.3807  0.0474
  501MOL0    Cl67545   0.692   6.023   2.123 -0.5756  0.2588  0.1997
  501MOL0     C67546   1.671   6.009   2.524  0.3819 -0.2631  0.3717
  501MOL0     C67547   1.710   6.049   2.654 -0.4567 -1.0380  0.6565
  501MOL0     O67548   1.605   6.303   2.824 -0.0234 -1.1334 -0.4461
  501MOL0     C67549   1.909   6.413   2.969 -0.0600 -0.2252  0.0858
  501MOL0     C67550   1.954   6.510   3.060 -0.4315 -0.3263  0.2621
  501MOL0     N67551   2.000   7.314   3.483 -0.0281  1.1385  0.7146
  501MOL0     N67552   2.015   7.433   3.440 -0.4589  0.4687 -0.4706
  501MOL0     C67553   3.072   7.984   3.463 -0.0197  0.8191 -0.4408
  501MOL0     C67554   3.189   8.054   3.440  0.2553 -0.0644  0.2318
  501MOL0     C67555   3.523   8.351   3.358 -0.1321  0.1203 -0.0827
  501MOL0     C67556   3.589   8.294   3.245  0.4781 -0.0829  0.2949
  501MOL0     C67557   3.716   8.338   3.210  0.0459  0.0732  0.2844
  501MOL0     C67558   3.786   8.426   3.281 -0.4887 -0.6450  1.2680
  501MOL0     O67559   3.916   8.455   3.230 -0.3027  0.2024  0.0176
  501MOL0     C67560   3.986   8.565   3.287 -0.0322 -0.2533  0.8284
  501MOL0     C67561   3.924   8.697   3.247  0.6478 -0.2582  0.1088
  501MOL0     C67562   3.926   8.731   3.096 -0.2801 -0.5013  0.7658
  501MOL0     C67563   3.831   8.846   3.054 -0.3513 -0.1282  0.7954
  501MOL0     C67564   3.693   8.805   3.071  0.7915 -0.2362 -0.6706
  501MOL0     C67565   3.585   8.757   3.078 -0.3170  0.3386 -0.9659
  501MOL0     C67566   3.721   8.482   3.391  0.2646  0.0160 -0.3495
  501MOL0     C67567   3.595   8.454   3.424 -0.0349  0.7314  0.1842
  501MOL0     H67568   3.098   8.231   3.164  0.9213  1.2955  1.8308
  501MOL0     H67569   2.889   8.117   3.203 -1.5373  1.8109  2.7359
  501MOL0     H67570   2.859   7.790   3.535 -0.2302  0.4892  3.3512
  501MOL0     H67571   2.835   7.946   3.617  0.8171  2.5308 -1.5753
  501MOL0     H67572   2.642   7.752   3.580 -0.8478  0.3393  0.9307
  501MOL0     H67573   2.608   7.935   3.576  0.4540  2.5583 -1.8118
  501MOL0     H67574   2.620   7.918   3.334  1.0623  1.4694  1.1339
  501MOL0     H67575   2.664   7.750   3.334  3.9343  2.3052  1.8596
  501MOL0     H67576   2.444   7.732   3.483  1.6925  0.0514 -0.7235
  501MOL0     H67577   2.399   7.878   3.392 -2.2962 -1.1428  0.6246
  501MOL0     H67578   2.398   7.768   3.186 -0.6098 -1.3207 -0.5600
  501MOL0     H67579   2.474   7.620   3.237 -0.3399  0.1266 -1.3792
  501MOL0     H67580   2.272   7.568   3.380  0.1926  1.1709  0.9551
  501MOL0     H67581   2.197   7.718   3.336  0.2554 -0.9385  1.5048
  501MOL0     H67582   2.210   7.622   3.091  2.2003  1.1645  0.7727
  501MOL0     H67583   2.260   7.475   3.161 -0.2650 -1.3080  2.6487
  501MOL0     H67584   2.003   7.481   3.135 -1.2724 -2.0906  1.5765
  501MOL0     H67585   2.020   7.620   3.255  0.2306  0.5129 -1.1424
  501MOL0     H67586   2.127   7.242   3.188 -0.5269  1.7986 -0.6227
  501MOL0     H67587   2.131   7.038   3.352 -0.5190 -1.6313  1.5976
  501MOL0     H67588   2.061   7.052   3.515  5.5808 -1.7218 -0.5827
  501MOL0     H67589   1.891   7.025   3.247 -1.0397  0.9881  0.9150
  501MOL0     H67590   1.831   7.015   3.407  1.4917  1.3917  1.0536
  501MOL0     H67591   1.946   6.810   3.457  1.2840 -2.0901 -0.1612
  501MOL0     H67592   2.062   6.846   3.312 -1.9499  0.6468 -4.5524
  501MOL0     H67593   1.848   6.835   3.182 -1.5452  0.5196  0.4505
  501MOL0     H67594   1.777   6.756   3.329  1.7239 -3.3431  0.0306
  501MOL0     H67595   1.675   6.604   3.209 -0.7080 -2.2804  0.7537
  501MOL0     H67596   1.486   6.477   2.964 -1.1271  1.8562  1.2171
  501MOL0     H67597   1.525   6.345   3.077  0.8174  0.1924  0.0319
  501MOL0     H67598   1.485   6.501   3.140  0.2204  0.5924 -0.5463
  501MOL0     H67599   1.866   6.353   2.565 -1.2330  1.0293  2.0232
  501MOL0     H67600   1.814   6.264   2.345 -3.7516 -3.2746 -3.1107
  501MOL0     H67601   1.610   5.931   2.150 -1.5820 -1.6725  0.2759
  501MOL0     H67602   1.635   5.866   2.316  1.5744  1.0110  0.8487
  501MOL0     H67603   1.401   5.890   2.246 -0.6858  0.2972  1.5132
  501MOL0     H67604   1.426   5.998   2.383  2.2465  0.5710  0.4100
  501MOL0     H67605   1.409   6.097   2.081  0.0740 -1.4973  0.0840
  501MOL0     H67606   1.425   6.198   2.228 -0.5053 -0.6501  1.8421
  501MOL0     H67607   1.211   6.088   2.318  1.2516 -0.8030  1.0129
  501MOL0     H67608   1.190   6.197   2.193 -2.8655 -1.2330  0.7513
  501MOL0     H67609   1.215   5.904   2.138  1.3352 -0.0037 -0.9289
  501MOL0     H67610   1.178   6.033   2.016 -1.0794  0.5575  1.0842
  501MOL0     H67611   0.971   5.937   2.097  1.3856 -0.7925  0.5943
  501MOL0     H67612   1.022   5.982   2.266  2.8220  0.2314  0.3124
  501MOL0     H67613   0.945   6.152   2.029  0.3046 -0.7895  0.5854
  501MOL0     H67614   1.009   6.221   2.178  0.8713 -0.5728  2.2907
  501MOL0     H67615   0.768   6.238   2.170  1.1464 -0.2329 -0.6775
  501MOL0     H67616   0.803   6.134   2.309  0.2496 -1.0107 -0.0001
  501MOL0     H67617   1.606   5.921   2.522 -1.0237  0.7284  0.9083
  501MOL0     H67618   1.694   5.991   2.744  2.1441 -1.3289  1.0216
  501MOL0     H67619   1.979   6.364   2.903  2.0768 -0.1541  2.1353
  501MOL0     H67620   2.061   6.528   3.066 -0.2165 -0.9353 -1.2789
  501MOL0     H67621   3.065   7.921   3.551 -0.4245  1.0723 -0.2895
  501MOL0     H67622   3.273   8.036   3.505  1.7226  0.9719 -1.2713
  501MOL0     H67623   3.549   8.221   3.176  0.6853  1.8034 -1.9317
  501MOL0     H67624   3.768   8.303   3.121  1.2197  2.7450 -0.1723
  501MOL0     H67625   3.989   8.561   3.397  1.0482 -0.2956  0.8058
  501MOL0     H67626   4.091   8.563   3.257  0.2798 -2.7765  1.8963
  501MOL0     H67627   3.975   8.777   3.303  1.0611 -1.7596  2.0054
  501MOL0     H67628   3.821   8.717   3.278  0.7925 -0.1750  0.5478
  501MOL0     H67629   3.906   8.641   3.036  3.5581  0.0158 -1.6373
  501MOL0     H67630   4.031   8.758   3.082 -0.3652 -0.6384 -0.1976
  501MOL0     H67631   3.850   8.874   2.950  0.9902  0.2163  1.1141
  501MOL0     H67632   3.859   8.935   3.112  1.3590  1.6896 -2.5111
  501MOL0     H67633   3.484   8.724   3.095 -0.0329 -0.9339 -1.5856
  501MOL0     H67634   3.761   8.567   3.445 -1.0923  0.2052  0.3904
  501MOL0     H67635   3.543   8.513   3.498 -4.9534 -2.4916 -0.2138
  502MOL0     O67636   1.805  11.107   9.765  0.0146 -0.0026 -0.2275
  502MOL0     C67637   1.760  10.994   9.786 -0.4162  0.8658 -0.6685
  502MOL0     O67638   1.649  10.968   9.865  1.0025  0.7102  0.0684
  502MOL0     C67639   1.558  11.066   9.898  0.3187 -0.1007 -0.1901
  502MOL0     C67640   1.588  11.168   9.990  0.3203  0.6371 -0.0837
  502MOL0     C67641   1.493  11.255  10.038 -0.2886  0.7008  0.7678
  502MOL0     C67642   1.365  11.266   9.979 -0.8433  0.4586  1.3999
  502MOL0     O67643   1.266  11.345  10.036 -0.0540 -0.5399 -0.9887
  502MOL0     C67644   1.165  11.282  10.113 -0.6221 -0.5738  1.0063
  502MOL0     C67645   1.078  11.385  10.178  0.3170  0.1417 -1.2677
  502MOL0     C67646   0.946  11.415  10.096  0.0334 -0.4410  0.6353
  502MOL0     C67647   0.888  11.556  10.143 -0.4869  0.4535 -0.2457
  502MOL0     C67648   0.767  11.594  10.054 -0.1157  0.3165  0.2760
  502MOL0     C67649   0.705  11.736  10.092  0.4850 -0.7275  0.7721
  502MOL0     C67650   0.593  11.776   9.995  0.1468 -0.2773  1.4816
  502MOL0     C67651   0.454  11.720  10.035 -0.3924 -0.3253 -0.0339
  502MOL0     N67652   0.401  11.795  10.154  0.0250  0.2713 -0.0755
  502MOL0     C67653   0.373  11.925  10.143  0.1390 -0.3531 -0.3641
  502MOL0     C67654   0.358  11.971  10.270 -0.1660 -0.2827  0.9930
  502MOL0     C67655   0.337  12.116  10.289  1.1083 -0.4466 -0.3544
  502MOL0     C67656   0.187  12.142  10.253 -0.3676  0.4880  0.7079
  502MOL0     C67657   0.157  12.293  10.228  0.9330 -0.0252  0.1788
  502MOL0     C67658   0.007  12.308  10.187 -0.6572  0.0550  0.3186
  502MOL0     O67659  -0.078  12.314  10.306 -0.1240 -0.2013 -0.3465
  502MOL0     C67660  -0.205  12.354  10.277 -0.3542  0.2921 -0.6224
  502MOL0     C67661  -0.240  12.479  10.330 -0.0950 -0.1076 -0.3158
  502MOL0     C67662  -0.366  12.539  10.311  0.6916  0.7878  0.4072
  502MOL0     C67663  -0.397  12.673  10.368  0.1132 -0.4718  0.8570
  502MOL0     C67664  -0.465  12.457  10.235  0.1435 -0.6125  0.7180
  502MOL0     C67665  -0.604  12.485  10.203 -1.3654 -1.2046 -0.3462
  502MOL0     O67666  -0.678  12.395  10.132 -0.0382 -0.2330 -0.2310
  502MOL0     C67667  -0.813  12.412  10.144  0.3140  0.3471 -1.3460
  502MOL0     C67668  -0.877  12.413  10.268 -0.2969  0.4270  0.2576
  502MOL0     C67669  -1.014  12.423  10.281 -0.5362 -0.0579 -0.4886
  502MOL0     C67670  -1.093  12.431  10.172  0.5841 -0.1987  0.4463
  502MOL0     O67671  -1.228  12.447  10.181  0.2858  0.0047  0.1624
  502MOL0     C67672  -1.293  12.357  10.265 -0.3363  0.7527 -0.2416
  502MOL0     C67673  -1.435  12.410  10.279 -0.4389  0.2336 -1.3458
  502MOL0     C67674  -1.514  12.347  10.401  0.7085  1.2136 -0.3030
  502MOL0     C67675  -1.546  12.196  10.393  0.0186  0.1146  0.3541
  502MOL0     C67676  -1.648  12.142  10.490 -0.5398 -0.0521 -0.8153
  502MOL0     C67677  -1.712  12.009  10.464 -0.8119 -0.4170 -0.8408
  502MOL0     C67678  -1.595  11.900  10.457  0.0467 -1.1532  0.5364
  502MOL0     C67679  -1.651  11.759  10.471 -0.1385  1.0070 -0.6829
  502MOL0    Cl67680  -1.519  11.663  10.545  0.3621 -0.0412 -0.0407
  502MOL0     C67681  -1.031  12.438  10.042  0.5824 -0.0623  0.3392
  502MOL0     C67682  -0.888  12.433  10.025  0.2352  0.3095 -0.9827
  502MOL0     O67683  -0.646  12.596  10.242  0.4738  0.2803  0.2757
  502MOL0     C67684  -0.419  12.334  10.184  0.2404 -0.9231 -0.0652
  502MOL0     C67685  -0.287  12.284  10.208 -0.5130 -0.2626 -0.1021
  502MOL0     N67686   0.388  11.866  10.354 -1.1915  0.1163  0.8738
  502MOL0     N67687   0.434  11.771  10.281 -0.0449  0.6100  0.0063
  502MOL0     C67688   1.336  11.184   9.872  0.2003  1.4316 -0.5181
  502MOL0     C67689   1.428  11.083   9.833 -0.6862  0.1145 -0.2586
  502MOL0     C67690   1.843  10.878   9.776  0.5460 -0.9442  1.8565
  502MOL0     C67691   1.797  10.753   9.806  0.1426 -0.0720 -0.5196
  502MOL0     C67692   1.871  10.640   9.785  0.4490  0.4308 -0.1589
  502MOL0     C67693   2.001  10.635   9.731  0.0891 -0.0732 -0.5208
  502MOL0     O67694   2.066  10.513   9.726  0.5726  0.2367 -0.5020
  502MOL0     C67695   2.196  10.507   9.677 -1.0383  1.2192 -0.1965
  502MOL0     C67696   2.258  10.373   9.678  0.1028 -0.0877  0.8469
  502MOL0     C67697   2.356  10.345   9.557  0.3278 -0.1405  0.4880
  502MOL0     C67698   2.443  10.225   9.575 -0.0024  0.1931  0.8529
  502MOL0     C67699   2.535  10.213   9.464  0.5491 -0.3137  0.8468
  502MOL0     C67700   2.616  10.207   9.375 -0.8689 -0.0543 -0.0534
  502MOL0     C67701   2.049  10.762   9.691  0.1760 -0.2540 -0.6899
  502MOL0     C67702   1.970  10.881   9.706 -0.0018  0.1689 -0.8377
  502MOL0     H67703   1.690  11.171  10.029 -0.0065  4.8620  0.9594
  502MOL0     H67704   1.514  11.324  10.119  2.3262  0.5525  0.3008
  502MOL0     H67705   1.114  11.225  10.035 -0.3409  0.1699  0.2637
  502MOL0     H67706   1.221  11.225  10.189  0.9167  0.0471  0.3736
  502MOL0     H67707   1.051  11.346  10.276  1.7723  2.4631  0.1662
  502MOL0     H67708   1.135  11.479  10.189 -0.6117  1.0389 -3.5273
  502MOL0     H67709   0.966  11.421   9.988 -0.8101  0.6207  0.5185
  502MOL0     H67710   0.873  11.335  10.113  1.6735 -2.2492 -0.3514
  502MOL0     H67711   0.855  11.548  10.247 -0.7570  2.2491 -0.1629
  502MOL0     H67712   0.971  11.627  10.142 -0.2879  0.2234  0.1226
  502MOL0     H67713   0.799  11.597   9.949 -1.4293  3.3261 -0.1368
  502MOL0     H67714   0.698  11.510  10.062 -0.2623  0.6120  2.4934
  502MOL0     H67715   0.669  11.735  10.195 -0.9595  0.2937  0.3308
  502MOL0     H67716   0.781  11.815  10.092 -1.3871  1.1933 -0.2349
  502MOL0     H67717   0.605  11.884  10.000 -2.4162  0.1320  0.2017
  502MOL0     H67718   0.622  11.744   9.894  0.7655 -1.3341  1.9649
  502MOL0     H67719   0.455  11.612  10.049 -1.4629 -0.6402 -2.0624
  502MOL0     H67720   0.385  11.735   9.952 -0.6307  0.7328  0.3442
  502MOL0     H67721   0.357  11.991  10.058  1.2465  2.3604  1.3973
  502MOL0     H67722   0.353  12.147  10.393  2.0897 -1.7533 -0.0814
  502MOL0     H67723   0.407  12.180  10.233  1.3913 -1.5333 -1.2700
  502MOL0     H67724   0.122  12.112  10.335 -0.9606  3.6953  1.5491
  502MOL0     H67725   0.156  12.088  10.163  1.6534 -2.5529  1.6612
  502MOL0     H67726   0.225  12.327  10.150  0.7370 -0.5921 -0.2440
  502MOL0     H67727   0.185  12.343  10.321 -0.0120 -3.3455  2.4531
  502MOL0     H67728  -0.029  12.224  10.127 -0.3333 -0.0959  0.3389
  502MOL0     H67729  -0.008  12.392  10.119  1.4816 -0.2458 -0.6058
  502MOL0     H67730  -0.155  12.528  10.378  2.2070 -0.8717 -3.2955
  502MOL0     H67731  -0.309  12.720  10.414 -0.9883  1.1961  1.3566
  502MOL0     H67732  -0.456  12.739  10.304  1.3739  0.1212  0.2782
  502MOL0     H67733  -0.456  12.652  10.458 -0.2826  2.4759  1.4099
  502MOL0     H67734  -0.823  12.380  10.356  0.8342 -1.0467 -0.9325
  502MOL0     H67735  -1.059  12.408  10.378  0.4022 -1.2572 -0.2165
  502MOL0     H67736  -1.294  12.256  10.222 -0.0575 -0.2266  1.9235
  502MOL0     H67737  -1.252  12.358  10.366 -1.9168  5.3607  0.5720
  502MOL0     H67738  -1.428  12.518  10.290  0.7666  0.0729 -0.3482
  502MOL0     H67739  -1.498  12.397  10.190 -1.1149  0.1089 -0.8544
  502MOL0     H67740  -1.616  12.388  10.396  0.2511  0.0543 -1.0024
  502MOL0     H67741  -1.476  12.377  10.499  2.3977  0.6883 -0.7715
  502MOL0     H67742  -1.585  12.182  10.292 -1.4297 -0.1005  0.9081
  502MOL0     H67743  -1.446  12.155  10.409 -0.1305 -1.0732 -1.5141
  502MOL0     H67744  -1.732  12.212  10.490 -1.1222 -0.7371 -1.1604
  502MOL0     H67745  -1.597  12.137  10.586  0.4722  1.8625 -1.1982
  502MOL0     H67746  -1.778  11.982  10.547  0.6508  3.1599  1.7439
  502MOL0     H67747  -1.765  12.005  10.369  1.5377 -0.1027 -2.2360
  502MOL0     H67748  -1.530  11.919  10.543 -0.9112 -0.7410  1.1890
  502MOL0     H67749  -1.539  11.905  10.363 -2.5103 -0.3025 -1.0510
  502MOL0     H67750  -1.666  11.725  10.368  3.1276 -1.0464 -0.6362
  502MOL0     H67751  -1.737  11.753  10.538  0.8245  2.2350  0.7161
  502MOL0     H67752  -1.105  12.449   9.963 -0.4710  0.5839  1.3820
  502MOL0     H67753  -0.831  12.421   9.933  0.2413  0.9266 -1.0660
  502MOL0     H67754  -0.490  12.269  10.134  1.0945 -1.1826 -0.9711
  502MOL0     H67755  -0.259  12.182  10.186 -2.3295 -0.3480 -2.4179
  502MOL0     H67756   1.241  11.177   9.820 -0.9361  2.1198  1.3566
  502MOL0     H67757   1.404  11.027   9.742 -0.1918  3.5586 -2.7023
  502MOL0     H67758   1.700  10.734   9.851  0.1272 -0.1476 -0.5849
  502MOL0     H67759   1.830  10.549   9.828  0.4844 -0.1643 -1.3457
  502MOL0     H67760   2.195  10.543   9.573 -3.2493  0.4259 -0.5116
  502MOL0     H67761   2.266  10.571   9.731  0.0286  1.2194 -1.5204
  502MOL0     H67762   2.170  10.308   9.675 -0.1011  0.1831  0.9433
  502MOL0     H67763   2.300  10.362   9.778 -3.8921 -0.7971  2.6312
  502MOL0     H67764   2.423  10.431   9.541 -0.7904  0.2312 -3.0044
  502MOL0     H67765   2.290  10.324   9.473  1.2238 -1.0112 -0.0155
  502MOL0     H67766   2.388  10.130   9.572 -0.1360  0.2691  0.8662
  502MOL0     H67767   2.495  10.228   9.672  1.0474 -2.5297  0.4541
  502MOL0     H67768   2.693  10.219   9.301 -1.3180 -1.9768 -0.8816
  502MOL0     H67769   2.151  10.783   9.658  0.6398 -2.3101 -0.7118
  502MOL0     H67770   2.004  10.978   9.670 -3.1044  1.8714  0.3958
  503MOL0     O67771   2.416   4.523   2.842  0.0538  0.1447 -1.0401
  503MOL0     C67772   2.496   4.477   2.765  0.0632 -0.0537  0.1553
  503MOL0     O67773   2.491   4.351   2.709 -0.1921 -0.3901 -0.5292
  503MOL0     C67774   2.389   4.260   2.726 -0.1886  0.0751 -0.5684
  503MOL0     C67775   2.372   4.173   2.622  0.2740  0.4006 -0.1493
  503MOL0     C67776   2.272   4.068   2.636 -1.0397  0.0056 -0.0786
  503MOL0     C67777   2.207   4.057   2.750 -0.6065  0.1757  0.5646
  503MOL0     O67778   2.114   3.962   2.757 -0.3061 -0.6768  0.7134
  503MOL0     C67779   2.001   4.007   2.694 -0.4599 -0.2854  0.3303
  503MOL0     C67780   1.936   3.882   2.641  0.8018 -0.1728  1.0297
  503MOL0     C67781   1.792   3.912   2.598 -0.0437  0.0371 -0.7228
  503MOL0     C67782   1.710   3.793   2.551  0.6194  0.0803 -0.0053
  503MOL0     C67783   1.664   3.709   2.673  0.6077  0.4237 -0.4037
  503MOL0     C67784   1.577   3.591   2.624  0.4767  0.3279 -0.2952
  503MOL0     C67785   1.535   3.505   2.746  0.8444 -0.4051 -0.2584
  503MOL0     C67786   1.423   3.411   2.702 -0.4528  0.2325  0.3775
  503MOL0     N67787   1.294   3.471   2.689 -0.0241 -0.1810  0.3012
  503MOL0     C67788   1.223   3.526   2.800  0.0090 -0.2620 -0.4491
  503MOL0     C67789   1.099   3.530   2.751 -0.4141  0.0294 -0.1469
  503MOL0     C67790   0.987   3.600   2.813 -0.1653  0.0957 -0.2938
  503MOL0     C67791   0.910   3.500   2.904 -0.1826 -0.7720  0.1068
  503MOL0     C67792   0.829   3.565   3.013 -0.4740 -0.1385  0.1908
  503MOL0     C67793   0.791   3.467   3.123 -0.1837  0.3804  0.2453
  503MOL0     O67794   0.736   3.346   3.077  0.0388 -0.3809  0.4405
  503MOL0     C67795   0.600   3.339   3.091  0.1329  0.3476 -0.1902
  503MOL0     C67796   0.547   3.312   3.217  0.2479  1.1007  0.2466
  503MOL0     C67797   0.409   3.287   3.238 -0.0205 -0.3798  0.9296
  503MOL0     C67798   0.374   3.266   3.379  0.2449  0.3298  0.2168
  503MOL0     C67799   0.318   3.292   3.132 -0.6896 -0.3356 -0.3629
  503MOL0     C67800   0.172   3.286   3.140  0.1928 -0.1111  0.2462
  503MOL0     O67801   0.103   3.295   3.022  0.2929  0.3189  0.0735
  503MOL0     C67802  -0.024   3.249   3.024  0.0053  0.3864 -0.4893
  503MOL0     C67803  -0.130   3.333   2.987  0.2222 -0.1924  0.3882
  503MOL0     C67804  -0.261   3.278   2.965  0.1144  0.0793 -0.0911
  503MOL0     C67805  -0.288   3.145   2.996 -0.1762  0.0042 -0.1796
  503MOL0     O67806  -0.417   3.095   2.983 -0.1968  0.3990 -0.7315
  503MOL0     C67807  -0.460   2.979   3.065 -0.9441  0.1837 -0.3892
  503MOL0     C67808  -0.607   2.999   3.085 -0.2381  0.1535 -0.1767
  503MOL0     C67809  -0.681   2.881   3.161 -0.8115 -0.3097  0.1065
  503MOL0     C67810  -0.834   2.888   3.169  0.4814 -0.1104 -0.4824
  503MOL0     C67811  -0.907   2.756   3.162  0.0251  0.5001  0.5835
  503MOL0     C67812  -1.067   2.764   3.151 -0.2332 -1.4869 -1.1368
  503MOL0     C67813  -1.127   2.869   3.249 -0.1526 -0.2234 -0.3570
  503MOL0     C67814  -1.278   2.839   3.264 -0.0203  0.1538 -0.3338
  503MOL0    Cl67815  -1.371   2.869   3.106  0.0636 -0.1601 -0.0737
  503MOL0     C67816  -0.179   3.066   3.036  0.7461 -0.2281 -0.0086
  503MOL0     C67817  -0.053   3.117   3.059 -0.1233 -0.0192  0.5234
  503MOL0     O67818   0.116   3.268   3.250 -0.2258  0.2023  0.5507
  503MOL0     C67819   0.373   3.315   3.005  0.2934  0.1285  0.3356
  503MOL0     C67820   0.515   3.328   2.982  0.2771  0.2661  0.0263
  503MOL0     N67821   1.096   3.490   2.614 -0.5661 -0.0980 -0.7061
  503MOL0     N67822   1.212   3.459   2.584 -0.3535 -0.4668  0.1878
  503MOL0     C67823   2.226   4.142   2.856 -0.0773  0.2748 -0.2869
  503MOL0     C67824   2.318   4.233   2.845  0.0792 -0.7424  0.1953
  503MOL0     C67825   2.600   4.580   2.721 -0.3629  0.1871 -0.2885
  503MOL0     C67826   2.621   4.698   2.791  0.5052  0.2285 -0.0797
  503MOL0     C67827   2.717   4.790   2.741 -0.3112  0.0082  0.1227
  503MOL0     C67828   2.792   4.768   2.631 -0.9671 -0.0028 -0.3858
  503MOL0     O67829   2.886   4.843   2.577  0.6730 -0.4645 -0.1947
  503MOL0     C67830   2.878   4.987   2.591  0.0864  0.0474  0.0490
  503MOL0     C67831   2.979   5.063   2.506 -0.1905  0.5594  0.1008
  503MOL0     C67832   3.120   5.070   2.558 -0.5713  0.3394 -0.6527
  503MOL0     C67833   3.170   5.201   2.611 -0.7106 -0.3472 -0.0593
  503MOL0     C67834   3.090   5.247   2.719  0.2360 -0.1060 -0.2577
  503MOL0     C67835   3.018   5.275   2.811  0.1661  0.5810  0.7854
  503MOL0     C67836   2.763   4.656   2.559  0.4833 -0.3500  0.0929
  503MOL0     C67837   2.668   4.563   2.598 -0.0969 -0.5034 -1.0678
  503MOL0     H67838   2.416   4.182   2.523  1.1251  0.9348  0.2717
  503MOL0     H67839   2.248   4.008   2.548 -1.6646  2.6077 -1.7907
  503MOL0     H67840   1.933   4.052   2.767 -0.1611  0.5038  0.1345
  503MOL0     H67841   2.009   4.079   2.612 -1.7824  0.1648  0.5718
  503MOL0     H67842   1.985   3.848   2.549 -2.0498 -1.3371 -0.1716
  503MOL0     H67843   1.946   3.805   2.718  3.5978 -1.6633 -0.6580
  503MOL0     H67844   1.732   3.952   2.681 -2.6624 -1.1179 -1.9427
  503MOL0     H67845   1.792   3.992   2.524 -0.6663 -0.8808 -1.7495
  503MOL0     H67846   1.618   3.832   2.504 -1.0671 -3.1993  0.2778
  503MOL0     H67847   1.765   3.730   2.481  1.9906  0.9658  0.2462
  503MOL0     H67848   1.755   3.678   2.726 -0.9745 -1.6644  1.2796
  503MOL0     H67849   1.610   3.771   2.746 -1.1460 -2.2971  0.7720
  503MOL0     H67850   1.491   3.627   2.567 -0.0109  2.6617  1.7086
  503MOL0     H67851   1.634   3.527   2.557  1.4484 -0.1451  0.9474
  503MOL0     H67852   1.623   3.446   2.773  0.9679 -0.0140  0.2072
  503MOL0     H67853   1.496   3.556   2.835 -1.6157 -1.0897 -0.8585
  503MOL0     H67854   1.424   3.332   2.778  1.0113  0.2768  0.4401
  503MOL0     H67855   1.445   3.379   2.599  1.0954  1.3278  0.3326
  503MOL0     H67856   1.249   3.566   2.898 -1.0940 -0.8305  0.1010
  503MOL0     H67857   1.027   3.686   2.867 -1.2701  0.4693 -0.0480
  503MOL0     H67858   0.925   3.643   2.734 -2.4197  0.7766  1.7451
  503MOL0     H67859   0.982   3.433   2.952  0.7766 -0.2767 -0.6007
  503MOL0     H67860   0.834   3.440   2.854 -1.7478  0.6019  0.7472
  503MOL0     H67861   0.735   3.602   2.971 -0.8186  2.2675  2.7791
  503MOL0     H67862   0.873   3.657   3.052 -2.1719  0.2933  1.1782
  503MOL0     H67863   0.723   3.520   3.191 -0.0463  2.7681 -1.3493
  503MOL0     H67864   0.873   3.433   3.185 -0.1794 -0.9837 -0.4694
  503MOL0     H67865   0.616   3.304   3.300  1.4969 -2.2904 -0.9318
  503MOL0     H67866   0.458   3.267   3.449  0.4458 -1.7987  0.0579
  503MOL0     H67867   0.312   3.351   3.411  2.6720  1.4272  2.2957
  503MOL0     H67868   0.309   3.178   3.384  2.7036 -1.6005 -0.1986
  503MOL0     H67869  -0.126   3.439   2.965 -2.3004  0.1564  1.2626
  503MOL0     H67870  -0.342   3.339   2.924  0.8640  2.1046  1.2734
  503MOL0     H67871  -0.429   2.886   3.016 -1.0972 -1.9938  3.2851
  503MOL0     H67872  -0.405   2.976   3.160 -1.5161 -0.0991 -0.0653
  503MOL0     H67873  -0.612   3.090   3.145  3.5337 -1.5443  3.1333
  503MOL0     H67874  -0.649   3.028   2.988  0.6636  3.5138  0.3028
  503MOL0     H67875  -0.637   2.860   3.259  0.9185  1.4670 -0.2476
  503MOL0     H67876  -0.661   2.784   3.114 -0.7800  0.0982 -0.7371
  503MOL0     H67877  -0.860   2.933   3.265 -1.4817  0.0934 -1.0646
  503MOL0     H67878  -0.880   2.952   3.093 -1.0242 -0.8729 -0.2612
  503MOL0     H67879  -0.891   2.706   3.258  1.8113 -0.7232 -0.3030
  503MOL0     H67880  -0.879   2.694   3.076 -1.4432  0.2399  0.2660
  503MOL0     H67881  -1.099   2.801   3.053 -1.5925  3.1293  0.7621
  503MOL0     H67882  -1.114   2.666   3.164 -0.5334 -1.1869  0.2696
  503MOL0     H67883  -1.114   2.964   3.197  0.7180 -0.5340 -0.7289
  503MOL0     H67884  -1.078   2.871   3.347 -1.3269 -2.0980  0.3228
  503MOL0     H67885  -1.318   2.915   3.333 -0.2523 -0.5535  0.3194
  503MOL0     H67886  -1.310   2.743   3.303 -2.2166  1.6631  1.8783
  503MOL0     H67887  -0.192   2.958   3.037 -1.7486 -0.0336 -1.5777
  503MOL0     H67888   0.025   3.048   3.087  1.9911  2.3385  0.7719
  503MOL0     H67889   0.311   3.316   2.916 -0.4601 -1.9741  0.7771
  503MOL0     H67890   0.552   3.356   2.883  1.6410 -1.1597  0.0891
  503MOL0     H67891   2.176   4.133   2.952 -0.9064 -0.8162 -0.7977
  503MOL0     H67892   2.343   4.297   2.929 -0.6134  0.0753 -0.2072
  503MOL0     H67893   2.565   4.705   2.883  0.0004 -3.9340  0.1170
  503MOL0     H67894   2.731   4.886   2.790  1.6524  1.2311 -2.6154
  503MOL0     H67895   2.780   5.021   2.557 -0.4958 -1.9330 -0.4021
  503MOL0     H67896   2.896   5.016   2.695 -0.5789  2.0376 -0.3569
  503MOL0     H67897   2.950   5.167   2.490 -0.0919  0.2276 -2.6944
  503MOL0     H67898   2.976   5.017   2.407 -0.6636  2.0825 -0.6185
  503MOL0     H67899   3.174   5.037   2.469 -0.5460 -0.8183 -0.2250
  503MOL0     H67900   3.138   4.988   2.628 -2.0637  0.8527  0.3980
  503MOL0     H67901   3.177   5.284   2.540  0.0289  0.1585  0.5862
  503MOL0     H67902   3.272   5.176   2.644  0.0425  0.3684 -1.7381
  503MOL0     H67903   2.949   5.318   2.880 -3.4794  0.2505 -2.2918
  503MOL0     H67904   2.817   4.652   2.465  0.6978  0.4122  0.1730
  503MOL0     H67905   2.652   4.481   2.528 -0.5255  0.5297 -2.2135
  504MOL0     O67906   2.713   9.986   6.508  0.5581  0.1635 -0.8636
  504MOL0     C67907   2.769  10.094   6.470  0.4244 -0.0340 -0.5321
  504MOL0     O67908   2.771  10.209   6.549 -0.8677  0.1149  0.3017
  504MOL0     C67909   2.700  10.203   6.659  0.4758 -0.3521 -0.0734
  504MOL0     C67910   2.760  10.149   6.769  0.6118  0.9832 -1.1359
  504MOL0     C67911   2.689  10.134   6.898  0.5076 -0.0609 -0.0904
  504MOL0     C67912   2.559  10.190   6.902 -0.5234 -0.1284  0.1846
  504MOL0     O67913   2.470  10.185   7.007 -0.3563  0.1641 -0.3679
  504MOL0     C67914   2.507  10.107   7.125  0.0825  0.3762 -0.2660
  504MOL0     C67915   2.369  10.104   7.205 -0.4992  0.0247 -0.1769
  504MOL0     C67916   2.379  10.010   7.330  0.4273 -0.1253 -0.3568
  504MOL0     C67917   2.261  10.052   7.428  0.4164  0.5812  0.2124
  504MOL0     C67918   2.122  10.016   7.373  0.3597 -0.4165 -0.0775
  504MOL0     C67919   2.009   9.996   7.472 -0.2833 -1.2691 -0.1301
  504MOL0     C67920   1.874   9.958   7.414  0.6541  0.6168  0.2235
  504MOL0     C67921   1.859   9.841   7.329  0.2584  0.5856  0.1124
  504MOL0     N67922   1.720   9.793   7.316 -0.3570  1.0350 -0.3035
  504MOL0     C67923   1.635   9.750   7.418 -0.0249  0.0246 -0.2401
  504MOL0     C67924   1.519   9.708   7.355 -1.1140  0.0024 -0.7219
  504MOL0     C67925   1.398   9.653   7.431 -0.2625  0.0322 -0.4313
  504MOL0     C67926   1.274   9.603   7.356 -0.5571  0.2066 -0.3095
  504MOL0     C67927   1.216   9.690   7.248  0.3727  0.2426  0.9576
  504MOL0     C67928   1.073   9.655   7.207 -0.0597 -0.4358 -0.1144
  504MOL0     O67929   0.991   9.723   7.299  0.3528 -0.2715 -0.1704
  504MOL0     C67930   0.861   9.733   7.255 -0.3376  0.6579  0.0056
  504MOL0     C67931   0.820   9.773   7.129 -0.5704 -0.1031 -0.3764
  504MOL0     C67932   0.683   9.771   7.103 -0.3442  1.1419 -0.3486
  504MOL0     C67933   0.664   9.800   6.953 -0.5489 -0.3964 -0.2209
  504MOL0     C67934   0.585   9.735   7.194  0.6058  0.4526  0.2735
  504MOL0     C67935   0.439   9.750   7.172 -0.3206  0.5221  0.3049
  504MOL0     O67936   0.347   9.675   7.247  0.0467 -0.2261 -0.8552
  504MOL0     C67937   0.208   9.692   7.247 -0.1473 -0.0862  0.1320
  504MOL0     C67938   0.138   9.656   7.359 -0.4128 -0.7939 -0.3588
  504MOL0     C67939   0.001   9.685   7.375 -0.6754  0.6197  0.2991
  504MOL0     C67940  -0.071   9.734   7.263 -0.7350 -0.2255 -0.9253
  504MOL0     O67941  -0.204   9.763   7.276  0.0504 -0.1904  0.3620
  504MOL0     C67942  -0.294   9.689   7.188  0.3763  0.5619  0.4532
  504MOL0     C67943  -0.438   9.713   7.233 -0.4649 -0.4635 -0.4282
  504MOL0     C67944  -0.479   9.854   7.237  0.0222  0.0843  0.9857
  504MOL0     C67945  -0.624   9.865   7.286  0.1378  0.7162  0.1257
  504MOL0     C67946  -0.687  10.003   7.274  0.4048 -0.1265  0.3619
  504MOL0     C67947  -0.754  10.026   7.141  0.5834 -0.5218  0.5495
  504MOL0     C67948  -0.855  10.154   7.154 -0.7150 -1.0707 -0.7149
  504MOL0     C67949  -1.009  10.130   7.191 -0.5016  0.1801 -0.4812
  504MOL0    Cl67950  -1.097  10.065   7.058 -0.1919  0.0330  0.7278
  504MOL0     C67951  -0.004   9.749   7.145 -0.2768  0.0557 -0.2864
  504MOL0     C67952   0.132   9.726   7.131  0.1095  0.8234  0.2508
  504MOL0     O67953   0.412   9.848   7.105 -0.7921  0.0929 -0.5488
  504MOL0     C67954   0.632   9.696   7.318 -0.1316  0.0934 -0.0160
  504MOL0     C67955   0.766   9.701   7.348 -0.3664 -0.9197 -0.6316
  504MOL0     N67956   1.528   9.735   7.224 -0.9206  0.5304  0.0091
  504MOL0     N67957   1.640   9.790   7.212 -0.0141 -0.6314 -0.1535
  504MOL0     C67958   2.500  10.256   6.786 -0.0035  0.1105  0.7550
  504MOL0     C67959   2.577  10.268   6.667 -0.3151 -0.0277 -0.0455
  504MOL0     C67960   2.837  10.104   6.343 -0.5770  0.1782 -0.5312
  504MOL0     C67961   2.787  10.035   6.235 -0.2693 -0.1817  0.4542
  504MOL0     C67962   2.855  10.041   6.112 -0.0899  0.1800 -0.0590
  504MOL0     C67963   2.963  10.130   6.099 -0.8272 -0.9325  1.0328
  504MOL0     O67964   3.029  10.136   5.981  0.0694  0.5923  0.0754
  504MOL0     C67965   3.139  10.231   5.955 -0.3353 -0.2150 -0.8912
  504MOL0     C67966   3.150  10.260   5.805  0.4052 -0.0592 -0.2751
  504MOL0     C67967   3.254  10.371   5.769 -0.5265  0.2187  0.7493
  504MOL0     C67968   3.289  10.382   5.617 -0.1946 -0.0583 -0.2696
  504MOL0     C67969   3.197  10.463   5.537 -0.7299 -0.2889 -0.4225
  504MOL0     C67970   3.120  10.536   5.479  0.4389 -0.7868  0.2959
  504MOL0     C67971   3.003  10.209   6.209 -0.7366  0.8858  0.2756
  504MOL0     C67972   2.927  10.204   6.323 -0.3865 -0.6193  0.5371
  504MOL0     H67973   2.863  10.117   6.756  0.3606 -0.4209 -0.0057
  504MOL0     H67974   2.740  10.100   6.988 -2.5916  1.0726  2.3002
  504MOL0     H67975   2.538  10.005   7.103  0.2994  0.7772 -2.0510
  504MOL0     H67976   2.584  10.156   7.184 -0.3822  0.2492  0.4536
  504MOL0     H67977   2.344  10.202   7.248  1.0757 -0.4746  2.0991
  504MOL0     H67978   2.289  10.062   7.143 -0.3572 -2.1485  1.0110
  504MOL0     H67979   2.375   9.903   7.306  0.2289 -0.3736  0.7239
  504MOL0     H67980   2.478  10.014   7.377 -0.7680 -1.4369  2.5009
  504MOL0     H67981   2.287  10.000   7.520  0.9594 -1.3813 -0.9869
  504MOL0     H67982   2.264  10.160   7.447  0.7830  0.8428 -1.1403
  504MOL0     H67983   2.104  10.094   7.298  0.7511 -0.1762  0.0737
  504MOL0     H67984   2.130   9.921   7.318  2.0095 -0.7845  0.7353
  504MOL0     H67985   2.025   9.916   7.545 -1.1797  0.0989  1.6493
  504MOL0     H67986   2.004  10.087   7.533  0.0984 -2.0117  1.0347
  504MOL0     H67987   1.811   9.930   7.499  1.3263  2.5300  1.4188
  504MOL0     H67988   1.828  10.045   7.365  1.7408  1.8854  1.3619
  504MOL0     H67989   1.921   9.759   7.366  0.0027  0.5995  0.5822
  504MOL0     H67990   1.900   9.855   7.229 -2.6432 -0.7495 -1.3775
  504MOL0     H67991   1.662   9.750   7.523  1.0412  2.5516 -0.4341
  504MOL0     H67992   1.429   9.569   7.495  4.1335  1.4434 -0.3581
  504MOL0     H67993   1.364   9.737   7.492 -1.1985 -2.5480  2.9469
  504MOL0     H67994   1.200   9.585   7.436 -0.3862  0.5793 -0.0686
  504MOL0     H67995   1.298   9.506   7.311  2.1514  1.4147 -1.6650
  504MOL0     H67996   1.284   9.695   7.162  0.7126  0.5501  1.2445
  504MOL0     H67997   1.214   9.794   7.282  2.2150  0.5505  0.2824
  504MOL0     H67998   1.046   9.549   7.205  0.7082 -0.7118  1.7471
  504MOL0     H67999   1.060   9.699   7.108  0.4117  1.5243  0.6411
  504MOL0     H68000   0.889   9.811   7.054  2.2308 -0.6973  1.7356
  504MOL0     H68001   0.604   9.723   6.905  0.2271  0.4888 -2.7393
  504MOL0     H68002   0.621   9.899   6.936  0.9826 -0.1419 -3.1291
  504MOL0     H68003   0.753   9.799   6.890 -0.0986 -0.6880  0.4123
  504MOL0     H68004   0.203   9.629   7.442 -0.1864 -0.7036 -0.5050
  504MOL0     H68005  -0.037   9.673   7.476 -0.8242  1.9840  0.4166
  504MOL0     H68006  -0.275   9.721   7.085  0.7170  2.5091  1.0812
  504MOL0     H68007  -0.273   9.582   7.192  0.0148  0.3917 -1.2866
  504MOL0     H68008  -0.506   9.663   7.164  0.9044 -1.6551 -0.9717
  504MOL0     H68009  -0.462   9.664   7.327 -0.1301 -0.6662 -0.4451
  504MOL0     H68010  -0.468   9.900   7.138 -0.8872  1.5807  1.5555
  504MOL0     H68011  -0.415   9.915   7.302 -0.9070  1.0277  1.0254
  504MOL0     H68012  -0.675   9.794   7.220  1.8145  2.1189 -2.8738
  504MOL0     H68013  -0.632   9.819   7.385 -0.4469 -4.0620 -1.8540
  504MOL0     H68014  -0.626  10.085   7.315 -0.4557  0.8815 -0.3345
  504MOL0     H68015  -0.762  10.005   7.353  0.9299  2.0436  0.8588
  504MOL0     H68016  -0.687  10.051   7.058 -1.1711  0.3896 -0.6627
  504MOL0     H68017  -0.807   9.935   7.110 -2.4808  1.3361 -0.0808
  504MOL0     H68018  -0.853  10.201   7.055 -0.0199 -3.0402 -1.6923
  504MOL0     H68019  -0.815  10.218   7.233 -0.1277 -0.1641 -1.7036
  504MOL0     H68020  -1.033  10.228   7.233  2.6404  0.6947  0.3552
  504MOL0     H68021  -1.013  10.053   7.269  0.0788  1.2567  0.6417
  504MOL0     H68022  -0.066   9.771   7.058 -1.2994  4.1502  1.2314
  504MOL0     H68023   0.179   9.723   7.033  0.7236 -0.0776  0.5519
  504MOL0     H68024   0.568   9.695   7.406  0.9188  2.0111  0.8214
  504MOL0     H68025   0.789   9.680   7.452 -1.6559  3.1620  0.6866
  504MOL0     H68026   2.398  10.293   6.787 -0.8157 -1.8667 -0.8656
  504MOL0     H68027   2.532  10.317   6.581 -4.4106  0.0920  1.9635
  504MOL0     H68028   2.701   9.970   6.249 -0.7484  0.5821  1.1587
  504MOL0     H68029   2.811   9.975   6.038  0.9201 -0.0974 -0.4329
  504MOL0     H68030   3.122  10.323   6.012 -4.7560 -0.9333 -0.6544
  504MOL0     H68031   3.228  10.186   5.999  0.8740  2.2571 -0.6222
  504MOL0     H68032   3.052  10.302   5.777 -1.3775 -1.4075  3.2600
  504MOL0     H68033   3.163  10.162   5.760 -1.2235 -0.6211  0.3807
  504MOL0     H68034   3.346  10.333   5.814 -0.3462 -2.7437 -1.7828
  504MOL0     H68035   3.224  10.467   5.813  0.9210  1.2815 -0.4504
  504MOL0     H68036   3.283  10.283   5.572 -3.5384  0.1730 -0.5461
  504MOL0     H68037   3.392  10.411   5.591 -0.3261 -0.6613 -1.5327
  504MOL0     H68038   3.060  10.597   5.415  0.1668 -1.4450 -0.0823
  504MOL0     H68039   3.085  10.281   6.208  0.1192 -0.0537 -0.7676
  504MOL0     H68040   2.955  10.270   6.404 -0.4077 -2.7847  2.4023
  505MOL0     O68041   3.713   5.774   7.451 -0.4411 -0.6918 -0.5665
  505MOL0     C68042   3.651   5.685   7.403  0.5374  0.3821  0.7135
  505MOL0     O68043   3.703   5.578   7.333 -0.3490  0.0907  0.1000
  505MOL0     C68044   3.838   5.574   7.312 -0.4177 -0.7063 -0.2687
  505MOL0     C68045   3.916   5.484   7.382 -1.6301 -0.6010 -0.5600
  505MOL0     C68046   4.055   5.472   7.362 -0.4184 -0.2063  0.1068
  505MOL0     C68047   4.119   5.556   7.260  0.3591  0.4080  0.6290
  505MOL0     O68048   4.253   5.552   7.245  0.6889  0.7870 -0.0399
  505MOL0     C68049   4.312   5.598   7.121  0.4312 -0.4076  0.6738
  505MOL0     C68050   4.450   5.528   7.102 -0.3066  0.0208  0.4592
  505MOL0     C68051   4.555   5.643   7.110 -0.1476 -0.1645  0.5334
  505MOL0     C68052   4.693   5.598   7.071 -0.0915 -0.1567 -0.9613
  505MOL0     C68053   4.708   5.617   6.919 -0.5457  0.0732 -0.2891
  505MOL0     C68054   4.833   5.553   6.860  0.1301  1.6189  0.2743
  505MOL0     C68055   4.819   5.393   6.851 -0.2210  0.3396 -0.4232
  505MOL0     C68056   4.965   5.330   6.852 -0.8487 -0.4109  0.3335
  505MOL0     N68057   4.959   5.187   6.848 -0.2557 -0.0156 -0.1171
  505MOL0     C68058   4.930   5.120   6.735  0.2671  0.0342  0.0644
  505MOL0     C68059   4.909   4.994   6.783 -0.3473 -0.2067 -1.0301
  505MOL0     C68060   4.869   4.888   6.685 -0.1846  0.2969  0.0949
  505MOL0     C68061   4.731   4.812   6.717  0.5821 -0.5248  0.8844
  505MOL0     C68062   4.620   4.913   6.695 -0.3298 -0.1324  0.2494
  505MOL0     C68063   4.487   4.827   6.723  0.1216 -0.6462  0.1681
  505MOL0     O68064   4.375   4.911   6.692  0.4526  0.8787  0.6433
  505MOL0     C68065   4.250   4.872   6.719  0.5882 -0.6917 -0.3971
  505MOL0     C68066   4.215   4.737   6.738  0.0875  0.6129  0.7315
  505MOL0     C68067   4.086   4.700   6.770 -0.3062  0.1408  0.0212
  505MOL0     C68068   4.044   4.559   6.772 -0.9406  0.2597 -0.2761
  505MOL0     C68069   3.987   4.805   6.767  0.6915  0.4606 -0.2127
  505MOL0     C68070   3.844   4.788   6.827  0.3003  0.1277 -0.1165
  505MOL0     O68071   3.747   4.877   6.790  0.4178  0.1896  0.7280
  505MOL0     C68072   3.610   4.848   6.787  0.1348 -0.6749 -0.6254
  505MOL0     C68073   3.549   4.721   6.786 -0.4824  0.0257  0.2120
  505MOL0     C68074   3.409   4.700   6.797  1.3101  0.8938 -0.0007
  505MOL0     C68075   3.320   4.811   6.799  0.1784  0.8116 -0.4584
  505MOL0     O68076   3.178   4.808   6.802  0.2851  0.1422  0.7078
  505MOL0     C68077   3.110   4.680   6.837  0.2807  0.2289  1.1661
  505MOL0     C68078   2.957   4.711   6.854 -0.5181 -0.2168  0.1772
  505MOL0     C68079   2.908   4.817   6.748  0.1330 -0.8339  0.1197
  505MOL0     C68080   2.751   4.813   6.759  0.4892 -0.6777  0.7466
  505MOL0     C68081   2.674   4.909   6.653 -0.1368 -0.1936 -0.1697
  505MOL0     C68082   2.713   5.057   6.677  0.0826  0.2817  0.1275
  505MOL0     C68083   2.699   5.116   6.820  0.9287  0.0859  0.4697
  505MOL0     C68084   2.746   5.254   6.809 -0.7279 -0.5445  0.7609
  505MOL0    Cl68085   2.614   5.349   6.745  0.3513  0.3914  0.1546
  505MOL0     C68086   3.385   4.932   6.799  0.5698  0.3417  0.1752
  505MOL0     C68087   3.516   4.958   6.791  0.0615  0.3209  0.6110
  505MOL0     O68088   3.828   4.690   6.902 -0.3233  0.0101  0.7951
  505MOL0     C68089   4.021   4.940   6.742  0.1482 -0.3272  0.1388
  505MOL0     C68090   4.157   4.972   6.718  0.2500  0.3114 -0.1742
  505MOL0     N68091   4.912   4.990   6.926  0.5430  1.3727  0.9148
  505MOL0     N68092   4.947   5.108   6.954 -0.0742 -0.3286 -0.0046
  505MOL0     C68093   4.031   5.634   7.182  0.3536  1.0092  0.4013
  505MOL0     C68094   3.895   5.650   7.215  0.3076  0.9042  0.4482
  505MOL0     C68095   3.506   5.689   7.422  0.2424  0.1614 -0.6584
  505MOL0     C68096   3.435   5.803   7.469  0.0467  0.4310 -1.1930
  505MOL0     C68097   3.298   5.790   7.500 -0.0470 -0.0819 -0.0923
  505MOL0     C68098   3.225   5.666   7.508 -0.1554  0.3215  0.0713
  505MOL0     O68099   3.102   5.677   7.568  0.5282  0.3537 -0.5528
  505MOL0     C68100   3.049   5.553   7.632  0.8000 -0.8105 -0.2456
  505MOL0     C68101   2.943   5.576   7.747  0.7618  0.0300  0.2066
  505MOL0     C68102   2.833   5.676   7.701 -0.0416  0.3582  0.1494
  505MOL0     C68103   2.729   5.700   7.812  0.0990 -0.8172 -0.3911
  505MOL0     C68104   2.785   5.758   7.934  1.5221  0.0667 -1.1483
  505MOL0     C68105   2.837   5.821   8.025  0.4052  0.0703  0.5062
  505MOL0     C68106   3.295   5.553   7.464 -0.3844  0.4885 -0.1689
  505MOL0     C68107   3.430   5.562   7.418 -0.0185 -0.1165 -0.8616
  505MOL0     H68108   3.867   5.424   7.458 -1.7426  2.3130  1.8926
  505MOL0     H68109   4.130   5.414   7.415  0.8901  1.9312  0.7164
  505MOL0     H68110   4.245   5.576   7.037 -2.3264  0.6977  2.4182
  505MOL0     H68111   4.327   5.707   7.116  0.4122 -0.3665  1.4309
  505MOL0     H68112   4.473   5.441   7.164 -1.2025  1.1862  2.5497
  505MOL0     H68113   4.463   5.478   7.006  0.3762 -1.9124  1.5119
  505MOL0     H68114   4.527   5.729   7.048  1.4650 -0.1443 -0.2188
  505MOL0     H68115   4.560   5.674   7.215  2.3050  0.7187  0.2321
  505MOL0     H68116   4.761   5.657   7.134 -3.9484 -1.9751  5.8942
  505MOL0     H68117   4.714   5.495   7.103  3.7268  0.7460 -0.0368
  505MOL0     H68118   4.616   5.575   6.876 -1.2056 -0.7422  1.8035
  505MOL0     H68119   4.706   5.724   6.897 -0.4167 -0.1763 -1.5973
  505MOL0     H68120   4.848   5.582   6.755 -2.4146 -4.3702 -2.2435
  505MOL0     H68121   4.915   5.590   6.922 -0.3996  2.3095  0.5686
  505MOL0     H68122   4.762   5.350   6.935 -1.7088 -0.3048 -1.6971
  505MOL0     H68123   4.762   5.374   6.759 -1.4270  2.2277 -0.1112
  505MOL0     H68124   5.004   5.367   6.947  0.3901  3.1868 -1.3931
  505MOL0     H68125   5.044   5.374   6.791 -0.1377 -0.1082  1.4293
  505MOL0     H68126   4.933   5.151   6.631  1.8236 -2.4042 -0.7216
  505MOL0     H68127   4.872   4.940   6.589 -0.2131  1.5715  0.7670
  505MOL0     H68128   4.949   4.816   6.668 -0.9309 -0.1622 -1.7119
  505MOL0     H68129   4.728   4.772   6.819  0.9662  1.7581  1.8642
  505MOL0     H68130   4.721   4.727   6.650  0.5310 -0.2958  0.6011
  505MOL0     H68131   4.607   4.953   6.594 -2.3976 -1.3480 -0.0242
  505MOL0     H68132   4.634   5.001   6.759 -0.3070  0.5334 -0.6615
  505MOL0     H68133   4.483   4.783   6.823  1.6203 -2.2879 -0.4271
  505MOL0     H68134   4.505   4.741   6.657  1.9774  1.3343 -2.1346
  505MOL0     H68135   4.293   4.664   6.722  0.1836  0.8725 -0.0324
  505MOL0     H68136   3.963   4.537   6.702 -1.4148 -0.1147  0.3820
  505MOL0     H68137   4.134   4.500   6.750  0.7749  2.5707  0.0835
  505MOL0     H68138   4.018   4.545   6.877  2.0940  0.8021  0.6558
  505MOL0     H68139   3.613   4.636   6.809 -0.5860 -0.5575 -1.4906
  505MOL0     H68140   3.363   4.604   6.814  0.5094  0.2342 -4.5416
  505MOL0     H68141   3.105   4.612   6.751 -0.2183  0.2812  1.1504
  505MOL0     H68142   3.145   4.633   6.929 -1.2134 -1.4804  0.9307
  505MOL0     H68143   2.894   4.625   6.830 -1.1644 -0.0588  1.2738
  505MOL0     H68144   2.943   4.741   6.958 -1.1959 -0.0136  0.0303
  505MOL0     H68145   2.930   4.800   6.642  2.2851 -0.3828  0.4446
  505MOL0     H68146   2.932   4.918   6.781  0.0856 -1.3215  1.6989
  505MOL0     H68147   2.722   4.708   6.745 -1.5925 -0.4077  2.4096
  505MOL0     H68148   2.723   4.833   6.863  2.2713  2.8660  0.6791
  505MOL0     H68149   2.566   4.902   6.660 -0.3702  1.9046 -1.0387
  505MOL0     H68150   2.706   4.867   6.557 -1.9618 -1.7981 -0.1226
  505MOL0     H68151   2.819   5.062   6.649  0.2613  2.3697  1.0201
  505MOL0     H68152   2.646   5.124   6.624 -1.6421  0.1954  2.0768
  505MOL0     H68153   2.769   5.061   6.884  2.5401 -0.3263 -1.5206
  505MOL0     H68154   2.595   5.106   6.854  0.4444 -2.1466 -1.4151
  505MOL0     H68155   2.832   5.263   6.742 -1.0012  1.2251  0.5764
  505MOL0     H68156   2.775   5.307   6.901 -1.4548  2.9236 -0.8320
  505MOL0     H68157   3.320   5.019   6.800  0.3132  0.1872 -1.2567
  505MOL0     H68158   3.556   5.057   6.771  4.6060 -1.8906 -3.1353
  505MOL0     H68159   3.956   5.026   6.744  0.2622 -0.2450  0.4780
  505MOL0     H68160   4.205   5.066   6.697 -1.5255  0.8722 -2.0944
  505MOL0     H68161   4.068   5.692   7.098 -0.8209  0.4624 -0.5113
  505MOL0     H68162   3.847   5.723   7.150  2.3199  2.8884  1.0724
  505MOL0     H68163   3.473   5.904   7.473  1.2364  0.0169 -1.4742
  505MOL0     H68164   3.248   5.882   7.530  0.8301  0.5255 -0.4699
  505MOL0     H68165   2.999   5.492   7.557 -0.7745 -1.1553  1.0314
  505MOL0     H68166   3.138   5.499   7.667 -0.3444 -1.3657  2.0098
  505MOL0     H68167   2.986   5.622   7.836  0.4502  2.3775 -0.7865
  505MOL0     H68168   2.902   5.478   7.776  2.4718 -1.9713 -3.3748
  505MOL0     H68169   2.786   5.633   7.612  3.7063  1.3318 -2.5031
  505MOL0     H68170   2.890   5.763   7.669  2.7264  0.0750  3.7276
  505MOL0     H68171   2.670   5.611   7.836  1.6142 -1.6300  0.5011
  505MOL0     H68172   2.658   5.772   7.771 -0.0934 -0.0621  1.1692
  505MOL0     H68173   2.881   5.874   8.107  1.4486 -1.1652  0.7773
  505MOL0     H68174   3.245   5.457   7.455 -2.0075  1.4538 -2.9268
  505MOL0     H68175   3.474   5.473   7.375  1.5283 -0.8550  1.9961
  506MOL0     O68176   0.379   8.412   8.600 -0.3881  0.2102  0.2826
  506MOL0     C68177   0.323   8.411   8.713  0.0515  0.1999 -0.1506
  506MOL0     O68178   0.381   8.426   8.842  0.2829  0.0901  0.9564
  506MOL0     C68179   0.505   8.473   8.840 -0.6379 -0.2298  0.0018
  506MOL0     C68180   0.590   8.436   8.950  0.2174 -0.2434 -0.5086
  506MOL0     C68181   0.722   8.476   8.958  0.2439  0.3368  0.0299
  506MOL0     C68182   0.778   8.550   8.856  0.0030  0.9253  0.6362
  506MOL0     O68183   0.917   8.569   8.854  0.1925 -0.0774 -0.2126
  506MOL0     C68184   1.000   8.545   8.975 -0.4545  0.0233  0.0124
  506MOL0     C68185   1.129   8.624   8.984 -0.3822  0.6073 -0.4186
  506MOL0     C68186   1.224   8.564   8.882 -0.1197  0.4335 -0.5849
  506MOL0     C68187   1.346   8.654   8.853 -0.5753  0.0462  0.0987
  506MOL0     C68188   1.428   8.632   8.732 -0.3908 -0.7604  0.0495
  506MOL0     C68189   1.521   8.753   8.692  0.0316  0.1783 -0.2810
  506MOL0     C68190   1.519   8.794   8.544  0.6817  0.1137  0.8454
  506MOL0     C68191   1.602   8.928   8.519  0.8501 -0.0502 -0.4744
  506MOL0     N68192   1.600   8.946   8.379  0.0611  0.0269  0.7856
  506MOL0     C68193   1.488   8.946   8.303  0.0140  0.1799  0.7242
  506MOL0     C68194   1.529   8.945   8.176  1.2530 -0.6174 -0.9559
  506MOL0     C68195   1.427   8.963   8.054  0.1399 -0.0685  0.0614
  506MOL0     C68196   1.373   9.100   8.035 -1.2737 -1.2174  0.2637
  506MOL0     C68197   1.251   9.126   7.937 -0.2722 -1.0072  0.2604
  506MOL0     C68198   1.134   9.086   8.011  0.8683  0.0685  0.5480
  506MOL0     O68199   1.089   8.961   7.954 -0.5744 -0.1690 -0.3711
  506MOL0     C68200   0.951   8.947   7.934 -0.9072  0.5049  0.2461
  506MOL0     C68201   0.902   8.997   7.817  0.5015  0.3134  0.4123
  506MOL0     C68202   0.767   8.965   7.775  0.4369 -0.1585 -1.0707
  506MOL0     C68203   0.727   9.029   7.640  0.2892  1.2875 -1.7705
  506MOL0     C68204   0.680   8.899   7.867 -0.7140  0.2791 -0.1666
  506MOL0     C68205   0.532   8.875   7.845 -0.1974  0.0693 -0.0482
  506MOL0     O68206   0.455   8.806   7.940  0.6094  0.3646  0.5092
  506MOL0     C68207   0.320   8.825   7.923 -0.5777 -1.2238 -0.1472
  506MOL0     C68208   0.231   8.720   7.911  0.4794  0.3088 -0.3160
  506MOL0     C68209   0.091   8.742   7.897 -1.1514  0.2647 -0.1480
  506MOL0     C68210   0.039   8.868   7.907  0.0512 -0.6992 -0.0106
  506MOL0     O68211  -0.096   8.873   7.916  0.3796 -0.8250 -0.0839
  506MOL0     C68212  -0.169   8.993   7.916  0.1726 -0.0768  0.2472
  506MOL0     C68213  -0.318   8.952   7.909  0.6381  0.0187  0.1952
  506MOL0     C68214  -0.403   9.064   7.855 -0.2178  0.0402  0.3187
  506MOL0     C68215  -0.389   9.192   7.946  0.1290 -0.2869  0.8882
  506MOL0     C68216  -0.525   9.272   7.946 -0.4676 -0.3809  0.2943
  506MOL0     C68217  -0.507   9.410   8.014  0.6347  0.8095  0.1058
  506MOL0     C68218  -0.441   9.501   7.916  0.2359 -0.3470 -0.0287
  506MOL0     C68219  -0.438   9.637   7.978 -0.1990 -0.8152 -0.4271
  506MOL0    Cl68220  -0.278   9.679   8.055  0.4740  0.0743 -0.3083
  506MOL0     C68221   0.126   8.979   7.928  0.1449  0.0407 -0.5644
  506MOL0     C68222   0.267   8.955   7.929 -0.0077  0.0150  0.4714
  506MOL0     O68223   0.484   8.929   7.740 -0.5073  0.1226 -0.1812
  506MOL0     C68224   0.739   8.846   7.983 -0.1503  0.3451 -0.6124
  506MOL0     C68225   0.873   8.872   8.022 -0.0300 -0.0858  0.1022
  506MOL0     N68226   1.670   8.941   8.180 -0.1376 -0.2064  0.4450
  506MOL0     N68227   1.715   8.951   8.299 -0.1369 -0.2774  0.4511
  506MOL0     C68228   0.700   8.590   8.749  0.6626 -1.8598  0.2629
  506MOL0     C68229   0.555   8.563   8.743 -0.0951 -1.0278 -0.0475
  506MOL0     C68230   0.173   8.391   8.717 -0.7333  0.9958 -0.6883
  506MOL0     C68231   0.111   8.381   8.850  0.0294  0.0365 -0.1807
  506MOL0     C68232  -0.027   8.379   8.864  0.6986  0.1047  0.8628
  506MOL0     C68233  -0.115   8.383   8.750 -0.4517 -0.1805  0.5100
  506MOL0     O68234  -0.246   8.372   8.755 -0.2956 -0.3302  0.0879
  506MOL0     C68235  -0.299   8.468   8.847  1.1518 -0.2403 -0.4954
  506MOL0     C68236  -0.439   8.494   8.801 -0.7426  0.7585  0.6206
  506MOL0     C68237  -0.465   8.557   8.662 -0.7520 -0.0285 -0.3728
  506MOL0     C68238  -0.607   8.601   8.640  0.0516 -0.0598  0.3533
  506MOL0     C68239  -0.694   8.479   8.644 -1.3943 -0.3390 -0.1407
  506MOL0     C68240  -0.744   8.366   8.668  0.5105 -0.6944 -0.5941
  506MOL0     C68241  -0.049   8.389   8.627 -0.4660 -0.4005  0.0348
  506MOL0     C68242   0.092   8.390   8.611  0.0433  0.2982 -0.0688
  506MOL0     H68243   0.547   8.386   9.036 -0.4882  3.0951  1.2320
  506MOL0     H68244   0.779   8.444   9.045  0.5749  2.2626  0.5757
  506MOL0     H68245   0.939   8.588   9.055 -2.6505 -0.5814 -1.2607
  506MOL0     H68246   1.020   8.438   8.985 -0.0279  0.0872 -0.1502
  506MOL0     H68247   1.108   8.728   8.961 -0.6381  0.5559 -0.4157
  506MOL0     H68248   1.160   8.612   9.088  0.7433  3.7484 -0.3072
  506MOL0     H68249   1.266   8.470   8.919  0.7087  1.2274  0.5538
  506MOL0     H68250   1.170   8.532   8.793 -1.1460 -3.1388  1.1084
  506MOL0     H68251   1.307   8.756   8.845 -1.9358 -0.3453  1.2815
  506MOL0     H68252   1.413   8.648   8.939  0.7231  1.7924 -0.7343
  506MOL0     H68253   1.484   8.538   8.734 -0.7055 -1.0273 -1.7561
  506MOL0     H68254   1.366   8.624   8.642 -0.8685 -0.8275  0.3834
  506MOL0     H68255   1.482   8.835   8.753  0.2953  0.0481  0.0722
  506MOL0     H68256   1.627   8.729   8.706  0.0731  0.5639  0.0933
  506MOL0     H68257   1.554   8.708   8.487 -0.9310 -1.1107  1.6319
  506MOL0     H68258   1.415   8.802   8.512  0.8888 -1.9411 -0.5007
  506MOL0     H68259   1.706   8.914   8.549  0.6846 -2.7991 -0.9670
  506MOL0     H68260   1.553   9.010   8.573 -0.1178 -2.0455  1.8547
  506MOL0     H68261   1.388   8.954   8.343 -0.3496  1.2405 -0.3296
  506MOL0     H68262   1.475   8.919   7.966 -0.4574  2.0875 -1.4341
  506MOL0     H68263   1.341   8.898   8.075  0.4694  0.0594  2.0537
  506MOL0     H68264   1.450   9.161   7.987 -1.9962  0.3018  0.9467
  506MOL0     H68265   1.361   9.146   8.134  3.8973 -0.0176  0.6174
  506MOL0     H68266   1.250   9.066   7.846 -3.9136  0.7957 -1.0927
  506MOL0     H68267   1.247   9.231   7.904 -3.0357 -0.7896  1.0670
  506MOL0     H68268   1.062   9.168   8.004  1.2657  0.5715  2.0046
  506MOL0     H68269   1.154   9.058   8.115  1.9834 -0.6333  0.1709
  506MOL0     H68270   0.966   9.051   7.747 -0.9892  2.4466  0.6001
  506MOL0     H68271   0.659   8.967   7.581  0.7402  1.7557 -2.8054
  506MOL0     H68272   0.675   9.122   7.661 -1.7738 -0.3379  0.9463
  506MOL0     H68273   0.817   9.049   7.581  0.6664 -0.1342 -1.7231
  506MOL0     H68274   0.277   8.622   7.914 -1.6341 -0.8783 -2.5745
  506MOL0     H68275   0.028   8.654   7.890 -0.2628 -0.4406  0.4276
  506MOL0     H68276  -0.150   9.050   8.007  2.8359  0.3637 -0.4931
  506MOL0     H68277  -0.146   9.060   7.833 -0.7563  1.1250  0.9242
  506MOL0     H68278  -0.329   8.858   7.854 -0.1416  1.5463 -2.4351
  506MOL0     H68279  -0.350   8.945   8.013  0.4213  0.8285  0.1876
  506MOL0     H68280  -0.508   9.035   7.852  0.2119 -1.5245 -0.3868
  506MOL0     H68281  -0.363   9.085   7.755 -0.5171 -0.5894  0.0685
  506MOL0     H68282  -0.360   9.170   8.049 -1.6584 -0.6830  1.3420
  506MOL0     H68283  -0.304   9.251   7.912 -0.0488 -0.9088 -0.7467
  506MOL0     H68284  -0.603   9.205   7.980  0.4806 -1.3295  0.6563
  506MOL0     H68285  -0.551   9.286   7.840  2.2517  0.2099 -0.3970
  506MOL0     H68286  -0.608   9.447   8.033 -0.6032 -1.1538 -2.1012
  506MOL0     H68287  -0.455   9.415   8.110  1.0304  0.6577 -0.0952
  506MOL0     H68288  -0.481   9.503   7.814 -1.6730  0.6254  0.6979
  506MOL0     H68289  -0.339   9.460   7.913  0.2941 -0.2834 -3.3724
  506MOL0     H68290  -0.513   9.637   8.058 -1.2222 -0.3042 -1.3640
  506MOL0     H68291  -0.474   9.708   7.903  1.1819  2.2103  1.6055
  506MOL0     H68292   0.086   9.079   7.931  0.1128  0.0523 -1.2633
  506MOL0     H68293   0.336   9.038   7.929  0.4732 -0.3648 -0.3941
  506MOL0     H68294   0.679   8.782   8.047 -3.0658  0.4435 -3.0365
  506MOL0     H68295   0.911   8.815   8.106 -1.0891 -1.0729 -0.0560
  506MOL0     H68296   0.757   8.651   8.679 -0.3274  0.7724  1.6175
  506MOL0     H68297   0.496   8.612   8.667  1.5807 -0.2981 -0.9219
  506MOL0     H68298   0.172   8.363   8.939  0.8075 -1.6417 -1.0004
  506MOL0     H68299  -0.074   8.372   8.962  1.0684  1.7814  1.1910
  506MOL0     H68300  -0.303   8.422   8.946 -0.2907  1.2070  0.1721
  506MOL0     H68301  -0.243   8.562   8.840 -0.1848  0.4856 -2.5407
  506MOL0     H68302  -0.498   8.549   8.873 -1.4892  1.0111 -0.1633
  506MOL0     H68303  -0.484   8.394   8.791 -0.6794  0.5219  2.4416
  506MOL0     H68304  -0.431   8.479   8.593  2.0383 -0.8996  1.7979
  506MOL0     H68305  -0.394   8.640   8.651 -2.8539  1.7602 -1.3351
  506MOL0     H68306  -0.613   8.648   8.542 -2.2838 -1.0507 -0.0273
  506MOL0     H68307  -0.652   8.663   8.718  3.6815 -3.1967  5.6576
  506MOL0     H68308  -0.787   8.269   8.683  0.1220 -0.3555  0.6513
  506MOL0     H68309  -0.118   8.389   8.543  0.4022  1.3850 -0.7429
  506MOL0     H68310   0.124   8.378   8.508 -1.0509 -0.6395 -0.3108
  507MOL0     O68311   1.981   0.807   5.867  0.4457  0.6730  0.4526
  507MOL0     C68312   2.008   0.770   5.981 -0.6204 -0.5049 -1.0311
  507MOL0     O68313   1.918   0.742   6.076  0.6120  0.8080  0.1578
  507MOL0     C68314   1.779   0.746   6.060  0.6502 -0.4021  0.2451
  507MOL0     C68315   1.703   0.770   6.173  0.4723  0.1035  0.6839
  507MOL0     C68316   1.559   0.770   6.167  0.5693  0.1993 -0.1139
  507MOL0     C68317   1.493   0.730   6.045 -0.4834 -0.7660  0.2363
  507MOL0     O68318   1.353   0.726   6.041  0.2460 -0.2591  0.0243
  507MOL0     C68319   1.293   0.784   5.921 -1.0295  0.5351  0.4303
  507MOL0     C68320   1.141   0.805   5.944  0.6445 -0.3379  0.7579
  507MOL0     C68321   1.071   0.885   5.832  0.1103  1.0234 -0.4102
  507MOL0     C68322   1.058   1.038   5.836  0.8247  0.5083 -0.7218
  507MOL0     C68323   0.956   1.101   5.941  0.6807  0.1999  0.0819
  507MOL0     C68324   0.815   1.061   5.919  0.8437 -0.3008 -0.3079
  507MOL0     C68325   0.725   1.182   5.963 -0.3285 -0.8435  0.5859
  507MOL0     C68326   0.569   1.152   5.940 -0.6816  0.7272  0.5091
  507MOL0     N68327   0.490   1.268   5.985 -0.1908 -0.7512 -0.0580
  507MOL0     C68328   0.448   1.277   6.117 -0.7973 -0.3990 -0.2104
  507MOL0     C68329   0.371   1.392   6.119  0.5775  0.2206 -0.2378
  507MOL0     C68330   0.299   1.419   6.243 -0.5784 -0.2268  0.0674
  507MOL0     C68331   0.153   1.463   6.223  0.3469  0.2309 -0.2568
  507MOL0     C68332   0.076   1.477   6.352 -0.7068  0.2991 -0.0189
  507MOL0     C68333  -0.070   1.474   6.328  0.2021  0.3199 -0.5390
  507MOL0     O68334  -0.124   1.349   6.281 -0.2177  0.3851 -0.2003
  507MOL0     C68335  -0.258   1.337   6.302  0.5666  0.2990  0.0701
  507MOL0     C68336  -0.346   1.317   6.196  0.0388 -0.0501  0.4432
  507MOL0     C68337  -0.484   1.330   6.205 -0.2668  0.3977 -0.2016
  507MOL0     C68338  -0.560   1.332   6.079 -0.0450  0.4522  0.5964
  507MOL0     C68339  -0.547   1.344   6.329  0.5082 -0.9024 -0.4801
  507MOL0     C68340  -0.689   1.365   6.345  0.1527 -0.7353  0.2799
  507MOL0     O68341  -0.740   1.312   6.465 -0.6087 -0.8318 -0.5557
  507MOL0     C68342  -0.853   1.359   6.531  0.2131  0.4980  0.5202
  507MOL0     C68343  -0.855   1.329   6.660  1.1249 -0.3851 -0.9087
  507MOL0     C68344  -0.956   1.372   6.736 -0.1945 -0.0900 -0.3551
  507MOL0     C68345  -1.058   1.450   6.686  1.2802 -0.0012 -0.3164
  507MOL0     O68346  -1.157   1.495   6.761  0.1706 -0.0233 -0.2692
  507MOL0     C68347  -1.166   1.465   6.901 -0.9031 -0.7688 -1.0979
  507MOL0     C68348  -1.256   1.579   6.957  0.0850  0.5749 -0.0122
  507MOL0     C68349  -1.370   1.545   7.049 -0.0371  0.5086 -0.1080
  507MOL0     C68350  -1.469   1.658   7.064  0.1976 -0.1129  0.0017
  507MOL0     C68351  -1.591   1.620   7.134  0.3067 -0.4777 -0.9899
  507MOL0     C68352  -1.686   1.738   7.159 -0.7617 -0.3971 -0.2710
  507MOL0     C68353  -1.812   1.706   7.245 -0.1572 -0.2096  0.5093
  507MOL0     C68354  -1.913   1.819   7.257 -0.1917  0.2417  0.0742
  507MOL0    Cl68355  -1.859   1.950   7.372  0.3998 -0.0609 -0.1845
  507MOL0     C68356  -1.053   1.483   6.552 -0.5868  0.4719 -0.8711
  507MOL0     C68357  -0.950   1.439   6.467 -0.5799  0.6052 -0.1090
  507MOL0     O68358  -0.757   1.420   6.257 -0.1165  0.9471  0.6393
  507MOL0     C68359  -0.464   1.350   6.437 -0.2345  0.0377  0.2647
  507MOL0     C68360  -0.328   1.348   6.427 -0.1704 -0.3833  0.3570
  507MOL0     N68361   0.384   1.453   5.995  0.9609 -0.1160  0.1069
  507MOL0     N68362   0.446   1.371   5.913 -0.2670 -0.4583  0.2058
  507MOL0     C68363   1.582   0.692   5.938  0.3788 -0.7140  0.6188
  507MOL0     C68364   1.714   0.713   5.937 -0.4334  0.2136  0.3918
  507MOL0     C68365   2.155   0.773   6.012 -0.1170 -0.2818  0.1292
  507MOL0     C68366   2.190   0.745   6.141 -0.5430 -0.4320 -0.2870
  507MOL0     C68367   2.326   0.751   6.184  0.2774 -0.6942 -0.1483
  507MOL0     C68368   2.430   0.797   6.106  0.3109 -0.2125 -0.1406
  507MOL0     O68369   2.560   0.792   6.140 -0.3085  0.6135 -0.6824
  507MOL0     C68370   2.670   0.851   6.070  0.1496 -0.8302 -0.5272
  507MOL0     C68371   2.662   1.005   6.043  0.1564 -0.3522  0.1028
  507MOL0     C68372   2.773   1.042   5.942 -0.3014  0.2978 -0.2950
  507MOL0     C68373   2.911   1.037   6.015  0.0447  0.4039  0.8786
  507MOL0     C68374   3.013   1.125   5.944  0.2304  0.7359 -0.1759
  507MOL0     C68375   3.083   1.185   5.867 -0.2189 -0.1884  1.0324
  507MOL0     C68376   2.397   0.831   5.973  0.1083 -0.7162 -0.0703
  507MOL0     C68377   2.266   0.811   5.932 -0.1178 -0.1722  0.1596
  507MOL0     H68378   1.752   0.773   6.269  2.5020 -0.5231 -0.2747
  507MOL0     H68379   1.511   0.797   6.261  0.2372 -0.1487 -0.1821
  507MOL0     H68380   1.339   0.879   5.894  2.1143 -0.4388  1.9165
  507MOL0     H68381   1.309   0.711   5.841 -0.2717  0.6019  0.5109
  507MOL0     H68382   1.098   0.708   5.969 -1.4134  0.6467  1.2798
  507MOL0     H68383   1.122   0.864   6.034  0.2990  1.6360 -0.5461
  507MOL0     H68384   1.118   0.855   5.738  1.8384 -1.8081  1.2295
  507MOL0     H68385   0.967   0.852   5.821 -0.0336  0.4452  1.9840
  507MOL0     H68386   1.161   1.073   5.850  0.7505  0.0635  1.3405
  507MOL0     H68387   1.012   1.068   5.741 -0.6009 -1.5906 -0.7551
  507MOL0     H68388   0.981   1.079   6.045 -2.2169  1.6833  1.2311
  507MOL0     H68389   0.967   1.209   5.936  0.2267  0.2625  0.3717
  507MOL0     H68390   0.795   1.037   5.814  1.0584  1.3702 -0.7646
  507MOL0     H68391   0.788   0.977   5.984 -0.3449 -0.2344 -0.6966
  507MOL0     H68392   0.733   1.192   6.071 -1.2092 -0.9629  0.6720
  507MOL0     H68393   0.757   1.277   5.919  1.7243  0.3234  4.2295
  507MOL0     H68394   0.551   1.060   5.996  1.2381 -0.6342 -0.9716
  507MOL0     H68395   0.559   1.131   5.833 -0.4899  2.3410  0.1478
  507MOL0     H68396   0.472   1.205   6.195  0.9800 -1.7720 -1.9126
  507MOL0     H68397   0.298   1.327   6.302 -2.0348 -2.1790 -2.7403
  507MOL0     H68398   0.350   1.499   6.297  2.4498 -1.2558 -1.1011
  507MOL0     H68399   0.109   1.386   6.159  0.5639  2.0492 -2.7056
  507MOL0     H68400   0.137   1.551   6.161 -4.2033 -0.1424  0.1011
  507MOL0     H68401   0.109   1.557   6.419 -3.7140  1.6238  0.0470
  507MOL0     H68402   0.108   1.391   6.411 -1.1719 -1.0030 -1.6073
  507MOL0     H68403  -0.091   1.545   6.248  2.3047 -0.4331 -1.8334
  507MOL0     H68404  -0.124   1.503   6.419  0.0665  0.5326 -0.6856
  507MOL0     H68405  -0.303   1.308   6.097  0.4718  1.3321  0.4891
  507MOL0     H68406  -0.579   1.437   6.057 -2.4506  0.2228  1.2348
  507MOL0     H68407  -0.513   1.279   5.996 -1.9215 -1.3829  0.6199
  507MOL0     H68408  -0.654   1.277   6.093 -0.7652  1.3738 -0.4489
  507MOL0     H68409  -0.773   1.271   6.700  0.5340 -2.3222 -2.3753
  507MOL0     H68410  -0.945   1.344   6.840 -1.3163  1.3859  0.1938
  507MOL0     H68411  -1.217   1.370   6.916  0.0461 -1.0899  0.3846
  507MOL0     H68412  -1.075   1.463   6.962 -0.8265  0.5675 -1.1264
  507MOL0     H68413  -1.197   1.648   7.017 -1.9325  1.0646  1.5365
  507MOL0     H68414  -1.296   1.630   6.869 -0.3691 -0.7863 -0.6245
  507MOL0     H68415  -1.333   1.526   7.150  2.3213 -1.2510 -1.1801
  507MOL0     H68416  -1.416   1.454   7.009  1.4743 -0.1756 -0.3774
  507MOL0     H68417  -1.420   1.747   7.104 -0.7112 -0.2778  1.5806
  507MOL0     H68418  -1.499   1.689   6.963 -1.1651 -0.9145  0.1466
  507MOL0     H68419  -1.552   1.583   7.230 -1.6569 -3.8627 -1.3494
  507MOL0     H68420  -1.653   1.543   7.089 -1.1745  0.9258 -1.4336
  507MOL0     H68421  -1.630   1.822   7.201 -0.1315 -0.1191 -1.6090
  507MOL0     H68422  -1.731   1.770   7.064 -1.1042  0.3987  0.1485
  507MOL0     H68423  -1.785   1.673   7.346  0.4307 -1.3839 -0.0146
  507MOL0     H68424  -1.867   1.631   7.187  1.6788 -1.4661  0.3015
  507MOL0     H68425  -2.016   1.787   7.274 -0.8497  2.0375 -0.3496
  507MOL0     H68426  -1.912   1.869   7.160  0.9594  0.7740  0.3440
  507MOL0     H68427  -1.135   1.543   6.513 -2.8771 -0.0785  2.6937
  507MOL0     H68428  -0.956   1.463   6.361 -1.8142  1.0995  0.0649
  507MOL0     H68429  -0.501   1.356   6.538 -1.2581 -0.0678 -0.0936
  507MOL0     H68430  -0.271   1.362   6.518  0.2287  3.1545 -0.2843
  507MOL0     H68431   1.538   0.655   5.846 -0.0468  1.4050 -0.0765
  507MOL0     H68432   1.764   0.701   5.841 -2.3772 -0.4949 -0.5760
  507MOL0     H68433   2.121   0.688   6.202  0.1147 -4.3183 -2.8183
  507MOL0     H68434   2.356   0.720   6.284  0.9747  0.6156  0.0690
  507MOL0     H68435   2.757   0.828   6.132  0.5311  1.9719  0.1178
  507MOL0     H68436   2.680   0.807   5.970  3.5705  0.3951 -0.8581
  507MOL0     H68437   2.667   1.062   6.137  0.6868 -0.1031 -0.0712
  507MOL0     H68438   2.572   1.034   5.988  1.3353  1.4191 -0.9966
  507MOL0     H68439   2.754   1.144   5.910 -0.3347 -0.5038 -3.0368
  507MOL0     H68440   2.775   0.974   5.857 -0.0514  0.2431 -0.2447
  507MOL0     H68441   2.944   0.934   6.027  0.7195  0.5434  0.2906
  507MOL0     H68442   2.900   1.081   6.115 -0.7282 -2.6167  2.2297
  507MOL0     H68443   3.155   1.226   5.799 -1.7631  0.7345 -0.0969
  507MOL0     H68444   2.476   0.852   5.903 -0.9923  1.5978 -0.6935
  507MOL0     H68445   2.255   0.814   5.824 -0.5294  1.3922  0.2224
  508MOL0     O68446   9.391   0.304   6.312 -0.2615  0.0769  0.1220
  508MOL0     C68447   9.356   0.260   6.203  0.3410 -0.4680 -0.9608
  508MOL0     O68448   9.223   0.247   6.157 -0.2396  0.2897 -0.0213
  508MOL0     C68449   9.113   0.295   6.221 -0.2023  0.2837 -0.3516
  508MOL0     C68450   9.110   0.349   6.350 -0.4842  0.0282 -0.1512
  508MOL0     C68451   8.989   0.375   6.417  0.0698 -0.2870  0.2931
  508MOL0     C68452   8.874   0.364   6.356  0.5600 -0.3612 -0.1771
  508MOL0     O68453   8.765   0.413   6.428  0.0394  0.7107 -0.2490
  508MOL0     C68454   8.638   0.355   6.405  0.8015 -0.4665 -0.9597
  508MOL0     C68455   8.535   0.399   6.516 -0.5685 -0.6142 -0.4104
  508MOL0     C68456   8.405   0.422   6.459  1.3568  1.2439  0.6934
  508MOL0     C68457   8.341   0.298   6.405  0.1600 -0.4587 -0.2056
  508MOL0     C68458   8.198   0.311   6.344 -0.9177 -1.0743 -0.2804
  508MOL0     C68459   8.140   0.179   6.312  0.2836  0.3038  0.0253
  508MOL0     C68460   8.029   0.196   6.208  1.1813 -0.1322  0.2919
  508MOL0     C68461   7.933   0.082   6.225  0.2680 -0.0108  0.1496
  508MOL0     N68462   7.833   0.091   6.115 -0.1134  0.0289  0.0721
  508MOL0     C68463   7.736   0.190   6.107  0.1164 -0.7644 -0.8952
  508MOL0     C68464   7.656   0.141   6.005 -0.2168 -0.6768 -0.5219
  508MOL0     C68465   7.537   0.226   5.948  0.3824 -0.3016  0.0399
  508MOL0     C68466   7.399   0.160   5.972  0.5583  0.1371  0.5283
  508MOL0     C68467   7.364   0.027   5.889 -0.1264  0.1762 -0.5969
  508MOL0     C68468   7.389   0.018   5.740 -0.9153  0.6147 -0.2302
  508MOL0     O68469   7.335  -0.107   5.676  0.2235 -0.3680 -0.0443
  508MOL0     C68470   7.409  -0.221   5.668  0.3465  0.0853 -0.0427
  508MOL0     C68471   7.353  -0.329   5.600 -0.1395  0.7445  0.1889
  508MOL0     C68472   7.429  -0.450   5.571 -0.0035  0.0143 -0.2621
  508MOL0     C68473   7.364  -0.564   5.510  0.2661 -0.1154  0.1941
  508MOL0     C68474   7.559  -0.462   5.627 -0.4846 -0.0744  0.8805
  508MOL0     C68475   7.639  -0.597   5.613  0.6881  0.1522  0.2748
  508MOL0     O68476   7.718  -0.631   5.720  0.8079  0.0383  0.8619
  508MOL0     C68477   7.767  -0.759   5.721  0.3850 -0.4872  0.1931
  508MOL0     C68478   7.733  -0.840   5.828 -0.0942  0.3646 -0.2497
  508MOL0     C68479   7.773  -0.973   5.829  0.2611  1.2793  0.3028
  508MOL0     C68480   7.854  -1.024   5.728 -0.7639 -0.6574 -0.8999
  508MOL0     O68481   7.901  -1.155   5.730 -0.2091  0.0486 -0.6882
  508MOL0     C68482   8.036  -1.191   5.699  0.0577 -0.1935  0.0749
  508MOL0     C68483   8.124  -1.213   5.830  0.1983 -0.9249  0.5915
  508MOL0     C68484   8.262  -1.210   5.796 -0.6576  0.0627  0.0535
  508MOL0     C68485   8.354  -1.260   5.905  0.2796  0.5934  0.2661
  508MOL0     C68486   8.498  -1.259   5.848 -0.5175  0.2327  0.0363
  508MOL0     C68487   8.601  -1.314   5.956  0.0361  0.2558 -0.5184
  508MOL0     C68488   8.735  -1.327   5.895 -0.3147  0.4405  0.0716
  508MOL0     C68489   8.839  -1.352   6.007  0.5678  0.4917  0.3856
  508MOL0    Cl68490   9.003  -1.305   5.946  0.0730  0.5719  0.4073
  508MOL0     C68491   7.883  -0.937   5.626  1.2524  0.2413 -1.3429
  508MOL0     C68492   7.846  -0.813   5.620  0.4525 -1.0391  0.7114
  508MOL0     O68493   7.636  -0.654   5.504 -0.3535  0.5436  0.0812
  508MOL0     C68494   7.622  -0.351   5.692  0.2034 -0.1445  0.8003
  508MOL0     C68495   7.544  -0.233   5.707 -0.1457  0.5567  0.5059
  508MOL0     N68496   7.707   0.024   5.950 -0.1426 -0.1199 -0.1263
  508MOL0     N68497   7.806  -0.004   6.025 -0.1860  0.3061  0.5362
  508MOL0     C68498   8.872   0.314   6.230 -0.2038  0.7838  0.3606
  508MOL0     C68499   8.986   0.274   6.159 -0.5763 -0.3860 -0.8532
  508MOL0     C68500   9.471   0.243   6.103 -0.3400  0.6731 -0.4248
  508MOL0     C68501   9.433   0.243   5.966  0.6077 -0.1748 -0.3019
  508MOL0     C68502   9.536   0.216   5.870 -0.1350 -0.1898 -0.2680
  508MOL0     C68503   9.670   0.197   5.905 -0.2856 -0.3412 -0.5637
  508MOL0     O68504   9.771   0.175   5.815  0.1511  0.0513 -0.5276
  508MOL0     C68505   9.809   0.295   5.746 -0.2536  0.1952 -0.4988
  508MOL0     C68506   9.946   0.265   5.672 -0.3439 -0.0329 -0.6647
  508MOL0     C68507  10.048   0.234   5.784 -0.4630 -0.0446 -0.2981
  508MOL0     C68508  10.187   0.209   5.726  0.2505  0.3605 -0.6189
  508MOL0     C68509  10.240   0.326   5.673  0.5236 -0.1117 -0.1361
  508MOL0     C68510  10.297   0.418   5.635 -1.1455  0.2428  0.0161
  508MOL0     C68511   9.698   0.206   6.043  0.1503  0.9063 -0.2506
  508MOL0     C68512   9.606   0.229   6.142 -0.3736 -0.6657 -0.7710
  508MOL0     H68513   9.200   0.376   6.404  0.6019 -3.8345  0.2885
  508MOL0     H68514   8.971   0.407   6.519 -3.7565  2.9848 -1.1759
  508MOL0     H68515   8.591   0.382   6.310 -4.9805 -1.6697  1.1081
  508MOL0     H68516   8.639   0.246   6.413  0.7995 -0.5486 -1.9831
  508MOL0     H68517   8.540   0.333   6.604 -0.8426  0.9663  0.8274
  508MOL0     H68518   8.574   0.492   6.558  2.0859 -1.4214 -0.8830
  508MOL0     H68519   8.334   0.479   6.519 -2.7574 -1.5288 -1.0830
  508MOL0     H68520   8.423   0.482   6.369  0.7897  0.3816 -0.0045
  508MOL0     H68521   8.402   0.251   6.328  1.9988 -0.5709  1.2495
  508MOL0     H68522   8.338   0.226   6.488 -1.9010  0.2796  0.4452
  508MOL0     H68523   8.131   0.374   6.404 -0.2830  0.8640 -1.4865
  508MOL0     H68524   8.212   0.369   6.251 -1.5639  1.6396  1.2002
  508MOL0     H68525   8.222   0.116   6.274  0.4535  1.1023 -0.9635
  508MOL0     H68526   8.102   0.132   6.404  0.3057  1.0436  0.4165
  508MOL0     H68527   7.976   0.289   6.227  2.1164  0.4521  0.1053
  508MOL0     H68528   8.075   0.202   6.109  0.7182 -4.7942 -0.4498
  508MOL0     H68529   7.878   0.086   6.319  0.3840 -2.1134  0.3562
  508MOL0     H68530   7.977  -0.018   6.221 -0.2735 -0.2168 -2.4318
  508MOL0     H68531   7.735   0.287   6.155  0.8243 -1.2374  0.1189
  508MOL0     H68532   7.541   0.322   6.001  2.6147 -1.2288  1.7597
  508MOL0     H68533   7.557   0.235   5.841 -0.2148  2.7924  0.1122
  508MOL0     H68534   7.317   0.230   5.955 -1.3033 -1.2914  2.9253
  508MOL0     H68535   7.391   0.145   6.080  0.9723 -1.8456  0.3236
  508MOL0     H68536   7.255   0.023   5.883 -0.4160  1.9750  1.7915
  508MOL0     H68537   7.416  -0.056   5.936 -0.6085 -1.0691 -2.1703
  508MOL0     H68538   7.499   0.021   5.741 -0.8822 -0.4700  0.6317
  508MOL0     H68539   7.357   0.108   5.687  2.2072 -0.1405 -3.8299
  508MOL0     H68540   7.246  -0.328   5.579 -0.0014  2.9837 -0.6780
  508MOL0     H68541   7.391  -0.654   5.566 -0.8109  0.2663  1.3793
  508MOL0     H68542   7.257  -0.543   5.523  0.5575  0.5793  1.6861
  508MOL0     H68543   7.392  -0.564   5.404  0.1974  1.7859  0.1467
  508MOL0     H68544   7.689  -0.799   5.918 -0.7338  0.8000 -0.7560
  508MOL0     H68545   7.744  -1.037   5.911 -1.2095 -0.4224 -1.4391
  508MOL0     H68546   8.048  -1.275   5.631  0.0605 -1.3265  1.4407
  508MOL0     H68547   8.078  -1.108   5.641  0.2627  0.0797  0.6038
  508MOL0     H68548   8.099  -1.138   5.905 -0.5851 -1.1623  0.5805
  508MOL0     H68549   8.093  -1.312   5.867 -0.5177 -0.1000  2.3248
  508MOL0     H68550   8.290  -1.107   5.775  0.8413 -0.3415 -0.0362
  508MOL0     H68551   8.274  -1.275   5.709  2.3067  1.4820 -0.6944
  508MOL0     H68552   8.343  -1.192   5.990  0.6354 -1.1415  1.7572
  508MOL0     H68553   8.335  -1.362   5.938 -0.3919  0.4379 -0.5651
  508MOL0     H68554   8.516  -1.157   5.814 -0.0753 -0.1949 -1.0649
  508MOL0     H68555   8.511  -1.332   5.768 -0.5572 -0.6395  0.7980
  508MOL0     H68556   8.589  -1.252   6.045 -3.3580  1.6707 -1.8127
  508MOL0     H68557   8.568  -1.412   5.990 -3.1142  1.1056 -0.8238
  508MOL0     H68558   8.764  -1.238   5.836  0.3178  0.0204 -0.2676
  508MOL0     H68559   8.731  -1.413   5.828 -2.0049 -1.5869  2.6161
  508MOL0     H68560   8.837  -1.458   6.033  2.6540  0.5805  1.1454
  508MOL0     H68561   8.805  -1.290   6.091 -2.4302 -1.1413  0.5003
  508MOL0     H68562   7.940  -0.979   5.544  0.8680  1.1183 -2.0735
  508MOL0     H68563   7.870  -0.753   5.533  0.3074  0.1490  1.4726
  508MOL0     H68564   7.723  -0.352   5.731  1.3656  0.5804 -1.8922
  508MOL0     H68565   7.602  -0.154   5.753 -0.9454  1.0302  0.7288
  508MOL0     H68566   8.769   0.305   6.197  0.3569  1.7527 -1.8000
  508MOL0     H68567   8.978   0.239   6.057 -1.7548  0.5463 -1.0953
  508MOL0     H68568   9.327   0.249   5.947  0.1860 -1.2506  1.4472
  508MOL0     H68569   9.515   0.210   5.763  1.8664 -3.0425 -0.6299
  508MOL0     H68570   9.743   0.323   5.663  1.6088 -1.7217 -2.7728
  508MOL0     H68571   9.827   0.376   5.817  0.3721  1.5390 -2.1245
  508MOL0     H68572   9.976   0.358   5.623  0.9360 -0.3105 -0.4248
  508MOL0     H68573   9.937   0.178   5.606 -1.4286  0.4773 -1.2174
  508MOL0     H68574  10.018   0.148   5.845  0.1698 -0.9229 -1.1865
  508MOL0     H68575  10.052   0.318   5.853  1.7717 -1.4434  1.4253
  508MOL0     H68576  10.172   0.135   5.646  2.8696 -0.0063 -0.8624
  508MOL0     H68577  10.246   0.167   5.808 -0.4313  2.1054  0.8277
  508MOL0     H68578  10.350   0.503   5.597 -0.4888  0.5185  1.4695
  508MOL0     H68579   9.800   0.179   6.071 -0.8517 -1.4736  1.4896
  508MOL0     H68580   9.630   0.244   6.246 -0.5735 -1.7520 -0.5542
  509MOL0     O68581   0.433   5.646   0.740  0.7653  0.0340 -0.5823
  509MOL0     C68582   0.508   5.593   0.825 -0.3671 -0.3546  0.0988
  509MOL0     O68583   0.484   5.483   0.901  0.1083  0.1283  0.2273
  509MOL0     C68584   0.350   5.451   0.919  0.7294 -0.0271  0.0538
  509MOL0     C68585   0.281   5.397   0.812  0.0769 -0.6020  0.7164
  509MOL0     C68586   0.148   5.361   0.815  0.3521 -0.1700 -0.2082
  509MOL0     C68587   0.073   5.386   0.928 -0.5025 -0.0194  0.2700
  509MOL0     O68588  -0.057   5.351   0.931  0.5081 -0.7983 -0.3481
  509MOL0     C68589  -0.130   5.443   0.842  0.7394  0.6234  0.1049
  509MOL0     C68590  -0.272   5.389   0.826 -0.7961 -0.4762 -0.5368
  509MOL0     C68591  -0.351   5.374   0.961 -0.7653  0.3619 -0.5622
  509MOL0     C68592  -0.504   5.367   0.950 -0.0898 -0.6620 -0.7492
  509MOL0     C68593  -0.583   5.374   1.091  0.3040  0.0124 -0.3877
  509MOL0     C68594  -0.558   5.259   1.180 -0.1992 -0.0400  0.4641
  509MOL0     C68595  -0.650   5.256   1.306  0.2321 -0.1786 -0.9824
  509MOL0     C68596  -0.651   5.112   1.368 -0.1659 -0.2398  0.2742
  509MOL0     N68597  -0.747   5.082   1.476  0.0643 -0.2113 -0.2986
  509MOL0     C68598  -0.810   4.964   1.497 -0.4442  1.3486  0.0414
  509MOL0     C68599  -0.879   4.983   1.611 -0.6205  0.8850  0.5880
  509MOL0     C68600  -0.962   4.886   1.684 -0.1577 -0.4164  0.1474
  509MOL0     C68601  -1.111   4.909   1.648 -0.4104 -0.2505 -0.0928
  509MOL0     C68602  -1.197   4.824   1.746  0.2156  0.4813 -0.5225
  509MOL0     C68603  -1.346   4.817   1.693 -0.2602  0.6418 -0.4792
  509MOL0     O68604  -1.420   4.935   1.727  0.1576  0.1270  1.4306
  509MOL0     C68605  -1.550   4.947   1.692  0.8312  0.0827  0.4351
  509MOL0     C68606  -1.597   5.071   1.694 -0.3492  1.0089  0.2756
  509MOL0     C68607  -1.718   5.094   1.637 -0.7798 -0.1024 -0.4411
  509MOL0     C68608  -1.754   5.235   1.633 -0.3967  0.1868  0.9939
  509MOL0     C68609  -1.798   4.986   1.585 -1.2458 -0.0802  0.6655
  509MOL0     C68610  -1.928   5.002   1.516  0.0154 -0.4175 -1.1975
  509MOL0     O68611  -1.998   4.887   1.501  0.4157  0.7952 -0.7464
  509MOL0     C68612  -2.120   4.875   1.437 -0.8465 -0.0872 -0.2188
  509MOL0     C68613  -2.151   4.742   1.410 -0.0851 -0.4156  0.0233
  509MOL0     C68614  -2.257   4.715   1.332  0.5566  0.2797  0.6841
  509MOL0     C68615  -2.341   4.813   1.285  0.4582  0.3621  0.0460
  509MOL0     O68616  -2.432   4.794   1.180  0.9291  0.2085  0.4430
  509MOL0     C68617  -2.485   4.663   1.152 -0.2535 -0.1552  0.1784
  509MOL0     C68618  -2.616   4.682   1.081 -0.7139 -0.0377  0.2394
  509MOL0     C68619  -2.728   4.744   1.170 -0.4085 -0.0668 -0.3924
  509MOL0     C68620  -2.865   4.751   1.091 -0.1809  0.5167  0.3960
  509MOL0     C68621  -2.978   4.797   1.175  0.3810 -0.4766  0.3603
  509MOL0     C68622  -3.115   4.819   1.121  0.8111  0.2960 -0.0607
  509MOL0     C68623  -3.167   4.705   1.026  0.2266 -1.0381 -0.1993
  509MOL0     C68624  -3.321   4.715   1.012 -0.4231 -0.2807 -0.3105
  509MOL0    Cl68625  -3.373   4.599   0.882  0.4651  0.0323 -0.2219
  509MOL0     C68626  -2.315   4.942   1.321  0.1497  1.2010 -0.2510
  509MOL0     C68627  -2.206   4.973   1.397  0.7557 -0.2267  0.3979
  509MOL0     O68628  -1.958   5.116   1.487  0.1005  0.0316  0.0455
  509MOL0     C68629  -1.749   4.856   1.590  0.1736  0.5703  0.4617
  509MOL0     C68630  -1.628   4.836   1.639 -0.2913 -0.0374  0.3006
  509MOL0     N68631  -0.862   5.108   1.660  0.1793 -0.3990  0.4242
  509MOL0     N68632  -0.786   5.164   1.575  0.4170  0.8291 -0.6379
  509MOL0     C68633   0.137   5.446   1.040  0.2433 -0.9872 -0.1184
  509MOL0     C68634   0.272   5.473   1.034 -0.2147 -0.0513  0.5131
  509MOL0     C68635   0.644   5.648   0.833 -0.0775  0.1647  0.8100
  509MOL0     C68636   0.717   5.644   0.957  0.0612  0.2105  0.6735
  509MOL0     C68637   0.847   5.690   0.962  0.0900 -0.3196 -0.4899
  509MOL0     C68638   0.918   5.744   0.863  0.6538 -0.0993 -0.4469
  509MOL0     O68639   1.049   5.767   0.894  0.2895 -0.1358  0.3832
  509MOL0     C68640   1.127   5.852   0.806  0.2524  0.2629 -0.0904
  509MOL0     C68641   1.077   5.995   0.783  0.1209 -0.4392  0.1275
  509MOL0     C68642   1.072   6.082   0.910 -0.3949  0.3566 -0.9787
  509MOL0     C68643   0.949   6.176   0.916  0.4496 -0.1005  1.2895
  509MOL0     C68644   0.962   6.273   1.020  0.1620  0.2600 -0.7613
  509MOL0     C68645   0.954   6.366   1.097 -0.9492  0.1360  0.2420
  509MOL0     C68646   0.847   5.768   0.746  0.8752  0.0218  0.6331
  509MOL0     C68647   0.707   5.728   0.734  0.0241 -0.6648  0.2374
  509MOL0     H68648   0.331   5.377   0.718 -1.6683 -1.8130  0.0010
  509MOL0     H68649   0.102   5.320   0.725  0.5680 -4.2751  1.3177
  509MOL0     H68650  -0.133   5.545   0.882  1.5734  0.8155 -0.3006
  509MOL0     H68651  -0.090   5.447   0.740 -1.7662 -0.1460 -0.9923
  509MOL0     H68652  -0.327   5.459   0.763  0.5846  0.6228 -0.5392
  509MOL0     H68653  -0.257   5.299   0.766 -0.9766 -0.7333 -0.2014
  509MOL0     H68654  -0.315   5.283   1.009 -1.4450  0.1103 -0.5264
  509MOL0     H68655  -0.326   5.466   1.015  1.3534 -0.9375  0.8133
  509MOL0     H68656  -0.536   5.454   0.891  3.4880  0.1370 -1.7165
  509MOL0     H68657  -0.531   5.279   0.891 -0.4447 -1.4309  0.5255
  509MOL0     H68658  -0.559   5.471   1.136  0.6542 -0.6427  0.8786
  509MOL0     H68659  -0.687   5.377   1.058  0.4160 -2.5589 -1.2490
  509MOL0     H68660  -0.569   5.166   1.123 -2.0820  1.1994 -1.3247
  509MOL0     H68661  -0.455   5.272   1.213  0.5421 -3.1361 -0.3442
  509MOL0     H68662  -0.636   5.337   1.378 -2.3249  1.2008 -1.9241
  509MOL0     H68663  -0.755   5.265   1.277 -0.4552 -2.1193  0.6954
  509MOL0     H68664  -0.551   5.118   1.411  0.1027  0.3103 -0.4121
  509MOL0     H68665  -0.640   5.036   1.290  1.3974  0.6640 -0.4203
  509MOL0     H68666  -0.818   4.877   1.432  1.5230 -0.1040  1.6007
  509MOL0     H68667  -0.945   4.782   1.656  0.4264  0.9067 -5.5534
  509MOL0     H68668  -0.948   4.902   1.791 -0.7016  0.2339  0.1334
  509MOL0     H68669  -1.130   4.880   1.544 -0.7798 -0.4915  0.0403
  509MOL0     H68670  -1.140   5.013   1.661 -0.6274 -0.3631  0.3390
  509MOL0     H68671  -1.192   4.872   1.844  1.2471  0.8111 -0.7259
  509MOL0     H68672  -1.145   4.729   1.765 -0.5837  0.4915  2.2696
  509MOL0     H68673  -1.401   4.734   1.739  2.6783 -1.9240 -1.2784
  509MOL0     H68674  -1.338   4.795   1.586 -0.8670 -0.9507 -0.2293
  509MOL0     H68675  -1.535   5.154   1.725  0.3318  0.9027 -0.7735
  509MOL0     H68676  -1.741   5.284   1.536 -2.0162  1.3947  1.3398
  509MOL0     H68677  -1.859   5.234   1.663 -1.0743 -0.9684 -1.2319
  509MOL0     H68678  -1.697   5.295   1.706 -2.0047 -0.6432  3.0273
  509MOL0     H68679  -2.078   4.671   1.448 -1.5997 -2.8000 -1.2383
  509MOL0     H68680  -2.271   4.611   1.303  1.1558  0.5454 -0.6819
  509MOL0     H68681  -2.415   4.608   1.089  2.8227  1.7788  1.6474
  509MOL0     H68682  -2.501   4.605   1.243  0.8450 -3.5326 -1.6082
  509MOL0     H68683  -2.608   4.733   0.984  1.1798  0.8689  0.8289
  509MOL0     H68684  -2.644   4.580   1.054  1.6518 -0.1288 -2.3025
  509MOL0     H68685  -2.692   4.840   1.208 -2.0538  0.0387  1.0169
  509MOL0     H68686  -2.741   4.691   1.265  1.8365 -1.1069 -0.5999
  509MOL0     H68687  -2.844   4.823   1.012  2.1473 -1.1852 -0.6370
  509MOL0     H68688  -2.886   4.659   1.036 -0.6874 -1.4478  3.5753
  509MOL0     H68689  -2.951   4.895   1.217 -3.1128 -0.0855  2.0573
  509MOL0     H68690  -2.980   4.733   1.263 -1.1210  0.2655  0.8961
  509MOL0     H68691  -3.176   4.818   1.212  0.0623 -3.1853 -0.4621
  509MOL0     H68692  -3.116   4.913   1.065  0.1557  1.3559  1.6558
  509MOL0     H68693  -3.134   4.613   1.074  2.2369 -1.0562 -1.5008
  509MOL0     H68694  -3.120   4.716   0.928 -2.6402  0.2284 -1.5345
  509MOL0     H68695  -3.336   4.819   0.982  0.4238 -0.7982 -2.8203
  509MOL0     H68696  -3.374   4.702   1.106  0.6831  0.4650  0.4344
  509MOL0     H68697  -2.379   5.020   1.280 -1.6450 -1.0134 -1.9051
  509MOL0     H68698  -2.186   5.078   1.416 -0.8248 -0.0396  1.1884
  509MOL0     H68699  -1.796   4.768   1.547  1.3062 -0.4966  1.3224
  509MOL0     H68700  -1.600   4.733   1.617  0.3074  0.5245 -1.8630
  509MOL0     H68701   0.079   5.466   1.130  0.1193  0.1556 -0.4382
  509MOL0     H68702   0.318   5.521   1.120 -1.2105  1.3344  0.3090
  509MOL0     H68703   0.671   5.604   1.047 -0.6087  3.6628  2.0139
  509MOL0     H68704   0.894   5.668   1.058 -0.4434 -0.7205 -0.3202
  509MOL0     H68705   1.228   5.856   0.847 -0.5907  0.7212  2.1500
  509MOL0     H68706   1.131   5.809   0.706  4.3714 -2.1243  0.8534
  509MOL0     H68707   0.972   5.984   0.754 -0.1529 -0.0436  0.9406
  509MOL0     H68708   1.147   6.043   0.714 -1.1269 -1.1576 -1.7020
  509MOL0     H68709   1.159   6.146   0.892  1.3185 -2.4735 -3.6667
  509MOL0     H68710   1.080   6.022   1.001 -0.3199 -0.4729 -1.5223
  509MOL0     H68711   0.858   6.121   0.941 -1.0376  1.5837 -0.0949
  509MOL0     H68712   0.934   6.237   0.827  1.7659 -3.1654 -1.2343
  509MOL0     H68713   0.958   6.457   1.154 -1.1065 -1.9037  3.7914
  509MOL0     H68714   0.901   5.818   0.666  0.4418 -1.2055 -0.4511
  509MOL0     H68715   0.664   5.737   0.635  0.8794 -0.7614 -0.1543
  510MOL0     O68716   3.985   2.666   7.589  0.1082  0.5382 -0.0002
  510MOL0     C68717   4.022   2.556   7.633  1.2321  0.6866 -0.2890
  510MOL0     O68718   3.947   2.452   7.663 -0.3932  0.0876  0.4798
  510MOL0     C68719   3.813   2.454   7.634 -0.3313  0.2516  0.2442
  510MOL0     C68720   3.756   2.394   7.523 -0.8802  0.0301 -0.9153
  510MOL0     C68721   3.622   2.415   7.496 -0.2791  0.9376 -0.2480
  510MOL0     C68722   3.541   2.488   7.582 -0.1357 -0.0230  0.0290
  510MOL0     O68723   3.411   2.478   7.554  0.0148 -0.3312 -0.1166
  510MOL0     C68724   3.313   2.507   7.655  0.2063 -0.0652  0.0378
  510MOL0     C68725   3.175   2.525   7.585  0.0958  0.1760 -0.4830
  510MOL0     C68726   3.068   2.551   7.692  0.0642  0.4883 -0.0797
  510MOL0     C68727   2.943   2.611   7.614 -0.1255  0.9143  0.5082
  510MOL0     C68728   2.816   2.636   7.697  0.0735  0.2276  1.1185
  510MOL0     C68729   2.686   2.660   7.615 -0.1200 -0.1748 -0.2917
  510MOL0     C68730   2.704   2.776   7.525  0.2459 -0.5542 -0.1737
  510MOL0     C68731   2.570   2.833   7.482  0.8958  0.0511 -0.2227
  510MOL0     N68732   2.595   2.952   7.391  0.2089  0.6490 -0.1729
  510MOL0     C68733   2.566   2.957   7.254 -0.5473  0.7006 -0.4376
  510MOL0     C68734   2.581   3.085   7.215  0.1660 -0.5332 -0.5044
  510MOL0     C68735   2.564   3.137   7.080 -0.1399 -0.5714 -0.7415
  510MOL0     C68736   2.417   3.175   7.044  0.3080 -0.2522  0.3325
  510MOL0     C68737   2.379   3.225   6.895  0.0278 -0.8061 -0.2233
  510MOL0     C68738   2.235   3.237   6.863  0.2526 -0.9880 -0.1326
  510MOL0     O68739   2.186   3.336   6.948 -0.8505 -0.4472 -0.0608
  510MOL0     C68740   2.058   3.391   6.950 -0.1049 -0.0573  0.3604
  510MOL0     C68741   2.026   3.479   7.056 -0.1645  0.5118  0.7636
  510MOL0     C68742   1.895   3.548   7.057  0.2053 -0.0048 -0.5197
  510MOL0     C68743   1.880   3.662   7.159 -0.4909 -0.1059 -0.7992
  510MOL0     C68744   1.798   3.517   6.948 -0.6679 -0.2928  0.5519
  510MOL0     C68745   1.677   3.592   6.931  0.1783 -0.5503  0.3539
  510MOL0     O68746   1.638   3.614   6.798 -1.0598 -0.6611  0.7312
  510MOL0     C68747   1.527   3.694   6.790  0.0088 -0.8221 -0.4188
  510MOL0     C68748   1.536   3.833   6.820  0.1858 -0.2405  0.8709
  510MOL0     C68749   1.416   3.905   6.803 -0.8798 -0.4342  0.2333
  510MOL0     C68750   1.294   3.849   6.765 -0.3308 -0.0689  0.4606
  510MOL0     O68751   1.184   3.929   6.766 -0.7488 -0.2030  1.2731
  510MOL0     C68752   1.055   3.862   6.751 -0.1193 -0.5584 -0.7175
  510MOL0     C68753   0.949   3.964   6.710  0.0832  0.0944  0.4310
  510MOL0     C68754   0.966   4.003   6.567  0.9205 -0.0918 -0.2574
  510MOL0     C68755   0.914   4.144   6.542  0.7152 -0.1719 -0.7313
  510MOL0     C68756   0.901   4.174   6.397 -0.5368 -0.0342 -0.2512
  510MOL0     C68757   1.032   4.166   6.318 -0.5900  0.4557  0.1082
  510MOL0     C68758   1.019   4.185   6.162  0.1439 -0.0652  0.3378
  510MOL0     C68759   1.144   4.161   6.074 -0.1177 -0.0088 -0.3588
  510MOL0    Cl68760   1.254   4.305   6.112  0.0777 -0.6548 -0.1446
  510MOL0     C68761   1.299   3.719   6.723  0.4366  0.7447  1.1324
  510MOL0     C68762   1.408   3.637   6.744 -0.9492 -0.1777 -0.4787
  510MOL0     O68763   1.614   3.626   7.028  0.3110 -0.3214 -0.1683
  510MOL0     C68764   1.830   3.419   6.851 -0.2909  0.1438  0.5085
  510MOL0     C68765   1.952   3.350   6.863  0.3658 -0.2210  0.0545
  510MOL0     N68766   2.602   3.165   7.335  0.2757 -0.3695  0.6496
  510MOL0     N68767   2.608   3.074   7.432 -0.6368 -0.4711 -0.2475
  510MOL0     C68768   3.598   2.542   7.695  0.2950 -0.2463 -0.8060
  510MOL0     C68769   3.735   2.529   7.718 -0.0465 -1.0038  0.0150
  510MOL0     C68770   4.156   2.551   7.673  0.3436 -1.7349  0.8448
  510MOL0     C68771   4.252   2.649   7.635  1.5374 -0.0398 -0.1205
  510MOL0     C68772   4.390   2.636   7.666 -0.2335 -0.3088  1.1322
  510MOL0     C68773   4.434   2.531   7.743  0.3254  0.7823 -0.2085
  510MOL0     O68774   4.566   2.531   7.772  0.0493 -0.6871 -0.5643
  510MOL0     C68775   4.605   2.455   7.889 -0.5617  0.4836 -0.3648
  510MOL0     C68776   4.695   2.348   7.842 -0.4247 -0.9378 -0.4821
  510MOL0     C68777   4.833   2.403   7.815 -0.5617 -0.2629  0.0276
  510MOL0     C68778   4.937   2.325   7.735  0.3621  0.4469  0.1298
  510MOL0     C68779   4.948   2.183   7.759 -0.1291  0.2208 -1.8733
  510MOL0     C68780   4.967   2.062   7.779 -0.6259  0.1199  0.9720
  510MOL0     C68781   4.336   2.435   7.785 -0.9094  0.2289 -0.2299
  510MOL0     C68782   4.206   2.447   7.750  0.5320  0.1596 -0.1727
  510MOL0     H68783   3.811   2.337   7.448 -1.7783 -3.2508  0.7410
  510MOL0     H68784   3.582   2.366   7.408  2.2969 -1.1880 -0.3572
  510MOL0     H68785   3.307   2.431   7.733 -0.2542  2.6062  2.8209
  510MOL0     H68786   3.341   2.597   7.712  2.0395  0.1867 -1.1764
  510MOL0     H68787   3.187   2.619   7.529  1.3778 -0.4456 -1.3238
  510MOL0     H68788   3.149   2.432   7.533 -3.0516 -0.4956  2.0248
  510MOL0     H68789   3.052   2.460   7.752  3.3552  0.9289  1.7135
  510MOL0     H68790   3.102   2.621   7.769 -1.2913  1.2830 -0.1699
  510MOL0     H68791   2.976   2.705   7.567  0.9801 -0.6979 -2.1554
  510MOL0     H68792   2.927   2.545   7.528  1.8006  1.3514 -0.2294
  510MOL0     H68793   2.791   2.546   7.755 -1.4929  0.0211  0.1747
  510MOL0     H68794   2.839   2.715   7.769  1.3967 -1.3491  2.5158
  510MOL0     H68795   2.655   2.574   7.555  0.6869 -0.0657 -0.8849
  510MOL0     H68796   2.606   2.676   7.688  0.9028 -0.1920  0.8627
  510MOL0     H68797   2.758   2.861   7.568  0.1854 -0.2260 -0.7410
  510MOL0     H68798   2.758   2.742   7.435  0.5330 -1.1875  0.2296
  510MOL0     H68799   2.508   2.855   7.570  0.0755  0.6466 -0.9310
  510MOL0     H68800   2.520   2.754   7.424  1.1626 -0.6281  0.4589
  510MOL0     H68801   2.548   2.872   7.190 -1.0743  0.8113 -0.4374
  510MOL0     H68802   2.625   3.226   7.064  0.4578 -1.1120 -1.5551
  510MOL0     H68803   2.600   3.068   7.003 -1.5360 -2.7390  0.4354
  510MOL0     H68804   2.372   3.254   7.105  1.1705  0.3289  0.2378
  510MOL0     H68805   2.358   3.085   7.062 -2.3154  0.8778 -1.8865
  510MOL0     H68806   2.424   3.156   6.823  0.1298  0.6942 -1.6499
  510MOL0     H68807   2.425   3.322   6.878 -1.1760  0.1137  1.4080
  510MOL0     H68808   2.174   3.146   6.872 -1.5228  0.1888  0.3297
  510MOL0     H68809   2.220   3.273   6.761  0.8839  0.8166  0.3696
  510MOL0     H68810   2.098   3.502   7.133 -0.3614 -3.2669  2.2941
  510MOL0     H68811   1.952   3.647   7.241 -0.3462  1.9515 -0.4937
  510MOL0     H68812   1.911   3.752   7.106  0.1568  0.7923  1.0413
  510MOL0     H68813   1.779   3.666   7.202  0.0151 -1.9751  0.7166
  510MOL0     H68814   1.635   3.864   6.851  0.9857 -1.4634 -0.3725
  510MOL0     H68815   1.401   4.010   6.830 -1.8109 -0.8140  1.2775
  510MOL0     H68816   1.058   3.784   6.675 -1.6724  0.1028 -1.4963
  510MOL0     H68817   1.027   3.821   6.849  2.3142  1.8814  1.1497
  510MOL0     H68818   0.849   3.920   6.719 -0.0469  0.5844  1.4966
  510MOL0     H68819   0.958   4.052   6.774 -0.5172  2.0664 -2.0370
  510MOL0     H68820   0.910   3.941   6.497  0.4690 -0.9342  0.8232
  510MOL0     H68821   1.068   3.989   6.530  0.2161 -2.9624 -1.4474
  510MOL0     H68822   0.813   4.146   6.586  0.8904 -0.9857 -0.2726
  510MOL0     H68823   0.984   4.219   6.580  0.5607 -0.3972  0.0199
  510MOL0     H68824   0.872   4.280   6.391 -0.0150  0.2036  1.1072
  510MOL0     H68825   0.826   4.116   6.344  0.0482 -2.0707  1.0472
  510MOL0     H68826   1.108   4.237   6.352 -0.0058  0.6769 -1.5662
  510MOL0     H68827   1.077   4.068   6.331  2.4527  1.9022  1.4584
  510MOL0     H68828   0.993   4.288   6.138  2.0142  0.6655  1.2548
  510MOL0     H68829   0.933   4.129   6.125 -0.4184 -0.0532  1.5612
  510MOL0     H68830   1.117   4.162   5.968 -0.1899  0.3416 -0.3380
  510MOL0     H68831   1.191   4.064   6.095 -1.8879 -0.7717  0.2621
  510MOL0     H68832   1.217   3.670   6.671  3.0472  0.7730 -3.6297
  510MOL0     H68833   1.404   3.532   6.717 -1.4837 -1.1170  2.8474
  510MOL0     H68834   1.767   3.393   6.766  0.2334 -0.9541  0.4322
  510MOL0     H68835   1.973   3.264   6.799 -0.1117  0.7674 -1.4863
  510MOL0     H68836   3.533   2.605   7.755 -1.1575 -0.6583 -1.8820
  510MOL0     H68837   3.771   2.567   7.813  1.7343 -4.1740  0.7408
  510MOL0     H68838   4.227   2.740   7.580 -0.8361 -0.2327  0.5523
  510MOL0     H68839   4.438   2.731   7.647 -2.9475  1.2294  1.4628
  510MOL0     H68840   4.659   2.518   7.960 -1.8445  3.0099 -1.4885
  510MOL0     H68841   4.521   2.416   7.946  1.9243 -0.9479  2.5710
  510MOL0     H68842   4.654   2.313   7.747 -1.4085  2.0340 -1.2724
  510MOL0     H68843   4.700   2.273   7.921 -0.3165  2.1306  2.6929
  510MOL0     H68844   4.875   2.401   7.916 -0.6470  0.5830  0.0884
  510MOL0     H68845   4.827   2.505   7.775 -2.0898 -0.4685 -0.3152
  510MOL0     H68846   5.037   2.369   7.738  1.2066 -1.3976  3.5472
  510MOL0     H68847   4.911   2.329   7.628  1.9783 -0.5298 -0.3247
  510MOL0     H68848   4.995   1.967   7.818  0.6596 -0.2382 -0.7400
  510MOL0     H68849   4.375   2.348   7.838  0.7016  0.3600 -1.1301
  510MOL0     H68850   4.145   2.358   7.769  1.6917 -0.1233  2.7041
  511MOL0     O68851   9.042  10.351   3.965  0.8001  0.9481 -0.2480
  511MOL0     C68852   8.972  10.322   4.060  0.4505 -0.1289 -0.8952
  511MOL0     O68853   8.838  10.316   4.056  0.0289  0.0448 -0.3008
  511MOL0     C68854   8.774  10.364   3.940  0.4649 -0.4943  0.2769
  511MOL0     C68855   8.812  10.470   3.858  0.4356 -0.7203 -0.9102
  511MOL0     C68856   8.729  10.507   3.748 -0.7881  0.3049 -0.2144
  511MOL0     C68857   8.608  10.432   3.717 -1.1268  0.6542 -0.7020
  511MOL0     O68858   8.518  10.448   3.614  0.3523 -0.4320 -0.2138
  511MOL0     C68859   8.502  10.584   3.567 -0.1840 -0.1167 -0.5644
  511MOL0     C68860   8.411  10.669   3.664 -0.6461  1.0007 -0.5293
  511MOL0     C68861   8.296  10.588   3.739  0.3195  0.5521 -0.7376
  511MOL0     C68862   8.199  10.677   3.815 -0.2304  0.2815 -0.3069
  511MOL0     C68863   8.072  10.618   3.870 -0.0669 -0.6061  0.0253
  511MOL0     C68864   7.986  10.568   3.750  0.0834  0.3042  0.4747
  511MOL0     C68865   7.838  10.557   3.785  0.2435  0.7169 -0.1134
  511MOL0     C68866   7.738  10.514   3.679 -0.4585  0.5458 -0.1767
  511MOL0     N68867   7.596  10.515   3.734  0.3971 -0.4134  0.0319
  511MOL0     C68868   7.540  10.621   3.804 -1.4718  0.8616 -0.2619
  511MOL0     C68869   7.426  10.580   3.848 -1.3818 -1.0713 -0.2775
  511MOL0     C68870   7.343  10.668   3.939 -0.8418  0.1090 -1.0013
  511MOL0     C68871   7.192  10.643   3.943 -0.1203 -0.4610 -0.1614
  511MOL0     C68872   7.113  10.747   4.033  0.4272 -0.1601 -0.6227
  511MOL0     C68873   6.963  10.711   4.039  0.5422  0.0174  0.5035
  511MOL0     O68874   6.898  10.802   4.125 -0.3026 -0.1251 -0.4257
  511MOL0     C68875   6.758  10.794   4.136  0.1005  0.3108 -0.2298
  511MOL0     C68876   6.689  10.885   4.213  1.5962 -0.3616  0.0864
  511MOL0     C68877   6.548  10.882   4.234 -0.0433  0.8601 -0.4183
  511MOL0     C68878   6.489  10.989   4.317 -0.6347  0.0676  0.0270
  511MOL0     C68879   6.478  10.770   4.175  0.1913  0.0826 -0.0166
  511MOL0     C68880   6.328  10.753   4.188 -0.2898 -0.6684 -0.1474
  511MOL0     O68881   6.261  10.656   4.115 -0.3254 -0.3226 -0.5083
  511MOL0     C68882   6.131  10.685   4.077  0.1801  0.8999 -0.4211
  511MOL0     C68883   6.028  10.713   4.167  1.3649  1.0930  0.0433
  511MOL0     C68884   5.905  10.756   4.128  0.8793  0.2176  0.2896
  511MOL0     C68885   5.879  10.782   3.989  0.5594 -0.0670 -1.0277
  511MOL0     O68886   5.771  10.851   3.940  0.0726  0.2501 -0.6367
  511MOL0     C68887   5.653  10.760   3.947  0.3852 -0.0309 -0.5219
  511MOL0     C68888   5.520  10.822   3.984 -1.5437 -0.2450  0.3852
  511MOL0     C68889   5.415  10.722   4.002  0.9497 -0.4243  0.4847
  511MOL0     C68890   5.336  10.718   3.868  0.2778  0.3658 -0.8588
  511MOL0     C68891   5.209  10.642   3.868 -0.5929  0.4571 -0.8082
  511MOL0     C68892   5.146  10.627   3.726  0.4385 -1.0580 -0.4189
  511MOL0     C68893   5.005  10.563   3.741  0.1961 -0.4829 -0.1199
  511MOL0     C68894   4.943  10.531   3.608  0.2046  0.1103  0.0851
  511MOL0    Cl68895   5.015  10.375   3.541 -0.1873 -0.5136  0.3643
  511MOL0     C68896   5.986  10.762   3.901  0.2365  0.2498 -0.4912
  511MOL0     C68897   6.108  10.709   3.940  0.1470 -0.8765  0.1286
  511MOL0     O68898   6.274  10.829   4.266  0.3250 -0.5448  0.6535
  511MOL0     C68899   6.552  10.676   4.099  0.0860 -0.8254 -0.0822
  511MOL0     C68900   6.688  10.691   4.077  0.6677  0.1921  0.5063
  511MOL0     N68901   7.397  10.453   3.793  0.3031 -0.3240  0.4226
  511MOL0     N68902   7.501  10.417   3.724 -0.8554  0.7532 -0.6801
  511MOL0     C68903   8.575  10.325   3.799 -0.7879 -0.0615 -1.0392
  511MOL0     C68904   8.657  10.296   3.907  0.6560  0.3300  0.1603
  511MOL0     C68905   9.033  10.302   4.188  0.6569  0.1880  0.2690
  511MOL0     C68906   8.958  10.281   4.306 -0.3809 -0.2635  0.9780
  511MOL0     C68907   9.019  10.260   4.429 -0.6182  0.1880  1.1762
  511MOL0     C68908   9.164  10.253   4.444 -0.3000 -0.4755  0.2894
  511MOL0     O68909   9.212  10.214   4.562 -0.6868 -0.4641  0.1657
  511MOL0     C68910   9.329  10.277   4.607 -1.0284 -0.7236  0.2936
  511MOL0     C68911   9.394  10.199   4.725 -0.5235 -0.3699 -0.0639
  511MOL0     C68912   9.484  10.294   4.823  0.9418  0.2582  0.2847
  511MOL0     C68913   9.593  10.380   4.756 -0.1000 -0.0380  0.1840
  511MOL0     C68914   9.712  10.314   4.718  0.1178 -0.6056 -0.4263
  511MOL0     C68915   9.824  10.291   4.688 -1.4071 -0.3489 -0.6402
  511MOL0     C68916   9.236  10.284   4.324 -0.6748 -0.0267 -0.4130
  511MOL0     C68917   9.174  10.308   4.202  0.4016 -0.6277  0.4716
  511MOL0     H68918   8.901  10.526   3.886  1.0997 -3.0356  2.0917
  511MOL0     H68919   8.767  10.594   3.695  2.6023 -1.0150 -0.1667
  511MOL0     H68920   8.593  10.642   3.550 -0.7128  1.1239  0.6616
  511MOL0     H68921   8.457  10.574   3.467 -0.9138 -1.4235 -0.1444
  511MOL0     H68922   8.480  10.697   3.744  1.5086 -2.2656 -1.0865
  511MOL0     H68923   8.365  10.757   3.618 -2.0766  0.5246 -0.0627
  511MOL0     H68924   8.260  10.517   3.663  2.2709 -0.4641 -0.7851
  511MOL0     H68925   8.340  10.535   3.824  0.6006  2.6057  0.4462
  511MOL0     H68926   8.253  10.721   3.899  0.6549 -2.3785  0.6395
  511MOL0     H68927   8.174  10.758   3.746  1.9417  2.4440  1.3002
  511MOL0     H68928   8.087  10.536   3.941  1.0836 -2.1093 -1.8687
  511MOL0     H68929   8.004  10.692   3.914 -1.7053 -1.5094 -0.8719
  511MOL0     H68930   8.001  10.630   3.661  0.8661  1.0814  1.1313
  511MOL0     H68931   8.025  10.468   3.730 -0.3939  0.3845 -0.9093
  511MOL0     H68932   7.831  10.480   3.863  1.6372 -0.1631 -0.8181
  511MOL0     H68933   7.805  10.656   3.818 -0.9038 -0.0029  1.0004
  511MOL0     H68934   7.765  10.413   3.648  0.5352  0.7710 -0.0766
  511MOL0     H68935   7.741  10.592   3.601 -2.1233  0.1428 -0.6807
  511MOL0     H68936   7.587  10.718   3.812  1.7652 -0.7119  2.3178
  511MOL0     H68937   7.370  10.649   4.043 -5.1640 -1.9262 -0.0377
  511MOL0     H68938   7.361  10.772   3.912 -1.0447 -0.2762 -2.7594
  511MOL0     H68939   7.180  10.548   3.995  2.1094 -1.8131 -1.9112
  511MOL0     H68940   7.146  10.634   3.844 -1.8184 -4.1747  0.7788
  511MOL0     H68941   7.128  10.843   3.983  0.4027 -0.2818 -0.8663
  511MOL0     H68942   7.153  10.748   4.135 -0.5986 -1.2439 -0.1880
  511MOL0     H68943   6.952  10.609   4.077 -0.3757  0.9765  2.9831
  511MOL0     H68944   6.916  10.719   3.940  1.5848 -0.6617 -0.0678
  511MOL0     H68945   6.752  10.964   4.252 -0.6712  0.6312  1.9995
  511MOL0     H68946   6.562  11.058   4.360  1.8043 -2.8467  0.9197
  511MOL0     H68947   6.419  11.043   4.251 -1.4845 -1.3325 -0.2498
  511MOL0     H68948   6.437  10.956   4.407 -1.3179  0.3298 -0.2618
  511MOL0     H68949   6.045  10.725   4.274 -0.9440 -1.2221  0.7791
  511MOL0     H68950   5.821  10.764   4.196 -0.5098 -2.6149 -0.9261
  511MOL0     H68951   5.638  10.708   3.852  0.7118 -0.3946 -0.3775
  511MOL0     H68952   5.665  10.684   4.024 -0.3116  1.4347  1.0956
  511MOL0     H68953   5.524  10.886   4.073  0.5789  2.2937 -1.3743
  511MOL0     H68954   5.503  10.884   3.895  1.8954 -1.3421 -1.1955
  511MOL0     H68955   5.354  10.758   4.085  0.8580 -0.1278  0.2911
  511MOL0     H68956   5.451  10.621   4.021 -1.5348 -1.5674 -0.4774
  511MOL0     H68957   5.302  10.815   3.830  1.0042  0.2457 -1.8825
  511MOL0     H68958   5.408  10.675   3.797  0.9047  1.2923 -0.8003
  511MOL0     H68959   5.134  10.691   3.931  0.5150  1.9216 -0.5842
  511MOL0     H68960   5.234  10.542   3.904  2.0903  0.3166 -2.7521
  511MOL0     H68961   5.120  10.726   3.685  1.9443 -0.2835  0.4152
  511MOL0     H68962   5.219  10.581   3.660  3.8413  1.3441  1.3716
  511MOL0     H68963   4.943  10.643   3.783  0.7352  1.2161 -2.3522
  511MOL0     H68964   5.006  10.473   3.804  0.2436  0.7156  1.6494
  511MOL0     H68965   4.973  10.607   3.536  0.6540  0.0406  0.1957
  511MOL0     H68966   4.835  10.520   3.615 -0.2479  0.6419 -3.7783
  511MOL0     H68967   5.967  10.771   3.794 -1.7501 -2.9896 -0.5365
  511MOL0     H68968   6.182  10.692   3.863 -0.4847  1.9849 -1.2380
  511MOL0     H68969   6.498  10.592   4.056 -1.9088 -0.0422  0.7324
  511MOL0     H68970   6.734  10.611   4.021  0.5382  2.4810 -3.2353
  511MOL0     H68971   8.483  10.270   3.783 -1.0374  0.8108 -2.8443
  511MOL0     H68972   8.623  10.215   3.970  0.5100 -0.4851 -0.9276
  511MOL0     H68973   8.849  10.272   4.309 -0.3498 -2.3375 -1.2494
  511MOL0     H68974   8.962  10.230   4.516 -1.5059 -2.1356 -0.1100
  511MOL0     H68975   9.412  10.286   4.537 -0.1459 -0.2522  1.3712
  511MOL0     H68976   9.306  10.381   4.636  3.9548  1.2800 -1.9247
  511MOL0     H68977   9.456  10.117   4.685 -1.4480 -0.2589 -1.8048
  511MOL0     H68978   9.313  10.164   4.790 -0.2666  2.0976  1.7254
  511MOL0     H68979   9.537  10.227   4.892  0.0379 -3.4369 -2.2810
  511MOL0     H68980   9.425  10.370   4.874  0.8716  0.4355 -0.0529
  511MOL0     H68981   9.622  10.466   4.816 -2.8019  2.2208 -1.5195
  511MOL0     H68982   9.559  10.426   4.663  0.6526  1.0694  0.4360
  511MOL0     H68983   9.921  10.285   4.643 -2.4196  0.1912 -3.0780
  511MOL0     H68984   9.344  10.293   4.320 -0.3136 -3.2142 -0.0974
  511MOL0     H68985   9.244  10.341   4.125 -2.0132 -1.4206 -2.2356
  512MOL0     O68986   4.957   5.907   4.361 -0.0427 -0.2294  0.0671
  512MOL0     C68987   5.026   5.908   4.461  0.0745 -1.1525 -0.1894
  512MOL0     O68988   4.995   5.870   4.581  0.5380 -0.4743  0.8966
  512MOL0     C68989   4.871   5.808   4.601  0.6864 -0.1807  0.5421
  512MOL0     C68990   4.863   5.686   4.661 -0.2558  1.2694 -0.7245
  512MOL0     C68991   4.744   5.613   4.682 -0.2070  0.1842 -0.4547
  512MOL0     C68992   4.629   5.670   4.636  0.1945 -0.7402 -1.0325
  512MOL0     O68993   4.511   5.607   4.646  0.2685 -0.3839  1.0230
  512MOL0     C68994   4.397   5.686   4.616  0.3704 -0.1353  0.4046
  512MOL0     C68995   4.282   5.594   4.614  0.7963 -0.1596 -0.5843
  512MOL0     C68996   4.142   5.661   4.570  0.6612 -0.0845 -0.1402
  512MOL0     C68997   4.033   5.654   4.688  0.3624 -0.2689  0.2753
  512MOL0     C68998   3.892   5.673   4.625  0.1007 -1.1314  0.8071
  512MOL0     C68999   3.787   5.662   4.734 -0.3118  0.4620  0.4968
  512MOL0     C69000   3.645   5.689   4.688  0.0868 -0.7120  1.1259
  512MOL0     C69001   3.534   5.628   4.770 -0.5521  0.2781 -0.5234
  512MOL0     N69002   3.404   5.662   4.714 -0.9747  0.4160  0.6892
  512MOL0     C69003   3.352   5.631   4.590  0.2739  0.6691 -0.0344
  512MOL0     C69004   3.222   5.654   4.598 -0.1369  0.4285 -0.0183
  512MOL0     C69005   3.116   5.609   4.503  0.5071 -0.0239  0.1058
  512MOL0     C69006   3.125   5.460   4.508  0.3371 -0.5398  0.7442
  512MOL0     C69007   3.097   5.395   4.645 -0.0022 -0.2734  0.4139
  512MOL0     C69008   3.086   5.240   4.647  1.0046  0.0817  0.6688
  512MOL0     O69009   2.968   5.190   4.577 -0.8627 -0.7246 -0.7985
  512MOL0     C69010   2.837   5.195   4.635  0.3029 -0.2879  1.1427
  512MOL0     C69011   2.813   5.243   4.760  0.1438 -0.8118 -0.1898
  512MOL0     C69012   2.674   5.255   4.803 -0.1908  0.3679 -0.1579
  512MOL0     C69013   2.648   5.324   4.936 -1.0300  0.3463  0.3824
  512MOL0     C69014   2.581   5.181   4.736  1.0288 -0.1108 -0.5403
  512MOL0     C69015   2.434   5.154   4.791 -0.8522  0.3265 -0.3815
  512MOL0     O69016   2.356   5.091   4.697  0.5494 -0.0801 -0.0969
  512MOL0     C69017   2.225   5.061   4.736  0.1788  0.1397  0.7346
  512MOL0     C69018   2.135   5.167   4.734 -0.3444  0.3730 -0.1793
  512MOL0     C69019   2.010   5.158   4.787  0.2134  0.3884  0.5196
  512MOL0     C69020   1.968   5.042   4.852  0.6580  0.3523 -0.4042
  512MOL0     O69021   1.854   5.030   4.940 -0.0929  0.3504 -0.3982
  512MOL0     C69022   1.753   5.130   4.938 -0.2003  0.1615  0.1429
  512MOL0     C69023   1.611   5.071   4.939  1.1743  0.6278 -0.3239
  512MOL0     C69024   1.487   5.166   4.929  0.1457 -0.0917 -0.1369
  512MOL0     C69025   1.459   5.194   5.072  0.9564 -0.4884  0.0103
  512MOL0     C69026   1.368   5.322   5.086 -0.1298  0.0440  0.6495
  512MOL0     C69027   1.333   5.361   5.235 -0.7567  0.0299 -0.6464
  512MOL0     C69028   1.206   5.288   5.279  0.2608  0.6535  0.9163
  512MOL0     C69029   1.073   5.366   5.276  0.4551  1.0383 -0.6711
  512MOL0    Cl69030   1.029   5.446   5.120 -0.1457 -0.5279 -0.0034
  512MOL0     C69031   2.047   4.925   4.837 -0.0362 -0.5098  0.0287
  512MOL0     C69032   2.183   4.934   4.796 -0.1566  0.1107  0.2581
  512MOL0     O69033   2.398   5.189   4.903  0.7770 -0.1910  1.0994
  512MOL0     C69034   2.612   5.124   4.608  0.2730  0.4065 -0.2201
  512MOL0     C69035   2.742   5.142   4.557  0.2421 -0.3783 -0.5193
  512MOL0     N69036   3.195   5.719   4.709  0.1885 -0.0211  0.0871
  512MOL0     N69037   3.302   5.717   4.785 -0.2966 -0.9550 -0.1825
  512MOL0     C69038   4.637   5.799   4.576  1.0779 -0.2728  0.5220
  512MOL0     C69039   4.755   5.862   4.551 -0.6329  0.7067 -0.7727
  512MOL0     C69040   5.173   5.959   4.450  0.3842  0.7211 -0.0379
  512MOL0     C69041   5.243   5.994   4.328  0.2735 -0.5323  0.2232
  512MOL0     C69042   5.381   6.030   4.321  0.1856 -1.2148  0.1569
  512MOL0     C69043   5.459   6.029   4.438  0.0946 -0.1869  0.3394
  512MOL0     O69044   5.599   6.061   4.436 -0.0507 -0.1540  0.1320
  512MOL0     C69045   5.671   6.043   4.313  0.3265  0.1445  0.3740
  512MOL0     C69046   5.702   5.896   4.270  0.9983  0.2069 -0.2018
  512MOL0     C69047   5.789   5.826   4.376 -0.6915  1.0008 -1.3157
  512MOL0     C69048   5.796   5.673   4.368  0.8136  1.0533  0.6876
  512MOL0     C69049   5.843   5.623   4.498  0.3195  0.2810 -0.1205
  512MOL0     C69050   5.885   5.576   4.597 -0.4749 -0.1264  0.6106
  512MOL0     C69051   5.396   5.993   4.558 -0.6364  0.7278  0.0422
  512MOL0     C69052   5.260   5.963   4.555 -0.3417  0.5261  0.9929
  512MOL0     H69053   4.954   5.634   4.692 -2.7672 -3.1990  0.0321
  512MOL0     H69054   4.735   5.517   4.733  1.4063  0.0804 -0.3390
  512MOL0     H69055   4.384   5.771   4.684  1.2844  1.1086 -0.8876
  512MOL0     H69056   4.402   5.721   4.512 -0.9275 -2.1977 -0.4176
  512MOL0     H69057   4.306   5.502   4.560 -0.2809 -2.1175  2.0716
  512MOL0     H69058   4.264   5.566   4.718 -2.8460 -3.4903 -1.8653
  512MOL0     H69059   4.162   5.765   4.542 -1.6392  1.1231  2.2056
  512MOL0     H69060   4.115   5.606   4.480 -1.6344 -2.5701  1.8988
  512MOL0     H69061   4.043   5.560   4.744 -1.4970  0.2470  1.5494
  512MOL0     H69062   4.051   5.735   4.760  3.3257 -2.9488  2.9133
  512MOL0     H69063   3.890   5.774   4.584  0.6310 -1.5373 -0.2408
  512MOL0     H69064   3.879   5.590   4.555  0.1745 -2.0486  1.8541
  512MOL0     H69065   3.792   5.555   4.757  0.5081  0.3089 -0.3393
  512MOL0     H69066   3.820   5.728   4.815  1.5293  1.8674 -1.2726
  512MOL0     H69067   3.638   5.798   4.677  3.6418 -0.3817  1.1756
  512MOL0     H69068   3.642   5.659   4.583  1.7568  1.0312  0.5210
  512MOL0     H69069   3.543   5.664   4.874 -1.8036 -2.4055  0.5874
  512MOL0     H69070   3.533   5.519   4.774 -0.6930  0.2498 -1.3060
  512MOL0     H69071   3.405   5.579   4.511  1.5426  0.5345  0.8676
  512MOL0     H69072   3.017   5.648   4.529 -0.4309 -2.7386  1.0188
  512MOL0     H69073   3.132   5.645   4.401 -1.0152  1.4899  0.3569
  512MOL0     H69074   3.218   5.426   4.461  0.2497 -0.3606  0.4356
  512MOL0     H69075   3.043   5.436   4.440  0.4301 -2.6319  1.3005
  512MOL0     H69076   2.998   5.433   4.675  0.0700 -0.1423  0.4886
  512MOL0     H69077   3.173   5.430   4.716 -0.8663 -1.2273  1.8569
  512MOL0     H69078   3.083   5.198   4.748  0.5886 -0.8697  0.2785
  512MOL0     H69079   3.181   5.208   4.603  2.0765  2.2257  1.2791
  512MOL0     H69080   2.891   5.275   4.827  0.5807 -1.5871 -0.3107
  512MOL0     H69081   2.639   5.258   5.023  0.7819  0.6603  0.8503
  512MOL0     H69082   2.734   5.387   4.961 -1.5781  1.0812  0.4365
  512MOL0     H69083   2.562   5.390   4.924 -0.4987  0.8100 -1.0239
  512MOL0     H69084   2.147   5.257   4.674  1.7993 -1.5807 -2.9289
  512MOL0     H69085   1.941   5.242   4.788 -0.1165  0.1184  0.9579
  512MOL0     H69086   1.767   5.207   5.014  0.2621  1.1924 -0.9509
  512MOL0     H69087   1.758   5.173   4.837 -1.3206  1.7718  0.7442
  512MOL0     H69088   1.600   4.993   4.862  2.2164  0.1738 -0.0339
  512MOL0     H69089   1.600   5.015   5.032 -1.7716  0.5826 -0.6054
  512MOL0     H69090   1.401   5.119   4.883  1.1427 -1.4318 -0.6896
  512MOL0     H69091   1.507   5.261   4.878 -0.1118  0.1300  0.1722
  512MOL0     H69092   1.411   5.105   5.115 -1.7164 -0.3694 -2.3786
  512MOL0     H69093   1.547   5.206   5.135  0.8685 -2.4433  0.5752
  512MOL0     H69094   1.276   5.314   5.028 -1.8929  2.8696  2.8009
  512MOL0     H69095   1.427   5.407   5.049 -3.6870  3.2234  1.6281
  512MOL0     H69096   1.416   5.334   5.301 -1.3395 -2.8190 -0.9541
  512MOL0     H69097   1.318   5.469   5.246  1.3895  0.4749 -1.4707
  512MOL0     H69098   1.224   5.271   5.385 -0.7446  4.3829  1.8469
  512MOL0     H69099   1.197   5.193   5.226  0.7902  2.1670 -2.0918
  512MOL0     H69100   1.098   5.447   5.345  2.7772 -2.1059  2.5794
  512MOL0     H69101   0.985   5.316   5.318  1.3734  1.7457  2.3772
  512MOL0     H69102   2.018   4.829   4.881 -0.5639  0.3533  1.6432
  512MOL0     H69103   2.247   4.846   4.788  1.5675  1.2798  0.6876
  512MOL0     H69104   2.540   5.062   4.557 -1.0936  0.0884  1.9421
  512MOL0     H69105   2.759   5.118   4.452 -1.3980  2.0600 -1.4391
  512MOL0     H69106   4.552   5.862   4.549  0.3373  0.1069  3.3651
  512MOL0     H69107   4.758   5.963   4.512 -0.6501  1.4964  1.1668
  512MOL0     H69108   5.181   5.999   4.239 -1.0926 -0.6293  1.1392
  512MOL0     H69109   5.412   6.062   4.222 -2.8467 -0.0127 -0.5505
  512MOL0     H69110   5.629   6.079   4.219  3.2403  1.8138 -0.4136
  512MOL0     H69111   5.769   6.088   4.330  1.4089 -2.1818  0.7154
  512MOL0     H69112   5.736   5.899   4.166  0.5318  2.0625 -0.3499
  512MOL0     H69113   5.602   5.856   4.252  0.0044  1.7275  1.4567
  512MOL0     H69114   5.746   5.847   4.474  1.7707 -0.3450  0.1588
  512MOL0     H69115   5.890   5.869   4.381  1.1282 -2.8482  3.4555
  512MOL0     H69116   5.867   5.654   4.287 -0.2049 -0.7741  0.1761
  512MOL0     H69117   5.704   5.627   4.331  1.4328 -2.4408  3.0715
  512MOL0     H69118   5.928   5.553   4.693 -0.4131 -0.8065  0.4262
  512MOL0     H69119   5.452   5.980   4.650  0.2553 -2.3546 -0.8291
  512MOL0     H69120   5.216   5.955   4.654  1.0205 -0.5047  1.5520
  513MOL0     O69121   6.644   6.584   4.033  0.4089  0.6111 -0.4663
  513MOL0     C69122   6.753   6.628   4.069 -0.0801  0.4229  0.1148
  513MOL0     O69123   6.789   6.758   4.059  0.4724  0.2546 -0.0108
  513MOL0     C69124   6.709   6.848   4.001  0.9973  0.4045 -0.2643
  513MOL0     C69125   6.592   6.894   4.062 -0.4276 -0.1561 -0.7926
  513MOL0     C69126   6.515   6.994   4.003 -0.7702  0.7517 -0.3058
  513MOL0     C69127   6.550   7.059   3.886 -0.3187 -0.2292 -0.3099
  513MOL0     O69128   6.466   7.150   3.826  0.0558  0.0797 -0.1500
  513MOL0     C69129   6.489   7.209   3.697  0.0725  0.0937  0.5233
  513MOL0     C69130   6.350   7.249   3.632 -0.6956  0.8950 -0.5146
  513MOL0     C69131   6.369   7.330   3.497 -0.6497 -0.5665 -0.0361
  513MOL0     C69132   6.243   7.362   3.411 -0.5790 -0.4851 -0.1952
  513MOL0     C69133   6.262   7.410   3.272 -0.1155  0.5337  0.8688
  513MOL0     C69134   6.275   7.563   3.275  0.2063 -0.0528 -0.3921
  513MOL0     C69135   6.379   7.615   3.179  1.2720 -0.0930  0.0670
  513MOL0     C69136   6.375   7.567   3.032 -0.2148  0.0402  0.3400
  513MOL0     N69137   6.268   7.646   2.967 -1.0530 -0.3527  0.9518
  513MOL0     C69138   6.285   7.758   2.897 -1.1015 -0.0271  0.5550
  513MOL0     C69139   6.171   7.802   2.858 -0.2620 -0.5830 -0.1646
  513MOL0     C69140   6.151   7.933   2.788 -0.6766 -1.1000  0.0136
  513MOL0     C69141   6.100   7.909   2.643  0.3814 -0.4352  0.0722
  513MOL0     C69142   5.951   7.864   2.636 -0.7748  0.0341  0.4158
  513MOL0     C69143   5.899   7.895   2.491  0.1562  0.8320  0.1608
  513MOL0     O69144   5.753   7.884   2.511  0.4125 -0.4282  0.1517
  513MOL0     C69145   5.681   7.817   2.419 -0.0352  0.6869  0.2412
  513MOL0     C69146   5.554   7.774   2.464 -0.6424 -0.4104 -1.5207
  513MOL0     C69147   5.471   7.705   2.373 -0.5013 -0.6232 -0.0213
  513MOL0     C69148   5.326   7.697   2.424 -0.6044 -0.9437  0.6476
  513MOL0     C69149   5.511   7.661   2.253 -1.0757  0.3391 -0.4462
  513MOL0     C69150   5.432   7.579   2.162 -0.8028  0.8505  0.2430
  513MOL0     O69151   5.508   7.511   2.061 -0.0102  0.7701  0.0964
  513MOL0     C69152   5.428   7.427   1.985 -0.7355 -0.2672  0.1422
  513MOL0     C69153   5.319   7.476   1.911  0.8422  0.1924  0.2041
  513MOL0     C69154   5.233   7.392   1.835  0.3804 -0.1312 -0.3287
  513MOL0     C69155   5.252   7.254   1.830 -0.5782 -0.8253 -0.4420
  513MOL0     O69156   5.179   7.185   1.734 -0.5232  0.1449 -0.4115
  513MOL0     C69157   5.037   7.177   1.741 -0.2368  0.2486 -0.1539
  513MOL0     C69158   4.983   7.111   1.620 -0.1179  0.2138 -0.2135
  513MOL0     C69159   5.018   7.198   1.492  0.4009 -0.2751 -0.3012
  513MOL0     C69160   4.979   7.145   1.353  0.0068 -0.3607 -0.0418
  513MOL0     C69161   4.971   7.261   1.261  0.1088  0.3343 -0.0176
  513MOL0     C69162   4.938   7.218   1.115  0.4939  0.5323 -0.0463
  513MOL0     C69163   4.960   7.339   1.032  0.0171 -0.2666  0.3173
  513MOL0     C69164   4.870   7.331   0.908 -0.4666 -1.3024 -0.0437
  513MOL0    Cl69165   4.954   7.219   0.799 -0.3489  0.0161 -0.2194
  513MOL0     C69166   5.359   7.202   1.893 -0.7466 -0.1551 -0.4834
  513MOL0     C69167   5.447   7.288   1.978  0.1695  0.5325  0.2007
  513MOL0     O69168   5.313   7.558   2.184  0.5351 -0.4440  0.3226
  513MOL0     C69169   5.646   7.699   2.210  0.0894 -0.2957 -0.1931
  513MOL0     C69170   5.728   7.776   2.292  0.4847 -0.7890  0.4085
  513MOL0     N69171   6.072   7.712   2.899  0.7403 -1.1352 -0.8335
  513MOL0     N69172   6.136   7.625   2.958 -0.3209  0.9495  0.1747
  513MOL0     C69173   6.667   7.011   3.823  0.2195 -0.7453  0.2340
  513MOL0     C69174   6.748   6.911   3.884  0.2243 -1.0694  0.5589
  513MOL0     C69175   6.846   6.529   4.125 -0.4984 -0.0289  0.8283
  513MOL0     C69176   6.810   6.394   4.138 -0.0757 -0.2413  0.0078
  513MOL0     C69177   6.902   6.300   4.179 -0.2300 -0.4558 -0.6328
  513MOL0     C69178   7.030   6.331   4.216  0.4940 -0.2086  0.6419
  513MOL0     O69179   7.112   6.237   4.274  0.4390  0.2019  0.1217
  513MOL0     C69180   7.215   6.202   4.175  0.1141  0.2827 -0.5822
  513MOL0     C69181   7.306   6.078   4.216 -0.7153  0.4451  0.1578
  513MOL0     C69182   7.398   6.103   4.336 -0.0097 -0.0968  0.2702
  513MOL0     C69183   7.506   5.998   4.344 -0.0591 -0.8935  1.2111
  513MOL0     C69184   7.591   6.020   4.450 -0.0111 -0.3422  0.0681
  513MOL0     C69185   7.675   6.046   4.538  0.6371  0.3223 -0.8240
  513MOL0     C69186   7.070   6.458   4.213 -0.2597 -0.2942  0.1757
  513MOL0     C69187   6.981   6.557   4.156  0.4396 -0.4033 -0.4830
  513MOL0     H69188   6.549   6.849   4.151  0.7534 -1.5565 -0.8996
  513MOL0     H69189   6.416   7.020   4.041 -1.1127  0.5565 -1.0569
  513MOL0     H69190   6.543   7.304   3.709 -2.5799  2.0442 -1.5640
  513MOL0     H69191   6.542   7.136   3.636 -0.0796  0.1881  0.2779
  513MOL0     H69192   6.288   7.162   3.611 -0.9010  1.1544 -1.0189
  513MOL0     H69193   6.304   7.304   3.715  0.0600 -0.3902  0.8010
  513MOL0     H69194   6.409   7.426   3.532 -2.7574  0.3720 -0.0485
  513MOL0     H69195   6.442   7.284   3.429 -0.3864  0.7747 -0.7028
  513MOL0     H69196   6.192   7.266   3.397 -0.4292 -1.0320  2.4358
  513MOL0     H69197   6.179   7.434   3.463  0.6527 -0.0630  0.8032
  513MOL0     H69198   6.356   7.367   3.235  0.3236  0.6918  1.7845
  513MOL0     H69199   6.180   7.373   3.210 -0.1677 -1.8228  2.2373
  513MOL0     H69200   6.173   7.600   3.265 -1.0329 -2.6460  1.3866
  513MOL0     H69201   6.308   7.595   3.374 -0.1463 -0.3832 -0.1632
  513MOL0     H69202   6.371   7.723   3.168  0.9707 -0.1150  0.0619
  513MOL0     H69203   6.482   7.597   3.211  2.1807 -0.4020 -2.7727
  513MOL0     H69204   6.354   7.461   3.017 -0.7310 -0.1042  1.8934
  513MOL0     H69205   6.477   7.587   2.996  0.4831 -2.1491  0.9047
  513MOL0     H69206   6.374   7.820   2.891 -2.1599  1.6564  1.6438
  513MOL0     H69207   6.080   7.995   2.844  2.1029  3.3736 -0.9323
  513MOL0     H69208   6.241   7.995   2.784 -3.3173  3.0898 -1.4143
  513MOL0     H69209   6.144   7.823   2.591 -0.0528  0.2412 -1.4612
  513MOL0     H69210   6.135   7.997   2.588  0.5587  0.0967  1.0251
  513MOL0     H69211   5.893   7.915   2.713 -0.8261 -2.1510  1.9000
  513MOL0     H69212   5.931   7.757   2.648 -0.7453 -0.1191 -0.7393
  513MOL0     H69213   5.946   7.827   2.420  2.0937  3.0533 -0.8056
  513MOL0     H69214   5.931   7.988   2.442  1.2592 -0.0554 -0.8750
  513MOL0     H69215   5.523   7.801   2.564  0.8350  0.2026 -1.1889
  513MOL0     H69216   5.307   7.592   2.448 -2.6294 -1.2370 -1.8150
  513MOL0     H69217   5.304   7.767   2.505 -1.3066 -0.7509  0.2913
  513MOL0     H69218   5.262   7.729   2.342  1.2935  1.7320  0.0799
  513MOL0     H69219   5.292   7.581   1.913 -2.2799 -0.5076  0.1902
  513MOL0     H69220   5.159   7.441   1.773  0.7270 -1.2729 -1.7170
  513MOL0     H69221   5.015   7.120   1.832  0.3839  1.4275  0.7674
  513MOL0     H69222   4.993   7.276   1.755 -1.0935 -0.0227 -0.8683
  513MOL0     H69223   5.019   7.011   1.597 -4.1149 -1.8647  1.4743
  513MOL0     H69224   4.874   7.098   1.621 -0.2382  1.1424 -0.2751
  513MOL0     H69225   5.122   7.234   1.498  0.0997  0.3400  1.6997
  513MOL0     H69226   4.964   7.291   1.510 -1.0780 -0.7848 -1.8991
  513MOL0     H69227   5.045   7.061   1.329  1.6447  1.7850 -4.1550
  513MOL0     H69228   4.878   7.106   1.369  0.1969  0.0249  2.4330
  513MOL0     H69229   5.064   7.319   1.270 -0.4407  1.1254  0.6879
  513MOL0     H69230   4.895   7.333   1.295 -0.9885 -0.9318  0.2803
  513MOL0     H69231   4.993   7.128   1.086 -1.8767 -2.0207  2.6774
  513MOL0     H69232   4.832   7.190   1.108  0.7433 -0.2792 -0.7547
  513MOL0     H69233   5.064   7.344   0.996 -0.2789 -0.8403 -0.6501
  513MOL0     H69234   4.948   7.432   1.088 -0.4530  0.1490 -0.4537
  513MOL0     H69235   4.871   7.425   0.853  2.2075 -0.1691  1.7508
  513MOL0     H69236   4.768   7.296   0.930 -1.4060 -0.3696 -2.5178
  513MOL0     H69237   5.373   7.095   1.891 -0.6572 -0.1720  0.7030
  513MOL0     H69238   5.531   7.239   2.026  0.3128  0.6264  0.0506
  513MOL0     H69239   5.682   7.675   2.111  0.7625 -1.8184  0.3879
  513MOL0     H69240   5.809   7.829   2.242 -2.0393  3.1020 -0.0139
  513MOL0     H69241   6.698   7.054   3.728 -1.4926  0.6674  0.2609
  513MOL0     H69242   6.841   6.875   3.841 -0.5538 -1.6549 -0.7009
  513MOL0     H69243   6.711   6.357   4.111 -0.1263 -0.8925  1.0382
  513MOL0     H69244   6.873   6.198   4.203  1.9237 -1.0706 -0.3704
  513MOL0     H69245   7.160   6.175   4.085  0.5267 -0.9642 -0.4789
  513MOL0     H69246   7.285   6.285   4.160 -1.4589  2.2617  2.0504
  513MOL0     H69247   7.376   6.050   4.136  0.8708  0.5585  1.4663
  513MOL0     H69248   7.253   5.985   4.238 -0.6433  0.2280 -0.5331
  513MOL0     H69249   7.340   6.096   4.429  0.2805  4.1249  0.9512
  513MOL0     H69250   7.453   6.195   4.319 -0.2876 -0.0399 -0.3368
  513MOL0     H69251   7.566   5.998   4.253  0.1707  2.8819  1.2182
  513MOL0     H69252   7.475   5.894   4.356  4.5924 -2.9162 -1.6239
  513MOL0     H69253   7.756   6.068   4.605  0.0564  2.5193 -0.7723
  513MOL0     H69254   7.168   6.477   4.256 -1.0078 -1.8223  2.7747
  513MOL0     H69255   7.010   6.658   4.129 -2.9470  0.4538 -1.4146
  514MOL0     O69256   1.397   2.569   7.329 -0.2051  0.0872 -0.1107
  514MOL0     C69257   1.479   2.653   7.351 -0.1403  0.2763 -0.7506
  514MOL0     O69258   1.459   2.783   7.334  0.0127 -0.0048 -0.1927
  514MOL0     C69259   1.336   2.814   7.277 -0.4778 -0.0838  0.1453
  514MOL0     C69260   1.327   2.787   7.139  0.4261  0.1565  0.8231
  514MOL0     C69261   1.208   2.818   7.069  0.0553 -0.0437 -0.9172
  514MOL0     C69262   1.104   2.880   7.142 -0.0031 -0.3042  0.0483
  514MOL0     O69263   0.978   2.896   7.091  0.2104  0.5267  0.0419
  514MOL0     C69264   0.961   3.008   7.008  0.7734  0.3136 -0.6899
  514MOL0     C69265   0.916   3.136   7.086 -0.3634  0.1203  0.2372
  514MOL0     C69266   0.803   3.102   7.195  0.0889 -0.3518  0.1042
  514MOL0     C69267   0.676   3.056   7.121  0.6251  0.9929 -0.3834
  514MOL0     C69268   0.550   3.087   7.198 -0.2499 -0.5435  0.5860
  514MOL0     C69269   0.544   3.039   7.341  0.2056  0.3908  0.4667
  514MOL0     C69270   0.418   3.097   7.405 -0.0168  0.8654 -0.0145
  514MOL0     C69271   0.447   3.235   7.469  0.1915 -0.1226  0.3584
  514MOL0     N69272   0.320   3.313   7.470  0.1532  0.3781 -0.1661
  514MOL0     C69273   0.252   3.337   7.585 -0.5086  0.7250 -0.6098
  514MOL0     C69274   0.162   3.427   7.551  0.1425  0.1002 -0.5241
  514MOL0     C69275   0.073   3.481   7.654  0.7197 -0.6008 -0.1950
  514MOL0     C69276   0.149   3.579   7.750 -0.3967 -0.6053  0.9437
  514MOL0     C69277   0.060   3.617   7.864  0.3731 -0.5644  0.4635
  514MOL0     C69278  -0.059   3.712   7.827 -0.1768  0.3100  0.6942
  514MOL0     O69279  -0.141   3.729   7.943 -0.3355 -0.5278 -0.7177
  514MOL0     C69280  -0.238   3.637   7.981 -0.4730  0.2095  0.4886
  514MOL0     C69281  -0.267   3.516   7.919  0.0957 -0.6464  0.2731
  514MOL0     C69282  -0.378   3.436   7.966  1.1698  0.5613  0.3375
  514MOL0     C69283  -0.416   3.323   7.874  0.1921  0.4016 -0.6062
  514MOL0     C69284  -0.447   3.460   8.085  1.2514  0.5928 -0.3350
  514MOL0     C69285  -0.560   3.372   8.135  0.0442 -0.5135 -0.3167
  514MOL0     O69286  -0.649   3.442   8.217 -0.6425 -0.0183  0.3937
  514MOL0     C69287  -0.776   3.392   8.248 -0.1477 -0.5156  0.0472
  514MOL0     C69288  -0.850   3.450   8.353 -0.7468 -0.2842  0.4623
  514MOL0     C69289  -0.983   3.424   8.381 -0.1939 -0.2801  0.5470
  514MOL0     C69290  -1.047   3.323   8.300 -0.0426 -0.3702  0.7961
  514MOL0     O69291  -1.176   3.294   8.337 -0.3875 -0.1791 -0.3696
  514MOL0     C69292  -1.211   3.148   8.313  0.1233 -0.3864 -0.0554
  514MOL0     C69293  -1.359   3.143   8.340 -1.0474  0.0676  0.3320
  514MOL0     C69294  -1.424   3.012   8.317  0.7751  1.0361 -0.1508
  514MOL0     C69295  -1.576   3.030   8.343  0.1349  0.2093 -0.6116
  514MOL0     C69296  -1.661   2.901   8.333 -0.4175 -0.9303  1.0378
  514MOL0     C69297  -1.683   2.834   8.465 -0.4462 -0.8658  0.5324
  514MOL0     C69298  -1.800   2.743   8.454 -0.0985 -0.0926 -0.1604
  514MOL0     C69299  -1.848   2.690   8.599 -0.3112 -0.6016  0.9121
  514MOL0    Cl69300  -1.751   2.544   8.648  0.0324  0.2298  0.3164
  514MOL0     C69301  -0.968   3.253   8.199 -0.7213 -0.1659 -0.1254
  514MOL0     C69302  -0.832   3.282   8.179 -0.1567 -0.5947 -0.5714
  514MOL0     O69303  -0.564   3.255   8.120  0.1580  0.2451  0.2038
  514MOL0     C69304  -0.406   3.577   8.148 -0.1473 -0.1709  0.1717
  514MOL0     C69305  -0.305   3.664   8.104 -0.4564  0.2589 -0.3849
  514MOL0     N69306   0.191   3.479   7.427  0.6925 -0.0990  0.3965
  514MOL0     N69307   0.284   3.410   7.378  0.0610 -0.0205  0.0128
  514MOL0     C69308   1.129   2.903   7.281 -0.2545  0.2336  0.5391
  514MOL0     C69309   1.237   2.867   7.351 -0.8023  0.0476 -0.5188
  514MOL0     C69310   1.612   2.607   7.370 -0.3946 -0.9961  0.0516
  514MOL0     C69311   1.712   2.700   7.385  0.2967 -0.4564  0.1578
  514MOL0     C69312   1.849   2.667   7.373  0.2400  0.6128 -1.2214
  514MOL0     C69313   1.888   2.532   7.350 -0.5702 -0.2869 -0.2895
  514MOL0     O69314   2.024   2.509   7.328  0.0895  0.6035 -0.4256
  514MOL0     C69315   2.077   2.373   7.339 -0.6859 -0.1566 -0.3615
  514MOL0     C69316   2.215   2.373   7.272  1.2321  0.4232  0.3232
  514MOL0     C69317   2.309   2.263   7.315  0.4265 -0.0092  0.2543
  514MOL0     C69318   2.450   2.263   7.247  0.6879  0.1006  0.1282
  514MOL0     C69319   2.518   2.395   7.265  0.3460 -0.0030 -1.2390
  514MOL0     C69320   2.578   2.499   7.292  0.4876  0.2344  0.1518
  514MOL0     C69321   1.785   2.434   7.334  0.9888  0.2584  0.5445
  514MOL0     C69322   1.650   2.473   7.350 -0.3928  0.4271 -0.7131
  514MOL0     H69323   1.406   2.742   7.081  0.7579  1.3523  0.3128
  514MOL0     H69324   1.203   2.801   6.962  1.4453  0.0527 -1.0152
  514MOL0     H69325   1.043   3.018   6.937 -0.6053  1.1040 -2.2241
  514MOL0     H69326   0.875   2.977   6.949  0.3385 -1.6851  0.8662
  514MOL0     H69327   1.002   3.183   7.134 -0.2405  0.6405 -0.4803
  514MOL0     H69328   0.874   3.208   7.015 -0.8637  2.0512  2.3694
  514MOL0     H69329   0.837   3.022   7.260 -0.4163 -0.4782  0.2180
  514MOL0     H69330   0.781   3.183   7.265  2.9318 -0.6988  1.5538
  514MOL0     H69331   0.666   3.113   7.028 -0.6284  0.0301 -0.8680
  514MOL0     H69332   0.685   2.950   7.097  0.6672  0.8622  0.1930
  514MOL0     H69333   0.519   3.191   7.189 -1.9620 -1.1002 -0.6087
  514MOL0     H69334   0.471   3.033   7.143  0.2863 -0.6575 -0.0898
  514MOL0     H69335   0.539   2.930   7.341  1.1040  0.1980 -3.3048
  514MOL0     H69336   0.629   3.072   7.401 -0.5583  1.5073  0.9550
  514MOL0     H69337   0.336   3.107   7.334 -0.2338 -0.5489 -0.0068
  514MOL0     H69338   0.395   3.021   7.481  1.9769  0.9844  0.7574
  514MOL0     H69339   0.522   3.292   7.415 -0.5768  1.4626  0.9240
  514MOL0     H69340   0.482   3.222   7.572  4.4557 -0.6850 -0.9604
  514MOL0     H69341   0.271   3.293   7.683  0.6245 -0.0569 -1.1552
  514MOL0     H69342  -0.004   3.536   7.599 -1.2960  2.2425  4.7392
  514MOL0     H69343   0.030   3.394   7.706  4.4628 -2.8745 -0.5632
  514MOL0     H69344   0.185   3.669   7.699  1.2627 -1.6518  0.1916
  514MOL0     H69345   0.237   3.526   7.789 -0.3890  0.4066  2.4000
  514MOL0     H69346   0.105   3.676   7.945 -3.4502  2.9317  0.3478
  514MOL0     H69347   0.010   3.527   7.900  0.6042 -1.1078 -0.5416
  514MOL0     H69348  -0.117   3.666   7.746  2.4451 -0.9110 -0.6411
  514MOL0     H69349  -0.033   3.802   7.771 -0.3930 -0.0811 -0.0427
  514MOL0     H69350  -0.208   3.470   7.841 -4.1905 -1.3427 -2.9297
  514MOL0     H69351  -0.525   3.313   7.867  0.1976  1.3180 -2.7120
  514MOL0     H69352  -0.377   3.348   7.775 -0.2342  2.9696 -0.1798
  514MOL0     H69353  -0.378   3.227   7.910  0.0676  0.0452 -1.3983
  514MOL0     H69354  -0.809   3.536   8.405 -1.2141  0.2131  0.0247
  514MOL0     H69355  -1.028   3.484   8.460  1.5694  1.8488  0.0235
  514MOL0     H69356  -1.189   3.121   8.210  1.5571 -2.0031  0.6355
  514MOL0     H69357  -1.160   3.088   8.388  3.0057  2.3458  0.3740
  514MOL0     H69358  -1.370   3.175   8.444 -0.1892  1.5361 -0.0059
  514MOL0     H69359  -1.417   3.218   8.285  0.3831  1.7833  1.0461
  514MOL0     H69360  -1.394   2.935   8.388  0.3277  0.3838 -0.6560
  514MOL0     H69361  -1.406   2.980   8.214  0.3730 -1.5641  0.5044
  514MOL0     H69362  -1.596   3.083   8.437 -0.3663 -1.2791  0.1484
  514MOL0     H69363  -1.618   3.096   8.266  0.6212  0.3900 -0.7295
  514MOL0     H69364  -1.620   2.834   8.256 -3.7705  0.4673 -2.2390
  514MOL0     H69365  -1.758   2.926   8.287  0.2027  0.4104  0.4010
  514MOL0     H69366  -1.600   2.775   8.505 -1.5486  0.1495  4.9472
  514MOL0     H69367  -1.699   2.918   8.534 -1.8936  0.8521 -1.7413
  514MOL0     H69368  -1.778   2.669   8.376  1.7426 -2.1842  2.1871
  514MOL0     H69369  -1.881   2.811   8.423  0.5369  0.3699 -0.8276
  514MOL0     H69370  -1.951   2.655   8.595  0.7522 -4.0826 -0.9553
  514MOL0     H69371  -1.827   2.758   8.681 -0.9762  0.3066  0.3426
  514MOL0     H69372  -1.016   3.182   8.133 -2.8463  2.4807 -1.5954
  514MOL0     H69373  -0.785   3.228   8.097  1.5620 -1.9676  1.2174
  514MOL0     H69374  -0.448   3.584   8.248  3.0702 -1.6557  1.7638
  514MOL0     H69375  -0.288   3.750   8.168 -2.0695 -0.2799  0.8528
  514MOL0     H69376   1.041   2.942   7.333  0.3572  2.2577  0.1488
  514MOL0     H69377   1.258   2.891   7.454 -1.6448  1.6460 -0.7016
  514MOL0     H69378   1.699   2.807   7.395 -2.1304 -0.5266 -1.4765
  514MOL0     H69379   1.917   2.751   7.389 -0.6171  1.1169 -0.0978
  514MOL0     H69380   2.083   2.351   7.446 -2.9287 -0.1526 -0.1774
  514MOL0     H69381   2.013   2.297   7.292 -1.3763  0.0561  0.2117
  514MOL0     H69382   2.269   2.465   7.296  0.8079  0.2032  2.3483
  514MOL0     H69383   2.199   2.376   7.164  2.0847  0.5860  0.1891
  514MOL0     H69384   2.260   2.166   7.303  1.8132 -0.5268 -1.6174
  514MOL0     H69385   2.319   2.273   7.424  0.2971  0.3144  0.2374
  514MOL0     H69386   2.445   2.234   7.142 -2.9252 -0.2259  0.2894
  514MOL0     H69387   2.505   2.191   7.309 -1.2430  0.2127  2.0727
  514MOL0     H69388   2.649   2.580   7.295  0.9408 -0.0769 -1.2682
  514MOL0     H69389   1.821   2.334   7.315  1.4654  0.8954 -2.4693
  514MOL0     H69390   1.567   2.405   7.341 -0.7159  1.0757 -3.3413
  515MOL0     O69391  10.976   4.285   6.412  0.1521 -0.6290 -0.7858
  515MOL0     C69392  11.041   4.385   6.453  0.4931 -0.6127  0.2010
  515MOL0     O69393  10.990   4.491   6.523 -0.1503 -0.3412  0.4005
  515MOL0     C69394  10.850   4.505   6.535 -0.7409 -0.3189  0.6353
  515MOL0     C69395  10.776   4.592   6.462 -0.3083 -0.2114 -0.4015
  515MOL0     C69396  10.638   4.615   6.482 -0.4366  0.5510 -0.1971
  515MOL0     C69397  10.562   4.541   6.574 -0.0312  1.2606 -0.4322
  515MOL0     O69398  10.425   4.558   6.583  0.0453 -0.4061 -0.0758
  515MOL0     C69399  10.351   4.499   6.692 -0.5370 -0.7920 -0.1055
  515MOL0     C69400  10.284   4.370   6.651  0.5906 -0.4417  0.0299
  515MOL0     C69401  10.174   4.391   6.550  0.9680  0.2773  0.6588
  515MOL0     C69402  10.128   4.263   6.485 -0.1924  0.1522 -0.8587
  515MOL0     C69403  10.036   4.280   6.364  0.0143  1.0593  0.5589
  515MOL0     C69404   9.897   4.335   6.397  0.3647  0.0644 -0.2267
  515MOL0     C69405   9.826   4.262   6.513 -0.5010 -0.3070 -0.0326
  515MOL0     C69406   9.811   4.111   6.495 -0.5537  0.0526  0.5612
  515MOL0     N69407   9.686   4.085   6.427 -0.5665 -0.5771 -0.1595
  515MOL0     C69408   9.655   4.078   6.296  0.3804 -0.2447  0.1734
  515MOL0     C69409   9.528   4.046   6.279 -0.4782  0.3194 -0.7506
  515MOL0     C69410   9.450   4.045   6.148  0.4565 -0.1602  0.2625
  515MOL0     C69411   9.422   3.898   6.116 -0.5682 -0.2926 -0.9499
  515MOL0     C69412   9.313   3.830   6.199 -0.5475 -0.3015 -0.5654
  515MOL0     C69413   9.279   3.700   6.131  0.0091  0.0295 -0.3729
  515MOL0     O69414   9.254   3.711   5.996  0.3943  0.2420  0.2123
  515MOL0     C69415   9.130   3.759   5.953 -0.3936  0.1587 -0.2200
  515MOL0     C69416   9.016   3.802   6.028  0.3139  0.2664 -0.6578
  515MOL0     C69417   8.889   3.851   5.979 -0.0559  0.2637  0.7501
  515MOL0     C69418   8.783   3.889   6.078  0.3603 -0.7256 -1.0331
  515MOL0     C69419   8.875   3.849   5.839  0.6945  0.1819  0.1737
  515MOL0     C69420   8.746   3.884   5.778 -0.1925 -0.3187  0.8887
  515MOL0     O69421   8.737   3.862   5.644 -0.1775 -0.2058  0.1433
  515MOL0     C69422   8.622   3.881   5.570  0.2252  0.1930 -0.3643
  515MOL0     C69423   8.594   4.009   5.542 -0.2278  0.0937 -0.5155
  515MOL0     C69424   8.475   4.033   5.471 -0.3457  0.8303  0.0011
  515MOL0     C69425   8.386   3.931   5.442 -0.1609  0.2852  0.8644
  515MOL0     O69426   8.266   3.956   5.379  0.0542 -0.1915  0.4736
  515MOL0     C69427   8.217   4.091   5.357 -0.0809  0.0742 -0.0833
  515MOL0     C69428   8.110   4.090   5.255 -0.0449 -0.0142 -0.8582
  515MOL0     C69429   8.072   4.228   5.209 -0.1297 -0.0440  0.0349
  515MOL0     C69430   7.935   4.221   5.139  0.6695 -0.1212  0.7619
  515MOL0     C69431   7.933   4.129   5.025 -0.7068  0.3665 -0.1530
  515MOL0     C69432   7.800   4.115   4.952 -0.1002  0.1801  0.1633
  515MOL0     C69433   7.757   4.237   4.871 -0.0735  0.0824 -0.3054
  515MOL0     C69434   7.659   4.198   4.761  0.4099  0.0816 -0.1367
  515MOL0    Cl69435   7.514   4.111   4.830 -0.1790  0.0223 -0.3358
  515MOL0     C69436   8.429   3.800   5.461  0.7917 -0.0037  0.4571
  515MOL0     C69437   8.539   3.772   5.535 -0.2550 -0.1575 -0.7573
  515MOL0     O69438   8.660   3.928   5.838 -0.6412 -1.1644  0.3270
  515MOL0     C69439   8.981   3.806   5.766  0.0258  0.3273 -0.0563
  515MOL0     C69440   9.107   3.773   5.818 -0.5910  0.0238 -1.3835
  515MOL0     N69441   9.478   4.055   6.404  0.4779 -0.1201  0.2446
  515MOL0     N69442   9.566   4.065   6.493 -0.4467 -0.8981 -0.0364
  515MOL0     C69443  10.635   4.451   6.654  0.5144 -0.0157 -0.1204
  515MOL0     C69444  10.775   4.438   6.637  0.1944  0.3665  0.3343
  515MOL0     C69445  11.189   4.380   6.422 -0.4133  0.0906  0.1546
  515MOL0     C69446  11.249   4.279   6.349 -0.3025  1.1248 -0.5609
  515MOL0     C69447  11.393   4.279   6.320  1.1991  1.0929  0.5279
  515MOL0     C69448  11.474   4.381   6.368 -0.0567  0.1397  0.8035
  515MOL0     O69449  11.611   4.376   6.335  0.1170  0.1409 -0.5317
  515MOL0     C69450  11.697   4.478   6.400  0.9690  0.0266 -0.2385
  515MOL0     C69451  11.844   4.438   6.387  1.4458  0.2952  0.0976
  515MOL0     C69452  11.884   4.457   6.235 -0.3731 -0.4941 -0.4032
  515MOL0     C69453  12.030   4.437   6.187  0.2218 -0.9771 -0.4094
  515MOL0     C69454  12.119   4.518   6.271 -0.3105  0.0877  0.1237
  515MOL0     C69455  12.200   4.588   6.330 -0.4997  1.3821 -0.9953
  515MOL0     C69456  11.413   4.480   6.447 -0.6536  0.3297 -1.1927
  515MOL0     C69457  11.280   4.486   6.470  0.1723  0.1372  0.1710
  515MOL0     H69458  10.811   4.662   6.387 -5.4330  3.4261  0.1371
  515MOL0     H69459  10.578   4.676   6.415 -1.5938 -1.3047 -0.9176
  515MOL0     H69460  10.412   4.487   6.782 -1.1740 -1.9154  0.1985
  515MOL0     H69461  10.277   4.577   6.713  1.8509  1.8150 -0.8446
  515MOL0     H69462  10.358   4.316   6.591  0.5051  1.6370 -2.1134
  515MOL0     H69463  10.234   4.313   6.730 -0.5498  0.9676  0.3625
  515MOL0     H69464  10.087   4.438   6.595 -2.2155 -3.2613 -1.1892
  515MOL0     H69465  10.216   4.460   6.476 -2.2029  0.3243 -1.2734
  515MOL0     H69466  10.219   4.217   6.445  0.6608  2.2171 -1.4210
  515MOL0     H69467  10.089   4.194   6.561  0.6531 -3.1447 -3.2078
  515MOL0     H69468  10.076   4.351   6.291 -1.2397 -0.4955 -1.7664
  515MOL0     H69469  10.024   4.179   6.323 -1.2682  1.2550  0.3981
  515MOL0     H69470   9.910   4.438   6.429  1.3014 -0.5093  1.3315
  515MOL0     H69471   9.830   4.310   6.313 -0.1528 -0.5180  0.3477
  515MOL0     H69472   9.888   4.285   6.600  1.2889 -0.7051 -1.1505
  515MOL0     H69473   9.725   4.300   6.527 -0.5244 -0.9103  1.6688
  515MOL0     H69474   9.817   4.066   6.595  2.2665 -1.3821 -0.1537
  515MOL0     H69475   9.888   4.066   6.433  1.4884  1.9482  1.5782
  515MOL0     H69476   9.735   4.083   6.222  1.7880 -1.3237  1.5378
  515MOL0     H69477   9.356   4.100   6.154 -3.0399 -4.6284 -4.3476
  515MOL0     H69478   9.505   4.083   6.062 -0.0392 -1.6477 -0.7574
  515MOL0     H69479   9.512   3.836   6.112  0.3154  0.8341  0.5345
  515MOL0     H69480   9.394   3.894   6.010  0.9212  2.5613 -1.5435
  515MOL0     H69481   9.220   3.887   6.214 -2.3699 -2.7666 -1.8094
  515MOL0     H69482   9.353   3.805   6.298  0.9292 -2.4810 -1.6365
  515MOL0     H69483   9.197   3.652   6.185 -1.2221 -0.0077 -2.2176
  515MOL0     H69484   9.359   3.629   6.152 -1.8895 -0.8582  6.0777
  515MOL0     H69485   9.027   3.771   6.132  0.3301 -1.1063 -1.0508
  515MOL0     H69486   8.766   3.997   6.072 -1.8164 -0.9743 -0.4741
  515MOL0     H69487   8.688   3.839   6.056 -0.4547  1.0403 -1.7023
  515MOL0     H69488   8.803   3.866   6.183 -0.0025 -0.7372 -0.9636
  515MOL0     H69489   8.670   4.084   5.564  0.4320 -0.4134 -1.0157
  515MOL0     H69490   8.458   4.134   5.435  1.4178  1.0658 -0.2253
  515MOL0     H69491   8.178   4.136   5.449 -0.4328 -1.0272  0.3174
  515MOL0     H69492   8.294   4.160   5.320 -0.9246  0.8253 -0.5021
  515MOL0     H69493   8.148   4.025   5.176 -0.9078 -1.3965 -0.1949
  515MOL0     H69494   8.018   4.036   5.281 -0.8601  0.5297 -2.4946
  515MOL0     H69495   8.146   4.256   5.134 -2.2122  1.0015 -1.7727
  515MOL0     H69496   8.067   4.302   5.290 -0.1692  0.2114 -0.1992
  515MOL0     H69497   7.851   4.213   5.208 -1.0051  0.0438 -1.1591
  515MOL0     H69498   7.919   4.322   5.100  2.1066  0.0637  0.5883
  515MOL0     H69499   7.954   4.033   5.074 -1.4174  1.3243  2.1896
  515MOL0     H69500   8.011   4.148   4.952 -1.3284  0.8391 -0.7050
  515MOL0     H69501   7.799   4.024   4.891 -2.4239 -2.3109  3.5055
  515MOL0     H69502   7.735   4.097   5.039  2.5504  0.3189  2.3056
  515MOL0     H69503   7.846   4.278   4.823  0.7739 -1.0142  0.2954
  515MOL0     H69504   7.709   4.319   4.927 -0.4561  1.1216 -2.0804
  515MOL0     H69505   7.707   4.128   4.692  0.0232  1.6006 -2.0118
  515MOL0     H69506   7.633   4.283   4.698 -0.5051  0.1353  0.2919
  515MOL0     H69507   8.361   3.722   5.429  1.6640 -0.5759 -0.0130
  515MOL0     H69508   8.573   3.673   5.566 -1.8178 -0.2551  0.7870
  515MOL0     H69509   8.978   3.797   5.658 -0.3905  0.3314 -0.0467
  515MOL0     H69510   9.192   3.743   5.756  1.2863 -0.5044  1.2725
  515MOL0     H69511  10.594   4.385   6.730  2.5951  1.5957  2.6003
  515MOL0     H69512  10.824   4.367   6.703  2.4108  1.9445  0.4951
  515MOL0     H69513  11.177   4.210   6.305  1.7095 -0.8047 -1.0417
  515MOL0     H69514  11.432   4.208   6.247 -2.1216  1.4033 -1.7634
  515MOL0     H69515  11.676   4.573   6.350 -1.0836  1.7369  3.5100
  515MOL0     H69516  11.677   4.501   6.505  1.5546  1.9866 -0.5165
  515MOL0     H69517  11.870   4.340   6.427  1.2819  0.2320  0.0524
  515MOL0     H69518  11.904   4.509   6.444  1.9903 -2.7203  3.6849
  515MOL0     H69519  11.843   4.556   6.213  1.3368  0.4854  0.5973
  515MOL0     H69520  11.823   4.388   6.175  1.2543 -0.8343 -1.7781
  515MOL0     H69521  12.048   4.471   6.085  1.9637  2.0573  0.7770
  515MOL0     H69522  12.060   4.332   6.190  2.0647 -0.5258 -1.4158
  515MOL0     H69523  12.273   4.655   6.371  0.0511 -0.7523  1.8424
  515MOL0     H69524  11.487   4.556   6.471  2.3360 -2.4160 -0.9842
  515MOL0     H69525  11.242   4.574   6.521  1.9218  2.4677 -2.2864
  516MOL0     O69526   7.338   5.704   4.693  0.5595  0.2244  0.6231
  516MOL0     C69527   7.358   5.823   4.718 -0.2147  0.3290 -0.3035
  516MOL0     O69528   7.279   5.927   4.677  0.2475  0.1420  0.6113
  516MOL0     C69529   7.184   5.919   4.575 -0.4497  0.6781  0.4224
  516MOL0     C69530   7.068   5.994   4.578 -0.4695  0.0379 -0.0247
  516MOL0     C69531   6.972   5.984   4.469  0.2382 -0.0467 -0.2490
  516MOL0     C69532   6.988   5.894   4.370 -0.4098  0.7712  0.1372
  516MOL0     O69533   6.901   5.873   4.265 -0.4946 -0.5059 -0.8964
  516MOL0     C69534   6.764   5.926   4.269  0.4324  0.1765  0.3499
  516MOL0     C69535   6.661   5.826   4.241 -0.2127  0.1829  0.5445
  516MOL0     C69536   6.695   5.700   4.312 -0.0136  0.1900  0.5438
  516MOL0     C69537   6.667   5.706   4.462  0.2079 -0.0378 -0.2597
  516MOL0     C69538   6.675   5.567   4.532 -1.1697  0.0159  0.0057
  516MOL0     C69539   6.804   5.488   4.508  1.1678  0.6279  0.2185
  516MOL0     C69540   6.929   5.563   4.540  0.1616  0.4836  1.2805
  516MOL0     C69541   6.948   5.614   4.689  0.4788 -0.2461  0.3417
  516MOL0     N69542   6.936   5.513   4.796 -1.2687 -0.5897  0.6103
  516MOL0     C69543   7.040   5.434   4.831  0.2582  0.6892 -0.2999
  516MOL0     C69544   6.998   5.386   4.953 -0.1215 -0.2539  0.4131
  516MOL0     C69545   7.067   5.267   5.022  0.5786 -0.3283 -0.5513
  516MOL0     C69546   7.193   5.308   5.085 -0.1356 -0.8356  0.4696
  516MOL0     C69547   7.295   5.199   5.119  0.0163  1.4529 -0.5892
  516MOL0     C69548   7.250   5.096   5.229 -0.0158  0.0811 -0.5125
  516MOL0     O69549   7.301   4.958   5.213 -0.7200  0.2726  0.0950
  516MOL0     C69550   7.435   4.936   5.252  0.9288 -0.3164  1.3151
  516MOL0     C69551   7.503   4.826   5.209  0.1510 -0.0524  0.7452
  516MOL0     C69552   7.637   4.797   5.229 -0.0952  0.0583  0.5265
  516MOL0     C69553   7.669   4.651   5.184 -0.7256  0.5735 -0.6262
  516MOL0     C69554   7.717   4.891   5.290 -1.0063 -0.8384  0.2678
  516MOL0     C69555   7.858   4.886   5.308  0.2174  0.1098  0.4010
  516MOL0     O69556   7.924   4.792   5.232 -0.6076  0.3503 -0.8208
  516MOL0     C69557   8.046   4.749   5.286 -0.8280  0.9841 -0.4118
  516MOL0     C69558   8.050   4.616   5.334  0.0445  0.3565 -0.2469
  516MOL0     C69559   8.170   4.562   5.372 -0.4726 -0.0240 -0.0060
  516MOL0     C69560   8.288   4.643   5.373  0.0974 -0.9524 -1.6294
  516MOL0     O69561   8.415   4.611   5.413  0.7221  0.6417 -0.1722
  516MOL0     C69562   8.443   4.478   5.454  0.0292  0.2877 -0.2068
  516MOL0     C69563   8.597   4.452   5.431 -0.8217 -0.4166 -0.5070
  516MOL0     C69564   8.672   4.539   5.536 -0.2798  0.4466  0.0508
  516MOL0     C69565   8.827   4.531   5.520  0.0194 -0.0905  0.6623
  516MOL0     C69566   8.909   4.639   5.583  1.0016 -0.4576 -0.4024
  516MOL0     C69567   9.054   4.612   5.561 -0.0542 -0.1968 -0.3755
  516MOL0     C69568   9.136   4.697   5.664 -0.1180 -0.5066  0.5905
  516MOL0     C69569   9.285   4.678   5.654 -0.1945 -1.0264 -0.1416
  516MOL0    Cl69570   9.367   4.776   5.778  0.1494 -0.8979 -0.6042
  516MOL0     C69571   8.283   4.772   5.320  0.0462  0.9719  0.3519
  516MOL0     C69572   8.166   4.817   5.263  0.3452  0.0886  0.1629
  516MOL0     O69573   7.917   4.968   5.380 -0.0716  0.3296  0.1247
  516MOL0     C69574   7.647   5.009   5.343  0.3988  0.5851 -0.8112
  516MOL0     C69575   7.512   5.035   5.321  0.6263  1.0297  0.4691
  516MOL0     N69576   6.864   5.425   4.976  0.0113  0.0336 -0.0676
  516MOL0     N69577   6.834   5.506   4.886 -0.2261 -0.0174  0.6813
  516MOL0     C69578   7.096   5.816   4.368 -0.0853 -0.0490 -0.0941
  516MOL0     C69579   7.196   5.833   4.462 -0.7404  0.0639  0.3612
  516MOL0     C69580   7.481   5.874   4.781 -0.4454 -1.3398 -0.2720
  516MOL0     C69581   7.505   6.018   4.803  0.6462  0.2459 -0.1473
  516MOL0     C69582   7.622   6.071   4.857 -0.0983  0.4321 -0.1678
  516MOL0     C69583   7.728   5.980   4.888  1.2930  0.9748  1.0273
  516MOL0     O69584   7.849   6.030   4.933  0.1071  0.8391 -0.7004
  516MOL0     C69585   7.980   5.987   4.879  1.2912  0.4306 -0.0710
  516MOL0     C69586   8.081   6.106   4.869 -0.2095  0.6005  0.1195
  516MOL0     C69587   8.027   6.224   4.776 -0.4824 -0.0002 -0.0063
  516MOL0     C69588   8.134   6.294   4.702  0.7115  0.8431  0.5195
  516MOL0     C69589   8.076   6.420   4.658  0.8480 -0.7722  1.2025
  516MOL0     C69590   8.010   6.524   4.627  0.1388  0.8950  0.2257
  516MOL0     C69591   7.703   5.839   4.882 -0.3002  0.3326  0.4891
  516MOL0     C69592   7.583   5.787   4.831 -0.9611 -0.1718 -0.4579
  516MOL0     H69593   7.060   6.061   4.664 -0.0498 -0.6968  0.5997
  516MOL0     H69594   6.887   6.051   4.466 -1.6712 -2.3475 -3.4135
  516MOL0     H69595   6.732   5.965   4.366  2.7053  1.0523  0.8071
  516MOL0     H69596   6.746   6.007   4.198 -0.7759 -0.1064  0.3068
  516MOL0     H69597   6.565   5.864   4.279 -0.7625  0.8221 -1.3873
  516MOL0     H69598   6.651   5.815   4.133  0.1752  1.6617  0.3374
  516MOL0     H69599   6.627   5.634   4.258 -0.0991  0.7411 -0.0331
  516MOL0     H69600   6.797   5.667   4.294 -0.0140  0.9595 -1.0605
  516MOL0     H69601   6.739   5.769   4.516 -1.2332  0.4443  1.1455
  516MOL0     H69602   6.568   5.751   4.473  0.7093  1.3471 -1.0767
  516MOL0     H69603   6.659   5.576   4.640  5.7685 -0.6172  1.5608
  516MOL0     H69604   6.591   5.518   4.482 -0.1059 -1.3417 -0.5141
  516MOL0     H69605   6.805   5.398   4.570  0.2743 -0.7626 -1.7166
  516MOL0     H69606   6.814   5.453   4.405 -2.9463  0.8719 -0.4297
  516MOL0     H69607   7.008   5.494   4.509  2.3154  3.1744  0.4881
  516MOL0     H69608   6.924   5.647   4.471 -3.8157  1.3903  2.4011
  516MOL0     H69609   6.866   5.684   4.705 -0.8467 -1.6388 -0.1976
  516MOL0     H69610   7.049   5.656   4.686 -0.1142  1.2284  0.2788
  516MOL0     H69611   7.143   5.416   4.801  0.2445  0.2178 -0.0752
  516MOL0     H69612   7.000   5.230   5.100  0.4693  1.2364  0.1227
  516MOL0     H69613   7.077   5.194   4.940 -0.6912 -0.3398 -0.7242
  516MOL0     H69614   7.177   5.350   5.185  2.6400 -0.2906  0.7678
  516MOL0     H69615   7.257   5.375   5.027  3.0161 -3.3692  0.7532
  516MOL0     H69616   7.384   5.250   5.156 -0.0554  0.5286  0.9352
  516MOL0     H69617   7.307   5.138   5.028 -1.3557  1.2095 -0.6235
  516MOL0     H69618   7.142   5.078   5.220  0.1729 -0.9536 -0.8706
  516MOL0     H69619   7.280   5.141   5.323  1.5909  1.2405 -1.5342
  516MOL0     H69620   7.451   4.745   5.159 -0.1594  0.0325  0.9281
  516MOL0     H69621   7.759   4.637   5.123 -1.8789 -0.6890 -2.1276
  516MOL0     H69622   7.689   4.604   5.280 -1.6368 -2.0726 -1.6275
  516MOL0     H69623   7.592   4.602   5.123 -0.5317 -0.2615 -0.2032
  516MOL0     H69624   7.953   4.569   5.332 -0.1237  0.6850  0.1124
  516MOL0     H69625   8.167   4.458   5.405 -1.5826 -0.4715 -1.3955
  516MOL0     H69626   8.427   4.477   5.563  1.6037  0.8790  0.0568
  516MOL0     H69627   8.381   4.400   5.409  1.4545 -1.7887  1.2396
  516MOL0     H69628   8.615   4.346   5.452 -0.2662  0.0988  1.9859
  516MOL0     H69629   8.626   4.479   5.329  0.2726  0.1514 -0.0657
  516MOL0     H69630   8.654   4.508   5.639  1.3018  1.6294  0.7176
  516MOL0     H69631   8.634   4.642   5.531 -0.5107  0.5917  2.9600
  516MOL0     H69632   8.870   4.442   5.567  0.9856  0.6303  1.1578
  516MOL0     H69633   8.856   4.536   5.415 -0.0286  3.1396  0.6966
  516MOL0     H69634   8.884   4.636   5.689 -1.8434 -2.4032 -1.0117
  516MOL0     H69635   8.887   4.739   5.543 -1.7363 -1.2067 -0.9931
  516MOL0     H69636   9.082   4.506   5.562  0.6916 -0.0114 -1.1825
  516MOL0     H69637   9.088   4.641   5.461  0.0881  0.7781 -0.0578
  516MOL0     H69638   9.099   4.660   5.760 -0.7826 -2.6673 -0.4209
  516MOL0     H69639   9.110   4.804   5.665 -1.0745 -0.7233  2.2847
  516MOL0     H69640   9.327   4.705   5.557 -0.3321 -0.4894 -0.0514
  516MOL0     H69641   9.308   4.572   5.672 -0.8037 -0.9794  0.9911
  516MOL0     H69642   8.376   4.826   5.304 -0.7662  2.0799 -0.8394
  516MOL0     H69643   8.159   4.912   5.210  0.9614 -0.7587 -1.5306
  516MOL0     H69644   7.692   5.079   5.413 -4.2707  0.1299  3.1763
  516MOL0     H69645   7.473   5.123   5.371 -0.6005 -0.5978  2.5918
  516MOL0     H69646   7.105   5.744   4.288  1.7322 -2.0132  1.7469
  516MOL0     H69647   7.282   5.767   4.462 -0.8567 -0.1112 -0.8001
  516MOL0     H69648   7.425   6.086   4.779 -0.7428 -1.3927 -0.3674
  516MOL0     H69649   7.642   6.177   4.862 -0.2234  0.4024  2.0741
  516MOL0     H69650   8.018   5.907   4.943  3.7126 -0.1086 -2.0053
  516MOL0     H69651   7.978   5.935   4.783  1.7328 -0.7033  0.5125
  516MOL0     H69652   8.170   6.067   4.819 -0.9361  1.4128 -1.9113
  516MOL0     H69653   8.090   6.143   4.972 -2.0753  0.2904  0.4331
  516MOL0     H69654   7.963   6.292   4.834 -1.6021  0.5407 -1.8027
  516MOL0     H69655   7.969   6.177   4.696  0.8208  1.7566 -2.0960
  516MOL0     H69656   8.170   6.235   4.617  0.3786 -1.8881  2.1480
  516MOL0     H69657   8.220   6.310   4.769  0.2331  2.4277  0.7922
  516MOL0     H69658   7.938   6.603   4.620 -2.5604 -1.2633  1.5615
  516MOL0     H69659   7.792   5.785   4.913  2.2849  3.9179 -0.0129
  516MOL0     H69660   7.557   5.682   4.840 -2.7805  0.3484  0.8138
  517MOL0     O69661   7.569   7.326   8.204 -0.1626  0.5485 -0.1536
  517MOL0     C69662   7.638   7.359   8.101 -0.1133  0.2442 -0.0992
  517MOL0     O69663   7.605   7.338   7.967  0.5340 -0.1681 -0.1892
  517MOL0     C69664   7.479   7.285   7.931  0.3741 -0.2048 -0.9284
  517MOL0     C69665   7.353   7.347   7.963 -0.7485 -0.2968  0.4949
  517MOL0     C69666   7.225   7.290   7.926 -0.0646  0.4360  0.0290
  517MOL0     C69667   7.220   7.159   7.864  0.1163  0.9032  0.1260
  517MOL0     O69668   7.100   7.097   7.840  0.8388 -0.0244 -0.3634
  517MOL0     C69669   7.007   7.079   7.951  1.0818  0.2461  0.2529
  517MOL0     C69670   6.871   7.034   7.899 -0.2362  0.2550  0.5637
  517MOL0     C69671   6.792   7.134   7.822 -0.2949 -0.1700  0.6420
  517MOL0     C69672   6.665   7.068   7.762  0.2606 -0.4527 -0.4288
  517MOL0     C69673   6.575   7.027   7.876  1.0533  0.2498 -0.3046
  517MOL0     C69674   6.433   7.009   7.815  1.1484 -0.1851  0.7814
  517MOL0     C69675   6.354   6.889   7.877 -0.2508 -0.1721 -0.2627
  517MOL0     C69676   6.219   6.869   7.805  0.6530  0.0067 -0.0292
  517MOL0     N69677   6.123   6.974   7.815  0.1645  0.3236 -0.0013
  517MOL0     C69678   6.128   7.083   7.734 -0.1455 -0.1028  0.0852
  517MOL0     C69679   6.033   7.167   7.786  0.4645  0.2028 -0.2366
  517MOL0     C69680   5.990   7.308   7.744  0.8248  0.0163  0.4139
  517MOL0     C69681   5.863   7.282   7.659 -0.3884  0.7727 -0.1217
  517MOL0     C69682   5.732   7.266   7.726  0.0960 -1.1355  0.1344
  517MOL0     C69683   5.684   7.396   7.800  0.6282  0.1427 -0.2464
  517MOL0     O69684   5.545   7.368   7.837  0.2300 -0.3612  0.4040
  517MOL0     C69685   5.431   7.409   7.772 -0.0631 -0.6002 -0.4316
  517MOL0     C69686   5.426   7.494   7.652  0.2581  0.1618  1.4736
  517MOL0     C69687   5.302   7.512   7.580 -0.0017  0.3419 -0.7398
  517MOL0     C69688   5.304   7.576   7.444 -0.4747  0.0536 -0.1121
  517MOL0     C69689   5.187   7.474   7.650  0.5335  0.5246 -0.2764
  517MOL0     C69690   5.057   7.507   7.596  0.5805  0.3644 -0.5188
  517MOL0     O69691   4.976   7.400   7.578  0.7657 -0.1615 -0.5829
  517MOL0     C69692   4.842   7.423   7.557  0.1515  0.3349  0.8964
  517MOL0     C69693   4.805   7.478   7.439 -0.6796  0.6739  0.6348
  517MOL0     C69694   4.674   7.488   7.410  0.3168 -1.0191  0.4090
  517MOL0     C69695   4.575   7.452   7.494 -0.3293  0.2649  0.2704
  517MOL0     O69696   4.442   7.455   7.446  0.4246  0.1898 -0.4517
  517MOL0     C69697   4.332   7.427   7.533 -0.0562  0.4937 -0.1609
  517MOL0     C69698   4.208   7.401   7.451  0.4520  0.4117  0.2721
  517MOL0     C69699   4.086   7.360   7.545  0.5635  0.8743 -0.0139
  517MOL0     C69700   3.939   7.361   7.480 -0.3490  0.5189 -0.5344
  517MOL0     C69701   3.835   7.330   7.584 -0.2956  0.3320  0.1812
  517MOL0     C69702   3.830   7.175   7.623  0.1370 -0.6422 -0.1588
  517MOL0     C69703   3.744   7.150   7.757  0.5296 -0.1020  0.1895
  517MOL0     C69704   3.731   7.000   7.784  0.4649  0.5134  0.2565
  517MOL0    Cl69705   3.897   6.940   7.845 -0.1533 -0.1066 -0.0642
  517MOL0     C69706   4.611   7.407   7.625 -0.1347  0.3000 -0.3185
  517MOL0     C69707   4.746   7.383   7.650  0.0333  0.4831  0.2821
  517MOL0     O69708   5.037   7.629   7.572 -0.2279  0.5834  0.2630
  517MOL0     C69709   5.190   7.404   7.781 -0.7784 -0.4884  0.2776
  517MOL0     C69710   5.317   7.374   7.835 -0.7841 -0.2379  0.4988
  517MOL0     N69711   5.970   7.100   7.886 -0.4826  0.1590  0.5445
  517MOL0     N69712   6.018   6.983   7.908  0.8084  0.1484 -0.2894
  517MOL0     C69713   7.346   7.102   7.833  0.4566  0.3349 -0.3054
  517MOL0     C69714   7.473   7.165   7.859  0.2825  0.8649  0.7658
  517MOL0     C69715   7.764   7.444   8.127 -0.5344  0.6486  0.1576
  517MOL0     C69716   7.799   7.477   8.260  0.3434 -0.2938 -0.5641
  517MOL0     C69717   7.903   7.568   8.284 -0.3253  1.2225 -0.2585
  517MOL0     C69718   7.980   7.619   8.175 -0.0004 -0.1860 -0.3176
  517MOL0     O69719   8.085   7.704   8.211  0.5322 -0.2178 -0.1792
  517MOL0     C69720   8.124   7.803   8.106 -0.1876  0.7502 -0.3715
  517MOL0     C69721   8.013   7.882   8.058 -0.2097  1.0835  1.1066
  517MOL0     C69722   8.058   7.980   7.945  0.1969 -0.3722 -0.2358
  517MOL0     C69723   7.938   8.055   7.889  0.0139  0.4631  0.3042
  517MOL0     C69724   7.939   8.087   7.747  0.5425  0.0921  0.0147
  517MOL0     C69725   7.946   8.119   7.625 -0.7089 -0.4610  0.4129
  517MOL0     C69726   7.952   7.572   8.043 -0.0095  0.1882 -0.9654
  517MOL0     C69727   7.851   7.482   8.022 -0.2171  0.5521  0.0994
  517MOL0     H69728   7.345   7.441   8.017  1.2853  0.8597 -1.0313
  517MOL0     H69729   7.131   7.338   7.954  0.8706  2.9959 -0.9369
  517MOL0     H69730   7.048   7.003   8.019 -2.8521 -1.8235  0.5842
  517MOL0     H69731   6.985   7.176   7.995 -1.4934 -0.6748  1.1621
  517MOL0     H69732   6.887   6.942   7.842  3.4863  1.6757 -1.0055
  517MOL0     H69733   6.814   7.018   7.991  1.2556  0.0771  1.5035
  517MOL0     H69734   6.770   7.223   7.882  3.0363 -1.4259  4.1210
  517MOL0     H69735   6.865   7.173   7.750 -0.9160 -0.4202 -0.1372
  517MOL0     H69736   6.610   7.149   7.713  0.0204  1.3999  2.6033
  517MOL0     H69737   6.683   6.991   7.687  1.8048 -0.3781 -0.1676
  517MOL0     H69738   6.616   6.932   7.911  1.6539 -0.2996 -2.3305
  517MOL0     H69739   6.572   7.103   7.955 -0.0549  0.2848 -0.3738
  517MOL0     H69740   6.377   7.103   7.810 -2.9614 -2.3659  1.3121
  517MOL0     H69741   6.439   6.976   7.711 -3.5410 -3.5570  1.2594
  517MOL0     H69742   6.416   6.799   7.886  2.0935  1.5475  3.8256
  517MOL0     H69743   6.333   6.927   7.977 -1.7131  0.4412 -0.7772
  517MOL0     H69744   6.164   6.782   7.843 -2.3658  1.0541 -1.7282
  517MOL0     H69745   6.234   6.845   7.700 -1.6861  0.0128 -0.4099
  517MOL0     H69746   6.177   7.105   7.640  1.4105  1.6013  1.2142
  517MOL0     H69747   5.962   7.376   7.825  0.1492  1.5132 -1.0142
  517MOL0     H69748   6.068   7.349   7.679 -0.2313 -1.4730 -1.9726
  517MOL0     H69749   5.883   7.201   7.589 -1.7039  1.3183 -1.1646
  517MOL0     H69750   5.855   7.363   7.586 -1.8519 -0.1753 -1.0560
  517MOL0     H69751   5.746   7.177   7.787  3.3419 -0.5210  0.4861
  517MOL0     H69752   5.649   7.251   7.656  0.6390  3.4644 -1.9290
  517MOL0     H69753   5.685   7.480   7.731  0.6121 -0.1594 -0.6222
  517MOL0     H69754   5.733   7.412   7.897  1.3199  1.8883 -0.8456
  517MOL0     H69755   5.518   7.536   7.612  0.4900 -1.9435 -0.3755
  517MOL0     H69756   5.235   7.535   7.370 -0.7176  1.1081 -0.4951
  517MOL0     H69757   5.266   7.677   7.461 -2.1498 -0.8096  1.5573
  517MOL0     H69758   5.407   7.569   7.405 -0.5221 -3.5192  0.0777
  517MOL0     H69759   4.883   7.517   7.374  0.8046  1.7493  2.9350
  517MOL0     H69760   4.652   7.533   7.313  1.3733  0.4846  0.8225
  517MOL0     H69761   4.346   7.342   7.600  2.9491  1.4026  0.5404
  517MOL0     H69762   4.319   7.507   7.607  0.1318 -0.6050  1.1026
  517MOL0     H69763   4.180   7.488   7.390  1.3138  0.8184  0.4374
  517MOL0     H69764   4.225   7.327   7.373 -0.5497  0.0545  0.3862
  517MOL0     H69765   4.092   7.417   7.638  1.3342 -0.1106  0.5634
  517MOL0     H69766   4.111   7.260   7.581 -1.7597  0.2971  0.1180
  517MOL0     H69767   3.919   7.466   7.454  0.7986  0.8619 -0.1174
  517MOL0     H69768   3.938   7.294   7.394  0.8260 -0.9158  0.5171
  517MOL0     H69769   3.739   7.346   7.534  0.0857  2.0909 -0.0470
  517MOL0     H69770   3.853   7.402   7.664 -0.3838 -1.6270  2.0815
  517MOL0     H69771   3.780   7.137   7.533 -1.5150 -0.3919  0.6155
  517MOL0     H69772   3.928   7.130   7.638  1.0858  1.3768  0.1307
  517MOL0     H69773   3.643   7.190   7.745  0.8565  0.3178 -1.5031
  517MOL0     H69774   3.788   7.213   7.835 -1.0313  0.1515  0.8829
  517MOL0     H69775   3.715   6.960   7.684  5.6341 -0.1329 -0.6132
  517MOL0     H69776   3.655   6.973   7.858  1.0772  2.0121  1.5163
  517MOL0     H69777   4.542   7.381   7.704  0.3073  0.4846  0.1292
  517MOL0     H69778   4.770   7.321   7.735 -1.9627 -0.0361  0.5315
  517MOL0     H69779   5.100   7.378   7.837 -0.7824  0.0116  0.5153
  517MOL0     H69780   5.324   7.319   7.928 -2.4072 -0.0518  0.7716
  517MOL0     H69781   7.344   7.006   7.783 -1.4502 -1.2185  2.4835
  517MOL0     H69782   7.568   7.126   7.824 -0.3569  0.4782 -0.5812
  517MOL0     H69783   7.741   7.437   8.343  1.7162  0.8394  1.0179
  517MOL0     H69784   7.932   7.592   8.386  1.7409 -4.3206  0.8145
  517MOL0     H69785   8.188   7.872   8.162  2.7128 -3.0726  1.4611
  517MOL0     H69786   8.176   7.761   8.020 -0.5385  1.9255 -1.1879
  517MOL0     H69787   7.962   7.929   8.143 -2.0768  2.2267 -0.5440
  517MOL0     H69788   7.944   7.815   8.006  0.1447  1.2031  0.4691
  517MOL0     H69789   8.102   7.919   7.864  1.2110  0.5824 -0.4247
  517MOL0     H69790   8.127   8.055   7.983  0.4281 -0.7214  0.0375
  517MOL0     H69791   7.929   8.152   7.939  0.7421  1.0237 -0.6101
  517MOL0     H69792   7.847   7.999   7.914  1.2818 -1.7257  0.2731
  517MOL0     H69793   7.951   8.143   7.521  1.0358  1.9757  0.9652
  517MOL0     H69794   8.015   7.604   7.960 -0.1173  1.9631 -0.4003
  517MOL0     H69795   7.826   7.453   7.921 -1.7482  0.2475  0.5384
  518MOL0     O69796   2.399   7.915   7.989 -0.1709 -0.1727  0.1133
  518MOL0     C69797   2.454   7.917   7.880 -0.2978  0.7559 -0.5319
  518MOL0     O69798   2.390   7.929   7.762 -0.2243  0.1319 -0.1260
  518MOL0     C69799   2.251   7.930   7.763  0.9758  0.2938 -0.1856
  518MOL0     C69800   2.175   8.043   7.783  1.0931 -0.4181 -0.2310
  518MOL0     C69801   2.037   8.041   7.777 -0.5775 -0.1369  0.1529
  518MOL0     C69802   1.974   7.925   7.731 -0.1697  0.2261  0.2235
  518MOL0     O69803   1.843   7.920   7.700 -0.1010  0.5197  0.1129
  518MOL0     C69804   1.761   7.909   7.810  0.4589  0.1494  0.7630
  518MOL0     C69805   1.628   7.872   7.758  0.5316  0.3929 -0.2731
  518MOL0     C69806   1.557   7.997   7.669 -0.5453 -0.1864  0.1633
  518MOL0     C69807   1.427   7.944   7.613 -0.2745 -0.9760 -0.0003
  518MOL0     C69808   1.316   8.056   7.624 -0.5785 -0.8740 -0.3893
  518MOL0     C69809   1.179   8.012   7.560 -0.4442  0.0506 -0.0328
  518MOL0     C69810   1.100   8.133   7.538 -0.5208 -0.8655  0.0969
  518MOL0     C69811   0.950   8.100   7.504 -0.2374 -0.4658  0.6269
  518MOL0     N69812   0.870   8.079   7.624  0.4852  0.3222  0.3057
  518MOL0     C69813   0.829   8.183   7.704  0.2241  0.3821  0.6540
  518MOL0     C69814   0.831   8.134   7.830  0.1744 -0.7251  0.4899
  518MOL0     C69815   0.785   8.200   7.945  0.2002  0.9042  0.0976
  518MOL0     C69816   0.640   8.182   7.974 -0.7793 -0.6674 -0.4917
  518MOL0     C69817   0.564   8.282   7.891  0.0937  1.1454 -0.1177
  518MOL0     C69818   0.414   8.231   7.873 -0.2677 -0.0779  0.3356
  518MOL0     O69819   0.355   8.170   7.994  0.1351  0.2164  0.6014
  518MOL0     C69820   0.224   8.201   8.017 -0.6744  0.4138 -0.4137
  518MOL0     C69821   0.196   8.305   8.100  0.1120 -0.3467  0.2296
  518MOL0     C69822   0.066   8.351   8.121  0.2933 -0.5353  0.3487
  518MOL0     C69823   0.065   8.470   8.206  0.1768 -0.0408 -0.4275
  518MOL0     C69824  -0.045   8.285   8.058  0.1462 -0.6593 -0.8773
  518MOL0     C69825  -0.188   8.330   8.069  0.6891 -0.0742 -0.4246
  518MOL0     O69826  -0.281   8.268   7.994  0.4477 -0.0044  1.1428
  518MOL0     C69827  -0.383   8.342   7.941 -0.0527 -0.0541 -0.6900
  518MOL0     C69828  -0.488   8.268   7.886  0.7199  0.2689 -0.2962
  518MOL0     C69829  -0.594   8.323   7.823  0.9521 -0.6679 -0.5439
  518MOL0     C69830  -0.608   8.457   7.819 -1.1156 -0.9273  0.5047
  518MOL0     O69831  -0.719   8.522   7.766 -0.6097 -0.0710 -0.1349
  518MOL0     C69832  -0.846   8.453   7.777 -0.3171 -0.2648 -0.4120
  518MOL0     C69833  -0.951   8.560   7.813 -1.3732  0.7095  0.9141
  518MOL0     C69834  -1.102   8.523   7.800  0.4386 -0.5248 -0.3004
  518MOL0     C69835  -1.160   8.402   7.874 -0.2906 -0.1772 -0.0015
  518MOL0     C69836  -1.304   8.376   7.849  0.5785 -0.4328  0.6856
  518MOL0     C69837  -1.335   8.337   7.698  0.0607 -0.2288 -0.0002
  518MOL0     C69838  -1.275   8.198   7.676 -0.9557 -0.4113 -0.4508
  518MOL0     C69839  -1.334   8.119   7.560 -0.3447 -0.2791  0.4434
  518MOL0    Cl69840  -1.226   7.982   7.532  0.2865  0.0879 -0.1175
  518MOL0     C69841  -0.499   8.540   7.854  0.3970  0.3972 -0.0150
  518MOL0     C69842  -0.383   8.479   7.909 -0.1783 -0.8826 -0.8354
  518MOL0     O69843  -0.210   8.424   8.146 -0.4668 -0.0044 -0.6538
  518MOL0     C69844  -0.010   8.180   7.972  1.2945 -0.2819  0.8035
  518MOL0     C69845   0.124   8.125   7.959 -0.5124  0.0276 -0.5553
  518MOL0     N69846   0.865   8.002   7.827 -0.0803  0.0946  1.0125
  518MOL0     N69847   0.887   7.973   7.709 -0.1687  1.4572 -0.8098
  518MOL0     C69848   2.053   7.818   7.696  0.6318  0.1577  0.4610
  518MOL0     C69849   2.188   7.817   7.718  0.3817 -0.8429  0.6793
  518MOL0     C69850   2.602   7.916   7.892 -0.6196 -0.2452 -0.6018
  518MOL0     C69851   2.683   7.892   7.777 -0.4491 -0.2324 -0.6928
  518MOL0     C69852   2.824   7.901   7.782 -0.3036  0.6473  0.5317
  518MOL0     C69853   2.889   7.950   7.899  0.5905 -0.3573  0.7653
  518MOL0     O69854   3.022   7.970   7.899 -0.6076 -0.6525  0.2550
  518MOL0     C69855   3.105   7.888   7.817 -0.5145  0.6785 -0.1686
  518MOL0     C69856   3.137   7.759   7.901  0.7064 -0.5414  0.5425
  518MOL0     C69857   3.256   7.685   7.855 -0.2046 -1.1879 -0.2584
  518MOL0     C69858   3.239   7.593   7.733 -0.8117  0.0235 -1.0538
  518MOL0     C69859   3.302   7.458   7.744  0.3588 -0.4069 -0.4524
  518MOL0     C69860   3.337   7.344   7.755  0.2605 -0.1481  0.5717
  518MOL0     C69861   2.812   7.974   8.013 -0.9315 -0.1330  0.3966
  518MOL0     C69862   2.677   7.961   8.010 -0.3622 -0.3028 -0.2563
  518MOL0     H69863   2.227   8.127   7.829 -0.0645  0.5589 -0.6759
  518MOL0     H69864   1.988   8.135   7.796  1.7872  1.4596 -1.1380
  518MOL0     H69865   1.790   7.836   7.887 -0.5173  0.0604  1.0562
  518MOL0     H69866   1.743   8.005   7.859  0.9010  1.0803 -0.8475
  518MOL0     H69867   1.627   7.783   7.694  0.9668  0.7700 -0.8066
  518MOL0     H69868   1.560   7.869   7.844  0.8202  2.7502  0.1084
  518MOL0     H69869   1.552   8.098   7.710 -3.1414  1.9093 -4.5787
  518MOL0     H69870   1.623   8.009   7.582 -0.7314  2.5518  0.3179
  518MOL0     H69871   1.451   7.911   7.511  3.3794  0.0005  0.4151
  518MOL0     H69872   1.390   7.867   7.682 -2.7876  0.9226  0.9220
  518MOL0     H69873   1.297   8.084   7.728 -1.2105 -1.6129 -0.2966
  518MOL0     H69874   1.350   8.143   7.566  1.6553 -0.7841  0.9664
  518MOL0     H69875   1.202   7.951   7.472 -2.8511  1.0572 -1.4786
  518MOL0     H69876   1.136   7.935   7.624  1.3813  0.8748  2.3179
  518MOL0     H69877   1.107   8.184   7.634 -1.3766  1.0123 -0.7926
  518MOL0     H69878   1.150   8.187   7.457 -1.9941 -1.2584 -1.1368
  518MOL0     H69879   0.951   8.010   7.442  0.5059 -0.4670  0.6321
  518MOL0     H69880   0.910   8.186   7.449  2.9822  0.2201 -0.8943
  518MOL0     H69881   0.813   8.284   7.667 -1.0861 -0.2134 -0.5183
  518MOL0     H69882   0.838   8.166   8.034  1.3175 -0.3371 -1.0039
  518MOL0     H69883   0.806   8.306   7.928  2.2081  0.5008 -0.1569
  518MOL0     H69884   0.620   8.210   8.078 -1.5322 -2.8011 -0.0305
  518MOL0     H69885   0.609   8.078   7.968 -0.9591 -0.6983  0.6462
  518MOL0     H69886   0.606   8.287   7.789 -2.5155 -1.5570 -1.4798
  518MOL0     H69887   0.567   8.382   7.935  3.5107  1.1191  0.0308
  518MOL0     H69888   0.416   8.166   7.785  0.6106 -0.1358  0.3850
  518MOL0     H69889   0.349   8.314   7.846 -2.4771 -1.6311  0.5713
  518MOL0     H69890   0.281   8.355   8.146  0.3149 -2.6117  2.5682
  518MOL0     H69891   0.010   8.549   8.155 -1.6191  0.4496  2.0776
  518MOL0     H69892   0.015   8.439   8.299  0.3342  0.5172 -0.1524
  518MOL0     H69893   0.165   8.507   8.228 -1.1550  2.3169  2.3325
  518MOL0     H69894  -0.479   8.160   7.890 -1.0375  0.0373 -1.5445
  518MOL0     H69895  -0.677   8.273   7.774 -0.1443  1.4891 -0.9604
  518MOL0     H69896  -0.876   8.414   7.679 -1.2726  3.4626 -1.7625
  518MOL0     H69897  -0.841   8.374   7.852  0.7441 -1.1364 -1.3521
  518MOL0     H69898  -0.931   8.600   7.913 -0.8681 -1.1755  1.6205
  518MOL0     H69899  -0.929   8.644   7.747  0.0735  0.5129  1.1149
  518MOL0     H69900  -1.122   8.522   7.692 -0.2841  0.6378 -0.1945
  518MOL0     H69901  -1.161   8.606   7.840 -0.2724 -0.8922 -0.5647
  518MOL0     H69902  -1.099   8.319   7.838  2.6342  1.1403  1.6092
  518MOL0     H69903  -1.131   8.405   7.980  3.4329 -0.1457 -0.8841
  518MOL0     H69904  -1.359   8.469   7.866  1.3706  0.5487 -1.6581
  518MOL0     H69905  -1.339   8.293   7.911 -1.6774  0.4761  0.7240
  518MOL0     H69906  -1.442   8.325   7.679  0.1817  0.5597 -1.3089
  518MOL0     H69907  -1.298   8.413   7.628  0.2044 -0.9684 -0.7453
  518MOL0     H69908  -1.285   8.132   7.762 -1.4684 -0.8965 -0.8700
  518MOL0     H69909  -1.169   8.216   7.655 -1.0491 -0.3758 -0.9048
  518MOL0     H69910  -1.350   8.183   7.473  1.3606 -0.5600 -0.1062
  518MOL0     H69911  -1.429   8.087   7.603 -0.5443  0.4762  0.5745
  518MOL0     H69912  -0.509   8.648   7.853 -1.5321  0.2637 -0.7202
  518MOL0     H69913  -0.291   8.532   7.932 -0.1427 -1.7458  1.2550
  518MOL0     H69914  -0.092   8.132   7.920  2.5148 -0.7102 -0.8129
  518MOL0     H69915   0.135   8.043   7.889  1.1066 -0.1029 -0.1779
  518MOL0     H69916   2.001   7.731   7.657  1.4378 -0.3281  0.4544
  518MOL0     H69917   2.245   7.729   7.690 -2.1534 -2.0061 -1.2808
  518MOL0     H69918   2.629   7.872   7.684 -1.6736 -0.9869  0.1553
  518MOL0     H69919   2.866   7.880   7.684 -3.8346 -1.2854 -0.7432
  518MOL0     H69920   3.061   7.861   7.720 -3.2221  1.0242  0.8946
  518MOL0     H69921   3.198   7.940   7.792 -1.2214  0.6325 -3.3104
  518MOL0     H69922   3.055   7.686   7.907  1.0622 -1.2720 -2.1356
  518MOL0     H69923   3.158   7.792   8.003 -0.4572 -1.7653  1.2108
  518MOL0     H69924   3.286   7.622   7.939 -0.5068 -0.9379  0.0407
  518MOL0     H69925   3.337   7.756   7.836 -0.2203 -1.5795 -1.9186
  518MOL0     H69926   3.274   7.646   7.645 -1.9207  0.9337 -0.9689
  518MOL0     H69927   3.131   7.575   7.722 -0.6882  0.0824 -2.4281
  518MOL0     H69928   3.362   7.240   7.757  0.8225 -0.0062  2.7803
  518MOL0     H69929   2.861   8.003   8.105 -0.2805 -0.7673  0.2529
  518MOL0     H69930   2.620   7.987   8.098 -0.8494 -0.9608 -0.3719
  519MOL0     O69931   2.001   6.595   2.489 -0.1845 -0.1271 -0.1527
  519MOL0     C69932   1.990   6.718   2.483  0.0781  0.7418 -0.9486
  519MOL0     O69933   1.869   6.786   2.459  0.0408 -0.2251  0.0263
  519MOL0     C69934   1.752   6.714   2.455 -0.7468 -0.3853  0.9616
  519MOL0     C69935   1.711   6.643   2.572  0.2912 -0.6385 -0.5555
  519MOL0     C69936   1.587   6.574   2.582  0.2661 -0.0735  0.0203
  519MOL0     C69937   1.506   6.582   2.469 -0.0153  0.1459  0.4510
  519MOL0     O69938   1.386   6.515   2.454 -0.4849  0.1113 -0.1355
  519MOL0     C69939   1.364   6.393   2.533 -0.5145  0.4883 -0.2386
  519MOL0     C69940   1.234   6.320   2.497 -1.1477 -0.5116  0.4023
  519MOL0     C69941   1.121   6.411   2.553 -0.6168  0.7292 -0.5622
  519MOL0     C69942   0.980   6.363   2.512  0.0193  0.3953 -0.3952
  519MOL0     C69943   0.871   6.437   2.585  1.3703 -1.3785 -0.6964
  519MOL0     C69944   0.865   6.584   2.559  0.0740 -0.0775  0.1097
  519MOL0     C69945   0.751   6.652   2.630  0.2636 -0.2278  0.2122
  519MOL0     C69946   0.615   6.633   2.576  0.9925  0.0010  0.7674
  519MOL0     N69947   0.512   6.703   2.658  0.5723  0.0194 -0.4441
  519MOL0     C69948   0.460   6.824   2.613 -0.0777  0.3967 -0.0486
  519MOL0     C69949   0.381   6.869   2.714  0.1248 -0.1099  0.0318
  519MOL0     C69950   0.294   6.990   2.705 -0.0287 -0.6876 -0.1811
  519MOL0     C69951   0.213   7.015   2.833 -0.6358  0.4718  0.0843
  519MOL0     C69952   0.292   7.103   2.932 -0.8529 -0.6272 -0.1237
  519MOL0     C69953   0.404   7.026   3.008  0.4104 -0.3998  0.8523
  519MOL0     O69954   0.483   7.126   3.080 -0.1804  0.3217 -0.1711
  519MOL0     C69955   0.429   7.183   3.188 -0.3959  0.3405 -0.9241
  519MOL0     C69956   0.444   7.319   3.194 -0.5993  0.9275  0.4000
  519MOL0     C69957   0.406   7.390   3.310 -1.3314 -0.6018 -0.6783
  519MOL0     C69958   0.419   7.548   3.314  0.0435  0.3554  0.3661
  519MOL0     C69959   0.342   7.323   3.419 -0.1765  0.3961 -0.0196
  519MOL0     C69960   0.302   7.381   3.551 -0.4360  0.5984 -0.3650
  519MOL0     O69961   0.181   7.343   3.611 -0.0864 -1.1357  1.1349
  519MOL0     C69962   0.157   7.400   3.736  0.0303  0.4395 -0.3271
  519MOL0     C69963   0.061   7.500   3.752  0.5791  1.1389  0.5515
  519MOL0     C69964   0.035   7.550   3.882  0.0099 -0.6893  0.2866
  519MOL0     C69965   0.099   7.519   3.994 -0.2060  0.0383  0.5193
  519MOL0     O69966   0.041   7.565   4.113  0.1627 -0.0492  0.7876
  519MOL0     C69967   0.133   7.582   4.222  0.1515  0.4602 -0.0345
  519MOL0     C69968   0.076   7.661   4.333  0.8490  0.9180  0.2347
  519MOL0     C69969   0.016   7.791   4.280  0.6571  0.3007 -0.1786
  519MOL0     C69970  -0.006   7.892   4.394 -0.3313 -0.3576 -0.8142
  519MOL0     C69971  -0.029   8.039   4.356  0.5714 -0.8461 -0.7417
  519MOL0     C69972  -0.179   8.078   4.312 -0.7830 -0.4806  0.0668
  519MOL0     C69973  -0.205   8.228   4.294 -0.2179  0.3424  1.3949
  519MOL0     C69974  -0.159   8.315   4.409 -0.2122  1.2996  0.1346
  519MOL0    Cl69975  -0.035   8.425   4.349  0.5287  0.0422  0.1903
  519MOL0     C69976   0.203   7.432   3.978 -0.5705 -0.5924 -0.4331
  519MOL0     C69977   0.238   7.371   3.853 -0.1016 -0.4273  0.6503
  519MOL0     O69978   0.387   7.454   3.604  1.1981 -0.5790 -0.1376
  519MOL0     C69979   0.329   7.182   3.405 -0.8049  0.2188 -0.5687
  519MOL0     C69980   0.369   7.106   3.295  0.5172  0.1154 -1.0026
  519MOL0     N69981   0.400   6.782   2.818 -0.7951 -0.1426 -0.1258
  519MOL0     N69982   0.478   6.684   2.789  0.5539 -0.1081  0.2716
  519MOL0     C69983   1.543   6.666   2.351  0.4344 -0.3015  0.0206
  519MOL0     C69984   1.665   6.731   2.349 -0.3499 -0.0216  0.2252
  519MOL0     C69985   2.104   6.803   2.509  0.4055  0.5579  0.0435
  519MOL0     C69986   2.086   6.932   2.544  0.4113 -1.0093  0.5551
  519MOL0     C69987   2.203   7.016   2.572  0.0757 -0.6817 -0.5059
  519MOL0     C69988   2.341   6.964   2.573  0.1041  0.6360  0.0152
  519MOL0     O69989   2.440   7.054   2.601 -0.1914 -0.3871 -0.2795
  519MOL0     C69990   2.580   7.007   2.596  0.2056 -0.2686  0.4906
  519MOL0     C69991   2.639   6.991   2.462  0.2284 -0.0824 -0.3666
  519MOL0     C69992   2.621   7.114   2.372  0.1498  0.5897  0.3025
  519MOL0     C69993   2.670   7.090   2.228  0.1557  0.1240  0.9815
  519MOL0     C69994   2.686   7.218   2.153 -0.1723  0.3028  0.4163
  519MOL0     C69995   2.680   7.322   2.087  0.7537 -0.1051  0.1884
  519MOL0     C69996   2.352   6.827   2.533  0.1246  0.0080 -0.5949
  519MOL0     C69997   2.236   6.750   2.507 -0.0373  0.4402  0.3232
  519MOL0     H69998   1.767   6.644   2.665  0.9053 -0.3988 -0.9228
  519MOL0     H69999   1.558   6.532   2.677  2.0056  3.2250  2.2413
  519MOL0     H70000   1.447   6.325   2.513 -1.7240 -2.0233  2.5055
  519MOL0     H70001   1.376   6.414   2.639  3.1948 -1.0369 -0.2116
  519MOL0     H70002   1.225   6.312   2.388  2.9661  0.9588 -0.2340
  519MOL0     H70003   1.231   6.214   2.522 -5.0414 -1.6511 -3.7403
  519MOL0     H70004   1.138   6.426   2.660 -0.7996  0.1673 -0.4539
  519MOL0     H70005   1.135   6.514   2.517 -0.3519  1.4377  1.4677
  519MOL0     H70006   0.961   6.354   2.405  2.3792  0.6729 -0.8756
  519MOL0     H70007   0.971   6.261   2.550 -0.6427  1.0054  1.2248
  519MOL0     H70008   0.773   6.390   2.571  0.2550  0.9129 -1.0441
  519MOL0     H70009   0.894   6.432   2.692 -1.6578 -0.8879  0.0705
  519MOL0     H70010   0.952   6.634   2.602 -0.1448 -0.1169  0.6109
  519MOL0     H70011   0.859   6.604   2.452 -3.5661 -1.6679 -0.1288
  519MOL0     H70012   0.753   6.632   2.737 -2.5082 -2.2329  0.0206
  519MOL0     H70013   0.768   6.758   2.610 -1.0096  0.0177  0.3469
  519MOL0     H70014   0.595   6.526   2.583 -0.8341 -0.1445 -3.5546
  519MOL0     H70015   0.614   6.665   2.471 -3.5751  2.5464  1.3254
  519MOL0     H70016   0.468   6.872   2.516 -2.3349  2.0741  0.5367
  519MOL0     H70017   0.358   7.074   2.679 -0.0140  0.0455  1.9709
  519MOL0     H70018   0.225   6.965   2.624  1.6461 -0.7413 -1.6374
  519MOL0     H70019   0.186   6.925   2.888 -1.1476  0.0201 -0.8816
  519MOL0     H70020   0.129   7.077   2.800  0.3224  0.5564 -2.4254
  519MOL0     H70021   0.222   7.145   3.004  1.2559  1.9362  0.5919
  519MOL0     H70022   0.346   7.179   2.876 -0.8144 -1.8550 -1.8440
  519MOL0     H70023   0.471   6.967   2.944 -2.2479 -2.4204 -0.2568
  519MOL0     H70024   0.357   6.952   3.074  2.0511 -1.3730  0.9920
  519MOL0     H70025   0.505   7.377   3.126  1.5971  1.2324  2.5109
  519MOL0     H70026   0.326   7.602   3.334  0.9022  1.0033  3.0635
  519MOL0     H70027   0.487   7.573   3.396 -2.1799 -0.0987  2.4731
  519MOL0     H70028   0.463   7.580   3.219  1.1918 -0.5969  0.5592
  519MOL0     H70029   0.002   7.534   3.666  1.2613  0.8590 -0.0357
  519MOL0     H70030  -0.039   7.628   3.899  1.6227  1.1113 -0.5467
  519MOL0     H70031   0.150   7.483   4.267  0.0026 -0.5757 -2.1065
  519MOL0     H70032   0.223   7.632   4.188 -0.7636  1.4171 -1.1332
  519MOL0     H70033   0.002   7.599   4.384  1.4115 -1.9115 -2.1454
  519MOL0     H70034   0.165   7.677   4.395  2.9960 -1.6269 -1.9675
  519MOL0     H70035  -0.074   7.785   4.218  0.5114 -0.1256  0.0738
  519MOL0     H70036   0.093   7.831   4.213  0.8133 -1.0810 -0.8685
  519MOL0     H70037  -0.096   7.852   4.441  0.1755 -1.3561 -0.6717
  519MOL0     H70038   0.076   7.886   4.467 -0.3277  1.6886 -0.5944
  519MOL0     H70039   0.045   8.061   4.278 -0.1716 -1.6385 -1.6897
  519MOL0     H70040  -0.012   8.092   4.451 -0.9089 -2.3592  0.4298
  519MOL0     H70041  -0.202   8.020   4.222 -1.3042  0.2185 -0.2597
  519MOL0     H70042  -0.246   8.044   4.391 -0.9479 -0.6151 -0.1294
  519MOL0     H70043  -0.313   8.241   4.286 -0.0921  0.9749  0.5637
  519MOL0     H70044  -0.169   8.259   4.196 -1.0879 -0.7604  0.7166
  519MOL0     H70045  -0.126   8.256   4.494  2.4976  2.1598 -0.2231
  519MOL0     H70046  -0.243   8.371   4.452 -0.5162  2.6084 -1.9987
  519MOL0     H70047   0.248   7.401   4.072  2.5705  1.0471 -1.2761
  519MOL0     H70048   0.314   7.294   3.847 -0.2747 -0.5528 -0.0265
  519MOL0     H70049   0.272   7.132   3.483 -0.0117  0.1328 -0.0348
  519MOL0     H70050   0.353   6.999   3.303  0.2460  0.2940  1.4872
  519MOL0     H70051   1.493   6.664   2.254  0.0890  0.1589  0.1809
  519MOL0     H70052   1.699   6.780   2.259  2.1116 -2.0564 -0.0464
  519MOL0     H70053   1.995   6.991   2.550  2.7925  2.9713  1.5411
  519MOL0     H70054   2.192   7.116   2.611  3.2030  0.3334 -1.9036
  519MOL0     H70055   2.619   7.088   2.659  1.6437 -2.3900  2.5011
  519MOL0     H70056   2.589   6.918   2.658  2.3954  0.0154  0.6696
  519MOL0     H70057   2.591   6.903   2.419  0.2765  0.3174 -1.2629
  519MOL0     H70058   2.744   6.971   2.486 -0.6484 -2.8717  1.5507
  519MOL0     H70059   2.684   7.193   2.415  1.5599 -0.4238  0.1614
  519MOL0     H70060   2.514   7.136   2.368  0.0241  0.6196  2.6209
  519MOL0     H70061   2.607   7.021   2.172  1.5407  0.1682 -0.7267
  519MOL0     H70062   2.771   7.049   2.224 -0.1462 -0.5176 -1.2151
  519MOL0     H70063   2.665   7.418   2.043 -0.2879  0.6584  2.0775
  519MOL0     H70064   2.449   6.778   2.537 -0.5975 -1.3715  0.7413
  519MOL0     H70065   2.246   6.650   2.467 -0.4826  0.2702  0.6300
  520MOL0     O70066   7.643   2.347   2.824 -0.3713 -0.1654 -0.4072
  520MOL0     C70067   7.726   2.367   2.911  0.3582 -0.8806  0.0046
  520MOL0     O70068   7.693   2.414   3.037 -0.2556  0.8779  0.4764
  520MOL0     C70069   7.571   2.450   3.069  0.7895  0.7930 -0.3080
  520MOL0     C70070   7.466   2.497   2.978 -0.0586 -0.3828 -0.3330
  520MOL0     C70071   7.332   2.514   3.028 -0.5507 -0.3510  0.7304
  520MOL0     C70072   7.294   2.496   3.159 -0.5046 -0.3654  0.4959
  520MOL0     O70073   7.158   2.506   3.181  0.8772  0.5521  0.1687
  520MOL0     C70074   7.098   2.470   3.308  0.8787 -0.0017 -0.7568
  520MOL0     C70075   6.962   2.535   3.320  0.3677  0.3843  0.0632
  520MOL0     C70076   6.874   2.448   3.405  0.4407  0.0392  0.9559
  520MOL0     C70077   6.759   2.543   3.445 -0.2561 -0.9726 -0.1462
  520MOL0     C70078   6.657   2.472   3.539 -0.8475  0.4125 -0.0051
  520MOL0     C70079   6.555   2.393   3.442 -0.0462  0.0273 -0.3836
  520MOL0     C70080   6.457   2.484   3.352 -0.3168  0.3795 -0.1891
  520MOL0     C70081   6.368   2.574   3.435 -0.0623 -0.4406 -0.0278
  520MOL0     N70082   6.288   2.486   3.513  0.0848  1.2498  0.0955
  520MOL0     C70083   6.156   2.442   3.485 -0.3767  0.7065 -0.3059
  520MOL0     C70084   6.104   2.411   3.602 -0.4046 -0.9667 -0.9385
  520MOL0     C70085   5.965   2.356   3.624 -0.2722 -0.3250  0.5203
  520MOL0     C70086   5.878   2.388   3.505  0.2486  0.6719 -0.0965
  520MOL0     C70087   5.743   2.345   3.553 -0.0224  0.4818 -0.5397
  520MOL0     C70088   5.627   2.350   3.448 -0.6372  0.1219 -0.9215
  520MOL0     O70089   5.523   2.276   3.502 -0.8653  0.4532 -0.4585
  520MOL0     C70090   5.400   2.317   3.465  0.2654 -1.2322 -0.1970
  520MOL0     C70091   5.334   2.237   3.377 -0.4601 -0.1726  0.9659
  520MOL0     C70092   5.206   2.285   3.320 -0.7895  0.0976  0.9619
  520MOL0     C70093   5.149   2.194   3.211  0.4424 -0.0999  0.5937
  520MOL0     C70094   5.158   2.414   3.365 -0.3082 -0.8376 -0.1644
  520MOL0     C70095   5.037   2.483   3.315  0.1597 -0.3735  0.5099
  520MOL0     O70096   4.999   2.601   3.390  0.5357 -1.0519  0.7290
  520MOL0     C70097   4.889   2.673   3.348 -0.6177  0.7624 -0.0371
  520MOL0     C70098   4.772   2.603   3.327  0.5674  0.0479  1.0139
  520MOL0     C70099   4.661   2.670   3.283  0.3232 -0.1134 -0.4549
  520MOL0     C70100   4.663   2.808   3.261 -0.0862  0.4905 -0.2353
  520MOL0     O70101   4.542   2.867   3.215 -0.2470 -0.4146  0.5006
  520MOL0     C70102   4.554   3.007   3.181  0.1493  0.6997  0.3419
  520MOL0     C70103   4.411   3.054   3.142  0.3849  0.0425 -0.3200
  520MOL0     C70104   4.351   2.963   3.029 -0.1282 -0.0588 -0.4241
  520MOL0     C70105   4.230   3.027   2.957  1.1215 -0.5264  0.2310
  520MOL0     C70106   4.152   2.938   2.854  0.5477  0.2451 -0.1948
  520MOL0     C70107   4.015   3.003   2.809  0.0626  0.3769  0.0132
  520MOL0     C70108   3.905   2.891   2.805 -0.1322  0.3051  0.2935
  520MOL0     C70109   3.777   2.954   2.797  0.7417 -1.5255  0.5386
  520MOL0    Cl70110   3.748   3.003   2.635  0.3198  0.1158 -0.2178
  520MOL0     C70111   4.778   2.877   3.290  0.3500 -0.0504 -0.1004
  520MOL0     C70112   4.891   2.809   3.335 -0.4818  1.0116 -0.4082
  520MOL0     O70113   4.988   2.442   3.214  0.4175 -0.1564 -0.1041
  520MOL0     C70114   5.233   2.481   3.461  0.0251 -0.3347 -0.2466
  520MOL0     C70115   5.349   2.436   3.513  0.2535  0.1565  0.1414
  520MOL0     N70116   6.195   2.436   3.703 -0.0027 -0.3695 -0.4834
  520MOL0     N70117   6.303   2.479   3.652 -0.0873 -0.4063  0.5039
  520MOL0     C70118   7.403   2.463   3.245  0.0316  0.1459  0.3730
  520MOL0     C70119   7.535   2.451   3.200 -0.1065  0.5063  0.1364
  520MOL0     C70120   7.860   2.331   2.869  0.5612 -0.3915  0.1181
  520MOL0     C70121   7.890   2.294   2.739  1.4608  0.2399 -0.1617
  520MOL0     C70122   8.012   2.237   2.715 -0.1843 -0.2293  0.2316
  520MOL0     C70123   8.121   2.234   2.809  0.0011 -0.1322  0.6482
  520MOL0     O70124   8.227   2.159   2.779  0.1918 -0.3565  0.7967
  520MOL0     C70125   8.306   2.221   2.684 -1.1640  0.5740 -0.4589
  520MOL0     C70126   8.405   2.112   2.642  0.1333  0.2410  0.2978
  520MOL0     C70127   8.486   2.134   2.505 -0.0594  1.0137 -0.3405
  520MOL0     C70128   8.601   2.234   2.524 -0.2934 -0.3223  0.3528
  520MOL0     C70129   8.561   2.375   2.533 -0.2052  1.1093 -0.8289
  520MOL0     C70130   8.544   2.494   2.535 -0.2367  0.2401  0.0921
  520MOL0     C70131   8.100   2.289   2.931 -0.0258 -0.2492 -0.1896
  520MOL0     C70132   7.971   2.340   2.960  0.0598  1.0030 -0.3590
  520MOL0     H70133   7.491   2.530   2.877 -0.1765  2.1983  0.4311
  520MOL0     H70134   7.261   2.554   2.957  0.3698  0.7888  0.4297
  520MOL0     H70135   7.099   2.361   3.308  1.9738 -0.0324  0.9197
  520MOL0     H70136   7.161   2.495   3.394 -0.6363 -0.7479  0.6100
  520MOL0     H70137   6.963   2.634   3.366 -4.9101  0.4926  0.6361
  520MOL0     H70138   6.908   2.531   3.225 -2.1027  0.3961  1.3645
  520MOL0     H70139   6.840   2.364   3.343  3.1012 -0.0975 -0.4726
  520MOL0     H70140   6.923   2.418   3.498 -0.2986  0.3661  1.4594
  520MOL0     H70141   6.784   2.639   3.492 -0.2390 -1.1977  0.3096
  520MOL0     H70142   6.698   2.566   3.357 -0.1765 -2.1829 -0.5443
  520MOL0     H70143   6.709   2.404   3.607  1.4540  3.0421  1.0436
  520MOL0     H70144   6.607   2.542   3.606 -0.8426 -0.0023  0.4356
  520MOL0     H70145   6.617   2.330   3.378 -0.6017 -0.9345 -0.0104
  520MOL0     H70146   6.500   2.326   3.509  0.7131 -0.0523  0.1726
  520MOL0     H70147   6.510   2.547   3.280  0.0227  0.7046  0.3390
  520MOL0     H70148   6.399   2.405   3.304  0.6760 -0.8361  0.5474
  520MOL0     H70149   6.312   2.642   3.370  1.9061  0.7332 -0.5844
  520MOL0     H70150   6.425   2.644   3.497 -0.0041 -0.7040  0.2207
  520MOL0     H70151   6.102   2.432   3.392  1.1205 -1.0746 -1.0324
  520MOL0     H70152   5.982   2.248   3.623 -3.3417 -0.9503 -2.8511
  520MOL0     H70153   5.914   2.399   3.711 -0.4867  1.9935 -0.6821
  520MOL0     H70154   5.886   2.327   3.414 -1.2032  1.1163 -0.5558
  520MOL0     H70155   5.876   2.490   3.467 -2.2801  1.8104  2.7627
  520MOL0     H70156   5.710   2.400   3.641  1.5152 -1.7317  1.5592
  520MOL0     H70157   5.746   2.241   3.587 -0.9095  0.8711  0.7842
  520MOL0     H70158   5.661   2.316   3.350  1.9001 -1.0837  0.2761
  520MOL0     H70159   5.608   2.457   3.435  0.6583  0.5142  0.0822
  520MOL0     H70160   5.364   2.141   3.337 -2.8260 -0.3582 -0.5371
  520MOL0     H70161   5.171   2.092   3.244 -0.0002  0.5496  3.0331
  520MOL0     H70162   5.040   2.204   3.212  0.5595  1.5634 -0.3279
  520MOL0     H70163   5.190   2.223   3.113  0.8980  0.6338  0.9976
  520MOL0     H70164   4.772   2.496   3.343  3.3772 -0.0175  0.9737
  520MOL0     H70165   4.563   2.626   3.265  0.7722 -0.4137 -2.3902
  520MOL0     H70166   4.592   3.064   3.267  0.4905 -0.4916  1.0017
  520MOL0     H70167   4.627   3.022   3.101 -0.8113  4.1901 -0.0545
  520MOL0     H70168   4.353   3.040   3.234  0.3095 -0.6422 -0.4727
  520MOL0     H70169   4.410   3.158   3.108  1.7509 -0.1030 -0.8573
  520MOL0     H70170   4.310   2.878   3.085  2.1400 -1.7683 -1.2213
  520MOL0     H70171   4.427   2.923   2.962  2.4603  1.0580  1.6623
  520MOL0     H70172   4.153   3.071   3.021 -0.8633  0.2331 -2.4817
  520MOL0     H70173   4.260   3.112   2.895 -0.2270 -0.6471 -0.6448
  520MOL0     H70174   4.146   2.839   2.900  2.7880  1.4039  2.9105
  520MOL0     H70175   4.212   2.926   2.763 -0.2417 -2.4220 -0.4481
  520MOL0     H70176   3.990   3.068   2.893 -2.6453 -0.3827 -0.1194
  520MOL0     H70177   4.025   3.063   2.718 -0.1231 -1.0600 -1.0044
  520MOL0     H70178   3.904   2.822   2.890 -1.2518  0.4169  0.3882
  520MOL0     H70179   3.907   2.819   2.723 -1.2065 -2.1397  2.2550
  520MOL0     H70180   3.763   3.028   2.876 -0.8514 -1.1870 -0.0247
  520MOL0     H70181   3.708   2.873   2.822 -0.7482  0.0412  1.7706
  520MOL0     H70182   4.802   2.980   3.265  1.0029 -0.9500 -3.8105
  520MOL0     H70183   4.979   2.867   3.363  0.7445  0.4539 -2.8152
  520MOL0     H70184   5.192   2.569   3.511  1.1734 -0.0927  0.2846
  520MOL0     H70185   5.396   2.482   3.599 -0.0495 -1.7985  1.4060
  520MOL0     H70186   7.389   2.440   3.350  0.6794  0.8049  0.6151
  520MOL0     H70187   7.617   2.433   3.268 -0.2684  3.7704  1.3795
  520MOL0     H70188   7.806   2.290   2.671 -0.6100  0.9675  2.2091
  520MOL0     H70189   8.023   2.172   2.628 -0.6946 -0.3521  0.2574
  520MOL0     H70190   8.252   2.257   2.596 -0.8288  0.2496 -0.8043
  520MOL0     H70191   8.351   2.299   2.745  1.2847 -1.4184  0.4474
  520MOL0     H70192   8.366   2.010   2.642 -1.9533  0.8828 -2.9936
  520MOL0     H70193   8.484   2.108   2.717 -0.5348  2.7297  1.2396
  520MOL0     H70194   8.411   2.166   2.433 -1.1281 -1.4877 -0.4659
  520MOL0     H70195   8.519   2.040   2.459 -1.4851  1.1493 -1.7380
  520MOL0     H70196   8.670   2.219   2.440 -0.5732 -1.7246  0.3495
  520MOL0     H70197   8.665   2.205   2.607 -0.2379  0.6474  0.6558
  520MOL0     H70198   8.534   2.600   2.546  2.1069  0.4868  0.5059
  520MOL0     H70199   8.166   2.274   3.016  0.2573 -0.3800 -0.4283
  520MOL0     H70200   7.952   2.370   3.063 -1.2546  1.0688 -0.5936
  521MOL0     O70201   8.632  10.700   2.237  1.0806 -0.2106  0.0028
  521MOL0     C70202   8.651  10.742   2.350 -0.4989 -0.3359 -0.3904
  521MOL0     O70203   8.555  10.807   2.431  0.1699  0.1342 -0.1285
  521MOL0     C70204   8.437  10.837   2.372 -0.2206  0.1803 -0.2754
  521MOL0     C70205   8.320  10.798   2.437  0.0441 -0.1766 -0.6332
  521MOL0     C70206   8.193  10.834   2.387  0.7761 -0.7369 -0.3203
  521MOL0     C70207   8.179  10.910   2.268 -0.0988 -0.2300  0.7566
  521MOL0     O70208   8.057  10.956   2.219 -0.0392  0.5001 -0.2025
  521MOL0     C70209   7.950  10.865   2.242  0.8665  0.2750  0.9603
  521MOL0     C70210   7.859  10.869   2.119  0.1277  0.0907 -0.5395
  521MOL0     C70211   7.738  10.766   2.124 -0.0123  0.4639 -0.2073
  521MOL0     C70212   7.651  10.776   2.006 -0.0589 -0.1670 -0.6868
  521MOL0     C70213   7.536  10.876   2.041  0.1051  0.8012 -0.1521
  521MOL0     C70214   7.434  10.896   1.917  0.0387  0.6470 -0.4325
  521MOL0     C70215   7.379  10.767   1.877  0.8700  0.4124  0.1875
  521MOL0     C70216   7.242  10.792   1.800  0.4485 -0.8326  0.3329
  521MOL0     N70217   7.126  10.800   1.893 -0.4199  0.4105 -0.2777
  521MOL0     C70218   7.086  10.893   1.979  0.1483 -0.6479  0.0556
  521MOL0     C70219   6.960  10.853   2.023  0.4149  0.4387  0.8473
  521MOL0     C70220   6.900  10.926   2.139  0.5447  0.4972  0.1115
  521MOL0     C70221   6.766  10.863   2.176 -1.1095  0.2031  0.0067
  521MOL0     C70222   6.661  10.882   2.061  0.1786  0.3936 -0.3544
  521MOL0     C70223   6.587  10.756   2.018  0.2756 -0.7768  0.6566
  521MOL0     O70224   6.480  10.726   2.113  0.5487 -0.1870 -0.1653
  521MOL0     C70225   6.365  10.800   2.116 -0.0321 -0.7486 -0.3792
  521MOL0     C70226   6.314  10.870   2.011  0.2337 -0.4381  0.0020
  521MOL0     C70227   6.200  10.953   2.030 -0.3679 -0.1318 -0.0932
  521MOL0     C70228   6.154  11.038   1.911 -0.2209 -0.5535  0.2977
  521MOL0     C70229   6.135  10.963   2.154  0.4786  0.7030 -0.5156
  521MOL0     C70230   6.008  11.038   2.178  0.6380 -0.2189  0.6980
  521MOL0     O70231   5.910  10.988   2.258  0.5532  0.2012  0.0193
  521MOL0     C70232   5.808  11.061   2.285  1.0931 -0.1167  0.0219
  521MOL0     C70233   5.816  11.171   2.364  0.4053  0.0903 -0.3375
  521MOL0     C70234   5.698  11.242   2.401  0.0363 -0.4623  1.1801
  521MOL0     C70235   5.577  11.206   2.334 -0.6122 -0.2390 -0.3704
  521MOL0     O70236   5.483  11.305   2.361 -0.3346  0.1916  0.0968
  521MOL0     C70237   5.359  11.257   2.311 -0.0909 -0.1914  0.9613
  521MOL0     C70238   5.268  11.377   2.330  0.1820  0.3157 -0.1618
  521MOL0     C70239   5.117  11.346   2.350 -0.1331 -0.4077  1.0954
  521MOL0     C70240   5.037  11.466   2.394  0.3334 -0.0617  0.4996
  521MOL0     C70241   4.891  11.422   2.413 -0.0213  0.0039 -0.6147
  521MOL0     C70242   4.806  11.537   2.460 -1.0414 -0.7757  0.1231
  521MOL0     C70243   4.663  11.493   2.489 -0.3964  0.5861 -0.0680
  521MOL0     C70244   4.567  11.611   2.492  0.1605 -0.8452 -0.1438
  521MOL0    Cl70245   4.402  11.545   2.525 -0.1431 -0.0039  0.1626
  521MOL0     C70246   5.576  11.087   2.255  0.5853  0.1819  0.2377
  521MOL0     C70247   5.691  11.012   2.236 -0.6423 -0.0392  0.3771
  521MOL0     O70248   6.008  11.157   2.136  0.5311 -0.0167 -0.2066
  521MOL0     C70249   6.191  10.885   2.258  0.0796  0.2102  1.7399
  521MOL0     C70250   6.301  10.804   2.236 -0.3647  0.4479  0.3690
  521MOL0     N70251   6.929  10.737   1.955 -0.2651 -0.4763  0.4576
  521MOL0     N70252   7.026  10.709   1.875 -0.4981  0.6518  0.2953
  521MOL0     C70253   8.297  10.955   2.210  0.1035 -0.1880 -0.1438
  521MOL0     C70254   8.425  10.911   2.254 -0.5312 -0.2079  0.5041
  521MOL0     C70255   8.781  10.721   2.408 -0.1843 -0.1086 -0.0205
  521MOL0     C70256   8.872  10.622   2.358 -0.3749  0.0440 -0.7239
  521MOL0     C70257   8.993  10.593   2.432 -0.6583 -0.2122  0.0810
  521MOL0     C70258   9.030  10.662   2.547 -0.8684  0.3907  0.7279
  521MOL0     O70259   9.144  10.639   2.617  0.3192 -0.1300  0.0780
  521MOL0     C70260   9.245  10.540   2.574 -0.4436 -0.2112 -0.1050
  521MOL0     C70261   9.350  10.509   2.673  0.8113 -0.4786  0.3839
  521MOL0     C70262   9.450  10.622   2.689 -0.2283  0.6424  0.6319
  521MOL0     C70263   9.518  10.617   2.827 -0.1229 -0.0479 -1.1204
  521MOL0     C70264   9.590  10.492   2.854 -0.8554  0.1142  0.4217
  521MOL0     C70265   9.647  10.382   2.874 -0.6142 -0.0531  0.1637
  521MOL0     C70266   8.944  10.763   2.580  1.0319 -0.4880 -0.5192
  521MOL0     C70267   8.824  10.799   2.517  0.5030 -0.9035  0.8590
  521MOL0     H70268   8.325  10.735   2.525  1.0509 -0.5660 -0.9488
  521MOL0     H70269   8.102  10.800   2.435  0.4033  0.6889  0.0395
  521MOL0     H70270   7.982  10.762   2.259 -0.9246 -0.8180 -1.5856
  521MOL0     H70271   7.894  10.894   2.331 -1.9193 -3.9388  0.8833
  521MOL0     H70272   7.829  10.974   2.106  1.6540  0.6038 -0.1145
  521MOL0     H70273   7.920  10.852   2.029  0.3905 -0.9177 -0.1803
  521MOL0     H70274   7.794  10.673   2.124  2.4276  1.8255  1.2568
  521MOL0     H70275   7.685  10.774   2.220  2.4826  0.3140  1.2856
  521MOL0     H70276   7.716  10.810   1.925  1.6994 -1.0540  0.2852
  521MOL0     H70277   7.615  10.677   1.977 -0.6626  0.0407 -0.6626
  521MOL0     H70278   7.484  10.828   2.124 -0.1477 -1.8362 -1.7396
  521MOL0     H70279   7.588  10.969   2.066  0.8537  1.0122 -2.3221
  521MOL0     H70280   7.349  10.957   1.949 -2.3166 -0.7087 -3.5596
  521MOL0     H70281   7.493  10.945   1.839  1.0206 -0.4064 -0.3690
  521MOL0     H70282   7.456  10.732   1.807  1.0617 -0.2741  0.7351
  521MOL0     H70283   7.374  10.702   1.964 -1.2062  1.4639  0.9204
  521MOL0     H70284   7.235  10.709   1.730  1.5601 -1.8159  1.3364
  521MOL0     H70285   7.240  10.886   1.745 -2.8796 -0.4520  0.9150
  521MOL0     H70286   7.136  10.985   2.009 -2.7042  1.8668 -2.1946
  521MOL0     H70287   6.965  10.938   2.227 -0.3212 -2.9890  1.3622
  521MOL0     H70288   6.869  11.024   2.101  0.0404 -0.4867 -2.1383
  521MOL0     H70289   6.728  10.915   2.264 -3.3719  0.2561 -0.9382
  521MOL0     H70290   6.781  10.758   2.200  1.9809  0.4505 -0.4320
  521MOL0     H70291   6.717  10.909   1.971 -1.1498 -0.6059 -1.5289
  521MOL0     H70292   6.597  10.964   2.096  0.9518  1.0684 -0.4852
  521MOL0     H70293   6.655  10.670   2.026 -1.1139 -1.8510  1.3338
  521MOL0     H70294   6.543  10.760   1.918  0.7860 -0.6197  0.4349
  521MOL0     H70295   6.359  10.860   1.913 -0.6544  0.1330 -0.4695
  521MOL0     H70296   6.236  11.027   1.839 -1.5780 -0.5574 -1.3310
  521MOL0     H70297   6.063  10.998   1.866  0.5815 -0.9389 -1.0276
  521MOL0     H70298   6.152  11.144   1.939 -3.0932 -0.4517  0.0440
  521MOL0     H70299   5.907  11.203   2.413 -0.0305  2.7485 -1.1162
  521MOL0     H70300   5.689  11.324   2.471 -2.0303 -1.8416  2.6585
  521MOL0     H70301   5.362  11.233   2.204  0.4003  0.8757  0.7246
  521MOL0     H70302   5.323  11.172   2.370 -0.3010 -1.1102 -0.4431
  521MOL0     H70303   5.300  11.434   2.418  0.9661 -2.7620  1.6801
  521MOL0     H70304   5.277  11.451   2.250 -2.2541  2.5174  1.4317
  521MOL0     H70305   5.107  11.268   2.426  0.3935 -1.0497  0.5170
  521MOL0     H70306   5.078  11.302   2.258  0.2569  3.6528 -1.2495
  521MOL0     H70307   5.068  11.513   2.488  0.6002  1.9515 -0.5288
  521MOL0     H70308   5.048  11.546   2.319 -0.8300 -1.1773 -0.9252
  521MOL0     H70309   4.885  11.342   2.488  2.5130  0.9993  0.7660
  521MOL0     H70310   4.868  11.400   2.309 -0.9977  2.4333 -0.9697
  521MOL0     H70311   4.848  11.566   2.557 -0.7228 -0.0224 -0.2322
  521MOL0     H70312   4.800  11.619   2.388  2.2473 -1.1142 -0.6980
  521MOL0     H70313   4.655  11.442   2.585  0.8792 -0.8853 -0.6964
  521MOL0     H70314   4.631  11.426   2.408  0.1522  3.1637 -2.5655
  521MOL0     H70315   4.576  11.666   2.398  0.2985  0.1678  0.4447
  521MOL0     H70316   4.584  11.671   2.582 -4.5885 -2.9601  2.5358
  521MOL0     H70317   5.482  11.046   2.218  2.5560 -3.9315 -0.7673
  521MOL0     H70318   5.684  10.919   2.180  0.5531  0.7543 -1.1843
  521MOL0     H70319   6.146  10.883   2.357  3.2703 -1.1542  3.2706
  521MOL0     H70320   6.351  10.759   2.321  0.9925  1.8722  0.3745
  521MOL0     H70321   8.284  11.024   2.127 -3.0408 -1.0099 -0.4548
  521MOL0     H70322   8.519  10.942   2.210 -2.0409 -0.5716 -3.4497
  521MOL0     H70323   8.844  10.560   2.274  4.0577 -2.7972 -0.4530
  521MOL0     H70324   9.064  10.515   2.404  3.9286  3.5334  0.1450
  521MOL0     H70325   9.196  10.443   2.562 -0.5639 -0.2759  0.8003
  521MOL0     H70326   9.295  10.569   2.482  1.8943  1.7342  1.6432
  521MOL0     H70327   9.404  10.417   2.650 -0.3266 -1.9155  2.9488
  521MOL0     H70328   9.300  10.498   2.770  0.4670  2.5802  0.6586
  521MOL0     H70329   9.392  10.714   2.684  1.6209  1.8234 -0.7151
  521MOL0     H70330   9.528  10.617   2.612  0.6379  1.0016  1.4695
  521MOL0     H70331   9.438  10.629   2.901 -2.1130  2.4432 -3.4773
  521MOL0     H70332   9.569  10.713   2.835 -1.2102  0.9536 -4.5579
  521MOL0     H70333   9.700  10.290   2.881 -0.4792 -0.0211 -0.4124
  521MOL0     H70334   8.966  10.803   2.678 -2.3376  1.1392 -0.2697
  521MOL0     H70335   8.755  10.874   2.553  1.4736  0.6542 -0.3768
  522MOL0     O70336   8.625   4.402   9.476 -0.0673  0.1975  0.5411
  522MOL0     C70337   8.597   4.308   9.545 -1.8384  0.5476 -0.0985
  522MOL0     O70338   8.468   4.287   9.597  0.4784  0.5179  0.0921
  522MOL0     C70339   8.368   4.384   9.584  0.6996  0.0254 -1.4897
  522MOL0     C70340   8.239   4.337   9.570  0.4339 -0.4919  0.6149
  522MOL0     C70341   8.133   4.431   9.559 -0.3756 -0.3843 -0.2475
  522MOL0     C70342   8.161   4.567   9.582 -0.3483 -0.4436  0.6689
  522MOL0     O70343   8.064   4.663   9.603  0.1946  0.2783  0.2942
  522MOL0     C70344   7.934   4.646   9.545  0.0880 -0.3270  0.5706
  522MOL0     C70345   7.869   4.777   9.493 -0.0306  0.0082  0.5148
  522MOL0     C70346   7.712   4.783   9.495 -0.2787 -0.2547  0.7153
  522MOL0     C70347   7.651   4.671   9.403  0.4332  0.0232 -0.2366
  522MOL0     C70348   7.503   4.649   9.408  0.2839 -0.1685 -0.2654
  522MOL0     C70349   7.428   4.778   9.362  0.8248  0.3990  0.4659
  522MOL0     C70350   7.273   4.762   9.351 -0.5899 -0.2276 -0.2776
  522MOL0     C70351   7.225   4.749   9.211 -0.8911 -0.0683  0.4030
  522MOL0     N70352   7.092   4.798   9.195  0.9843  0.1235 -0.0277
  522MOL0     C70353   6.978   4.753   9.265 -0.3706 -0.4985 -1.2565
  522MOL0     C70354   6.872   4.823   9.216 -1.0402  1.1251  0.6630
  522MOL0     C70355   6.724   4.812   9.254  0.0777  0.2030 -0.7153
  522MOL0     C70356   6.726   4.759   9.401 -0.2191 -0.2642 -0.4441
  522MOL0     C70357   6.597   4.798   9.474 -0.2041  0.7876  0.3145
  522MOL0     C70358   6.478   4.721   9.411  0.0213 -0.3270 -0.1778
  522MOL0     O70359   6.355   4.774   9.472 -0.1977  0.2310 -0.4519
  522MOL0     C70360   6.290   4.705   9.575 -0.4024  0.4779  0.3309
  522MOL0     C70361   6.173   4.766   9.612  0.8792 -0.7786  0.1939
  522MOL0     C70362   6.095   4.721   9.717 -0.1771 -0.7497  0.5734
  522MOL0     C70363   5.979   4.812   9.755 -0.1558 -1.0442 -0.3822
  522MOL0     C70364   6.130   4.606   9.790  0.1379  0.2569 -0.0743
  522MOL0     C70365   6.057   4.536   9.908  0.1106  0.1291 -0.1632
  522MOL0     O70366   6.087   4.408   9.934  0.3532  0.0212  0.2019
  522MOL0     C70367   6.006   4.355  10.038 -1.0571  0.2364 -0.2091
  522MOL0     C70368   6.054   4.358  10.176 -0.3705  0.6029  0.2660
  522MOL0     C70369   5.982   4.307  10.277  0.4859 -0.8400 -0.3693
  522MOL0     C70370   5.856   4.233  10.266 -0.3049 -0.3665  0.8139
  522MOL0     O70371   5.772   4.188  10.372  0.2106  0.2445  0.5727
  522MOL0     C70372   5.836   4.155  10.503 -0.6165  0.4706  0.6262
  522MOL0     C70373   5.724   4.131  10.602  0.6601  0.2229  0.4826
  522MOL0     C70374   5.760   4.051  10.730 -0.8484  0.4359  0.5286
  522MOL0     C70375   5.874   4.135  10.799  0.0118  0.4701 -0.4991
  522MOL0     C70376   5.902   4.067  10.941  0.4808 -0.0592  0.3317
  522MOL0     C70377   6.005   4.143  11.033  0.4386 -0.6896  0.3969
  522MOL0     C70378   6.026   4.072  11.167  0.3101  0.3230 -0.9612
  522MOL0     C70379   6.133   4.156  11.232  0.1428 -0.1492 -0.4771
  522MOL0    Cl70380   6.133   4.103  11.402  0.2571  0.0841  0.0096
  522MOL0     C70381   5.808   4.228  10.132  0.8009 -0.3495 -0.1940
  522MOL0     C70382   5.878   4.288  10.023  0.0899  0.9375 -0.3337
  522MOL0     O70383   5.975   4.600   9.980 -0.2155  0.4383 -0.0708
  522MOL0     C70384   6.248   4.535   9.739 -0.4793 -0.5488 -0.9136
  522MOL0     C70385   6.324   4.589   9.640  0.0980  0.1266 -0.0604
  522MOL0     N70386   6.921   4.909   9.114  0.2810 -0.0010 -0.4328
  522MOL0     N70387   7.048   4.890   9.104  0.1308  0.1969 -0.9542
  522MOL0     C70388   8.292   4.613   9.595  0.2336  0.1388 -0.0513
  522MOL0     C70389   8.390   4.516   9.612 -0.3831 -0.7164  0.6817
  522MOL0     C70390   8.703   4.203   9.567  0.7594 -0.1459 -0.1911
  522MOL0     C70391   8.828   4.206   9.507 -0.4728  1.0290  0.1584
  522MOL0     C70392   8.911   4.086   9.515  0.7001  0.2933  0.5504
  522MOL0     C70393   8.871   3.976   9.580  0.3290 -0.4341 -0.4088
  522MOL0     O70394   8.944   3.870   9.608  0.6422 -0.1498 -0.8229
  522MOL0     C70395   9.079   3.860   9.577  0.0672 -0.0341 -0.0747
  522MOL0     C70396   9.174   3.957   9.649 -0.1041  0.4526  0.9331
  522MOL0     C70397   9.140   3.977   9.802  0.4658  1.2223  0.2678
  522MOL0     C70398   9.158   3.845   9.890  0.0688 -0.2894  0.4952
  522MOL0     C70399   9.035   3.770   9.924  0.6900  1.4717  0.5647
  522MOL0     C70400   8.930   3.714   9.957  0.5783  0.0360 -0.9305
  522MOL0     C70401   8.743   3.978   9.654 -0.6303  0.1531 -0.3195
  522MOL0     C70402   8.664   4.087   9.640 -0.9020  0.0725 -0.9058
  522MOL0     H70403   8.215   4.234   9.545 -0.3817  0.1085 -1.3240
  522MOL0     H70404   8.035   4.386   9.545 -0.5822 -0.7983  2.0664
  522MOL0     H70405   7.927   4.581   9.458 -0.2059 -1.5331  1.4778
  522MOL0     H70406   7.867   4.599   9.618 -0.7126 -1.1417 -0.6459
  522MOL0     H70407   7.902   4.858   9.559 -0.1240 -0.9079  1.7095
  522MOL0     H70408   7.909   4.796   9.393  0.9028 -0.6165  0.7518
  522MOL0     H70409   7.677   4.791   9.599  1.4015  0.0186  1.2925
  522MOL0     H70410   7.687   4.876   9.442 -1.2348 -0.8451  0.1039
  522MOL0     H70411   7.693   4.682   9.302 -2.1991 -0.3710 -1.4539
  522MOL0     H70412   7.689   4.576   9.442  0.5604 -0.0701 -0.5901
  522MOL0     H70413   7.485   4.567   9.338  3.2142 -1.6399  0.5450
  522MOL0     H70414   7.483   4.622   9.512  0.9887  2.8172  0.7546
  522MOL0     H70415   7.448   4.843   9.448 -0.2063 -0.5377  1.4559
  522MOL0     H70416   7.481   4.816   9.274  0.7241 -0.7624 -0.1157
  522MOL0     H70417   7.232   4.682   9.413  1.4353  0.4385  2.1134
  522MOL0     H70418   7.221   4.848   9.394 -1.6984 -1.0481  0.0597
  522MOL0     H70419   7.234   4.647   9.173  0.5282  0.2577 -0.1786
  522MOL0     H70420   7.282   4.824   9.155  1.2460 -2.5196 -0.9093
  522MOL0     H70421   6.985   4.685   9.349  5.6172  0.4266 -0.5636
  522MOL0     H70422   6.686   4.914   9.264  1.7292  0.7799 -0.0392
  522MOL0     H70423   6.667   4.755   9.179  1.2566 -0.7516 -0.9121
  522MOL0     H70424   6.806   4.807   9.459  0.4990  1.4050 -2.6863
  522MOL0     H70425   6.727   4.650   9.397 -3.2195 -0.4488 -5.8372
  522MOL0     H70426   6.586   4.905   9.452  2.9489  1.2911  0.7154
  522MOL0     H70427   6.612   4.788   9.582  0.7926  2.5430  0.3748
  522MOL0     H70428   6.497   4.613   9.421  1.0485 -0.0732  0.7650
  522MOL0     H70429   6.468   4.742   9.304  1.1916 -1.0613 -0.4502
  522MOL0     H70430   6.130   4.848   9.554 -1.7880 -3.3244 -1.7368
  522MOL0     H70431   5.979   4.902   9.693  1.5636  0.6732  1.9156
  522MOL0     H70432   5.890   4.756   9.728  1.3175 -2.6160 -2.2716
  522MOL0     H70433   5.975   4.833   9.862  0.2296  1.8702 -0.8481
  522MOL0     H70434   6.154   4.396  10.196  0.3164 -0.8843 -0.1787
  522MOL0     H70435   6.007   4.324  10.381 -2.7655 -0.1745  0.4113
  522MOL0     H70436   5.880   4.055  10.495  0.4528  0.9156  0.7863
  522MOL0     H70437   5.908   4.226  10.544  1.8793 -0.6288 -1.5690
  522MOL0     H70438   5.695   4.228  10.642  2.3683  0.7503  0.5245
  522MOL0     H70439   5.640   4.085  10.550  2.5897 -1.6299 -1.1895
  522MOL0     H70440   5.781   3.945  10.713 -1.9253  0.3578 -0.4303
  522MOL0     H70441   5.671   4.041  10.793 -0.9540 -2.6169  0.0415
  522MOL0     H70442   5.960   4.129  10.732  0.9651 -2.0562  0.8372
  522MOL0     H70443   5.841   4.239  10.801  2.3248  1.2584 -0.5064
  522MOL0     H70444   5.943   3.967  10.925  0.8410  0.2223 -0.5878
  522MOL0     H70445   5.814   4.043  11.002  0.6863 -2.0391 -0.0786
  522MOL0     H70446   6.094   4.159  10.973 -2.8948 -0.9341 -5.2918
  522MOL0     H70447   5.967   4.244  11.055  1.3920  0.0128 -1.0963
  522MOL0     H70448   6.053   3.966  11.158 -2.5682 -1.2517  4.4047
  522MOL0     H70449   5.936   4.069  11.229  1.6031  0.9947  1.0328
  522MOL0     H70450   6.107   4.262  11.243  0.1714 -0.2957  1.3067
  522MOL0     H70451   6.232   4.139  11.188  0.5068 -0.2724  0.3621
  522MOL0     H70452   5.714   4.184  10.100  0.8058  0.2632 -1.0829
  522MOL0     H70453   5.841   4.271   9.922 -1.3166 -0.9220  0.4427
  522MOL0     H70454   6.282   4.441   9.781  1.4255  1.1362  1.6061
  522MOL0     H70455   6.419   4.549   9.605  0.2955 -0.6248  1.2881
  522MOL0     H70456   8.306   4.720   9.604  2.3378  0.1125 -1.9911
  522MOL0     H70457   8.492   4.545   9.634 -0.0399 -1.5047  0.1673
  522MOL0     H70458   8.861   4.294   9.453 -2.5570  1.7369 -0.0215
  522MOL0     H70459   9.005   4.086   9.460  0.0091  0.1490 -0.6800
  522MOL0     H70460   9.121   3.762   9.604  3.1255  1.1221 -0.2795
  522MOL0     H70461   9.098   3.858   9.469  2.7120 -1.2544  0.3156
  522MOL0     H70462   9.178   4.047   9.587  2.1030 -0.0439  0.2731
  522MOL0     H70463   9.274   3.914   9.648 -0.4428 -0.4039  1.9913
  522MOL0     H70464   9.034   4.002   9.806  0.2425  0.7889 -1.8847
  522MOL0     H70465   9.196   4.063   9.840 -1.0762  2.1585  0.4918
  522MOL0     H70466   9.210   3.858   9.986 -1.3496  0.2171  1.2241
  522MOL0     H70467   9.213   3.772   9.830 -0.3848 -1.6686  1.6850
  522MOL0     H70468   8.832   3.673   9.973 -1.6012  4.6960 -0.5180
  522MOL0     H70469   8.715   3.890   9.711  1.2287  0.0529  0.4866
  522MOL0     H70470   8.576   4.071   9.702  0.3948 -1.7290  0.5545
  523MOL0     O70471   5.936  11.179   5.766 -0.0492 -0.2719  0.7825
  523MOL0     C70472   5.973  11.063   5.768  0.2242 -0.5749 -0.3118
  523MOL0     O70473   5.894  10.955   5.785  0.3142 -0.6272 -0.4894
  523MOL0     C70474   5.763  10.972   5.755 -0.0923  0.5175 -0.2229
  523MOL0     C70475   5.662  10.982   5.850 -0.3179 -0.3445 -0.4362
  523MOL0     C70476   5.525  10.996   5.821 -0.4012  0.4940 -0.1964
  523MOL0     C70477   5.486  11.013   5.683 -0.3414 -0.1092 -0.9325
  523MOL0     O70478   5.353  11.016   5.651 -0.0407  0.1627 -0.7048
  523MOL0     C70479   5.273  11.113   5.717  0.4342 -0.2550  0.0688
  523MOL0     C70480   5.120  11.077   5.732 -0.2947 -0.3549  0.3137
  523MOL0     C70481   5.029  11.134   5.618 -0.4345  0.5308  0.0520
  523MOL0     C70482   4.886  11.084   5.639 -1.5792  0.4502 -0.0802
  523MOL0     C70483   4.811  11.136   5.518 -0.6909 -0.8514 -0.0189
  523MOL0     C70484   4.657  11.151   5.545 -0.9972  0.5913 -0.7426
  523MOL0     C70485   4.593  11.219   5.427 -0.4546  0.5968  0.3822
  523MOL0     C70486   4.441  11.255   5.441 -0.6159  0.5960 -0.4796
  523MOL0     N70487   4.370  11.227   5.318  0.2735  0.0323 -0.7323
  523MOL0     C70488   4.371  11.314   5.214  0.2217 -0.2694 -0.5743
  523MOL0     C70489   4.305  11.263   5.113  0.5139  0.3226  0.7058
  523MOL0     C70490   4.299  11.317   4.965 -0.1303  0.2793  0.5724
  523MOL0     C70491   4.184  11.405   4.931  1.0400 -0.2210  0.4066
  523MOL0     C70492   4.211  11.495   4.802 -0.3360  0.0147  0.0845
  523MOL0     C70493   4.098  11.598   4.802  0.3077 -1.2468  0.3702
  523MOL0     O70494   3.974  11.523   4.812 -0.2898 -0.3567  0.0802
  523MOL0     C70495   3.860  11.589   4.851 -0.3730 -0.0508 -0.5411
  523MOL0     C70496   3.854  11.722   4.901 -0.7241  1.2278  1.3325
  523MOL0     C70497   3.737  11.784   4.944  0.1813  0.3549 -0.2022
  523MOL0     C70498   3.749  11.917   5.022 -0.0628  0.7343  0.2413
  523MOL0     C70499   3.612  11.724   4.917  0.1723 -0.9913 -0.1920
  523MOL0     C70500   3.475  11.776   4.963 -0.5413 -0.6843  0.1208
  523MOL0     O70501   3.381  11.681   4.962  0.6629  0.1436 -0.2598
  523MOL0     C70502   3.261  11.703   5.028  0.3394  0.4806  0.7348
  523MOL0     C70503   3.145  11.721   4.957  1.1033 -0.0583  0.0943
  523MOL0     C70504   3.027  11.738   5.026  0.9925 -0.2252  0.3502
  523MOL0     C70505   3.018  11.731   5.165 -0.6905  0.1720  0.4451
  523MOL0     O70506   2.907  11.763   5.239  0.6664 -0.2791  0.4697
  523MOL0     C70507   2.777  11.771   5.170 -0.9022  0.3943  0.4331
  523MOL0     C70508   2.683  11.827   5.274  0.7885 -0.2406 -0.2763
  523MOL0     C70509   2.536  11.814   5.242  0.3292 -0.1830 -0.0032
  523MOL0     C70510   2.446  11.820   5.364 -0.4156 -0.5111  0.4250
  523MOL0     C70511   2.295  11.815   5.338  0.4560 -0.3459  1.0949
  523MOL0     C70512   2.218  11.798   5.467 -0.0978 -0.0140  0.6050
  523MOL0     C70513   2.083  11.872   5.461  0.3082  0.5732 -0.0557
  523MOL0     C70514   2.016  11.862   5.596  0.3110 -0.7446  0.5062
  523MOL0    Cl70515   1.845  11.907   5.591  0.0616  0.3967 -0.3093
  523MOL0     C70516   3.138  11.706   5.233  0.2105 -0.0334 -0.4112
  523MOL0     C70517   3.259  11.694   5.166 -0.2095 -0.0173  0.4178
  523MOL0     O70518   3.462  11.890   5.002  0.3398 -0.3630  0.7200
  523MOL0     C70519   3.618  11.598   4.855 -0.2100  0.0572  0.2296
  523MOL0     C70520   3.737  11.531   4.834 -0.3869  0.2965 -0.1152
  523MOL0     N70521   4.261  11.132   5.153 -0.3261  0.3987 -0.5103
  523MOL0     N70522   4.308  11.116   5.277 -0.3351  0.0599  0.6657
  523MOL0     C70523   5.590  11.005   5.584  1.1905 -0.1819  0.8023
  523MOL0     C70524   5.721  10.984   5.620  0.2228 -0.4042 -0.5159
  523MOL0     C70525   6.115  11.034   5.768  0.2057 -0.9061  0.0212
  523MOL0     C70526   6.161  10.904   5.765  0.4641 -0.0471 -0.3812
  523MOL0     C70527   6.299  10.881   5.756  0.6327 -0.1108 -0.6138
  523MOL0     C70528   6.392  10.987   5.746 -0.2262  0.0696  0.5527
  523MOL0     O70529   6.517  10.952   5.732 -0.9635  0.3351 -0.6606
  523MOL0     C70530   6.534  10.842   5.642  0.1170  0.5010  0.2028
  523MOL0     C70531   6.660  10.867   5.553 -0.2040 -0.6343 -0.0739
  523MOL0     C70532   6.780  10.919   5.629 -0.2344  0.3937  0.3898
  523MOL0     C70533   6.893  10.935   5.522 -1.0018  0.1593 -0.8983
  523MOL0     C70534   6.955  10.798   5.494  0.0779 -0.1390 -0.2959
  523MOL0     C70535   7.021  10.700   5.474  0.6970 -1.1390  0.4988
  523MOL0     C70536   6.351  11.121   5.746  0.7746 -1.1994 -0.9351
  523MOL0     C70537   6.209  11.140   5.763  0.0987 -0.8731  1.3094
  523MOL0     H70538   5.700  10.958   5.949 -0.5869 -3.5948 -1.0279
  523MOL0     H70539   5.451  10.981   5.898 -2.0049 -2.7592 -2.1992
  523MOL0     H70540   5.303  11.132   5.821  1.0731 -0.6206 -0.0392
  523MOL0     H70541   5.296  11.208   5.666 -1.4534  0.8576  1.1795
  523MOL0     H70542   5.109  10.969   5.727 -3.1730 -0.1343  0.1973
  523MOL0     H70543   5.088  11.123   5.826 -0.5037  1.4907 -0.6162
  523MOL0     H70544   5.035  11.243   5.616  2.4611  0.4547  0.6798
  523MOL0     H70545   5.058  11.087   5.523  0.6352  0.5655  0.3509
  523MOL0     H70546   4.869  10.976   5.644 -0.2551  0.2504  0.4271
  523MOL0     H70547   4.853  11.133   5.731  3.4948  3.6061  0.4339
  523MOL0     H70548   4.849  11.230   5.478 -1.4563 -1.1872 -1.6055
  523MOL0     H70549   4.836  11.067   5.437 -0.5689  1.2935 -1.8982
  523MOL0     H70550   4.616  11.050   5.546  0.3902  0.0017 -1.2015
  523MOL0     H70551   4.635  11.206   5.637  0.2216  1.6198 -1.0350
  523MOL0     H70552   4.640  11.316   5.409 -0.1914  0.1196 -1.7413
  523MOL0     H70553   4.609  11.150   5.344  0.1717 -2.2727  2.7204
  523MOL0     H70554   4.428  11.359   5.470 -1.7845  0.5988 -0.9550
  523MOL0     H70555   4.391  11.194   5.517 -0.7259 -0.3713 -1.2986
  523MOL0     H70556   4.411  11.415   5.221  0.6285 -0.5119  1.1613
  523MOL0     H70557   4.393  11.367   4.940 -0.7399  1.5589  0.7758
  523MOL0     H70558   4.288  11.231   4.898 -0.1829 -0.0862  1.0454
  523MOL0     H70559   4.163  11.474   5.014 -1.5404 -1.3621  0.7768
  523MOL0     H70560   4.098  11.340   4.915 -0.2753  1.2825  1.0498
  523MOL0     H70561   4.205  11.431   4.714  0.8764 -1.7906  1.2496
  523MOL0     H70562   4.309  11.544   4.812 -0.6806  0.3664  2.4067
  523MOL0     H70563   4.088  11.658   4.712 -2.5951 -2.2678 -0.0865
  523MOL0     H70564   4.109  11.662   4.890  2.4194 -3.1221  1.5862
  523MOL0     H70565   3.938  11.790   4.919  0.1466  0.7794 -0.6902
  523MOL0     H70566   3.712  11.920   5.125  1.4552  0.0170  0.8519
  523MOL0     H70567   3.856  11.937   5.037  0.5386 -3.1688  3.0051
  523MOL0     H70568   3.702  12.001   4.971 -0.5045 -1.6301 -3.6407
  523MOL0     H70569   3.138  11.706   4.850 -2.0295 -1.6494  0.3977
  523MOL0     H70570   2.939  11.745   4.963  1.6763  3.0839 -0.4320
  523MOL0     H70571   2.775  11.837   5.083  0.3426 -0.9195 -0.6322
  523MOL0     H70572   2.745  11.679   5.121 -1.1153  1.7283 -2.0708
  523MOL0     H70573   2.697  11.778   5.371 -1.3404 -3.6671 -1.4845
  523MOL0     H70574   2.704  11.933   5.288  0.2184 -0.4636  3.0205
  523MOL0     H70575   2.510  11.724   5.185 -0.0516 -1.4721  2.0758
  523MOL0     H70576   2.500  11.893   5.176  1.2651  1.0914  0.9642
  523MOL0     H70577   2.487  11.738   5.425  1.4497  1.1660  1.5588
  523MOL0     H70578   2.475  11.907   5.424  4.7065  0.1103 -2.4085
  523MOL0     H70579   2.291  11.734   5.265 -3.4092  2.2365 -2.0257
  523MOL0     H70580   2.262  11.897   5.273 -2.6494 -3.7204 -2.0651
  523MOL0     H70581   2.215  11.690   5.481  2.1796 -0.2022 -0.0156
  523MOL0     H70582   2.275  11.830   5.555 -2.9003 -0.1935  2.6412
  523MOL0     H70583   2.018  11.823   5.388  1.6281  1.8970 -2.2377
  523MOL0     H70584   2.102  11.972   5.423 -0.1395  0.2918 -1.0587
  523MOL0     H70585   2.074  11.937   5.650  1.8508  1.6529 -4.0030
  523MOL0     H70586   2.039  11.766   5.644  3.7432 -0.4540 -0.2762
  523MOL0     H70587   3.131  11.714   5.342  2.6398  2.3893 -0.3206
  523MOL0     H70588   3.349  11.663   5.217 -1.8890 -4.8441  1.0213
  523MOL0     H70589   3.528  11.547   4.823  0.1532 -0.7133  0.4216
  523MOL0     H70590   3.729  11.441   4.774 -0.1654  0.3635 -0.2462
  523MOL0     H70591   5.580  11.022   5.478  0.0782  2.4814  1.2657
  523MOL0     H70592   5.804  10.992   5.550  1.3405  0.9518  0.8870
  523MOL0     H70593   6.086  10.826   5.773  0.3447  0.2391  3.0777
  523MOL0     H70594   6.312  10.775   5.737 -0.5047 -0.1155 -1.5042
  523MOL0     H70595   6.534  10.748   5.698 -1.1112 -0.8874 -1.9829
  523MOL0     H70596   6.450  10.831   5.573  1.1293  2.1474 -1.3786
  523MOL0     H70597   6.633  10.946   5.482  1.6835 -0.0414 -0.2006
  523MOL0     H70598   6.697  10.779   5.500  0.6029 -1.1017  1.2155
  523MOL0     H70599   6.800  10.853   5.714 -2.2940 -2.1628 -0.9583
  523MOL0     H70600   6.760  11.017   5.672  1.0074  1.3700 -1.1277
  523MOL0     H70601   6.976  10.990   5.568  0.6765 -3.8021  1.3383
  523MOL0     H70602   6.864  10.986   5.429 -0.9703 -0.0013 -0.9969
  523MOL0     H70603   7.076  10.610   5.460  0.3720 -1.0025 -2.0119
  523MOL0     H70604   6.413  11.209   5.752  0.6427 -0.7738 -4.0724
  523MOL0     H70605   6.178  11.244   5.759 -0.8454 -1.1743 -1.1339
  524MOL0     O70606   9.944   3.000   9.841 -0.5411 -0.3294  0.3685
  524MOL0     C70607   9.994   3.111   9.848  0.2801 -0.5942 -0.6210
  524MOL0     O70608   9.919   3.229   9.876  0.0441 -0.0410 -0.0688
  524MOL0     C70609   9.787   3.213   9.871 -0.3125 -0.0050  0.0046
  524MOL0     C70610   9.716   3.166   9.760 -0.2275 -0.8787  0.7682
  524MOL0     C70611   9.579   3.135   9.759 -0.2777  0.2819 -0.4991
  524MOL0     C70612   9.510   3.168   9.876  0.1685 -0.3761  0.0458
  524MOL0     O70613   9.378   3.149   9.898  0.0282 -0.0073 -0.1764
  524MOL0     C70614   9.293   3.142   9.783 -0.1474 -0.4615  0.6366
  524MOL0     C70615   9.150   3.143   9.830 -0.4568 -0.0713  0.6328
  524MOL0     C70616   9.105   3.283   9.878  0.5394 -0.0788  0.5919
  524MOL0     C70617   9.095   3.384   9.758 -0.7385 -0.4424 -0.7867
  524MOL0     C70618   9.015   3.328   9.636  0.0103 -0.1990 -0.6680
  524MOL0     C70619   8.868   3.289   9.668  0.3498 -0.3342 -0.6513
  524MOL0     C70620   8.789   3.411   9.707 -0.6197  0.4818  0.4621
  524MOL0     C70621   8.645   3.366   9.720 -0.2981  0.3304  0.0060
  524MOL0     N70622   8.563   3.476   9.781 -1.0495 -0.1928 -1.1891
  524MOL0     C70623   8.488   3.561   9.703  0.0970  0.1716  0.5684
  524MOL0     C70624   8.435   3.651   9.791  0.4754  0.6421 -0.5640
  524MOL0     C70625   8.374   3.776   9.744 -0.2860  0.5586 -0.0746
  524MOL0     C70626   8.371   3.880   9.848  0.0283  0.3805  0.1532
  524MOL0     C70627   8.301   4.013   9.810  0.1360  0.6754 -0.2146
  524MOL0     C70628   8.157   3.998   9.823 -0.0707 -0.1541  1.6344
  524MOL0     O70629   8.113   3.988   9.957  0.3499 -0.2408 -0.1187
  524MOL0     C70630   7.978   4.004   9.982  0.2695 -0.2419 -0.8542
  524MOL0     C70631   7.948   4.069  10.097  0.2581 -0.1200 -0.9225
  524MOL0     C70632   7.811   4.104  10.126 -0.5094 -0.9941  1.0724
  524MOL0     C70633   7.793   4.187  10.248 -0.0943  0.1405 -0.3129
  524MOL0     C70634   7.707   4.071  10.038  0.0347 -0.7694  1.2570
  524MOL0     C70635   7.560   4.092  10.059  0.2703 -0.6156 -0.1234
  524MOL0     O70636   7.479   4.026   9.966  0.5959  0.7404 -0.3394
  524MOL0     C70637   7.339   4.031   9.983 -0.1327 -0.2605 -0.2155
  524MOL0     C70638   7.263   4.123   9.916 -0.2742 -0.2876  0.6088
  524MOL0     C70639   7.127   4.113   9.913  0.0957  0.2416  0.0621
  524MOL0     C70640   7.064   4.023  10.007  0.1881  0.2564  0.3518
  524MOL0     O70641   6.926   4.033  10.002 -0.4525 -0.2113  0.5418
  524MOL0     C70642   6.846   3.924  10.040  0.0087  0.2258  0.2297
  524MOL0     C70643   6.696   3.949  10.044  0.5953 -0.1447 -0.5165
  524MOL0     C70644   6.652   3.947   9.890  0.2581  0.1914 -0.7999
  524MOL0     C70645   6.503   3.970   9.867  0.3303  0.2474 -0.1864
  524MOL0     C70646   6.459   3.944   9.727 -0.2177  0.3531  0.7520
  524MOL0     C70647   6.319   3.992   9.703  0.4274  0.6725  0.1381
  524MOL0     C70648   6.305   4.149   9.701  0.2671  0.1768 -0.0162
  524MOL0     C70649   6.184   4.188   9.617  0.3516 -0.3007 -0.0906
  524MOL0    Cl70650   6.049   4.153   9.739  0.2943  0.2859 -0.0717
  524MOL0     C70651   7.147   3.937  10.083  0.3857 -0.7532  1.2090
  524MOL0     C70652   7.283   3.937  10.062  0.8272 -0.2913  0.5823
  524MOL0     O70653   7.520   4.160  10.156 -0.4488 -0.0585 -0.2557
  524MOL0     C70654   7.749   3.996   9.921  0.5310  0.9346 -1.1966
  524MOL0     C70655   7.877   3.958   9.903  0.0228 -0.0893  0.6692
  524MOL0     N70656   8.485   3.640   9.919  0.3034  0.1406 -0.7239
  524MOL0     N70657   8.551   3.529   9.916 -0.8730  0.0325 -0.5535
  524MOL0     C70658   9.573   3.211   9.987  0.2212  0.5881 -0.1925
  524MOL0     C70659   9.713   3.231   9.993  0.9510  0.2694  0.4860
  524MOL0     C70660  10.140   3.116   9.830 -0.5810 -0.2230 -0.4856
  524MOL0     C70661  10.210   3.023   9.757 -0.3322 -0.5745  0.0041
  524MOL0     C70662  10.346   3.043   9.724  0.4579  0.8060  1.1611
  524MOL0     C70663  10.415   3.154   9.757 -0.1760  0.4002  0.7196
  524MOL0     O70664  10.547   3.177   9.720 -0.5560 -0.2327  0.6153
  524MOL0     C70665  10.616   3.091   9.632 -0.7773  0.0353 -0.3122
  524MOL0     C70666  10.760   3.151   9.624 -1.0626 -0.3030  0.3620
  524MOL0     C70667  10.852   3.048   9.548 -0.4953 -0.1655  0.7338
  524MOL0     C70668  10.989   3.095   9.550 -0.5216  0.2336  0.0264
  524MOL0     C70669  11.091   3.020   9.476 -0.5179 -0.0615  0.0458
  524MOL0     C70670  11.180   2.956   9.426  0.5536  0.3685  0.4773
  524MOL0     C70671  10.354   3.249   9.841 -0.1748  0.6837 -0.3507
  524MOL0     C70672  10.224   3.225   9.883 -0.4515  0.2563 -0.4452
  524MOL0     H70673   9.773   3.136   9.673  2.1555  0.6815  1.6914
  524MOL0     H70674   9.546   3.091   9.666  0.3122 -1.6369  0.1489
  524MOL0     H70675   9.324   3.227   9.722  1.5638 -0.0902  1.9437
  524MOL0     H70676   9.316   3.053   9.724  2.3429  1.2390 -1.1630
  524MOL0     H70677   9.077   3.108   9.756  0.5107 -0.5419 -0.1280
  524MOL0     H70678   9.142   3.072   9.913 -1.1682 -2.8591 -1.6543
  524MOL0     H70679   9.005   3.289   9.923 -1.2620 -2.0836 -2.7936
  524MOL0     H70680   9.175   3.321   9.953  0.3458  2.2639 -0.3126
  524MOL0     H70681   9.054   3.474   9.806  0.2586 -0.0913 -0.5548
  524MOL0     H70682   9.189   3.426   9.719 -1.3873  0.9577 -0.9055
  524MOL0     H70683   9.017   3.409   9.562  0.2014  4.3246  3.7591
  524MOL0     H70684   9.072   3.243   9.596  2.4174 -0.7298  3.3293
  524MOL0     H70685   8.820   3.239   9.583 -1.3926 -2.3333  1.4087
  524MOL0     H70686   8.871   3.212   9.745 -0.9082  0.9336  0.7105
  524MOL0     H70687   8.825   3.441   9.806  1.1513 -1.1421  0.3812
  524MOL0     H70688   8.809   3.488   9.632  1.9504 -1.0004 -0.5324
  524MOL0     H70689   8.650   3.288   9.797  0.5652  0.1878 -0.1869
  524MOL0     H70690   8.598   3.326   9.630  0.9753  0.5819 -0.7862
  524MOL0     H70691   8.478   3.569   9.595  3.0199  0.5226  0.2366
  524MOL0     H70692   8.423   3.807   9.652 -1.0056 -0.5608 -0.8640
  524MOL0     H70693   8.278   3.743   9.704  0.5803 -0.2725 -1.5852
  524MOL0     H70694   8.477   3.901   9.866  0.5759  0.7620 -2.9520
  524MOL0     H70695   8.317   3.841   9.935 -1.1196 -2.4471 -1.6650
  524MOL0     H70696   8.336   4.046   9.712  1.7639 -1.7236 -0.5384
  524MOL0     H70697   8.326   4.095   9.877 -2.4424  1.1361  0.2993
  524MOL0     H70698   8.133   3.908   9.764 -0.5199  0.6947  0.4851
  524MOL0     H70699   8.108   4.081   9.770 -0.4509 -1.3329  0.0492
  524MOL0     H70700   8.026   4.085  10.170  1.2916  0.3333 -2.0786
  524MOL0     H70701   7.714   4.151  10.315  1.2715 -0.2114  1.1698
  524MOL0     H70702   7.881   4.193  10.313 -0.5347 -1.8525  0.5627
  524MOL0     H70703   7.762   4.287  10.216  1.3057  0.4532 -0.7608
  524MOL0     H70704   7.313   4.209   9.872  0.1760 -0.9018 -0.1156
  524MOL0     H70705   7.065   4.181   9.856  1.5031 -0.0093 -1.8743
  524MOL0     H70706   6.884   3.835   9.989  1.8322  1.5036 -0.7698
  524MOL0     H70707   6.871   3.912  10.146  1.3065  1.3513  0.0724
  524MOL0     H70708   6.636   3.870  10.090  0.2183  0.5613  0.2236
  524MOL0     H70709   6.668   4.046  10.087 -1.9258  0.0308 -2.3076
  524MOL0     H70710   6.674   3.847   9.852  1.1976  0.8462 -2.0333
  524MOL0     H70711   6.709   4.026   9.841  1.5355  3.0307  4.4318
  524MOL0     H70712   6.445   3.908   9.936  1.1236  2.2519  2.4609
  524MOL0     H70713   6.474   4.072   9.894  0.0384  0.2095 -0.3508
  524MOL0     H70714   6.472   3.836   9.719  0.2661  0.4004  0.8502
  524MOL0     H70715   6.539   3.992   9.670  0.6213  0.0061  1.6117
  524MOL0     H70716   6.283   3.944   9.611 -0.5301 -0.6103  1.1610
  524MOL0     H70717   6.257   3.959   9.786  1.0429  0.6508  0.5982
  524MOL0     H70718   6.400   4.181   9.658 -0.3886 -0.7908 -2.3503
  524MOL0     H70719   6.302   4.202   9.797  1.3520  1.7386 -0.8104
  524MOL0     H70720   6.159   4.124   9.532 -0.4002 -0.8896  0.5657
  524MOL0     H70721   6.184   4.295   9.591 -2.7297  0.5759  2.8045
  524MOL0     H70722   7.111   3.873  10.164  1.6829 -0.5460  1.9737
  524MOL0     H70723   7.331   3.864  10.126 -0.9017 -2.8403 -0.8769
  524MOL0     H70724   7.674   3.969   9.848  1.2566 -0.4544 -1.4488
  524MOL0     H70725   7.891   3.913   9.805 -1.2811  0.9524 -0.0308
  524MOL0     H70726   9.520   3.226  10.080  1.9567  2.2767  0.5977
  524MOL0     H70727   9.754   3.254  10.091  3.6086 -1.6998 -0.0483
  524MOL0     H70728  10.167   2.929   9.725 -0.8238  0.1790 -1.6471
  524MOL0     H70729  10.392   2.969   9.659 -0.3354  1.5047 -0.2443
  524MOL0     H70730  10.618   2.988   9.670  0.6633  0.0355 -0.3028
  524MOL0     H70731  10.569   3.076   9.535  0.4959 -2.1643 -0.6638
  524MOL0     H70732  10.797   3.170   9.725 -3.4003 -1.9071  1.6135
  524MOL0     H70733  10.752   3.241   9.563  1.3110 -1.7673 -2.3874
  524MOL0     H70734  10.825   3.047   9.442  2.3869 -1.9527 -0.0999
  524MOL0     H70735  10.838   2.950   9.592  1.2721 -2.0555 -2.4987
  524MOL0     H70736  11.026   3.101   9.653  3.3328 -2.7278 -0.9885
  524MOL0     H70737  11.004   3.195   9.508 -1.6947  1.1283  1.6071
  524MOL0     H70738  11.274   2.908   9.406  0.5656  0.0522  1.2498
  524MOL0     H70739  10.404   3.330   9.894  3.3534 -0.8255 -1.0869
  524MOL0     H70740  10.178   3.298   9.949 -0.2634  0.6438 -0.7384
  525MOL0     O70741   3.038   5.995   4.471 -0.2420  0.3980 -0.3792
  525MOL0     C70742   3.120   6.075   4.517 -0.6410 -0.7998  0.4499
  525MOL0     O70743   3.095   6.191   4.587 -0.2827  0.2675 -0.2224
  525MOL0     C70744   2.966   6.242   4.610 -0.2619 -0.0449  0.2395
  525MOL0     C70745   2.958   6.378   4.644  0.0327  0.7017 -0.1412
  525MOL0     C70746   2.833   6.438   4.650  0.7384 -0.3520 -0.0418
  525MOL0     C70747   2.712   6.364   4.641  0.3385  0.0012 -0.9154
  525MOL0     O70748   2.595   6.438   4.650 -0.1210 -0.5103  0.3849
  525MOL0     C70749   2.488   6.379   4.713  0.4597  0.0894  0.3148
  525MOL0     C70750   2.399   6.495   4.760 -0.5562 -0.7292  0.4569
  525MOL0     C70751   2.267   6.436   4.805  0.7717  0.1781  0.4578
  525MOL0     C70752   2.182   6.538   4.881 -0.6061 -0.1256  0.5134
  525MOL0     C70753   2.038   6.497   4.901  1.0962 -0.6573  0.4518
  525MOL0     C70754   1.964   6.549   5.026  0.4125 -0.2118 -0.4125
  525MOL0     C70755   1.814   6.519   5.028 -0.4213 -0.6146  0.7954
  525MOL0     C70756   1.743   6.590   5.138  0.0598 -0.9602 -0.0831
  525MOL0     N70757   1.601   6.541   5.163  0.3857 -0.1327  0.2532
  525MOL0     C70758   1.522   6.590   5.264 -0.5217 -0.5649 -0.5957
  525MOL0     C70759   1.403   6.533   5.252  0.9230  0.0573  0.6295
  525MOL0     C70760   1.291   6.535   5.363  0.4827  0.1801 -0.2125
  525MOL0     C70761   1.184   6.437   5.318  0.1206 -0.4160  0.1524
  525MOL0     C70762   1.082   6.418   5.426  0.0379  0.6238  0.7993
  525MOL0     C70763   0.982   6.303   5.395 -0.4933 -0.2114  0.2716
  525MOL0     O70764   0.888   6.365   5.304  0.4074 -0.0131  0.6731
  525MOL0     C70765   0.753   6.321   5.299  0.0413 -0.6272  0.6490
  525MOL0     C70766   0.656   6.415   5.252  0.9841 -0.7514 -0.6823
  525MOL0     C70767   0.519   6.381   5.245 -0.7261  0.0288 -0.5123
  525MOL0     C70768   0.426   6.473   5.188  0.0504 -0.3447  0.3067
  525MOL0     C70769   0.483   6.243   5.274  0.0865  0.0578 -0.5411
  525MOL0     C70770   0.348   6.190   5.263  1.0742  0.6772  0.3021
  525MOL0     O70771   0.299   6.105   5.363  0.5238 -0.3081  0.0197
  525MOL0     C70772   0.174   6.128   5.409 -0.3520 -0.1163 -0.1806
  525MOL0     C70773   0.093   6.239   5.380 -1.0172 -0.6651  0.5703
  525MOL0     C70774  -0.033   6.263   5.443  0.0955 -0.3990  0.6904
  525MOL0     C70775  -0.088   6.167   5.528 -0.1784  0.8621  0.6796
  525MOL0     O70776  -0.213   6.163   5.585  0.8495 -0.6735 -0.0873
  525MOL0     C70777  -0.300   6.288   5.587 -0.0230  0.1893 -0.4182
  525MOL0     C70778  -0.427   6.238   5.643  0.5159  0.2471  0.4640
  525MOL0     C70779  -0.520   6.184   5.528  0.6083  0.2739  0.4200
  525MOL0     C70780  -0.514   6.033   5.504 -0.2946 -0.0115  0.7307
  525MOL0     C70781  -0.613   5.994   5.388  0.3400  0.3243 -0.6029
  525MOL0     C70782  -0.748   5.964   5.452 -0.5653  0.4373 -0.3214
  525MOL0     C70783  -0.856   5.961   5.337 -0.2122 -0.4353  0.4381
  525MOL0     C70784  -0.990   5.973   5.412 -0.3879 -0.1419 -0.6989
  525MOL0    Cl70785  -1.022   6.137   5.490  0.5391 -0.8920  0.0252
  525MOL0     C70786  -0.003   6.059   5.563 -0.3864  0.2324  0.2171
  525MOL0     C70787   0.123   6.039   5.511  0.3497  0.1545  0.2884
  525MOL0     O70788   0.284   6.226   5.163  0.1095 -0.0851 -0.1284
  525MOL0     C70789   0.585   6.154   5.322  0.4710  0.2880 -0.0523
  525MOL0     C70790   0.708   6.197   5.336 -0.0359 -0.7535  0.6518
  525MOL0     N70791   1.415   6.441   5.154  0.7325  0.2972 -0.1062
  525MOL0     N70792   1.528   6.452   5.089  0.0289 -0.0428 -0.1005
  525MOL0     C70793   2.715   6.223   4.627 -0.4360 -0.7642 -0.0830
  525MOL0     C70794   2.844   6.167   4.609  0.0800  0.3587 -0.1110
  525MOL0     C70795   3.262   6.052   4.478 -1.1326 -0.2468 -0.0970
  525MOL0     C70796   3.297   5.941   4.406 -0.2306  0.6723  0.4557
  525MOL0     C70797   3.431   5.907   4.382  0.1523 -0.8497  0.1831
  525MOL0     C70798   3.530   5.990   4.426 -0.9268 -0.0015  0.2716
  525MOL0     O70799   3.662   5.951   4.401  0.0840 -0.5508  0.3646
  525MOL0     C70800   3.689   5.849   4.298 -0.6647  0.2042 -0.0216
  525MOL0     C70801   3.838   5.870   4.269 -0.4042  0.5659  0.8520
  525MOL0     C70802   3.872   5.999   4.193 -0.7189  1.1685 -0.4055
  525MOL0     C70803   4.026   5.987   4.165 -0.1932 -0.1697  0.0764
  525MOL0     C70804   4.094   6.099   4.100 -0.0339 -0.1668  0.0668
  525MOL0     C70805   4.154   6.201   4.058 -0.1618  0.4382  0.3489
  525MOL0     C70806   3.506   6.108   4.491  0.1613 -0.1731  0.5766
  525MOL0     C70807   3.368   6.143   4.521  0.1244 -0.0016  0.3839
  525MOL0     H70808   3.051   6.435   4.646 -0.8129  2.2936 -2.0863
  525MOL0     H70809   2.843   6.543   4.675  0.7411  0.2178 -2.1928
  525MOL0     H70810   2.442   6.302   4.651  1.2114 -1.3006  1.4305
  525MOL0     H70811   2.523   6.326   4.802  0.8055 -0.1862  0.0140
  525MOL0     H70812   2.459   6.551   4.831 -1.7548  2.5328 -0.9344
  525MOL0     H70813   2.383   6.568   4.680 -2.1386 -0.6809  0.7730
  525MOL0     H70814   2.213   6.400   4.717  2.0686 -1.8297  0.4171
  525MOL0     H70815   2.270   6.349   4.870  0.8538 -0.2412 -0.0996
  525MOL0     H70816   2.223   6.563   4.979  0.3480 -0.0799  0.1129
  525MOL0     H70817   2.181   6.633   4.828  0.4764  0.3058  1.2214
  525MOL0     H70818   1.983   6.534   4.814  1.1043 -1.4673  0.0997
  525MOL0     H70819   2.024   6.389   4.899  2.2976 -0.8407 -2.5396
  525MOL0     H70820   2.011   6.507   5.116 -0.5861  0.6349  0.5460
  525MOL0     H70821   1.984   6.656   5.023  0.9646 -0.3298 -0.9782
  525MOL0     H70822   1.766   6.553   4.936  0.9819 -1.5437 -0.3333
  525MOL0     H70823   1.804   6.412   5.048 -0.2777 -0.3893  2.1442
  525MOL0     H70824   1.738   6.696   5.112 -2.2345 -0.5704  1.5810
  525MOL0     H70825   1.793   6.590   5.236 -1.5916 -1.2997  0.8031
  525MOL0     H70826   1.547   6.674   5.328 -3.6280 -2.4406  3.4905
  525MOL0     H70827   1.332   6.500   5.459  2.0331 -2.0546 -1.5791
  525MOL0     H70828   1.243   6.630   5.386 -2.0508 -1.8721  4.2631
  525MOL0     H70829   1.235   6.344   5.293 -0.2571 -0.5131 -0.2687
  525MOL0     H70830   1.129   6.476   5.231 -2.7571 -0.3224  1.8958
  525MOL0     H70831   1.030   6.511   5.450  1.0834  1.7300 -0.9773
  525MOL0     H70832   1.137   6.390   5.516  1.6883  0.5838 -0.1761
  525MOL0     H70833   0.931   6.273   5.487  2.0500 -2.9589  0.9335
  525MOL0     H70834   1.034   6.215   5.356 -0.2245 -0.0443  0.2513
  525MOL0     H70835   0.689   6.516   5.229  0.5927  0.5001  3.4176
  525MOL0     H70836   0.336   6.488   5.248 -0.6576  1.5198 -1.1175
  525MOL0     H70837   0.469   6.572   5.172 -0.1688 -0.6077 -2.4807
  525MOL0     H70838   0.389   6.431   5.094 -1.3198  0.4105  0.4890
  525MOL0     H70839   0.120   6.318   5.310  0.5587 -0.0193  1.8360
  525MOL0     H70840  -0.078   6.355   5.406  2.5981 -0.0889 -1.9580
  525MOL0     H70841  -0.255   6.356   5.661 -0.0346 -1.0082  0.7161
  525MOL0     H70842  -0.314   6.337   5.489 -1.2260  1.4890  0.3707
  525MOL0     H70843  -0.404   6.166   5.722  0.1617  1.5405  1.7935
  525MOL0     H70844  -0.466   6.335   5.677  2.1551  0.1014  3.0033
  525MOL0     H70845  -0.506   6.229   5.429 -0.1048  0.4333  0.3850
  525MOL0     H70846  -0.622   6.208   5.559  0.1652 -0.5529 -0.3478
  525MOL0     H70847  -0.408   6.014   5.485 -0.0903  0.3083  1.5028
  525MOL0     H70848  -0.553   5.976   5.589  0.2499 -0.3200  0.7778
  525MOL0     H70849  -0.577   5.905   5.336 -0.0564  0.1843 -0.6424
  525MOL0     H70850  -0.616   6.079   5.320  1.9141  0.9150  0.0249
  525MOL0     H70851  -0.749   5.864   5.496 -1.4451  0.2607 -0.7259
  525MOL0     H70852  -0.772   6.038   5.529 -4.9297 -1.4647  0.4719
  525MOL0     H70853  -0.852   5.871   5.276  1.4524  0.0266 -0.1915
  525MOL0     H70854  -0.846   6.048   5.270 -0.7755 -0.6757  0.0420
  525MOL0     H70855  -1.001   5.894   5.487  0.5558 -1.2778 -1.7181
  525MOL0     H70856  -1.073   5.960   5.342  0.0958 -0.7936 -1.1587
  525MOL0     H70857  -0.054   5.990   5.630 -2.6530  0.1625 -1.4724
  525MOL0     H70858   0.182   5.959   5.555  1.2797 -0.2790 -1.5973
  525MOL0     H70859   0.566   6.057   5.367  0.2310  0.5075  0.3256
  525MOL0     H70860   0.784   6.126   5.365  0.4649  0.2680  1.9643
  525MOL0     H70861   2.634   6.153   4.646 -0.1742 -1.1978 -0.5638
  525MOL0     H70862   2.826   6.061   4.595 -3.8605  0.4847  2.3674
  525MOL0     H70863   3.226   5.863   4.379  0.6221  0.3516 -0.9612
  525MOL0     H70864   3.448   5.806   4.346  0.2825 -1.1291  0.9996
  525MOL0     H70865   3.678   5.748   4.339  0.9587  0.1767  0.4307
  525MOL0     H70866   3.627   5.883   4.215 -0.6022  0.9164  0.2122
  525MOL0     H70867   3.867   5.779   4.215 -0.6172  0.7968  0.3320
  525MOL0     H70868   3.892   5.862   4.363 -2.9547 -3.5293  2.2594
  525MOL0     H70869   3.854   6.088   4.254 -0.1960  0.6916  0.4507
  525MOL0     H70870   3.818   6.005   4.097  1.9219  3.1258 -1.8896
  525MOL0     H70871   4.027   5.910   4.086 -0.0737  0.2587 -0.3414
  525MOL0     H70872   4.086   5.957   4.251 -0.2562  1.6896  0.8072
  525MOL0     H70873   4.205   6.292   4.033  1.3811 -0.5815 -0.4036
  525MOL0     H70874   3.586   6.175   4.522  0.3822 -0.5787  0.8848
  525MOL0     H70875   3.337   6.235   4.570 -1.2684 -1.2003  1.8674
  526MOL0     O70876   5.483   7.002   2.079  0.0400  0.5022 -0.1298
  526MOL0     C70877   5.451   6.954   2.186 -0.0988 -0.6955 -0.3062
  526MOL0     O70878   5.332   6.987   2.254 -0.4403 -0.5884 -0.5847
  526MOL0     C70879   5.225   7.038   2.190 -1.3721 -0.9284  0.0566
  526MOL0     C70880   5.123   6.960   2.138  0.8067  0.0992  0.2482
  526MOL0     C70881   5.002   7.022   2.108  0.2078  0.7168 -0.6859
  526MOL0     C70882   4.992   7.164   2.101  0.1331  0.2602 -0.3254
  526MOL0     O70883   4.877   7.235   2.076  0.2064 -0.2686 -0.1721
  526MOL0     C70884   4.758   7.160   2.068  0.6237  0.0297  0.1852
  526MOL0     C70885   4.642   7.259   2.069  0.5742 -0.1983 -0.5538
  526MOL0     C70886   4.567   7.240   2.206 -0.5101  0.0891 -0.3133
  526MOL0     C70887   4.464   7.349   2.213  0.2855 -0.7400 -0.0600
  526MOL0     C70888   4.362   7.329   2.334 -0.3083 -0.2709  0.3008
  526MOL0     C70889   4.415   7.360   2.472 -0.7446  0.0138 -0.3416
  526MOL0     C70890   4.299   7.386   2.574 -0.8972  0.5837  1.0275
  526MOL0     C70891   4.206   7.264   2.608 -0.6357  0.5479  0.6514
  526MOL0     N70892   4.251   7.183   2.720 -0.1017 -0.1687 -0.8105
  526MOL0     C70893   4.229   7.219   2.851 -0.3499 -0.5367  0.3276
  526MOL0     C70894   4.300   7.139   2.920 -1.1182  0.8347 -0.4982
  526MOL0     C70895   4.302   7.127   3.073 -0.6696 -0.5750  0.0040
  526MOL0     C70896   4.161   7.137   3.134  0.2782 -0.2831  0.1731
  526MOL0     C70897   4.079   7.016   3.090 -0.2403 -0.0252 -0.0816
  526MOL0     C70898   3.952   6.998   3.168  0.6256 -0.1657 -0.1735
  526MOL0     O70899   3.857   7.104   3.158  0.2173 -0.0989  0.0191
  526MOL0     C70900   3.723   7.081   3.159  0.6698  1.1704 -1.3468
  526MOL0     C70901   3.635   7.188   3.168 -0.2429 -0.5114 -0.1510
  526MOL0     C70902   3.495   7.173   3.167  0.2771 -0.3267 -0.7866
  526MOL0     C70903   3.409   7.300   3.165 -0.0311 -0.0950 -0.6465
  526MOL0     C70904   3.429   7.049   3.170  0.2152  1.1295  1.0919
  526MOL0     C70905   3.276   7.024   3.164  0.7410 -0.2198 -0.6762
  526MOL0     O70906   3.189   7.124   3.199  0.1250 -0.0419 -0.3644
  526MOL0     C70907   3.063   7.118   3.147 -0.1959 -0.1486  0.3792
  526MOL0     C70908   3.022   7.194   3.032 -0.5134  1.1817 -0.6578
  526MOL0     C70909   2.893   7.187   2.986 -0.3254 -0.2667  0.1105
  526MOL0     C70910   2.800   7.098   3.042  1.0783  0.0773 -0.9524
  526MOL0     O70911   2.681   7.073   2.972 -0.2035 -0.2997  0.2251
  526MOL0     C70912   2.590   6.974   3.032  1.1443 -0.3924 -0.1545
  526MOL0     C70913   2.457   6.985   2.945 -0.1436  0.0909 -0.2715
  526MOL0     C70914   2.336   6.931   3.016  0.2905  0.0763 -0.2076
  526MOL0     C70915   2.341   6.779   3.033 -0.1475  0.5493  0.0947
  526MOL0     C70916   2.285   6.708   2.914  0.2147 -0.4750  0.7117
  526MOL0     C70917   2.339   6.569   2.895 -0.2494  0.1403  0.5231
  526MOL0     C70918   2.347   6.532   2.740 -0.4640  0.3678  0.4526
  526MOL0     C70919   2.381   6.385   2.711  0.4607 -0.1889  0.9615
  526MOL0    Cl70920   2.261   6.281   2.778  0.2882 -0.0739  0.1413
  526MOL0     C70921   2.848   7.010   3.141  0.3566  0.0313 -0.0312
  526MOL0     C70922   2.973   7.023   3.207  0.2427 -0.0418  0.5724
  526MOL0     O70923   3.243   6.915   3.127 -0.5985  0.0905  0.1820
  526MOL0     C70924   3.524   6.935   3.176 -0.7337  1.3497  0.0876
  526MOL0     C70925   3.663   6.950   3.172 -0.7478  0.1775 -0.5115
  526MOL0     N70926   4.390   7.060   2.839  0.3209 -1.2752  0.0188
  526MOL0     N70927   4.345   7.082   2.715  0.1191  0.0803  0.1764
  526MOL0     C70928   5.101   7.240   2.145 -0.5809  0.2131  0.2268
  526MOL0     C70929   5.210   7.176   2.202 -0.5112 -0.0054 -0.9434
  526MOL0     C70930   5.546   6.856   2.239  0.3534 -0.3638 -0.1942
  526MOL0     C70931   5.496   6.760   2.328 -0.8275 -1.3379  0.5135
  526MOL0     C70932   5.569   6.642   2.353 -0.9230 -0.3201 -0.1155
  526MOL0     C70933   5.705   6.627   2.306  0.4009 -0.1909  0.1689
  526MOL0     O70934   5.793   6.529   2.336  0.5062  0.5229  0.5459
  526MOL0     C70935   5.730   6.414   2.391  0.3315 -0.0114 -0.4582
  526MOL0     C70936   5.836   6.321   2.452  0.3552 -0.2858  0.2450
  526MOL0     C70937   5.922   6.374   2.569  1.0257  0.1132 -0.1413
  526MOL0     C70938   5.870   6.344   2.713  0.3982  0.1065 -0.1488
  526MOL0     C70939   5.732   6.398   2.757  0.2079  0.1494 -0.5370
  526MOL0     C70940   5.616   6.428   2.784 -0.4072 -0.9958  0.6067
  526MOL0     C70941   5.744   6.722   2.211 -0.8543  0.3564  0.8105
  526MOL0     C70942   5.671   6.833   2.176  0.3638 -0.4012 -0.3696
  526MOL0     H70943   5.139   6.853   2.151  3.2378  0.1261 -1.8125
  526MOL0     H70944   4.913   6.962   2.088 -0.8476  0.9395  2.7245
  526MOL0     H70945   4.760   7.103   1.975 -1.6714 -4.0649  2.3829
  526MOL0     H70946   4.754   7.096   2.157 -0.4290 -0.8002 -0.4386
  526MOL0     H70947   4.690   7.357   2.068  2.0533 -0.9033 -0.8275
  526MOL0     H70948   4.575   7.233   1.987  1.6246  0.6304 -1.7115
  526MOL0     H70949   4.514   7.145   2.194  0.3055 -0.5659  1.0679
  526MOL0     H70950   4.638   7.231   2.289 -0.6558 -0.0655 -0.2062
  526MOL0     H70951   4.514   7.444   2.231 -1.3603  0.3968 -1.1880
  526MOL0     H70952   4.410   7.354   2.118 -0.1798 -2.3812  0.0845
  526MOL0     H70953   4.277   7.396   2.324 -1.5338 -1.5936  1.3229
  526MOL0     H70954   4.326   7.225   2.336 -0.8722 -0.0686  1.4920
  526MOL0     H70955   4.468   7.276   2.519 -1.6851  0.6045  1.9579
  526MOL0     H70956   4.485   7.442   2.459 -1.7107  0.4714 -3.5358
  526MOL0     H70957   4.343   7.410   2.672 -0.2416  0.0160  0.8840
  526MOL0     H70958   4.251   7.481   2.548  0.5547  1.1004  0.0577
  526MOL0     H70959   4.201   7.190   2.527  0.2706 -0.2154  1.2705
  526MOL0     H70960   4.107   7.301   2.636 -0.7715 -0.6489  1.8812
  526MOL0     H70961   4.141   7.272   2.884 -0.7586 -1.9679  1.6577
  526MOL0     H70962   4.347   7.030   3.095  2.8902  0.8339 -0.3716
  526MOL0     H70963   4.373   7.189   3.130 -0.4773 -0.4755 -0.3345
  526MOL0     H70964   4.113   7.231   3.107  2.2942  2.0486  3.8857
  526MOL0     H70965   4.165   7.160   3.240  0.2573  0.1707  0.0781
  526MOL0     H70966   4.144   6.929   3.107  3.0753  2.8014  3.2216
  526MOL0     H70967   4.047   7.019   2.985 -2.9249 -2.3425  0.5472
  526MOL0     H70968   3.992   7.001   3.269  0.4414  0.8781 -0.1191
  526MOL0     H70969   3.913   6.899   3.143  1.7588 -0.5581 -0.4390
  526MOL0     H70970   3.679   7.287   3.161 -3.6564  1.3201  1.6969
  526MOL0     H70971   3.328   7.298   3.092 -4.9889  1.5735  4.1495
  526MOL0     H70972   3.368   7.299   3.267 -1.8222 -0.7443 -1.3321
  526MOL0     H70973   3.465   7.391   3.141 -1.1742  0.8688  0.2205
  526MOL0     H70974   3.107   7.248   2.991  0.8263 -1.9493 -2.3546
  526MOL0     H70975   2.865   7.244   2.898  0.2884 -0.2169 -0.0557
  526MOL0     H70976   2.628   6.872   3.036  0.2391 -0.6999  0.8727
  526MOL0     H70977   2.568   7.003   3.135 -0.6594 -0.4295 -0.5012
  526MOL0     H70978   2.431   7.087   2.916  1.5858  0.8600  0.7327
  526MOL0     H70979   2.483   6.932   2.853 -0.6511  0.5261 -0.6724
  526MOL0     H70980   2.243   6.956   2.964 -0.2639 -0.5321  0.4779
  526MOL0     H70981   2.326   6.980   3.114  1.5400  0.9553 -0.5022
  526MOL0     H70982   2.442   6.746   3.056 -0.5512 -0.0274  1.0636
  526MOL0     H70983   2.286   6.760   3.125 -2.1410  2.1306 -0.6920
  526MOL0     H70984   2.308   6.766   2.824 -2.2232  0.4811  0.6114
  526MOL0     H70985   2.176   6.706   2.921  0.1034 -0.0528 -0.6442
  526MOL0     H70986   2.443   6.565   2.930 -1.2279 -0.8075  3.6418
  526MOL0     H70987   2.270   6.496   2.938  0.6168 -1.6366 -0.9457
  526MOL0     H70988   2.419   6.591   2.684  0.3780 -0.9132  0.1392
  526MOL0     H70989   2.245   6.556   2.708 -0.2833  0.2715 -0.2105
  526MOL0     H70990   2.482   6.366   2.746  1.0751  1.0237 -0.0761
  526MOL0     H70991   2.379   6.388   2.601 -1.1753  3.7461  0.9234
  526MOL0     H70992   2.787   6.933   3.187  0.1536  1.4265  2.1853
  526MOL0     H70993   3.003   6.969   3.297 -1.2739  1.6181  2.1571
  526MOL0     H70994   3.485   6.834   3.180 -1.4179  1.6380  3.1925
  526MOL0     H70995   3.725   6.863   3.158  0.2625  0.5537  1.2839
  526MOL0     H70996   5.093   7.348   2.139 -0.3095  0.1461 -1.9543
  526MOL0     H70997   5.292   7.240   2.235  0.0905 -1.1233 -0.1764
  526MOL0     H70998   5.392   6.771   2.357 -1.9069  1.0888 -3.4488
  526MOL0     H70999   5.519   6.579   2.426 -2.8983 -0.4110 -1.4606
  526MOL0     H71000   5.660   6.451   2.467 -1.6798  2.2342 -3.1731
  526MOL0     H71001   5.679   6.354   2.315 -1.7296 -1.1879  1.7129
  526MOL0     H71002   5.908   6.291   2.375  1.5370 -0.2654  1.3105
  526MOL0     H71003   5.798   6.219   2.466 -1.5209  0.2341 -0.7292
  526MOL0     H71004   5.933   6.480   2.543 -0.8131  0.8419  1.8507
  526MOL0     H71005   6.021   6.327   2.577  0.4862 -0.6677  3.2013
  526MOL0     H71006   5.942   6.391   2.781  1.0694  1.1184 -1.5097
  526MOL0     H71007   5.867   6.237   2.732 -0.4487  0.0081 -0.8146
  526MOL0     H71008   5.514   6.441   2.815 -0.7773 -2.5695  0.1246
  526MOL0     H71009   5.841   6.719   2.163 -1.0091 -1.6352  0.5530
  526MOL0     H71010   5.710   6.890   2.092  0.4564  1.9012  1.1462
  527MOL0     O71011   7.699  10.156   6.804 -0.5156 -0.3100 -0.9902
  527MOL0     C71012   7.709  10.258   6.732 -0.2034  1.1125  0.9635
  527MOL0     O71013   7.605  10.318   6.681  0.1535  0.8061  0.0131
  527MOL0     C71014   7.473  10.299   6.709 -1.0452 -0.2577  0.0920
  527MOL0     C71015   7.418  10.196   6.786  0.0633  0.1497  0.3787
  527MOL0     C71016   7.276  10.199   6.804 -0.0134  0.2577 -0.2900
  527MOL0     C71017   7.195  10.299   6.758  0.0633  0.4306  0.4508
  527MOL0     O71018   7.059  10.294   6.786 -0.5586  0.1838 -0.3867
  527MOL0     C71019   6.966  10.395   6.746  0.4716 -0.0027  0.3859
  527MOL0     C71020   6.821  10.356   6.782  0.4245 -0.2734  0.0944
  527MOL0     C71021   6.768  10.244   6.694  0.5117 -0.7031  0.2765
  527MOL0     C71022   6.613  10.232   6.717 -0.3355  0.0962 -0.3495
  527MOL0     C71023   6.567  10.110   6.633 -0.4459 -0.2928  0.0264
  527MOL0     C71024   6.416  10.102   6.644 -0.0285 -0.5898 -0.4579
  527MOL0     C71025   6.344  10.004   6.545 -0.5402 -0.1128  0.0539
  527MOL0     C71026   6.205   9.980   6.610 -0.0454 -0.0017  1.1789
  527MOL0     N71027   6.144   9.872   6.531  0.4314 -0.2976 -0.0013
  527MOL0     C71028   6.011   9.862   6.506  0.2880 -0.6032 -0.1357
  527MOL0     C71029   5.989   9.739   6.466  0.7152  0.7804 -0.3908
  527MOL0     C71030   5.862   9.681   6.398  0.0063  0.1336  0.1001
  527MOL0     C71031   5.723   9.750   6.415  1.1897 -0.5704 -0.5267
  527MOL0     C71032   5.660   9.740   6.560  0.0324  0.5392  0.0160
  527MOL0     C71033   5.531   9.809   6.583  1.0017  0.4298  0.4460
  527MOL0     O71034   5.430   9.756   6.496  0.0948 -0.1125  0.2424
  527MOL0     C71035   5.303   9.825   6.488 -0.4976 -0.9077 -0.4258
  527MOL0     C71036   5.211   9.782   6.390 -0.8366 -0.9226 -0.1902
  527MOL0     C71037   5.085   9.834   6.369 -0.2509 -0.5477  0.2086
  527MOL0     C71038   5.011   9.768   6.260  0.6482  0.0290  0.4389
  527MOL0     C71039   5.044   9.944   6.450 -0.4714  0.7376  0.1460
  527MOL0     C71040   4.915  10.023   6.428  0.2917  0.2750  0.3667
  527MOL0     O71041   4.875  10.121   6.522  0.2375 -0.3364  0.2827
  527MOL0     C71042   4.774  10.202   6.494 -0.3690 -0.6393 -0.3861
  527MOL0     C71043   4.798  10.342   6.492 -0.0290  0.2642 -0.2870
  527MOL0     C71044   4.693  10.431   6.486  0.3843  0.0436  0.5935
  527MOL0     C71045   4.560  10.386   6.465  0.0905 -0.2798 -0.3691
  527MOL0     O71046   4.458  10.476   6.448  0.1939  0.0214  0.8431
  527MOL0     C71047   4.329  10.460   6.513  0.3152  0.5471  0.4358
  527MOL0     C71048   4.337  10.506   6.664  0.0464 -0.5598  0.7342
  527MOL0     C71049   4.194  10.497   6.725 -0.0262  0.1543  0.1692
  527MOL0     C71050   4.089  10.582   6.666  0.2870 -0.3077  0.5365
  527MOL0     C71051   3.954  10.555   6.726  1.0201  0.0611 -0.0880
  527MOL0     C71052   3.836  10.600   6.628 -0.0460  0.8429  0.3581
  527MOL0     C71053   3.704  10.575   6.688 -0.3255 -0.0705 -0.9832
  527MOL0     C71054   3.599  10.523   6.590  0.1091 -0.9579 -0.7549
  527MOL0    Cl71055   3.515  10.659   6.503  0.2152 -0.1491  0.0101
  527MOL0     C71056   4.536  10.248   6.455 -0.0193  0.2357 -0.4940
  527MOL0     C71057   4.643  10.161   6.474 -0.4028  0.4635 -0.2814
  527MOL0     O71058   4.862  10.005   6.317 -0.2128  0.6981 -0.3983
  527MOL0     C71059   5.140   9.985   6.553  0.3167  1.0142  0.1166
  527MOL0     C71060   5.265   9.923   6.578 -0.2151  0.3435 -0.2205
  527MOL0     N71061   6.111   9.675   6.472 -0.2502 -0.1479  0.5730
  527MOL0     N71062   6.198   9.752   6.508 -0.5349 -0.7622  0.3705
  527MOL0     C71063   7.251  10.395   6.673 -0.3427 -0.5895 -1.0288
  527MOL0     C71064   7.389  10.399   6.663  0.2337  0.4400 -0.2759
  527MOL0     C71065   7.845  10.324   6.706 -0.2199  0.4064 -0.1710
  527MOL0     C71066   7.965  10.250   6.717 -0.1165 -0.8519  0.0105
  527MOL0     C71067   8.083  10.321   6.682  0.0111 -0.4866  0.1938
  527MOL0     C71068   8.089  10.462   6.672  0.7128 -0.4891  0.0833
  527MOL0     O71069   8.216  10.503   6.655 -0.3428  0.3598  0.3353
  527MOL0     C71070   8.230  10.641   6.628  0.6854  0.6797  0.3522
  527MOL0     C71071   8.370  10.694   6.632 -0.3639 -0.3586  0.5281
  527MOL0     C71072   8.441  10.675   6.498  0.4903 -0.1734  0.0367
  527MOL0     C71073   8.580  10.733   6.514 -0.0097  0.1938  0.6672
  527MOL0     C71074   8.599  10.878   6.474 -0.3498  0.5545 -0.0773
  527MOL0     C71075   8.639  10.982   6.440 -0.5182 -0.7191 -0.0532
  527MOL0     C71076   7.970  10.533   6.674  0.0239  0.5800 -0.5399
  527MOL0     C71077   7.850  10.455   6.678  0.7866  0.8089 -0.5636
  527MOL0     H71078   7.477  10.114   6.824 -0.8216 -1.2184 -1.0535
  527MOL0     H71079   7.224  10.125   6.862  1.8240 -0.8810 -0.0269
  527MOL0     H71080   6.993  10.491   6.791 -0.9795  0.0065  1.3105
  527MOL0     H71081   6.974  10.411   6.638  1.9170  1.6181  0.6989
  527MOL0     H71082   6.816  10.322   6.886  2.5946  0.5324  0.5222
  527MOL0     H71083   6.756  10.443   6.773  0.1848 -0.5100 -0.5216
  527MOL0     H71084   6.787  10.259   6.587  3.4752  0.5124  0.8984
  527MOL0     H71085   6.818  10.152   6.725  1.1409 -0.3575  0.2955
  527MOL0     H71086   6.603  10.230   6.826  0.3115  1.4892 -0.2528
  527MOL0     H71087   6.567  10.322   6.677 -1.1384  0.2587  0.8741
  527MOL0     H71088   6.595  10.123   6.528 -0.6604  0.9623  0.1045
  527MOL0     H71089   6.619  10.022   6.673  4.4962  2.8784  1.4729
  527MOL0     H71090   6.380  10.068   6.741  0.2409 -0.4044 -0.2914
  527MOL0     H71091   6.379  10.205   6.633  1.1982 -0.0212  0.4341
  527MOL0     H71092   6.334  10.056   6.449 -2.9859 -2.8715 -1.3322
  527MOL0     H71093   6.398   9.909   6.537 -2.4000 -1.4111  1.7988
  527MOL0     H71094   6.142  10.070   6.606 -0.2151 -0.0611  2.2026
  527MOL0     H71095   6.215   9.942   6.712  1.3942 -0.3810  0.9171
  527MOL0     H71096   5.934   9.939   6.508  0.9910  0.1581 -0.9809
  527MOL0     H71097   5.886   9.676   6.291 -1.1847  0.5388 -0.1980
  527MOL0     H71098   5.852   9.582   6.443 -1.1540  0.0353 -0.3351
  527MOL0     H71099   5.648   9.704   6.350 -0.1615 -1.7403  1.7274
  527MOL0     H71100   5.730   9.854   6.382  2.1957 -0.5781 -0.3563
  527MOL0     H71101   5.729   9.766   6.641 -0.3595 -3.7859  2.0637
  527MOL0     H71102   5.647   9.633   6.579  1.2602  0.4591  0.5074
  527MOL0     H71103   5.538   9.916   6.563  2.6409 -0.0273 -1.8657
  527MOL0     H71104   5.489   9.782   6.680 -1.7887  1.6743 -0.2994
  527MOL0     H71105   5.249   9.705   6.323 -0.5222 -2.0871  1.2823
  527MOL0     H71106   4.906   9.791   6.239  0.4895 -1.5609 -0.6790
  527MOL0     H71107   5.066   9.803   6.172  0.4957 -3.0153 -0.9785
  527MOL0     H71108   5.010   9.659   6.252 -2.8742 -0.0042 -0.5149
  527MOL0     H71109   4.897  10.383   6.503  0.7922 -1.7452  0.2132
  527MOL0     H71110   4.712  10.537   6.486  1.1226 -0.0785  0.1142
  527MOL0     H71111   4.264  10.527   6.456  0.7780 -0.2994 -1.1490
  527MOL0     H71112   4.283  10.361   6.511 -0.7897  0.9210  3.2360
  527MOL0     H71113   4.414  10.448   6.715  0.1756  1.2726  2.7333
  527MOL0     H71114   4.359  10.613   6.664 -0.4902 -0.4171  2.4869
  527MOL0     H71115   4.199  10.523   6.832  1.4132  0.0543  0.1391
  527MOL0     H71116   4.163  10.392   6.723 -2.4552  0.7867  0.8797
  527MOL0     H71117   4.121  10.687   6.666 -0.5658 -0.0444  0.7089
  527MOL0     H71118   4.081  10.550   6.562 -0.0429 -1.6454  0.9508
  527MOL0     H71119   3.949  10.602   6.824 -0.3965  0.0585 -0.1465
  527MOL0     H71120   3.950  10.447   6.743  1.5137  0.1908  0.8881
  527MOL0     H71121   3.847  10.706   6.603  3.7795  0.4359 -0.3936
  527MOL0     H71122   3.851  10.555   6.530 -0.4835 -0.5514  0.9077
  527MOL0     H71123   3.668  10.664   6.740  1.3326 -0.6120  1.2474
  527MOL0     H71124   3.709  10.505   6.771  0.0075  0.3049 -0.6872
  527MOL0     H71125   3.538  10.464   6.659  1.9254 -1.8236  0.1968
  527MOL0     H71126   3.649  10.453   6.522 -0.8335 -0.7153 -1.7219
  527MOL0     H71127   4.434  10.212   6.444  0.4057 -1.2863  0.2696
  527MOL0     H71128   4.627  10.054   6.464  1.6147 -0.0363  1.1196
  527MOL0     H71129   5.107  10.062   6.621 -0.7373  0.6760  0.0046
  527MOL0     H71130   5.323   9.959   6.663 -0.6170 -0.5962  0.4549
  527MOL0     H71131   7.194  10.461   6.608  1.3897 -1.0722 -3.1294
  527MOL0     H71132   7.435  10.461   6.587  2.2006 -2.0323 -1.2694
  527MOL0     H71133   7.975  10.144   6.738  3.0482 -1.1861 -2.4059
  527MOL0     H71134   8.175  10.266   6.664 -1.0431 -1.9209 -1.0905
  527MOL0     H71135   8.185  10.668   6.532  0.9710  2.1610  0.6174
  527MOL0     H71136   8.175  10.698   6.704  2.0050  2.6247 -0.0763
  527MOL0     H71137   8.434  10.656   6.711  0.4903 -1.1727 -0.5278
  527MOL0     H71138   8.368  10.801   6.654  1.5464 -0.5178  1.6771
  527MOL0     H71139   8.388  10.726   6.416  0.7468  1.3208  0.7675
  527MOL0     H71140   8.446  10.566   6.491  1.5190 -0.1389  0.1147
  527MOL0     H71141   8.656  10.684   6.452  2.0386  1.1971  2.2679
  527MOL0     H71142   8.622  10.709   6.612  0.8885  3.8817  1.3156
  527MOL0     H71143   8.688  11.074   6.416 -0.4103 -1.7084 -4.3073
  527MOL0     H71144   7.980  10.640   6.663 -1.4328  0.5920 -2.2513
  527MOL0     H71145   7.761  10.517   6.674 -1.5249 -2.3830 -1.9316
  528MOL0     O71146   8.471   8.290   4.726 -0.4527  0.1606 -0.2145
  528MOL0     C71147   8.464   8.213   4.815 -0.1400 -0.3149  0.2265
  528MOL0     O71148   8.355   8.158   4.866  0.8761 -0.0487  0.8764
  528MOL0     C71149   8.235   8.180   4.807  0.3779  0.6517 -0.6771
  528MOL0     C71150   8.133   8.197   4.899  0.4236 -0.0541 -0.6893
  528MOL0     C71151   7.996   8.206   4.856 -0.1503  0.1531  0.4788
  528MOL0     C71152   7.964   8.205   4.719  0.1882 -0.2103  0.1431
  528MOL0     O71153   7.835   8.234   4.687 -0.0232  0.5540  0.8301
  528MOL0     C71154   7.798   8.204   4.554  0.4177  0.1527  0.6940
  528MOL0     C71155   7.654   8.243   4.543  0.9628 -0.2716 -0.7656
  528MOL0     C71156   7.561   8.132   4.591  0.0337  0.0118  0.4790
  528MOL0     C71157   7.414   8.166   4.554  0.0374  0.3358 -0.1671
  528MOL0     C71158   7.314   8.064   4.606  0.8229 -0.0426 -0.1916
  528MOL0     C71159   7.186   8.091   4.535 -0.6476 -0.6094  0.1150
  528MOL0     C71160   7.069   8.012   4.587  0.2328 -0.1673  0.1865
  528MOL0     C71161   7.062   7.886   4.508 -0.3750  0.8274 -0.0848
  528MOL0     N71162   6.960   7.801   4.559 -0.4624 -0.2812 -0.1837
  528MOL0     C71163   6.832   7.807   4.512  0.0365 -0.5737 -0.1848
  528MOL0     C71164   6.761   7.723   4.590 -0.6235 -0.2026  0.1306
  528MOL0     C71165   6.625   7.662   4.591  0.1689  0.3111  0.6781
  528MOL0     C71166   6.513   7.760   4.564 -0.7756  0.0931  0.4893
  528MOL0     C71167   6.381   7.708   4.614 -0.3595  0.2995  0.4162
  528MOL0     C71168   6.352   7.743   4.760 -0.1868  0.3632 -0.9553
  528MOL0     O71169   6.288   7.868   4.753 -0.3296 -0.2285 -0.6594
  528MOL0     C71170   6.153   7.880   4.781  0.2199  0.1309  0.1473
  528MOL0     C71171   6.064   7.794   4.849  0.5270  1.1918  0.6592
  528MOL0     C71172   5.929   7.827   4.870 -0.3417 -0.1610  0.4575
  528MOL0     C71173   5.847   7.730   4.952 -0.3437 -0.0641 -0.2211
  528MOL0     C71174   5.874   7.944   4.808  0.4096  0.6497 -0.8368
  528MOL0     C71175   5.731   7.992   4.817 -0.3464  0.2013 -0.6855
  528MOL0     O71176   5.701   8.093   4.736 -0.1937  0.2851 -0.0427
  528MOL0     C71177   5.579   8.140   4.726  0.5433 -0.7626 -0.2415
  528MOL0     C71178   5.477   8.053   4.680 -0.8340 -0.4460 -0.2116
  528MOL0     C71179   5.349   8.101   4.675 -0.1496 -0.9009  0.2056
  528MOL0     C71180   5.319   8.239   4.697  0.6465  0.3311  0.3596
  528MOL0     O71181   5.194   8.291   4.707  0.1229  0.1372  0.1835
  528MOL0     C71182   5.085   8.205   4.704  0.5079 -0.3951 -0.7419
  528MOL0     C71183   4.962   8.292   4.716  0.5267  0.4670  0.0722
  528MOL0     C71184   4.929   8.339   4.857 -0.0094  0.3922  0.3092
  528MOL0     C71185   4.795   8.424   4.846  0.5404  0.2535 -0.1802
  528MOL0     C71186   4.744   8.480   4.984  0.0761  0.4283  0.6029
  528MOL0     C71187   4.613   8.425   5.022 -0.8049 -0.6632  0.6412
  528MOL0     C71188   4.546   8.502   5.129  0.7834 -0.5293  0.5994
  528MOL0     C71189   4.493   8.634   5.073  0.1754 -0.6899 -0.5458
  528MOL0    Cl71190   4.437   8.706   5.220  0.1589  0.2023  0.2079
  528MOL0     C71191   5.421   8.313   4.745 -0.2970 -0.5375  0.0039
  528MOL0     C71192   5.553   8.267   4.769 -0.3465 -0.9078 -0.2037
  528MOL0     O71193   5.647   7.947   4.897  0.0518  0.2915  0.8275
  528MOL0     C71194   5.964   8.027   4.743  0.6929  0.9230  0.7835
  528MOL0     C71195   6.097   7.995   4.726  0.1563 -0.1424 -0.2897
  528MOL0     N71196   6.860   7.660   4.667  0.0036  0.0168  1.2018
  528MOL0     N71197   6.977   7.698   4.641  0.7016  0.7808  0.4179
  528MOL0     C71198   8.074   8.204   4.628 -0.2531  1.5994 -0.1417
  528MOL0     C71199   8.205   8.182   4.675 -0.3246 -0.4492 -0.3224
  528MOL0     C71200   8.591   8.187   4.895  0.3717 -1.1241 -0.6476
  528MOL0     C71201   8.593   8.132   5.022  0.0891  0.8201 -0.3220
  528MOL0     C71202   8.717   8.110   5.084  0.6332  1.2687 -0.3541
  528MOL0     C71203   8.839   8.132   5.027  1.0642  0.8225  0.3664
  528MOL0     O71204   8.951   8.104   5.101 -0.5187  0.4684 -0.2486
  528MOL0     C71205   9.084   8.140   5.053 -0.8251 -1.0909 -0.3482
  528MOL0     C71206   9.188   8.042   5.114 -0.4764  0.5125 -0.2018
  528MOL0     C71207   9.333   8.087   5.087  0.3658  0.0217  0.4632
  528MOL0     C71208   9.380   8.202   5.179  0.4823 -0.1146  1.0579
  528MOL0     C71209   9.373   8.177   5.320 -0.0367  0.5916  0.2977
  528MOL0     C71210   9.382   8.147   5.435 -0.1897  0.6308 -0.0400
  528MOL0     C71211   8.838   8.208   4.906  0.2967  0.4665  0.7016
  528MOL0     C71212   8.712   8.229   4.843 -0.3297  0.1294 -0.6063
  528MOL0     H71213   8.156   8.189   5.004 -0.2137  1.5225 -0.4019
  528MOL0     H71214   7.910   8.223   4.919 -1.2023 -0.4789 -0.7233
  528MOL0     H71215   7.866   8.252   4.483  0.6406 -1.4523 -0.2185
  528MOL0     H71216   7.820   8.106   4.511 -1.9687  1.6517 -4.9074
  528MOL0     H71217   7.635   8.333   4.603 -2.1817 -0.5320 -1.2039
  528MOL0     H71218   7.632   8.273   4.440  0.1870  0.9816 -0.2712
  528MOL0     H71219   7.600   8.043   4.541 -2.2961 -1.1223  0.5641
  528MOL0     H71220   7.556   8.117   4.700 -2.5403 -0.7469  0.3148
  528MOL0     H71221   7.388   8.268   4.583  0.1251  0.4921 -0.6246
  528MOL0     H71222   7.418   8.162   4.445  0.5165  1.7306 -0.2198
  528MOL0     H71223   7.345   7.961   4.584  0.7546 -0.0749 -0.1409
  528MOL0     H71224   7.299   8.082   4.713  0.0023 -1.9992  0.0671
  528MOL0     H71225   7.157   8.196   4.550  0.1494 -0.4031  0.2202
  528MOL0     H71226   7.195   8.058   4.431 -3.5646  0.0668 -0.4382
  528MOL0     H71227   7.073   7.996   4.695  0.8471 -0.0383  0.1899
  528MOL0     H71228   6.979   8.072   4.575 -0.0501 -0.8032 -1.0218
  528MOL0     H71229   7.156   7.838   4.535 -0.9828  0.4614  1.5181
  528MOL0     H71230   7.061   7.895   4.399  0.6605  0.7037 -0.1151
  528MOL0     H71231   6.815   7.884   4.437  1.3109  0.2223  0.3086
  528MOL0     H71232   6.626   7.588   4.510 -1.2685 -0.0826  0.9950
  528MOL0     H71233   6.596   7.612   4.684  0.8021 -0.6153  0.3902
  528MOL0     H71234   6.514   7.766   4.455  2.4720 -0.3834  0.4004
  528MOL0     H71235   6.534   7.860   4.604 -1.4002 -0.1796  1.5428
  528MOL0     H71236   6.377   7.600   4.599  1.5882  0.3606 -0.9475
  528MOL0     H71237   6.308   7.758   4.550 -0.6894 -1.2055 -0.4288
  528MOL0     H71238   6.439   7.743   4.826 -2.2529 -0.6602  1.9729
  528MOL0     H71239   6.288   7.666   4.805 -2.8210  2.3056 -1.0940
  528MOL0     H71240   6.096   7.695   4.880 -1.1118  0.8463  1.4035
  528MOL0     H71241   5.902   7.663   5.019 -1.9124 -0.7288  0.4713
  528MOL0     H71242   5.778   7.793   5.009 -2.1594 -0.1062 -2.2301
  528MOL0     H71243   5.796   7.657   4.889  1.9577 -0.8564 -1.2866
  528MOL0     H71244   5.508   7.955   4.645 -4.0072 -1.4461 -0.5981
  528MOL0     H71245   5.269   8.034   4.647  1.1204 -2.2230 -0.3538
  528MOL0     H71246   5.093   8.147   4.612  1.3223 -1.1054 -0.2356
  528MOL0     H71247   5.086   8.133   4.787 -1.6305 -0.9335 -1.1280
  528MOL0     H71248   4.966   8.382   4.654 -0.7967  0.6940  0.2738
  528MOL0     H71249   4.878   8.234   4.678 -0.0292  0.8920  0.6173
  528MOL0     H71250   5.005   8.408   4.896  2.5837 -0.9486 -2.0576
  528MOL0     H71251   4.930   8.254   4.925 -0.1134  0.7206  0.7277
  528MOL0     H71252   4.808   8.504   4.771 -1.4807 -0.2346 -1.1092
  528MOL0     H71253   4.713   8.370   4.799 -0.6246  3.4182 -2.0875
  528MOL0     H71254   4.738   8.588   4.963 -3.1907  0.3838  0.7001
  528MOL0     H71255   4.821   8.458   5.058  0.9057 -0.5712 -0.5274
  528MOL0     H71256   4.554   8.430   4.930  0.7943  2.1529 -0.3526
  528MOL0     H71257   4.622   8.321   5.053  0.2620  0.2453  3.6903
  528MOL0     H71258   4.612   8.520   5.214  0.3341 -1.1493  1.0973
  528MOL0     H71259   4.467   8.439   5.172  0.4784 -1.7136 -1.5296
  528MOL0     H71260   4.413   8.603   5.006 -0.3599  0.0554 -0.2616
  528MOL0     H71261   4.557   8.702   5.016 -0.4622  0.4480  0.0572
  528MOL0     H71262   5.394   8.412   4.779 -1.6929 -0.9839  0.2535
  528MOL0     H71263   5.624   8.335   4.817  0.1504 -2.1894  0.9422
  528MOL0     H71264   5.927   8.117   4.694  1.3361  1.2916  0.9612
  528MOL0     H71265   6.153   8.072   4.674 -0.0041 -1.5259 -2.6572
  528MOL0     H71266   8.068   8.211   4.520  1.6712  0.6347 -0.3608
  528MOL0     H71267   8.288   8.177   4.605  0.3459  2.2622  0.1771
  528MOL0     H71268   8.499   8.105   5.067  0.9174  1.0641  1.6654
  528MOL0     H71269   8.712   8.052   5.176  1.9652  2.2908  0.4032
  528MOL0     H71270   9.094   8.129   4.944 -2.7302 -0.9194 -0.5677
  528MOL0     H71271   9.107   8.243   5.080 -0.8002 -1.1982  0.0488
  528MOL0     H71272   9.169   7.942   5.075  0.3346 -0.3682  1.5359
  528MOL0     H71273   9.160   8.028   5.219 -0.4530  1.2520 -0.0892
  528MOL0     H71274   9.336   8.117   4.982  1.3802 -0.2640  0.3963
  528MOL0     H71275   9.393   7.999   5.113  0.1165  0.1356  1.4836
  528MOL0     H71276   9.313   8.284   5.149 -0.3772 -1.0286  0.3998
  528MOL0     H71277   9.479   8.233   5.146 -0.1834 -0.8929 -2.0057
  528MOL0     H71278   9.389   8.129   5.540 -0.4977 -1.4177 -0.3352
  528MOL0     H71279   8.920   8.255   4.854 -1.1062  0.9766 -1.1672
  528MOL0     H71280   8.719   8.286   4.751  1.0199  4.2111  1.7565
  529MOL0     O71281  10.597   6.434   4.470  0.3267 -0.1774 -0.0073
  529MOL0     C71282  10.626   6.541   4.427 -1.3497  0.2460  0.7134
  529MOL0     O71283  10.537   6.632   4.373 -0.1078 -0.2543 -0.9669
  529MOL0     C71284  10.403   6.607   4.350  0.2517  0.0827  0.2307
  529MOL0     C71285  10.314   6.709   4.363 -0.5808 -0.6212 -0.3030
  529MOL0     C71286  10.172   6.699   4.343 -0.6335  0.0382 -1.6318
  529MOL0     C71287  10.127   6.573   4.307 -0.0538  0.3342 -0.0726
  529MOL0     O71288   9.996   6.549   4.280 -0.3608  0.3689 -0.8282
  529MOL0     C71289   9.956   6.456   4.180  0.3435 -0.1482 -0.1232
  529MOL0     C71290   9.844   6.532   4.103 -0.1051  0.0817 -0.4845
  529MOL0     C71291   9.724   6.450   4.044 -0.1023  0.5574 -0.0566
  529MOL0     C71292   9.766   6.348   3.937  0.1155 -0.3906 -0.2962
  529MOL0     C71293   9.820   6.209   3.980  0.2351 -0.1210 -1.1382
  529MOL0     C71294   9.881   6.136   3.869 -0.2452 -0.4641 -0.3881
  529MOL0     C71295   9.940   5.996   3.908  0.4268 -0.1337 -0.3151
  529MOL0     C71296  10.056   5.993   4.012  1.0047 -0.2766  0.3422
  529MOL0     N71297  10.169   6.083   3.974  0.6266 -1.2535  0.0353
  529MOL0     C71298  10.246   6.063   3.857 -0.2936  0.1441  0.0879
  529MOL0     C71299  10.348   6.149   3.878 -0.2119  0.2462 -0.1158
  529MOL0     C71300  10.460   6.188   3.788 -0.0744 -0.3976 -0.2757
  529MOL0     C71301  10.412   6.285   3.679  0.5608  0.9003 -0.9974
  529MOL0     C71302  10.346   6.217   3.557 -0.1712  0.4391 -1.3336
  529MOL0     C71303  10.288   6.337   3.483  0.0278  0.4455 -0.3013
  529MOL0     O71304  10.244   6.282   3.365  0.4593 -0.8200 -0.1230
  529MOL0     C71305  10.172   6.352   3.268  0.1969  0.5217 -0.0628
  529MOL0     C71306  10.122   6.483   3.269  0.8772  0.0790 -0.3780
  529MOL0     C71307  10.060   6.535   3.164  0.1608  0.2404  0.3872
  529MOL0     C71308   9.994   6.670   3.188 -0.1716 -0.2452  0.4893
  529MOL0     C71309  10.054   6.467   3.038 -0.6854  0.3111 -0.4002
  529MOL0     C71310   9.982   6.526   2.916 -0.0553 -0.0677 -0.6522
  529MOL0     O71311  10.005   6.465   2.794  0.1797 -0.5115 -0.2107
  529MOL0     C71312   9.953   6.510   2.670 -0.3022 -0.2980 -0.0378
  529MOL0     C71313   9.903   6.637   2.649  1.7250  0.0421 -1.1483
  529MOL0     C71314   9.846   6.682   2.528 -0.8944  0.2893 -0.7064
  529MOL0     C71315   9.850   6.592   2.423  0.0609  0.3230  0.5659
  529MOL0     O71316   9.790   6.640   2.302 -0.5377  0.0142 -0.4073
  529MOL0     C71317   9.713   6.547   2.227  0.3512 -0.1868  0.2873
  529MOL0     C71318   9.641   6.621   2.104  0.8320 -0.8872 -0.0575
  529MOL0     C71319   9.632   6.539   1.980 -0.3709 -0.0366  0.1569
  529MOL0     C71320   9.535   6.611   1.887 -0.7825 -0.3533 -0.1409
  529MOL0     C71321   9.507   6.535   1.754  0.0467 -0.5965 -0.1641
  529MOL0     C71322   9.437   6.621   1.643 -1.2154 -0.7867 -0.8086
  529MOL0     C71323   9.435   6.539   1.511 -0.3802  0.4657  0.6196
  529MOL0     C71324   9.389   6.630   1.396  0.4028 -0.0670  0.2149
  529MOL0    Cl71325   9.214   6.675   1.432 -0.0188 -0.1509  0.5795
  529MOL0     C71326   9.907   6.467   2.435  0.2375  0.1622 -0.5012
  529MOL0     C71327   9.955   6.417   2.558  0.5029 -0.4242  0.5530
  529MOL0     O71328   9.879   6.598   2.943 -0.0942  0.3271 -0.5881
  529MOL0     C71329  10.108   6.343   3.030  0.0197 -0.2360 -0.2022
  529MOL0     C71330  10.165   6.285   3.147 -0.3487  0.4356 -0.0883
  529MOL0     N71331  10.338   6.199   4.011 -0.6931  0.4891  0.4397
  529MOL0     N71332  10.233   6.161   4.062  0.1097  0.1841  0.5425
  529MOL0     C71333  10.218   6.464   4.290 -0.0559 -0.9804  0.5860
  529MOL0     C71334  10.354   6.484   4.303  0.0491  0.2057 -0.1181
  529MOL0     C71335  10.757   6.600   4.453  0.7853 -0.6632 -0.1017
  529MOL0     C71336  10.779   6.737   4.438 -0.7021 -0.0818  1.2354
  529MOL0     C71337  10.911   6.790   4.478 -0.3250  0.4218  0.0809
  529MOL0     C71338  11.003   6.718   4.546 -0.1161  0.0744  0.1036
  529MOL0     O71339  11.131   6.756   4.580 -0.0471  0.8854  0.1137
  529MOL0     C71340  11.181   6.887   4.527  0.5088 -0.2999 -0.7371
  529MOL0     C71341  11.328   6.879   4.555 -0.1952  0.6014 -0.0833
  529MOL0     C71342  11.396   7.014   4.582 -0.0235  0.3788  1.2050
  529MOL0     C71343  11.402   7.091   4.453  0.0874 -0.4642 -0.5567
  529MOL0     C71344  11.540   7.129   4.424 -0.1467 -0.3627  0.1104
  529MOL0     C71345  11.651   7.163   4.382 -0.9392  0.4539  0.9528
  529MOL0     C71346  10.975   6.580   4.553  0.4165  1.4105  0.3019
  529MOL0     C71347  10.864   6.522   4.503  0.3066  0.0992  0.7438
  529MOL0     H71348  10.353   6.806   4.392  3.0142 -1.2141 -2.5708
  529MOL0     H71349  10.108   6.787   4.346  0.1759  0.6251 -0.9758
  529MOL0     H71350  10.032   6.434   4.105  1.9536  4.9301 -0.3356
  529MOL0     H71351   9.903   6.369   4.220  0.9101 -0.3156  0.2735
  529MOL0     H71352   9.807   6.606   4.174 -3.0654 -3.2857  1.8386
  529MOL0     H71353   9.893   6.587   4.022  0.8028  0.0306  0.0206
  529MOL0     H71354   9.680   6.393   4.127  1.3494 -0.0663  0.3131
  529MOL0     H71355   9.655   6.520   3.997 -0.2451 -1.1786 -2.6254
  529MOL0     H71356   9.674   6.334   3.879 -1.9257  0.2754  2.5132
  529MOL0     H71357   9.841   6.391   3.870  2.4803 -1.5563  1.4726
  529MOL0     H71358   9.893   6.227   4.060 -0.9895 -0.6659  0.1591
  529MOL0     H71359   9.732   6.150   4.009  0.4380 -0.5239 -1.3472
  529MOL0     H71360   9.805   6.117   3.792  0.1039  0.2897 -0.9376
  529MOL0     H71361   9.965   6.187   3.821 -0.9160 -0.7016 -1.8574
  529MOL0     H71362   9.854   5.935   3.936 -0.6960  2.2325  1.7764
  529MOL0     H71363   9.970   5.951   3.813 -0.7883 -0.4459 -0.5673
  529MOL0     H71364  10.096   5.892   4.029  0.7113 -0.8149 -1.7748
  529MOL0     H71365  10.010   6.033   4.103 -2.2702 -0.6994 -1.0050
  529MOL0     H71366  10.244   6.000   3.769 -0.7678  0.4723 -0.1338
  529MOL0     H71367  10.532   6.235   3.856 -0.6590 -0.9679  0.7608
  529MOL0     H71368  10.507   6.100   3.742 -0.9492 -1.9771  1.6861
  529MOL0     H71369  10.501   6.338   3.643  0.2396  2.0059 -0.2306
  529MOL0     H71370  10.351   6.366   3.720  0.0365 -0.3018  0.7108
  529MOL0     H71371  10.276   6.142   3.596  1.2972  0.7420  2.2877
  529MOL0     H71372  10.415   6.152   3.501 -1.2927  0.1760 -2.4648
  529MOL0     H71373  10.368   6.410   3.468  1.1023 -0.9877 -1.9164
  529MOL0     H71374  10.204   6.385   3.535  1.6328  2.8091  0.2753
  529MOL0     H71375  10.128   6.537   3.363 -1.3384 -3.1320  1.8324
  529MOL0     H71376   9.993   6.677   3.297 -3.2384 -0.5981  0.5651
  529MOL0     H71377  10.047   6.754   3.141 -0.3629 -0.6913 -0.5371
  529MOL0     H71378   9.888   6.670   3.164 -1.0064  0.1844  3.6581
  529MOL0     H71379   9.902   6.713   2.727  1.3408 -0.2240 -0.8898
  529MOL0     H71380   9.797   6.775   2.501 -0.6918 -0.3001 -3.3841
  529MOL0     H71381   9.783   6.475   2.183  0.1013 -0.1021 -0.2630
  529MOL0     H71382   9.647   6.493   2.295  1.6959  0.6337  2.3464
  529MOL0     H71383   9.544   6.656   2.140  0.5905 -0.0729 -1.4141
  529MOL0     H71384   9.711   6.701   2.075  2.0391 -1.9043 -0.0490
  529MOL0     H71385   9.586   6.441   1.998  0.5326 -0.4567  0.2252
  529MOL0     H71386   9.733   6.533   1.938  0.9210  1.0296  2.9031
  529MOL0     H71387   9.444   6.620   1.947 -0.2709 -3.5688  1.3309
  529MOL0     H71388   9.563   6.715   1.869  1.5454 -0.9682 -0.3427
  529MOL0     H71389   9.455   6.441   1.776 -0.3405 -0.7712 -1.6875
  529MOL0     H71390   9.603   6.509   1.708  0.8077  0.0891  0.9837
  529MOL0     H71391   9.335   6.649   1.672 -2.1268 -1.5951 -3.0528
  529MOL0     H71392   9.500   6.709   1.624  0.8093 -1.5676  1.6309
  529MOL0     H71393   9.377   6.446   1.510  2.5968 -1.5568  1.1219
  529MOL0     H71394   9.537   6.503   1.491 -0.5592  1.0220 -1.4573
  529MOL0     H71395   9.391   6.579   1.299  2.2575 -2.9945  1.6523
  529MOL0     H71396   9.438   6.728   1.394 -2.9165  1.7395 -1.4126
  529MOL0     H71397   9.909   6.395   2.354  0.4640  0.9952 -1.2505
  529MOL0     H71398   9.972   6.310   2.566 -0.1646 -0.5802  0.0135
  529MOL0     H71399  10.090   6.283   2.941 -4.9641  1.6356 -0.8065
  529MOL0     H71400  10.187   6.179   3.156 -3.0854 -0.0450  2.4427
  529MOL0     H71401  10.178   6.369   4.256 -2.1696  0.7431 -2.2537
  529MOL0     H71402  10.410   6.392   4.285  0.8298  0.3999  1.1704
  529MOL0     H71403  10.710   6.806   4.392  0.6670  1.1493  0.9565
  529MOL0     H71404  10.924   6.897   4.463 -0.9393  0.4368 -0.4392
  529MOL0     H71405  11.168   6.910   4.421  0.5305  2.2600 -0.2484
  529MOL0     H71406  11.142   6.965   4.592  0.2329 -1.2194  0.2423
  529MOL0     H71407  11.370   6.836   4.464 -1.5265 -2.2453  0.5270
  529MOL0     H71408  11.354   6.806   4.633 -0.1220 -1.0958 -1.6234
  529MOL0     H71409  11.493   7.002   4.632 -0.7760 -0.3710  2.5378
  529MOL0     H71410  11.343   7.078   4.653  0.1318  0.5739  1.1454
  529MOL0     H71411  11.357   7.185   4.487  2.9323  1.0810 -0.7130
  529MOL0     H71412  11.346   7.053   4.367 -0.3967  0.4298 -0.6480
  529MOL0     H71413  11.749   7.183   4.343 -1.3151  0.2181 -0.1320
  529MOL0     H71414  11.048   6.509   4.590 -0.6662  1.3295  2.3862
  529MOL0     H71415  10.858   6.413   4.507  4.0800 -0.3731 -1.4086
  530MOL0     O71416   0.737   8.922   4.450  0.1969 -0.6048 -0.1696
  530MOL0     C71417   0.650   8.951   4.368  0.6234  0.6979 -0.7990
  530MOL0     O71418   0.670   8.965   4.240 -0.5894 -0.2711  0.5186
  530MOL0     C71419   0.793   8.996   4.190 -0.0321  0.0912  0.7921
  530MOL0     C71420   0.892   9.079   4.247 -0.1058 -0.2479  0.2089
  530MOL0     C71421   1.011   9.098   4.173 -0.1900 -0.8017  0.3848
  530MOL0     C71422   1.025   9.059   4.034  0.0880  1.0412 -0.9377
  530MOL0     O71423   1.128   9.098   3.944  0.0044  0.4402 -0.2713
  530MOL0     C71424   1.175   9.231   3.959 -0.1965  0.9568  0.3830
  530MOL0     C71425   1.261   9.261   3.837 -0.5694  0.0554  0.1185
  530MOL0     C71426   1.332   9.394   3.880 -0.3410 -0.2156  0.3253
  530MOL0     C71427   1.361   9.476   3.754  0.7239  1.0131  0.3659
  530MOL0     C71428   1.421   9.617   3.777  0.4509  0.0082 -0.1917
  530MOL0     C71429   1.572   9.613   3.808 -0.4617  0.5453  0.0760
  530MOL0     C71430   1.660   9.559   3.692 -0.2043  0.0816  0.3408
  530MOL0     C71431   1.813   9.555   3.725  0.4620  0.2365  0.1086
  530MOL0     N71432   1.853   9.481   3.839  0.3764 -0.0319  0.1886
  530MOL0     C71433   1.810   9.356   3.869  0.0615 -0.3445 -0.1445
  530MOL0     C71434   1.843   9.336   4.000 -0.1861  0.7127  0.8690
  530MOL0     C71435   1.835   9.201   4.064  1.1475 -0.4140 -0.3633
  530MOL0     C71436   1.684   9.148   4.100  0.2565  1.1394 -0.6885
  530MOL0     C71437   1.688   9.004   4.155 -0.1406  0.0503 -0.0446
  530MOL0     C71438   1.538   8.953   4.189 -0.5022 -0.5452  0.0270
  530MOL0     O71439   1.547   8.815   4.180  0.0177 -0.2936 -0.1474
  530MOL0     C71440   1.433   8.737   4.192 -0.5466  0.1685 -0.4435
  530MOL0     C71441   1.314   8.787   4.247  0.2355  0.0874  0.3342
  530MOL0     C71442   1.201   8.701   4.266 -0.3204 -0.1369 -0.1464
  530MOL0     C71443   1.065   8.764   4.308  0.6700 -0.2506 -0.1305
  530MOL0     C71444   1.207   8.563   4.227 -0.1117 -0.7134  0.1221
  530MOL0     C71445   1.095   8.474   4.236 -0.5656 -0.2130 -0.3145
  530MOL0     O71446   1.057   8.420   4.112 -0.2784 -0.1416  0.0215
  530MOL0     C71447   0.937   8.359   4.111 -0.4792  0.0205 -0.0328
  530MOL0     C71448   0.931   8.243   4.184  0.2653  0.4206 -0.4047
  530MOL0     C71449   0.812   8.165   4.185 -0.2401 -0.0729  1.0126
  530MOL0     C71450   0.703   8.213   4.110  0.0259 -0.3615 -0.3980
  530MOL0     O71451   0.583   8.138   4.107 -0.2102 -0.6456 -0.1543
  530MOL0     C71452   0.455   8.211   4.095  0.2495 -0.6632 -0.9358
  530MOL0     C71453   0.334   8.114   4.102 -0.0039 -0.2667 -0.9560
  530MOL0     C71454   0.327   8.036   3.971  0.0954  0.1954 -0.5839
  530MOL0     C71455   0.363   7.886   3.994 -0.4551  0.2850 -1.1197
  530MOL0     C71456   0.307   7.785   3.892 -0.0264 -0.3334 -0.8529
  530MOL0     C71457   0.385   7.771   3.764  0.3922  0.6659  0.3011
  530MOL0     C71458   0.343   7.878   3.659 -0.0709 -0.3800 -0.3307
  530MOL0     C71459   0.195   7.851   3.618 -0.4477 -0.1303  0.5890
  530MOL0    Cl71460   0.177   7.698   3.522  0.6552 -0.1639 -0.5900
  530MOL0     C71461   0.706   8.342   4.047  0.7543  0.3361 -0.1622
  530MOL0     C71462   0.829   8.407   4.047 -0.5208  0.2657  0.2716
  530MOL0     O71463   1.037   8.463   4.341  0.4510 -0.2059  0.5063
  530MOL0     C71464   1.333   8.519   4.185 -0.2400  0.8300  0.1699
  530MOL0     C71465   1.442   8.603   4.166 -0.0937 -0.2778 -0.1209
  530MOL0     N71466   1.904   9.452   4.043 -0.0109  0.4539 -0.1961
  530MOL0     N71467   1.899   9.538   3.959 -0.6762 -0.1497  0.4145
  530MOL0     C71468   0.924   8.982   3.983  0.0141  0.0533  0.0424
  530MOL0     C71469   0.814   8.947   4.059 -0.8145 -0.2608 -0.3633
  530MOL0     C71470   0.515   8.993   4.425 -0.3615 -0.1879  0.0234
  530MOL0     C71471   0.504   9.010   4.566  0.1982  0.2197 -0.4094
  530MOL0     C71472   0.379   9.042   4.617 -0.3361  0.3496  0.2967
  530MOL0     C71473   0.261   9.045   4.544 -0.4383 -0.3370  0.0922
  530MOL0     O71474   0.158   9.071   4.621  0.2026  0.1235 -0.2292
  530MOL0     C71475   0.023   9.060   4.565 -0.3269 -0.3474 -0.3657
  530MOL0     C71476  -0.079   9.027   4.672  0.7948 -0.5769 -0.5156
  530MOL0     C71477  -0.229   9.047   4.622  0.0859 -0.1118  0.2505
  530MOL0     C71478  -0.258   8.985   4.477  0.1047  0.0278  0.0539
  530MOL0     C71479  -0.211   8.846   4.470 -1.0350  0.4106  1.0076
  530MOL0     C71480  -0.205   8.726   4.434 -0.6522 -0.0759  0.2686
  530MOL0     C71481   0.266   9.009   4.408 -0.9344  0.2809  0.7893
  530MOL0     C71482   0.398   8.994   4.353  0.0222  0.0165  0.6144
  530MOL0     H71483   0.884   9.130   4.342 -0.0973  2.1347 -0.9878
  530MOL0     H71484   1.104   9.147   4.201  0.3640 -1.7994  0.3225
  530MOL0     H71485   1.100   9.308   3.980 -0.0825  0.7492  1.6497
  530MOL0     H71486   1.246   9.224   4.042 -0.3009 -2.6116  0.3174
  530MOL0     H71487   1.337   9.183   3.823 -1.7765 -0.8638 -1.6940
  530MOL0     H71488   1.207   9.282   3.744 -1.9576  2.2713  1.3411
  530MOL0     H71489   1.271   9.448   3.953  3.6079  2.6162  1.8662
  530MOL0     H71490   1.424   9.374   3.937  1.0489  0.4890 -1.5646
  530MOL0     H71491   1.430   9.413   3.697 -1.8346 -0.1952 -1.6306
  530MOL0     H71492   1.276   9.473   3.684  1.6132  1.5638 -0.7819
  530MOL0     H71493   1.407   9.693   3.700  1.2409  2.2810  1.7659
  530MOL0     H71494   1.361   9.650   3.862 -0.0317 -0.1594 -0.4680
  530MOL0     H71495   1.609   9.710   3.843  0.3317  0.0837  0.5618
  530MOL0     H71496   1.583   9.544   3.891  1.0382 -0.2779 -0.7611
  530MOL0     H71497   1.642   9.452   3.677 -2.2403 -0.0304  2.8403
  530MOL0     H71498   1.633   9.614   3.602 -0.0128  0.0086  0.2381
  530MOL0     H71499   1.850   9.658   3.729  1.6859 -0.2296  1.2332
  530MOL0     H71500   1.856   9.500   3.640  2.0142 -0.8425  1.5471
  530MOL0     H71501   1.759   9.284   3.806 -0.8845  1.4480 -1.5409
  530MOL0     H71502   1.886   9.128   4.000 -1.0498 -0.5881 -2.0838
  530MOL0     H71503   1.888   9.215   4.158  2.3315  0.3283 -1.1163
  530MOL0     H71504   1.620   9.145   4.011 -1.5089 -2.9121  0.4787
  530MOL0     H71505   1.642   9.221   4.169  1.2661  0.1246  1.0738
  530MOL0     H71506   1.759   9.008   4.239  2.0516  0.5486 -1.8060
  530MOL0     H71507   1.722   8.937   4.076  2.3083 -0.9388  1.7152
  530MOL0     H71508   1.458   8.979   4.119  0.0795 -0.4384 -0.5996
  530MOL0     H71509   1.508   8.983   4.290 -0.5826  0.0023 -0.1587
  530MOL0     H71510   1.307   8.891   4.278 -1.3141  0.0394  0.2201
  530MOL0     H71511   1.031   8.733   4.407 -1.1707  1.6509 -0.1053
  530MOL0     H71512   1.075   8.870   4.331 -0.6295 -0.4426  1.4840
  530MOL0     H71513   0.984   8.743   4.237  0.0384  0.4415  0.3672
  530MOL0     H71514   1.016   8.205   4.239 -1.6900  0.8839  3.2895
  530MOL0     H71515   0.809   8.073   4.242  1.4387 -0.1968  0.9628
  530MOL0     H71516   0.467   8.283   4.176 -0.3150  1.4558 -2.6412
  530MOL0     H71517   0.448   8.273   4.005  0.6394 -1.6640 -1.6668
  530MOL0     H71518   0.329   8.050   4.190 -1.8171 -2.0200 -2.2167
  530MOL0     H71519   0.247   8.180   4.104  0.0841 -0.1616  0.6868
  530MOL0     H71520   0.398   8.077   3.899  1.2468 -5.3323 -3.0884
  530MOL0     H71521   0.227   8.050   3.930 -0.3217 -0.2629  0.2421
  530MOL0     H71522   0.465   7.866   4.028 -0.9951 -1.6138 -0.4711
  530MOL0     H71523   0.312   7.854   4.086  2.7331  0.4377  0.8363
  530MOL0     H71524   0.200   7.802   3.881 -0.2260 -1.8390 -1.4583
  530MOL0     H71525   0.309   7.684   3.933  0.1366  0.2556  0.6777
  530MOL0     H71526   0.493   7.788   3.775  1.2248 -0.8607 -3.7976
  530MOL0     H71527   0.376   7.671   3.721 -1.5528  0.5498  0.8980
  530MOL0     H71528   0.399   7.860   3.566  1.2728 -1.0628  0.5785
  530MOL0     H71529   0.363   7.976   3.703 -0.0712 -0.7382  0.4792
  530MOL0     H71530   0.159   7.938   3.562  1.0637  2.1852  2.9881
  530MOL0     H71531   0.138   7.846   3.712  0.5954 -0.4458  1.2275
  530MOL0     H71532   0.618   8.375   3.992 -1.6970 -2.1257  1.9704
  530MOL0     H71533   0.830   8.503   3.996 -0.9143  0.6261  0.9383
  530MOL0     H71534   1.352   8.415   4.162 -2.4529 -0.6156  3.9069
  530MOL0     H71535   1.535   8.557   4.136  0.4260  1.1204 -0.7724
  530MOL0     H71536   0.923   8.951   3.879  0.0914  0.4707 -0.0840
  530MOL0     H71537   0.735   8.880   4.026  0.1124 -1.4992 -0.1282
  530MOL0     H71538   0.584   9.001   4.639 -0.5424  0.6138  0.4774
  530MOL0     H71539   0.376   9.066   4.723  0.1335 -2.8630  1.1346
  530MOL0     H71540  -0.001   9.149   4.506  0.8961  1.6091  1.9363
  530MOL0     H71541   0.033   8.969   4.505 -0.8408 -0.1812 -0.7097
  530MOL0     H71542  -0.059   9.087   4.761 -1.4352 -0.3750 -0.1075
  530MOL0     H71543  -0.070   8.921   4.698 -0.5292 -0.5136  0.2878
  530MOL0     H71544  -0.240   9.156   4.628 -0.7208  0.0635 -2.6388
  530MOL0     H71545  -0.294   8.995   4.692  0.8313  0.9560  1.7995
  530MOL0     H71546  -0.206   9.037   4.396 -0.2157 -0.3913 -0.4352
  530MOL0     H71547  -0.366   8.993   4.465  0.2770 -0.1445 -1.9986
  530MOL0     H71548  -0.206   8.624   4.400 -2.8701 -0.5835  1.6705
  530MOL0     H71549   0.175   9.009   4.348 -1.3199  1.2881  1.3466
  530MOL0     H71550   0.404   8.991   4.245 -0.3333  4.5113  0.2738
  531MOL0     O71551   9.890   9.059   5.596  0.3890 -0.0861 -0.1642
  531MOL0     C71552   9.989   9.011   5.546  0.3881  0.4152  0.8171
  531MOL0     O71553   9.992   8.933   5.431 -0.5356  0.5407 -0.3335
  531MOL0     C71554   9.895   8.951   5.337 -0.2944  0.5029  0.3409
  531MOL0     C71555   9.860   8.825   5.286 -0.1379 -0.1126  0.3653
  531MOL0     C71556   9.757   8.801   5.197 -0.0252  0.1685  0.1427
  531MOL0     C71557   9.687   8.906   5.153  0.0589  1.2521  0.4663
  531MOL0     O71558   9.606   8.882   5.043 -0.5436  0.6613 -0.1513
  531MOL0     C71559   9.600   8.976   4.932 -0.3282 -0.4034  0.4253
  531MOL0     C71560   9.517   8.935   4.811  0.3768  0.7568 -0.0319
  531MOL0     C71561   9.372   8.903   4.855 -0.9245  0.0164  1.1078
  531MOL0     C71562   9.303   8.838   4.732  1.3371  0.0780  0.3815
  531MOL0     C71563   9.161   8.797   4.774 -0.4304 -0.1225 -0.2929
  531MOL0     C71564   9.061   8.761   4.659 -0.8372  0.7387 -0.0607
  531MOL0     C71565   9.054   8.612   4.652  1.4816  0.2447  0.3732
  531MOL0     C71566   8.950   8.541   4.748  0.0477 -0.2221 -0.2781
  531MOL0     N71567   8.821   8.594   4.722 -0.1679  0.2352  0.8282
  531MOL0     C71568   8.755   8.580   4.599 -1.0043 -0.4189 -0.4838
  531MOL0     C71569   8.630   8.616   4.618  0.0345 -0.2229  0.3943
  531MOL0     C71570   8.523   8.613   4.506 -1.1539 -0.7465 -0.2886
  531MOL0     C71571   8.378   8.601   4.574  0.2150 -0.3561 -0.0511
  531MOL0     C71572   8.269   8.546   4.468 -0.2781  0.6245  0.2240
  531MOL0     C71573   8.124   8.577   4.507 -0.1678  0.2471 -0.1066
  531MOL0     O71574   8.040   8.553   4.392 -0.6197 -0.2470  0.0134
  531MOL0     C71575   7.908   8.582   4.400  0.6057  0.1255 -0.1038
  531MOL0     C71576   7.847   8.552   4.280  1.1280  0.0995  0.2270
  531MOL0     C71577   7.706   8.570   4.261 -0.3034  0.3647 -0.8862
  531MOL0     C71578   7.652   8.516   4.128  0.0901 -0.4393  0.8806
  531MOL0     C71579   7.635   8.642   4.369  0.0430  0.4471 -0.3791
  531MOL0     C71580   7.486   8.673   4.365  0.4062  0.2751  0.6413
  531MOL0     O71581   7.439   8.793   4.417  0.1686 -0.6314  0.6383
  531MOL0     C71582   7.297   8.812   4.416 -0.5813 -0.1152 -0.6201
  531MOL0     C71583   7.206   8.733   4.497  0.4902 -1.3158  0.1725
  531MOL0     C71584   7.067   8.772   4.502 -0.7029  0.1808  0.7764
  531MOL0     C71585   7.025   8.889   4.434  0.9094 -0.1074  0.1952
  531MOL0     O71586   6.895   8.926   4.448 -0.1721  0.2142 -0.3023
  531MOL0     C71587   6.837   9.020   4.348 -0.5192  0.3310  0.5512
  531MOL0     C71588   6.690   9.044   4.395  0.0122 -0.1878 -0.0124
  531MOL0     C71589   6.611   9.077   4.271  0.2965 -0.1900  0.3939
  531MOL0     C71590   6.457   9.086   4.309 -0.5308  0.6343  0.0933
  531MOL0     C71591   6.367   9.121   4.189  0.6202 -0.2939 -0.2449
  531MOL0     C71592   6.228   9.154   4.242  0.8724  0.2058 -0.8321
  531MOL0     C71593   6.142   9.176   4.112 -0.1532 -0.3262 -0.6539
  531MOL0     C71594   6.134   9.319   4.055 -0.2886  0.2905 -0.4822
  531MOL0    Cl71595   5.998   9.339   3.952  0.0422 -0.2512 -0.1307
  531MOL0     C71596   7.122   8.971   4.369 -0.3752  0.7216  0.0775
  531MOL0     C71597   7.253   8.928   4.358 -0.2051  0.6574 -0.4038
  531MOL0     O71598   7.422   8.585   4.315 -0.1641 -0.2278  0.4845
  531MOL0     C71599   7.702   8.666   4.494 -0.2065  0.7425 -0.0550
  531MOL0     C71600   7.838   8.628   4.505 -0.3876 -0.2009 -0.2151
  531MOL0     N71601   8.614   8.667   4.745 -0.1797 -0.1147  1.0070
  531MOL0     N71602   8.731   8.658   4.801  0.4898 -0.1714  0.2437
  531MOL0     C71603   9.721   9.033   5.199  0.2190 -0.3365  0.1054
  531MOL0     C71604   9.827   9.062   5.288  0.8582 -0.1884  0.1644
  531MOL0     C71605  10.114   9.023   5.617 -0.3620 -0.4577 -0.3883
  531MOL0     C71606  10.238   8.973   5.579 -0.7545  0.4455 -0.0761
  531MOL0     C71607  10.349   8.975   5.669 -0.2249  0.1329 -0.5181
  531MOL0     C71608  10.343   9.040   5.797 -0.2375  0.0898  0.8683
  531MOL0     O71609  10.450   9.040   5.877  0.1662  0.0351  0.4739
  531MOL0     C71610  10.490   9.168   5.903 -0.7207 -0.2980  0.4487
  531MOL0     C71611  10.645   9.184   5.872  0.0413  0.7011  0.0873
  531MOL0     C71612  10.729   9.153   6.003  0.0959 -0.0400  0.0895
  531MOL0     C71613  10.875   9.119   5.998 -0.8955  0.0738 -0.2073
  531MOL0     C71614  10.934   9.078   6.124  0.3501  0.1738  0.5439
  531MOL0     C71615  10.994   9.038   6.222  0.2869  0.4213 -0.4662
  531MOL0     C71616  10.214   9.097   5.828  0.2397  0.3425  0.3011
  531MOL0     C71617  10.106   9.096   5.740 -0.3716  0.6595  0.3626
  531MOL0     H71618   9.917   8.745   5.333  2.4812  2.7526  2.4208
  531MOL0     H71619   9.738   8.695   5.184  1.1591 -0.0174 -0.1578
  531MOL0     H71620   9.559   9.071   4.967 -2.1262 -0.3726 -1.4924
  531MOL0     H71621   9.704   8.997   4.906 -0.7220  0.5253 -0.4720
  531MOL0     H71622   9.521   9.017   4.739 -0.9300  1.8394  1.0903
  531MOL0     H71623   9.573   8.846   4.780  1.7572  1.3347  0.7195
  531MOL0     H71624   9.384   8.841   4.944  0.8301 -0.4496  0.5924
  531MOL0     H71625   9.319   8.993   4.885  1.4341  1.2504  1.8410
  531MOL0     H71626   9.306   8.901   4.642  0.9888 -2.0057 -1.1724
  531MOL0     H71627   9.356   8.749   4.697  1.3920  0.4827 -0.5963
  531MOL0     H71628   9.170   8.721   4.852  1.8781 -0.3943 -0.7601
  531MOL0     H71629   9.102   8.884   4.805 -1.4595 -1.1601  0.7683
  531MOL0     H71630   8.962   8.799   4.685 -0.4138  1.1240  1.0586
  531MOL0     H71631   9.091   8.799   4.561 -0.2962 -1.1652 -0.6872
  531MOL0     H71632   9.026   8.591   4.549 -0.2242  0.7643  0.6972
  531MOL0     H71633   9.151   8.563   4.662  1.1363 -0.5505 -0.1040
  531MOL0     H71634   8.985   8.557   4.851  3.6303 -3.0652 -0.8767
  531MOL0     H71635   8.957   8.434   4.724  4.6728  0.1965 -1.7330
  531MOL0     H71636   8.794   8.539   4.506  1.4195  0.9997 -0.1814
  531MOL0     H71637   8.546   8.699   4.443  5.6184 -0.6025  1.6595
  531MOL0     H71638   8.536   8.524   4.442 -2.1649 -0.3412 -1.1022
  531MOL0     H71639   8.345   8.701   4.603 -0.5013  0.2736 -2.7371
  531MOL0     H71640   8.384   8.533   4.659  4.1173 -1.9831 -1.3721
  531MOL0     H71641   8.278   8.437   4.462  1.2119  0.7485 -0.0766
  531MOL0     H71642   8.298   8.587   4.371  4.1128  0.7949  1.3982
  531MOL0     H71643   8.131   8.678   4.549 -0.8054  0.0500  0.5086
  531MOL0     H71644   8.085   8.510   4.585 -0.6924 -1.6926 -1.9548
  531MOL0     H71645   7.906   8.498   4.207 -0.6659 -1.9430  0.1841
  531MOL0     H71646   7.556   8.558   4.094 -1.2537 -2.9276  1.3956
  531MOL0     H71647   7.727   8.531   4.051 -0.4879  3.2179  0.8467
  531MOL0     H71648   7.632   8.410   4.147 -0.9415 -0.6218 -1.0294
  531MOL0     H71649   7.246   8.642   4.538 -1.2290 -1.9722  0.4510
  531MOL0     H71650   6.998   8.709   4.558 -1.2936 -0.3289 -0.4727
  531MOL0     H71651   6.892   9.115   4.350  0.7941 -0.3455 -1.4585
  531MOL0     H71652   6.845   8.972   4.251  0.8037  0.4391  0.5947
  531MOL0     H71653   6.647   8.947   4.421  0.2075 -0.8966 -2.1782
  531MOL0     H71654   6.678   9.112   4.480  0.1393  0.8332 -0.7959
  531MOL0     H71655   6.628   8.997   4.198 -0.6547  0.6442 -0.7863
  531MOL0     H71656   6.646   9.174   4.233  1.4565  0.1883  2.2775
  531MOL0     H71657   6.427   8.995   4.362  3.1430 -1.1525 -0.5362
  531MOL0     H71658   6.460   9.171   4.377  1.4933  0.7986 -0.1244
  531MOL0     H71659   6.367   9.039   4.116 -1.3700  0.3782 -1.0635
  531MOL0     H71660   6.409   9.208   4.137  0.7776  0.3715  0.9620
  531MOL0     H71661   6.187   9.069   4.297 -1.4729  2.2444  0.8039
  531MOL0     H71662   6.221   9.234   4.317 -0.3931 -0.9229  0.3093
  531MOL0     H71663   6.037   9.154   4.134 -0.0639 -0.4834 -0.3782
  531MOL0     H71664   6.165   9.093   4.044  2.3210 -0.8892  0.7583
  531MOL0     H71665   6.224   9.353   4.002 -1.1903  0.6735 -1.8275
  531MOL0     H71666   6.120   9.379   4.145 -1.5408 -0.8141  0.0842
  531MOL0     H71667   7.102   9.065   4.318 -2.6408 -0.8819 -2.1735
  531MOL0     H71668   7.324   8.991   4.304 -2.6583  1.3971 -3.0603
  531MOL0     H71669   7.647   8.705   4.579 -0.1101  0.2136  0.2548
  531MOL0     H71670   7.899   8.634   4.594  1.2200 -1.9970 -1.1117
  531MOL0     H71671   9.672   9.117   5.152  2.3202  0.6784 -0.3541
  531MOL0     H71672   9.849   9.164   5.320  0.3127 -0.4156  1.3194
  531MOL0     H71673  10.253   8.919   5.486  3.8560  2.2728 -0.6791
  531MOL0     H71674  10.443   8.929   5.640  1.0882  2.0575  0.4611
  531MOL0     H71675  10.439   9.248   5.850  1.1403  0.4229 -0.3376
  531MOL0     H71676  10.482   9.195   6.009  0.3662  2.5624 -0.1251
  531MOL0     H71677  10.669   9.284   5.834 -1.5599  0.5995 -1.3083
  531MOL0     H71678  10.667   9.115   5.790  0.2035  1.2961 -0.3758
  531MOL0     H71679  10.689   9.060   6.044  0.3294 -0.6831 -1.1183
  531MOL0     H71680  10.714   9.236   6.074 -2.3387  0.0918 -0.5021
  531MOL0     H71681  10.929   9.213   5.985  0.1012 -0.5844 -0.9546
  531MOL0     H71682  10.895   9.058   5.909 -0.3914 -2.3370  1.4779
  531MOL0     H71683  11.031   8.997   6.314 -2.0356  1.4244  1.0085
  531MOL0     H71684  10.204   9.139   5.927  0.0501  3.3330 -0.8674
  531MOL0     H71685  10.016   9.142   5.778  1.9289  4.0192  2.2737
  532MOL0     O71686   5.235   0.195   1.526 -0.1582  0.3462  0.0706
  532MOL0     C71687   5.327   0.128   1.569  0.0697  0.2640  1.0011
  532MOL0     O71688   5.318   0.037   1.667  0.2342  0.0315  0.1844
  532MOL0     C71689   5.188   0.017   1.723 -0.2448 -0.2222 -0.2922
  532MOL0     C71690   5.075  -0.014   1.648  1.4311 -0.6979 -0.0963
  532MOL0     C71691   4.960  -0.064   1.703  0.1416 -0.1456 -0.3193
  532MOL0     C71692   4.952  -0.093   1.836  0.5623 -0.1784  0.8373
  532MOL0     O71693   4.834  -0.150   1.871  0.2428 -0.3650 -0.6646
  532MOL0     C71694   4.802  -0.178   2.010  0.8132  0.1551  0.0580
  532MOL0     C71695   4.657  -0.222   2.009 -0.0552 -0.2924  0.4745
  532MOL0     C71696   4.602  -0.226   2.149  0.4311 -0.2519  0.4873
  532MOL0     C71697   4.456  -0.287   2.159 -0.3972 -0.4822 -0.1467
  532MOL0     C71698   4.405  -0.316   2.300  0.2240 -0.2188  0.1362
  532MOL0     C71699   4.289  -0.416   2.302 -1.1156 -0.5326 -0.1315
  532MOL0     C71700   4.180  -0.377   2.212  1.0367 -0.6698  0.4585
  532MOL0     C71701   4.052  -0.442   2.256  1.2734  0.6110 -0.1056
  532MOL0     N71702   3.936  -0.370   2.195 -0.5806  0.5625  0.3537
  532MOL0     C71703   3.867  -0.269   2.248  0.1013 -0.1564 -0.2671
  532MOL0     C71704   3.757  -0.267   2.174 -0.1567 -0.0943 -0.3306
  532MOL0     C71705   3.637  -0.168   2.192  0.1567  0.5073 -0.2170
  532MOL0     C71706   3.676  -0.038   2.256 -1.1075  1.0201  0.5012
  532MOL0     C71707   3.577   0.074   2.225  1.4594 -0.5865 -0.8026
  532MOL0     C71708   3.439   0.046   2.288 -0.1803  0.5722 -0.1509
  532MOL0     O71709   3.356  -0.018   2.185  0.3598  0.2515 -0.5543
  532MOL0     C71710   3.221  -0.029   2.222 -0.2348 -0.5787 -0.0035
  532MOL0     C71711   3.141  -0.089   2.124 -0.3287 -0.6733  0.2770
  532MOL0     C71712   3.006  -0.118   2.144 -0.2395  0.5241 -0.2900
  532MOL0     C71713   2.921  -0.174   2.031 -0.8083 -0.4140  0.1849
  532MOL0     C71714   2.940  -0.072   2.262  0.0114  1.2087  0.6993
  532MOL0     C71715   2.790  -0.070   2.278  0.6843 -0.0542  1.1025
  532MOL0     O71716   2.703  -0.152   2.218  0.8739  0.6973  0.5224
  532MOL0     C71717   2.573  -0.123   2.229 -0.7229  0.3491 -1.2154
  532MOL0     C71718   2.506  -0.144   2.348 -0.6287 -1.1721  0.0148
  532MOL0     C71719   2.371  -0.110   2.367  0.6741  0.2402 -0.2498
  532MOL0     C71720   2.294  -0.065   2.259  0.7029  0.1670 -0.3793
  532MOL0     O71721   2.163  -0.029   2.286 -0.7150  0.4097  0.4242
  532MOL0     C71722   2.079   0.001   2.173  0.2995 -0.5643 -0.1541
  532MOL0     C71723   2.092   0.153   2.160 -0.1965  0.5839  0.2718
  532MOL0     C71724   1.998   0.217   2.057  0.1308  0.2108 -0.0253
  532MOL0     C71725   1.996   0.140   1.917 -0.0266 -0.5154 -1.0645
  532MOL0     C71726   1.950   0.230   1.811  0.0760 -0.3842  0.2179
  532MOL0     C71727   1.796   0.236   1.821 -0.4803  0.0081  0.5791
  532MOL0     C71728   1.740   0.329   1.712  0.0305 -0.7597 -0.3207
  532MOL0     C71729   1.737   0.276   1.569  0.4990  0.0687  0.7532
  532MOL0    Cl71730   1.672   0.112   1.565 -0.4107 -0.2335 -0.3593
  532MOL0     C71731   2.363  -0.045   2.137  0.2874 -0.2620  0.6878
  532MOL0     C71732   2.497  -0.081   2.124 -1.1841  0.0626  0.5105
  532MOL0     O71733   2.748   0.021   2.351 -0.0652 -0.2720 -0.1734
  532MOL0     C71734   3.018  -0.000   2.351  0.3045 -0.0267 -0.0676
  532MOL0     C71735   3.154   0.025   2.334  0.7570  0.1359  1.0828
  532MOL0     N71736   3.756  -0.366   2.078 -0.3661  0.8474 -0.0561
  532MOL0     N71737   3.867  -0.423   2.091 -0.1881 -0.1455 -0.2835
  532MOL0     C71738   5.060  -0.057   1.916 -0.5904 -0.4638 -0.4256
  532MOL0     C71739   5.185  -0.002   1.856  0.0697  0.2801  0.2423
  532MOL0     C71740   5.463   0.155   1.515 -0.1051  0.2899  0.4248
  532MOL0     C71741   5.571   0.099   1.575 -0.3401 -0.5450  0.2246
  532MOL0     C71742   5.703   0.125   1.532  0.7308 -0.5610  0.0799
  532MOL0     C71743   5.727   0.211   1.421  0.8413 -0.6456 -0.2735
  532MOL0     O71744   5.851   0.226   1.360 -0.0071 -0.4019  0.1592
  532MOL0     C71745   5.964   0.163   1.413  0.4652  0.0958  0.5778
  532MOL0     C71746   6.089   0.215   1.338  0.1615  0.1058 -1.0289
  532MOL0     C71747   6.209   0.149   1.396  0.5894  0.7471  0.4755
  532MOL0     C71748   6.339   0.164   1.308  0.9321  0.2856 -0.2437
  532MOL0     C71749   6.444   0.099   1.378 -0.1654  0.2655 -0.2130
  532MOL0     C71750   6.527   0.049   1.446 -0.6992  0.3391  1.4276
  532MOL0     C71751   5.607   0.255   1.353 -0.2051  0.3737  0.0686
  532MOL0     C71752   5.481   0.233   1.396  0.1498 -0.6011 -0.4754
  532MOL0     H71753   5.067   0.003   1.541  2.8444 -1.4232 -0.3497
  532MOL0     H71754   4.865  -0.058   1.652  0.0260 -1.5503 -0.3213
  532MOL0     H71755   4.865  -0.251   2.060  0.1848 -0.7243 -0.3955
  532MOL0     H71756   4.800  -0.086   2.069  2.7722  0.0840  0.2977
  532MOL0     H71757   4.595  -0.164   1.939 -0.6399 -1.5318 -0.0731
  532MOL0     H71758   4.650  -0.323   1.967 -1.5429  0.2860 -0.8197
  532MOL0     H71759   4.671  -0.286   2.209 -1.7348 -1.8209  1.5587
  532MOL0     H71760   4.598  -0.122   2.184 -0.9130 -0.3181  0.5845
  532MOL0     H71761   4.376  -0.226   2.116 -0.3672 -1.1506 -1.2078
  532MOL0     H71762   4.445  -0.379   2.100 -1.4285 -0.6714  0.3162
  532MOL0     H71763   4.483  -0.363   2.360 -0.7508 -0.2262  1.4497
  532MOL0     H71764   4.379  -0.215   2.334 -0.2192 -1.2048  3.0099
  532MOL0     H71765   4.325  -0.515   2.271  0.7038 -0.9974  3.0232
  532MOL0     H71766   4.262  -0.439   2.405 -0.1445 -0.8857  0.0579
  532MOL0     H71767   4.162  -0.269   2.221 -1.2536 -1.1689  3.4329
  532MOL0     H71768   4.204  -0.408   2.110  2.6055  0.0737  0.5773
  532MOL0     H71769   4.048  -0.431   2.365 -1.4803  1.7409 -0.2524
  532MOL0     H71770   4.057  -0.549   2.236  1.2823  0.6897 -0.5350
  532MOL0     H71771   3.885  -0.197   2.327 -0.9856  0.3296 -0.4470
  532MOL0     H71772   3.601  -0.140   2.092  0.0755 -4.3865 -1.8038
  532MOL0     H71773   3.567  -0.218   2.259  1.2490  1.2867  1.5909
  532MOL0     H71774   3.775  -0.009   2.218 -2.1270  0.8868 -2.5163
  532MOL0     H71775   3.685  -0.056   2.364 -3.0682 -1.4437  0.3315
  532MOL0     H71776   3.567   0.099   2.119 -0.7136 -0.4043 -0.5856
  532MOL0     H71777   3.607   0.166   2.276 -3.1904 -0.1261  1.5475
  532MOL0     H71778   3.396   0.142   2.319 -0.0267  0.8741 -0.8392
  532MOL0     H71779   3.449  -0.021   2.374  0.9339  1.5523  0.5125
  532MOL0     H71780   3.196  -0.127   2.038 -0.7824  0.8092 -0.7253
  532MOL0     H71781   2.847  -0.245   2.068 -0.6902  1.2776  4.2700
  532MOL0     H71782   2.885  -0.083   1.983 -0.9789  0.0883  1.2277
  532MOL0     H71783   2.983  -0.228   1.960  0.9475  0.6381  0.8444
  532MOL0     H71784   2.558  -0.190   2.432  3.2064 -0.5267 -1.8265
  532MOL0     H71785   2.321  -0.126   2.462  2.1265  0.0396  0.5093
  532MOL0     H71786   2.118  -0.052   2.085  2.6684  1.5947 -0.5262
  532MOL0     H71787   1.974  -0.028   2.185 -0.1571  1.1518  0.1736
  532MOL0     H71788   2.067   0.196   2.257  1.3312  1.2205  0.4013
  532MOL0     H71789   2.190   0.194   2.133  0.3571 -1.4963 -1.1188
  532MOL0     H71790   2.045   0.314   2.037  1.8305 -0.4724  0.5275
  532MOL0     H71791   1.895   0.237   2.088 -0.3517 -2.9569  0.6808
  532MOL0     H71792   2.099   0.106   1.906  0.8463  1.4440  0.5011
  532MOL0     H71793   1.928   0.055   1.932 -0.1464 -0.0188  1.7867
  532MOL0     H71794   1.978   0.184   1.717 -3.3017 -1.4794 -0.3946
  532MOL0     H71795   1.992   0.331   1.803 -0.1954 -0.0730  2.1293
  532MOL0     H71796   1.752   0.137   1.803  0.8148 -0.8010  1.7676
  532MOL0     H71797   1.772   0.274   1.920 -2.9102  1.0812 -0.3170
  532MOL0     H71798   1.801   0.419   1.720  0.5283 -1.2096  1.1879
  532MOL0     H71799   1.636   0.354   1.733  0.1217 -0.1549 -0.5744
  532MOL0     H71800   1.841   0.284   1.535  0.7930  0.0115  1.6209
  532MOL0     H71801   1.678   0.349   1.512  0.0112 -0.7177  0.2359
  532MOL0     H71802   2.309  -0.004   2.052  0.8538 -0.1928  0.3545
  532MOL0     H71803   2.535  -0.086   2.023 -1.4733 -1.1379  0.4415
  532MOL0     H71804   2.973   0.030   2.446  0.2799 -0.4000  0.0399
  532MOL0     H71805   3.214   0.084   2.402  0.6912  1.5630 -0.0597
  532MOL0     H71806   5.056  -0.101   2.016 -1.9264  0.2103 -0.1594
  532MOL0     H71807   5.268   0.010   1.925  0.6828 -0.4601 -0.3615
  532MOL0     H71808   5.560   0.026   1.654 -0.1110  0.6515  1.3867
  532MOL0     H71809   5.776   0.084   1.602  1.0263  1.5566  1.1233
  532MOL0     H71810   5.958   0.175   1.522 -0.7117 -1.0756  0.6659
  532MOL0     H71811   5.956   0.056   1.393 -0.0011  0.5873 -2.1731
  532MOL0     H71812   6.097   0.324   1.350 -0.9234 -0.0341  1.8014
  532MOL0     H71813   6.091   0.191   1.231 -0.7406 -2.5895 -0.5185
  532MOL0     H71814   6.181   0.044   1.408  2.7856  0.1557  0.8564
  532MOL0     H71815   6.226   0.194   1.494 -0.1025  0.3922  0.7652
  532MOL0     H71816   6.371   0.269   1.305  0.3217  0.5219 -4.6841
  532MOL0     H71817   6.326   0.117   1.211 -2.1094 -0.8744  0.5948
  532MOL0     H71818   6.599   0.017   1.519  0.0680 -0.7348  0.2567
  532MOL0     H71819   5.624   0.306   1.259 -0.2506 -1.0871 -0.7679
  532MOL0     H71820   5.394   0.264   1.338 -0.1696 -1.4343 -0.4567
  533MOL0     O71821   1.701   0.534   3.066 -0.0806  0.0793 -0.6531
  533MOL0     C71822   1.646   0.533   2.958 -0.8247 -0.6593  0.3574
  533MOL0     O71823   1.679   0.621   2.858 -0.2710  0.5419 -1.0104
  533MOL0     C71824   1.781   0.713   2.882  1.3486  0.4122 -0.2512
  533MOL0     C71825   1.769   0.827   2.967  0.3500  0.5435  0.1770
  533MOL0     C71826   1.878   0.915   2.982 -0.6344 -0.0190  0.1503
  533MOL0     C71827   2.000   0.898   2.908  0.3593  0.9407 -0.9261
  533MOL0     O71828   2.096   0.990   2.914  0.7874 -0.5527 -0.2955
  533MOL0     C71829   2.143   1.027   2.784 -0.7113  0.2664  0.4569
  533MOL0     C71830   2.027   1.080   2.686  0.1729  0.1959 -0.0896
  533MOL0     C71831   2.101   1.155   2.573 -0.8617  0.1316 -0.0178
  533MOL0     C71832   2.009   1.202   2.465  0.6618 -0.5655 -0.6505
  533MOL0     C71833   1.951   1.329   2.513 -1.0078 -0.7219  0.1714
  533MOL0     C71834   1.825   1.369   2.451 -0.1693 -0.2481 -0.2418
  533MOL0     C71835   1.700   1.299   2.506 -0.3560  0.6203 -0.6899
  533MOL0     C71836   1.576   1.372   2.457  0.0531 -0.0108 -0.3410
  533MOL0     N71837   1.453   1.318   2.514 -0.2844  0.6819  0.7730
  533MOL0     C71838   1.413   1.328   2.645  0.2299  0.4530 -0.1548
  533MOL0     C71839   1.290   1.277   2.647 -0.8263 -0.1421  0.0031
  533MOL0     C71840   1.188   1.273   2.755 -0.1790 -0.4879  0.9877
  533MOL0     C71841   1.210   1.355   2.883  0.0164  0.2643 -0.3143
  533MOL0     C71842   1.096   1.353   2.979 -0.6017  0.0445 -0.3765
  533MOL0     C71843   1.059   1.214   3.020  0.2412  0.0445  0.0061
  533MOL0     O71844   0.956   1.217   3.121  0.6421  0.3536  0.3734
  533MOL0     C71845   0.825   1.230   3.079  1.1634  0.0014 -1.1358
  533MOL0     C71846   0.733   1.260   3.180 -0.4684 -0.7127  0.4605
  533MOL0     C71847   0.596   1.272   3.157 -0.1320 -0.4235 -0.8250
  533MOL0     C71848   0.505   1.303   3.270 -0.3096  0.5223  0.6000
  533MOL0     C71849   0.551   1.269   3.022 -0.0293  0.5725 -0.1053
  533MOL0     C71850   0.401   1.267   2.989 -0.3333  0.5950  0.2542
  533MOL0     O71851   0.325   1.196   3.079 -0.0928  0.4100  0.6823
  533MOL0     C71852   0.199   1.161   3.036 -0.3760 -0.2850 -0.4479
  533MOL0     C71853   0.101   1.160   3.129  0.7772 -1.3983  0.0070
  533MOL0     C71854  -0.025   1.105   3.097  0.5604  0.3822 -1.2786
  533MOL0     C71855  -0.058   1.054   2.965 -0.2245 -0.2394 -0.7647
  533MOL0     O71856  -0.188   1.011   2.935  0.1776 -0.6181 -0.3237
  533MOL0     C71857  -0.202   0.953   2.806  0.2474  0.0617  0.3740
  533MOL0     C71858  -0.353   0.942   2.762 -0.6999 -0.7893  0.5160
  533MOL0     C71859  -0.426   0.839   2.846 -0.6068 -0.6558  0.6508
  533MOL0     C71860  -0.574   0.851   2.863 -0.0120 -0.0269 -0.0783
  533MOL0     C71861  -0.611   0.951   2.974  0.0911  0.2437 -1.1243
  533MOL0     C71862  -0.764   0.937   3.012 -0.1287  0.8709 -0.2086
  533MOL0     C71863  -0.812   1.061   3.083 -0.2943  0.1411  0.3099
  533MOL0     C71864  -0.958   1.051   3.130 -0.0430 -0.4533 -0.6478
  533MOL0    Cl71865  -1.068   1.011   2.997 -0.3147 -0.2557  0.0265
  533MOL0     C71866   0.050   1.060   2.869  0.1971 -1.0786 -0.2016
  533MOL0     C71867   0.178   1.103   2.907  0.5526 -0.9132 -0.2020
  533MOL0     O71868   0.367   1.311   2.879 -0.0051 -0.5893 -0.3894
  533MOL0     C71869   0.644   1.240   2.917 -0.3472  0.2119  0.2919
  533MOL0     C71870   0.778   1.212   2.946  0.9366 -0.2635 -0.5231
  533MOL0     N71871   1.259   1.226   2.520 -0.8606 -0.1736  0.8578
  533MOL0     N71872   1.359   1.250   2.443  0.5527  0.0533 -0.4309
  533MOL0     C71873   2.012   0.777   2.828  0.3587  0.1746  0.4352
  533MOL0     C71874   1.899   0.690   2.819 -0.2475 -0.5443 -1.0807
  533MOL0     C71875   1.550   0.425   2.939 -0.3252  0.9265  0.3859
  533MOL0     C71876   1.510   0.398   2.807  0.7938  0.1904  0.2353
  533MOL0     C71877   1.430   0.285   2.783 -0.1129 -0.7720 -0.2745
  533MOL0     C71878   1.387   0.199   2.882  0.7096 -0.0817  0.0011
  533MOL0     O71879   1.305   0.097   2.835 -0.0854  0.7584  0.4643
  533MOL0     C71880   1.251  -0.003   2.927 -0.8141  0.4269 -0.6069
  533MOL0     C71881   1.357  -0.106   2.976  0.5563  0.0065 -0.3646
  533MOL0     C71882   1.406  -0.205   2.869  0.5961  0.9859 -0.0840
  533MOL0     C71883   1.556  -0.246   2.878 -0.1996  0.5923 -0.2118
  533MOL0     C71884   1.653  -0.135   2.897 -0.4725 -0.4400  0.3677
  533MOL0     C71885   1.725  -0.040   2.892 -0.6749  0.2170  0.6167
  533MOL0     C71886   1.430   0.227   3.014  0.9897 -1.0799 -0.0712
  533MOL0     C71887   1.506   0.346   3.046  0.5592  0.3167 -0.3119
  533MOL0     H71888   1.672   0.838   3.014  0.8546  4.1252  0.6790
  533MOL0     H71889   1.868   1.005   3.041 -0.5021  2.3079 -3.1372
  533MOL0     H71890   2.222   1.097   2.813 -0.6814 -0.6580  2.8092
  533MOL0     H71891   2.186   0.938   2.736 -0.4940  2.0249 -2.8920
  533MOL0     H71892   1.961   1.004   2.644  0.6509 -2.1590  3.0460
  533MOL0     H71893   1.961   1.141   2.749 -1.0853 -1.6670  0.4991
  533MOL0     H71894   2.166   1.233   2.614  3.1342 -0.8640 -3.6774
  533MOL0     H71895   2.168   1.083   2.524  1.8396  0.3983  2.9938
  533MOL0     H71896   2.079   1.217   2.382  0.2428  0.8675 -0.7668
  533MOL0     H71897   1.930   1.133   2.431 -0.2083  0.8360 -1.6220
  533MOL0     H71898   1.958   1.334   2.622  1.0926 -3.7597  0.2862
  533MOL0     H71899   2.019   1.403   2.469 -1.7501 -1.2183 -1.9200
  533MOL0     H71900   1.812   1.473   2.481 -0.3558  0.2570 -1.9582
  533MOL0     H71901   1.828   1.357   2.342  1.5026 -1.9850 -0.0498
  533MOL0     H71902   1.690   1.194   2.477  0.2420 -0.1721  1.7927
  533MOL0     H71903   1.709   1.286   2.614  0.7609 -5.3438 -1.1616
  533MOL0     H71904   1.571   1.365   2.348  1.0576 -0.9887 -0.3395
  533MOL0     H71905   1.577   1.480   2.473 -2.9290  0.4125 -2.2128
  533MOL0     H71906   1.458   1.383   2.728 -1.5553  1.7356  0.0122
  533MOL0     H71907   1.093   1.310   2.716  0.1927  2.5650  2.6670
  533MOL0     H71908   1.187   1.165   2.773 -2.7557 -0.5622  0.7433
  533MOL0     H71909   1.229   1.454   2.841  1.0972 -0.3829 -1.4040
  533MOL0     H71910   1.305   1.317   2.923  1.1535  1.2926 -1.8793
  533MOL0     H71911   1.014   1.406   2.929 -0.5667 -0.3794 -0.8995
  533MOL0     H71912   1.118   1.413   3.067 -2.7647  0.6505 -0.1844
  533MOL0     H71913   1.149   1.170   3.065  2.5347  2.7483 -1.6147
  533MOL0     H71914   1.034   1.165   2.926  0.2177  0.4230 -0.1849
  533MOL0     H71915   0.780   1.261   3.277  2.1899  0.0061 -0.7497
  533MOL0     H71916   0.411   1.353   3.247 -0.4161  0.4714  0.9252
  533MOL0     H71917   0.479   1.205   3.312 -0.9899 -0.5240 -2.0347
  533MOL0     H71918   0.554   1.369   3.341 -0.2052 -0.2834  1.2931
  533MOL0     H71919   0.131   1.209   3.220  1.1708 -0.8348 -0.4190
  533MOL0     H71920  -0.108   1.092   3.167  0.7352 -0.6066 -1.2486
  533MOL0     H71921  -0.157   1.024   2.736  0.4611 -0.5822 -0.1460
  533MOL0     H71922  -0.150   0.857   2.801  0.6747  0.2132  1.5636
  533MOL0     H71923  -0.410   1.035   2.763  0.0525 -0.3231  1.1533
  533MOL0     H71924  -0.347   0.906   2.659 -3.5014 -0.8080  0.2974
  533MOL0     H71925  -0.379   0.835   2.945  2.2426 -4.5404 -0.6344
  533MOL0     H71926  -0.403   0.741   2.803  0.7879  0.2244 -0.7312
  533MOL0     H71927  -0.624   0.871   2.768  1.3516  0.9129 -0.6206
  533MOL0     H71928  -0.610   0.750   2.885  1.3186 -0.6403 -0.6292
  533MOL0     H71929  -0.591   1.050   2.930 -1.6411  1.2388  0.1980
  533MOL0     H71930  -0.557   0.939   3.068  0.2897  1.1397 -1.1070
  533MOL0     H71931  -0.827   0.920   2.924  0.0841 -2.0114  0.0965
  533MOL0     H71932  -0.779   0.851   3.077  0.1572  1.2917  0.4164
  533MOL0     H71933  -0.802   1.145   3.014  0.4774 -0.5925 -0.5024
  533MOL0     H71934  -0.762   1.085   3.177  0.4990 -2.4605  0.6414
  533MOL0     H71935  -1.000   1.146   3.162 -0.8144 -0.2209 -2.2362
  533MOL0     H71936  -0.964   0.971   3.204  2.0037 -0.7655 -0.7594
  533MOL0     H71937   0.041   1.025   2.767 -2.6671  0.8966 -0.7454
  533MOL0     H71938   0.270   1.090   2.851  0.7096  1.2427 -0.5099
  533MOL0     H71939   0.598   1.240   2.819 -2.7231 -3.0069  1.2088
  533MOL0     H71940   0.847   1.181   2.868  1.0561 -3.6670  0.7597
  533MOL0     H71941   2.108   0.761   2.781  0.5495 -2.1922  1.5139
  533MOL0     H71942   1.910   0.616   2.741  1.5378 -0.8054 -0.6227
  533MOL0     H71943   1.556   0.451   2.725 -0.0901 -2.7366 -2.3598
  533MOL0     H71944   1.400   0.260   2.682 -0.4960 -0.3672 -0.2623
  533MOL0     H71945   1.215   0.055   3.013  1.0578 -0.4245  0.8434
  533MOL0     H71946   1.171  -0.055   2.873 -0.8535 -0.6796  0.4538
  533MOL0     H71947   1.301  -0.170   3.044 -0.4105 -1.0992 -2.1425
  533MOL0     H71948   1.440  -0.060   3.030  1.5806 -2.3727  0.2116
  533MOL0     H71949   1.393  -0.147   2.777  0.0246  1.7169  0.4469
  533MOL0     H71950   1.335  -0.288   2.871 -0.0201  1.4891 -0.4982
  533MOL0     H71951   1.591  -0.310   2.796  0.5720 -0.4267  0.8684
  533MOL0     H71952   1.570  -0.319   2.959 -0.4312  1.7568  0.9121
  533MOL0     H71953   1.775   0.055   2.889  0.6157 -0.2995  3.3038
  533MOL0     H71954   1.402   0.155   3.090 -0.0496 -3.3409 -2.4244
  533MOL0     H71955   1.537   0.365   3.149  0.7459 -1.9867  0.1003
  534MOL0     O71956   7.855   4.202   6.661  0.1300 -0.3096 -0.2193
  534MOL0     C71957   7.939   4.118   6.627 -0.6573 -0.7159  0.4152
  534MOL0     O71958   8.070   4.145   6.614 -0.4285  0.1458  0.4333
  534MOL0     C71959   8.128   4.264   6.595  0.0776 -0.0108 -0.5992
  534MOL0     C71960   8.109   4.354   6.698  0.0753 -0.1267  0.4540
  534MOL0     C71961   8.178   4.480   6.683 -0.3088 -0.1288 -0.4538
  534MOL0     C71962   8.268   4.496   6.577 -0.1346 -1.0175  0.3794
  534MOL0     O71963   8.353   4.608   6.587 -0.0121 -0.5146  0.2551
  534MOL0     C71964   8.461   4.619   6.491  0.3929  0.4804  0.3580
  534MOL0     C71965   8.569   4.709   6.549 -0.7042 -0.2774 -0.7359
  534MOL0     C71966   8.702   4.709   6.486  0.7847 -0.5163  1.3303
  534MOL0     C71967   8.813   4.773   6.573 -0.5928  0.0217 -0.5690
  534MOL0     C71968   8.942   4.788   6.495  0.0797 -0.2125  0.6976
  534MOL0     C71969   9.065   4.862   6.548  0.3197 -0.6264 -0.1818
  534MOL0     C71970   9.049   4.995   6.622  0.0486 -0.5179 -0.4402
  534MOL0     C71971   9.118   5.000   6.755  0.0719 -0.0552 -0.0376
  534MOL0     N71972   9.264   5.004   6.747 -0.0201  0.1684  0.1325
  534MOL0     C71973   9.325   5.099   6.671  0.3380 -0.0138 -0.5180
  534MOL0     C71974   9.456   5.057   6.677  0.2425 -0.3799 -0.0669
  534MOL0     C71975   9.572   5.117   6.602 -0.1768 -0.0506 -0.3508
  534MOL0     C71976   9.542   5.136   6.451  0.0026  0.0282  0.0429
  534MOL0     C71977   9.491   5.017   6.371  1.1551  0.2606 -0.2790
  534MOL0     C71978   9.470   5.048   6.231  0.0300 -0.7068 -0.7160
  534MOL0     O71979   9.348   5.133   6.220  0.3662 -0.4078 -0.7386
  534MOL0     C71980   9.282   5.133   6.104  0.9231  1.1384  0.2112
  534MOL0     C71981   9.138   5.154   6.103 -0.5792  0.4659  0.0133
  534MOL0     C71982   9.063   5.150   5.987  0.0791  0.2197 -0.1687
  534MOL0     C71983   8.917   5.182   6.007 -0.0921 -0.3003  0.1989
  534MOL0     C71984   9.122   5.133   5.861  0.0352  0.4653  0.9074
  534MOL0     C71985   9.049   5.130   5.727 -0.6251  0.2067  0.2481
  534MOL0     O71986   8.916   5.103   5.729  0.5209  0.1190  0.1260
  534MOL0     C71987   8.830   5.096   5.622  0.8958  1.1377 -0.0778
  534MOL0     C71988   8.845   5.160   5.499 -0.8826  0.1501 -0.2089
  534MOL0     C71989   8.750   5.156   5.401 -0.1944  0.3946 -0.9682
  534MOL0     C71990   8.638   5.071   5.416 -0.6153 -0.0657  0.6379
  534MOL0     O71991   8.540   5.062   5.321 -0.1850  0.3660 -0.5196
  534MOL0     C71992   8.575   5.078   5.186  0.3651 -0.1345  0.3941
  534MOL0     C71993   8.471   5.022   5.098  0.0252  0.2994 -0.5817
  534MOL0     C71994   8.491   5.052   4.946 -0.1802  0.3887 -0.4444
  534MOL0     C71995   8.369   5.004   4.866  1.4044 -0.1379  0.4460
  534MOL0     C71996   8.275   5.126   4.840  0.6972 -0.5994 -0.5578
  534MOL0     C71997   8.136   5.084   4.783  0.0890  0.1821  0.5472
  534MOL0     C71998   8.059   5.207   4.724  0.2099 -0.4021 -0.3004
  534MOL0     C71999   7.913   5.181   4.703 -0.9401  0.1028 -0.4784
  534MOL0    Cl72000   7.895   5.066   4.563 -0.2125 -0.6449 -0.4148
  534MOL0     C72001   8.623   4.996   5.536 -0.0538 -0.8865  0.3039
  534MOL0     C72002   8.716   5.008   5.640 -0.2336 -0.5795 -0.1756
  534MOL0     O72003   9.114   5.160   5.630 -0.7159 -0.4610  0.0260
  534MOL0     C72004   9.261   5.123   5.860  0.0968  0.2067 -0.8133
  534MOL0     C72005   9.339   5.115   5.978  0.8702  0.5187  0.8372
  534MOL0     N72006   9.471   4.945   6.760 -0.2407  0.1857  0.0423
  534MOL0     N72007   9.347   4.909   6.793  0.3371  0.0664  0.1038
  534MOL0     C72008   8.268   4.402   6.472  0.1696  0.3528 -0.0009
  534MOL0     C72009   8.202   4.282   6.480 -0.8384 -0.1781 -0.6527
  534MOL0     C72010   7.892   3.979   6.603 -0.5881 -1.1186 -0.4213
  534MOL0     C72011   7.754   3.949   6.625 -0.5233 -0.1570  0.3043
  534MOL0     C72012   7.707   3.817   6.626 -0.4158  0.7488 -0.3577
  534MOL0     C72013   7.800   3.717   6.593  0.4272 -0.3038 -0.4406
  534MOL0     O72014   7.743   3.596   6.570 -0.8952  0.2320  0.3589
  534MOL0     C72015   7.821   3.486   6.523  0.5620  0.0594 -0.0950
  534MOL0     C72016   7.730   3.367   6.475  0.7341 -0.9436 -0.6560
  534MOL0     C72017   7.617   3.402   6.383  0.7059  0.4578  0.3483
  534MOL0     C72018   7.563   3.272   6.316  0.5006  0.5626  0.0803
  534MOL0     C72019   7.530   3.167   6.419  1.0952 -0.3736 -0.1726
  534MOL0     C72020   7.504   3.084   6.498 -0.3868 -0.1948 -0.2311
  534MOL0     C72021   7.937   3.745   6.583  0.4771  0.3562  0.2831
  534MOL0     C72022   7.983   3.878   6.579  0.5998  0.1431 -0.0410
  534MOL0     H72023   8.066   4.324   6.793  0.4004  0.5454  0.8148
  534MOL0     H72024   8.165   4.551   6.764 -1.2414 -0.7200 -0.0689
  534MOL0     H72025   8.503   4.518   6.485 -0.1929  0.2542  0.0497
  534MOL0     H72026   8.430   4.651   6.392 -1.4302 -1.8524  0.0898
  534MOL0     H72027   8.539   4.814   6.551  0.7823  0.2301  2.8915
  534MOL0     H72028   8.585   4.677   6.652 -1.6121 -1.3911 -0.9112
  534MOL0     H72029   8.730   4.604   6.473 -1.3396 -1.3479  2.8872
  534MOL0     H72030   8.689   4.763   6.392  0.2340 -0.0675  1.6591
  534MOL0     H72031   8.768   4.867   6.605  0.7105  0.2952  0.5663
  534MOL0     H72032   8.834   4.715   6.664  1.4859 -1.3672 -1.8489
  534MOL0     H72033   8.960   4.687   6.456 -0.0161 -0.0668  0.2668
  534MOL0     H72034   8.912   4.835   6.400 -2.2343 -3.5821 -0.4614
  534MOL0     H72035   9.127   4.799   6.613  2.6070 -0.0130 -1.6126
  534MOL0     H72036   9.142   4.885   6.473  0.5519  0.7402  0.4513
  534MOL0     H72037   9.068   5.082   6.557  3.7292  0.9473  2.2458
  534MOL0     H72038   8.943   5.010   6.645  0.4581  2.3512 -0.0253
  534MOL0     H72039   9.080   4.909   6.802 -0.5774 -1.1448 -2.5280
  534MOL0     H72040   9.075   5.093   6.795 -0.0409  0.2884 -0.9180
  534MOL0     H72041   9.284   5.184   6.617  1.5995  0.0752 -1.3874
  534MOL0     H72042   9.586   5.218   6.642 -1.0020 -0.1921  0.3120
  534MOL0     H72043   9.658   5.050   6.613 -1.7710 -2.1186 -0.0871
  534MOL0     H72044   9.639   5.163   6.409  0.4178  1.5401  1.8496
  534MOL0     H72045   9.470   5.216   6.434 -2.3589 -1.6528  1.5460
  534MOL0     H72046   9.401   4.975   6.416  1.6876 -1.0102 -0.3501
  534MOL0     H72047   9.562   4.933   6.364  0.2735 -0.5024 -0.3162
  534MOL0     H72048   9.452   4.953   6.179 -4.0461 -1.3215  1.3776
  534MOL0     H72049   9.566   5.091   6.200  0.6287  0.8689  2.8403
  534MOL0     H72050   9.096   5.179   6.200  1.6936  0.1391  1.1477
  534MOL0     H72051   8.909   5.275   5.950  1.0477 -0.3973 -0.1503
  534MOL0     H72052   8.840   5.112   5.973 -0.5847 -0.0502  0.7862
  534MOL0     H72053   8.886   5.200   6.110 -2.8126 -1.2519 -0.3733
  534MOL0     H72054   8.927   5.228   5.478 -1.5714  1.2711  0.5818
  534MOL0     H72055   8.764   5.224   5.318  1.3950 -1.3713 -2.2359
  534MOL0     H72056   8.574   5.187   5.177 -0.2756  0.1224  2.9194
  534MOL0     H72057   8.670   5.029   5.159 -1.3812 -2.2493 -2.5064
  534MOL0     H72058   8.481   4.915   5.120  3.6048  0.9820  2.1728
  534MOL0     H72059   8.376   5.065   5.130  2.2293  3.6608  2.2789
  534MOL0     H72060   8.570   4.991   4.901  1.3207  0.7861  1.5219
  534MOL0     H72061   8.522   5.156   4.937 -0.8009  0.4298 -2.6706
  534MOL0     H72062   8.405   4.969   4.769  1.8395  3.5662 -0.9067
  534MOL0     H72063   8.319   4.913   4.900 -0.1426  0.1634 -0.8974
  534MOL0     H72064   8.326   5.194   4.771  2.9435  1.9917  3.2817
  534MOL0     H72065   8.256   5.196   4.922  3.7422  2.1042 -1.9171
  534MOL0     H72066   8.153   5.003   4.712 -2.3717 -0.5680  0.7173
  534MOL0     H72067   8.088   5.039   4.870  0.1303 -0.7491  0.1025
  534MOL0     H72068   8.107   5.231   4.629  2.4752 -2.1411  0.3199
  534MOL0     H72069   8.067   5.292   4.792 -1.7308 -1.6658  1.6692
  534MOL0     H72070   7.858   5.273   4.682 -4.0551 -1.0943  1.7821
  534MOL0     H72071   7.872   5.137   4.794  3.8362  0.0810  1.9672
  534MOL0     H72072   8.530   4.942   5.552  0.1641 -1.7436 -1.1774
  534MOL0     H72073   8.702   4.947   5.729  2.0263  0.0721  0.6958
  534MOL0     H72074   9.313   5.120   5.765  0.1972 -0.3197 -0.7426
  534MOL0     H72075   9.447   5.104   5.971  0.8053  0.4336 -0.0745
  534MOL0     H72076   8.324   4.415   6.380 -0.6568 -2.8384 -1.0954
  534MOL0     H72077   8.214   4.210   6.400  1.6391 -0.9735  0.3270
  534MOL0     H72078   7.681   4.023   6.657 -0.5224 -1.4402  3.7286
  534MOL0     H72079   7.600   3.798   6.621 -0.0440 -2.6123  1.8142
  534MOL0     H72080   7.876   3.516   6.434  0.6511 -0.6442 -0.2838
  534MOL0     H72081   7.892   3.457   6.602  2.5932 -0.9755 -2.1803
  534MOL0     H72082   7.677   3.338   6.567 -2.2322 -2.3828 -2.6640
  534MOL0     H72083   7.797   3.290   6.437  0.9073 -0.2878 -1.7248
  534MOL0     H72084   7.634   3.479   6.308  2.6676  0.0663  0.3458
  534MOL0     H72085   7.534   3.436   6.446  0.7639 -1.0824  1.3258
  534MOL0     H72086   7.637   3.243   6.241 -0.9605 -3.3868 -0.0545
  534MOL0     H72087   7.468   3.283   6.263  0.2206  0.6794  0.6007
  534MOL0     H72088   7.478   2.998   6.557  2.0445 -1.4064 -0.7752
  534MOL0     H72089   8.010   3.667   6.567  0.2372 -0.1978  1.7689
  534MOL0     H72090   8.090   3.895   6.571  0.9799 -2.3211 -1.1265
  535MOL0     O72091  10.962  11.122   6.503 -0.4061 -0.0589 -0.2836
  535MOL0     C72092  11.021  11.199   6.582 -0.3139 -0.1930 -0.1629
  535MOL0     O72093  10.972  11.313   6.639  0.2405  0.3584  0.7973
  535MOL0     C72094  10.844  11.356   6.596 -0.6858  0.6345 -0.0076
  535MOL0     C72095  10.830  11.499   6.595  0.2919  0.7840 -0.6248
  535MOL0     C72096  10.707  11.542   6.555 -0.8080  0.5734 -0.1876
  535MOL0     C72097  10.607  11.460   6.515 -0.3335 -0.8795 -0.6782
  535MOL0     O72098  10.495  11.535   6.484 -0.0147  0.0849 -0.3072
  535MOL0     C72099  10.374  11.477   6.428  0.4307  0.2609 -0.2968
  535MOL0     C72100  10.249  11.557   6.473 -0.4942 -0.3406  0.3949
  535MOL0     C72101  10.119  11.498   6.426  0.7537 -0.2244 -1.0893
  535MOL0     C72102  10.012  11.581   6.492 -0.4772 -0.5026  0.4728
  535MOL0     C72103   9.870  11.556   6.429 -0.1219  0.3757  0.6789
  535MOL0     C72104   9.816  11.422   6.475  0.0124 -0.5233 -0.8552
  535MOL0     C72105   9.665  11.445   6.500  0.6431 -0.3996  0.3178
  535MOL0     C72106   9.599  11.309   6.528  0.4851  0.0800 -0.0546
  535MOL0     N72107   9.446  11.319   6.546 -0.6847  0.4666 -0.2414
  535MOL0     C72108   9.372  11.421   6.598 -0.4095  0.6440  0.0497
  535MOL0     C72109   9.250  11.372   6.621  0.2064 -0.6858  0.0942
  535MOL0     C72110   9.134  11.456   6.663 -0.4494 -0.3707 -0.1106
  535MOL0     C72111   8.999  11.385   6.672 -0.1497 -1.1385  0.4478
  535MOL0     C72112   8.933  11.369   6.539 -0.3405  0.4578 -0.8349
  535MOL0     C72113   8.780  11.332   6.549  0.1389 -0.1973 -0.1338
  535MOL0     O72114   8.765  11.227   6.649  0.2969  0.1314  0.0868
  535MOL0     C72115   8.637  11.189   6.684  0.0304 -0.2747  0.3565
  535MOL0     C72116   8.619  11.098   6.786 -1.2594  0.2621 -0.7630
  535MOL0     C72117   8.495  11.050   6.822  0.4175 -0.0041  0.3885
  535MOL0     C72118   8.478  10.955   6.934 -0.3489  0.0004 -0.1976
  535MOL0     C72119   8.381  11.100   6.751 -0.6934  0.6858  0.4386
  535MOL0     C72120   8.241  11.070   6.789  0.3260 -0.0987  0.1908
  535MOL0     O72121   8.222  10.958   6.867 -0.8387 -0.5412  0.3082
  535MOL0     C72122   8.099  10.899   6.878  0.3181  0.9386  0.5212
  535MOL0     C72123   7.989  10.926   6.804 -0.1077 -0.2569  0.7383
  535MOL0     C72124   7.860  10.871   6.831 -0.1120 -0.3489 -0.7019
  535MOL0     C72125   7.855  10.782   6.945  0.7491 -0.2200 -0.8018
  535MOL0     O72126   7.729  10.710   6.962  0.0951  0.4096 -0.6411
  535MOL0     C72127   7.727  10.600   7.052  0.2275  0.4039  0.7415
  535MOL0     C72128   7.592  10.522   7.041  0.5443  0.2900  0.1252
  535MOL0     C72129   7.466  10.587   7.104  0.1103 -0.2210  0.3844
  535MOL0     C72130   7.342  10.508   7.059 -0.2398 -0.6774  0.3400
  535MOL0     C72131   7.223  10.575   7.131 -0.9353  0.1165 -0.5589
  535MOL0     C72132   7.102  10.604   7.042  0.7522  0.2158  0.1791
  535MOL0     C72133   6.998  10.700   7.097  0.5118 -0.1803 -0.2425
  535MOL0     C72134   7.034  10.848   7.061 -0.5029 -0.6847 -0.0968
  535MOL0    Cl72135   7.064  10.890   6.886 -0.0832  0.6144 -0.5014
  535MOL0     C72136   7.970  10.753   7.021 -0.3916 -0.0063  0.2037
  535MOL0     C72137   8.086  10.817   6.989  0.5759  0.3109  0.1371
  535MOL0     O72138   8.162  11.157   6.774  0.1106 -0.1612 -0.5379
  535MOL0     C72139   8.399  11.197   6.650  0.0895 -0.6311 -0.4054
  535MOL0     C72140   8.526  11.239   6.614  0.3268  0.1458  0.1107
  535MOL0     N72141   9.249  11.245   6.567 -0.6043  0.7060  0.0734
  535MOL0     N72142   9.366  11.218   6.520 -0.1891  0.0285 -0.0484
  535MOL0     C72143  10.615  11.331   6.522  0.5881  0.7201 -0.4447
  535MOL0     C72144  10.737  11.269   6.559  0.4790 -0.9935 -0.3764
  535MOL0     C72145  11.161  11.164   6.614  0.1204  0.2365 -0.2753
  535MOL0     C72146  11.220  11.039   6.567  0.3011 -0.2664 -0.1825
  535MOL0     C72147  11.354  11.011   6.607  0.1104  0.2108 -0.7052
  535MOL0     C72148  11.428  11.094   6.690  0.5045 -0.1989 -0.3499
  535MOL0     O72149  11.556  11.087   6.741 -0.5570  0.0852 -0.2765
  535MOL0     C72150  11.638  10.977   6.702  1.0594  0.0852  0.1176
  535MOL0     C72151  11.730  11.031   6.596  0.6261  0.1508  1.0647
  535MOL0     C72152  11.845  10.936   6.564 -0.7448  0.8690  0.5237
  535MOL0     C72153  11.921  10.966   6.440  0.8853 -0.3922 -0.6704
  535MOL0     C72154  11.851  10.898   6.331  0.0898  0.3103 -0.9825
  535MOL0     C72155  11.789  10.835   6.252 -0.0990  0.5247 -0.5687
  535MOL0     C72156  11.369  11.208   6.728  0.3561 -0.0169  0.2135
  535MOL0     C72157  11.239  11.258   6.688  0.1014 -0.2046  0.3790
  535MOL0     H72158  10.912  11.564   6.622 -1.1330  2.2603  0.2935
  535MOL0     H72159  10.691  11.649   6.548 -1.3982  0.4243 -1.4767
  535MOL0     H72160  10.378  11.475   6.319  0.0808 -1.3105 -0.3017
  535MOL0     H72161  10.353  11.373   6.456 -2.5924  1.5578  3.1614
  535MOL0     H72162  10.257  11.559   6.582 -0.2856  0.1045  0.3726
  535MOL0     H72163  10.263  11.661   6.442  2.6568  0.5071  3.9510
  535MOL0     H72164  10.108  11.494   6.317  0.4324 -4.1941 -1.0639
  535MOL0     H72165  10.113  11.394   6.459  0.0109  0.5694  1.5411
  535MOL0     H72166   9.994  11.557   6.597 -3.4409  0.3551  0.2426
  535MOL0     H72167  10.039  11.686   6.476 -1.2698 -0.7417 -3.2130
  535MOL0     H72168   9.810  11.642   6.457  0.9346  0.5684  2.5709
  535MOL0     H72169   9.885  11.551   6.321  1.7199  2.1697  0.7821
  535MOL0     H72170   9.841  11.346   6.399  1.4720 -0.1254 -0.8017
  535MOL0     H72171   9.862  11.386   6.567 -0.2890 -0.4450 -0.6721
  535MOL0     H72172   9.647  11.510   6.586  2.0339 -2.1209  2.0084
  535MOL0     H72173   9.626  11.488   6.407  0.5352 -1.1272  0.0215
  535MOL0     H72174   9.640  11.258   6.616  0.8206 -0.6476 -0.6186
  535MOL0     H72175   9.615  11.255   6.434 -1.2418  1.8007 -1.4095
  535MOL0     H72176   9.400  11.524   6.617 -1.1855  0.8880 -0.0770
  535MOL0     H72177   9.163  11.494   6.761 -0.5202 -1.8791  0.5259
  535MOL0     H72178   9.122  11.540   6.594 -2.7604 -1.2504 -0.9076
  535MOL0     H72179   8.931  11.450   6.727 -2.7308 -0.7208 -2.8991
  535MOL0     H72180   8.998  11.287   6.722  4.6632 -0.5765  2.1443
  535MOL0     H72181   8.981  11.286   6.486 -1.3168 -0.9634  0.3842
  535MOL0     H72182   8.941  11.466   6.491  0.7956  0.3516 -0.8740
  535MOL0     H72183   8.732  11.304   6.455 -0.1586 -1.5838  0.4056
  535MOL0     H72184   8.747  11.431   6.583 -0.2323  0.1673 -1.4930
  535MOL0     H72185   8.706  11.059   6.837  0.3564  1.9048 -2.0856
  535MOL0     H72186   8.409  10.988   7.013 -1.4213 -2.1655 -0.1631
  535MOL0     H72187   8.448  10.854   6.906  0.2033 -1.1403  2.9010
  535MOL0     H72188   8.569  10.948   6.993 -0.6174  1.0965  0.3754
  535MOL0     H72189   7.998  11.002   6.726 -2.6847  1.2775  1.8188
  535MOL0     H72190   7.762  10.903   6.797 -0.5347  0.4822  1.1765
  535MOL0     H72191   7.808  10.534   7.020 -0.9111 -2.0023  2.4674
  535MOL0     H72192   7.747  10.628   7.156  0.4222 -1.6047  1.2859
  535MOL0     H72193   7.580  10.510   6.933  2.1203 -0.9431  0.0530
  535MOL0     H72194   7.604  10.425   7.091  2.5090 -0.1825 -1.1722
  535MOL0     H72195   7.460  10.691   7.071 -1.6050  0.4994  2.6738
  535MOL0     H72196   7.467  10.590   7.213 -2.1682  0.3494  0.4359
  535MOL0     H72197   7.330  10.508   6.950  1.1422  5.4497 -0.1938
  535MOL0     H72198   7.352  10.406   7.096  0.1033 -1.5675 -2.0279
  535MOL0     H72199   7.248  10.670   7.179  1.0554  0.7124 -2.6442
  535MOL0     H72200   7.181  10.505   7.205 -0.0570  1.6605  1.5081
  535MOL0     H72201   7.132  10.649   6.947 -1.1323  0.0024 -0.5557
  535MOL0     H72202   7.064  10.506   7.014  1.4245  0.3328 -1.2110
  535MOL0     H72203   6.987  10.697   7.205 -1.9107  3.8040 -0.1852
  535MOL0     H72204   6.897  10.678   7.061 -0.2156  1.2776  0.8202
  535MOL0     H72205   7.130  10.872   7.108 -0.2000  0.3289 -1.1697
  535MOL0     H72206   6.959  10.917   7.101  2.5513  2.8706  0.0812
  535MOL0     H72207   7.967  10.676   7.098  1.6388  1.9530  2.4318
  535MOL0     H72208   8.182  10.795   7.035  2.2140  0.2361 -3.0270
  535MOL0     H72209   8.311  11.238   6.602 -0.4650 -0.7806  0.4449
  535MOL0     H72210   8.526  11.317   6.539 -1.9158  0.8598  0.7775
  535MOL0     H72211  10.537  11.257   6.502  2.2067 -0.9772 -0.7021
  535MOL0     H72212  10.740  11.162   6.575 -1.0442 -1.0151 -0.0267
  535MOL0     H72213  11.184  10.958   6.504 -0.9296  0.4379 -0.4242
  535MOL0     H72214  11.402  10.919   6.576  0.1825 -0.6277  1.6336
  535MOL0     H72215  11.696  10.944   6.789  0.5384 -0.5325  0.2431
  535MOL0     H72216  11.567  10.899   6.675 -2.8425  2.7040  1.8277
  535MOL0     H72217  11.783  11.123   6.622  2.1472 -0.7043  1.1307
  535MOL0     H72218  11.674  11.056   6.505 -1.0810 -1.0609  1.7289
  535MOL0     H72219  11.819  10.830   6.568 -0.3422  0.8177  2.6372
  535MOL0     H72220  11.922  10.947   6.641 -0.3738  0.6631  0.1879
  535MOL0     H72221  12.027  10.940   6.452  0.9096  0.2395  0.7777
  535MOL0     H72222  11.929  11.072   6.411  0.4136  0.0187  0.6256
  535MOL0     H72223  11.748  10.775   6.173 -0.7964  2.8378 -2.0783
  535MOL0     H72224  11.435  11.273   6.786  1.6212 -0.5358 -0.6017
  535MOL0     H72225  11.200  11.354   6.720 -1.4536 -0.1409 -1.5103
  536MOL0     O72226   2.881   8.773   0.262 -0.4814  0.0588 -0.0742
  536MOL0     C72227   2.937   8.881   0.270  0.1184 -0.3434  0.7799
  536MOL0     O72228   2.882   8.990   0.339  0.1051  0.0289  0.3614
  536MOL0     C72229   2.759   8.979   0.402 -0.2156 -0.3750  0.5335
  536MOL0     C72230   2.656   9.062   0.369  0.1729 -0.1342  0.9809
  536MOL0     C72231   2.538   9.059   0.447 -0.4347 -0.2121 -0.5063
  536MOL0     C72232   2.525   8.971   0.557  0.6787  0.8344  0.2403
  536MOL0     O72233   2.400   8.964   0.617 -0.2206  0.8812  0.1658
  536MOL0     C72234   2.357   8.848   0.688  0.7548 -0.4813 -0.4332
  536MOL0     C72235   2.220   8.884   0.753  0.4286  0.0456  0.0669
  536MOL0     C72236   2.153   8.763   0.828 -0.2511  0.5903 -0.6359
  536MOL0     C72237   2.003   8.752   0.825 -0.1367 -0.4452 -0.7382
  536MOL0     C72238   1.931   8.853   0.914  0.2033  0.2165  0.4630
  536MOL0     C72239   1.790   8.809   0.973 -0.2633 -0.8664 -0.5551
  536MOL0     C72240   1.728   8.915   1.052  0.7163  0.0941 -0.4656
  536MOL0     C72241   1.664   9.020   0.972  0.7392 -0.0844  0.6132
  536MOL0     N72242   1.566   8.973   0.877 -0.1039 -0.8053  0.8165
  536MOL0     C72243   1.445   8.908   0.896  0.5038 -0.2923  0.5645
  536MOL0     C72244   1.399   8.892   0.770  0.5156  0.0572 -0.1310
  536MOL0     C72245   1.273   8.829   0.730  0.7594 -0.0803 -0.4248
  536MOL0     C72246   1.275   8.678   0.716  0.3908  0.0120  0.3161
  536MOL0     C72247   1.234   8.606   0.847  0.0231  0.5344 -0.7567
  536MOL0     C72248   1.088   8.615   0.899  0.5738 -1.1014  0.0362
  536MOL0     O72249   1.001   8.570   0.789  0.7093  0.5113 -0.1405
  536MOL0     C72250   0.880   8.521   0.824 -0.4056 -0.3050 -0.6974
  536MOL0     C72251   0.802   8.556   0.935  0.6999 -0.0605 -0.0574
  536MOL0     C72252   0.676   8.502   0.959 -0.2480  0.7238 -1.1515
  536MOL0     C72253   0.606   8.552   1.080 -0.1959 -0.4718 -0.2707
  536MOL0     C72254   0.620   8.401   0.875  0.4059  0.1425  0.4877
  536MOL0     C72255   0.492   8.338   0.895  0.2246 -0.0323  0.6982
  536MOL0     O72256   0.415   8.366   0.999  0.2125  0.2655 -1.2480
  536MOL0     C72257   0.295   8.299   1.002 -0.5226 -0.9838 -0.3636
  536MOL0     C72258   0.288   8.210   1.111  0.1407  0.1352  0.3217
  536MOL0     C72259   0.174   8.141   1.141 -0.4192 -0.7466  0.8127
  536MOL0     C72260   0.064   8.140   1.054  0.0667 -0.2220 -0.0845
  536MOL0     O72261  -0.040   8.061   1.096 -0.4071 -0.3800  0.1510
  536MOL0     C72262  -0.120   8.009   0.991 -0.1241  0.8076  0.8241
  536MOL0     C72263  -0.194   7.882   1.031 -0.1062  0.6043 -1.0458
  536MOL0     C72264  -0.264   7.809   0.915  0.1709  0.0036 -0.1657
  536MOL0     C72265  -0.369   7.898   0.857  0.2975  0.0159 -0.4481
  536MOL0     C72266  -0.466   7.809   0.763 -0.2463  0.1929 -0.5961
  536MOL0     C72267  -0.408   7.730   0.650  0.7339  0.3868  0.8898
  536MOL0     C72268  -0.353   7.830   0.538  0.1624  1.0069 -1.1764
  536MOL0     C72269  -0.274   7.753   0.429 -0.1457  0.1810 -1.1975
  536MOL0    Cl72270  -0.140   7.650   0.479 -0.1954  0.5003 -0.0320
  536MOL0     C72271   0.066   8.225   0.943 -0.4086 -0.8892 -0.1595
  536MOL0     C72272   0.186   8.308   0.919  0.4655  0.6925  1.1516
  536MOL0     O72273   0.461   8.261   0.803 -0.3158  0.3725 -0.2156
  536MOL0     C72274   0.695   8.360   0.767 -0.0401 -0.7113  0.2419
  536MOL0     C72275   0.818   8.423   0.734 -0.0589 -0.5755  0.6070
  536MOL0     N72276   1.494   8.926   0.680 -0.7742 -0.8773 -0.1640
  536MOL0     N72277   1.591   8.992   0.748  0.8645  0.3914  0.1190
  536MOL0     C72278   2.632   8.883   0.587  0.3523 -0.3262 -0.5906
  536MOL0     C72279   2.748   8.903   0.517  0.8553  0.0456  0.2630
  536MOL0     C72280   3.069   8.894   0.196  0.2828  0.1796  0.4781
  536MOL0     C72281   3.125   9.024   0.176  0.7895  0.4977 -0.3345
  536MOL0     C72282   3.263   9.040   0.139  0.1114  0.3274 -1.4201
  536MOL0     C72283   3.335   8.920   0.098 -0.0789  0.3287 -1.0498
  536MOL0     O72284   3.467   8.911   0.065 -0.5503  0.4124  0.5136
  536MOL0     C72285   3.558   9.008   0.117  0.2960 -0.5870  0.8857
  536MOL0     C72286   3.701   8.951   0.112  0.2240  0.0578  0.0842
  536MOL0     C72287   3.761   8.974  -0.026  0.2239 -0.2814 -0.2073
  536MOL0     C72288   3.822   9.117  -0.037  0.5056 -0.0780  0.1124
  536MOL0     C72289   3.926   9.140   0.062 -0.2433 -0.5010  0.6460
  536MOL0     C72290   3.995   9.171   0.157 -0.2696 -0.7664 -0.0341
  536MOL0     C72291   3.268   8.795   0.093  0.0381  0.0287  0.9254
  536MOL0     C72292   3.138   8.775   0.143  0.1168 -0.0812  0.4980
  536MOL0     H72293   2.661   9.133   0.286  1.3925  0.9121  1.9246
  536MOL0     H72294   2.461   9.127   0.412 -1.5020 -1.3311 -0.4138
  536MOL0     H72295   2.347   8.759   0.626 -1.4639  0.1820 -1.1281
  536MOL0     H72296   2.427   8.826   0.769  2.4919 -1.7547 -2.1919
  536MOL0     H72297   2.235   8.972   0.817 -0.5324  0.5314 -0.3526
  536MOL0     H72298   2.149   8.908   0.673 -0.6220  1.5347  1.3855
  536MOL0     H72299   2.183   8.671   0.778  2.1712  0.6341  0.5951
  536MOL0     H72300   2.178   8.759   0.934 -0.0024 -1.3028 -0.7400
  536MOL0     H72301   1.965   8.756   0.723 -0.0299  1.0697 -0.7445
  536MOL0     H72302   1.973   8.660   0.876 -1.7401  1.7435  2.7037
  536MOL0     H72303   1.995   8.887   0.995  0.0692  0.5540  0.4291
  536MOL0     H72304   1.920   8.944   0.854  0.6014 -0.6165 -0.9159
  536MOL0     H72305   1.728   8.779   0.888  1.9122  0.2744 -2.6752
  536MOL0     H72306   1.804   8.725   1.043 -1.9950  0.7201  1.8326
  536MOL0     H72307   1.662   8.876   1.130  1.9012 -0.7297  0.1569
  536MOL0     H72308   1.808   8.958   1.112  0.6526  0.4709 -0.6537
  536MOL0     H72309   1.732   9.092   0.926 -2.5711  2.7197 -0.3919
  536MOL0     H72310   1.599   9.085   1.033 -0.6872  0.3511 -1.2547
  536MOL0     H72311   1.388   8.880   0.984 -1.5653 -2.1702 -1.2576
  536MOL0     H72312   1.188   8.856   0.794  0.4767 -0.0957 -0.7891
  536MOL0     H72313   1.259   8.869   0.629 -2.0609 -0.1628 -0.1570
  536MOL0     H72314   1.368   8.637   0.676 -0.1198 -2.4763  1.5172
  536MOL0     H72315   1.194   8.648   0.649 -0.4123  1.0697  0.7789
  536MOL0     H72316   1.295   8.655   0.923  2.0603 -2.0246 -0.5814
  536MOL0     H72317   1.254   8.498   0.851 -1.5614  0.2629  1.2065
  536MOL0     H72318   1.073   8.721   0.920 -1.1353 -0.8457 -2.1141
  536MOL0     H72319   1.082   8.549   0.987  1.8873 -0.6102  0.5166
  536MOL0     H72320   0.834   8.624   1.014  2.6191  0.4836 -1.2263
  536MOL0     H72321   0.556   8.479   1.145  2.3150 -1.0429  1.1375
  536MOL0     H72322   0.670   8.601   1.155  0.5033 -1.8755  0.0840
  536MOL0     H72323   0.539   8.636   1.060  2.0926  1.1213 -1.7049
  536MOL0     H72324   0.366   8.196   1.186 -0.0850 -0.0660  0.5216
  536MOL0     H72325   0.178   8.077   1.229  0.6339 -0.2376  1.1460
  536MOL0     H72326  -0.191   8.075   0.939 -1.6973 -0.0410  1.8251
  536MOL0     H72327  -0.059   7.963   0.913  1.3430  3.6238  0.1599
  536MOL0     H72328  -0.119   7.818   1.078 -1.3329  0.7339  1.2732
  536MOL0     H72329  -0.263   7.911   1.111  1.4202 -0.1169  0.5964
  536MOL0     H72330  -0.319   7.722   0.952 -3.7048  2.2420 -0.0456
  536MOL0     H72331  -0.205   7.779   0.828 -1.9769 -0.4329 -1.5474
  536MOL0     H72332  -0.436   7.944   0.931 -0.5112 -1.3597 -0.2858
  536MOL0     H72333  -0.322   7.979   0.801 -0.3155  2.2632  2.0570
  536MOL0     H72334  -0.544   7.878   0.730 -2.3248 -0.2147  3.0455
  536MOL0     H72335  -0.529   7.742   0.820 -0.6444 -0.7673 -2.1116
  536MOL0     H72336  -0.331   7.658   0.681  1.8938  0.8629 -0.7349
  536MOL0     H72337  -0.480   7.663   0.603 -0.0262  2.9394 -1.9373
  536MOL0     H72338  -0.278   7.899   0.576 -1.5312  2.3489 -0.1243
  536MOL0     H72339  -0.436   7.893   0.503 -2.3944 -0.3659  1.9247
  536MOL0     H72340  -0.225   7.828   0.366 -0.5417  1.2029 -0.3189
  536MOL0     H72341  -0.331   7.687   0.363 -1.4246 -0.1365  0.1690
  536MOL0     H72342  -0.018   8.233   0.875  0.9898 -2.4061 -2.2054
  536MOL0     H72343   0.188   8.367   0.828  0.8788 -1.6275 -0.4437
  536MOL0     H72344   0.655   8.287   0.697 -0.5645 -0.6921  0.5134
  536MOL0     H72345   0.869   8.398   0.641 -3.1898 -3.3299 -0.5788
  536MOL0     H72346   2.632   8.804   0.661 -0.6094  0.0143 -0.2248
  536MOL0     H72347   2.829   8.839   0.552 -0.7987 -2.0292  0.4500
  536MOL0     H72348   3.080   9.114   0.216  1.6018  1.2452 -1.0496
  536MOL0     H72349   3.320   9.132   0.150  0.1362  0.2596 -0.9692
  536MOL0     H72350   3.545   9.096   0.053 -0.2223 -1.4736 -0.2399
  536MOL0     H72351   3.528   9.020   0.222  0.4694 -2.7689  1.2277
  536MOL0     H72352   3.710   8.848   0.146  3.7432 -0.7131 -2.6253
  536MOL0     H72353   3.759   8.999   0.191  3.0154  0.8750 -2.2804
  536MOL0     H72354   3.699   8.962  -0.115  5.0190 -4.0506 -3.5040
  536MOL0     H72355   3.845   8.907  -0.043  0.0268 -0.5161 -0.2653
  536MOL0     H72356   3.751   9.201  -0.031  1.8830  1.0710  1.0592
  536MOL0     H72357   3.856   9.135  -0.139  0.8886  1.9164  0.5340
  536MOL0     H72358   4.045   9.192   0.250  0.5771  0.9091 -0.8200
  536MOL0     H72359   3.322   8.712   0.048 -0.7448  0.8389 -1.6827
  536MOL0     H72360   3.093   8.676   0.151 -4.2766  1.6261 -0.1853
  537MOL0     O72361   2.035   3.870   0.247 -0.2972 -0.6650 -0.0438
  537MOL0     C72362   2.075   3.983   0.206 -0.7220  0.1951  0.2284
  537MOL0     O72363   2.199   4.038   0.240 -0.5661 -0.0647 -1.0303
  537MOL0     C72364   2.285   3.958   0.314  0.5218  0.1668 -0.2923
  537MOL0     C72365   2.421   3.945   0.271 -0.3914  0.3763  0.2328
  537MOL0     C72366   2.519   3.873   0.337 -0.4864 -0.5045  0.0439
  537MOL0     C72367   2.483   3.816   0.461 -0.1806  0.2413 -0.5272
  537MOL0     O72368   2.586   3.752   0.526 -0.4576  0.9505 -0.0585
  537MOL0     C72369   2.555   3.633   0.604  0.0748  0.3240 -0.4255
  537MOL0     C72370   2.675   3.590   0.680  0.4305 -0.4352 -0.3651
  537MOL0     C72371   2.632   3.505   0.805  0.0208  0.1269  0.1021
  537MOL0     C72372   2.751   3.438   0.881  0.3433  0.2832 -0.0665
  537MOL0     C72373   2.861   3.526   0.942  0.0860 -0.1386 -1.4760
  537MOL0     C72374   2.810   3.641   1.033 -0.0085 -0.1327 -0.3309
  537MOL0     C72375   2.760   3.583   1.160 -0.3707 -0.3791  0.0954
  537MOL0     C72376   2.720   3.686   1.275  0.4300 -0.5109 -0.0389
  537MOL0     N72377   2.829   3.737   1.364  0.1990 -0.0639 -0.0800
  537MOL0     C72378   2.914   3.837   1.323  0.1386 -1.1749 -1.1483
  537MOL0     C72379   3.003   3.843   1.425 -0.1943 -0.2726 -0.5532
  537MOL0     C72380   3.133   3.927   1.421  0.0237  0.2705  0.3561
  537MOL0     C72381   3.111   4.078   1.406 -0.6501 -0.8732  0.2386
  537MOL0     C72382   3.011   4.146   1.500  0.2796 -0.0224  0.4324
  537MOL0     C72383   3.024   4.104   1.652 -0.1136 -0.2916  0.1042
  537MOL0     O72384   2.926   4.168   1.726 -0.3163  0.3947  0.3564
  537MOL0     C72385   2.791   4.129   1.726 -0.7712 -0.6879  0.5839
  537MOL0     C72386   2.736   4.015   1.668 -0.1787 -1.6673  0.3484
  537MOL0     C72387   2.597   3.987   1.683 -0.5534  0.8539  0.4284
  537MOL0     C72388   2.549   3.863   1.601  0.2187 -0.6223  0.1204
  537MOL0     C72389   2.512   4.067   1.759 -0.4736 -0.7511  0.8795
  537MOL0     C72390   2.366   4.042   1.777  0.7900 -0.1361  0.3393
  537MOL0     O72391   2.279   4.152   1.743 -0.2475  0.5122  0.0677
  537MOL0     C72392   2.143   4.140   1.750  0.1129 -0.3003  0.3927
  537MOL0     C72393   2.063   4.221   1.834  0.2021 -0.2192  0.3362
  537MOL0     C72394   1.932   4.177   1.852 -0.3734 -0.6045  1.0415
  537MOL0     C72395   1.873   4.077   1.775  0.8985  0.6075  0.1956
  537MOL0     O72396   1.737   4.048   1.782 -0.1192 -0.4541  0.1227
  537MOL0     C72397   1.676   4.054   1.908  0.2293  0.5335  0.2824
  537MOL0     C72398   1.525   4.018   1.885 -0.1914  0.2764 -0.2029
  537MOL0     C72399   1.525   3.867   1.841  0.0671 -0.1379 -0.3801
  537MOL0     C72400   1.371   3.822   1.843  0.1971 -0.6802  0.0043
  537MOL0     C72401   1.352   3.702   1.753  0.3099  0.1459 -0.9857
  537MOL0     C72402   1.415   3.583   1.831 -0.0356 -0.0245  1.1786
  537MOL0     C72403   1.405   3.454   1.761  0.0671  1.2080  0.1352
  537MOL0     C72404   1.262   3.393   1.741 -0.7561 -0.5495  0.2679
  537MOL0    Cl72405   1.201   3.310   1.884 -0.2765  0.1308 -0.2100
  537MOL0     C72406   1.952   4.017   1.688  0.1101  0.8598 -0.4772
  537MOL0     C72407   2.088   4.043   1.673  0.4695  0.9681  1.1480
  537MOL0     O72408   2.329   3.923   1.789 -0.3338 -0.0677  0.4210
  537MOL0     C72409   2.567   4.189   1.808 -0.2619  0.2406 -0.0601
  537MOL0     C72410   2.700   4.215   1.790 -0.1581 -0.3666 -0.1434
  537MOL0     N72411   2.971   3.748   1.516  0.6792 -0.5751 -0.2822
  537MOL0     N72412   2.870   3.678   1.480  0.1105  0.3514  0.7694
  537MOL0     C72413   2.355   3.845   0.515  0.2110 -0.8967 -0.9330
  537MOL0     C72414   2.249   3.909   0.440 -0.7607  0.3486  0.6865
  537MOL0     C72415   1.987   4.074   0.131 -0.1940  0.2508 -0.3274
  537MOL0     C72416   2.020   4.210   0.115  0.3849 -0.2364 -0.0429
  537MOL0     C72417   1.929   4.295   0.048  0.2644  0.0858  0.1936
  537MOL0     C72418   1.819   4.237  -0.019 -0.0061  0.7228  0.6069
  537MOL0     O72419   1.744   4.328  -0.093 -0.7168 -0.0381 -0.3661
  537MOL0     C72420   1.625   4.282  -0.155  0.1206  0.0356 -0.4761
  537MOL0     C72421   1.560   4.404  -0.235 -0.6139 -0.0054 -0.2079
  537MOL0     C72422   1.401   4.410  -0.228 -1.6593 -0.1631 -0.0955
  537MOL0     C72423   1.340   4.407  -0.358  0.5420  0.7703  1.1954
  537MOL0     C72424   1.344   4.279  -0.431  0.4502  0.2042  0.7792
  537MOL0     C72425   1.354   4.174  -0.490 -0.2626  0.4818  0.0596
  537MOL0     C72426   1.786   4.105  -0.007 -0.2053 -0.6274 -0.2546
  537MOL0     C72427   1.875   4.022   0.062  0.8729 -0.3194  0.6198
  537MOL0     H72428   2.444   3.996   0.178 -1.4561  0.5658  0.0648
  537MOL0     H72429   2.617   3.868   0.290 -0.3963  3.2741 -0.4728
  537MOL0     H72430   2.474   3.651   0.676  1.8678  0.1468  1.7498
  537MOL0     H72431   2.521   3.556   0.534 -3.6811  0.0292  1.4530
  537MOL0     H72432   2.743   3.535   0.614 -0.6321  0.1441 -1.9867
  537MOL0     H72433   2.727   3.681   0.710 -1.6460  0.5997  0.2734
  537MOL0     H72434   2.581   3.577   0.869 -2.7541 -2.1403  0.6529
  537MOL0     H72435   2.557   3.426   0.788 -0.6684  1.0284 -1.2064
  537MOL0     H72436   2.713   3.376   0.963  0.7551 -0.1075 -0.1645
  537MOL0     H72437   2.798   3.378   0.802 -0.8332  0.3942 -0.8859
  537MOL0     H72438   2.928   3.457   0.994 -1.2626 -2.2440 -2.3731
  537MOL0     H72439   2.925   3.574   0.868 -1.9864  3.8486 -0.9061
  537MOL0     H72440   2.884   3.720   1.047 -2.3730  2.5326 -1.5987
  537MOL0     H72441   2.727   3.698   0.988 -1.4664 -0.3726  1.9013
  537MOL0     H72442   2.678   3.514   1.137 -1.2236  0.2617  1.0940
  537MOL0     H72443   2.840   3.526   1.209  0.8704 -0.9160 -2.4085
  537MOL0     H72444   2.650   3.629   1.336 -1.5585  1.8962  0.0708
  537MOL0     H72445   2.663   3.769   1.232  0.9461 -0.1796 -0.0876
  537MOL0     H72446   2.912   3.905   1.239 -4.1536  1.9742  1.1190
  537MOL0     H72447   3.198   3.915   1.508  1.0515  1.7274 -0.1680
  537MOL0     H72448   3.198   3.892   1.341  1.4575  2.2271  0.5818
  537MOL0     H72449   3.080   4.104   1.305 -2.4758  2.3990  1.4996
  537MOL0     H72450   3.210   4.123   1.419 -0.3105 -0.7429 -2.4124
  537MOL0     H72451   2.908   4.128   1.469 -1.1087  1.7918  3.5219
  537MOL0     H72452   3.016   4.255   1.489  3.1140 -0.2492 -1.7863
  537MOL0     H72453   3.123   4.133   1.690  0.7385  0.8321 -2.6688
  537MOL0     H72454   3.006   3.997   1.671 -2.3805  0.2365  1.2283
  537MOL0     H72455   2.801   3.947   1.614  0.7574 -3.0948  3.0832
  537MOL0     H72456   2.611   3.774   1.620  0.1842 -1.0902 -1.7600
  537MOL0     H72457   2.443   3.836   1.603  0.1789 -0.4269  0.9372
  537MOL0     H72458   2.576   3.888   1.498  3.2258 -1.5569  0.5764
  537MOL0     H72459   2.117   4.291   1.898 -2.9638  1.6769  1.1667
  537MOL0     H72460   1.863   4.237   1.910 -1.3301  1.6308 -2.1470
  537MOL0     H72461   1.725   3.977   1.968  0.2263  0.3596  0.0596
  537MOL0     H72462   1.690   4.146   1.966  2.7033 -0.2253  1.0068
  537MOL0     H72463   1.466   4.035   1.975 -2.3091 -1.9577 -1.0601
  537MOL0     H72464   1.484   4.089   1.812 -0.7171  0.9577  0.7309
  537MOL0     H72465   1.579   3.808   1.915  2.7447 -0.2927 -2.3027
  537MOL0     H72466   1.580   3.850   1.747 -0.0668  2.6617 -1.0484
  537MOL0     H72467   1.334   3.809   1.945  0.2221  0.7795  0.2253
  537MOL0     H72468   1.312   3.904   1.801 -0.2454  0.0620  1.9406
  537MOL0     H72469   1.389   3.715   1.651 -0.8407  0.1468 -1.4153
  537MOL0     H72470   1.246   3.687   1.732 -0.5743 -1.0681  3.2771
  537MOL0     H72471   1.521   3.596   1.857 -0.0179 -3.0069  3.0294
  537MOL0     H72472   1.369   3.579   1.930 -2.7664  0.5027  0.0186
  537MOL0     H72473   1.459   3.382   1.824 -3.8739 -0.4616  1.9286
  537MOL0     H72474   1.458   3.462   1.666  0.6432  1.0091  0.4313
  537MOL0     H72475   1.251   3.322   1.658  4.9313 -0.1339 -1.2590
  537MOL0     H72476   1.199   3.481   1.726 -0.4427 -0.3310  0.2224
  537MOL0     H72477   1.897   3.938   1.637  1.7922 -2.0110  1.8186
  537MOL0     H72478   2.149   3.981   1.608 -0.8534 -1.1092  1.7810
  537MOL0     H72479   2.511   4.264   1.862  2.8718  2.0895  0.8841
  537MOL0     H72480   2.742   4.306   1.833 -0.9704  0.2856 -0.6955
  537MOL0     H72481   2.326   3.815   0.615 -0.1913 -1.1602 -1.1299
  537MOL0     H72482   2.152   3.936   0.481 -0.1731  1.7422  1.1919
  537MOL0     H72483   2.105   4.257   0.162 -1.8349  4.1861  0.0281
  537MOL0     H72484   1.955   4.400   0.041 -1.3799  0.5457  0.5566
  537MOL0     H72485   1.644   4.197  -0.221 -0.2884 -0.8564  0.5120
  537MOL0     H72486   1.547   4.242  -0.089 -0.7078  1.4323 -0.5783
  537MOL0     H72487   1.600   4.401  -0.337  0.8587 -3.0325  0.3259
  537MOL0     H72488   1.598   4.500  -0.200 -0.2228 -0.1492 -0.2268
  537MOL0     H72489   1.366   4.490  -0.162  0.1184  0.4514  0.1399
  537MOL0     H72490   1.365   4.320  -0.178  2.3089 -1.5863  0.5763
  537MOL0     H72491   1.393   4.484  -0.417 -1.3526  0.2858 -1.3220
  537MOL0     H72492   1.238   4.441  -0.338  0.7277  1.1342  1.5379
  537MOL0     H72493   1.365   4.086  -0.550  0.8545  1.3042 -0.9884
  537MOL0     H72494   1.701   4.063  -0.060 -1.9066  1.8880  0.2443
  537MOL0     H72495   1.846   3.918   0.060 -0.0483 -0.0841 -2.1989
  538MOL0     O72496   5.140   4.703  11.209  0.6481  0.0067  0.5237
  538MOL0     C72497   5.238   4.729  11.140  0.5460 -0.0479  0.4838
  538MOL0     O72498   5.244   4.824  11.044 -0.2310  0.2692 -0.4322
  538MOL0     C72499   5.137   4.913  11.018 -0.2468 -0.0736  0.5291
  538MOL0     C72500   5.067   4.974  11.121  0.2732  0.0206 -0.3371
  538MOL0     C72501   4.959   5.061  11.087 -0.0763  1.1625  0.0977
  538MOL0     C72502   4.938   5.099  10.953 -0.2802  0.4920  0.1045
  538MOL0     O72503   4.837   5.170  10.902 -0.5152 -0.8839 -0.3551
  538MOL0     C72504   4.835   5.311  10.931 -0.7826 -0.2918 -0.1396
  538MOL0     C72505   4.943   5.368  10.841  0.3597  0.1218  0.2145
  538MOL0     C72506   4.953   5.515  10.886  0.5919  0.3993 -0.8439
  538MOL0     C72507   5.085   5.581  10.834 -0.6324  0.2894  0.0931
  538MOL0     C72508   5.081   5.728  10.835 -0.5898  0.3062 -0.5398
  538MOL0     C72509   5.198   5.782  10.762  0.0351 -0.9858 -0.3141
  538MOL0     C72510   5.210   5.940  10.759  0.1539  0.0692  0.0510
  538MOL0     C72511   5.098   6.006  10.691 -0.1924 -1.0024  0.0795
  538MOL0     N72512   5.061   5.943  10.558 -0.6967  0.6164 -0.1584
  538MOL0     C72513   4.941   5.921  10.515  0.5035  0.1662 -0.5507
  538MOL0     C72514   4.956   5.859  10.398  0.0201 -0.4468  0.4644
  538MOL0     C72515   4.830   5.840  10.312 -0.4290 -0.1731  0.3922
  538MOL0     C72516   4.777   5.973  10.253 -0.4007  0.7064 -0.1737
  538MOL0     C72517   4.664   5.955  10.150 -0.5745 -0.1983  0.1455
  538MOL0     C72518   4.540   5.882  10.208  0.5026 -0.6347 -0.0155
  538MOL0     O72519   4.426   5.899  10.120 -0.0788 -0.2761 -0.1255
  538MOL0     C72520   4.347   6.005  10.143  0.4939 -0.0323 -0.0843
  538MOL0     C72521   4.366   6.124  10.078  0.2186 -0.5759 -0.2176
  538MOL0     C72522   4.274   6.229  10.089  0.7768  0.3722 -0.8255
  538MOL0     C72523   4.291   6.356  10.010  0.5964  0.6365 -0.0353
  538MOL0     C72524   4.175   6.215  10.201 -0.1706  0.1305  0.9362
  538MOL0     C72525   4.063   6.313  10.226 -0.0899 -0.4748 -0.3529
  538MOL0     O72526   3.987   6.281  10.327 -0.0537 -0.0238 -0.3558
  538MOL0     C72527   3.868   6.342  10.338  0.1911  0.3436 -0.1294
  538MOL0     C72528   3.766   6.316  10.247 -0.9824 -0.1887  0.9485
  538MOL0     C72529   3.646   6.390  10.256  0.0349  0.9604 -0.0445
  538MOL0     C72530   3.632   6.487  10.361 -0.2662 -0.0596  0.2807
  538MOL0     O72531   3.519   6.570  10.364 -1.0431  0.9229 -0.0340
  538MOL0     C72532   3.420   6.570  10.265 -0.6248 -0.1384  0.5165
  538MOL0     C72533   3.332   6.690  10.262 -0.3721  0.2644 -0.1156
  538MOL0     C72534   3.281   6.743  10.397  0.0462 -1.0522 -0.6838
  538MOL0     C72535   3.208   6.639  10.483  0.2965 -0.0473  0.0854
  538MOL0     C72536   3.065   6.597  10.420 -0.3048 -0.1458  0.2578
  538MOL0     C72537   2.970   6.527  10.516 -0.1302  0.5079 -0.0671
  538MOL0     C72538   2.899   6.635  10.601  0.3651 -0.3970  0.1456
  538MOL0     C72539   2.828   6.568  10.718  0.5286  0.7596 -0.4663
  538MOL0    Cl72540   2.755   6.686  10.835 -0.3786  0.4979  0.0581
  538MOL0     C72541   3.729   6.495  10.456 -0.5977  0.3305  0.3479
  538MOL0     C72542   3.844   6.423  10.445 -0.0973  0.2868  0.7650
  538MOL0     O72543   4.053   6.414  10.161 -0.1635  0.2904 -0.2431
  538MOL0     C72544   4.173   6.095  10.268 -1.5976  0.1010 -0.9991
  538MOL0     C72545   4.257   5.994  10.238  0.6992 -0.9272 -0.0149
  538MOL0     N72546   5.091   5.851  10.357 -0.2123 -0.1539  0.3362
  538MOL0     N72547   5.154   5.901  10.458 -0.0242  0.4119 -0.5611
  538MOL0     C72548   5.020   5.046  10.853  0.3178 -0.4316  0.1082
  538MOL0     C72549   5.114   4.954  10.879  0.1450  0.2693 -1.1344
  538MOL0     C72550   5.361   4.663  11.180 -1.0599 -0.1376 -0.1356
  538MOL0     C72551   5.365   4.552  11.267  0.3145  0.8017  0.2834
  538MOL0     C72552   5.478   4.488  11.304  1.1081  0.2568 -0.1295
  538MOL0     C72553   5.605   4.539  11.277 -0.6056  0.5641 -0.6389
  538MOL0     O72554   5.735   4.491  11.310 -0.3626  0.0216 -0.7773
  538MOL0     C72555   5.752   4.375  11.393  0.3436  0.1710  0.6251
  538MOL0     C72556   5.776   4.407  11.539  1.0737 -1.3557 -0.3507
  538MOL0     C72557   5.848   4.286  11.616  0.0886 -0.2363 -0.5532
  538MOL0     C72558   5.852   4.314  11.760 -0.4538 -0.5226  0.1260
  538MOL0     C72559   5.970   4.404  11.791 -0.8825 -0.1714 -1.3674
  538MOL0     C72560   6.065   4.471  11.814  0.1769 -0.5884 -0.1710
  538MOL0     C72561   5.604   4.654  11.193 -0.4669  0.5924  0.0302
  538MOL0     C72562   5.488   4.716  11.137 -0.0304 -0.6671  0.3702
  538MOL0     H72563   5.068   4.944  11.225 -1.6529 -0.6369 -0.4718
  538MOL0     H72564   4.883   5.087  11.159 -0.0128  0.1684  0.5323
  538MOL0     H72565   4.746   5.371  10.911 -0.8433  0.2195  1.5318
  538MOL0     H72566   4.858   5.334  11.035 -1.0014 -2.4957  0.4482
  538MOL0     H72567   5.043   5.324  10.847  0.1361 -1.3988 -3.7792
  538MOL0     H72568   4.917   5.361  10.734  1.8938 -2.7842 -0.0689
  538MOL0     H72569   4.860   5.567  10.860 -0.2526 -0.8096 -0.3199
  538MOL0     H72570   4.956   5.522  10.995 -2.8432 -2.3157 -0.3847
  538MOL0     H72571   5.165   5.540  10.896  0.2294  1.0143 -0.4998
  538MOL0     H72572   5.102   5.547  10.731  0.9134  0.4548  0.2696
  538MOL0     H72573   4.989   5.758  10.785 -1.2035 -1.4089 -0.5280
  538MOL0     H72574   5.085   5.760  10.939 -2.7534 -2.3979  0.4946
  538MOL0     H72575   5.279   5.760  10.833  0.6519  5.1504  1.4727
  538MOL0     H72576   5.230   5.726  10.674 -1.1544 -3.2581  0.6159
  538MOL0     H72577   5.215   5.981  10.860 -1.3318  0.6308 -0.0901
  538MOL0     H72578   5.300   5.977  10.708 -0.1898 -1.3160 -1.6634
  538MOL0     H72579   5.104   6.113  10.672  0.3116 -1.2837 -1.4369
  538MOL0     H72580   5.007   5.999  10.753  1.4966 -2.1403  2.5984
  538MOL0     H72581   4.846   5.957  10.552  1.7960  3.2664  0.0210
  538MOL0     H72582   4.858   5.784  10.222 -2.7262  0.3650 -0.7348
  538MOL0     H72583   4.755   5.781  10.364 -0.7385 -0.3119 -0.2008
  538MOL0     H72584   4.867   6.020  10.213  0.5797 -0.5046  0.5308
  538MOL0     H72585   4.739   6.037  10.334 -1.1578 -0.5173  0.4735
  538MOL0     H72586   4.693   5.894  10.065  0.9244  0.9730 -0.2313
  538MOL0     H72587   4.638   6.055  10.115 -3.1281 -0.9206 -0.1853
  538MOL0     H72588   4.517   5.923  10.307  1.2139  0.1726 -0.1677
  538MOL0     H72589   4.561   5.775  10.207  0.7205 -0.6897  2.7099
  538MOL0     H72590   4.440   6.126   9.998  2.8070  0.1818  2.0489
  538MOL0     H72591   4.396   6.356   9.979  0.6212 -2.1581 -0.2046
  538MOL0     H72592   4.215   6.350   9.932 -0.2009  3.8056  0.3410
  538MOL0     H72593   4.271   6.445  10.071 -2.3827  0.7330 -0.9707
  538MOL0     H72594   3.794   6.250  10.165  2.3768 -0.3083  2.0486
  538MOL0     H72595   3.569   6.371  10.182  1.7563  0.6464 -1.8513
  538MOL0     H72596   3.465   6.558  10.166 -2.8132 -3.1732 -0.2529
  538MOL0     H72597   3.362   6.480  10.287  1.0744 -1.7045 -1.0749
  538MOL0     H72598   3.393   6.770  10.218  2.8596  0.1074  3.5050
  538MOL0     H72599   3.243   6.673  10.202 -2.2947  0.5653  2.4982
  538MOL0     H72600   3.201   6.815  10.377 -0.4902 -0.6946  2.2891
  538MOL0     H72601   3.362   6.786  10.456 -2.3730  2.0679  0.7164
  538MOL0     H72602   3.277   6.554  10.480 -2.9533 -2.8919 -1.4709
  538MOL0     H72603   3.194   6.676  10.585  0.5727  1.5094 -0.4065
  538MOL0     H72604   3.100   6.536  10.337  1.7074  1.6871 -0.3150
  538MOL0     H72605   3.014   6.680  10.370 -1.9244  0.0465  2.1090
  538MOL0     H72606   2.889   6.473  10.466 -2.1004  0.5443  2.8659
  538MOL0     H72607   3.030   6.460  10.578 -2.1236  0.3672  1.8194
  538MOL0     H72608   2.821   6.687  10.544 -0.5057 -1.5313  0.2750
  538MOL0     H72609   2.969   6.711  10.637  1.1966 -0.5496 -1.0945
  538MOL0     H72610   2.895   6.505  10.778  0.0148  2.0465  1.5395
  538MOL0     H72611   2.748   6.503  10.681 -0.2839  2.8648 -2.6764
  538MOL0     H72612   3.717   6.560  10.542 -0.3204 -0.7841  1.2460
  538MOL0     H72613   3.929   6.440  10.510  1.6589 -1.3337 -0.9668
  538MOL0     H72614   4.123   6.086  10.364 -0.1914  0.8313 -0.1707
  538MOL0     H72615   4.248   5.908  10.304  1.2012 -0.7908  0.2361
  538MOL0     H72616   5.000   5.074  10.750  1.6618 -1.5133 -0.4889
  538MOL0     H72617   5.167   4.901  10.801  0.3572 -0.3582 -0.5772
  538MOL0     H72618   5.270   4.510  11.298  0.6957 -0.3650 -0.1046
  538MOL0     H72619   5.473   4.398  11.365  2.0489  0.1182 -0.2345
  538MOL0     H72620   5.665   4.310  11.381 -0.0868  0.9126 -0.3416
  538MOL0     H72621   5.839   4.320  11.357 -0.8952  0.1165 -2.5980
  538MOL0     H72622   5.676   4.414  11.583  1.7765  0.1272  1.1239
  538MOL0     H72623   5.823   4.506  11.545  0.4143 -0.8952 -1.9761
  538MOL0     H72624   5.950   4.277  11.577  0.6285 -0.3982  0.8502
  538MOL0     H72625   5.790   4.194  11.604  1.1032 -1.1302  1.1237
  538MOL0     H72626   5.867   4.217  11.810  1.1246 -0.2026  0.3431
  538MOL0     H72627   5.763   4.360  11.803 -1.5849  0.9809 -3.4607
  538MOL0     H72628   6.161   4.507  11.843 -0.2988  0.1996  0.4615
  538MOL0     H72629   5.700   4.703  11.176  0.6712 -0.9134  1.7446
  538MOL0     H72630   5.502   4.802  11.073  5.7803 -2.1231 -0.9332
  539MOL0     O72631   4.811  10.178   6.955  0.3570  0.1688 -0.6339
  539MOL0     C72632   4.867  10.269   7.010  0.0485  0.0315 -0.2363
  539MOL0     O72633   4.808  10.383   7.071 -0.6675 -0.3853 -0.4934
  539MOL0     C72634   4.670  10.390   7.096 -0.3845 -1.1228  0.5379
  539MOL0     C72635   4.644  10.425   7.226 -0.2947  0.8012 -0.1787
  539MOL0     C72636   4.519  10.479   7.252 -0.2004 -0.2596  0.2217
  539MOL0     C72637   4.420  10.493   7.163  0.4112  0.3887 -0.0522
  539MOL0     O72638   4.297  10.551   7.179  0.5036  0.2057 -0.7460
  539MOL0     C72639   4.234  10.583   7.305  0.2460  0.0394 -0.1174
  539MOL0     C72640   4.165  10.719   7.292  0.1818  0.6053  0.5248
  539MOL0     C72641   4.052  10.699   7.182 -0.3224 -0.5798  0.0028
  539MOL0     C72642   3.963  10.820   7.182 -0.7838 -0.0908  1.0852
  539MOL0     C72643   3.849  10.796   7.087  0.5904 -0.4890  0.7196
  539MOL0     C72644   3.736  10.904   7.098  0.0181  0.1669 -1.2739
  539MOL0     C72645   3.636  10.892   6.989  0.4485  0.6116 -0.2700
  539MOL0     C72646   3.535  11.006   6.986 -0.8190 -0.7753  0.1125
  539MOL0     N72647   3.404  10.981   6.918 -0.2945 -0.0062 -0.2394
  539MOL0     C72648   3.402  10.924   6.795  0.6330  0.1973  1.1746
  539MOL0     C72649   3.268  10.898   6.781  0.0450 -0.0741  0.5582
  539MOL0     C72650   3.224  10.830   6.659  0.6863  0.9758 -0.4836
  539MOL0     C72651   3.235  10.909   6.529  0.0843 -0.0792 -0.4970
  539MOL0     C72652   3.172  11.057   6.550  0.6079  0.4721 -0.7152
  539MOL0     C72653   3.020  11.059   6.568  0.3966 -0.5543  0.8417
  539MOL0     O72654   2.989  11.192   6.575  0.0877 -0.7512 -0.1622
  539MOL0     C72655   2.859  11.226   6.590 -0.0483  0.2180  0.6020
  539MOL0     C72656   2.754  11.135   6.580 -0.0116 -0.5981 -0.1176
  539MOL0     C72657   2.618  11.177   6.587 -0.0079 -0.3357 -0.5339
  539MOL0     C72658   2.502  11.075   6.604 -0.0881 -0.9716 -0.3778
  539MOL0     C72659   2.591  11.314   6.580 -0.1634 -0.5348  0.0609
  539MOL0     C72660   2.464  11.371   6.567 -1.0758 -0.5488  0.8143
  539MOL0     O72661   2.380  11.341   6.668  1.1656  0.1177  0.7099
  539MOL0     C72662   2.245  11.376   6.662 -0.0704  0.2628  0.4626
  539MOL0     C72663   2.175  11.395   6.541  0.2615  0.4894  0.0819
  539MOL0     C72664   2.036  11.396   6.532 -0.1012  1.7650  0.7516
  539MOL0     C72665   1.959  11.389   6.650 -0.5670 -0.4800 -0.0824
  539MOL0     O72666   1.830  11.419   6.630  0.2664  0.1660  0.0687
  539MOL0     C72667   1.733  11.395   6.732 -0.1453 -0.3845 -0.7770
  539MOL0     C72668   1.590  11.405   6.687  0.4343  0.3622  0.1013
  539MOL0     C72669   1.471  11.397   6.790 -0.7732  0.4429  0.1126
  539MOL0     C72670   1.325  11.398   6.755  0.0799  0.3432  0.7464
  539MOL0     C72671   1.237  11.362   6.869 -0.0630 -0.1444  0.1075
  539MOL0     C72672   1.263  11.454   6.991  0.2215 -0.0400  0.4146
  539MOL0     C72673   1.160  11.432   7.107  0.3540 -1.4700  1.0304
  539MOL0     C72674   1.039  11.527   7.094  0.3461  0.3063  0.5918
  539MOL0    Cl72675   0.930  11.469   7.214  0.1027 -0.2711  0.2499
  539MOL0     C72676   2.025  11.382   6.777 -0.3811  0.2634  0.1403
  539MOL0     C72677   2.167  11.370   6.780  0.2107  0.2844  0.6816
  539MOL0     O72678   2.451  11.462   6.481 -0.4712 -0.1142 -0.1343
  539MOL0     C72679   2.694  11.411   6.590 -0.3419  0.9305 -0.6994
  539MOL0     C72680   2.826  11.361   6.600  0.4209 -1.0427  0.0969
  539MOL0     N72681   3.188  10.937   6.880  0.8131 -0.3860 -0.1365
  539MOL0     N72682   3.277  10.973   6.972 -0.0512 -0.6342 -0.5063
  539MOL0     C72683   4.453  10.441   7.030  0.6025 -0.1825 -0.2722
  539MOL0     C72684   4.573  10.378   7.006 -0.6311  0.2697  0.3476
  539MOL0     C72685   5.012  10.270   6.999 -0.9150 -0.0162 -0.0584
  539MOL0     C72686   5.092  10.356   7.071 -1.1023  0.1163 -0.0254
  539MOL0     C72687   5.230  10.335   7.087  0.3929 -0.3173  0.2878
  539MOL0     C72688   5.292  10.234   7.014 -0.3169  0.1274  0.4298
  539MOL0     O72689   5.426  10.195   7.002 -0.0627 -0.4504 -0.8896
  539MOL0     C72690   5.524  10.297   7.023 -0.0911  0.1544  0.0920
  539MOL0     C72691   5.529  10.402   6.910 -0.3313 -0.0738  0.5647
  539MOL0     C72692   5.575  10.329   6.778  0.2269  0.6448 -0.1485
  539MOL0     C72693   5.617  10.428   6.666  0.0439  0.6248 -0.1495
  539MOL0     C72694   5.752  10.484   6.681  0.2412  0.4408  0.5028
  539MOL0     C72695   5.851  10.538   6.726 -0.5066  1.0610  0.9187
  539MOL0     C72696   5.206  10.152   6.943 -0.0265  0.2194 -0.1795
  539MOL0     C72697   5.067  10.162   6.937 -1.6593  0.8171 -0.7743
  539MOL0     H72698   4.724  10.447   7.295 -0.3335 -1.2681  0.5702
  539MOL0     H72699   4.505  10.530   7.347  3.2343 -1.5405  1.5995
  539MOL0     H72700   4.164  10.503   7.332 -1.8710  2.1957  1.2093
  539MOL0     H72701   4.308  10.615   7.379 -0.9702  0.8850  0.7825
  539MOL0     H72702   4.118  10.741   7.389 -1.1662 -0.7965  0.2403
  539MOL0     H72703   4.234  10.798   7.262  0.5777 -1.5109 -5.4026
  539MOL0     H72704   4.090  10.693   7.080 -3.0798 -2.7570 -1.0188
  539MOL0     H72705   4.000  10.606   7.207  4.4642 -3.4816  0.4789
  539MOL0     H72706   3.925  10.847   7.282  0.5469  3.4828  0.7861
  539MOL0     H72707   4.024  10.899   7.139 -0.1349 -1.4883 -0.6573
  539MOL0     H72708   3.892  10.788   6.987 -0.6179 -0.8374  0.2068
  539MOL0     H72709   3.810  10.699   7.118 -2.0912  0.5652  0.9233
  539MOL0     H72710   3.691  10.897   7.198  0.3994  2.7474 -0.8321
  539MOL0     H72711   3.783  11.003   7.102 -0.5818  0.4203 -0.1894
  539MOL0     H72712   3.681  10.874   6.890 -0.6323  3.1131 -1.3017
  539MOL0     H72713   3.579  10.802   7.012  0.6966 -0.2546 -2.6603
  539MOL0     H72714   3.586  11.095   6.950 -0.7754 -1.5639 -1.8800
  539MOL0     H72715   3.504  11.024   7.089 -0.4583  0.4873  0.0176
  539MOL0     H72716   3.473  10.900   6.717 -1.9560  2.4810 -2.2107
  539MOL0     H72717   3.271  10.732   6.650 -1.4010 -0.0546 -0.7375
  539MOL0     H72718   3.117  10.811   6.673  0.2880  2.9135 -0.5963
  539MOL0     H72719   3.199  10.863   6.437  0.5931 -2.9158  0.6162
  539MOL0     H72720   3.340  10.932   6.507 -0.0585  0.7125 -0.3888
  539MOL0     H72721   3.197  11.109   6.458 -2.0275  0.9460 -1.2451
  539MOL0     H72722   3.216  11.102   6.639 -1.4475 -3.5744  2.7647
  539MOL0     H72723   2.967  11.009   6.650 -3.9661 -0.1347 -1.4370
  539MOL0     H72724   2.977  11.011   6.480 -1.3324 -0.1164  1.4116
  539MOL0     H72725   2.767  11.028   6.573  2.0877 -0.4963  1.3537
  539MOL0     H72726   2.458  11.097   6.702  0.0225 -1.2517 -0.2652
  539MOL0     H72727   2.427  11.086   6.526 -0.2186  2.2981  0.0579
  539MOL0     H72728   2.538  10.972   6.598 -2.3248 -1.8324  0.2813
  539MOL0     H72729   2.221  11.389   6.444 -1.3162  0.5246 -0.7056
  539MOL0     H72730   1.984  11.420   6.440  0.8185  0.5056 -0.1165
  539MOL0     H72731   1.741  11.298   6.781 -1.0327  0.7820  1.8446
  539MOL0     H72732   1.754  11.467   6.811 -1.3391  0.1001 -0.8683
  539MOL0     H72733   1.585  11.507   6.647 -0.2864  0.3445  0.1421
  539MOL0     H72734   1.589  11.330   6.608  2.7776 -0.7090  0.9871
  539MOL0     H72735   1.500  11.476   6.859  1.7561 -0.7825  0.5429
  539MOL0     H72736   1.476  11.297   6.835  0.4990 -0.7868 -2.5542
  539MOL0     H72737   1.305  11.494   6.706 -0.4376  0.7740  1.7760
  539MOL0     H72738   1.317  11.322   6.676 -0.3634  1.2263 -0.0810
  539MOL0     H72739   1.260  11.259   6.896  1.8996  0.0738 -0.5825
  539MOL0     H72740   1.130  11.373   6.848 -0.2796 -3.4566 -1.1546
  539MOL0     H72741   1.370  11.451   7.016 -0.3678 -1.3124  3.1806
  539MOL0     H72742   1.248  11.557   6.958 -0.0207 -1.0148 -2.8349
  539MOL0     H72743   1.216  11.458   7.197 -0.0926 -0.5226  1.0515
  539MOL0     H72744   1.122  11.329   7.109  1.6630 -1.9982  0.0286
  539MOL0     H72745   0.993  11.521   6.995 -0.7321 -0.4620  1.1306
  539MOL0     H72746   1.071  11.629   7.115 -0.6403 -0.0131  4.3696
  539MOL0     H72747   1.978  11.374   6.874  1.9649 -2.5867  1.1668
  539MOL0     H72748   2.222  11.346   6.871  0.3289 -0.3666  0.4429
  539MOL0     H72749   2.670  11.512   6.620 -3.1518 -0.3080  1.8594
  539MOL0     H72750   2.906  11.435   6.598  1.4086 -2.0652  0.6398
  539MOL0     H72751   4.377  10.458   6.955 -2.3117 -1.2080  2.2437
  539MOL0     H72752   4.601  10.339   6.909  1.4315  2.1659  0.1073
  539MOL0     H72753   5.050  10.440   7.124  1.1157  0.6645  0.9757
  539MOL0     H72754   5.282  10.397   7.159 -1.5426 -0.4788  1.9345
  539MOL0     H72755   5.513  10.344   7.121 -0.9844  1.3579 -0.5518
  539MOL0     H72756   5.620  10.245   7.030 -0.8186 -1.1017  1.4527
  539MOL0     H72757   5.605  10.475   6.940 -1.3546  1.2990 -0.1046
  539MOL0     H72758   5.442  10.465   6.891 -0.2718  0.1115  0.8884
  539MOL0     H72759   5.492  10.273   6.733  1.3417 -1.4963  0.3259
  539MOL0     H72760   5.654  10.257   6.800 -1.0997 -1.3356 -1.4415
  539MOL0     H72761   5.545  10.511   6.664 -2.1901 -0.9779  3.6225
  539MOL0     H72762   5.613  10.382   6.567 -1.2163 -1.7063  0.9155
  539MOL0     H72763   5.936  10.591   6.765 -0.9756  3.5290 -1.1562
  539MOL0     H72764   5.265  10.071   6.902  0.5934  1.2631 -1.4163
  539MOL0     H72765   5.020  10.074   6.894 -2.0313  0.5599  0.1401
  540MOL0     O72766   2.057   3.446   7.398 -0.0690 -0.9889  0.2109
  540MOL0     C72767   2.021   3.383   7.501 -0.4237 -1.1414  0.1061
  540MOL0     O72768   1.894   3.366   7.544 -0.0196  0.3622  0.3125
  540MOL0     C72769   1.789   3.417   7.466 -0.3852 -0.1713  0.5798
  540MOL0     C72770   1.697   3.500   7.526  0.4639  0.2524 -0.6611
  540MOL0     C72771   1.583   3.538   7.470 -0.4068 -0.6503  0.5905
  540MOL0     C72772   1.555   3.497   7.341  0.0732 -0.6213  1.3472
  540MOL0     O72773   1.425   3.527   7.302  0.4586 -0.1913  0.5994
  540MOL0     C72774   1.369   3.442   7.196  1.2805 -0.7987 -0.1234
  540MOL0     C72775   1.221   3.472   7.189  0.0755  0.3099  0.1657
  540MOL0     C72776   1.184   3.616   7.166  0.1720 -0.1688  0.5000
  540MOL0     C72777   1.052   3.645   7.089 -0.2297  0.1537  0.3359
  540MOL0     C72778   0.936   3.566   7.168 -0.4861  0.0912 -0.4142
  540MOL0     C72779   0.802   3.594   7.111  0.2439 -0.4454  0.3675
  540MOL0     C72780   0.696   3.522   7.197  0.3629  0.2163  0.2061
  540MOL0     C72781   0.557   3.529   7.125  0.0713  0.1627  0.4819
  540MOL0     N72782   0.555   3.470   6.994 -0.2859  0.3188 -0.6502
  540MOL0     C72783   0.536   3.542   6.880  0.3494 -0.5522  0.3343
  540MOL0     C72784   0.567   3.447   6.788 -0.6557 -0.1742 -0.3665
  540MOL0     C72785   0.584   3.500   6.645  0.4760  0.5263 -0.9232
  540MOL0     C72786   0.464   3.476   6.559  0.5129  0.0661 -0.0634
  540MOL0     C72787   0.346   3.567   6.613 -0.4111  0.4345 -0.6001
  540MOL0     C72788   0.218   3.526   6.548  0.1452 -0.6000 -0.1834
  540MOL0     O72789   0.187   3.396   6.609 -0.2388 -0.2496 -0.0128
  540MOL0     C72790   0.051   3.381   6.642  1.1584 -0.3415 -0.2001
  540MOL0     C72791   0.007   3.370   6.776  0.6197  1.2798  0.5589
  540MOL0     C72792  -0.134   3.367   6.813  0.1092 -0.1188 -0.3715
  540MOL0     C72793  -0.172   3.357   6.952 -0.7461 -0.8709  0.6204
  540MOL0     C72794  -0.228   3.392   6.708  0.0749  0.1376  0.2979
  540MOL0     C72795  -0.376   3.417   6.733 -0.2700  0.1856  0.5333
  540MOL0     O72796  -0.448   3.359   6.830 -0.3425 -0.4929 -0.0886
  540MOL0     C72797  -0.584   3.370   6.817 -0.1466  0.4278 -0.8418
  540MOL0     C72798  -0.644   3.277   6.735 -0.4305  0.7612  1.1163
  540MOL0     C72799  -0.783   3.288   6.722  0.4941  0.3830  0.6133
  540MOL0     C72800  -0.863   3.383   6.788  0.2988 -0.5220 -0.1230
  540MOL0     O72801  -0.993   3.393   6.754  0.1050 -0.3194 -0.3916
  540MOL0     C72802  -1.086   3.456   6.842 -0.5360  0.7557  0.4576
  540MOL0     C72803  -1.231   3.451   6.783 -0.1550 -0.6427 -0.6268
  540MOL0     C72804  -1.330   3.533   6.873  0.1451  0.0365 -0.1326
  540MOL0     C72805  -1.454   3.567   6.789  0.0819  0.4866  0.1655
  540MOL0     C72806  -1.555   3.658   6.862  0.7225  0.2309 -0.6709
  540MOL0     C72807  -1.661   3.726   6.772  0.2166  0.1407 -0.5481
  540MOL0     C72808  -1.785   3.627   6.746 -1.0691  0.3490 -0.8564
  540MOL0     C72809  -1.883   3.692   6.657  0.2532 -0.5894 -1.1502
  540MOL0    Cl72810  -2.043   3.606   6.649  0.1015 -0.1630 -0.0932
  540MOL0     C72811  -0.790   3.467   6.878  0.7037 -0.3949 -0.7518
  540MOL0     C72812  -0.654   3.469   6.892  0.2342  0.0049 -0.4019
  540MOL0     O72813  -0.412   3.507   6.658  0.6535 -0.2563  0.1340
  540MOL0     C72814  -0.185   3.414   6.573  0.6752  0.4333 -0.0032
  540MOL0     C72815  -0.048   3.412   6.548 -0.4462  0.6462 -0.3768
  540MOL0     N72816   0.594   3.326   6.844  0.5228 -0.2909 -0.3269
  540MOL0     N72817   0.589   3.341   6.968  0.2523  0.2105 -0.4168
  540MOL0     C72818   1.645   3.427   7.262 -0.1222  0.3938 -0.0123
  540MOL0     C72819   1.759   3.383   7.329 -0.1389 -0.2173 -0.0323
  540MOL0     C72820   2.129   3.330   7.584  0.4815 -0.4358  0.5407
  540MOL0     C72821   2.107   3.295   7.714 -0.4983  0.1375 -0.2259
  540MOL0     C72822   2.213   3.256   7.795  1.5059 -0.4415  0.2046
  540MOL0     C72823   2.346   3.254   7.742 -0.9034 -0.8536  0.6878
  540MOL0     O72824   2.446   3.224   7.833  1.3419  0.2635  0.0993
  540MOL0     C72825   2.572   3.174   7.786 -0.7499 -0.0360  0.4515
  540MOL0     C72826   2.650   3.096   7.897  0.2854 -0.1020  0.7223
  540MOL0     C72827   2.569   2.970   7.947 -0.0319 -0.0973  0.1092
  540MOL0     C72828   2.630   2.907   8.058  0.4609 -0.9317 -1.3638
  540MOL0     C72829   2.763   2.851   8.035 -0.2559 -0.0099  0.2086
  540MOL0     C72830   2.873   2.807   8.017 -0.0089  0.1769 -0.4172
  540MOL0     C72831   2.364   3.287   7.603  0.3668 -0.7836 -0.3059
  540MOL0     C72832   2.258   3.333   7.528  0.4721 -0.6523 -0.1219
  540MOL0     H72833   1.719   3.538   7.625  0.4623 -0.2508 -0.4664
  540MOL0     H72834   1.517   3.606   7.522 -0.8123 -0.6038  0.0225
  540MOL0     H72835   1.423   3.446   7.101  0.8992 -0.4690 -0.3317
  540MOL0     H72836   1.366   3.338   7.228  0.6730 -0.5475  0.6913
  540MOL0     H72837   1.187   3.399   7.115 -0.0847 -1.5859  2.0194
  540MOL0     H72838   1.164   3.446   7.278 -2.7812  2.9465 -0.7077
  540MOL0     H72839   1.186   3.660   7.267  2.1786 -0.2003  0.5150
  540MOL0     H72840   1.262   3.667   7.108 -0.2941 -0.7562 -0.6788
  540MOL0     H72841   1.038   3.752   7.070  0.2894  0.1481 -0.1040
  540MOL0     H72842   1.065   3.601   6.989 -1.7457  0.2696  0.0611
  540MOL0     H72843   0.952   3.458   7.172  2.7205  0.4913  0.6281
  540MOL0     H72844   0.933   3.592   7.274  1.0993 -2.6287  0.3906
  540MOL0     H72845   0.784   3.701   7.115  0.9612 -0.3448  1.4281
  540MOL0     H72846   0.795   3.563   7.006 -2.2366  1.1796 -0.0205
  540MOL0     H72847   0.714   3.415   7.209 -0.1094 -0.0967 -1.5692
  540MOL0     H72848   0.691   3.573   7.294 -1.0044 -0.3782  0.4712
  540MOL0     H72849   0.531   3.635   7.116 -0.8377 -0.1830 -1.6350
  540MOL0     H72850   0.489   3.475   7.192  1.1468 -3.1160 -0.8327
  540MOL0     H72851   0.524   3.650   6.879  0.8378 -0.4992 -0.0420
  540MOL0     H72852   0.600   3.608   6.656 -2.2545  0.8110  1.4193
  540MOL0     H72853   0.675   3.456   6.603  1.9319  0.9287  1.6609
  540MOL0     H72854   0.446   3.369   6.561 -1.0307  0.3082  1.6857
  540MOL0     H72855   0.478   3.493   6.452 -2.0869 -1.7319 -0.7543
  540MOL0     H72856   0.367   3.671   6.584  0.1845 -0.4721 -3.6907
  540MOL0     H72857   0.341   3.546   6.720 -0.0730 -3.6138 -1.2153
  540MOL0     H72858   0.213   3.515   6.439 -1.9522 -0.8968 -0.0978
  540MOL0     H72859   0.146   3.600   6.582 -0.5621 -2.6209  3.1732
  540MOL0     H72860   0.086   3.351   6.848 -0.5293 -1.8640  1.1872
  540MOL0     H72861  -0.106   3.419   7.013 -0.3008 -1.4096  0.6853
  540MOL0     H72862  -0.270   3.404   6.966  0.8062  2.8027  0.4119
  540MOL0     H72863  -0.167   3.253   6.986  1.7800 -0.9994  0.0346
  540MOL0     H72864  -0.590   3.213   6.665 -1.9633  1.0709 -0.4250
  540MOL0     H72865  -0.817   3.223   6.642  1.7201 -0.0760  0.4355
  540MOL0     H72866  -1.087   3.398   6.935 -0.8032  1.2454  0.7634
  540MOL0     H72867  -1.054   3.557   6.869 -1.4465  1.4727 -1.0148
  540MOL0     H72868  -1.227   3.496   6.683  1.2785  0.6525 -0.0352
  540MOL0     H72869  -1.268   3.348   6.781  0.9744 -1.0686  0.0551
  540MOL0     H72870  -1.279   3.626   6.899 -0.7250  1.0953 -1.9704
  540MOL0     H72871  -1.353   3.467   6.957  1.1441  0.0006  0.1157
  540MOL0     H72872  -1.408   3.623   6.707  1.9199  0.7582  1.3433
  540MOL0     H72873  -1.506   3.478   6.753 -0.4591  1.4091 -1.4691
  540MOL0     H72874  -1.505   3.733   6.925 -0.8223  2.7860 -2.2807
  540MOL0     H72875  -1.610   3.596   6.933  2.5498  1.6237  2.1945
  540MOL0     H72876  -1.693   3.820   6.817  1.7751  1.0633 -1.3030
  540MOL0     H72877  -1.623   3.766   6.678 -2.6630  0.3352 -1.7262
  540MOL0     H72878  -1.812   3.583   6.843  2.9131 -0.9623 -0.1269
  540MOL0     H72879  -1.746   3.541   6.690 -3.0147 -3.0718  2.5964
  540MOL0     H72880  -1.836   3.708   6.560  2.7094 -0.1609  0.0315
  540MOL0     H72881  -1.905   3.791   6.698 -0.0558 -1.5679  1.2228
  540MOL0     H72882  -0.852   3.538   6.932  0.0576  0.3891 -2.4629
  540MOL0     H72883  -0.610   3.540   6.961 -3.4201  0.5718  1.6178
  540MOL0     H72884  -0.251   3.430   6.489  0.2259 -3.6796 -0.6211
  540MOL0     H72885  -0.011   3.437   6.450  1.6567 -1.8731 -0.3395
  540MOL0     H72886   1.624   3.398   7.159 -0.4601  1.4021 -0.2327
  540MOL0     H72887   1.824   3.319   7.270  1.0513 -0.7827  1.8061
  540MOL0     H72888   2.006   3.290   7.754 -1.5903  1.2770 -2.6025
  540MOL0     H72889   2.187   3.224   7.896  0.8664 -0.0781  0.1560
  540MOL0     H72890   2.554   3.096   7.712 -0.9901 -0.3197  0.8043
  540MOL0     H72891   2.636   3.254   7.748 -1.0990  0.7474  1.4605
  540MOL0     H72892   2.661   3.156   7.988  1.6992 -1.0564  1.2144
  540MOL0     H72893   2.747   3.060   7.862 -1.4205 -3.1797 -1.3671
  540MOL0     H72894   2.568   2.901   7.862 -1.7942 -0.8322  0.6799
  540MOL0     H72895   2.465   2.995   7.972 -1.0296 -2.0518 -1.7024
  540MOL0     H72896   2.563   2.823   8.080  1.3043 -1.5945 -1.2398
  540MOL0     H72897   2.631   2.973   8.145  0.2867 -1.2762 -1.0964
  540MOL0     H72898   2.968   2.758   8.015 -0.7684 -1.3623 -0.6638
  540MOL0     H72899   2.467   3.287   7.568  0.6073 -3.6330  0.1519
  540MOL0     H72900   2.279   3.368   7.427  3.3478 -0.4997  0.4604
  541MOL0     O72901   2.444   3.901   8.927 -0.4950  0.5073  0.2766
  541MOL0     C72902   2.560   3.912   8.894  0.2037  0.5727 -0.2972
  541MOL0     O72903   2.612   4.002   8.805 -0.3051 -0.1450 -0.2715
  541MOL0     C72904   2.549   4.121   8.785 -0.0125  1.0019 -0.1253
  541MOL0     C72905   2.473   4.143   8.678 -0.5152  0.0999  0.0036
  541MOL0     C72906   2.427   4.273   8.644 -0.4679 -0.1365 -0.3591
  541MOL0     C72907   2.466   4.383   8.725 -0.6755 -0.1166  0.1135
  541MOL0     O72908   2.416   4.509   8.691 -0.6370  0.7374  0.5174
  541MOL0     C72909   2.392   4.602   8.800 -0.5190  0.2738 -0.7333
  541MOL0     C72910   2.268   4.680   8.747  0.6162  0.0023 -0.9293
  541MOL0     C72911   2.129   4.614   8.771  0.2480 -1.0947  0.5191
  541MOL0     C72912   2.025   4.706   8.699  0.9225 -0.0973 -0.2974
  541MOL0     C72913   1.882   4.660   8.723  0.3261  0.2456 -0.3846
  541MOL0     C72914   1.766   4.761   8.690  0.1252 -0.2132  0.1978
  541MOL0     C72915   1.620   4.712   8.695 -0.1946 -0.2986 -0.3731
  541MOL0     C72916   1.512   4.823   8.654 -0.3266 -0.1327  0.7242
  541MOL0     N72917   1.369   4.779   8.658 -0.1465 -0.0519 -0.4993
  541MOL0     C72918   1.262   4.858   8.705  0.1747 -0.0204  0.4877
  541MOL0     C72919   1.157   4.791   8.652  0.4831 -0.5512  0.2611
  541MOL0     C72920   1.009   4.822   8.654  0.3662  0.0471 -0.4478
  541MOL0     C72921   0.951   4.850   8.794 -0.2831 -0.0278  0.0699
  541MOL0     C72922   0.815   4.909   8.786  0.7059  0.3304 -0.0475
  541MOL0     C72923   0.702   4.805   8.789 -0.0842 -0.5735  0.0030
  541MOL0     O72924   0.613   4.842   8.895 -0.1181  0.2062  0.0494
  541MOL0     C72925   0.484   4.795   8.882  0.8183  0.4334 -0.0516
  541MOL0     C72926   0.437   4.696   8.793  0.0650  0.1655 -0.0381
  541MOL0     C72927   0.309   4.677   8.755 -0.0017 -0.2416 -0.0875
  541MOL0     C72928   0.276   4.549   8.684 -0.7154  0.3243  0.8758
  541MOL0     C72929   0.211   4.764   8.807  0.5489 -0.2141  0.3532
  541MOL0     C72930   0.061   4.763   8.762 -0.6136  0.1121  0.2309
  541MOL0     O72931  -0.022   4.852   8.818 -0.0549 -0.5660  0.1999
  541MOL0     C72932  -0.157   4.854   8.798  0.7030 -0.6030  0.4627
  541MOL0     C72933  -0.211   4.955   8.867 -1.3532 -0.1719  0.0339
  541MOL0     C72934  -0.349   4.973   8.887 -0.3009 -0.7952  0.6583
  541MOL0     C72935  -0.432   4.884   8.816 -0.9017 -0.3004 -0.3795
  541MOL0     O72936  -0.570   4.900   8.825 -1.0826 -1.2142 -0.0779
  541MOL0     C72937  -0.646   4.783   8.794  0.3216  0.0505 -0.1258
  541MOL0     C72938  -0.795   4.804   8.828  0.1237 -0.0282 -0.4516
  541MOL0     C72939  -0.828   4.804   8.978  0.2702  0.1510  0.3844
  541MOL0     C72940  -0.964   4.871   8.993 -0.6391 -0.3045  0.3534
  541MOL0     C72941  -1.032   4.831   9.128 -0.3356 -0.4960  0.8069
  541MOL0     C72942  -0.952   4.877   9.252 -0.2370 -0.9751 -0.0385
  541MOL0     C72943  -0.927   5.033   9.273 -0.2881  0.5336 -0.9611
  541MOL0     C72944  -1.057   5.116   9.300 -0.3399  0.0851  0.7112
  541MOL0    Cl72945  -1.156   5.139   9.151 -0.2563  0.2289  0.6213
  541MOL0     C72946  -0.380   4.781   8.743 -1.1001 -0.1836 -0.0463
  541MOL0     C72947  -0.240   4.774   8.720  0.7597  0.2803  0.2230
  541MOL0     O72948   0.030   4.680   8.676 -0.4740 -0.6158  1.0240
  541MOL0     C72949   0.249   4.859   8.907 -0.5187  0.4619  0.6179
  541MOL0     C72950   0.382   4.866   8.942  0.0060 -0.3472 -0.2750
  541MOL0     N72951   1.196   4.692   8.575  0.1795  0.4814 -0.0689
  541MOL0     N72952   1.326   4.672   8.585  0.1943 -0.0888 -0.3519
  541MOL0     C72953   2.564   4.362   8.830  0.0047  0.0932  0.5728
  541MOL0     C72954   2.597   4.233   8.860  1.0501 -0.3024  0.4562
  541MOL0     C72955   2.647   3.806   8.952 -0.2181 -0.1788  0.2410
  541MOL0     C72956   2.607   3.714   9.050 -0.6262 -0.5552  0.3801
  541MOL0     C72957   2.701   3.620   9.086  0.4370  0.4444 -0.3352
  541MOL0     C72958   2.833   3.606   9.031  0.6011  0.6736 -1.2840
  541MOL0     O72959   2.911   3.502   9.072 -0.1729  0.2697  0.7860
  541MOL0     C72960   2.882   3.414   9.186 -1.0297 -0.1180  0.6753
  541MOL0     C72961   2.996   3.303   9.199 -0.5840 -0.1390 -0.3617
  541MOL0     C72962   2.992   3.193   9.085 -0.1707 -0.1396 -0.0247
  541MOL0     C72963   3.125   3.119   9.067  0.1123  0.2275 -0.2812
  541MOL0     C72964   3.223   3.216   9.012  0.6555  0.3320  0.2050
  541MOL0     C72965   3.303   3.289   8.962  0.6679 -0.3557  0.1001
  541MOL0     C72966   2.875   3.710   8.949 -0.5497  0.6291  0.1967
  541MOL0     C72967   2.779   3.799   8.901 -1.0755 -0.9956 -0.6504
  541MOL0     H72968   2.446   4.053   8.623  1.1886 -0.9927  0.9005
  541MOL0     H72969   2.366   4.285   8.555  3.2963 -1.5957 -3.4548
  541MOL0     H72970   2.378   4.556   8.898  1.5397  0.9118 -0.0842
  541MOL0     H72971   2.486   4.659   8.806  0.0381 -0.5287 -1.4434
  541MOL0     H72972   2.265   4.775   8.801  0.7665 -0.7626  0.4896
  541MOL0     H72973   2.292   4.713   8.646  0.0667 -1.5734 -1.6160
  541MOL0     H72974   2.128   4.514   8.725 -1.2462 -1.4634  1.3041
  541MOL0     H72975   2.113   4.616   8.879  4.2406  0.5091  1.2713
  541MOL0     H72976   2.030   4.809   8.734  2.0303 -0.2734  0.1135
  541MOL0     H72977   2.046   4.695   8.593  1.9845 -1.5667  0.0299
  541MOL0     H72978   1.866   4.570   8.662 -0.7285 -0.0821  0.3362
  541MOL0     H72979   1.866   4.631   8.827 -2.8282 -2.8623 -1.5173
  541MOL0     H72980   1.772   4.854   8.748  0.5085  1.0655 -1.7765
  541MOL0     H72981   1.778   4.800   8.588 -0.0204  0.0973  0.2978
  541MOL0     H72982   1.610   4.618   8.639  0.8430 -2.3471  2.5811
  541MOL0     H72983   1.605   4.687   8.801 -0.2839 -1.2202 -0.5921
  541MOL0     H72984   1.530   4.846   8.549  1.1856  0.4302  1.0789
  541MOL0     H72985   1.527   4.909   8.720  1.1373  0.2202 -0.0359
  541MOL0     H72986   1.263   4.943   8.772 -1.9497 -0.0764  0.6655
  541MOL0     H72987   0.995   4.909   8.589  0.0392  0.9918  0.8304
  541MOL0     H72988   0.964   4.737   8.601 -0.5807  0.6873 -0.7046
  541MOL0     H72989   1.015   4.927   8.840 -1.3316 -0.0638  1.6777
  541MOL0     H72990   0.954   4.759   8.855 -0.8456  0.8219  1.4137
  541MOL0     H72991   0.809   4.976   8.700  0.0815 -0.4864 -0.6570
  541MOL0     H72992   0.811   4.975   8.873 -1.2215  0.0190  0.1401
  541MOL0     H72993   0.743   4.705   8.804  0.1626 -0.5895 -0.7369
  541MOL0     H72994   0.647   4.809   8.694  0.5585  1.2013 -0.3235
  541MOL0     H72995   0.507   4.641   8.731 -2.6110 -0.8861 -2.3298
  541MOL0     H72996   0.365   4.488   8.672 -0.5577  1.0476 -2.9223
  541MOL0     H72997   0.192   4.494   8.727 -0.3949  0.8187  2.1754
  541MOL0     H72998   0.245   4.566   8.580 -1.8370 -1.2400  0.9179
  541MOL0     H72999  -0.138   5.015   8.920 -1.4465 -1.9369  2.2820
  541MOL0     H73000  -0.391   5.049   8.952 -1.2747 -1.9668  1.4446
  541MOL0     H73001  -0.639   4.759   8.687 -1.7479  0.7520 -0.4811
  541MOL0     H73002  -0.614   4.692   8.845 -2.7210 -1.5371 -0.7883
  541MOL0     H73003  -0.830   4.893   8.776  0.3022 -0.2541 -0.9582
  541MOL0     H73004  -0.846   4.722   8.778 -0.1487 -0.0718 -0.1030
  541MOL0     H73005  -0.752   4.854   9.038 -0.4286 -0.4576  1.8508
  541MOL0     H73006  -0.840   4.699   9.006 -3.0240 -0.1421 -1.5642
  541MOL0     H73007  -0.935   4.975   8.975 -0.1280 -0.2611  1.3600
  541MOL0     H73008  -1.027   4.844   8.908  0.0702 -0.5893 -0.0826
  541MOL0     H73009  -1.037   4.723   9.139  1.4446 -0.7927 -0.8631
  541MOL0     H73010  -1.132   4.877   9.125 -0.7405 -0.8333 -6.0450
  541MOL0     H73011  -1.003   4.836   9.339  1.5344 -0.4682  1.2943
  541MOL0     H73012  -0.859   4.820   9.251 -0.9257 -2.1473 -0.5969
  541MOL0     H73013  -0.862   5.066   9.192  1.0929 -1.6891 -0.8437
  541MOL0     H73014  -0.862   5.043   9.360 -0.2908 -0.4130 -0.8443
  541MOL0     H73015  -1.026   5.214   9.337  0.9831  0.3855 -1.0464
  541MOL0     H73016  -1.116   5.058   9.371  1.2971 -0.2842  1.8191
  541MOL0     H73017  -0.445   4.716   8.685 -2.7570  1.7203 -0.4476
  541MOL0     H73018  -0.185   4.715   8.647  1.6658  1.7709 -0.3373
  541MOL0     H73019   0.167   4.919   8.945 -3.4562 -2.0070 -1.3816
  541MOL0     H73020   0.411   4.925   9.028  3.8950 -0.9792 -0.9271
  541MOL0     H73021   2.595   4.444   8.894  0.6458 -0.2695  0.7425
  541MOL0     H73022   2.659   4.219   8.948  2.4202 -0.3857 -0.4814
  541MOL0     H73023   2.508   3.732   9.089 -1.4419  0.6882 -2.0915
  541MOL0     H73024   2.681   3.562   9.176 -1.8075  1.3030 -0.2365
  541MOL0     H73025   2.867   3.493   9.260  1.0556  2.7174 -1.6763
  541MOL0     H73026   2.789   3.360   9.165 -0.5245 -2.1004  3.1791
  541MOL0     H73027   2.998   3.261   9.300  3.3597 -0.8459 -0.5750
  541MOL0     H73028   3.091   3.354   9.179 -1.1768  0.8283 -0.8310
  541MOL0     H73029   2.979   3.236   8.985  2.3026 -0.1481 -0.4060
  541MOL0     H73030   2.904   3.129   9.099  0.0366 -0.3446  0.3561
  541MOL0     H73031   3.112   3.039   8.994 -0.0247 -0.2776  0.2811
  541MOL0     H73032   3.155   3.075   9.163  2.0411  0.4720 -0.7319
  541MOL0     H73033   3.395   3.339   8.939  1.2423 -0.5457  1.8475
  541MOL0     H73034   2.980   3.709   8.921  0.8769  1.8395  4.6653
  541MOL0     H73035   2.823   3.863   8.824  0.2556 -0.7158  0.3085
  542MOL0     O73036   2.998   0.717   3.732  0.5031  0.5189 -0.8998
  542MOL0     C73037   3.037   0.824   3.766 -0.0592 -0.0197 -0.8516
  542MOL0     O73038   2.957   0.921   3.819 -0.4177 -0.1721  0.0854
  542MOL0     C73039   2.819   0.899   3.811 -0.1844  0.0359  0.4374
  542MOL0     C73040   2.756   0.858   3.694  0.4838 -0.1917  0.7296
  542MOL0     C73041   2.615   0.851   3.689  0.7277 -0.1865  0.7898
  542MOL0     C73042   2.537   0.881   3.800  0.7967 -0.3483 -0.0314
  542MOL0     O73043   2.392   0.879   3.809  0.1508 -0.4952 -0.5452
  542MOL0     C73044   2.329   0.882   3.677  0.0244  0.0530 -1.4894
  542MOL0     C73045   2.181   0.892   3.692 -0.0569 -0.3811  0.9407
  542MOL0     C73046   2.115   0.785   3.778  0.4907 -0.2818 -0.2662
  542MOL0     C73047   1.969   0.831   3.782  0.5951  0.5650  0.0498
  542MOL0     C73048   1.868   0.716   3.799 -0.8596  0.0086 -0.2530
  542MOL0     C73049   1.897   0.614   3.921 -0.4431  0.3259  0.6192
  542MOL0     C73050   1.889   0.688   4.065  0.2869  0.1504 -0.1794
  542MOL0     C73051   1.916   0.600   4.187  0.4085  0.3626  1.0983
  542MOL0     N73052   1.799   0.511   4.202  0.1984  0.1097  0.2442
  542MOL0     C73053   1.730   0.516   4.320 -0.7818  0.7800  0.1307
  542MOL0     C73054   1.631   0.417   4.310 -0.8787 -0.6156  0.3000
  542MOL0     C73055   1.554   0.363   4.424 -0.3050  0.8229 -0.3702
  542MOL0     C73056   1.410   0.399   4.415  0.6450  0.1676 -0.3827
  542MOL0     C73057   1.352   0.353   4.551 -0.3445  0.1222 -0.0338
  542MOL0     C73058   1.196   0.339   4.548 -0.1006  0.5585 -0.2916
  542MOL0     O73059   1.153   0.283   4.674 -0.0293 -0.2722  0.3880
  542MOL0     C73060   1.033   0.310   4.721  0.2559 -0.7397 -0.0726
  542MOL0     C73061   0.998   0.256   4.844  0.4636 -0.7721 -0.6249
  542MOL0     C73062   0.868   0.261   4.894 -0.0232 -0.0901  0.7464
  542MOL0     C73063   0.837   0.189   5.023  1.4655  0.6498 -0.4384
  542MOL0     C73064   0.767   0.338   4.827  0.9757  0.3573 -1.1154
  542MOL0     C73065   0.627   0.346   4.874 -0.0953  0.4975 -0.2901
  542MOL0     O73066   0.547   0.439   4.812 -1.0081 -0.2920  0.3217
  542MOL0     C73067   0.410   0.440   4.846 -0.7020 -0.5907 -0.1656
  542MOL0     C73068   0.359   0.552   4.909 -0.0368  0.3251  0.2170
  542MOL0     C73069   0.221   0.544   4.943  0.3329 -0.0843  0.2207
  542MOL0     C73070   0.141   0.433   4.937 -0.3167  0.3648  0.5844
  542MOL0     O73071   0.002   0.434   4.962 -0.3139  0.4771 -0.5513
  542MOL0     C73072  -0.085   0.322   4.949  0.2006 -0.2011 -0.3277
  542MOL0     C73073  -0.215   0.357   5.024  0.9929  0.0481 -0.3640
  542MOL0     C73074  -0.296   0.455   4.933  0.2093 -0.4284  0.3306
  542MOL0     C73075  -0.423   0.519   4.994  0.1737 -0.1987  0.3468
  542MOL0     C73076  -0.467   0.637   4.895 -0.3918  1.1448  0.5611
  542MOL0     C73077  -0.582   0.714   4.958  0.5187 -0.1823  0.7563
  542MOL0     C73078  -0.608   0.848   4.878 -0.5212 -0.3318  0.3545
  542MOL0     C73079  -0.717   0.937   4.933  0.4028 -1.1267  0.1666
  542MOL0    Cl73080  -0.867   0.843   4.973 -0.1000  0.2505  0.0909
  542MOL0     C73081   0.205   0.326   4.868 -0.3158 -0.9709 -0.1978
  542MOL0     C73082   0.332   0.330   4.828 -0.0810 -0.6338  0.1005
  542MOL0     O73083   0.581   0.261   4.948  0.5873  0.1240  0.3664
  542MOL0     C73084   0.800   0.383   4.701 -0.3712 -0.1573 -0.2524
  542MOL0     C73085   0.935   0.375   4.650  0.2987 -0.2819 -0.1251
  542MOL0     N73086   1.643   0.353   4.188 -0.8986 -0.3253  0.1678
  542MOL0     N73087   1.745   0.409   4.125 -0.0694  1.2620 -1.0220
  542MOL0     C73088   2.603   0.920   3.921  0.5988  0.5690  0.0608
  542MOL0     C73089   2.737   0.932   3.916 -0.8312  0.5040  0.2459
  542MOL0     C73090   3.180   0.853   3.771  0.3122  0.1550 -0.0246
  542MOL0     C73091   3.274   0.748   3.725  0.1666 -0.6769 -0.1977
  542MOL0     C73092   3.410   0.771   3.722  0.8534 -0.1482 -0.3932
  542MOL0     C73093   3.457   0.900   3.754 -0.4489  0.4212 -0.5171
  542MOL0     O73094   3.597   0.906   3.759 -0.1019 -0.2802  0.0524
  542MOL0     C73095   3.651   1.026   3.841  0.0422  0.1027 -0.0275
  542MOL0     C73096   3.797   1.003   3.892  0.9364  0.2750  1.0837
  542MOL0     C73097   3.890   1.009   3.774 -0.0702 -0.4908 -1.1071
  542MOL0     C73098   4.031   1.065   3.805 -0.3061 -0.4651  0.4939
  542MOL0     C73099   4.085   1.016   3.932  0.6667 -0.2020 -0.1537
  542MOL0     C73100   4.122   0.955   4.030 -0.2153  0.0125 -0.3910
  542MOL0     C73101   3.367   1.002   3.797  0.1465 -0.5582  0.3128
  542MOL0     C73102   3.231   0.980   3.804  0.1041  0.5598  0.8481
  542MOL0     H73103   2.789   0.827   3.596 -0.4152 -3.3716  1.3240
  542MOL0     H73104   2.567   0.826   3.595  0.2481  0.4005  0.8749
  542MOL0     H73105   2.359   0.969   3.619 -1.8034  1.1990 -0.8217
  542MOL0     H73106   2.347   0.798   3.609  2.2660  2.3122 -3.8865
  542MOL0     H73107   2.172   0.995   3.730  3.7300  0.5462 -0.2427
  542MOL0     H73108   2.139   0.898   3.592  0.6608 -0.9984  0.5929
  542MOL0     H73109   2.113   0.691   3.722  0.7813  1.1700 -2.8974
  542MOL0     H73110   2.157   0.774   3.879 -0.8590  0.1440  0.3595
  542MOL0     H73111   1.960   0.898   3.868  0.2074  2.7513 -1.5880
  542MOL0     H73112   1.936   0.904   3.707 -1.6611  1.1218  1.4714
  542MOL0     H73113   1.773   0.763   3.825  0.3459  2.4065  0.1793
  542MOL0     H73114   1.865   0.658   3.706 -1.1347  2.1620 -1.6731
  542MOL0     H73115   1.823   0.533   3.918 -0.4136  0.2864  0.9611
  542MOL0     H73116   1.990   0.560   3.901 -1.0454 -0.7237  0.5538
  542MOL0     H73117   1.968   0.764   4.065  0.1932  0.2489 -0.7665
  542MOL0     H73118   1.798   0.746   4.086  1.2257  1.3550  0.7333
  542MOL0     H73119   1.947   0.654   4.277  2.0997 -1.6958  1.8523
  542MOL0     H73120   2.004   0.537   4.168  2.3588  2.4261  2.5826
  542MOL0     H73121   1.759   0.569   4.411  2.3891 -0.8084  0.1885
  542MOL0     H73122   1.560   0.254   4.426 -4.3778  0.4196  2.2418
  542MOL0     H73123   1.598   0.400   4.518 -0.9807 -0.6837  0.5846
  542MOL0     H73124   1.374   0.336   4.334 -0.1564  0.3958 -0.2114
  542MOL0     H73125   1.387   0.504   4.396  0.0686 -0.1848 -1.7076
  542MOL0     H73126   1.370   0.425   4.631  0.6696  1.3735 -1.3381
  542MOL0     H73127   1.391   0.257   4.586  0.2928  0.3815 -0.0194
  542MOL0     H73128   1.154   0.282   4.465 -1.1952  0.0831  0.5798
  542MOL0     H73129   1.150   0.438   4.541 -1.9713 -0.1986  0.7988
  542MOL0     H73130   1.075   0.199   4.894  2.7353  3.9591  1.9548
  542MOL0     H73131   0.782   0.096   5.008  2.2549  0.0112  0.4786
  542MOL0     H73132   0.930   0.161   5.073 -0.7512 -0.3966  3.5063
  542MOL0     H73133   0.789   0.240   5.107  1.2083 -0.6886  0.2393
  542MOL0     H73134   0.429   0.634   4.913 -1.2544  1.5028 -1.2393
  542MOL0     H73135   0.176   0.636   4.980  0.2589  0.6921 -1.7111
  542MOL0     H73136  -0.102   0.316   4.842 -2.7384 -1.2108  0.1052
  542MOL0     H73137  -0.045   0.235   5.001  2.5962  2.1870  2.1686
  542MOL0     H73138  -0.288   0.277   5.036 -1.3174  2.1848  0.6146
  542MOL0     H73139  -0.197   0.408   5.119 -2.6542  2.1671 -0.6501
  542MOL0     H73140  -0.332   0.397   4.848  2.5300 -1.4391 -0.0236
  542MOL0     H73141  -0.226   0.527   4.888 -1.2800 -0.5523 -2.3619
  542MOL0     H73142  -0.506   0.448   4.998 -0.0722  0.1097  0.8423
  542MOL0     H73143  -0.401   0.552   5.096 -2.6231 -2.4147  1.8183
  542MOL0     H73144  -0.505   0.595   4.801  0.2734 -0.7104  1.0710
  542MOL0     H73145  -0.384   0.698   4.860  0.1270  0.3033  0.2891
  542MOL0     H73146  -0.673   0.653   4.969  2.1016 -2.7610  0.3299
  542MOL0     H73147  -0.550   0.741   5.059 -0.5658  0.0507  1.0523
  542MOL0     H73148  -0.630   0.828   4.773 -0.5811  1.5155 -0.0030
  542MOL0     H73149  -0.524   0.917   4.866  0.0767 -1.2200 -0.8955
  542MOL0     H73150  -0.732   1.016   4.859 -3.9245 -2.4481 -0.6282
  542MOL0     H73151  -0.676   0.991   5.019  0.7226 -1.1061  0.0030
  542MOL0     H73152   0.153   0.231   4.863  0.5034 -1.8013  3.9194
  542MOL0     H73153   0.371   0.243   4.775 -1.4974 -0.4882 -1.2519
  542MOL0     H73154   0.741   0.438   4.628  1.6114  2.4643 -0.0384
  542MOL0     H73155   0.948   0.419   4.552  2.6388 -2.3002 -0.8122
  542MOL0     H73156   2.538   0.947   4.003 -1.8053 -0.0779 -1.5469
  542MOL0     H73157   2.795   0.981   3.993 -0.3959  0.3927 -0.0101
  542MOL0     H73158   3.243   0.649   3.695 -0.3810 -0.4440 -0.4180
  542MOL0     H73159   3.486   0.701   3.687  1.2270  1.4471 -3.0565
  542MOL0     H73160   3.645   1.123   3.791  1.2143 -1.4107 -3.4629
  542MOL0     H73161   3.599   1.021   3.937 -2.8370 -2.7558 -1.5133
  542MOL0     H73162   3.803   0.909   3.947  0.2345  0.3076  1.2173
  542MOL0     H73163   3.831   1.085   3.956 -0.2594 -0.7716  3.1666
  542MOL0     H73164   3.852   1.069   3.690 -2.1528  0.6012  0.5354
  542MOL0     H73165   3.908   0.905   3.746  0.6034 -0.8353  0.4830
  542MOL0     H73166   4.036   1.175   3.801 -0.3996 -0.4664  0.3537
  542MOL0     H73167   4.100   1.026   3.729 -1.5709 -0.8234 -0.4969
  542MOL0     H73168   4.160   0.900   4.115 -1.9704  0.1706  0.5357
  542MOL0     H73169   3.397   1.104   3.818 -1.0070  0.8928 -3.8747
  542MOL0     H73170   3.166   1.061   3.836 -2.6041 -1.1360 -0.0103
  543MOL0     O73171   2.033   5.430  10.041  0.8075  0.6780  0.2092
  543MOL0     C73172   2.084   5.497   9.949  0.6378  0.2059  0.4771
  543MOL0     O73173   2.016   5.581   9.868  0.8917 -0.1966 -0.3478
  543MOL0     C73174   1.879   5.557   9.869  0.2710 -0.2143  0.5769
  543MOL0     C73175   1.791   5.630   9.956  0.2131 -0.4666 -0.1073
  543MOL0     C73176   1.653   5.616   9.950  0.1723  0.3039  1.4162
  543MOL0     C73177   1.595   5.535   9.851 -0.7446  0.1202  0.1966
  543MOL0     O73178   1.467   5.515   9.829 -0.2717  0.7212 -0.6804
  543MOL0     C73179   1.391   5.596   9.915  0.1709 -0.1921 -0.2598
  543MOL0     C73180   1.245   5.580   9.891  0.0927  1.4270  0.3203
  543MOL0     C73181   1.216   5.615   9.749  0.0208 -0.4882 -0.5866
  543MOL0     C73182   1.069   5.587   9.721 -0.5324 -0.5637  0.3791
  543MOL0     C73183   1.034   5.657   9.593 -0.0869 -0.0207  0.5194
  543MOL0     C73184   0.947   5.568   9.498 -0.1733 -0.5771  0.9114
  543MOL0     C73185   0.900   5.630   9.368  0.4937 -0.0269 -0.1192
  543MOL0     C73186   0.783   5.732   9.391  0.0277 -0.0765 -0.3285
  543MOL0     N73187   0.655   5.660   9.368 -1.2674 -0.5453  0.7205
  543MOL0     C73188   0.598   5.631   9.247 -0.2593  0.1425 -0.6411
  543MOL0     C73189   0.482   5.565   9.294  0.0736 -0.2571 -0.0826
  543MOL0     C73190   0.371   5.522   9.197 -0.1399 -0.3878  0.8758
  543MOL0     C73191   0.239   5.570   9.259 -0.0735  0.0879 -0.1172
  543MOL0     C73192   0.115   5.539   9.173 -0.0964  0.7620 -0.2361
  543MOL0     C73193  -0.008   5.607   9.229  0.0658  0.4227 -0.0625
  543MOL0     O73194  -0.114   5.592   9.130 -0.5041 -0.0553 -0.2338
  543MOL0     C73195  -0.229   5.669   9.135  0.1977  0.4758  0.2318
  543MOL0     C73196  -0.231   5.787   9.200 -0.3830 -0.0077  0.0664
  543MOL0     C73197  -0.343   5.871   9.189 -0.4594  0.4956  0.1118
  543MOL0     C73198  -0.343   6.004   9.261 -0.3667  0.4748 -0.2669
  543MOL0     C73199  -0.458   5.833   9.110  0.6622 -0.3059 -0.6002
  543MOL0     C73200  -0.578   5.914   9.064  0.2551 -0.7457  0.0786
  543MOL0     O73201  -0.673   5.844   8.988 -0.3211  0.0643 -0.2912
  543MOL0     C73202  -0.799   5.890   8.996  0.1499  0.8781 -1.0354
  543MOL0     C73203  -0.878   5.843   9.106 -0.4584  0.5199 -0.3213
  543MOL0     C73204  -0.996   5.901   9.128 -0.0816 -0.0301 -0.3961
  543MOL0     C73205  -1.046   5.985   9.032  0.4656  0.3137  0.7857
  543MOL0     O73206  -1.179   6.033   9.037 -0.1158  0.6710 -0.6059
  543MOL0     C73207  -1.296   5.948   9.032 -0.1283 -1.1143 -0.3450
  543MOL0     C73208  -1.417   6.047   9.008 -1.1032  0.4504 -0.0916
  543MOL0     C73209  -1.545   5.993   9.074  0.8063  0.6086 -0.3599
  543MOL0     C73210  -1.666   6.059   9.007 -0.1878 -0.2722 -0.0812
  543MOL0     C73211  -1.792   5.978   9.031 -0.0158  0.2010  0.0232
  543MOL0     C73212  -1.876   5.996   8.901  0.2617 -0.4219 -0.9780
  543MOL0     C73213  -2.021   5.957   8.948 -0.8220 -0.2734 -0.7972
  543MOL0     C73214  -2.111   5.968   8.837 -0.7685 -0.2978  0.1119
  543MOL0    Cl73215  -2.265   5.904   8.888  0.0530 -0.0537 -0.2803
  543MOL0     C73216  -0.973   6.029   8.920  0.0374  0.5097 -0.4337
  543MOL0     C73217  -0.845   5.977   8.899 -0.1175 -0.6624  0.1079
  543MOL0     O73218  -0.585   6.037   9.099 -0.2319 -0.8887 -0.1992
  543MOL0     C73219  -0.448   5.704   9.056  0.0509 -0.5229 -0.3801
  543MOL0     C73220  -0.339   5.623   9.063 -0.8594 -0.3642  0.3855
  543MOL0     N73221   0.471   5.554   9.433 -0.4648 -0.3702  0.3261
  543MOL0     N73222   0.585   5.599   9.470  0.2854 -1.0023 -0.1047
  543MOL0     C73223   1.679   5.463   9.761  0.7994 -0.3757  0.1632
  543MOL0     C73224   1.819   5.471   9.775 -0.4332  0.4272  0.1273
  543MOL0     C73225   2.234   5.496   9.937  0.2462 -0.4374  1.0074
  543MOL0     C73226   2.293   5.568   9.831  0.7086 -0.1919  0.4922
  543MOL0     C73227   2.431   5.552   9.802  0.2507 -0.4756 -0.5105
  543MOL0     C73228   2.508   5.480   9.891  0.6951 -0.5130 -0.6746
  543MOL0     O73229   2.639   5.486   9.876  0.6379  1.0543 -0.2300
  543MOL0     C73230   2.705   5.592   9.937 -0.6681 -0.7873 -0.2552
  543MOL0     C73231   2.854   5.581   9.924  0.4819 -0.0358  0.4764
  543MOL0     C73232   2.905   5.460  10.005  0.1503 -0.0392  0.3157
  543MOL0     C73233   2.916   5.325   9.933  0.3748  0.1137  0.6714
  543MOL0     C73234   3.008   5.325   9.818  0.8193  0.5070 -0.3259
  543MOL0     C73235   3.077   5.312   9.719  0.2098 -0.5621  0.0214
  543MOL0     C73236   2.458   5.407  10.000  0.1233 -0.4138  0.5369
  543MOL0     C73237   2.317   5.412  10.018 -0.8568 -0.3589 -0.3013
  543MOL0     H73238   1.828   5.694  10.035  1.3542 -1.9723  0.6263
  543MOL0     H73239   1.601   5.659  10.035 -3.1815 -2.9952  1.3010
  543MOL0     H73240   1.402   5.563  10.019 -2.1615  1.2989  0.5565
  543MOL0     H73241   1.409   5.702   9.895 -2.3995 -0.0713 -2.4034
  543MOL0     H73242   1.233   5.472   9.906  2.2736  1.2374  1.0173
  543MOL0     H73243   1.178   5.631   9.962 -1.8507 -1.3598  0.6793
  543MOL0     H73244   1.238   5.722   9.740 -0.9539  0.2534  3.6564
  543MOL0     H73245   1.285   5.565   9.679  0.1720 -1.2369  0.0790
  543MOL0     H73246   1.050   5.482   9.701  2.5543 -0.9498 -1.0489
  543MOL0     H73247   1.011   5.634   9.801  1.0182  1.6727  0.2829
  543MOL0     H73248   0.990   5.755   9.610  2.8891  1.1504  2.2644
  543MOL0     H73249   1.125   5.680   9.538  0.8184 -1.3403  1.3926
  543MOL0     H73250   1.004   5.478   9.473  2.8630  0.6040  2.8509
  543MOL0     H73251   0.860   5.537   9.556 -1.2950 -2.0524 -1.4327
  543MOL0     H73252   0.982   5.687   9.324  1.0364  0.9797  2.0765
  543MOL0     H73253   0.875   5.545   9.305  0.3559  0.1202 -0.2645
  543MOL0     H73254   0.797   5.823   9.332 -1.7284 -0.1866 -0.9568
  543MOL0     H73255   0.786   5.772   9.493 -2.4810  0.5691 -0.4560
  543MOL0     H73256   0.640   5.645   9.148 -0.7324 -1.9738 -1.1957
  543MOL0     H73257   0.381   5.566   9.097 -0.7535 -0.0585  0.9531
  543MOL0     H73258   0.376   5.413   9.183  2.1413 -0.2181 -0.1572
  543MOL0     H73259   0.239   5.674   9.294 -0.4687  0.8639 -2.2672
  543MOL0     H73260   0.228   5.510   9.349  1.1420 -1.4236 -0.9264
  543MOL0     H73261   0.098   5.431   9.179  0.1958  0.5418 -2.5099
  543MOL0     H73262   0.145   5.574   9.073 -0.5036  1.7584 -0.0151
  543MOL0     H73263   0.011   5.714   9.244 -1.1172  0.8049 -1.1456
  543MOL0     H73264  -0.032   5.559   9.325  1.1099  2.2483  1.1942
  543MOL0     H73265  -0.153   5.831   9.261 -1.5216 -1.1119  2.4295
  543MOL0     H73266  -0.333   6.085   9.189  2.3592  0.9999  0.5816
  543MOL0     H73267  -0.439   6.020   9.312  0.2781  0.0752  1.1130
  543MOL0     H73268  -0.258   6.004   9.330  1.4291  1.0267 -2.3792
  543MOL0     H73269  -0.850   5.765   9.177 -2.6344  0.1630  0.2345
  543MOL0     H73270  -1.061   5.877   9.212 -1.7557 -0.8833 -1.8872
  543MOL0     H73271  -1.297   5.866   8.960 -0.6333 -0.0245 -1.6133
  543MOL0     H73272  -1.310   5.909   9.133 -1.9075  0.8378  0.2383
  543MOL0     H73273  -1.392   6.148   9.044 -0.7048  0.2497  0.1957
  543MOL0     H73274  -1.425   6.074   8.902 -0.7067 -0.4870 -0.3694
  543MOL0     H73275  -1.532   6.007   9.182  2.6491 -0.4811 -0.4085
  543MOL0     H73276  -1.546   5.884   9.061 -1.1032 -0.2495  4.6955
  543MOL0     H73277  -1.687   6.161   9.040  0.1538  0.3562 -1.7240
  543MOL0     H73278  -1.650   6.084   8.902 -0.9575  2.7536  0.4279
  543MOL0     H73279  -1.840   6.018   9.121  0.3887  3.1984 -0.9696
  543MOL0     H73280  -1.766   5.874   9.050  1.3201  0.4207 -0.4828
  543MOL0     H73281  -1.879   6.102   8.871 -1.0303  0.6357  2.4250
  543MOL0     H73282  -1.836   5.933   8.821  0.1239 -0.7300 -0.8057
  543MOL0     H73283  -2.061   6.012   9.034  0.1172  1.0309 -1.1608
  543MOL0     H73284  -2.020   5.852   8.978 -1.8210  0.2493  1.2799
  543MOL0     H73285  -2.083   5.909   8.749  0.2332 -0.4432  0.5232
  543MOL0     H73286  -2.126   6.073   8.810 -2.6337 -1.0974 -2.3739
  543MOL0     H73287  -1.006   6.101   8.846  0.9240 -0.4157 -1.7808
  543MOL0     H73288  -0.784   6.019   8.820 -0.2305  2.2676  1.4133
  543MOL0     H73289  -0.534   5.667   9.001 -1.0472 -0.3733  1.1585
  543MOL0     H73290  -0.337   5.524   9.019  0.1897 -0.1957  0.0266
  543MOL0     H73291   1.627   5.407   9.684  1.1783 -0.1515 -0.2572
  543MOL0     H73292   1.872   5.411   9.701 -0.8329 -0.4099  0.5172
  543MOL0     H73293   2.228   5.638   9.779  3.3477  0.7051 -1.8388
  543MOL0     H73294   2.477   5.610   9.723 -1.7211 -2.3329 -3.2075
  543MOL0     H73295   2.677   5.683   9.885  0.2608 -1.6929 -2.4557
  543MOL0     H73296   2.668   5.597  10.040 -3.1923  0.4024 -1.1186
  543MOL0     H73297   2.893   5.667   9.979 -1.7007  2.6783 -1.8877
  543MOL0     H73298   2.893   5.587   9.822 -1.1225 -0.6293 -0.2108
  543MOL0     H73299   2.832   5.458  10.086  0.1443  0.9100  0.3357
  543MOL0     H73300   3.004   5.482  10.046 -0.2298 -0.0283  1.2467
  543MOL0     H73301   2.819   5.297   9.891  1.4689 -1.8121 -0.7689
  543MOL0     H73302   2.959   5.245   9.994 -0.4797 -0.0698  1.0366
  543MOL0     H73303   3.131   5.326   9.627 -2.5656  0.1708 -1.6270
  543MOL0     H73304   2.520   5.356  10.072  0.4635 -1.6276 -0.5725
  543MOL0     H73305   2.268   5.369  10.104  0.4346 -1.0090  0.1351
  544MOL0     O73306   6.273   6.221   8.212 -0.7177  0.7261  0.6060
  544MOL0     C73307   6.327   6.210   8.099 -0.1595  0.0145 -0.2776
  544MOL0     O73308   6.267   6.188   7.981 -0.2553  0.3234 -0.2753
  544MOL0     C73309   6.136   6.164   7.980  0.2328 -1.2367  0.0163
  544MOL0     C73310   6.104   6.031   7.975  0.3633  0.1787 -0.6238
  544MOL0     C73311   5.967   5.996   7.973 -0.2956  0.0488 -0.0709
  544MOL0     C73312   5.867   6.102   7.969  0.3508  0.1109  0.5609
  544MOL0     O73313   5.734   6.076   7.968 -0.2125 -0.0205  0.8756
  544MOL0     C73314   5.684   5.942   7.936  0.9320 -0.1906 -0.3942
  544MOL0     C73315   5.532   5.957   7.904 -0.1762  0.5324  0.5035
  544MOL0     C73316   5.472   5.817   7.916  0.1597 -0.1304  0.2730
  544MOL0     C73317   5.320   5.811   7.865 -0.0056  1.1560 -0.1029
  544MOL0     C73318   5.267   5.672   7.853  0.5591 -0.0698 -0.3255
  544MOL0     C73319   5.255   5.592   7.983  1.0326  0.1645 -0.3750
  544MOL0     C73320   5.186   5.452   7.959 -0.2922 -0.6764  0.7925
  544MOL0     C73321   5.052   5.452   7.878  0.0966  0.0887  0.4546
  544MOL0     N73322   4.953   5.524   7.941 -0.1300 -0.7983 -0.1972
  544MOL0     C73323   4.885   5.484   8.051  0.0453 -0.2879  0.1637
  544MOL0     C73324   4.776   5.564   8.066  0.5488  0.4981 -0.7903
  544MOL0     C73325   4.680   5.545   8.188 -0.1928 -0.5033 -0.5720
  544MOL0     C73326   4.532   5.546   8.144 -0.3259  0.0012  0.6938
  544MOL0     C73327   4.446   5.498   8.260 -0.4242 -0.3971  0.0600
  544MOL0     C73328   4.298   5.544   8.258 -0.6966  0.5104  0.1295
  544MOL0     O73329   4.233   5.498   8.381 -0.0711  0.5177  1.0652
  544MOL0     C73330   4.100   5.503   8.385  0.6535  0.3577 -0.0399
  544MOL0     C73331   4.020   5.588   8.303  0.1439  0.0239  0.5674
  544MOL0     C73332   3.883   5.612   8.326  0.3027 -0.2732 -0.5484
  544MOL0     C73333   3.808   5.719   8.239  0.7629 -0.0205 -0.2565
  544MOL0     C73334   3.821   5.544   8.440  0.8077  0.1556 -0.7192
  544MOL0     C73335   3.678   5.571   8.477  0.2696  0.3004 -0.4348
  544MOL0     O73336   3.644   5.529   8.607  0.2621 -0.1619  0.3175
  544MOL0     C73337   3.527   5.577   8.656  0.4890  0.5101  0.2814
  544MOL0     C73338   3.522   5.672   8.758 -0.6676  0.8653 -0.9110
  544MOL0     C73339   3.406   5.712   8.814 -0.7573  0.1549 -1.7124
  544MOL0     C73340   3.287   5.658   8.768 -0.2603 -0.1014  0.1879
  544MOL0     O73341   3.168   5.699   8.826 -0.3454 -0.2724  0.0169
  544MOL0     C73342   3.091   5.590   8.887  0.0346  0.0089  0.2748
  544MOL0     C73343   3.165   5.499   8.992  0.5549 -0.3162  0.7547
  544MOL0     C73344   3.082   5.386   9.057  0.6268 -0.5043 -0.2704
  544MOL0     C73345   2.974   5.439   9.151 -0.4503 -0.4545  0.0514
  544MOL0     C73346   2.882   5.328   9.196  0.2423  0.3079 -1.0442
  544MOL0     C73347   2.776   5.380   9.295 -0.0153  0.3045  0.2121
  544MOL0     C73348   2.827   5.394   9.445 -0.5671  0.0618 -0.0425
  544MOL0     C73349   2.712   5.437   9.538  0.1651 -1.2161  0.3128
  544MOL0    Cl73350   2.699   5.613   9.543 -0.2601  0.0671  0.1541
  544MOL0     C73351   3.287   5.562   8.665  0.3420 -0.0200 -0.4742
  544MOL0     C73352   3.403   5.513   8.618  0.0436 -0.1807  0.0251
  544MOL0     O73353   3.607   5.640   8.406 -0.6778 -0.7172 -0.1633
  544MOL0     C73354   3.900   5.467   8.527 -0.6645 -0.1742  0.4789
  544MOL0     C73355   4.036   5.449   8.501 -0.0409  0.5900 -0.6507
  544MOL0     N73356   4.786   5.658   7.962  0.8681  0.1208  0.4230
  544MOL0     N73357   4.889   5.631   7.892  0.1423 -0.7152 -0.8630
  544MOL0     C73358   5.909   6.236   7.973 -0.3917 -0.5066 -0.9134
  544MOL0     C73359   6.045   6.272   7.981  0.1575 -0.1116  0.3075
  544MOL0     C73360   6.475   6.215   8.096 -0.1478 -0.5631  1.1074
  544MOL0     C73361   6.547   6.154   8.203 -0.1979 -0.2277 -0.4559
  544MOL0     C73362   6.690   6.182   8.210 -0.1252  0.9374  0.5784
  544MOL0     C73363   6.760   6.262   8.116  0.0621 -0.3510 -0.5053
  544MOL0     O73364   6.886   6.310   8.150 -0.0646  0.0848  0.7955
  544MOL0     C73365   6.973   6.232   8.245  0.0226 -0.3958  0.4179
  544MOL0     C73366   6.970   6.289   8.387  0.6827  0.2114  0.1703
  544MOL0     C73367   7.045   6.195   8.479  0.1336 -0.0895 -0.7147
  544MOL0     C73368   7.178   6.143   8.425 -0.0431  0.8255  0.0346
  544MOL0     C73369   7.271   6.235   8.390  0.0099  0.2517 -0.0313
  544MOL0     C73370   7.357   6.310   8.355 -0.3252 -0.3165  0.3037
  544MOL0     C73371   6.682   6.309   8.001 -0.1778 -0.3931 -0.4906
  544MOL0     C73372   6.541   6.283   7.998 -0.6549 -0.7625  0.3231
  544MOL0     H73373   6.179   5.952   7.970 -0.7079 -0.8992 -0.2179
  544MOL0     H73374   5.940   5.891   7.968 -2.6590  0.4232  2.4561
  544MOL0     H73375   5.738   5.874   7.869  2.0847 -1.4411  1.6889
  544MOL0     H73376   5.675   5.901   8.037 -2.6072  2.0750  0.4102
  544MOL0     H73377   5.474   6.018   7.973  0.3366  0.4505  1.0177
  544MOL0     H73378   5.515   5.992   7.802 -0.4408 -0.3857  0.2224
  544MOL0     H73379   5.521   5.731   7.869 -0.1266 -0.8880  1.3388
  544MOL0     H73380   5.460   5.794   8.022 -0.9408 -0.0879  0.1747
  544MOL0     H73381   5.264   5.868   7.940 -0.0015 -1.7536  2.3225
  544MOL0     H73382   5.321   5.867   7.771  4.0195  2.4649  0.5096
  544MOL0     H73383   5.165   5.694   7.819  0.1136 -0.0409  0.9862
  544MOL0     H73384   5.306   5.609   7.773 -2.1430 -0.0966 -1.7395
  544MOL0     H73385   5.353   5.580   8.030  0.7475 -3.5800 -0.4608
  544MOL0     H73386   5.196   5.649   8.055  1.3826 -1.6565  1.4544
  544MOL0     H73387   5.256   5.397   7.895  0.5948  1.3327 -0.0593
  544MOL0     H73388   5.173   5.393   8.050 -1.1758 -2.1652 -0.2624
  544MOL0     H73389   5.032   5.345   7.869 -0.4909  0.3472 -1.9815
  544MOL0     H73390   5.062   5.477   7.772 -1.2217 -1.3103 -0.0263
  544MOL0     H73391   4.913   5.403   8.119  1.2415 -0.9703 -1.0897
  544MOL0     H73392   4.700   5.447   8.233 -2.4626 -1.0995 -0.7219
  544MOL0     H73393   4.684   5.631   8.255  0.7769 -2.2736  1.7864
  544MOL0     H73394   4.533   5.478   8.058  2.4646  2.5784 -1.5473
  544MOL0     H73395   4.506   5.647   8.111  1.3277  0.0263 -0.6339
  544MOL0     H73396   4.480   5.539   8.356 -0.0320 -2.0599  0.6629
  544MOL0     H73397   4.449   5.390   8.271  0.1322 -0.2952  1.1091
  544MOL0     H73398   4.252   5.500   8.169 -1.1184 -0.4977  0.8338
  544MOL0     H73399   4.311   5.652   8.248  0.4915  0.2277 -2.1566
  544MOL0     H73400   4.056   5.641   8.215  1.5504 -1.9230 -0.1131
  544MOL0     H73401   3.782   5.796   8.312  1.6948  1.4933 -1.4684
  544MOL0     H73402   3.880   5.777   8.181  0.7617  3.4846  2.8880
  544MOL0     H73403   3.720   5.692   8.179 -0.0815  3.3872 -0.7493
  544MOL0     H73404   3.618   5.715   8.786 -0.0220 -0.6994 -0.6185
  544MOL0     H73405   3.408   5.786   8.893 -1.4701 -0.8273 -0.7362
  544MOL0     H73406   3.006   5.630   8.943 -1.1917 -2.7960  0.5653
  544MOL0     H73407   3.055   5.528   8.804  3.9421  0.2949 -1.8706
  544MOL0     H73408   3.236   5.436   8.936 -2.7776 -6.2613  2.3016
  544MOL0     H73409   3.221   5.548   9.072  1.5502 -0.0556 -0.0807
  544MOL0     H73410   3.148   5.326   9.120  1.5690 -0.5877 -1.3115
  544MOL0     H73411   3.044   5.332   8.969 -2.1351  2.0125 -0.7988
  544MOL0     H73412   3.014   5.493   9.238  0.2371  1.3411 -1.3236
  544MOL0     H73413   2.905   5.502   9.093  0.5709  1.2983  0.6560
  544MOL0     H73414   2.946   5.251   9.240 -0.1222 -0.5574 -1.9910
  544MOL0     H73415   2.829   5.282   9.113  0.0591 -2.3275  0.4280
  544MOL0     H73416   2.720   5.464   9.254 -2.3288 -1.1710  0.1687
  544MOL0     H73417   2.697   5.305   9.297 -0.7314  1.0619  0.5532
  544MOL0     H73418   2.904   5.471   9.453 -0.7897  0.1454  1.6028
  544MOL0     H73419   2.882   5.305   9.476  1.0197  1.1613  0.3650
  544MOL0     H73420   2.725   5.397   9.638  1.1771 -1.9929 -0.1188
  544MOL0     H73421   2.615   5.410   9.495  0.5461  0.1006 -1.4973
  544MOL0     H73422   3.193   5.536   8.617 -0.4863 -1.1891  1.6228
  544MOL0     H73423   3.416   5.433   8.545  1.3054  0.1598 -0.1465
  544MOL0     H73424   3.865   5.423   8.620  1.6934 -1.5632  0.7834
  544MOL0     H73425   4.095   5.398   8.576 -2.3115  0.9324  1.4708
  544MOL0     H73426   5.823   6.302   7.967 -2.2652 -2.9106 -2.0694
  544MOL0     H73427   6.089   6.371   7.989  2.4478 -0.9983 -0.3575
  544MOL0     H73428   6.487   6.106   8.280  1.8509  0.8420  1.9315
  544MOL0     H73429   6.746   6.149   8.297 -0.1466 -4.1463 -1.0205
  544MOL0     H73430   6.953   6.125   8.257 -0.3730 -0.3273  0.3876
  544MOL0     H73431   7.073   6.249   8.206  1.2311 -1.5963  2.7694
  544MOL0     H73432   6.867   6.309   8.420  0.4066  0.8477 -1.0073
  544MOL0     H73433   7.022   6.385   8.385  0.2518  0.4432 -1.7706
  544MOL0     H73434   6.975   6.117   8.511  1.6049 -0.7416  1.0347
  544MOL0     H73435   7.055   6.248   8.574 -1.2221 -1.6928  0.3733
  544MOL0     H73436   7.162   6.077   8.339  0.1653  0.9910 -0.1318
  544MOL0     H73437   7.219   6.085   8.508 -1.7567  3.2273  2.7370
  544MOL0     H73438   7.442   6.371   8.331 -0.7590  0.3638  0.4773
  544MOL0     H73439   6.720   6.367   7.917  0.2356  0.5077  0.2974
  544MOL0     H73440   6.481   6.336   7.924  1.3211  0.0415 -0.7957
  545MOL0     O73441   2.666   6.739   9.693 -0.1692  1.1358 -0.1972
  545MOL0     C73442   2.627   6.854   9.667 -0.0881  0.3548  0.4396
  545MOL0     O73443   2.698   6.962   9.650  0.0467 -0.7043  0.1318
  545MOL0     C73444   2.834   6.943   9.626 -0.1619  0.3480 -0.3628
  545MOL0     C73445   2.939   6.940   9.723 -0.1863 -0.3711  0.3444
  545MOL0     C73446   3.071   6.910   9.691 -0.0287  0.6071  0.1620
  545MOL0     C73447   3.102   6.915   9.556  0.5117  0.4414 -0.9285
  545MOL0     O73448   3.233   6.885   9.523  0.2969  0.9199 -0.1130
  545MOL0     C73449   3.257   6.819   9.403 -0.2149 -0.5195  0.5927
  545MOL0     C73450   3.400   6.772   9.387 -0.5564  0.1171  0.8658
  545MOL0     C73451   3.425   6.692   9.252 -0.5107  0.4843 -0.4548
  545MOL0     C73452   3.564   6.627   9.262 -0.0537 -0.7519 -0.1343
  545MOL0     C73453   3.585   6.558   9.130  0.2981 -0.5295 -0.5314
  545MOL0     C73454   3.704   6.465   9.126 -1.0918  1.1598 -0.2714
  545MOL0     C73455   3.846   6.532   9.139  0.4791 -0.0342  0.0251
  545MOL0     C73456   3.955   6.418   9.141 -0.1064  0.1956 -0.2534
  545MOL0     N73457   3.950   6.342   9.262  0.0581  0.2125 -0.6599
  545MOL0     C73458   3.923   6.385   9.389  0.2921  0.0200  0.5706
  545MOL0     C73459   3.962   6.290   9.477 -0.3231  0.2915 -0.3298
  545MOL0     C73460   3.961   6.310   9.625  0.0933 -0.1622 -0.2673
  545MOL0     C73461   3.811   6.342   9.669 -0.1559  0.5628 -0.4476
  545MOL0     C73462   3.804   6.330   9.820  0.0760  0.8048 -0.2914
  545MOL0     C73463   3.666   6.340   9.870  0.0949 -0.7679 -0.3161
  545MOL0     O73464   3.582   6.445   9.813 -0.3555  0.0837  0.3289
  545MOL0     C73465   3.452   6.465   9.854  0.0344 -0.3604  0.1145
  545MOL0     C73466   3.387   6.381   9.936  0.3419 -0.3945  0.6324
  545MOL0     C73467   3.251   6.399   9.987  0.2256  0.4165  0.4395
  545MOL0     C73468   3.191   6.276  10.055 -0.0511 -0.2759  0.6750
  545MOL0     C73469   3.191   6.533   9.963 -0.9095  0.1363 -0.1722
  545MOL0     C73470   3.053   6.582  10.017  0.1939 -0.6542  0.5339
  545MOL0     O73471   3.014   6.708   9.990 -0.0526 -0.4343  0.2112
  545MOL0     C73472   2.893   6.747  10.035  0.3648  0.3848  0.5001
  545MOL0     C73473   2.773   6.706   9.978  0.0442 -0.3832 -0.5856
  545MOL0     C73474   2.653   6.776  10.012 -0.7478 -1.0786  0.6783
  545MOL0     C73475   2.647   6.869  10.116 -0.2587 -0.1773 -0.4659
  545MOL0     O73476   2.532   6.932  10.163  0.3315  1.0498  0.0371
  545MOL0     C73477   2.422   6.950  10.067 -0.9948 -0.2096  0.0518
  545MOL0     C73478   2.300   7.019  10.105 -0.5982  0.0682  1.0947
  545MOL0     C73479   2.240   6.958  10.233 -0.0133  0.2368 -0.5556
  545MOL0     C73480   2.117   7.037  10.283  0.2251 -0.8481 -0.4660
  545MOL0     C73481   2.153   7.146  10.386  0.4068 -0.2991  0.2494
  545MOL0     C73482   2.041   7.250  10.410 -0.1183  0.4151  0.2226
  545MOL0     C73483   2.041   7.368  10.322 -0.4937  0.2160 -0.0303
  545MOL0     C73484   2.050   7.337  10.174  0.9667 -0.6757  0.3210
  545MOL0    Cl73485   2.017   7.487  10.088  0.5027 -0.4010  0.2780
  545MOL0     C73486   2.766   6.899  10.183 -0.0605  0.6609  0.4210
  545MOL0     C73487   2.883   6.834  10.145  1.0782 -0.1863  0.6048
  545MOL0     O73488   2.986   6.492  10.075 -0.4326  0.8788 -0.6467
  545MOL0     C73489   3.267   6.623   9.888  0.1254 -1.1038  0.3120
  545MOL0     C73490   3.394   6.594   9.834 -0.3151 -0.2360 -0.0436
  545MOL0     N73491   4.021   6.190   9.398  0.2087  0.8141 -0.8484
  545MOL0     N73492   4.016   6.222   9.277 -0.0377 -0.2032  0.5217
  545MOL0     C73493   3.009   6.939   9.457  0.2115  0.4139  0.5480
  545MOL0     C73494   2.873   6.939   9.492 -0.6711 -0.5384 -0.1785
  545MOL0     C73495   2.486   6.872   9.654  0.4929  0.8748  0.7446
  545MOL0     C73496   2.393   6.774   9.693  0.2433 -0.7888 -0.1677
  545MOL0     C73497   2.259   6.791   9.682 -0.6450 -0.2672  0.4325
  545MOL0     C73498   2.200   6.912   9.646 -0.4541 -0.0399  0.7410
  545MOL0     O73499   2.065   6.912   9.649 -0.1848 -0.4022 -0.1354
  545MOL0     C73500   2.005   7.045   9.651 -0.3350  1.4668  0.6209
  545MOL0     C73501   1.857   7.022   9.661  0.2571 -0.0635  0.3943
  545MOL0     C73502   1.807   6.965   9.800 -0.6816 -0.4746 -0.0548
  545MOL0     C73503   1.814   7.066   9.922  0.0065 -0.7179 -0.1212
  545MOL0     C73504   1.864   6.987  10.038 -0.0961 -0.5154 -0.4586
  545MOL0     C73505   1.902   6.911  10.118 -0.2050 -0.3326 -0.0199
  545MOL0     C73506   2.294   7.009   9.597  0.4753 -0.5117 -0.4061
  545MOL0     C73507   2.435   6.987   9.596 -0.2469 -0.1637 -0.1538
  545MOL0     H73508   2.895   6.939   9.822 -2.3967 -2.0674 -0.5687
  545MOL0     H73509   3.153   6.886   9.757 -0.7736 -0.0918  0.8733
  545MOL0     H73510   3.197   6.728   9.405  0.8840 -1.4117 -2.3193
  545MOL0     H73511   3.236   6.888   9.321  0.4076  0.1457  0.9828
  545MOL0     H73512   3.463   6.861   9.389  0.3866 -0.2649 -3.0584
  545MOL0     H73513   3.425   6.702   9.467 -1.3642 -1.8962 -0.5380
  545MOL0     H73514   3.343   6.620   9.241 -2.8058  2.8875 -0.0209
  545MOL0     H73515   3.431   6.763   9.169 -0.7900  2.4832  1.1600
  545MOL0     H73516   3.643   6.699   9.284  0.0766 -0.8868 -0.1505
  545MOL0     H73517   3.571   6.551   9.341  2.2468 -1.8906 -1.3406
  545MOL0     H73518   3.499   6.491   9.123 -1.6421  1.1650  3.8510
  545MOL0     H73519   3.590   6.629   9.047  1.5738 -0.4302 -0.3941
  545MOL0     H73520   3.700   6.395   9.209 -2.3928  0.9158 -0.5203
  545MOL0     H73521   3.708   6.410   9.032  0.1684  1.7546 -0.5880
  545MOL0     H73522   3.860   6.605   9.059 -1.0864 -2.2759 -2.4418
  545MOL0     H73523   3.857   6.584   9.235  0.9267  1.5663 -0.8617
  545MOL0     H73524   4.055   6.462   9.141 -0.0394  0.2083  2.4245
  545MOL0     H73525   3.937   6.344   9.062 -1.5156 -0.0258  0.2455
  545MOL0     H73526   3.886   6.478   9.433  0.5915  0.7649 -0.6906
  545MOL0     H73527   4.002   6.227   9.683 -0.4835  0.7961  1.5860
  545MOL0     H73528   4.025   6.396   9.645 -0.8723  0.7549 -0.9906
  545MOL0     H73529   3.737   6.269   9.635 -0.6078 -0.1189  1.8262
  545MOL0     H73530   3.790   6.444   9.636  2.2611  2.0259  2.0835
  545MOL0     H73531   3.884   6.390   9.863  3.6777 -4.3362  1.1457
  545MOL0     H73532   3.834   6.230   9.852  0.7052  1.2065  0.4008
  545MOL0     H73533   3.672   6.350   9.979  1.6654  1.3237 -0.5273
  545MOL0     H73534   3.611   6.246   9.862 -2.5625  0.7346 -1.1054
  545MOL0     H73535   3.429   6.283   9.958  1.9949  0.1180 -0.0622
  545MOL0     H73536   3.165   6.293  10.160  0.9242 -3.2270  1.4994
  545MOL0     H73537   3.092   6.262  10.009 -1.0319  3.1403  1.4461
  545MOL0     H73538   3.248   6.183  10.043 -0.3133 -0.3548 -0.0145
  545MOL0     H73539   2.781   6.630   9.901  2.3924 -1.7303  0.8583
  545MOL0     H73540   2.564   6.750   9.956 -0.9323 -1.8685  1.3154
  545MOL0     H73541   2.466   7.014   9.991 -2.3180  0.5856 -0.0873
  545MOL0     H73542   2.397   6.855  10.021  0.1452 -2.6619  3.9788
  545MOL0     H73543   2.318   7.127  10.111  2.7802 -0.2552 -0.5015
  545MOL0     H73544   2.230   7.019  10.021  1.0096  1.5651 -0.3335
  545MOL0     H73545   2.322   6.958  10.306 -1.4382 -2.0972  1.2338
  545MOL0     H73546   2.220   6.851  10.217  0.0953  0.2133 -0.5405
  545MOL0     H73547   2.063   7.074  10.195 -0.2302 -0.6825 -0.1164
  545MOL0     H73548   2.050   6.972  10.339 -3.3740  1.3365 -1.8859
  545MOL0     H73549   2.249   7.194  10.361  0.4870  0.5093  1.9639
  545MOL0     H73550   2.173   7.095  10.480  2.2108  0.7017  0.4673
  545MOL0     H73551   1.941   7.206  10.409  1.0809 -2.6493  1.8298
  545MOL0     H73552   2.049   7.290  10.511  1.0389 -1.4826  0.9396
  545MOL0     H73553   2.127   7.431  10.346 -0.4263 -0.2942  1.1448
  545MOL0     H73554   1.948   7.425  10.335 -0.9833 -0.7736  1.0414
  545MOL0     H73555   1.974   7.262  10.149  0.7917 -0.4949  0.3066
  545MOL0     H73556   2.153   7.308  10.153  0.8626 -1.5179  0.9134
  545MOL0     H73557   2.753   6.972  10.263 -3.3100  0.3347  0.3466
  545MOL0     H73558   2.970   6.857  10.205  1.2858 -0.7922  0.5365
  545MOL0     H73559   3.237   6.727   9.877  2.1386 -0.6020 -1.0811
  545MOL0     H73560   3.437   6.674   9.774  0.4160  0.9813  1.9769
  545MOL0     H73561   3.029   6.944   9.350  1.2210  1.1740  0.7572
  545MOL0     H73562   2.804   6.954   9.410 -1.5405 -0.1389  0.6058
  545MOL0     H73563   2.426   6.676   9.726  2.5426 -0.5161 -1.4631
  545MOL0     H73564   2.191   6.711   9.709  1.4802 -2.3108  0.0860
  545MOL0     H73565   2.044   7.110   9.730  2.4296 -0.5150  1.0383
  545MOL0     H73566   2.015   7.093   9.554 -2.4767  1.8081  0.5031
  545MOL0     H73567   1.832   6.936   9.598 -0.7230 -0.2845  1.0734
  545MOL0     H73568   1.797   7.107   9.629  1.1023  0.0446 -0.9892
  545MOL0     H73569   1.874   6.885   9.832  0.5874  0.9769  1.0666
  545MOL0     H73570   1.706   6.926   9.789 -1.1885  1.0173 -0.9455
  545MOL0     H73571   1.714   7.104   9.948 -0.1694  0.7365 -2.5704
  545MOL0     H73572   1.881   7.149   9.900 -0.0414 -1.3577 -3.1653
  545MOL0     H73573   1.927   6.838  10.192 -1.6616  0.0477  0.8796
  545MOL0     H73574   2.268   7.107   9.558  0.5185  0.1575  1.1841
  545MOL0     H73575   2.480   7.075   9.551 -0.4811 -1.2155 -2.6420
  546MOL0     O73576   1.385   8.044   6.500 -0.6524  0.2346  0.2290
  546MOL0     C73577   1.384   8.154   6.453  0.6003 -1.3148  0.0426
  546MOL0     O73578   1.272   8.214   6.409 -0.2364  0.1764 -0.0737
  546MOL0     C73579   1.152   8.151   6.385 -0.4503 -0.6706  0.0832
  546MOL0     C73580   1.028   8.220   6.403  0.5401  1.1241 -0.1470
  546MOL0     C73581   0.900   8.170   6.366 -0.4154  0.0270  0.1806
  546MOL0     C73582   0.902   8.035   6.321  0.2256 -0.8196 -0.0660
  546MOL0     O73583   0.790   7.974   6.272 -0.4976 -0.4061  0.0869
  546MOL0     C73584   0.755   7.845   6.336 -0.5513  0.3387  0.0329
  546MOL0     C73585   0.681   7.761   6.236 -0.3918  0.3965 -0.8624
  546MOL0     C73586   0.548   7.820   6.185 -0.6818  1.1728  0.5264
  546MOL0     C73587   0.504   7.721   6.073 -0.2244 -0.3713  0.6174
  546MOL0     C73588   0.368   7.752   6.024 -0.8551 -0.9624  0.5406
  546MOL0     C73589   0.365   7.826   5.888 -0.6145 -0.4154 -0.7236
  546MOL0     C73590   0.218   7.828   5.842 -0.1511  0.2311 -0.1043
  546MOL0     C73591   0.124   7.922   5.924  0.0231 -0.7894  0.0878
  546MOL0     N73592  -0.012   7.914   5.862 -0.1433 -0.0708  0.3329
  546MOL0     C73593  -0.123   7.889   5.932  0.2536 -0.2294 -0.9043
  546MOL0     C73594  -0.222   7.875   5.830 -0.4999  0.1219  1.3811
  546MOL0     C73595  -0.370   7.836   5.845  0.8868 -0.0438 -0.0023
  546MOL0     C73596  -0.455   7.964   5.849  0.9468  0.0393  0.8319
  546MOL0     C73597  -0.457   8.050   5.718 -0.3231 -0.2410  0.2387
  546MOL0     C73598  -0.485   7.985   5.588  0.0250  0.3519  0.7355
  546MOL0     O73599  -0.606   7.907   5.608 -0.0757  0.4682 -0.5282
  546MOL0     C73600  -0.698   7.887   5.512 -0.1655 -0.1991  0.4866
  546MOL0     C73601  -0.818   7.823   5.552 -0.0576  0.3358  0.1814
  546MOL0     C73602  -0.923   7.803   5.463 -0.9127  0.1766 -0.1048
  546MOL0     C73603  -1.051   7.738   5.519 -0.7705  0.5369 -0.2257
  546MOL0     C73604  -0.917   7.853   5.328  0.1481 -0.3865  0.1457
  546MOL0     C73605  -1.022   7.850   5.222 -0.3721  0.0530 -0.0463
  546MOL0     O73606  -1.007   7.925   5.107 -0.8590  0.3089  0.4437
  546MOL0     C73607  -1.099   7.903   5.009  0.5264 -0.6710 -0.4052
  546MOL0     C73608  -1.068   7.806   4.909 -0.8428 -0.0618  0.6072
  546MOL0     C73609  -1.153   7.782   4.798 -0.8448 -0.5717 -0.9489
  546MOL0     C73610  -1.270   7.855   4.788 -0.0728  0.1879 -0.5983
  546MOL0     O73611  -1.354   7.848   4.686 -0.1577 -0.0255  0.0447
  546MOL0     C73612  -1.301   7.851   4.556 -0.1037 -0.6670  0.0162
  546MOL0     C73613  -1.255   7.984   4.516 -0.5505 -0.1733  0.9707
  546MOL0     C73614  -1.351   8.101   4.530  0.2285 -0.4437 -0.2210
  546MOL0     C73615  -1.451   8.105   4.415 -0.3434 -0.1802 -0.1748
  546MOL0     C73616  -1.585   8.175   4.455 -0.1405 -0.7351  0.2602
  546MOL0     C73617  -1.685   8.186   4.339  0.8915 -0.3787  0.0261
  546MOL0     C73618  -1.807   8.282   4.366 -0.6814  0.3080  0.3263
  546MOL0     C73619  -1.896   8.310   4.245 -0.8057  0.4774  0.2002
  546MOL0    Cl73620  -1.836   8.429   4.133 -0.3649  0.3774 -0.3640
  546MOL0     C73621  -1.296   7.953   4.882  0.2081 -0.0150  0.3320
  546MOL0     C73622  -1.216   7.978   4.988 -1.0597 -0.5730  0.3742
  546MOL0     O73623  -1.117   7.773   5.239  0.8702  0.0845  0.4071
  546MOL0     C73624  -0.798   7.906   5.287 -0.0696 -0.2204 -0.0841
  546MOL0     C73625  -0.693   7.927   5.372 -0.5824 -0.5048 -0.7429
  546MOL0     N73626  -0.165   7.895   5.708  0.4401  0.6224  0.3626
  546MOL0     N73627  -0.038   7.918   5.729 -0.0988 -0.2425  0.1487
  546MOL0     C73628   1.025   7.965   6.321  0.0488  0.7030 -1.0132
  546MOL0     C73629   1.144   8.017   6.352  0.1154 -0.1576  0.5084
  546MOL0     C73630   1.506   8.239   6.468  0.5936  0.1314 -0.1739
  546MOL0     C73631   1.497   8.386   6.468 -0.5861  0.0235  0.8120
  546MOL0     C73632   1.617   8.460   6.484 -0.8158  0.1221 -0.4832
  546MOL0     C73633   1.732   8.394   6.529 -0.5791  1.3400  0.4330
  546MOL0     O73634   1.844   8.475   6.542 -0.2358  0.5838 -0.2943
  546MOL0     C73635   1.968   8.413   6.584  0.6611 -0.3643 -0.0455
  546MOL0     C73636   2.079   8.514   6.609 -0.6587 -0.4476 -0.6832
  546MOL0     C73637   2.111   8.619   6.494 -0.1953  0.4346 -0.2699
  546MOL0     C73638   2.200   8.723   6.549 -1.0422 -0.7525 -0.4971
  546MOL0     C73639   2.334   8.678   6.601  0.6626 -0.2701  0.9000
  546MOL0     C73640   2.435   8.623   6.636 -0.3180  0.0510  0.7518
  546MOL0     C73641   1.735   8.251   6.541  0.5332 -0.7488  0.6604
  546MOL0     C73642   1.624   8.174   6.499 -0.1898  0.4204 -0.1989
  546MOL0     H73643   1.039   8.326   6.425 -0.8895  1.1329  0.5982
  546MOL0     H73644   0.804   8.220   6.353 -1.1248 -1.2515  0.2858
  546MOL0     H73645   0.843   7.790   6.370 -1.0366 -0.6279 -0.2216
  546MOL0     H73646   0.703   7.859   6.431 -0.1256  0.4616  0.2499
  546MOL0     H73647   0.737   7.735   6.146 -0.9139  2.8592 -1.9864
  546MOL0     H73648   0.653   7.669   6.288 -1.2707 -0.4996 -2.8049
  546MOL0     H73649   0.487   7.835   6.274  0.9075  0.2468  1.8241
  546MOL0     H73650   0.561   7.918   6.138  2.6102  0.2052 -0.9187
  546MOL0     H73651   0.577   7.711   5.992 -0.7552 -1.2512  0.2393
  546MOL0     H73652   0.495   7.622   6.120 -3.2428 -0.2895  0.3865
  546MOL0     H73653   0.308   7.661   6.021  0.0949 -1.6074 -2.2827
  546MOL0     H73654   0.321   7.808   6.105 -0.3365 -2.8860  2.2445
  546MOL0     H73655   0.407   7.926   5.889 -3.1200  0.7017 -0.2181
  546MOL0     H73656   0.422   7.759   5.822 -1.4581 -3.2379  1.2381
  546MOL0     H73657   0.232   7.872   5.743 -1.0374 -2.1172 -1.3515
  546MOL0     H73658   0.174   7.729   5.829  0.7839 -0.1298 -0.6344
  546MOL0     H73659   0.156   8.026   5.912 -1.1702 -0.3979  0.2103
  546MOL0     H73660   0.126   7.903   6.032 -1.0468 -4.3035 -0.3881
  546MOL0     H73661  -0.137   7.877   6.039  3.1851 -0.4717 -0.4781
  546MOL0     H73662  -0.406   7.784   5.756 -1.0337  4.1998 -2.0282
  546MOL0     H73663  -0.400   7.783   5.936 -0.4900  0.2875 -0.2321
  546MOL0     H73664  -0.427   8.030   5.931 -0.0976 -1.5120  2.4977
  546MOL0     H73665  -0.552   7.924   5.878  1.0371 -1.1306 -0.3669
  546MOL0     H73666  -0.362   8.102   5.706 -1.1914  1.0455 -1.5627
  546MOL0     H73667  -0.531   8.129   5.738 -2.0363 -1.9864  1.2075
  546MOL0     H73668  -0.413   7.910   5.555  1.2981  3.0562 -3.3322
  546MOL0     H73669  -0.489   8.071   5.521  0.7375 -0.1017  0.0983
  546MOL0     H73670  -0.848   7.790   5.651 -1.3163  1.7834  0.3225
  546MOL0     H73671  -1.074   7.653   5.455  1.8995  0.8401 -1.7416
  546MOL0     H73672  -1.035   7.706   5.622 -2.6313  2.4412  0.7508
  546MOL0     H73673  -1.141   7.800   5.514 -2.4933 -1.9129 -1.4643
  546MOL0     H73674  -0.977   7.747   4.920  0.0175  1.1447  0.2259
  546MOL0     H73675  -1.127   7.700   4.732  0.2791 -1.6633  0.7351
  546MOL0     H73676  -1.221   7.777   4.543  0.1302 -0.2090 -1.2413
  546MOL0     H73677  -1.390   7.825   4.499 -0.2595  0.2475 -0.1784
  546MOL0     H73678  -1.168   8.012   4.576 -1.1445  1.5994  1.0554
  546MOL0     H73679  -1.226   7.983   4.411 -2.7487 -2.3804  0.2755
  546MOL0     H73680  -1.305   8.199   4.535 -0.5513 -0.1156  1.6090
  546MOL0     H73681  -1.411   8.082   4.620 -0.4132  3.2588  0.2789
  546MOL0     H73682  -1.385   8.150   4.340  2.3912 -3.0542  0.2940
  546MOL0     H73683  -1.476   8.005   4.378 -0.3271  0.0501 -0.8246
  546MOL0     H73684  -1.559   8.277   4.487  0.7845 -1.2663  1.2416
  546MOL0     H73685  -1.630   8.137   4.547 -1.1592  3.2944  1.6761
  546MOL0     H73686  -1.633   8.223   4.250 -1.3791  0.5960 -0.9848
  546MOL0     H73687  -1.719   8.085   4.316  0.7953 -0.9886  2.6364
  546MOL0     H73688  -1.781   8.381   4.406  0.0682 -0.7100  2.5332
  546MOL0     H73689  -1.880   8.235   4.432  0.0592  1.2620  1.9004
  546MOL0     H73690  -1.996   8.344   4.273 -1.4334 -1.7383  0.8766
  546MOL0     H73691  -1.906   8.207   4.210 -1.5107 -1.6945  5.7673
  546MOL0     H73692  -1.392   8.005   4.884 -1.6234 -3.1564  2.4166
  546MOL0     H73693  -1.253   8.063   5.045 -1.8706  0.6648 -1.8645
  546MOL0     H73694  -0.781   7.945   5.188 -1.8522  3.1807  0.7696
  546MOL0     H73695  -0.603   7.968   5.327 -0.6561 -0.0033 -0.4482
  546MOL0     H73696   1.035   7.862   6.289  3.7370  1.0161 -1.2677
  546MOL0     H73697   1.231   7.956   6.330 -0.1098 -0.1221 -0.5385
  546MOL0     H73698   1.408   8.444   6.443 -0.7304  1.4361  4.0710
  546MOL0     H73699   1.617   8.569   6.484  2.9038  0.2693  1.3734
  546MOL0     H73700   1.946   8.358   6.676 -0.5980  0.9309  0.4811
  546MOL0     H73701   1.998   8.337   6.513 -1.4049 -2.6329  1.3537
  546MOL0     H73702   2.165   8.459   6.649  0.6346  1.1384 -1.1188
  546MOL0     H73703   2.053   8.582   6.691  3.1782  2.9865 -1.9677
  546MOL0     H73704   2.022   8.658   6.446 -2.4570 -2.5553  1.1517
  546MOL0     H73705   2.165   8.557   6.421 -0.6834  0.8017 -0.9499
  546MOL0     H73706   2.158   8.787   6.626 -1.6654 -3.4654  1.5932
  546MOL0     H73707   2.217   8.783   6.459 -0.7969  0.1298  0.1267
  546MOL0     H73708   2.513   8.561   6.675 -1.8046 -2.9063 -0.6597
  546MOL0     H73709   1.820   8.205   6.589  1.9122  1.9710  1.0108
  546MOL0     H73710   1.624   8.067   6.517 -1.2787  0.0827 -1.9972
  547MOL0     O73711   5.294  10.432  10.334 -2.0562  0.2521  0.0122
  547MOL0     C73712   5.318  10.503  10.434  0.4240 -0.5117 -0.0055
  547MOL0     O73713   5.413  10.493  10.528 -0.0446 -0.6335  0.2079
  547MOL0     C73714   5.534  10.430  10.504 -0.4009 -0.4011 -0.1873
  547MOL0     C73715   5.595  10.427  10.377 -0.6025 -0.0287  1.0671
  547MOL0     C73716   5.730  10.377  10.363 -0.4826 -0.3404  0.4387
  547MOL0     C73717   5.803  10.325  10.470  0.2854 -0.5051 -0.7783
  547MOL0     O73718   5.927  10.284  10.443  1.1941 -0.4539 -0.1055
  547MOL0     C73719   6.028  10.268  10.540  0.0204  0.2646 -0.0882
  547MOL0     C73720   6.105  10.398  10.581  1.0449 -0.2730 -0.1301
  547MOL0     C73721   6.020  10.511  10.650 -0.1755 -0.0174  0.8884
  547MOL0     C73722   5.951  10.618  10.558 -0.7630 -0.0429 -0.7845
  547MOL0     C73723   5.886  10.716  10.651  0.4168  0.0607 -0.1303
  547MOL0     C73724   5.799  10.790  10.566 -0.2924  0.2721 -0.2924
  547MOL0     C73725   5.712  10.893  10.634 -1.2839 -0.6138  0.4827
  547MOL0     C73726   5.661  10.869  10.777 -0.2703 -0.2780  0.4293
  547MOL0     N73727   5.579  10.987  10.805  0.1449 -0.5149  0.1024
  547MOL0     C73728   5.458  11.020  10.748 -0.1405 -0.4876  0.0578
  547MOL0     C73729   5.394  11.107  10.833 -0.0600 -0.1962 -1.0796
  547MOL0     C73730   5.266  11.167  10.809  0.5301  0.1806  0.8712
  547MOL0     C73731   5.190  11.183  10.934 -0.3594 -0.0009 -0.0896
  547MOL0     C73732   5.046  11.222  10.914 -0.5745 -0.2165 -0.4282
  547MOL0     C73733   4.993  11.339  11.004 -0.6633 -1.1185  0.2740
  547MOL0     O73734   4.857  11.362  10.974 -0.5880  0.0391  0.3438
  547MOL0     C73735   4.795  11.456  11.050 -0.2863  0.2780 -0.8185
  547MOL0     C73736   4.846  11.531  11.155  0.1723 -0.4725 -0.5676
  547MOL0     C73737   4.761  11.622  11.223 -0.2701 -0.7935 -0.9143
  547MOL0     C73738   4.834  11.725  11.307 -0.9643  0.3077 -0.2505
  547MOL0     C73739   4.626  11.635  11.196  0.1046 -0.2848 -0.3576
  547MOL0     C73740   4.545  11.726  11.276  0.4725 -0.0736 -0.0052
  547MOL0     O73741   4.437  11.753  11.209  0.1795  0.0935  0.0557
  547MOL0     C73742   4.324  11.808  11.266  0.8176  0.5517  0.1041
  547MOL0     C73743   4.236  11.876  11.177 -0.5184  0.7518  0.0027
  547MOL0     C73744   4.115  11.930  11.223  0.6086 -0.0994 -0.6562
  547MOL0     C73745   4.073  11.906  11.353  0.2868 -0.2888 -0.5932
  547MOL0     O73746   3.951  11.941  11.409  0.4628  0.0522  0.3742
  547MOL0     C73747   3.867  11.824  11.420  0.0578 -0.3301  0.3667
  547MOL0     C73748   3.794  11.807  11.284  0.2833 -0.0968  0.1636
  547MOL0     C73749   3.717  11.936  11.249 -0.6701 -0.3837  0.5474
  547MOL0     C73750   3.583  11.953  11.328  0.8881  0.0222 -0.4820
  547MOL0     C73751   3.502  12.068  11.277  0.7256 -1.3170  0.1188
  547MOL0     C73752   3.358  12.073  11.336 -0.9667 -0.0948  0.1803
  547MOL0     C73753   3.286  12.189  11.268 -0.0074  0.7255  0.2098
  547MOL0     C73754   3.132  12.189  11.317 -0.1355 -0.3774 -0.2356
  547MOL0    Cl73755   3.127  12.267  11.487  0.1581  0.1845  0.0142
  547MOL0     C73756   4.169  11.852  11.442 -0.5889  0.4719 -0.6369
  547MOL0     C73757   4.293  11.797  11.404  0.5892  0.5007  0.4657
  547MOL0     O73758   4.580  11.777  11.385 -0.1491 -0.7469 -0.1912
  547MOL0     C73759   4.572  11.554  11.093 -0.1967  0.8050 -0.3747
  547MOL0     C73760   4.655  11.467  11.024 -0.8794  0.1275 -0.6663
  547MOL0     N73761   5.474  11.122  10.942  0.0132 -0.2932 -1.4072
  547MOL0     N73762   5.592  11.067  10.919 -0.4699  0.1794  0.2209
  547MOL0     C73763   5.738  10.319  10.598  1.4967  0.4557 -0.4244
  547MOL0     C73764   5.603  10.370  10.614  0.7031 -0.7502  0.0419
  547MOL0     C73765   5.226  10.619  10.457 -0.2186 -0.5132  0.6553
  547MOL0     C73766   5.243  10.701  10.566  0.6642 -0.2414 -0.2599
  547MOL0     C73767   5.144  10.797  10.599  0.0264  0.0735  0.0017
  547MOL0     C73768   5.031  10.814  10.521 -0.2401  0.2823  0.0591
  547MOL0     O73769   4.929  10.906  10.548 -0.6993 -0.0074 -0.2438
  547MOL0     C73770   4.915  10.956  10.685  0.4973 -0.1664  0.7851
  547MOL0     C73771   4.809  11.064  10.682 -0.0788  0.3594 -0.0295
  547MOL0     C73772   4.673  11.003  10.647  0.2595 -0.3151 -0.1188
  547MOL0     C73773   4.572  11.124  10.639 -0.1339 -0.6823 -0.1620
  547MOL0     C73774   4.501  11.153  10.761  0.0552  1.2291 -0.0677
  547MOL0     C73775   4.440  11.183  10.860  0.3652 -0.3124  0.3509
  547MOL0     C73776   5.021  10.748  10.400  0.3866 -0.4877  0.2657
  547MOL0     C73777   5.115  10.646  10.370 -0.5193  0.0259 -0.2827
  547MOL0     H73778   5.558  10.460  10.281 -0.0326  1.0613  1.2077
  547MOL0     H73779   5.769  10.376  10.262  0.8243  1.5393  0.8658
  547MOL0     H73780   5.998  10.230  10.638 -0.3646  1.1482  0.1518
  547MOL0     H73781   6.090  10.192  10.491 -4.6032 -1.6617 -3.6674
  547MOL0     H73782   6.187  10.378  10.651  0.1437 -2.1804  0.4537
  547MOL0     H73783   6.134  10.438  10.483 -2.8842 -1.2935 -1.8907
  547MOL0     H73784   5.932  10.465  10.695 -0.1995  1.6395  2.6443
  547MOL0     H73785   6.096  10.557  10.714  0.6768  0.4783 -0.4240
  547MOL0     H73786   6.030  10.670  10.504  0.1457 -0.5216  0.0377
  547MOL0     H73787   5.880  10.567  10.492  1.1381 -4.1285  0.0192
  547MOL0     H73788   5.826  10.669  10.729  1.4575 -1.3477 -0.1348
  547MOL0     H73789   5.961  10.775  10.707 -2.1662  1.6386  1.9043
  547MOL0     H73790   5.861  10.852  10.502 -1.5488  2.0911  0.1674
  547MOL0     H73791   5.743  10.719  10.505 -0.1788  0.9706 -1.2223
  547MOL0     H73792   5.773  10.984  10.645 -0.0113 -1.3766 -0.1090
  547MOL0     H73793   5.636  10.932  10.566  0.0036 -0.7753 -1.1015
  547MOL0     H73794   5.749  10.862  10.842  1.0132  1.0002 -1.0681
  547MOL0     H73795   5.604  10.776  10.776  1.0337 -1.2754  4.1012
  547MOL0     H73796   5.429  10.990  10.647  1.8292  0.3715 -0.8271
  547MOL0     H73797   5.283  11.262  10.757 -0.8957  0.3643  0.7035
  547MOL0     H73798   5.215  11.109  10.732  2.1303  0.6601 -0.6167
  547MOL0     H73799   5.247  11.255  10.993  1.3369 -0.5848 -0.9358
  547MOL0     H73800   5.194  11.088  10.988 -3.1220 -0.2223 -0.1590
  547MOL0     H73801   4.984  11.136  10.940  1.3211 -0.6556  3.2898
  547MOL0     H73802   5.043  11.258  10.811  1.1549  1.1148 -0.0650
  547MOL0     H73803   5.055  11.423  10.969 -0.5861  0.0173  2.8612
  547MOL0     H73804   5.008  11.313  11.109 -1.2755 -2.2387  0.0973
  547MOL0     H73805   4.950  11.536  11.184 -0.1472 -1.8816  0.9594
  547MOL0     H73806   4.938  11.730  11.274 -1.1638 -2.9367 -1.7832
  547MOL0     H73807   4.785  11.823  11.308 -2.0122  0.0469  5.1522
  547MOL0     H73808   4.826  11.698  11.413 -2.1112  2.0989  0.1729
  547MOL0     H73809   4.256  11.869  11.071  0.9767 -4.7256  0.3304
  547MOL0     H73810   4.042  11.970  11.153  0.2602 -0.6582 -0.6211
  547MOL0     H73811   3.914  11.726  11.438  1.4523  0.3383  0.4510
  547MOL0     H73812   3.785  11.849  11.488  0.0307  3.0304 -0.7587
  547MOL0     H73813   3.863  11.795  11.200 -0.3899  1.3275 -0.6303
  547MOL0     H73814   3.726  11.721  11.283 -1.8144  1.4698 -1.2268
  547MOL0     H73815   3.697  11.936  11.141  1.5240  3.4568 -0.0522
  547MOL0     H73816   3.790  12.016  11.267 -2.1643  0.8410  1.3375
  547MOL0     H73817   3.530  11.860  11.306  2.2325 -0.9840  0.3506
  547MOL0     H73818   3.599  11.951  11.436 -3.1325 -0.5560  0.2621
  547MOL0     H73819   3.488  12.056  11.169 -1.9425  0.2765  0.1977
  547MOL0     H73820   3.554  12.163  11.289  2.1652 -2.2107  1.2199
  547MOL0     H73821   3.312  11.977  11.308 -0.4435  0.7219 -4.2258
  547MOL0     H73822   3.368  12.088  11.444  2.4778  1.9199 -0.2575
  547MOL0     H73823   3.292  12.180  11.160  1.1201  1.7493  0.1691
  547MOL0     H73824   3.341  12.281  11.286  2.4601 -0.5491 -0.4396
  547MOL0     H73825   3.096  12.086  11.323  1.9351 -1.0786  2.2964
  547MOL0     H73826   3.077  12.258  11.253  1.8072  0.9107 -0.6165
  547MOL0     H73827   4.143  11.834  11.546  2.5478  0.9923  0.3339
  547MOL0     H73828   4.354  11.739  11.472  0.9020  0.7305  0.3873
  547MOL0     H73829   4.469  11.560  11.059  0.2249 -0.2824 -1.9962
  547MOL0     H73830   4.612  11.410  10.942  1.8569 -2.9094 -0.1496
  547MOL0     H73831   5.777  10.277  10.690 -0.2113 -4.6859 -1.7437
  547MOL0     H73832   5.565  10.375  10.716  0.1464  2.7269 -0.2413
  547MOL0     H73833   5.338  10.681  10.614  0.4442 -2.6377 -0.6632
  547MOL0     H73834   5.158  10.867  10.681  2.1581 -1.7607  1.3135
  547MOL0     H73835   4.889  10.870  10.747  4.0140 -0.4043  2.1752
  547MOL0     H73836   5.007  10.999  10.725  0.7431 -0.8608  0.9899
  547MOL0     H73837   4.844  11.142  10.614 -1.6058  0.4980 -0.6990
  547MOL0     H73838   4.792  11.113  10.778 -1.7301  0.0189 -0.1211
  547MOL0     H73839   4.643  10.934  10.727 -2.5051  2.2401  1.2649
  547MOL0     H73840   4.690  10.953  10.551  1.0719  1.1666 -0.7779
  547MOL0     H73841   4.507  11.119  10.551  1.7832  1.6507 -1.8251
  547MOL0     H73842   4.628  11.209  10.598  0.0099  0.1634  1.6738
  547MOL0     H73843   4.397  11.216  10.953 -1.3682  2.7343 -1.3812
  547MOL0     H73844   4.936  10.759  10.334  1.9817 -2.1563 -2.2805
  547MOL0     H73845   5.096  10.591  10.278  0.2483 -2.8256  1.1511
  548MOL0     O73846   5.613   1.323   0.093  1.0807 -0.4041  0.2215
  548MOL0     C73847   5.608   1.207   0.126  0.2542  0.0230  0.0554
  548MOL0     O73848   5.501   1.151   0.195  0.2481  0.0795  0.1304
  548MOL0     C73849   5.392   1.229   0.225 -0.6432 -0.0107  0.0124
  548MOL0     C73850   5.338   1.325   0.145 -0.0868 -0.1561  0.9155
  548MOL0     C73851   5.236   1.407   0.187 -0.3501 -0.6634 -0.2959
  548MOL0     C73852   5.168   1.384   0.301 -0.2000  0.3781 -0.1226
  548MOL0     O73853   5.057   1.467   0.331 -0.0539 -0.6245  0.3048
  548MOL0     C73854   4.977   1.443   0.452 -0.6854 -0.2130 -0.2257
  548MOL0     C73855   4.891   1.568   0.480 -0.8217  0.9569 -0.2268
  548MOL0     C73856   4.822   1.608   0.350  1.3005  0.1360  0.1850
  548MOL0     C73857   4.706   1.697   0.377  0.0317  0.0628  0.1008
  548MOL0     C73858   4.583   1.678   0.285 -1.2011 -0.1005  0.1692
  548MOL0     C73859   4.466   1.768   0.332 -0.7467 -0.7316  0.0863
  548MOL0     C73860   4.334   1.722   0.272 -0.0015 -0.3543  0.1181
  548MOL0     C73861   4.282   1.601   0.344  0.3205  0.5453 -0.2673
  548MOL0     N73862   4.270   1.628   0.485 -0.2009 -0.3429  0.7334
  548MOL0     C73863   4.179   1.705   0.548  0.5047 -0.9404 -0.8202
  548MOL0     C73864   4.216   1.703   0.678 -0.2980 -0.5536 -0.7887
  548MOL0     C73865   4.124   1.741   0.794 -0.5622  0.3510 -0.0531
  548MOL0     C73866   4.201   1.814   0.913  0.8835  0.0291  0.0641
  548MOL0     C73867   4.129   1.851   1.042  0.6794  0.6232 -0.0688
  548MOL0     C73868   4.067   1.731   1.111  0.1742  0.2914 -0.1309
  548MOL0     O73869   3.958   1.664   1.045 -0.4808  0.4629  0.1763
  548MOL0     C73870   3.885   1.587   1.135  0.3956  0.4243  0.3500
  548MOL0     C73871   3.924   1.526   1.252  0.6366 -0.0591  0.0104
  548MOL0     C73872   3.828   1.464   1.337 -0.0788 -0.7834  0.2913
  548MOL0     C73873   3.881   1.380   1.457  0.1928 -0.4830  0.4859
  548MOL0     C73874   3.694   1.459   1.298  0.2440 -0.1667 -0.1844
  548MOL0     C73875   3.584   1.392   1.380 -0.1803 -0.1124 -0.3964
  548MOL0     O73876   3.479   1.344   1.312  0.4866  0.0972  1.1069
  548MOL0     C73877   3.372   1.298   1.381  0.3495  1.1515 -0.8257
  548MOL0     C73878   3.374   1.188   1.474 -1.0316  0.0095  0.3658
  548MOL0     C73879   3.258   1.146   1.537 -0.5347 -0.2227 -1.1316
  548MOL0     C73880   3.138   1.219   1.525  0.3571 -0.7370 -0.1054
  548MOL0     O73881   3.033   1.163   1.592  0.1682 -0.2186 -0.0484
  548MOL0     C73882   2.918   1.242   1.627  0.3879 -0.0914  0.0917
  548MOL0     C73883   2.824   1.266   1.507 -0.1190 -0.8190 -0.1494
  548MOL0     C73884   2.680   1.287   1.555  0.3946 -0.0910 -0.5000
  548MOL0     C73885   2.581   1.170   1.543  1.0494 -0.1343 -0.0248
  548MOL0     C73886   2.445   1.218   1.586 -0.2611  0.0497  0.3849
  548MOL0     C73887   2.334   1.116   1.571  0.0105  0.0815 -0.4004
  548MOL0     C73888   2.206   1.176   1.646  0.5914  0.5498 -0.4729
  548MOL0     C73889   2.083   1.094   1.599  0.7524 -0.2160 -0.4343
  548MOL0    Cl73890   1.960   1.077   1.721  0.5992  0.0128  0.0080
  548MOL0     C73891   3.139   1.336   1.452  0.6021 -1.1840 -0.0427
  548MOL0     C73892   3.260   1.380   1.386 -0.3295 -0.1903 -0.3148
  548MOL0     O73893   3.595   1.394   1.506 -0.4991  0.3373 -0.5128
  548MOL0     C73894   3.663   1.512   1.172  0.0316  0.0156 -0.1001
  548MOL0     C73895   3.757   1.577   1.087  0.7267  0.6725 -1.4488
  548MOL0     N73896   4.335   1.643   0.696 -0.1607 -0.5567 -0.2937
  548MOL0     N73897   4.357   1.585   0.582 -0.2680  1.1671 -0.0959
  548MOL0     C73898   5.206   1.275   0.377  0.2713 -0.1720 -0.9407
  548MOL0     C73899   5.323   1.202   0.338 -0.3807 -0.2360  0.2159
  548MOL0     C73900   5.727   1.128   0.097 -0.4075  0.0483 -0.9489
  548MOL0     C73901   5.735   0.994   0.149 -0.0939 -0.1472 -0.2874
  548MOL0     C73902   5.849   0.917   0.133 -1.1052 -0.2490  0.2245
  548MOL0     C73903   5.969   0.973   0.087  0.2117  0.2837  0.9309
  548MOL0     O73904   6.068   0.881   0.054  0.1416 -0.6672  0.0352
  548MOL0     C73905   6.153   0.917  -0.059 -0.5549 -0.6720  1.2159
  548MOL0     C73906   6.286   0.988  -0.028  0.2451  0.0210  0.3880
  548MOL0     C73907   6.390   0.879   0.028 -0.7463 -0.7891  0.3754
  548MOL0     C73908   6.521   0.892  -0.044 -0.4637  0.7473 -1.2294
  548MOL0     C73909   6.628   0.853   0.053  0.4936  0.6915  0.3268
  548MOL0     C73910   6.710   0.804   0.131  0.3867  0.7563  0.1623
  548MOL0     C73911   5.969   1.109   0.057 -0.1650 -0.5830 -0.0536
  548MOL0     C73912   5.851   1.186   0.050  0.5089 -0.3920  0.3288
  548MOL0     H73913   5.367   1.353   0.044 -2.5723  4.3505  1.1788
  548MOL0     H73914   5.198   1.487   0.125 -0.8661 -2.3472 -2.2913
  548MOL0     H73915   4.916   1.352   0.446 -1.3020  0.1663  0.0777
  548MOL0     H73916   5.046   1.448   0.537 -2.1351 -0.7961  1.0321
  548MOL0     H73917   4.817   1.548   0.559  1.4295  0.4819  1.8626
  548MOL0     H73918   4.957   1.648   0.514 -0.2042  0.4584 -0.2358
  548MOL0     H73919   4.895   1.648   0.278  2.8094 -2.7804 -0.0636
  548MOL0     H73920   4.785   1.510   0.317 -2.1911  0.9255  1.4184
  548MOL0     H73921   4.672   1.687   0.480  3.0830  0.0946  1.2109
  548MOL0     H73922   4.744   1.799   0.366  1.7513 -0.3662  1.5339
  548MOL0     H73923   4.600   1.676   0.177 -0.9747  0.5700  0.1895
  548MOL0     H73924   4.553   1.573   0.292 -1.1745 -0.2875 -1.8073
  548MOL0     H73925   4.469   1.773   0.441  1.4714 -1.7811  0.1358
  548MOL0     H73926   4.484   1.872   0.303  0.4674 -0.6887  0.9254
  548MOL0     H73927   4.260   1.800   0.292 -1.0618 -1.6438  1.4125
  548MOL0     H73928   4.344   1.703   0.165  2.2404 -2.7652  0.6533
  548MOL0     H73929   4.353   1.519   0.331  2.9900  2.6309  0.1266
  548MOL0     H73930   4.190   1.571   0.294  0.8386 -1.6696  0.0132
  548MOL0     H73931   4.085   1.740   0.504 -0.0206 -0.7615  0.4034
  548MOL0     H73932   4.040   1.792   0.745  1.0227  1.9011 -1.2797
  548MOL0     H73933   4.095   1.643   0.835  2.8504 -1.9895 -2.6320
  548MOL0     H73934   4.251   1.900   0.868  0.7481  0.5521  0.8940
  548MOL0     H73935   4.280   1.745   0.943  0.8875  0.2565  0.5880
  548MOL0     H73936   4.056   1.930   1.025 -0.3562 -0.5843 -1.4341
  548MOL0     H73937   4.199   1.891   1.117  0.2155 -1.1357  1.3625
  548MOL0     H73938   4.031   1.758   1.211  2.3373 -0.6946  1.0072
  548MOL0     H73939   4.145   1.653   1.111  0.3370  0.4493 -1.2310
  548MOL0     H73940   4.025   1.519   1.293  0.0057 -0.3020  1.5943
  548MOL0     H73941   3.985   1.395   1.488  0.3111  0.1241 -0.1510
  548MOL0     H73942   3.832   1.408   1.550  1.0146  1.5392  0.3648
  548MOL0     H73943   3.864   1.273   1.441  1.2747 -1.2132  3.5858
  548MOL0     H73944   3.470   1.136   1.483  0.3449  2.5282  1.2496
  548MOL0     H73945   3.241   1.053   1.590 -0.4693 -1.5297 -3.2926
  548MOL0     H73946   2.859   1.191   1.703  0.6131 -1.4752 -0.6194
  548MOL0     H73947   2.951   1.337   1.669  2.1781 -0.9596  0.7267
  548MOL0     H73948   2.863   1.343   1.439 -3.3428 -1.4312 -3.0207
  548MOL0     H73949   2.825   1.178   1.442 -1.7508  1.0738 -2.9915
  548MOL0     H73950   2.637   1.362   1.489 -2.2476 -0.9667  0.1183
  548MOL0     H73951   2.683   1.332   1.655 -0.4085 -0.2506 -0.4032
  548MOL0     H73952   2.575   1.125   1.443  0.0555 -1.1676  0.4698
  548MOL0     H73953   2.613   1.093   1.613 -1.4984 -0.4405  0.9000
  548MOL0     H73954   2.419   1.312   1.534 -2.7106 -0.0924  1.2169
  548MOL0     H73955   2.451   1.248   1.691 -0.0885  0.3053  0.3036
  548MOL0     H73956   2.322   1.077   1.469 -1.2268 -0.9017  0.0938
  548MOL0     H73957   2.365   1.025   1.625 -2.1022  0.4569  1.5912
  548MOL0     H73958   2.193   1.282   1.620 -0.0403 -0.0945 -3.1075
  548MOL0     H73959   2.222   1.175   1.754  0.5238 -1.7844 -0.4514
  548MOL0     H73960   2.117   0.994   1.574  2.2948 -0.6413  2.8482
  548MOL0     H73961   2.039   1.138   1.508  3.4185 -0.2771 -1.8491
  548MOL0     H73962   3.057   1.407   1.444  0.2104 -1.5937  0.3222
  548MOL0     H73963   3.266   1.466   1.321  0.7372 -0.8138 -1.0754
  548MOL0     H73964   3.557   1.509   1.149 -0.6976  3.7546  1.9714
  548MOL0     H73965   3.734   1.624   0.992  1.1584  0.3050 -1.7440
  548MOL0     H73966   5.158   1.241   0.468  3.1997  0.6343  1.0759
  548MOL0     H73967   5.356   1.116   0.396 -3.9609  0.3599  3.6218
  548MOL0     H73968   5.648   0.940   0.185 -0.1632 -0.8271 -1.4465
  548MOL0     H73969   5.853   0.811   0.158  1.1314 -0.7089 -1.6612
  548MOL0     H73970   6.187   0.825  -0.107  1.0297  0.3005  0.4181
  548MOL0     H73971   6.096   0.982  -0.126  0.6950  2.7697  3.2344
  548MOL0     H73972   6.271   1.065   0.048 -2.3347  1.2185 -1.1877
  548MOL0     H73973   6.324   1.039  -0.117 -0.5630 -2.8744 -1.7708
  548MOL0     H73974   6.362   0.773   0.025  1.0502 -1.2558 -1.3606
  548MOL0     H73975   6.405   0.905   0.133 -3.2539 -1.1633  0.8896
  548MOL0     H73976   6.545   0.998  -0.060  0.9586  0.8010  0.7954
  548MOL0     H73977   6.529   0.840  -0.139  1.3215  0.5500 -1.0105
  548MOL0     H73978   6.754   0.738   0.203 -0.1820  1.0498  0.7821
  548MOL0     H73979   6.062   1.161   0.038  0.0438 -1.3502 -1.2112
  548MOL0     H73980   5.847   1.290   0.020 -2.6985 -0.2695  0.7477
  549MOL0     O73981  10.711   6.134  11.026 -0.2013  0.4192 -0.1386
  549MOL0     C73982  10.604   6.169  10.971 -0.5700  0.4031 -0.0392
  549MOL0     O73983  10.540   6.098  10.882 -0.2400 -0.1207 -0.7220
  549MOL0     C73984  10.619   6.005  10.818  0.4099 -0.6282 -1.2162
  549MOL0     C73985  10.676   6.029  10.690 -0.0615 -0.9256 -0.4596
  549MOL0     C73986  10.734   5.930  10.609 -0.2580  0.9053 -0.5551
  549MOL0     C73987  10.740   5.793  10.653  0.2806  0.6514  0.0208
  549MOL0     O73988  10.809   5.690  10.588  0.1824  0.6004  0.4119
  549MOL0     C73989  10.739   5.558  10.578  0.3424 -0.3486  0.4677
  549MOL0     C73990  10.611   5.562  10.485 -0.1990  0.2578 -0.5238
  549MOL0     C73991  10.573   5.432  10.411  0.5331  0.7512  0.0347
  549MOL0     C73992  10.499   5.478  10.276  0.5754  0.5388 -0.1640
  549MOL0     C73993  10.460   5.356  10.189  0.4582  0.1317 -0.1988
  549MOL0     C73994  10.401   5.380  10.039 -0.2463 -0.3739 -0.3412
  549MOL0     C73995  10.372   5.253   9.954 -0.0931 -0.4603 -0.2284
  549MOL0     C73996  10.320   5.297   9.816 -0.2433 -0.1596 -1.0949
  549MOL0     N73997  10.236   5.192   9.762 -0.9993  0.0937 -0.1789
  549MOL0     C73998  10.261   5.061   9.741  0.3704  0.4828  0.5394
  549MOL0     C73999  10.171   5.019   9.655  0.3754 -0.3906  0.3344
  549MOL0     C74000  10.164   4.874   9.604 -0.1348 -0.0895  0.5531
  549MOL0     C74001  10.033   4.834   9.528 -0.1545  0.0546 -0.0699
  549MOL0     C74002  10.051   4.861   9.378 -0.0409  0.4185 -0.7698
  549MOL0     C74003   9.931   4.809   9.290  0.2576 -0.0409  0.4549
  549MOL0     O74004   9.934   4.666   9.280  0.0147 -0.4922 -0.2039
  549MOL0     C74005   9.836   4.587   9.227  0.4944 -0.9539 -0.2275
  549MOL0     C74006   9.706   4.642   9.198 -0.2127 -0.3488 -0.4195
  549MOL0     C74007   9.610   4.554   9.159  1.8840  0.4598 -0.8239
  549MOL0     C74008   9.462   4.613   9.133 -0.3237  0.4054  0.3564
  549MOL0     C74009   9.628   4.420   9.141  0.1484 -0.0841  0.3520
  549MOL0     C74010   9.538   4.322   9.079  0.4005  0.2283  0.6673
  549MOL0     O74011   9.474   4.356   8.963 -0.2991  0.3055 -0.0348
  549MOL0     C74012   9.369   4.282   8.900  1.2113  0.3155 -0.5935
  549MOL0     C74013   9.385   4.155   8.836 -0.9903 -0.1532 -0.6321
  549MOL0     C74014   9.281   4.080   8.779  0.7057 -0.5267  0.0884
  549MOL0     C74015   9.152   4.133   8.777  0.1112 -0.5503  0.2452
  549MOL0     O74016   9.037   4.078   8.734 -0.0017 -0.7344 -0.6840
  549MOL0     C74017   9.022   3.937   8.720  0.5341 -0.3861 -0.3279
  549MOL0     C74018   8.873   3.901   8.705  1.0207  0.0720 -0.1143
  549MOL0     C74019   8.822   3.922   8.560 -0.7342 -1.2315 -0.7352
  549MOL0     C74020   8.863   3.801   8.478 -0.2898 -0.2542  0.1676
  549MOL0     C74021   8.792   3.789   8.349 -0.6640 -0.0744  0.3684
  549MOL0     C74022   8.646   3.733   8.365 -0.2617 -0.0158  0.4926
  549MOL0     C74023   8.540   3.809   8.277 -0.1127 -0.2010 -0.3370
  549MOL0     C74024   8.414   3.734   8.259  0.2759 -0.4822 -0.9856
  549MOL0    Cl74025   8.322   3.853   8.169  0.3242 -0.4800  0.7751
  549MOL0     C74026   9.138   4.271   8.820  1.6771  0.0649  0.1640
  549MOL0     C74027   9.240   4.344   8.882  0.3111  0.9566 -0.8840
  549MOL0     O74028   9.508   4.219   9.144 -0.2069  0.2037 -0.3061
  549MOL0     C74029   9.755   4.369   9.172 -0.0797 -0.8413  0.2650
  549MOL0     C74030   9.865   4.448   9.208  0.8634  1.3918 -0.3621
  549MOL0     N74031  10.084   5.119   9.623  0.5102  0.1503  0.2370
  549MOL0     N74032  10.132   5.223   9.684  0.7685 -0.1789  0.6501
  549MOL0     C74033  10.683   5.765  10.789  0.5911  0.1930  1.1780
  549MOL0     C74034  10.633   5.872  10.865  0.0177  0.0192 -0.1967
  549MOL0     C74035  10.537   6.286  11.017  0.9686  0.1712 -0.5148
  549MOL0     C74036  10.409   6.329  10.967 -0.0008 -0.0167  0.1206
  549MOL0     C74037  10.331   6.428  11.025 -0.9342 -0.6895 -0.5938
  549MOL0     C74038  10.386   6.514  11.127  0.0506 -0.0795 -0.1324
  549MOL0     O74039  10.327   6.629  11.178  0.5285  0.3550  0.3905
  549MOL0     C74040  10.212   6.686  11.115 -0.0325 -0.6364 -0.4404
  549MOL0     C74041  10.202   6.840  11.130 -0.8657  0.1770 -0.1586
  549MOL0     C74042  10.322   6.910  11.056 -0.1200 -0.0382 -0.4389
  549MOL0     C74043  10.307   7.057  11.085  0.1112  0.8076 -0.4633
  549MOL0     C74044  10.416   7.136  11.033 -0.0484 -0.2520  0.3662
  549MOL0     C74045  10.508   7.197  10.975  0.4771  0.4041  0.2088
  549MOL0     C74046  10.515   6.477  11.176 -0.0649  0.4266 -0.0254
  549MOL0     C74047  10.575   6.357  11.134 -0.0123 -0.5554 -0.4314
  549MOL0     H74048  10.667   6.128  10.649 -2.7759  0.2133  2.4507
  549MOL0     H74049  10.774   5.927  10.508  0.2428 -3.7577 -0.4386
  549MOL0     H74050  10.808   5.488  10.530  0.5507  1.2193 -1.6336
  549MOL0     H74051  10.710   5.513  10.674 -1.2222  0.8316  0.5893
  549MOL0     H74052  10.532   5.595  10.553  1.5619 -0.5387  2.0680
  549MOL0     H74053  10.632   5.644  10.416 -0.2019  0.5545 -0.1708
  549MOL0     H74054  10.664   5.375  10.391  0.8225  1.4677 -0.7850
  549MOL0     H74055  10.498   5.385  10.475  0.5639  0.6529 -0.0019
  549MOL0     H74056  10.412   5.539  10.302  0.7108  0.2714  0.9665
  549MOL0     H74057  10.574   5.543  10.230 -0.2515  1.0598 -0.8026
  549MOL0     H74058  10.552   5.299  10.173  1.8892  2.0000  0.9380
  549MOL0     H74059  10.395   5.284  10.241  0.8332 -0.6420 -0.7714
  549MOL0     H74060  10.313   5.445  10.043  0.5514  0.7615  3.7801
  549MOL0     H74061  10.474   5.431   9.976 -0.2414 -2.2056 -1.9357
  549MOL0     H74062  10.458   5.185   9.949  0.3800  0.1952 -1.4314
  549MOL0     H74063  10.290   5.196  10.001  1.9188 -2.1521  1.4354
  549MOL0     H74064  10.404   5.321   9.750  1.4283  0.6422  1.2148
  549MOL0     H74065  10.261   5.388   9.823 -0.0577 -0.1771  2.4211
  549MOL0     H74066  10.340   4.998   9.779  1.6434 -0.5409 -3.3589
  549MOL0     H74067  10.248   4.860   9.536 -0.7275  2.9951 -0.9548
  549MOL0     H74068  10.182   4.804   9.686 -0.9262  1.5040  2.1692
  549MOL0     H74069   9.945   4.881   9.571 -0.2994  0.1166 -0.4328
  549MOL0     H74070  10.022   4.726   9.546  0.6566 -0.1108 -0.4908
  549MOL0     H74071  10.139   4.807   9.343 -0.2221  1.1453 -2.4745
  549MOL0     H74072  10.055   4.967   9.351  1.0797  0.9260  1.2194
  549MOL0     H74073   9.936   4.839   9.185  2.3218 -0.5539  0.3666
  549MOL0     H74074   9.839   4.845   9.338  0.2218  0.7592 -0.1812
  549MOL0     H74075   9.683   4.744   9.225 -0.8881 -1.0634  1.9200
  549MOL0     H74076   9.471   4.667   9.037  1.2375  1.7752  1.2144
  549MOL0     H74077   9.382   4.539   9.130  3.3029 -3.9445  0.6942
  549MOL0     H74078   9.425   4.685   9.206  0.3047 -0.1372  1.2240
  549MOL0     H74079   9.486   4.118   8.825 -0.4301  0.1999  2.3821
  549MOL0     H74080   9.302   3.986   8.728  0.7354  0.0636 -1.0169
  549MOL0     H74081   9.080   3.898   8.635 -0.5459 -1.6143 -0.5370
  549MOL0     H74082   9.053   3.883   8.810 -0.1138 -1.3754 -0.6752
  549MOL0     H74083   8.843   3.801   8.738 -1.4909  1.5552  2.5852
  549MOL0     H74084   8.821   3.965   8.777  2.8534  1.1058  0.3515
  549MOL0     H74085   8.854   4.015   8.511  2.9205 -1.9069  0.0929
  549MOL0     H74086   8.713   3.934   8.563 -0.6825 -0.6792 -0.8055
  549MOL0     H74087   8.970   3.813   8.454 -0.6332  1.9549 -0.5579
  549MOL0     H74088   8.856   3.705   8.530 -0.4147  0.7758  2.1507
  549MOL0     H74089   8.852   3.728   8.280 -1.5329 -1.2084  0.5957
  549MOL0     H74090   8.785   3.885   8.297  2.3434 -0.9070 -1.8775
  549MOL0     H74091   8.660   3.627   8.340  0.8714 -0.3880  2.5045
  549MOL0     H74092   8.617   3.742   8.470 -0.1949  0.3263  0.4802
  549MOL0     H74093   8.586   3.830   8.180  0.8289  1.1139  0.3531
  549MOL0     H74094   8.520   3.903   8.330  4.5798  0.4634  0.7112
  549MOL0     H74095   8.367   3.724   8.358 -0.8666 -0.7975 -1.5441
  549MOL0     H74096   8.428   3.646   8.196 -2.4483 -1.1912 -0.7204
  549MOL0     H74097   9.041   4.319   8.822 -0.0234 -2.8561 -3.0601
  549MOL0     H74098   9.212   4.442   8.920 -1.9284 -0.5015  1.6146
  549MOL0     H74099   9.782   4.265   9.153  2.0016  0.0973 -2.7430
  549MOL0     H74100   9.961   4.407   9.237 -0.3795 -0.8975  0.8732
  549MOL0     H74101  10.682   5.664  10.827 -1.1595  0.1443  1.0777
  549MOL0     H74102  10.589   5.846  10.961 -4.1963  0.2517 -1.8303
  549MOL0     H74103  10.365   6.274  10.885  0.1391 -0.4302  0.3199
  549MOL0     H74104  10.238   6.453  10.974 -0.5483  1.5671 -0.2618
  549MOL0     H74105  10.216   6.665  11.008  1.4203  0.3404 -0.6031
  549MOL0     H74106  10.128   6.645  11.172  0.2957 -0.0948  0.4704
  549MOL0     H74107  10.201   6.852  11.238 -2.4960 -0.7413 -0.0370
  549MOL0     H74108  10.109   6.879  11.087  1.2850  2.3835 -3.2546
  549MOL0     H74109  10.325   6.888  10.948 -0.1960  0.1869 -0.4849
  549MOL0     H74110  10.414   6.876  11.104  1.8901  2.8599 -1.9794
  549MOL0     H74111  10.320   7.066  11.193 -0.2605 -0.3420 -0.3063
  549MOL0     H74112  10.209   7.094  11.055 -0.9547 -1.1663  0.3512
  549MOL0     H74113  10.596   7.230  10.925  1.2817 -1.8134  0.1000
  549MOL0     H74114  10.536   6.537  11.264  0.7314  0.9912 -0.5805
  549MOL0     H74115  10.666   6.329  11.186 -1.3492 -1.8012  1.4251
  550MOL0     O74116   6.652   3.360  10.063 -0.6879 -0.2735 -0.6719
  550MOL0     C74117   6.615   3.466  10.008  0.1656  0.5294 -0.0647
  550MOL0     O74118   6.695   3.567   9.955 -0.2563  1.4453 -0.0562
  550MOL0     C74119   6.832   3.577   9.992  0.7296 -0.7277 -0.9546
  550MOL0     C74120   6.930   3.597   9.891 -0.2574  0.2426 -0.1073
  550MOL0     C74121   7.065   3.594   9.924  0.1304 -0.0595  0.3605
  550MOL0     C74122   7.106   3.575  10.052  0.6294  0.5471 -0.5564
  550MOL0     O74123   7.238   3.562  10.092 -0.2275 -0.0462 -0.6266
  550MOL0     C74124   7.317   3.510   9.989  0.3705 -0.0787 -0.3174
  550MOL0     C74125   7.427   3.435  10.054  0.3721  0.7053 -0.0655
  550MOL0     C74126   7.552   3.504  10.103  0.3746  0.0795  1.0409
  550MOL0     C74127   7.632   3.561   9.987 -0.2064 -0.0349 -0.9208
  550MOL0     C74128   7.747   3.651  10.034 -0.4785  0.9767 -0.2073
  550MOL0     C74129   7.864   3.566  10.102 -0.0514  0.5195  0.4469
  550MOL0     C74130   7.993   3.646  10.128 -0.5722 -0.4463  0.5147
  550MOL0     C74131   8.078   3.675  10.006 -0.2817 -0.3197 -0.8967
  550MOL0     N74132   8.135   3.549   9.947 -0.4264  0.4473  0.5184
  550MOL0     C74133   8.228   3.474  10.020  0.2398 -0.3189  0.3496
  550MOL0     C74134   8.235   3.352   9.964 -0.0898 -0.1582  0.4502
  550MOL0     C74135   8.309   3.225  10.008  0.4998 -0.2597  0.1359
  550MOL0     C74136   8.281   3.167  10.149 -0.0303 -0.2834 -0.1230
  550MOL0     C74137   8.132   3.125  10.148 -0.6466  0.4591  0.1784
  550MOL0     C74138   8.040   3.237  10.158 -0.2555  0.3936 -0.0796
  550MOL0     O74139   7.918   3.205  10.228  0.7483 -0.9614 -0.3983
  550MOL0     C74140   7.804   3.183  10.152  0.2705  0.3122 -0.0416
  550MOL0     C74141   7.697   3.158  10.229  0.8225 -0.5730  0.2896
  550MOL0     C74142   7.574   3.110  10.187  1.0285 -0.9164  0.6259
  550MOL0     C74143   7.472   3.089  10.293  0.5138 -0.6449  0.2566
  550MOL0     C74144   7.545   3.100  10.046  0.0253  0.4134  0.1960
  550MOL0     C74145   7.425   3.044   9.999 -0.5195 -0.1493  0.3248
  550MOL0     O74146   7.309   3.060  10.069 -0.2168 -0.1481  0.5583
  550MOL0     C74147   7.214   2.969  10.075 -0.3915  0.6560  0.6155
  550MOL0     C74148   7.229   2.835  10.056 -0.1190  0.6815 -0.7033
  550MOL0     C74149   7.122   2.742  10.057 -0.8118 -0.4485  0.4355
  550MOL0     C74150   6.997   2.788  10.083 -0.0940  0.2675  0.0880
  550MOL0     O74151   6.890   2.697  10.089 -1.1956 -0.0803  0.2215
  550MOL0     C74152   6.894   2.606  10.196 -0.3122 -0.1383 -0.3904
  550MOL0     C74153   6.812   2.489  10.154 -0.2292 -0.1894  0.7374
  550MOL0     C74154   6.667   2.516  10.123  0.1242  0.2980  1.0742
  550MOL0     C74155   6.582   2.389  10.113  0.5443 -0.0815 -0.2634
  550MOL0     C74156   6.442   2.443  10.105 -0.9851 -0.2355 -0.6685
  550MOL0     C74157   6.340   2.334  10.099 -0.4961 -0.5420 -0.3212
  550MOL0     C74158   6.194   2.381  10.134  0.8206 -0.2988  0.2815
  550MOL0     C74159   6.172   2.408  10.280  0.4545  0.3981  0.3393
  550MOL0    Cl74160   6.007   2.434  10.308 -0.1816 -0.2142  0.2523
  550MOL0     C74161   6.973   2.923  10.090 -0.5815  0.8494  0.1827
  550MOL0     C74162   7.085   3.011  10.086  0.3776 -0.0639 -0.0311
  550MOL0     O74163   7.434   2.977   9.892  1.0201 -0.1160 -0.5232
  550MOL0     C74164   7.656   3.130   9.961 -1.2028 -0.8976 -1.0565
  550MOL0     C74165   7.778   3.179  10.015  0.6647  0.8573  0.5675
  550MOL0     N74166   8.143   3.355   9.861  0.2242  0.3304 -0.9228
  550MOL0     N74167   8.084   3.471   9.849  0.3070 -0.3109  0.1387
  550MOL0     C74168   7.008   3.556  10.156 -0.3259 -0.2649 -0.0925
  550MOL0     C74169   6.873   3.567  10.130 -0.2211  0.4628 -0.4685
  550MOL0     C74170   6.471   3.471   9.967 -0.3155 -0.1427  0.4382
  550MOL0     C74171   6.413   3.582   9.906 -0.6297  0.0230 -0.0409
  550MOL0     C74172   6.286   3.573   9.842 -0.4122 -0.0636  0.4179
  550MOL0     C74173   6.213   3.459   9.851  0.3371  0.6786 -0.6626
  550MOL0     O74174   6.094   3.440   9.779 -0.1258 -0.5040 -0.3305
  550MOL0     C74175   6.035   3.535   9.697  0.2963  1.1569  0.4373
  550MOL0     C74176   5.915   3.474   9.613 -0.5303 -0.4776  0.3252
  550MOL0     C74177   5.806   3.426   9.712  0.2322 -0.1743  1.1585
  550MOL0     C74178   5.677   3.387   9.641  0.0571  0.1718 -0.9192
  550MOL0     C74179   5.709   3.278   9.543  0.0570 -0.0535  0.2543
  550MOL0     C74180   5.718   3.197   9.455 -0.5684  0.0239  1.0769
  550MOL0     C74181   6.264   3.350   9.925 -0.3505 -0.2708  1.0206
  550MOL0     C74182   6.399   3.356   9.980  0.3567  0.3429  0.5544
  550MOL0     H74183   6.905   3.603   9.785  2.4511 -1.7406 -0.9753
  550MOL0     H74184   7.129   3.612   9.838 -1.4597  2.9439 -0.3060
  550MOL0     H74185   7.277   3.429   9.927 -0.4516 -0.0547  0.1670
  550MOL0     H74186   7.354   3.599   9.938 -0.7524 -0.1341 -1.2840
  550MOL0     H74187   7.390   3.385  10.144 -0.9320  0.7324 -0.5725
  550MOL0     H74188   7.459   3.351   9.993  2.3131 -0.8476  2.8853
  550MOL0     H74189   7.521   3.586  10.168 -1.9877 -0.4979  0.7175
  550MOL0     H74190   7.603   3.430  10.166 -1.6389 -0.2518  2.3718
  550MOL0     H74191   7.673   3.484   9.921 -1.1223 -0.1693 -1.3502
  550MOL0     H74192   7.558   3.605   9.920 -0.7538 -0.9253 -0.9148
  550MOL0     H74193   7.795   3.705   9.952 -0.2349 -0.8993 -1.3516
  550MOL0     H74194   7.705   3.719  10.108  0.5683 -0.8900  2.2727
  550MOL0     H74195   7.833   3.521  10.197  1.3527  2.2068  1.7744
  550MOL0     H74196   7.898   3.488  10.034  3.8943  1.5527  0.9841
  550MOL0     H74197   7.956   3.740  10.169  0.1191 -0.6078  1.5398
  550MOL0     H74198   8.053   3.592  10.201 -0.1777  1.4350  1.6503
  550MOL0     H74199   8.147   3.747  10.051  1.5925 -3.3840  1.4476
  550MOL0     H74200   8.020   3.731   9.932 -0.4817  0.2425 -0.3238
  550MOL0     H74201   8.286   3.503  10.107 -1.4686  1.5581  0.9476
  550MOL0     H74202   8.280   3.148   9.935 -2.1498 -0.2292  1.0511
  550MOL0     H74203   8.415   3.247   9.990  0.4563 -2.0000 -3.2458
  550MOL0     H74204   8.301   3.230  10.237  0.8429 -2.4402  1.2960
  550MOL0     H74205   8.341   3.077  10.160 -1.2660 -0.8540  2.6836
  550MOL0     H74206   8.135   3.056  10.233  1.9265  1.1329  0.7030
  550MOL0     H74207   8.112   3.060  10.062  0.4442 -2.3218  1.8997
  550MOL0     H74208   8.005   3.269  10.059 -2.6444 -1.5414  0.0576
  550MOL0     H74209   8.083   3.320  10.215  1.2118  1.0551 -1.9994
  550MOL0     H74210   7.717   3.159  10.336  0.1956 -2.1076  0.4517
  550MOL0     H74211   7.371   3.125  10.270 -0.4416 -1.8561  2.3154
  550MOL0     H74212   7.457   2.983  10.310 -2.4160 -0.5998 -1.3407
  550MOL0     H74213   7.505   3.152  10.376  2.2493  0.2211 -1.0290
  550MOL0     H74214   7.329   2.794  10.050  0.4172  0.8220  3.8150
  550MOL0     H74215   7.141   2.636  10.047  1.7470  0.0705 -0.9055
  550MOL0     H74216   6.996   2.584  10.227 -0.7360 -0.0415  1.1351
  550MOL0     H74217   6.850   2.644  10.289  2.4474  0.2298  0.8733
  550MOL0     H74218   6.845   2.440  10.062 -4.2407 -0.6391 -0.6604
  550MOL0     H74219   6.824   2.412  10.231 -1.0656  1.1882  2.3139
  550MOL0     H74220   6.663   2.566  10.026  0.5771 -1.2042  0.2472
  550MOL0     H74221   6.625   2.580  10.201  0.2420  0.0474  1.3476
  550MOL0     H74222   6.602   2.317  10.033 -0.0080 -0.3483 -0.1656
  550MOL0     H74223   6.577   2.325  10.202 -1.6411  1.9813  1.2038
  550MOL0     H74224   6.432   2.514  10.021  3.0657  2.2222  0.6406
  550MOL0     H74225   6.421   2.490  10.202 -0.2966 -3.6342  1.2705
  550MOL0     H74226   6.345   2.294   9.997  1.2205 -0.6532 -0.2214
  550MOL0     H74227   6.356   2.254  10.171 -3.2677 -1.1604 -0.2788
  550MOL0     H74228   6.125   2.302  10.101 -0.7430 -0.3538  3.3457
  550MOL0     H74229   6.175   2.469  10.071  0.8568 -0.7804 -0.4164
  550MOL0     H74230   6.215   2.502  10.314  1.4521 -0.0589  0.3784
  550MOL0     H74231   6.199   2.326  10.348 -1.8128 -0.1003  0.7377
  550MOL0     H74232   6.877   2.972  10.090  0.5429  3.2145  0.9278
  550MOL0     H74233   7.072   3.117  10.107  2.5782 -0.0446  1.5083
  550MOL0     H74234   7.642   3.113   9.855  0.3903 -0.1888 -1.4081
  550MOL0     H74235   7.861   3.189   9.946  2.0988 -1.4265  1.8231
  550MOL0     H74236   7.050   3.542  10.255 -0.3884  1.8223  0.2781
  550MOL0     H74237   6.797   3.551  10.206  0.5927 -1.3639  0.0214
  550MOL0     H74238   6.468   3.675   9.904  1.6112 -1.2322  0.3348
  550MOL0     H74239   6.249   3.660   9.791 -1.3811  0.9524  2.7035
  550MOL0     H74240   5.992   3.607   9.767 -3.1560 -1.3625  1.1907
  550MOL0     H74241   6.107   3.583   9.630  0.3228  1.6105  0.7880
  550MOL0     H74242   5.940   3.393   9.545 -1.8723 -0.3948 -0.3031
  550MOL0     H74243   5.881   3.560   9.553  0.1766 -1.9214 -2.2961
  550MOL0     H74244   5.789   3.517   9.770 -0.4055  1.5417 -1.5477
  550MOL0     H74245   5.849   3.350   9.778  0.3840  0.0448  1.3166
  550MOL0     H74246   5.639   3.476   9.589 -0.3073  2.4986  2.9435
  550MOL0     H74247   5.594   3.357   9.705  0.2025  0.1533 -0.7400
  550MOL0     H74248   5.715   3.114   9.387 -2.0673  1.7572 -1.1306
  550MOL0     H74249   6.210   3.256   9.921  0.0625 -0.4797 -0.2944
  550MOL0     H74250   6.432   3.266  10.032 -1.1962 -0.7869 -0.3496
  551MOL0     O74251   8.379   2.771   3.978 -0.2129  0.0630 -0.3725
  551MOL0     C74252   8.488   2.823   4.001  1.0440  0.6658 -0.0992
  551MOL0     O74253   8.555   2.807   4.121  0.3802 -0.4083  0.1513
  551MOL0     C74254   8.495   2.731   4.216  0.7383  0.1076  0.3537
  551MOL0     C74255   8.529   2.596   4.233 -0.5561  0.9871  0.2551
  551MOL0     C74256   8.470   2.516   4.325  0.5166  0.8497 -0.7696
  551MOL0     C74257   8.376   2.567   4.413  0.6465  0.6821 -0.0049
  551MOL0     O74258   8.333   2.487   4.513  0.0025  0.9685 -1.1760
  551MOL0     C74259   8.260   2.530   4.635 -0.0850  1.0036 -0.1230
  551MOL0     C74260   8.121   2.472   4.643 -0.0250 -0.1152  0.0073
  551MOL0     C74261   8.011   2.556   4.576 -0.2224 -0.6535  0.7112
  551MOL0     C74262   7.963   2.673   4.664  0.2443  0.4503  0.2172
  551MOL0     C74263   7.833   2.729   4.608 -0.5621 -0.6249 -0.3052
  551MOL0     C74264   7.746   2.793   4.721 -0.2866  0.1256 -0.0966
  551MOL0     C74265   7.622   2.857   4.656 -0.5383  0.0858  0.3716
  551MOL0     C74266   7.668   2.986   4.574 -0.4859  0.5767  0.4656
  551MOL0     N74267   7.565   3.085   4.582 -0.0713  0.7154 -0.0744
  551MOL0     C74268   7.439   3.076   4.521 -0.2524  0.4832  1.2491
  551MOL0     C74269   7.395   3.202   4.526 -0.2221 -0.4501 -0.3726
  551MOL0     C74270   7.278   3.268   4.469 -0.2560  0.1654 -0.8340
  551MOL0     C74271   7.155   3.209   4.536  0.6398 -0.1287  0.4745
  551MOL0     C74272   7.045   3.304   4.552 -0.1495 -0.7118  0.0965
  551MOL0     C74273   6.905   3.245   4.585 -0.7070  0.2703  0.1339
  551MOL0     O74274   6.864   3.183   4.468  0.2912 -0.3347 -0.0409
  551MOL0     C74275   6.722   3.148   4.450 -0.2500 -0.4456  0.1391
  551MOL0     C74276   6.691   3.115   4.319  1.5683 -0.1713  0.1290
  551MOL0     C74277   6.557   3.078   4.289  0.1234 -0.3568  0.5754
  551MOL0     C74278   6.522   3.060   4.146 -0.0664  0.2914 -0.0832
  551MOL0     C74279   6.459   3.061   4.389  1.0950  0.2280  0.6201
  551MOL0     C74280   6.315   3.016   4.362  0.9107  0.1068  0.4950
  551MOL0     O74281   6.273   2.973   4.232  0.6403  0.3341 -0.6334
  551MOL0     C74282   6.145   2.988   4.197  0.8766  0.2756  0.1206
  551MOL0     C74283   6.050   2.880   4.196  0.6204 -0.2711 -0.3756
  551MOL0     C74284   5.916   2.904   4.179  0.3106  0.4764 -0.1244
  551MOL0     C74285   5.878   3.022   4.140 -0.1464 -0.3145  0.6951
  551MOL0     O74286   5.746   3.020   4.104 -0.6237  0.3510  0.4754
  551MOL0     C74287   5.696   3.149   4.069  0.5529 -0.2752  0.3546
  551MOL0     C74288   5.545   3.142   4.047  0.5106 -0.0314  0.3008
  551MOL0     C74289   5.477   3.288   4.041 -0.9231  1.2363 -0.2818
  551MOL0     C74290   5.332   3.279   3.994 -0.5813  0.3359  0.2648
  551MOL0     C74291   5.294   3.207   3.862 -0.5685  0.4108  1.4039
  551MOL0     C74292   5.177   3.280   3.779  0.2969  0.0206  0.3798
  551MOL0     C74293   5.045   3.276   3.858 -0.6051  0.2024  0.2781
  551MOL0     C74294   4.940   3.334   3.771  0.0050 -0.8648  0.5280
  551MOL0    Cl74295   4.787   3.324   3.870  0.3282  0.2456  0.0655
  551MOL0     C74296   5.958   3.138   4.142 -0.2729  0.7214  0.5172
  551MOL0     C74297   6.090   3.117   4.176 -0.5602 -0.4551  0.4410
  551MOL0     O74298   6.241   3.014   4.457 -0.8695  0.1141 -0.0058
  551MOL0     C74299   6.497   3.092   4.520 -0.1194  0.0513 -0.7372
  551MOL0     C74300   6.622   3.144   4.550 -0.3405  0.3319 -0.6892
  551MOL0     N74301   7.488   3.287   4.595  0.5382 -0.5258 -0.0934
  551MOL0     N74302   7.589   3.211   4.623 -0.1728 -0.0286 -0.2954
  551MOL0     C74303   8.359   2.703   4.415 -0.5259  0.3323 -1.0095
  551MOL0     C74304   8.417   2.786   4.317 -0.1598  0.0212  0.3621
  551MOL0     C74305   8.548   2.909   3.901  0.1930 -0.6578  0.5158
  551MOL0     C74306   8.484   2.944   3.775 -0.3591  0.0382 -0.2411
  551MOL0     C74307   8.543   3.044   3.691  0.0869 -0.2369 -0.0975
  551MOL0     C74308   8.673   3.092   3.707 -0.1411  1.3700 -0.3577
  551MOL0     O74309   8.741   3.174   3.622 -0.2587 -0.2963 -0.6687
  551MOL0     C74310   8.689   3.218   3.494  0.1087  0.2622  0.9708
  551MOL0     C74311   8.808   3.275   3.409  0.0970  0.4823 -0.2293
  551MOL0     C74312   8.768   3.343   3.273  0.1986  0.5037  0.0726
  551MOL0     C74313   8.708   3.482   3.294  0.4708 -0.2518 -0.5562
  551MOL0     C74314   8.562   3.482   3.268  0.1047  0.2062 -0.0951
  551MOL0     C74315   8.446   3.492   3.237  0.3286  0.3124 -0.6530
  551MOL0     C74316   8.742   3.037   3.816 -0.4098 -1.1607 -0.1611
  551MOL0     C74317   8.678   2.961   3.907  0.2107  0.1763 -0.3969
  551MOL0     H74318   8.595   2.550   4.160  1.4713  2.6034  0.9775
  551MOL0     H74319   8.478   2.408   4.331  0.0724  0.9094  2.3646
  551MOL0     H74320   8.316   2.493   4.721  1.9351  0.2679 -1.6497
  551MOL0     H74321   8.253   2.638   4.654 -1.0556  1.1794 -1.3061
  551MOL0     H74322   8.127   2.367   4.614  2.7799  0.1495 -0.6705
  551MOL0     H74323   8.100   2.469   4.750  0.5713 -1.6995  0.1125
  551MOL0     H74324   8.054   2.604   4.488 -0.1194 -0.6317  0.7720
  551MOL0     H74325   7.928   2.487   4.556 -1.4972  1.1312 -0.4268
  551MOL0     H74326   7.944   2.635   4.765  2.1188  0.8810  0.7763
  551MOL0     H74327   8.040   2.751   4.663 -1.5431  2.3727 -2.5658
  551MOL0     H74328   7.858   2.811   4.540  0.9651  0.5322  1.5379
  551MOL0     H74329   7.777   2.650   4.557  2.2615 -2.0937 -1.3959
  551MOL0     H74330   7.711   2.709   4.782  3.6120 -0.4668  1.5706
  551MOL0     H74331   7.795   2.867   4.785 -0.6373 -1.2579  1.8303
  551MOL0     H74332   7.576   2.786   4.587 -0.8861  0.5664  0.1001
  551MOL0     H74333   7.542   2.878   4.728 -2.4263 -1.9075 -1.0172
  551MOL0     H74334   7.697   2.965   4.471 -1.9926  2.1500 -0.3336
  551MOL0     H74335   7.757   3.025   4.625 -0.4991 -2.0886  2.7605
  551MOL0     H74336   7.399   2.993   4.465  1.2433  1.0431 -0.7687
  551MOL0     H74337   7.277   3.373   4.498 -1.2377  0.2293 -1.0445
  551MOL0     H74338   7.275   3.269   4.359  2.0612 -1.9304 -0.9964
  551MOL0     H74339   7.186   3.180   4.637  0.2497 -1.1967  0.3047
  551MOL0     H74340   7.132   3.122   4.474 -0.7012 -0.1419  0.9643
  551MOL0     H74341   7.029   3.359   4.458 -0.5513  3.0624  2.1946
  551MOL0     H74342   7.070   3.374   4.632 -1.8106 -3.3227  3.0970
  551MOL0     H74343   6.837   3.326   4.614  0.5107  1.1724  0.5515
  551MOL0     H74344   6.912   3.168   4.662 -1.3404 -0.0538 -0.1290
  551MOL0     H74345   6.772   3.122   4.247  0.6797 -1.1156 -0.9836
  551MOL0     H74346   6.504   2.952   4.141  1.2016 -0.0867  2.0931
  551MOL0     H74347   6.434   3.114   4.112 -0.4765 -0.4581 -0.2332
  551MOL0     H74348   6.608   3.080   4.081 -2.0304 -2.0530 -3.7253
  551MOL0     H74349   6.081   2.779   4.223 -0.2578  0.1407  2.5337
  551MOL0     H74350   5.848   2.820   4.173  1.4405 -0.3568 -2.5633
  551MOL0     H74351   5.704   3.221   4.150 -0.2352 -0.4664  0.6100
  551MOL0     H74352   5.746   3.194   3.982 -2.3698  3.8086  0.5291
  551MOL0     H74353   5.521   3.080   3.960  1.5137 -0.6179  0.4302
  551MOL0     H74354   5.492   3.089   4.126 -0.7705 -1.1395 -1.2205
  551MOL0     H74355   5.534   3.356   3.977 -1.6272  0.2347 -2.0707
  551MOL0     H74356   5.480   3.314   4.147 -2.5285 -2.1675  0.7483
  551MOL0     H74357   5.258   3.235   4.061 -3.4160 -3.1913 -4.5054
  551MOL0     H74358   5.298   3.380   3.973 -1.0493  0.3522  1.0555
  551MOL0     H74359   5.253   3.109   3.888 -1.4821  0.4966  0.3614
  551MOL0     H74360   5.383   3.197   3.800 -1.5233  0.4233 -0.0108
  551MOL0     H74361   5.218   3.380   3.762  1.1048 -0.3663 -0.0360
  551MOL0     H74362   5.162   3.229   3.683  0.4323 -1.2826  1.0228
  551MOL0     H74363   5.043   3.342   3.945 -1.2018 -0.8381  1.0634
  551MOL0     H74364   5.017   3.172   3.875 -0.3849 -0.0246 -0.6790
  551MOL0     H74365   4.941   3.270   3.683  2.3286 -1.3579  0.8436
  551MOL0     H74366   4.949   3.438   3.737  0.5286 -0.9294  0.4604
  551MOL0     H74367   5.913   3.230   4.105 -1.7167 -0.0123  0.3747
  551MOL0     H74368   6.153   3.204   4.160  3.1217 -2.7086  1.4585
  551MOL0     H74369   6.432   3.073   4.605  0.0562  1.1013 -0.3554
  551MOL0     H74370   6.661   3.164   4.649  0.2076 -0.1728 -0.7947
  551MOL0     H74371   8.297   2.756   4.487 -0.8911 -0.1226 -0.9880
  551MOL0     H74372   8.393   2.892   4.314 -0.2357  0.1905  3.6530
  551MOL0     H74373   8.401   2.881   3.745  1.8056 -2.8608 -0.5787
  551MOL0     H74374   8.485   3.078   3.606 -2.7179 -0.2605  1.7011
  551MOL0     H74375   8.653   3.131   3.439 -2.0186 -0.8011  3.8144
  551MOL0     H74376   8.616   3.297   3.513  1.2574  2.2173 -1.9947
  551MOL0     H74377   8.874   3.191   3.388 -0.7026 -0.8225  2.0777
  551MOL0     H74378   8.857   3.348   3.474 -1.5412  0.3634  1.2329
  551MOL0     H74379   8.700   3.278   3.217  1.8937  0.4322 -2.0317
  551MOL0     H74380   8.862   3.336   3.218  0.2125 -1.3223  0.2769
  551MOL0     H74381   8.741   3.558   3.223 -1.8917  0.3033 -1.1658
  551MOL0     H74382   8.736   3.514   3.395  0.7946 -3.8625  0.6483
  551MOL0     H74383   8.341   3.503   3.217  0.3645  2.2062  0.0733
  551MOL0     H74384   8.843   3.074   3.836 -1.8785  1.9801  2.4589
  551MOL0     H74385   8.738   2.935   3.993 -0.8444  0.4970  0.4551
  552MOL0     O74386   1.306   2.816   4.015 -0.1541  0.7194  0.3051
  552MOL0     C74387   1.306   2.933   4.044 -0.1315 -0.0890  0.8909
  552MOL0     O74388   1.204   3.005   4.093  0.1327  1.4842 -0.3560
  552MOL0     C74389   1.084   2.946   4.091  0.3132  0.8778  0.4516
  552MOL0     C74390   1.000   2.964   3.980 -0.3350 -0.0836 -0.9800
  552MOL0     C74391   0.887   2.881   3.962  0.4150  0.4166 -0.2146
  552MOL0     C74392   0.867   2.779   4.052 -0.0131  0.9721 -0.5707
  552MOL0     O74393   0.759   2.707   4.017  0.2620  0.5623  0.3554
  552MOL0     C74394   0.727   2.589   4.085  0.5804 -0.1099 -0.0357
  552MOL0     C74395   0.621   2.506   3.997  0.1602  0.3599 -0.1706
  552MOL0     C74396   0.491   2.580   3.964  0.4587 -0.1594  0.5577
  552MOL0     C74397   0.419   2.617   4.096  0.3596 -0.2439  0.5179
  552MOL0     C74398   0.275   2.658   4.099  0.3976 -0.0431  0.0853
  552MOL0     C74399   0.214   2.697   4.234  1.0662 -0.0733 -0.6176
  552MOL0     C74400   0.078   2.749   4.215  0.7775  0.7829  0.3279
  552MOL0     C74401   0.001   2.770   4.346 -0.3570 -1.1504 -0.4087
  552MOL0     N74402  -0.084   2.659   4.390  0.2201 -0.0358  0.3592
  552MOL0     C74403  -0.211   2.665   4.454 -0.6662 -0.9558  0.4904
  552MOL0     C74404  -0.260   2.541   4.456  0.0933  0.2824 -0.0460
  552MOL0     C74405  -0.389   2.498   4.522  0.0459  0.2064 -0.9702
  552MOL0     C74406  -0.517   2.494   4.435 -0.4139 -0.0691 -0.1684
  552MOL0     C74407  -0.642   2.449   4.519 -0.2387 -0.3823 -0.2201
  552MOL0     C74408  -0.762   2.495   4.440 -0.6889  0.3484 -0.8200
  552MOL0     O74409  -0.869   2.427   4.483  0.3926  0.5338 -0.2234
  552MOL0     C74410  -0.986   2.438   4.413  0.0564 -0.0587  0.3800
  552MOL0     C74411  -1.101   2.364   4.447  0.2737  0.0730  0.0220
  552MOL0     C74412  -1.226   2.366   4.380 -0.0721  1.0033  0.6068
  552MOL0     C74413  -1.338   2.294   4.444  0.3631 -0.1285 -0.2816
  552MOL0     C74414  -1.228   2.435   4.257 -0.0787  0.1509  0.5810
  552MOL0     C74415  -1.344   2.437   4.163 -0.0661  0.4807  0.2092
  552MOL0     O74416  -1.447   2.339   4.181 -0.5295 -0.6603 -0.5154
  552MOL0     C74417  -1.556   2.320   4.105 -0.6238 -0.7131  0.3719
  552MOL0     C74418  -1.600   2.409   4.000  0.7424 -0.4396 -0.0902
  552MOL0     C74419  -1.725   2.391   3.941 -0.1792  0.3044  0.4388
  552MOL0     C74420  -1.795   2.277   3.972 -0.1473  1.1321  0.3792
  552MOL0     O74421  -1.913   2.248   3.905 -0.3213  0.3879  0.2394
  552MOL0     C74422  -1.915   2.265   3.762  0.0840 -0.5270  0.0711
  552MOL0     C74423  -2.056   2.214   3.722 -0.0202  0.6753  0.6925
  552MOL0     C74424  -2.077   2.239   3.570 -0.3347 -0.4069  0.6104
  552MOL0     C74425  -2.108   2.388   3.537 -0.0761 -0.3170  0.1717
  552MOL0     C74426  -2.188   2.406   3.405  0.0204  0.1574  0.0950
  552MOL0     C74427  -2.136   2.348   3.274  0.4852  0.7006  1.3175
  552MOL0     C74428  -1.990   2.368   3.238 -0.1499  0.0464  0.4574
  552MOL0     C74429  -1.964   2.511   3.204 -0.8003  0.3404 -0.5386
  552MOL0    Cl74430  -1.952   2.620   3.339  0.1195  0.4576  0.0775
  552MOL0     C74431  -1.759   2.188   4.074  0.2977 -0.1271  0.3543
  552MOL0     C74432  -1.638   2.213   4.136 -0.6081  0.4714 -0.0468
  552MOL0     O74433  -1.345   2.531   4.078 -0.4171  0.3025 -0.0203
  552MOL0     C74434  -1.111   2.493   4.202 -0.1819 -0.1432  0.2107
  552MOL0     C74435  -0.993   2.486   4.279 -0.4855 -0.4771 -0.7422
  552MOL0     N74436  -0.173   2.452   4.388 -0.5206  0.3957 -0.6054
  552MOL0     N74437  -0.068   2.525   4.349  0.3041  0.0225 -0.7366
  552MOL0     C74438   0.934   2.777   4.172  0.6639  0.2019 -0.0115
  552MOL0     C74439   1.040   2.863   4.193  0.4222 -0.3150 -0.4999
  552MOL0     C74440   1.437   2.992   4.015 -0.4777  0.8536  0.3109
  552MOL0     C74441   1.462   3.127   4.059 -0.6241  0.5692  0.1433
  552MOL0     C74442   1.588   3.177   4.050  0.0848  0.0109  0.6358
  552MOL0     C74443   1.688   3.103   3.987  0.0153  0.5274 -0.6675
  552MOL0     O74444   1.816   3.162   3.995 -0.0280  0.5932 -0.5544
  552MOL0     C74445   1.934   3.084   3.970  1.0019 -0.0671  0.5800
  552MOL0     C74446   2.038   3.177   3.924 -0.3841  0.7323 -0.7187
  552MOL0     C74447   2.179   3.120   3.912 -0.0681 -0.1838  0.3116
  552MOL0     C74448   2.280   3.210   3.990 -0.5974 -0.4029  0.5343
  552MOL0     C74449   2.420   3.179   3.946  0.3848  0.6677 -0.0934
  552MOL0     C74450   2.535   3.149   3.916  0.0773 -0.8700 -0.5740
  552MOL0     C74451   1.666   2.977   3.943 -0.1470  1.0270 -0.5488
  552MOL0     C74452   1.547   2.910   3.954  0.7389 -0.9033 -0.0116
  552MOL0     H74453   1.052   3.019   3.903  2.9029  0.3767  1.3233
  552MOL0     H74454   0.839   2.881   3.865  2.0689  2.2775 -1.1198
  552MOL0     H74455   0.820   2.533   4.101  1.2239  1.1339  0.6834
  552MOL0     H74456   0.687   2.611   4.185 -1.8209 -2.3426 -0.3827
  552MOL0     H74457   0.671   2.489   3.901  1.8083 -2.6164  1.0821
  552MOL0     H74458   0.594   2.415   4.050 -1.8126  0.9871 -0.0213
  552MOL0     H74459   0.520   2.675   3.917 -0.2117  0.0775  0.6080
  552MOL0     H74460   0.418   2.531   3.900 -0.9387  1.0164  1.1811
  552MOL0     H74461   0.435   2.542   4.174  1.5261 -3.2595 -2.3800
  552MOL0     H74462   0.470   2.706   4.134  0.9534 -1.0102  1.5232
  552MOL0     H74463   0.251   2.731   4.021 -1.1549  1.8735  2.2275
  552MOL0     H74464   0.217   2.567   4.084  2.4451 -2.0321  2.9845
  552MOL0     H74465   0.206   2.611   4.301 -3.0037 -1.3101 -2.3600
  552MOL0     H74466   0.263   2.776   4.292  3.9968 -2.0587 -0.1653
  552MOL0     H74467   0.086   2.847   4.168  0.0126  0.2037 -1.1061
  552MOL0     H74468   0.025   2.695   4.135  0.9598  0.5959  0.3310
  552MOL0     H74469  -0.062   2.859   4.337 -1.0254 -1.6984 -1.2829
  552MOL0     H74470   0.062   2.797   4.432 -0.2071  3.1468 -1.6381
  552MOL0     H74471  -0.278   2.744   4.485  0.0709  2.2405 -4.9256
  552MOL0     H74472  -0.371   2.404   4.574  1.2461  0.7231 -0.4009
  552MOL0     H74473  -0.410   2.581   4.590 -2.6472 -0.9127 -0.3345
  552MOL0     H74474  -0.499   2.429   4.349 -0.9110  0.2652 -0.5297
  552MOL0     H74475  -0.542   2.595   4.401 -0.4937  0.4057  1.2290
  552MOL0     H74476  -0.650   2.505   4.613 -0.5407 -0.0062 -0.4662
  552MOL0     H74477  -0.653   2.342   4.535 -0.4058 -0.2802  0.3583
  552MOL0     H74478  -0.743   2.485   4.333  3.4230  0.7851 -0.2783
  552MOL0     H74479  -0.762   2.604   4.452 -0.7667  0.2821 -0.1649
  552MOL0     H74480  -1.109   2.312   4.542  0.5089  1.2350  0.6962
  552MOL0     H74481  -1.320   2.276   4.550  1.9158  1.5836 -0.2095
  552MOL0     H74482  -1.429   2.349   4.419 -1.1888 -1.7680  1.4503
  552MOL0     H74483  -1.351   2.196   4.395 -2.0265  1.2746 -2.7508
  552MOL0     H74484  -1.545   2.498   3.972 -0.9635  1.1182  1.2561
  552MOL0     H74485  -1.758   2.450   3.856  0.0341 -1.2482 -0.7611
  552MOL0     H74486  -1.902   2.366   3.721  3.2704 -0.6152  0.5728
  552MOL0     H74487  -1.833   2.201   3.726 -0.2118 -1.0921  0.3949
  552MOL0     H74488  -2.047   2.106   3.739 -1.7987 -0.2887 -3.4216
  552MOL0     H74489  -2.137   2.270   3.769 -1.4855 -0.1401 -0.7685
  552MOL0     H74490  -2.165   2.178   3.551 -0.3367 -0.6372  1.3195
  552MOL0     H74491  -1.994   2.192   3.517  0.8971 -1.7312  3.4991
  552MOL0     H74492  -2.152   2.428   3.630 -1.2143 -2.6283  0.6913
  552MOL0     H74493  -2.009   2.433   3.520 -0.3375  0.7458  1.2494
  552MOL0     H74494  -2.189   2.514   3.386  2.1623 -0.2813 -3.5024
  552MOL0     H74495  -2.293   2.375   3.403  0.4919 -1.5635 -2.1885
  552MOL0     H74496  -2.155   2.240   3.281 -4.0671  1.2893  0.9168
  552MOL0     H74497  -2.197   2.393   3.195  1.2702  0.6328  0.6560
  552MOL0     H74498  -1.965   2.311   3.148  0.5269 -0.2718  0.8344
  552MOL0     H74499  -1.920   2.329   3.313  1.1935 -1.9693 -1.7019
  552MOL0     H74500  -2.048   2.552   3.147 -0.4214  3.2177  0.7434
  552MOL0     H74501  -1.869   2.515   3.150  0.6236 -2.4194  1.5066
  552MOL0     H74502  -1.831   2.110   4.095 -2.0936  1.4876 -1.2903
  552MOL0     H74503  -1.612   2.158   4.226 -1.2915  3.0910  1.8629
  552MOL0     H74504  -1.108   2.544   4.106  1.4376 -1.2724 -0.3762
  552MOL0     H74505  -0.917   2.555   4.245 -1.0303  0.3973 -0.2191
  552MOL0     H74506   0.901   2.713   4.253 -0.9526 -0.3560 -1.0459
  552MOL0     H74507   1.099   2.855   4.284 -0.2113 -2.0306 -0.2084
  552MOL0     H74508   1.383   3.190   4.098 -0.1080 -1.6975  5.6624
  552MOL0     H74509   1.606   3.282   4.075 -0.0632 -0.1433  1.4062
  552MOL0     H74510   1.964   3.029   4.059 -1.5752 -1.8225  0.4706
  552MOL0     H74511   1.909   3.007   3.896  0.6951  0.2610  0.3407
  552MOL0     H74512   2.040   3.256   3.999 -0.7092 -1.2685  1.5322
  552MOL0     H74513   2.001   3.214   3.828  1.0398  3.8807 -0.1970
  552MOL0     H74514   2.209   3.134   3.808  0.3329  3.6746  0.7749
  552MOL0     H74515   2.192   3.016   3.940  0.2410 -0.5627 -1.1657
  552MOL0     H74516   2.256   3.208   4.097 -1.0164  1.7477  0.5333
  552MOL0     H74517   2.257   3.314   3.964 -0.7276 -0.5126  0.2004
  552MOL0     H74518   2.633   3.128   3.877 -1.6300 -0.4939 -5.8397
  552MOL0     H74519   1.750   2.915   3.913 -1.0051 -0.8237  0.7145
  552MOL0     H74520   1.526   2.808   3.923 -0.2787 -0.0221 -2.4833
  553MOL0     O74521   4.268   6.643   5.338 -0.3437  0.3579 -0.9394
  553MOL0     C74522   4.261   6.740   5.405 -0.1668 -0.0282 -0.8415
  553MOL0     O74523   4.345   6.769   5.506  0.4536 -0.9195 -0.3166
  553MOL0     C74524   4.474   6.713   5.510 -0.2215  0.1276  0.2290
  553MOL0     C74525   4.527   6.707   5.639 -0.8585  0.2294  0.6131
  553MOL0     C74526   4.665   6.674   5.648  0.0878  0.6485  0.0767
  553MOL0     C74527   4.749   6.651   5.536  0.5783 -0.2362  0.2552
  553MOL0     O74528   4.880   6.618   5.552  0.2333 -1.0035 -0.1612
  553MOL0     C74529   4.935   6.521   5.470 -0.5877  0.3537  0.7730
  553MOL0     C74530   5.086   6.514   5.473  0.3211 -0.0363 -0.7770
  553MOL0     C74531   5.149   6.643   5.414 -0.2723 -0.4502  0.2722
  553MOL0     C74532   5.302   6.658   5.432  0.4276  0.5598 -0.2930
  553MOL0     C74533   5.389   6.541   5.372  0.8416 -0.0669  0.1836
  553MOL0     C74534   5.527   6.521   5.432 -0.8482 -0.4108 -1.2727
  553MOL0     C74535   5.611   6.647   5.425  0.8956 -0.3749  0.0875
  553MOL0     C74536   5.745   6.646   5.509  0.4369 -0.7193  0.5420
  553MOL0     N74537   5.713   6.586   5.638 -0.0985 -0.9490 -0.3503
  553MOL0     C74538   5.616   6.637   5.714  0.0485  0.4716 -0.0087
  553MOL0     C74539   5.610   6.546   5.819 -0.1485  0.2411 -0.3552
  553MOL0     C74540   5.511   6.573   5.921  0.6983  0.0782 -0.2101
  553MOL0     C74541   5.541   6.699   6.009  0.4481  0.5321 -0.4816
  553MOL0     C74542   5.404   6.759   6.050 -1.0513 -0.6756 -0.1222
  553MOL0     C74543   5.414   6.890   6.133 -0.4401  0.5451  0.4413
  553MOL0     O74544   5.293   6.920   6.190  0.4130 -0.0056  0.5010
  553MOL0     C74545   5.252   6.844   6.301 -0.1786  0.3442 -0.0934
  553MOL0     C74546   5.140   6.772   6.273  0.6438  0.7314 -1.1001
  553MOL0     C74547   5.071   6.708   6.383  0.4718 -0.0806  1.1632
  553MOL0     C74548   4.948   6.639   6.341  0.2609  0.4555  0.6895
  553MOL0     C74549   5.136   6.704   6.507 -0.4861  0.2005 -0.4601
  553MOL0     C74550   5.081   6.630   6.624  0.2148 -0.5434  0.1247
  553MOL0     O74551   5.157   6.637   6.739 -0.7965  0.7277  0.4498
  553MOL0     C74552   5.108   6.565   6.840 -0.0354 -0.6451 -0.0991
  553MOL0     C74553   5.125   6.425   6.858 -0.0772  0.1717  0.5528
  553MOL0     C74554   5.080   6.367   6.969 -0.2871 -0.4522 -0.3631
  553MOL0     C74555   5.016   6.437   7.069  0.1065  0.1531 -0.0301
  553MOL0     O74556   4.978   6.380   7.185  0.3830 -0.2639  0.0853
  553MOL0     C74557   5.079   6.331   7.276  0.3916  1.2841  0.2553
  553MOL0     C74558   5.189   6.420   7.337 -0.6342  0.2381 -0.5894
  553MOL0     C74559   5.293   6.480   7.244 -0.2628 -0.4421  0.1652
  553MOL0     C74560   5.417   6.546   7.317 -0.6685 -0.0905 -0.2724
  553MOL0     C74561   5.510   6.607   7.218 -0.1507 -0.4040 -0.3204
  553MOL0     C74562   5.597   6.500   7.162 -0.2923  0.5206 -0.3301
  553MOL0     C74563   5.716   6.563   7.083 -1.0486 -0.3629  0.6983
  553MOL0     C74564   5.849   6.537   7.156  0.0460 -0.5874 -0.3162
  553MOL0    Cl74565   5.972   6.643   7.097 -0.1360  0.6557  0.1633
  553MOL0     C74566   4.984   6.568   7.046  0.0345  0.6250  0.1480
  553MOL0     C74567   5.039   6.633   6.941 -0.3440  0.4272  0.2125
  553MOL0     O74568   4.973   6.560   6.608 -0.2868  0.0327  0.3529
  553MOL0     C74569   5.255   6.777   6.527 -0.2324 -0.9097  0.3312
  553MOL0     C74570   5.309   6.858   6.425 -0.1333 -0.0959 -0.6446
  553MOL0     N74571   5.727   6.466   5.814 -0.1142 -0.5124  0.0558
  553MOL0     N74572   5.784   6.485   5.702 -0.3036 -0.2682 -0.9056
  553MOL0     C74573   4.693   6.666   5.415  0.4304 -0.6039  0.3027
  553MOL0     C74574   4.554   6.695   5.393  0.3374 -0.4945 -0.1750
  553MOL0     C74575   4.154   6.839   5.380  1.2495  1.9803 -0.0176
  553MOL0     C74576   4.091   6.842   5.252 -1.0908 -0.9459  0.1363
  553MOL0     C74577   3.982   6.932   5.231 -0.1816  0.1726  0.1557
  553MOL0     C74578   3.926   7.012   5.342 -0.4237  0.6451  0.6488
  553MOL0     O74579   3.818   7.088   5.333 -0.7728  0.4666  0.2994
  553MOL0     C74580   3.730   7.073   5.214 -0.1706  0.4993 -0.2848
  553MOL0     C74581   3.792   7.179   5.116  0.2253  0.8017  0.2909
  553MOL0     C74582   3.834   7.312   5.163  0.4065 -0.3933  0.2187
  553MOL0     C74583   3.715   7.388   5.232 -0.0398 -0.0408  1.1161
  553MOL0     C74584   3.659   7.481   5.131 -0.1491  0.4460  0.4670
  553MOL0     C74585   3.605   7.562   5.069 -0.2426  0.1043 -0.1879
  553MOL0     C74586   3.993   7.001   5.465  0.3438  0.5378  0.3100
  553MOL0     C74587   4.110   6.920   5.478 -0.1334  0.6242  0.5367
  553MOL0     H74588   4.461   6.727   5.723 -1.2354  0.8067  0.1747
  553MOL0     H74589   4.709   6.649   5.744  2.5320  1.0474 -0.8537
  553MOL0     H74590   4.909   6.423   5.512 -0.4273 -1.2611 -2.5669
  553MOL0     H74591   4.893   6.526   5.370  0.5861 -2.0873  0.0667
  553MOL0     H74592   5.109   6.519   5.580  0.7725  3.0285 -0.9124
  553MOL0     H74593   5.133   6.428   5.425  0.7330  1.0155 -2.3290
  553MOL0     H74594   5.124   6.651   5.307  1.7907 -2.8851 -0.4832
  553MOL0     H74595   5.103   6.734   5.452 -0.8123  0.1947 -1.7672
  553MOL0     H74596   5.335   6.749   5.382 -1.6993  0.9897 -1.0528
  553MOL0     H74597   5.313   6.657   5.541  0.3666 -0.6949 -0.2740
  553MOL0     H74598   5.341   6.443   5.376 -2.7394  1.5501  1.5789
  553MOL0     H74599   5.403   6.555   5.264  1.1440 -1.2096  0.0696
  553MOL0     H74600   5.504   6.497   5.536 -2.1707  2.4116 -0.8172
  553MOL0     H74601   5.585   6.441   5.384 -0.8790 -1.9282  1.1064
  553MOL0     H74602   5.623   6.673   5.320 -1.2569  1.5272  0.2179
  553MOL0     H74603   5.552   6.728   5.470  0.2624 -0.6840 -0.1822
  553MOL0     H74604   5.777   6.751   5.513 -2.1832  0.2138 -0.4558
  553MOL0     H74605   5.816   6.583   5.455 -1.9171 -1.5127 -1.8621
  553MOL0     H74606   5.538   6.711   5.698 -1.0169 -1.1212 -2.9557
  553MOL0     H74607   5.411   6.580   5.877 -1.3570  0.2406  4.0583
  553MOL0     H74608   5.516   6.485   5.986  0.0723  0.0970 -0.1298
  553MOL0     H74609   5.608   6.779   5.975 -1.0045  1.3871 -1.4310
  553MOL0     H74610   5.584   6.654   6.099 -0.2933 -1.3055 -1.0128
  553MOL0     H74611   5.358   6.689   6.121 -2.1339 -0.1833 -0.3240
  553MOL0     H74612   5.337   6.786   5.969  1.1916  1.0396 -1.5200
  553MOL0     H74613   5.425   6.973   6.063 -2.9541  1.2265  0.7553
  553MOL0     H74614   5.486   6.871   6.213 -1.7504 -2.7652  0.9895
  553MOL0     H74615   5.098   6.774   6.173 -2.7146  0.1008  0.1400
  553MOL0     H74616   4.931   6.639   6.232  1.0514  0.7850  0.5621
  553MOL0     H74617   4.950   6.532   6.361 -2.8909 -0.2123 -1.6258
  553MOL0     H74618   4.861   6.683   6.391  0.2065  0.1628  0.8519
  553MOL0     H74619   5.179   6.359   6.791  0.0975  1.8673 -1.0604
  553MOL0     H74620   5.101   6.263   6.990 -0.5594 -0.4234  0.0577
  553MOL0     H74621   5.029   6.275   7.356  0.5933  0.0120 -0.4838
  553MOL0     H74622   5.120   6.245   7.222 -0.7559  1.0516 -0.2703
  553MOL0     H74623   5.135   6.491   7.400 -1.8968 -1.9463  0.9313
  553MOL0     H74624   5.245   6.360   7.409 -1.1770 -0.6048 -0.8542
  553MOL0     H74625   5.246   6.565   7.194 -0.6764 -0.2797  0.8143
  553MOL0     H74626   5.321   6.403   7.172  1.5034  0.6326 -0.3643
  553MOL0     H74627   5.382   6.629   7.379  0.5227  0.6660 -0.6029
  553MOL0     H74628   5.471   6.471   7.375 -0.4906 -1.4272 -2.0813
  553MOL0     H74629   5.571   6.681   7.270 -0.0963  0.6510 -1.8216
  553MOL0     H74630   5.462   6.667   7.140  2.7373  0.2779 -1.7206
  553MOL0     H74631   5.625   6.437   7.247 -3.9354  0.8798  1.3305
  553MOL0     H74632   5.539   6.442   7.090 -0.3880  0.0148  0.1522
  553MOL0     H74633   5.690   6.669   7.073  0.8951 -0.0544 -2.9838
  553MOL0     H74634   5.710   6.537   6.977 -1.2131  0.4363  0.5037
  553MOL0     H74635   5.890   6.437   7.146  0.2830 -0.3901 -1.4338
  553MOL0     H74636   5.837   6.570   7.260 -0.9733  1.9553 -1.1607
  553MOL0     H74637   4.920   6.615   7.121 -1.8614 -2.3187  0.5460
  553MOL0     H74638   5.026   6.739   6.924  0.0796  0.2853 -1.0955
  553MOL0     H74639   5.304   6.789   6.623  1.5177  1.4364 -0.7373
  553MOL0     H74640   5.394   6.919   6.452 -0.2873  0.2075 -0.8439
  553MOL0     H74641   4.757   6.664   5.328 -1.0496 -1.1042 -0.8094
  553MOL0     H74642   4.515   6.711   5.293 -0.7217 -1.3287  0.0782
  553MOL0     H74643   4.126   6.789   5.164 -0.8171  0.4736 -0.6359
  553MOL0     H74644   3.942   6.942   5.130 -1.0880 -3.9895 -0.0710
  553MOL0     H74645   3.731   6.975   5.165 -2.3484  0.5256 -0.4616
  553MOL0     H74646   3.627   7.097   5.241 -0.8809 -2.2077 -0.3736
  553MOL0     H74647   3.732   7.186   5.025  1.4520 -1.3775 -0.7789
  553MOL0     H74648   3.877   7.122   5.078  0.0037 -0.4109  1.5257
  553MOL0     H74649   3.890   7.371   5.090  2.2280 -0.7092  1.2904
  553MOL0     H74650   3.914   7.285   5.233  1.2819 -2.5812 -1.5195
  553MOL0     H74651   3.765   7.450   5.307  1.3866  1.9691 -1.3107
  553MOL0     H74652   3.643   7.319   5.277 -0.8767  1.1797  1.7174
  553MOL0     H74653   3.566   7.634   5.000  2.3802  0.8364 -1.0000
  553MOL0     H74654   3.968   7.050   5.558  3.0666 -0.8411  1.8929
  553MOL0     H74655   4.162   6.918   5.573  0.3056 -1.3373  0.3108
  554MOL0     O74656   7.594  10.332   1.159  0.2420  0.2904  0.0275
  554MOL0     C74657   7.586  10.281   1.267  0.5998  0.0275  0.3212
  554MOL0     O74658   7.483  10.297   1.359  0.3548 -0.0749  0.5300
  554MOL0     C74659   7.382  10.383   1.335  0.4470  0.1497 -0.0384
  554MOL0     C74660   7.300  10.373   1.221  0.0907  0.2607 -0.8862
  554MOL0     C74661   7.198  10.468   1.203  0.2028  0.2731 -0.7137
  554MOL0     C74662   7.165  10.559   1.304  0.1768  0.7796 -0.5742
  554MOL0     O74663   7.077  10.661   1.288 -0.2266  0.3014 -0.9451
  554MOL0     C74664   7.050  10.713   1.156 -0.6887  0.0298 -0.7516
  554MOL0     C74665   7.043  10.859   1.169  0.5142 -0.7191 -0.6721
  554MOL0     C74666   6.910  10.911   1.216 -0.8553 -0.2972  0.0117
  554MOL0     C74667   6.900  11.061   1.204 -0.7883  0.4753 -0.3019
  554MOL0     C74668   6.764  11.108   1.251 -0.8988  0.5522  0.3561
  554MOL0     C74669   6.672  11.119   1.128 -0.1694 -0.1290 -0.2931
  554MOL0     C74670   6.537  11.129   1.184 -0.1221 -0.4575 -0.0454
  554MOL0     C74671   6.446  11.151   1.054 -0.0960  0.1317 -0.5097
  554MOL0     N74672   6.305  11.134   1.101 -0.0480 -0.4405  0.2625
  554MOL0     C74673   6.201  11.214   1.057 -0.9346  0.1419  1.0479
  554MOL0     C74674   6.091  11.165   1.118  0.3550 -0.8249 -0.2255
  554MOL0     C74675   5.951  11.239   1.104 -0.1528 -0.2609 -0.9479
  554MOL0     C74676   5.855  11.176   1.211 -1.0828 -0.3953  0.4287
  554MOL0     C74677   5.711  11.230   1.207  0.1212  0.8239 -0.1333
  554MOL0     C74678   5.634  11.190   1.340  0.4531 -0.6612 -0.5086
  554MOL0     O74679   5.497  11.209   1.342 -0.8497 -0.3278 -0.1242
  554MOL0     C74680   5.429  11.135   1.428  0.5418  0.8523 -0.8465
  554MOL0     C74681   5.448  11.132   1.569 -0.3364  0.7137  0.0749
  554MOL0     C74682   5.379  11.055   1.660  0.1851 -0.1241  1.1370
  554MOL0     C74683   5.417  11.066   1.811  0.2982  0.0876  0.2768
  554MOL0     C74684   5.271  10.971   1.611 -0.4803 -0.0117  0.5367
  554MOL0     C74685   5.183  10.890   1.694  0.0771  0.5431  1.2998
  554MOL0     O74686   5.059  10.858   1.638  0.0200  1.0000 -0.6217
  554MOL0     C74687   4.996  10.769   1.721  0.5019 -0.4096 -0.5462
  554MOL0     C74688   4.902  10.815   1.813 -0.3980  0.8549  0.0774
  554MOL0     C74689   4.836  10.730   1.895  0.2702  0.4131 -0.6450
  554MOL0     C74690   4.870  10.595   1.890 -0.2683  0.1456 -0.0839
  554MOL0     O74691   4.799  10.499   1.964  0.3314 -0.1813 -0.1745
  554MOL0     C74692   4.821  10.362   1.932 -0.4355 -0.8311 -0.7046
  554MOL0     C74693   4.721  10.278   2.004 -0.7495 -0.0994 -0.4039
  554MOL0     C74694   4.735  10.128   1.992 -0.2347 -0.3586 -0.8056
  554MOL0     C74695   4.692  10.073   1.861  0.2325 -0.2929  0.5429
  554MOL0     C74696   4.545  10.041   1.839 -0.3051  0.8372  0.0286
  554MOL0     C74697   4.520   9.976   1.701  0.1812  0.6638 -0.3425
  554MOL0     C74698   4.372   9.966   1.662 -0.2986 -0.7712 -0.9608
  554MOL0     C74699   4.283   9.868   1.738  0.0443 -0.0577  0.4687
  554MOL0    Cl74700   4.121   9.863   1.676  0.7129 -0.4277  0.2412
  554MOL0     C74701   4.980  10.547   1.805  1.0112 -0.0295  0.3984
  554MOL0     C74702   5.046  10.640   1.720  0.2389  0.5295  0.5525
  554MOL0     O74703   5.227  10.848   1.802 -0.0141 -0.4638 -0.2023
  554MOL0     C74704   5.239  10.969   1.469  0.0748 -0.5812 -0.4215
  554MOL0     C74705   5.320  11.053   1.384  0.3697 -0.2501  0.1810
  554MOL0     N74706   6.129  11.058   1.194 -0.5020 -0.0670 -0.0561
  554MOL0     N74707   6.252  11.028   1.170 -0.5232 -0.0753  0.1175
  554MOL0     C74708   7.247  10.564   1.420  0.0276  0.0771 -0.5512
  554MOL0     C74709   7.350  10.481   1.437 -0.1411  0.3716 -0.1443
  554MOL0     C74710   7.702  10.204   1.311  0.2550 -0.2111  0.0910
  554MOL0     C74711   7.719  10.164   1.437 -0.3442 -0.2551 -0.4379
  554MOL0     C74712   7.838  10.098   1.487  0.1120 -0.8340 -0.9094
  554MOL0     C74713   7.948  10.089   1.406 -0.7814  0.0724  0.4132
  554MOL0     O74714   8.058  10.027   1.452  0.2688 -1.1419 -0.1649
  554MOL0     C74715   8.135   9.939   1.367  0.1780 -0.3219 -0.0969
  554MOL0     C74716   8.183   9.820   1.459  0.3334  0.4027 -0.3103
  554MOL0     C74717   8.329   9.824   1.495 -0.3360  0.2327 -0.2936
  554MOL0     C74718   8.364   9.959   1.566  0.2953 -0.3970 -0.4675
  554MOL0     C74719   8.507   9.982   1.572 -0.4500  0.0176 -0.2272
  554MOL0     C74720   8.629   9.991   1.568 -0.6457 -1.0189 -0.8168
  554MOL0     C74721   7.926  10.129   1.269  0.4251 -0.1962  0.3393
  554MOL0     C74722   7.803  10.181   1.217  0.0160 -0.0899 -0.6578
  554MOL0     H74723   7.313  10.283   1.162 -2.0314  0.2840 -1.4888
  554MOL0     H74724   7.138  10.444   1.116  1.1161 -1.7322 -0.8607
  554MOL0     H74725   7.136  10.679   1.097  0.5823  0.1183  0.9781
  554MOL0     H74726   6.954  10.684   1.114 -0.7508  0.3278 -0.8214
  554MOL0     H74727   7.124  10.897   1.232 -0.9249  2.3403 -0.4872
  554MOL0     H74728   7.066  10.907   1.074 -1.2825  0.9900 -0.3092
  554MOL0     H74729   6.821  10.884   1.159 -0.3738  0.5186 -1.1767
  554MOL0     H74730   6.899  10.886   1.322 -0.3141  1.2308  0.4523
  554MOL0     H74731   6.973  11.100   1.275 -1.3734  1.6570 -0.3213
  554MOL0     H74732   6.913  11.100   1.103 -2.9503 -2.5941 -1.9334
  554MOL0     H74733   6.732  11.046   1.334  2.8185 -0.5249  1.1904
  554MOL0     H74734   6.780  11.209   1.291 -1.6421  0.1424  1.7450
  554MOL0     H74735   6.700  11.211   1.077  0.8096 -1.5176 -2.4189
  554MOL0     H74736   6.683  11.028   1.068  0.2572 -0.6725  0.5789
  554MOL0     H74737   6.511  11.034   1.233  1.4529 -1.8625 -1.7657
  554MOL0     H74738   6.526  11.207   1.260  3.0577 -0.4538  0.5438
  554MOL0     H74739   6.471  11.077   0.977  2.3942 -0.9746  1.2087
  554MOL0     H74740   6.465  11.251   1.015  1.4832  0.0873  0.0495
  554MOL0     H74741   6.202  11.302   0.994  2.7456 -0.6866 -0.2943
  554MOL0     H74742   5.967  11.346   1.120 -0.9466 -0.2331 -0.2462
  554MOL0     H74743   5.899  11.225   1.009  0.4074 -0.0469 -1.2876
  554MOL0     H74744   5.902  11.197   1.307 -1.7842 -0.1142  0.7192
  554MOL0     H74745   5.855  11.068   1.192 -3.5212 -0.5789  1.1716
  554MOL0     H74746   5.651  11.201   1.121  1.7845 -3.7914 -0.0223
  554MOL0     H74747   5.721  11.339   1.210  1.1704  0.8054 -1.7005
  554MOL0     H74748   5.676  11.251   1.420  1.9106 -3.0632  0.6573
  554MOL0     H74749   5.653  11.089   1.377 -1.3511 -0.7787  0.1700
  554MOL0     H74750   5.535  11.177   1.617 -0.4596 -0.5787  1.6173
  554MOL0     H74751   5.480  11.151   1.839 -0.2870 -0.2793  2.9407
  554MOL0     H74752   5.329  11.099   1.865 -0.6344  0.5651 -1.4509
  554MOL0     H74753   5.458  10.975   1.858  1.8822  0.7946  0.3363
  554MOL0     H74754   4.875  10.920   1.812  0.0973  0.9836 -0.9553
  554MOL0     H74755   4.760  10.765   1.964 -0.0282  0.3732 -0.9494
  554MOL0     H74756   4.803  10.341   1.826 -1.3708  0.1057 -0.7478
  554MOL0     H74757   4.925  10.338   1.957 -0.5020  1.3518  2.1320
  554MOL0     H74758   4.720  10.298   2.111  1.5522 -1.0847 -0.1300
  554MOL0     H74759   4.621  10.310   1.972 -2.8286 -1.5235  3.9339
  554MOL0     H74760   4.696  10.074   2.078  1.1051 -1.8556 -1.1001
  554MOL0     H74761   4.844  10.114   1.993 -0.2337 -0.3544 -0.8594
  554MOL0     H74762   4.734  10.137   1.782  0.2893  3.4930  3.3591
  554MOL0     H74763   4.743   9.978   1.848 -0.5328 -0.5882 -0.4200
  554MOL0     H74764   4.480  10.128   1.851 -1.9299 -0.5086  1.4572
  554MOL0     H74765   4.513   9.981   1.924  1.3437  0.5253  0.4771
  554MOL0     H74766   4.580  10.029   1.626  4.3384 -0.9788  1.5007
  554MOL0     H74767   4.573   9.880   1.705  1.2030  1.1690 -1.1441
  554MOL0     H74768   4.364   9.945   1.555 -1.4071 -0.6778 -0.9085
  554MOL0     H74769   4.324  10.064   1.667  0.2984 -0.4004 -2.0896
  554MOL0     H74770   4.280   9.896   1.844 -1.9565  1.1602  0.1569
  554MOL0     H74771   4.326   9.768   1.730  0.9469  0.4389 -1.5041
  554MOL0     H74772   5.022  10.449   1.823 -2.1818 -1.8520 -1.1690
  554MOL0     H74773   5.137  10.612   1.668  1.2692  2.4165  1.2499
  554MOL0     H74774   5.146  10.927   1.431 -1.1175  0.3394  1.3390
  554MOL0     H74775   5.290  11.035   1.281 -1.1495 -2.5541  0.9519
  554MOL0     H74776   7.236  10.647   1.489 -0.9088  0.2790 -0.9342
  554MOL0     H74777   7.400  10.489   1.533 -2.7257 -0.7168  1.4218
  554MOL0     H74778   7.642  10.189   1.509  0.9527  0.5919  0.7051
  554MOL0     H74779   7.825  10.062   1.588 -3.5474  3.2082  0.3800
  554MOL0     H74780   8.071   9.897   1.289  0.6321 -3.2910  0.9939
  554MOL0     H74781   8.214  10.002   1.324 -2.0818  2.2115 -0.8605
  554MOL0     H74782   8.171   9.726   1.405 -1.3488  0.0781  0.6019
  554MOL0     H74783   8.125   9.814   1.551 -1.7812 -1.9566 -1.6914
  554MOL0     H74784   8.387   9.819   1.403 -1.0199 -0.2955 -0.7034
  554MOL0     H74785   8.344   9.736   1.558 -2.2449 -0.8568 -1.2881
  554MOL0     H74786   8.303   9.951   1.656 -2.0270  1.7102 -1.7154
  554MOL0     H74787   8.324  10.043   1.508 -3.6576 -1.9758 -0.3751
  554MOL0     H74788   8.736   9.992   1.564 -0.6016  1.4969 -0.7485
  554MOL0     H74789   8.010  10.130   1.201  0.9113  1.7302  0.9156
  554MOL0     H74790   7.794  10.205   1.111  1.8208 -0.8964 -1.0298
  555MOL0     O74791   9.400   5.809   2.985  0.7992 -0.6754  0.0151
  555MOL0     C74792   9.417   5.771   2.872  0.0924  0.1091 -0.1492
  555MOL0     O74793   9.332   5.690   2.798  0.0361  0.2866 -0.2320
  555MOL0     C74794   9.239   5.621   2.865  0.0787 -0.1749  0.8135
  555MOL0     C74795   9.244   5.477   2.852  1.1741 -0.0360 -1.3123
  555MOL0     C74796   9.142   5.401   2.910  0.3190  0.2427 -0.3630
  555MOL0     C74797   9.037   5.466   2.976  0.0242  0.6302  0.1312
  555MOL0     O74798   8.926   5.406   3.023  0.7945  0.6481  0.2113
  555MOL0     C74799   8.887   5.285   2.958 -0.5380  1.1955 -0.3563
  555MOL0     C74800   8.735   5.271   2.938 -0.5740 -0.1822 -0.1425
  555MOL0     C74801   8.691   5.325   2.801 -0.7551 -0.0037 -0.0025
  555MOL0     C74802   8.540   5.302   2.760  0.2956  0.3558  1.3643
  555MOL0     C74803   8.526   5.321   2.611  0.1941  0.3133  0.3133
  555MOL0     C74804   8.378   5.338   2.568 -0.7466 -0.8467  0.9779
  555MOL0     C74805   8.366   5.391   2.424  0.7218  0.6638  0.8264
  555MOL0     C74806   8.369   5.547   2.419 -0.0776  0.4523 -0.5697
  555MOL0     N74807   8.332   5.599   2.285 -0.4570 -1.2186  0.9119
  555MOL0     C74808   8.218   5.675   2.266  0.3001 -0.1460  0.5138
  555MOL0     C74809   8.240   5.712   2.136 -0.2312 -0.1950 -0.2726
  555MOL0     C74810   8.153   5.805   2.054 -0.3834 -0.0579 -0.2376
  555MOL0     C74811   8.164   5.950   2.100 -0.5553  0.4373 -0.1729
  555MOL0     C74812   8.122   6.050   1.986 -0.3832 -0.1605  0.1498
  555MOL0     C74813   8.088   6.187   2.034 -0.3221  0.0804  0.1494
  555MOL0     O74814   7.972   6.194   2.118 -0.7248 -0.1563  1.0085
  555MOL0     C74815   7.843   6.236   2.075 -0.4242 -1.3096 -0.2925
  555MOL0     C74816   7.744   6.234   2.171  0.5447  0.1963 -0.4737
  555MOL0     C74817   7.605   6.270   2.151  0.4980  0.9116  0.7903
  555MOL0     C74818   7.524   6.279   2.280 -0.0274  0.7140  0.0562
  555MOL0     C74819   7.561   6.296   2.018 -0.9394 -0.2525  0.5501
  555MOL0     C74820   7.420   6.324   1.978 -0.2288  0.7457 -0.0271
  555MOL0     O74821   7.321   6.333   2.076  0.1105 -0.3151  0.6072
  555MOL0     C74822   7.190   6.378   2.047 -0.0409  0.4914 -1.1426
  555MOL0     C74823   7.123   6.424   2.160 -0.2900 -0.0124  0.5030
  555MOL0     C74824   6.998   6.473   2.138 -1.4302  0.4664  0.0966
  555MOL0     C74825   6.940   6.478   2.010  0.0961  0.3721  0.3335
  555MOL0     O74826   6.814   6.519   1.976  0.1724  0.1734  0.1752
  555MOL0     C74827   6.757   6.608   2.074  0.0179 -0.5610 -0.3776
  555MOL0     C74828   6.633   6.673   2.019  0.4724 -1.0276  0.2989
  555MOL0     C74829   6.568   6.757   2.131 -0.0587  0.4263 -0.8172
  555MOL0     C74830   6.466   6.864   2.085  0.1787 -0.5114  0.1974
  555MOL0     C74831   6.335   6.822   2.029  0.8170  1.1855  0.9946
  555MOL0     C74832   6.241   6.751   2.133 -0.1991  0.7313 -0.1888
  555MOL0     C74833   6.230   6.816   2.265 -0.1279 -1.0556  0.8282
  555MOL0     C74834   6.131   6.744   2.351 -0.4839 -0.0998  0.6095
  555MOL0    Cl74835   6.198   6.569   2.375  0.4935 -0.1056  0.1912
  555MOL0     C74836   7.007   6.430   1.904 -1.0401 -0.1761 -0.1391
  555MOL0     C74837   7.127   6.374   1.926  0.4200 -0.5844  0.2996
  555MOL0     O74838   7.400   6.335   1.857 -0.3662 -1.1025 -0.1567
  555MOL0     C74839   7.665   6.300   1.923  0.4561 -0.1484  0.3018
  555MOL0     C74840   7.806   6.283   1.950  1.0406  0.2973  1.6082
  555MOL0     N74841   8.360   5.682   2.082 -0.6019  0.0331 -0.1196
  555MOL0     N74842   8.419   5.622   2.182  0.5108 -0.7198  0.1598
  555MOL0     C74843   9.026   5.607   2.974  0.1334 -0.2387  0.9515
  555MOL0     C74844   9.128   5.680   2.920  0.1093 -0.4704  0.7717
  555MOL0     C74845   9.544   5.815   2.798 -0.6349 -0.0523  0.0210
  555MOL0     C74846   9.581   5.762   2.676  0.5168 -0.6130 -1.2212
  555MOL0     C74847   9.702   5.794   2.611  0.6133 -0.1153  0.7858
  555MOL0     C74848   9.795   5.876   2.670  0.4317  0.1753  0.2386
  555MOL0     O74849   9.917   5.900   2.620  0.0493  0.8667 -0.0312
  555MOL0     C74850   9.946   5.859   2.487  0.4685  1.2587  0.2327
  555MOL0     C74851  10.069   5.931   2.433  1.0550 -0.5674 -0.9097
  555MOL0     C74852  10.187   5.909   2.528  0.1342  0.0142  0.2570
  555MOL0     C74853  10.310   5.984   2.473 -0.1387 -0.5797  0.0137
  555MOL0     C74854  10.314   6.131   2.481  0.0822 -0.5200 -0.4422
  555MOL0     C74855  10.315   6.250   2.474 -0.8505 -0.6741  0.6147
  555MOL0     C74856   9.761   5.926   2.797 -0.5805 -0.8799 -0.1949
  555MOL0     C74857   9.635   5.901   2.858  0.3173  1.4842  0.7793
  555MOL0     H74858   9.334   5.437   2.807  2.0313 -2.4638  2.1120
  555MOL0     H74859   9.129   5.293   2.907 -1.8670  0.4314  0.4118
  555MOL0     H74860   8.932   5.290   2.859 -0.6466  2.6966 -0.3541
  555MOL0     H74861   8.936   5.201   3.009 -0.8477  0.8441 -0.6370
  555MOL0     H74862   8.717   5.163   2.934  1.2763 -0.6428  2.0736
  555MOL0     H74863   8.673   5.319   3.014 -1.0281  2.2628 -1.9470
  555MOL0     H74864   8.715   5.432   2.800 -0.5763 -0.0460 -0.2699
  555MOL0     H74865   8.753   5.279   2.723 -0.7448  0.1736 -0.0985
  555MOL0     H74866   8.512   5.201   2.790  1.2150 -0.7173 -1.1295
  555MOL0     H74867   8.479   5.374   2.816  0.7231 -0.5181  3.0115
  555MOL0     H74868   8.581   5.410   2.579 -0.4011  0.5880  0.0275
  555MOL0     H74869   8.581   5.239   2.564  1.6438  0.6936  1.2785
  555MOL0     H74870   8.335   5.237   2.567  0.0778 -1.2343 -1.6559
  555MOL0     H74871   8.328   5.405   2.639 -1.0984  1.7525 -1.5752
  555MOL0     H74872   8.442   5.349   2.358 -1.1678  0.0169 -1.0714
  555MOL0     H74873   8.265   5.354   2.405  0.8348 -0.2054  1.8056
  555MOL0     H74874   8.466   5.585   2.451  0.0630  2.5636 -3.1679
  555MOL0     H74875   8.306   5.597   2.492  1.5305  0.0177  1.2122
  555MOL0     H74876   8.135   5.705   2.329 -0.8026 -2.7907  0.4616
  555MOL0     H74877   8.181   5.800   1.948  0.7776 -0.9916  0.0984
  555MOL0     H74878   8.051   5.778   2.085 -0.5171  1.8425  1.1964
  555MOL0     H74879   8.271   5.958   2.122 -1.1446  2.0453  2.5715
  555MOL0     H74880   8.101   5.954   2.189  1.4697  2.2153  1.3001
  555MOL0     H74881   8.035   6.024   1.926 -0.9244  1.5292  0.1516
  555MOL0     H74882   8.206   6.051   1.915  0.1335 -0.3983  0.7467
  555MOL0     H74883   8.079   6.240   1.938  2.3080  1.0060  0.3333
  555MOL0     H74884   8.169   6.233   2.092 -1.8577  0.2850  2.2400
  555MOL0     H74885   7.779   6.195   2.265 -0.7290 -3.0626 -1.2118
  555MOL0     H74886   7.448   6.202   2.271  1.8676 -1.2581  0.1358
  555MOL0     H74887   7.587   6.254   2.366  0.5963 -1.1194 -0.8706
  555MOL0     H74888   7.489   6.380   2.304  0.0455  0.4371  1.3971
  555MOL0     H74889   7.150   6.401   2.263 -0.5924 -1.6013  0.2622
  555MOL0     H74890   6.958   6.509   2.232  2.2312  0.7703  1.7360
  555MOL0     H74891   6.737   6.570   2.175  0.9669  1.3667  0.6043
  555MOL0     H74892   6.830   6.689   2.080 -0.5828 -0.0320 -0.1847
  555MOL0     H74893   6.655   6.733   1.930 -1.2778  2.2760  1.8798
  555MOL0     H74894   6.566   6.591   1.991 -2.5746  1.2289  0.3410
  555MOL0     H74895   6.645   6.808   2.189 -1.9702  1.4799  0.9301
  555MOL0     H74896   6.517   6.692   2.203  0.4432  0.1688 -0.6915
  555MOL0     H74897   6.460   6.935   2.168 -2.0587 -0.2229 -0.1464
  555MOL0     H74898   6.527   6.924   2.017 -1.0717 -0.1131 -0.5902
  555MOL0     H74899   6.344   6.752   1.946 -3.4932  2.6496 -0.9993
  555MOL0     H74900   6.287   6.908   1.980  1.4068  1.1715  0.3973
  555MOL0     H74901   6.140   6.735   2.093 -0.6831 -1.6611  1.7317
  555MOL0     H74902   6.276   6.647   2.133 -1.9015  0.1084  0.6805
  555MOL0     H74903   6.190   6.917   2.250 -3.4423 -2.2915  0.5882
  555MOL0     H74904   6.326   6.823   2.318  0.6308 -0.3118 -0.5961
  555MOL0     H74905   6.033   6.736   2.303 -1.8058  0.2932  3.0731
  555MOL0     H74906   6.133   6.789   2.450  2.5025 -0.5850  0.8640
  555MOL0     H74907   6.959   6.429   1.807 -1.1748  0.0840 -0.0748
  555MOL0     H74908   7.175   6.330   1.840  0.8052  1.5049 -0.6070
  555MOL0     H74909   7.638   6.328   1.822 -1.5845 -1.5883  0.3967
  555MOL0     H74910   7.858   6.284   1.855 -4.5889  0.5766 -1.9124
  555MOL0     H74911   8.939   5.657   3.018 -0.5076 -1.0532  0.6377
  555MOL0     H74912   9.125   5.788   2.935 -3.8875 -0.0125 -1.8771
  555MOL0     H74913   9.517   5.687   2.631  2.0218 -0.9706 -2.8977
  555MOL0     H74914   9.708   5.763   2.507 -3.0639  1.8278 -0.1656
  555MOL0     H74915   9.961   5.750   2.488 -1.9733  0.8529  2.2860
  555MOL0     H74916   9.869   5.877   2.411 -2.0032 -0.2331  2.2341
  555MOL0     H74917  10.049   6.038   2.430 -0.1396 -0.7194  0.3676
  555MOL0     H74918  10.099   5.898   2.333  1.4215  0.2515 -1.0722
  555MOL0     H74919  10.204   5.801   2.537 -0.7389 -0.0914  0.7294
  555MOL0     H74920  10.161   5.955   2.623 -2.9297  1.1348 -1.0036
  555MOL0     H74921  10.352   5.950   2.378  2.1771 -2.4262  1.5817
  555MOL0     H74922  10.389   5.953   2.542  2.6009 -0.2481 -2.7535
  555MOL0     H74923  10.320   6.353   2.503 -1.4702 -0.6649  0.6997
  555MOL0     H74924   9.839   5.979   2.852 -0.2323  0.2960 -1.7461
  555MOL0     H74925   9.614   5.942   2.956  3.5406 -0.8750  2.6710
  556MOL0     O74926   4.901   2.997   5.165 -0.5263  0.3705  0.4289
  556MOL0     C74927   4.900   3.042   5.279  0.3775  0.2730 -0.4059
  556MOL0     O74928   4.789   3.060   5.353 -0.4437  0.5525 -0.0366
  556MOL0     C74929   4.666   3.040   5.286 -0.4397 -0.4047  0.4892
  556MOL0     C74930   4.599   3.149   5.230 -0.6652 -0.0103 -0.4762
  556MOL0     C74931   4.486   3.127   5.165 -0.7447  0.2600  0.2331
  556MOL0     C74932   4.429   2.992   5.158  0.0575 -0.7563  0.1483
  556MOL0     O74933   4.325   2.967   5.077 -0.6472  0.0699 -0.2496
  556MOL0     C74934   4.211   3.029   5.124  0.1074  0.6615 -0.1852
  556MOL0     C74935   4.122   2.929   5.213 -0.0169 -0.3228 -0.1864
  556MOL0     C74936   4.003   3.004   5.272 -0.2517  0.8246  0.4335
  556MOL0     C74937   3.963   2.963   5.406 -0.7633 -0.6132 -0.3410
  556MOL0     C74938   3.820   2.993   5.438  0.3853  0.0465  0.3717
  556MOL0     C74939   3.803   3.141   5.476  0.3717 -0.2912 -0.6557
  556MOL0     C74940   3.648   3.183   5.480 -0.7595 -0.1229  0.3991
  556MOL0     C74941   3.560   3.095   5.569  0.1287 -0.7498  0.2316
  556MOL0     N74942   3.428   3.158   5.603  0.3858 -0.0764 -1.1055
  556MOL0     C74943   3.406   3.249   5.702 -0.2234 -0.4809  0.1712
  556MOL0     C74944   3.276   3.291   5.693  0.8153 -0.6630  0.0143
  556MOL0     C74945   3.232   3.406   5.772 -0.3036  0.4280 -0.4601
  556MOL0     C74946   3.155   3.374   5.895 -0.4218 -0.6946  0.2561
  556MOL0     C74947   3.083   3.495   5.942  0.8907  0.3990  0.3054
  556MOL0     C74948   3.020   3.467   6.081 -0.3642 -0.8033  0.6933
  556MOL0     O74949   2.933   3.575   6.128 -0.1031  0.3431 -0.1543
  556MOL0     C74950   2.849   3.636   6.030  0.4567 -0.4221 -0.0824
  556MOL0     C74951   2.717   3.595   6.031 -0.3392  0.3219  0.6912
  556MOL0     C74952   2.613   3.665   5.970  0.0883 -0.3295  0.6993
  556MOL0     C74953   2.471   3.618   5.994  0.3533 -0.4902 -0.1972
  556MOL0     C74954   2.641   3.773   5.878  0.7764  0.5742 -0.2797
  556MOL0     C74955   2.533   3.852   5.800 -0.9957 -0.3863  0.6178
  556MOL0     O74956   2.577   3.967   5.731 -0.2077 -0.0952 -0.0921
  556MOL0     C74957   2.500   4.023   5.633  0.0016 -0.3736  0.2198
  556MOL0     C74958   2.405   3.959   5.546 -0.5600  0.6513 -0.9537
  556MOL0     C74959   2.356   4.027   5.436  0.6465  0.8911 -0.0908
  556MOL0     C74960   2.392   4.160   5.412  0.5213  1.1588  0.3263
  556MOL0     O74961   2.323   4.242   5.326  0.3920  0.0321  0.1826
  556MOL0     C74962   2.234   4.187   5.231 -0.0229  0.6314  0.2727
  556MOL0     C74963   2.324   4.111   5.133 -0.2413 -0.0282 -0.0040
  556MOL0     C74964   2.395   4.204   5.041 -0.0508 -0.1614 -0.5472
  556MOL0     C74965   2.475   4.125   4.934 -0.2889  0.1569  0.3495
  556MOL0     C74966   2.531   4.218   4.833  0.1145 -0.1747 -0.6611
  556MOL0     C74967   2.612   4.337   4.898  0.2762  0.0920  1.1228
  556MOL0     C74968   2.696   4.414   4.790  0.8418 -0.3939  0.1830
  556MOL0     C74969   2.613   4.499   4.683 -0.0387 -0.9749  0.5979
  556MOL0    Cl74970   2.740   4.564   4.573  0.0180  0.7651 -0.1040
  556MOL0     C74971   2.484   4.219   5.495 -0.6205  0.6330  0.5265
  556MOL0     C74972   2.543   4.149   5.597  0.1006 -0.3082 -0.4176
  556MOL0     O74973   2.416   3.823   5.806  1.1700  0.4403 -0.4370
  556MOL0     C74974   2.777   3.815   5.868 -0.5121 -0.1832  0.4818
  556MOL0     C74975   2.877   3.756   5.951 -1.3837  0.2797 -0.4008
  556MOL0     N74976   3.206   3.209   5.605  0.2216 -0.3071  0.2540
  556MOL0     N74977   3.296   3.128   5.557  0.2907  0.8530  0.0532
  556MOL0     C74978   4.499   2.887   5.200  0.2862  0.0634 -1.1694
  556MOL0     C74979   4.620   2.907   5.262 -0.7179 -0.7665 -0.8807
  556MOL0     C74980   5.019   3.100   5.345  0.0393  0.3485 -0.0094
  556MOL0     C74981   5.012   3.172   5.471 -0.5056 -0.6226  0.7079
  556MOL0     C74982   5.136   3.219   5.520 -0.8430  0.3130  0.3999
  556MOL0     C74983   5.254   3.209   5.450  0.6084  0.4319  0.0870
  556MOL0     O74984   5.362   3.267   5.510  0.2291 -0.7692 -0.0516
  556MOL0     C74985   5.406   3.204   5.627  0.1673  0.3534  0.4212
  556MOL0     C74986   5.521   3.103   5.608  0.9515 -1.0808 -0.7625
  556MOL0     C74987   5.498   2.972   5.671 -1.2378 -0.7649 -0.4111
  556MOL0     C74988   5.609   2.878   5.639  0.1368  0.1870  0.6199
  556MOL0     C74989   5.633   2.847   5.493 -1.0764  0.1017 -0.3349
  556MOL0     C74990   5.663   2.817   5.381 -0.3258  0.7926 -0.1022
  556MOL0     C74991   5.263   3.139   5.333 -1.0736 -1.0826  0.8051
  556MOL0     C74992   5.146   3.086   5.285  0.2375 -0.3611 -0.0532
  556MOL0     H74993   4.652   3.243   5.243 -0.8711 -0.1083  1.2718
  556MOL0     H74994   4.450   3.214   5.112  1.2657  1.2135  0.3387
  556MOL0     H74995   4.232   3.105   5.200  0.3231 -2.5137  3.1639
  556MOL0     H74996   4.151   3.062   5.038  0.3363 -2.4004 -1.6682
  556MOL0     H74997   4.076   2.854   5.147 -1.0611  0.5529 -0.4783
  556MOL0     H74998   4.177   2.893   5.300  0.7290  3.3565  1.0075
  556MOL0     H74999   4.024   3.110   5.255  0.8643  0.0865 -4.1656
  556MOL0     H75000   3.924   2.981   5.200 -1.3247  1.7612  1.2721
  556MOL0     H75001   3.978   2.856   5.428 -0.3098 -0.4061  0.4070
  556MOL0     H75002   4.020   3.019   5.481  0.4470  1.5444 -2.7251
  556MOL0     H75003   3.752   2.971   5.356 -2.6720  0.9027  2.4984
  556MOL0     H75004   3.786   2.935   5.524 -2.5113 -2.7073 -2.3603
  556MOL0     H75005   3.846   3.169   5.573 -1.6975 -1.0165  0.5480
  556MOL0     H75006   3.863   3.201   5.407  0.2842 -0.3026 -0.7419
  556MOL0     H75007   3.631   3.287   5.511  0.4120  1.7798 -4.4452
  556MOL0     H75008   3.623   3.171   5.375  0.6340 -0.1453  0.0465
  556MOL0     H75009   3.612   3.087   5.665 -0.3797  2.7907  0.9348
  556MOL0     H75010   3.532   3.010   5.506 -1.2664  2.4103 -3.8369
  556MOL0     H75011   3.473   3.295   5.774 -3.8044  1.8607  2.2776
  556MOL0     H75012   3.321   3.466   5.794 -1.2890  2.0774 -0.8413
  556MOL0     H75013   3.181   3.482   5.714  0.1131  1.2832  0.2574
  556MOL0     H75014   3.227   3.350   5.974 -0.3461  1.6717  0.9885
  556MOL0     H75015   3.098   3.282   5.878  1.4501 -2.0975  1.2106
  556MOL0     H75016   2.999   3.512   5.873  1.6121 -3.3131 -1.7817
  556MOL0     H75017   3.140   3.587   5.936 -2.2562  2.4332 -2.4029
  556MOL0     H75018   3.102   3.454   6.152  0.6010  0.5577 -0.1417
  556MOL0     H75019   2.961   3.376   6.064  1.1553 -1.3672 -2.1120
  556MOL0     H75020   2.680   3.521   6.101 -0.0059 -1.4712 -0.9448
  556MOL0     H75021   2.420   3.699   6.048  0.7343 -1.5153  1.7797
  556MOL0     H75022   2.422   3.591   5.900  2.7260 -1.4222 -1.2421
  556MOL0     H75023   2.472   3.531   6.059  1.2027  0.0062  0.4718
  556MOL0     H75024   2.376   3.859   5.576 -2.4783  1.4456  0.0059
  556MOL0     H75025   2.280   3.984   5.371 -0.8266  2.2351  0.6898
  556MOL0     H75026   2.159   4.126   5.281 -0.2901 -0.4531 -1.3822
  556MOL0     H75027   2.186   4.270   5.178  2.0961  0.7023 -1.7022
  556MOL0     H75028   2.406   4.053   5.175 -0.3725  0.5477  1.0708
  556MOL0     H75029   2.265   4.038   5.077 -1.2065  3.3993 -3.9201
  556MOL0     H75030   2.458   4.274   5.095  1.4980 -2.0851  0.2512
  556MOL0     H75031   2.315   4.264   4.997 -0.9626 -2.2977 -1.9930
  556MOL0     H75032   2.552   4.058   4.974 -1.6132 -2.8619 -1.7472
  556MOL0     H75033   2.416   4.052   4.878 -1.8974  1.9563 -0.4149
  556MOL0     H75034   2.444   4.269   4.792  0.8592  1.2089 -0.5825
  556MOL0     H75035   2.589   4.166   4.756  1.4867 -0.9779  0.8398
  556MOL0     H75036   2.545   4.413   4.941  0.3352  0.2344  0.9647
  556MOL0     H75037   2.683   4.287   4.964 -0.6068 -1.5348  0.8779
  556MOL0     H75038   2.751   4.340   4.731  0.4970  0.1509 -0.8515
  556MOL0     H75039   2.767   4.486   4.833  0.4233  1.0093 -1.3668
  556MOL0     H75040   2.563   4.589   4.718  2.4083  1.4259 -1.5980
  556MOL0     H75041   2.531   4.448   4.632 -0.7458  2.5239 -2.1425
  556MOL0     H75042   2.520   4.315   5.461  1.4754 -0.8404 -1.7906
  556MOL0     H75043   2.609   4.203   5.664  0.9074  0.4081 -1.7373
  556MOL0     H75044   2.796   3.903   5.808 -0.4291 -1.1722 -1.0073
  556MOL0     H75045   2.974   3.803   5.945 -0.7489 -1.0152 -0.7117
  556MOL0     H75046   4.459   2.786   5.200  1.3525 -0.4763  2.0595
  556MOL0     H75047   4.666   2.814   5.294  1.2668  0.1087 -1.0733
  556MOL0     H75048   4.918   3.176   5.524 -0.8673  1.0037 -0.0054
  556MOL0     H75049   5.140   3.279   5.611 -0.6434 -1.6124  1.7200
  556MOL0     H75050   5.449   3.290   5.679  2.5604 -0.3518 -0.2703
  556MOL0     H75051   5.324   3.160   5.684 -2.0840  3.0537 -0.4762
  556MOL0     H75052   5.605   3.156   5.654 -1.6416  3.0308 -0.2225
  556MOL0     H75053   5.549   3.083   5.504  1.3398 -0.8196 -0.7113
  556MOL0     H75054   5.401   2.940   5.632 -1.4875 -2.3929  1.3937
  556MOL0     H75055   5.467   2.988   5.774 -2.1416  2.5773 -1.0882
  556MOL0     H75056   5.580   2.777   5.668  2.3684 -1.4242 -2.1783
  556MOL0     H75057   5.705   2.887   5.691  1.5756  1.6282 -2.0518
  556MOL0     H75058   5.694   2.797   5.280 -1.5182  1.7059 -0.6709
  556MOL0     H75059   5.357   3.131   5.279 -2.6732  0.1130 -2.4129
  556MOL0     H75060   5.157   3.026   5.196  0.0805 -2.1652  1.0852
  557MOL0     O75061   2.731   8.513  11.090 -1.2752 -0.0825 -0.2226
  557MOL0     C75062   2.787   8.497  11.200  0.5004 -0.4153 -0.3795
  557MOL0     O75063   2.733   8.542  11.320  0.2196  0.5573 -0.0843
  557MOL0     C75064   2.616   8.608  11.320  0.5798  0.3683  0.4838
  557MOL0     C75065   2.607   8.717  11.407 -0.3217  0.5355 -0.1832
  557MOL0     C75066   2.492   8.799  11.413  1.1227  0.5153 -0.3343
  557MOL0     C75067   2.390   8.774  11.322 -1.3569  0.2838 -0.5153
  557MOL0     O75068   2.275   8.848  11.305 -0.4094  0.1635  0.0068
  557MOL0     C75069   2.249   8.953  11.404 -0.3112 -0.6242 -0.1341
  557MOL0     C75070   2.127   9.029  11.364 -0.7663 -1.3910 -0.0990
  557MOL0     C75071   2.017   8.923  11.333  0.6556 -0.1664 -0.3339
  557MOL0     C75072   1.890   8.938  11.426 -0.1664  0.0811  0.1648
  557MOL0     C75073   1.778   8.840  11.400 -0.3544 -0.3275 -0.0084
  557MOL0     C75074   1.667   8.865  11.508 -0.3460  0.0999  0.3899
  557MOL0     C75075   1.537   8.790  11.465  0.4446  0.4726 -0.2625
  557MOL0     C75076   1.458   8.844  11.346  0.3991 -0.5526 -0.2020
  557MOL0     N75077   1.334   8.774  11.325 -0.0217  0.5014  0.1623
  557MOL0     C75078   1.215   8.833  11.363  0.1205 -0.0765 -0.3496
  557MOL0     C75079   1.124   8.746  11.312  0.2491  0.0905 -0.4434
  557MOL0     C75080   0.977   8.789  11.310 -0.3846 -0.0118  0.2602
  557MOL0     C75081   0.950   8.901  11.214  0.3142 -0.7339  0.9758
  557MOL0     C75082   0.802   8.932  11.209 -0.3771 -0.5992  0.3515
  557MOL0     C75083   0.759   8.958  11.057 -0.7659 -0.5570 -0.0433
  557MOL0     O75084   0.623   9.009  11.055  0.9092  0.7436 -0.2129
  557MOL0     C75085   0.524   8.926  11.077  0.1650  0.3807 -0.2919
  557MOL0     C75086   0.399   8.980  11.101 -0.7890 -0.5299  0.3684
  557MOL0     C75087   0.281   8.899  11.110 -0.8411 -0.0095 -0.4634
  557MOL0     C75088   0.151   8.974  11.118 -0.2897 -0.7348 -0.3692
  557MOL0     C75089   0.297   8.757  11.122 -0.4485 -0.0547 -0.6215
  557MOL0     C75090   0.179   8.664  11.149  0.3620  0.3316 -0.3445
  557MOL0     O75091   0.203   8.536  11.121 -0.3833 -0.0374 -0.4248
  557MOL0     C75092   0.113   8.432  11.124 -0.0016 -0.3014 -0.3723
  557MOL0     C75093  -0.025   8.438  11.148  0.4584  0.5185  0.0013
  557MOL0     C75094  -0.104   8.319  11.152  0.5635  0.6333 -0.2198
  557MOL0     C75095  -0.045   8.191  11.127  0.9762  0.3816  1.1920
  557MOL0     O75096  -0.122   8.076  11.120 -0.2540 -0.5694  0.3433
  557MOL0     C75097  -0.269   8.085  11.115 -0.0138 -0.2813  0.2952
  557MOL0     C75098  -0.346   7.952  11.095 -0.9438 -0.0056 -0.3795
  557MOL0     C75099  -0.332   7.899  10.956 -0.6915 -0.1661  0.2204
  557MOL0     C75100  -0.448   7.803  10.930 -0.3378 -0.8979  0.4048
  557MOL0     C75101  -0.440   7.764  10.776  0.2748 -0.8917  1.0690
  557MOL0     C75102  -0.516   7.628  10.762  0.1975 -0.0038  0.4590
  557MOL0     C75103  -0.573   7.618  10.619 -0.1251  0.1228  0.4968
  557MOL0     C75104  -0.469   7.593  10.519 -1.3304 -0.4862 -0.4366
  557MOL0    Cl75105  -0.554   7.552  10.366  0.5893  0.7722 -0.3226
  557MOL0     C75106   0.086   8.193  11.104 -0.4758 -0.6275 -1.0365
  557MOL0     C75107   0.167   8.305  11.097 -0.8545 -0.1840  0.4675
  557MOL0     O75108   0.078   8.707  11.210  0.6246  0.0548  0.0512
  557MOL0     C75109   0.424   8.700  11.090 -0.7873 -0.7299  0.0235
  557MOL0     C75110   0.534   8.787  11.070 -0.2188  0.4746  0.4894
  557MOL0     N75111   1.179   8.636  11.261  0.4250 -0.1411  0.0545
  557MOL0     N75112   1.309   8.651  11.274  0.1462 -0.6231 -0.0087
  557MOL0     C75113   2.397   8.668  11.229 -0.5929 -0.3026  0.5313
  557MOL0     C75114   2.511   8.582  11.236  0.4250 -0.6562  0.8675
  557MOL0     C75115   2.915   8.423  11.199 -0.5079 -0.2823 -0.0812
  557MOL0     C75116   2.945   8.343  11.088 -0.5395  0.5580  0.0601
  557MOL0     C75117   3.075   8.280  11.084 -0.8085  0.1315 -0.1745
  557MOL0     C75118   3.164   8.295  11.185 -0.3568  0.0313 -0.2467
  557MOL0     O75119   3.292   8.258  11.162  0.0437 -0.1870  0.4352
  557MOL0     C75120   3.387   8.232  11.265  0.4269 -0.4078 -0.7521
  557MOL0     C75121   3.510   8.160  11.201  0.3024 -0.5799 -0.1452
  557MOL0     C75122   3.457   8.030  11.129  0.5728  0.2603 -0.0945
  557MOL0     C75123   3.564   7.944  11.060 -0.7430 -0.4134  0.0725
  557MOL0     C75124   3.616   8.006  10.936 -0.6070  0.1031  0.4887
  557MOL0     C75125   3.681   8.069  10.851 -0.0326 -0.3830 -0.9262
  557MOL0     C75126   3.133   8.368  11.301 -0.5136  0.0132 -0.0742
  557MOL0     C75127   3.006   8.426  11.312 -0.0874 -0.0934  0.4841
  557MOL0     H75128   2.688   8.733  11.478 -0.4136 -2.2269  0.6599
  557MOL0     H75129   2.489   8.893  11.468 -2.0425  1.4029 -1.7953
  557MOL0     H75130   2.230   8.905  11.501  1.1688 -0.4221  0.2779
  557MOL0     H75131   2.325   9.031  11.417 -1.9223  1.2109 -1.1645
  557MOL0     H75132   2.092   9.083  11.452 -0.4019  0.2285 -0.9085
  557MOL0     H75133   2.156   9.084  11.274  0.5768 -1.5196  0.2471
  557MOL0     H75134   1.996   8.944  11.228 -2.0037  1.7525  0.4751
  557MOL0     H75135   2.039   8.816  11.342  0.9492 -0.0212  1.0013
  557MOL0     H75136   1.913   8.930  11.532  2.4168 -3.1835 -0.4604
  557MOL0     H75137   1.852   9.038  11.400 -0.4927  0.0875  0.6445
  557MOL0     H75138   1.750   8.855  11.295 -2.6447 -2.1591  0.2498
  557MOL0     H75139   1.801   8.733  11.390 -2.9370 -0.8535 -1.1595
  557MOL0     H75140   1.716   8.830  11.600  3.2092 -3.1453 -2.3697
  557MOL0     H75141   1.645   8.971  11.516  1.3938  0.7815 -2.2821
  557MOL0     H75142   1.573   8.688  11.454  1.2686  0.6129  0.9563
  557MOL0     H75143   1.468   8.779  11.549 -4.3238 -1.9937 -4.0058
  557MOL0     H75144   1.527   8.837  11.262  1.7621  1.5531  0.6610
  557MOL0     H75145   1.453   8.950  11.374  1.5940 -0.9582  1.6821
  557MOL0     H75146   1.199   8.929  11.411 -0.4412 -0.6659  0.6728
  557MOL0     H75147   0.914   8.704  11.281  1.0149 -0.7918 -0.5662
  557MOL0     H75148   0.953   8.807  11.415 -0.6360  0.2931  0.1527
  557MOL0     H75149   0.979   8.864  11.115  1.5380 -2.1329  1.8102
  557MOL0     H75150   1.001   8.991  11.249 -0.2395 -0.6534  1.6040
  557MOL0     H75151   0.780   9.022  11.268 -2.6125  0.9935 -2.6530
  557MOL0     H75152   0.748   8.849  11.255 -2.4930  1.7426  2.3459
  557MOL0     H75153   0.774   8.874  10.987 -0.8260 -0.7932  0.2250
  557MOL0     H75154   0.815   9.040  11.011 -0.6495 -1.1621 -1.0240
  557MOL0     H75155   0.391   9.088  11.108  0.4078 -0.2777 -1.5752
  557MOL0     H75156   0.069   8.940  11.054  0.0674  0.8407 -1.7542
  557MOL0     H75157   0.123   8.961  11.223  0.9132  0.2345  0.1037
  557MOL0     H75158   0.158   9.081  11.093 -0.1684 -0.4395  0.8706
  557MOL0     H75159  -0.072   8.534  11.168  2.1737  2.0381 -2.6848
  557MOL0     H75160  -0.207   8.337  11.180  0.1994  1.6952 -2.0520
  557MOL0     H75161  -0.305   8.125  11.210  1.6544 -0.9049  1.2399
  557MOL0     H75162  -0.287   8.149  11.028 -0.1265  2.7944  2.4191
  557MOL0     H75163  -0.317   7.883  11.175 -0.6249  2.5370  1.8344
  557MOL0     H75164  -0.450   7.975  11.120 -1.0158 -0.9447  0.2678
  557MOL0     H75165  -0.247   7.831  10.955  0.6526  1.2398 -4.3933
  557MOL0     H75166  -0.324   7.980  10.884 -0.3259  1.3593  1.9117
  557MOL0     H75167  -0.442   7.708  10.986 -0.2867 -1.3775 -0.4012
  557MOL0     H75168  -0.543   7.846  10.961 -0.8897 -4.0518  3.9655
  557MOL0     H75169  -0.339   7.764  10.734  1.1355  0.6221  2.9846
  557MOL0     H75170  -0.490   7.840  10.715  1.2608 -1.7419 -0.8632
  557MOL0     H75171  -0.463   7.540  10.800 -1.1259 -1.3622 -0.6949
  557MOL0     H75172  -0.603   7.624  10.827  1.1825 -2.2594  1.7269
  557MOL0     H75173  -0.638   7.702  10.593  0.6506  0.3884 -0.6761
  557MOL0     H75174  -0.631   7.527  10.634 -1.0580  0.9740  2.3783
  557MOL0     H75175  -0.400   7.515  10.554  1.4148  1.6604 -0.6960
  557MOL0     H75176  -0.408   7.682  10.502 -2.1716  0.1607 -0.0727
  557MOL0     H75177   0.127   8.097  11.075 -2.2893 -1.7708 -0.0319
  557MOL0     H75178   0.263   8.296  11.048 -0.4603  1.1598  0.9659
  557MOL0     H75179   0.448   8.595  11.084  0.0397 -0.6885  1.8526
  557MOL0     H75180   0.630   8.740  11.048 -0.7659 -0.1360 -0.7065
  557MOL0     H75181   2.320   8.639  11.158  0.5294 -0.3656 -0.6837
  557MOL0     H75182   2.518   8.494  11.174 -0.8093  0.5428 -1.0740
  557MOL0     H75183   2.877   8.337  11.004 -0.0993  1.8537 -0.4193
  557MOL0     H75184   3.108   8.228  10.994  4.3280  0.6730  1.0786
  557MOL0     H75185   3.432   8.316  11.317 -0.4587 -1.8244  2.6194
  557MOL0     H75186   3.347   8.178  11.352 -1.1650  0.3357 -0.9785
  557MOL0     H75187   3.580   8.143  11.283  1.5239 -0.9857 -1.2444
  557MOL0     H75188   3.563   8.224  11.130 -0.0163  0.3096  0.4015
  557MOL0     H75189   3.382   8.043  11.050 -2.8671 -1.8521  2.5729
  557MOL0     H75190   3.411   7.964  11.203 -2.1762  1.2562 -0.7902
  557MOL0     H75191   3.533   7.845  11.025  0.7657 -0.4867 -1.1443
  557MOL0     H75192   3.654   7.940  11.121 -1.4256  4.4471  1.8465
  557MOL0     H75193   3.736   8.113  10.771 -0.5594 -0.1577 -1.1716
  557MOL0     H75194   3.210   8.382  11.376 -1.8596  4.5232  0.7542
  557MOL0     H75195   2.986   8.482  11.402 -1.8729 -1.2574  0.8647
  558MOL0     O75196   2.492   3.184  11.357  0.2753  1.1435 -0.7392
  558MOL0     C75197   2.499   3.238  11.248  0.8114  0.1297 -0.8948
  558MOL0     O75198   2.608   3.243  11.172  0.5177 -0.3439  0.2463
  558MOL0     C75199   2.727   3.189  11.215  0.1304 -0.0009 -0.4544
  558MOL0     C75200   2.745   3.050  11.213 -0.4462  0.8771  1.1255
  558MOL0     C75201   2.867   2.997  11.249  0.2726  0.6106  0.2505
  558MOL0     C75202   2.972   3.085  11.267  1.0895  0.2129 -0.6665
  558MOL0     O75203   3.093   3.029  11.286 -0.0526  0.1261  0.1322
  558MOL0     C75204   3.134   2.937  11.191 -0.1211  0.1845 -0.1439
  558MOL0     C75205   3.284   2.904  11.207 -0.2171  0.1527 -0.4040
  558MOL0     C75206   3.289   2.780  11.295  0.0297 -0.2622  0.0649
  558MOL0     C75207   3.435   2.733  11.306 -0.2414  0.9455 -0.3272
  558MOL0     C75208   3.527   2.809  11.420  0.5653  0.0862  0.4905
  558MOL0     C75209   3.641   2.728  11.466  0.4905 -0.1231 -0.5383
  558MOL0     C75210   3.715   2.776  11.592 -0.5622 -0.5366 -0.5286
  558MOL0     C75211   3.862   2.732  11.594  0.1354  0.3272 -0.7787
  558MOL0     N75212   3.933   2.820  11.505 -0.3876  0.1206 -0.1471
  558MOL0     C75213   3.956   2.960  11.507  0.2683  0.6313 -0.1845
  558MOL0     C75214   3.987   2.985  11.375 -0.1489 -0.5078  0.0726
  558MOL0     C75215   3.994   3.112  11.309 -0.1316  0.0990 -0.0146
  558MOL0     C75216   3.856   3.191  11.312  0.1695  0.2249 -0.0440
  558MOL0     C75217   3.733   3.126  11.253  0.2956  0.0550 -0.6111
  558MOL0     C75218   3.743   3.047  11.123  0.8942  0.2497 -0.5315
  558MOL0     O75219   3.768   3.131  11.019  0.4301 -0.1622  0.3029
  558MOL0     C75220   3.660   3.143  10.933  0.1871  0.0444  0.1744
  558MOL0     C75221   3.697   3.173  10.802 -0.2808  0.5063 -0.5802
  558MOL0     C75222   3.603   3.208  10.705  0.5760  0.5759 -0.9985
  558MOL0     C75223   3.657   3.235  10.567 -0.1759 -0.5552  0.2038
  558MOL0     C75224   3.460   3.199  10.738 -0.6994  0.2995  0.0752
  558MOL0     C75225   3.348   3.223  10.639  0.2419  0.5373 -0.5165
  558MOL0     O75226   3.242   3.138  10.649  0.0505  0.6699  0.2206
  558MOL0     C75227   3.141   3.153  10.558 -0.5645  0.3822  0.6554
  558MOL0     C75228   3.034   3.232  10.592  0.2430 -0.6577 -0.6141
  558MOL0     C75229   2.929   3.246  10.504  0.7900 -0.6442  0.7006
  558MOL0     C75230   2.916   3.177  10.383  0.3291 -0.6130  0.2014
  558MOL0     O75231   2.799   3.172  10.310  0.1424  0.4687 -1.1499
  558MOL0     C75232   2.728   3.304  10.301  0.3773 -0.2475 -0.6885
  558MOL0     C75233   2.602   3.298  10.219 -0.1251 -0.2935  0.7955
  558MOL0     C75234   2.626   3.265  10.074 -0.4381  0.7362  0.1862
  558MOL0     C75235   2.503   3.262   9.985 -0.0233  0.4553 -0.1522
  558MOL0     C75236   2.532   3.214   9.843  0.9546  0.1739 -0.1702
  558MOL0     C75237   2.397   3.203   9.761  0.4054  0.8018  0.5773
  558MOL0     C75238   2.389   3.334   9.678  0.1601 -0.9757  0.4686
  558MOL0     C75239   2.266   3.322   9.590  0.2327  0.6424  0.6098
  558MOL0    Cl75240   2.262   3.192   9.475  0.1201 -0.2413 -0.6536
  558MOL0     C75241   3.029   3.104  10.348 -0.4815  1.2097 -0.0630
  558MOL0     C75242   3.140   3.087  10.437 -0.7277 -0.1152  0.5218
  558MOL0     O75243   3.357   3.315  10.560 -0.5486  0.2957  0.4137
  558MOL0     C75244   3.424   3.147  10.864  0.0862 -0.5542 -0.1723
  558MOL0     C75245   3.518   3.128  10.969  0.0957 -0.4788  0.0049
  558MOL0     N75246   4.002   2.861  11.307 -0.0381 -0.4723 -0.4124
  558MOL0     N75247   3.984   2.763  11.396  0.1511 -0.3226  1.0134
  558MOL0     C75248   2.956   3.216  11.268  0.1675 -1.0093 -0.0160
  558MOL0     C75249   2.835   3.274  11.248 -0.0874 -0.5809 -0.0342
  558MOL0     C75250   2.388   3.301  11.199 -0.8610  0.2982 -0.3967
  558MOL0     C75251   2.401   3.360  11.070  0.9222 -0.5273 -0.0654
  558MOL0     C75252   2.290   3.414  11.005 -0.0824 -0.4078  0.3390
  558MOL0     C75253   2.166   3.413  11.067  0.1205  0.5199  0.2010
  558MOL0     O75254   2.054   3.463  11.006  0.2371 -0.4980  0.1746
  558MOL0     C75255   2.070   3.580  10.926  0.1467  0.0704  0.2385
  558MOL0     C75256   1.939   3.657  10.904  0.4374 -0.6365 -0.0420
  558MOL0     C75257   1.847   3.657  11.023 -0.9563 -0.3931  0.3486
  558MOL0     C75258   1.731   3.753  11.015 -0.0829 -0.2481  0.1897
  558MOL0     C75259   1.779   3.888  11.030 -1.2171  0.4568  0.0166
  558MOL0     C75260   1.842   3.989  11.035 -0.2322 -0.0375 -0.2534
  558MOL0     C75261   2.152   3.360  11.194 -0.2261 -0.0329  0.2395
  558MOL0     C75262   2.264   3.306  11.266 -0.0209 -0.2310  0.2256
  558MOL0     H75263   2.669   2.985  11.171  0.9303 -1.2746  1.8358
  558MOL0     H75264   2.859   2.889  11.259 -1.7480  0.5762 -1.0653
  558MOL0     H75265   3.084   2.841  11.180  3.9194 -2.1650  0.0960
  558MOL0     H75266   3.124   2.985  11.093  0.5808 -0.7660 -0.7006
  558MOL0     H75267   3.330   2.879  11.111 -1.0126 -2.7923 -0.1181
  558MOL0     H75268   3.336   2.983  11.261 -4.3907  3.0012 -0.1287
  558MOL0     H75269   3.247   2.796  11.394 -0.7330 -2.6779  0.1911
  558MOL0     H75270   3.239   2.695  11.247 -0.1213  0.7055 -1.5489
  558MOL0     H75271   3.430   2.628  11.335  3.9257  1.0692  1.5829
  558MOL0     H75272   3.483   2.728  11.208  0.9232  0.0077  0.2701
  558MOL0     H75273   3.556   2.903  11.372 -0.1601 -1.1676 -2.6172
  558MOL0     H75274   3.466   2.843  11.504 -0.5018  2.7836 -1.2488
  558MOL0     H75275   3.613   2.624  11.486  2.4531 -0.7535 -0.8484
  558MOL0     H75276   3.720   2.721  11.390  0.5541  0.6678 -0.5545
  558MOL0     H75277   3.704   2.884  11.605 -0.0424 -0.4925 -0.4348
  558MOL0     H75278   3.663   2.739  11.681  0.1774 -0.1354  0.0804
  558MOL0     H75279   3.874   2.627  11.566 -0.5420  0.1462 -0.4196
  558MOL0     H75280   3.904   2.753  11.692 -1.6178  1.1138 -0.1627
  558MOL0     H75281   3.949   3.026  11.593 -0.1703 -1.1600  1.2197
  558MOL0     H75282   4.067   3.176  11.359  0.0532  0.3412 -0.5909
  558MOL0     H75283   4.021   3.096  11.205 -0.6003  0.0142 -0.1250
  558MOL0     H75284   3.865   3.276  11.243 -1.9367 -1.4534 -2.6004
  558MOL0     H75285   3.847   3.231  11.413  0.9937 -1.7675  0.8552
  558MOL0     H75286   3.659   3.207  11.249 -1.7670 -1.6275  0.8013
  558MOL0     H75287   3.702   3.059  11.335 -0.3934  0.7546 -0.2789
  558MOL0     H75288   3.661   2.977  11.103  0.4054  1.2462 -2.1988
  558MOL0     H75289   3.829   2.979  11.132 -1.4310 -2.8073  0.0160
  558MOL0     H75290   3.804   3.180  10.784  0.0805 -0.8090  0.8474
  558MOL0     H75291   3.762   3.206  10.563  0.1087 -0.1273  2.8678
  558MOL0     H75292   3.606   3.182  10.486  0.8567  0.0353 -0.8616
  558MOL0     H75293   3.637   3.342  10.551 -1.1127 -0.5296  1.3702
  558MOL0     H75294   3.030   3.275  10.691  1.3892  0.5056 -1.0472
  558MOL0     H75295   2.843   3.299  10.543  0.1298  0.7203 -2.3153
  558MOL0     H75296   2.695   3.339  10.399  1.2914  0.2115 -0.5305
  558MOL0     H75297   2.802   3.377  10.267  1.3474 -1.5527 -1.5154
  558MOL0     H75298   2.526   3.230  10.257 -2.6874  1.6487 -0.5486
  558MOL0     H75299   2.545   3.391  10.223  0.5079  0.2385 -1.1901
  558MOL0     H75300   2.666   3.163  10.081 -3.1060 -0.5221 -1.1766
  558MOL0     H75301   2.709   3.316  10.025 -0.3202  1.8874  1.5289
  558MOL0     H75302   2.437   3.187  10.029 -0.0876 -0.3729 -1.6105
  558MOL0     H75303   2.464   3.364   9.976 -1.1946 -0.1319 -2.4964
  558MOL0     H75304   2.581   3.116   9.836 -0.9306 -0.7871 -0.9029
  558MOL0     H75305   2.603   3.277   9.789  0.3240  0.2404 -0.9541
  558MOL0     H75306   2.412   3.115   9.698  1.0007 -0.6947  2.6666
  558MOL0     H75307   2.308   3.180   9.820  0.3091 -1.0307 -0.2113
  558MOL0     H75308   2.479   3.342   9.618 -1.1436  1.3678 -1.3391
  558MOL0     H75309   2.382   3.419   9.746  2.8250 -2.1855  2.4584
  558MOL0     H75310   2.252   3.416   9.537  1.9758 -0.6824 -2.4630
  558MOL0     H75311   2.178   3.309   9.654 -1.8081  1.0333 -1.9650
  558MOL0     H75312   3.012   3.036  10.265  1.2538  0.5469  0.0650
  558MOL0     H75313   3.222   3.021  10.411  0.3408  1.0085  0.9491
  558MOL0     H75314   3.317   3.142  10.883  0.3777  0.8394  2.1900
  558MOL0     H75315   3.471   3.108  11.065 -0.0114 -0.2409  0.0053
  558MOL0     H75316   3.040   3.283  11.280  0.1894 -0.3520 -3.1241
  558MOL0     H75317   2.823   3.380  11.231 -0.0379 -0.3166  1.4238
  558MOL0     H75318   2.489   3.359  11.006  1.1683 -1.3537  0.2652
  558MOL0     H75319   2.288   3.461  10.908  2.4065  0.1877  0.5292
  558MOL0     H75320   2.141   3.648  10.975 -0.5150 -0.4352  1.9651
  558MOL0     H75321   2.110   3.544  10.831  1.8414 -2.2397  1.6825
  558MOL0     H75322   1.874   3.606  10.832 -0.7568 -1.1035  1.3113
  558MOL0     H75323   1.966   3.755  10.863 -1.3944  0.4196  1.1394
  558MOL0     H75324   1.905   3.696  11.107  0.3561 -0.0916 -0.6698
  558MOL0     H75325   1.813   3.556  11.048  1.9669 -1.4567  0.4510
  558MOL0     H75326   1.655   3.732  11.091 -0.9398 -1.1259 -0.8710
  558MOL0     H75327   1.680   3.745  10.919 -1.1453  0.2063  0.6942
  558MOL0     H75328   1.893   4.080  11.058 -0.9659  0.1631  0.6589
  558MOL0     H75329   2.054   3.372  11.239  1.1703  2.5776  2.9295
  558MOL0     H75330   2.264   3.268  11.368  0.2223 -0.7513  0.0346
  559MOL0     O75331   1.967   9.454   3.377 -0.6634 -0.3964  0.6761
  559MOL0     C75332   1.917   9.417   3.271 -0.2794  0.3762 -0.1876
  559MOL0     O75333   1.812   9.328   3.254 -0.6684  0.4218 -0.2398
  559MOL0     C75334   1.775   9.257   3.367 -0.6455 -0.4544 -0.8963
  559MOL0     C75335   1.865   9.195   3.458  0.1724 -0.0024  0.4075
  559MOL0     C75336   1.817   9.136   3.573  0.0918 -0.3235 -0.9784
  559MOL0     C75337   1.681   9.133   3.601  1.0553 -0.1216  0.5838
  559MOL0     O75338   1.623   9.086   3.720 -0.7137 -0.5777 -0.3871
  559MOL0     C75339   1.672   8.957   3.743  0.2553  0.3311  0.7069
  559MOL0     C75340   1.568   8.875   3.808 -0.1986 -0.6651 -0.7063
  559MOL0     C75341   1.442   8.846   3.722 -0.5392  0.0303  0.8334
  559MOL0     C75342   1.366   8.752   3.806 -0.0664  0.1023 -0.5325
  559MOL0     C75343   1.246   8.701   3.731  0.3130 -0.2201  0.4993
  559MOL0     C75344   1.161   8.628   3.828 -0.5043  0.5628  0.4344
  559MOL0     C75345   1.035   8.566   3.752 -0.6540  0.0397 -0.1400
  559MOL0     C75346   1.071   8.424   3.703 -0.9733 -0.0993  0.1236
  559MOL0     N75347   0.951   8.344   3.683 -0.5930 -0.7155  0.3087
  559MOL0     C75348   0.893   8.247   3.762 -1.2672  0.0695 -0.5872
  559MOL0     C75349   0.800   8.188   3.681 -0.4100 -0.2702 -0.1827
  559MOL0     C75350   0.706   8.077   3.716  0.0061  0.3651 -0.2356
  559MOL0     C75351   0.763   7.941   3.682  0.4589 -0.1849  0.2202
  559MOL0     C75352   0.874   7.903   3.774  0.2236  0.0953 -0.4816
  559MOL0     C75353   0.904   7.755   3.739  0.8013  0.0874 -0.2415
  559MOL0     O75354   0.791   7.661   3.752 -0.0792  0.5243  0.5961
  559MOL0     C75355   0.814   7.540   3.701 -0.5330  0.2115 -0.9367
  559MOL0     C75356   0.942   7.474   3.713  0.9690  0.3476 -0.1330
  559MOL0     C75357   0.955   7.343   3.665 -0.7441  0.5330 -0.8334
  559MOL0     C75358   1.083   7.264   3.688 -0.3121  0.5929 -0.1816
  559MOL0     C75359   0.846   7.286   3.598 -0.6009 -0.2948 -0.3986
  559MOL0     C75360   0.862   7.161   3.542  0.4943 -0.0621  0.0997
  559MOL0     O75361   0.782   7.057   3.593 -0.2685  0.3446  0.0558
  559MOL0     C75362   0.741   6.963   3.505  0.6625  0.6155 -0.7899
  559MOL0     C75363   0.682   6.997   3.380  0.0028  0.2225 -0.5665
  559MOL0     C75364   0.638   6.896   3.303 -0.9389  0.6214 -0.5239
  559MOL0     C75365   0.667   6.762   3.343 -0.0921  0.0951  0.5018
  559MOL0     O75366   0.655   6.652   3.260  0.5373 -0.5466  0.1381
  559MOL0     C75367   0.535   6.636   3.184  0.5051  0.2662 -0.3249
  559MOL0     C75368   0.511   6.502   3.112  0.4825 -0.4421 -0.2528
  559MOL0     C75369   0.638   6.447   3.048  0.1368 -0.2544  0.0634
  559MOL0     C75370   0.594   6.328   2.961  0.4748  0.2781  0.8348
  559MOL0     C75371   0.715   6.243   2.919  0.1685 -0.5960  0.6195
  559MOL0     C75372   0.709   6.101   2.984 -0.8925  0.3773  0.4410
  559MOL0     C75373   0.831   6.012   2.931  0.3292  1.0708 -0.0064
  559MOL0     C75374   0.827   5.869   3.000  0.3535 -0.5364  0.3827
  559MOL0    Cl75375   0.700   5.760   2.938 -0.5009  0.0339  0.3768
  559MOL0     C75376   0.737   6.730   3.461  0.1289  0.2068  0.6305
  559MOL0     C75377   0.761   6.832   3.545  0.4814 -0.0363  0.3554
  559MOL0     O75378   0.939   7.150   3.443 -0.3070  0.2212 -0.0355
  559MOL0     C75379   0.724   7.348   3.586  0.9853  0.0317  1.0138
  559MOL0     C75380   0.709   7.476   3.642  0.3887  0.7046 -0.3313
  559MOL0     N75381   0.790   8.248   3.560 -0.0949 -0.0137 -0.7654
  559MOL0     N75382   0.886   8.341   3.564  0.5084  0.0350 -0.3050
  559MOL0     C75383   1.594   9.192   3.501 -0.8149 -0.2322 -0.2697
  559MOL0     C75384   1.640   9.249   3.391  0.4090 -0.2322  0.1518
  559MOL0     C75385   1.984   9.470   3.152 -0.6227 -0.3290  0.7172
  559MOL0     C75386   2.045   9.597   3.153 -0.4270 -0.3417 -0.3247
  559MOL0     C75387   2.100   9.646   3.029  0.5884  0.0154 -0.2015
  559MOL0     C75388   2.096   9.563   2.918 -0.0271  0.4455  0.1312
  559MOL0     O75389   2.174   9.594   2.815  0.4424  0.5611  0.5595
  559MOL0     C75390   2.106   9.672   2.713  0.5567  0.3412  0.1094
  559MOL0     C75391   2.042   9.575   2.611  0.5833  0.1909 -0.0600
  559MOL0     C75392   2.021   9.651   2.480  1.0152  0.2940 -0.2433
  559MOL0     C75393   1.912   9.583   2.382  0.1389  0.3992  0.0524
  559MOL0     C75394   1.901   9.624   2.240 -0.7936  0.1475 -0.2188
  559MOL0     C75395   1.891   9.669   2.135 -1.3166  0.5317  0.1886
  559MOL0     C75396   2.036   9.435   2.919 -0.7286  0.7869  0.0380
  559MOL0     C75397   1.984   9.390   3.035  0.3890  0.0572  0.0848
  559MOL0     H75398   1.972   9.194   3.439  0.3821 -0.7911  1.5700
  559MOL0     H75399   1.878   9.081   3.645 -2.0113 -0.8348  0.4957
  559MOL0     H75400   1.688   8.898   3.652 -2.1165 -0.4794  0.7428
  559MOL0     H75401   1.759   8.952   3.809 -1.1099  2.4048  2.8094
  559MOL0     H75402   1.616   8.780   3.832  0.7969  0.0035  0.0709
  559MOL0     H75403   1.541   8.928   3.900  0.2859  0.3429 -1.1339
  559MOL0     H75404   1.382   8.931   3.690  2.9644  1.2687 -3.4686
  559MOL0     H75405   1.471   8.803   3.626  2.4089  2.2152  0.6078
  559MOL0     H75406   1.435   8.670   3.830 -1.1986 -1.5578 -2.6120
  559MOL0     H75407   1.338   8.804   3.898  2.7151  0.4640  0.1806
  559MOL0     H75408   1.195   8.786   3.684  1.5949  1.7998  2.5415
  559MOL0     H75409   1.272   8.628   3.655 -1.5727 -0.8451  0.4011
  559MOL0     H75410   1.221   8.546   3.870  1.3149  0.9905 -1.2077
  559MOL0     H75411   1.126   8.689   3.912 -0.0364  0.9779  0.3289
  559MOL0     H75412   0.950   8.550   3.819  1.6607  0.0188  2.9981
  559MOL0     H75413   1.000   8.636   3.676  1.0377  2.0011  0.7805
  559MOL0     H75414   1.143   8.368   3.764  2.2024  1.8032 -1.5802
  559MOL0     H75415   1.131   8.424   3.611  1.6462 -0.6913  1.7193
  559MOL0     H75416   0.898   8.208   3.863 -0.7591 -0.3010 -0.7474
  559MOL0     H75417   0.676   8.088   3.821  0.7826  2.8932 -0.2047
  559MOL0     H75418   0.609   8.081   3.664  0.0459 -2.0231 -0.6153
  559MOL0     H75419   0.808   7.946   3.583  4.1689 -2.3804  1.5673
  559MOL0     H75420   0.682   7.868   3.688  1.8046 -1.7565 -0.1388
  559MOL0     H75421   0.842   7.904   3.879 -1.8046 -2.5801 -0.9539
  559MOL0     H75422   0.960   7.968   3.760 -3.0717  5.3309  0.7565
  559MOL0     H75423   0.986   7.724   3.805  1.0792 -3.2202 -1.8889
  559MOL0     H75424   0.933   7.746   3.634  1.2402 -0.4584 -0.0815
  559MOL0     H75425   1.021   7.505   3.780  0.4645  0.3957  0.4490
  559MOL0     H75426   1.066   7.157   3.701 -1.2333  0.6179 -1.0993
  559MOL0     H75427   1.151   7.281   3.604  0.4758  1.1544  0.5451
  559MOL0     H75428   1.132   7.294   3.782  2.4581 -1.5478 -0.8459
  559MOL0     H75429   0.665   7.096   3.339 -0.8389 -1.2089 -4.0955
  559MOL0     H75430   0.587   6.930   3.214  0.4246  1.3844 -1.0328
  559MOL0     H75431   0.452   6.659   3.251  2.2028 -0.4691  2.1640
  559MOL0     H75432   0.532   6.717   3.111 -3.6080 -0.2722 -0.9975
  559MOL0     H75433   0.473   6.434   3.189 -1.0642 -0.5494 -1.0913
  559MOL0     H75434   0.427   6.520   3.045 -0.5749  0.8873  1.3385
  559MOL0     H75435   0.704   6.416   3.129 -0.2523  0.2742  0.5836
  559MOL0     H75436   0.681   6.527   2.987  1.7649 -2.0619 -1.2915
  559MOL0     H75437   0.517   6.275   3.018 -0.2001  1.7652  1.3442
  559MOL0     H75438   0.540   6.368   2.875 -0.2887 -1.7982  0.2733
  559MOL0     H75439   0.806   6.289   2.956 -0.3565 -0.0347  1.2363
  559MOL0     H75440   0.723   6.237   2.810  1.8058  1.2392  0.6072
  559MOL0     H75441   0.706   6.099   3.093  0.6826  1.5226  0.5514
  559MOL0     H75442   0.617   6.051   2.954  0.7423 -2.6706  0.0586
  559MOL0     H75443   0.924   6.056   2.967  1.5695 -2.3027  1.3549
  559MOL0     H75444   0.832   6.008   2.822  0.9048  2.1868 -0.0611
  559MOL0     H75445   0.804   5.883   3.106  1.8567 -2.3726  1.0045
  559MOL0     H75446   0.924   5.819   2.992 -0.5193 -2.0394 -2.2033
  559MOL0     H75447   0.758   6.627   3.491 -0.2394  0.2054  0.8960
  559MOL0     H75448   0.795   6.821   3.647 -0.4401  0.3385  0.7146
  559MOL0     H75449   0.639   7.305   3.536  0.2924 -0.6243  2.6897
  559MOL0     H75450   0.612   7.523   3.633 -0.3218 -0.7831 -0.8698
  559MOL0     H75451   1.486   9.187   3.512 -0.6222 -0.8960  1.5101
  559MOL0     H75452   1.571   9.280   3.313  0.9200  1.2131  0.2524
  559MOL0     H75453   2.042   9.662   3.240  1.5735 -1.0329  0.3317
  559MOL0     H75454   2.147   9.743   3.012  3.0218 -1.3752 -2.0762
  559MOL0     H75455   2.029   9.743   2.744 -0.7317 -0.5586 -0.8982
  559MOL0     H75456   2.178   9.733   2.658 -0.4103 -0.5658 -2.3084
  559MOL0     H75457   1.943   9.542   2.645  0.9669 -0.9023  0.0237
  559MOL0     H75458   2.102   9.485   2.597 -0.2357 -0.4650  0.5332
  559MOL0     H75459   2.113   9.651   2.421  0.6129  0.5210 -0.8873
  559MOL0     H75460   1.984   9.752   2.504  0.5419  0.2229 -0.6422
  559MOL0     H75461   1.811   9.600   2.420 -0.5755  0.3679 -1.7150
  559MOL0     H75462   1.938   9.477   2.381 -1.4840 -0.0416 -1.3004
  559MOL0     H75463   1.875   9.691   2.031 -2.5259 -0.2757  0.1851
  559MOL0     H75464   2.029   9.379   2.827 -2.3711  1.3001 -0.1857
  559MOL0     H75465   1.934   9.294   3.035  2.7671 -1.3244  2.8705
  560MOL0     O75466   7.772   7.399   0.136 -0.1023 -0.6378 -0.4365
  560MOL0     C75467   7.856   7.318   0.103 -0.4837  0.0645 -0.3373
  560MOL0     O75468   7.833   7.184   0.099 -0.4893  0.3545  0.4784
  560MOL0     C75469   7.708   7.125   0.134 -0.4373  0.3842  0.5578
  560MOL0     C75470   7.577   7.188   0.121 -0.1417 -0.0471 -0.0424
  560MOL0     C75471   7.461   7.105   0.142  0.5495 -1.3101 -0.8022
  560MOL0     C75472   7.471   6.971   0.166 -0.1773  0.0058 -0.2376
  560MOL0     O75473   7.368   6.885   0.182 -0.5458  0.7989  0.1282
  560MOL0     C75474   7.255   6.883   0.107  0.4428 -0.0218  0.1483
  560MOL0     C75475   7.165   6.771   0.166  0.4783  0.8679  0.3526
  560MOL0     C75476   7.039   6.736   0.090  0.2986  0.5088 -0.4789
  560MOL0     C75477   6.935   6.849   0.062  0.2148 -0.4568  0.7071
  560MOL0     C75478   6.891   6.919   0.191  0.9422 -0.9933 -0.2770
  560MOL0     C75479   6.755   7.000   0.179 -0.5673  0.0082 -0.8017
  560MOL0     C75480   6.634   6.926   0.129  0.1374  0.5155  0.8920
  560MOL0     C75481   6.597   6.823   0.237 -0.9310  0.0092 -0.0282
  560MOL0     N75482   6.453   6.799   0.240 -0.2475  0.3205  0.0100
  560MOL0     C75483   6.356   6.886   0.284 -0.3863  1.0901 -0.2353
  560MOL0     C75484   6.236   6.831   0.256 -0.9921  0.1637  1.3424
  560MOL0     C75485   6.102   6.868   0.302 -0.6657  0.2859  0.1898
  560MOL0     C75486   6.014   6.943   0.204  0.2736 -0.8391  0.1428
  560MOL0     C75487   5.976   6.870   0.075  0.2853  0.5085  0.4025
  560MOL0     C75488   5.882   6.942  -0.009  1.5339  0.1118 -0.1487
  560MOL0     O75489   5.879   6.877  -0.136 -0.5093  0.5377  0.5049
  560MOL0     C75490   5.792   6.780  -0.161  0.7150 -0.3394  0.1926
  560MOL0     C75491   5.798   6.742  -0.292 -0.8231  1.0203 -0.1453
  560MOL0     C75492   5.712   6.648  -0.343  0.5199  0.3057 -0.8652
  560MOL0     C75493   5.724   6.626  -0.497 -0.6455  0.4889 -0.9733
  560MOL0     C75494   5.622   6.573  -0.259  0.1184  0.2354 -0.6561
  560MOL0     C75495   5.521   6.476  -0.308 -0.5077  0.3597  0.4749
  560MOL0     O75496   5.533   6.421  -0.433  0.2552 -0.7634  0.4490
  560MOL0     C75497   5.494   6.283  -0.432 -1.3752 -0.5596  0.5114
  560MOL0     C75498   5.464   6.194  -0.328 -0.5008  0.2484  0.3328
  560MOL0     C75499   5.472   6.055  -0.345  0.0138 -0.0920  0.3637
  560MOL0     C75500   5.510   6.001  -0.466  0.4344 -0.5127 -0.3674
  560MOL0     O75501   5.504   5.860  -0.484  0.8394 -0.1774 -0.3530
  560MOL0     C75502   5.524   5.776  -0.369 -0.2323 -0.3812 -0.2594
  560MOL0     C75503   5.564   5.636  -0.414 -0.3014 -0.1263 -0.3681
  560MOL0     C75504   5.563   5.539  -0.298  1.0179 -0.4099  0.3579
  560MOL0     C75505   5.608   5.400  -0.346  0.0855  0.4900  0.1026
  560MOL0     C75506   5.505   5.288  -0.361 -0.5207 -1.2602  0.0653
  560MOL0     C75507   5.569   5.172  -0.444  0.1162 -0.2527  0.8662
  560MOL0     C75508   5.544   5.163  -0.598 -0.3348  0.9723  0.0212
  560MOL0     C75509   5.645   5.261  -0.672 -1.2219  0.1877  0.0536
  560MOL0    Cl75510   5.813   5.234  -0.638  0.2037  0.4667 -0.0458
  560MOL0     C75511   5.537   6.081  -0.572 -0.4862  0.1672 -0.6022
  560MOL0     C75512   5.532   6.223  -0.558 -0.2274 -0.5597  0.2052
  560MOL0     O75513   5.424   6.467  -0.237 -0.8820 -0.8411  0.3469
  560MOL0     C75514   5.625   6.603  -0.116  0.3449 -0.4519  0.0524
  560MOL0     C75515   5.709   6.703  -0.074 -0.0821  0.0175 -0.2555
  560MOL0     N75516   6.268   6.706   0.194  0.5595 -0.5546 -0.2241
  560MOL0     N75517   6.396   6.693   0.177  0.4813  0.4789 -0.1367
  560MOL0     C75518   7.587   6.911   0.178  0.3175 -0.4284 -0.3091
  560MOL0     C75519   7.707   6.982   0.146 -0.1813  0.8252 -0.6383
  560MOL0     C75520   7.991   7.364   0.070 -0.2322 -0.9554 -0.6610
  560MOL0     C75521   8.020   7.505   0.097  0.9329 -0.2959  0.2315
  560MOL0     C75522   8.141   7.554   0.060  0.3360 -0.8444 -0.7312
  560MOL0     C75523   8.230   7.471   0.011 -0.8592 -0.0281  0.5869
  560MOL0     O75524   8.348   7.525  -0.033 -0.3680 -0.2475  0.0325
  560MOL0     C75525   8.434   7.465  -0.137 -0.8055 -0.3685  0.0784
  560MOL0     C75526   8.512   7.573  -0.224  0.0676 -0.3394 -0.3605
  560MOL0     C75527   8.415   7.629  -0.332 -0.9878  0.3006 -0.4371
  560MOL0     C75528   8.298   7.717  -0.287 -0.4560 -0.0575  0.8053
  560MOL0     C75529   8.351   7.846  -0.248 -1.0687  0.0532 -0.0198
  560MOL0     C75530   8.383   7.961  -0.228  0.1696 -0.4700  0.5687
  560MOL0     C75531   8.210   7.338  -0.002  0.0951  0.0293  0.6521
  560MOL0     C75532   8.088   7.285   0.025  0.7543  0.2636 -0.3422
  560MOL0     H75533   7.561   7.294   0.107 -1.9409 -0.2925 -0.0724
  560MOL0     H75534   7.364   7.153   0.131  0.7994 -0.8174 -0.8758
  560MOL0     H75535   7.215   6.983   0.124 -0.8938 -0.5734  0.3682
  560MOL0     H75536   7.280   6.877   0.001  0.9053  1.4757  0.1440
  560MOL0     H75537   7.223   6.678   0.167 -1.3881 -0.5519  5.0515
  560MOL0     H75538   7.149   6.788   0.273 -1.8100  2.1855 -0.1364
  560MOL0     H75539   7.069   6.692  -0.006  0.8102 -2.9211  1.0850
  560MOL0     H75540   6.995   6.649   0.141 -0.4497  0.9148 -0.4190
  560MOL0     H75541   6.983   6.930   0.006 -1.2860  0.6226  0.9347
  560MOL0     H75542   6.857   6.805  -0.001  1.0944  0.2548 -0.9626
  560MOL0     H75543   6.862   6.848   0.269  0.0095 -0.7357 -0.3847
  560MOL0     H75544   6.969   6.973   0.246  1.9167 -1.3513 -1.2683
  560MOL0     H75545   6.731   7.041   0.278  0.0221 -1.4827  0.0069
  560MOL0     H75546   6.767   7.088   0.117 -2.2415  1.4755  0.8247
  560MOL0     H75547   6.569   7.013   0.111  2.0314  1.5166 -1.7774
  560MOL0     H75548   6.651   6.878   0.033  0.3549  0.6022  0.8870
  560MOL0     H75549   6.631   6.852   0.337  0.2719  1.5363 -0.8252
  560MOL0     H75550   6.649   6.731   0.207 -0.5141 -0.0750  0.9352
  560MOL0     H75551   6.381   6.983   0.328  1.5985 -0.5742  2.6460
  560MOL0     H75552   6.059   6.773   0.337 -1.4875  0.9261  0.9774
  560MOL0     H75553   6.118   6.929   0.391  0.6849 -0.3398  0.3941
  560MOL0     H75554   6.072   7.033   0.181 -2.0675  0.5125 -0.8499
  560MOL0     H75555   5.921   6.968   0.255 -0.0654  0.0973 -0.8810
  560MOL0     H75556   5.932   6.773   0.097 -2.4886  1.9408  1.6194
  560MOL0     H75557   6.062   6.850   0.010  1.1015 -0.4303  1.7037
  560MOL0     H75558   5.913   7.045  -0.030  0.1343  1.0535  2.0152
  560MOL0     H75559   5.786   6.950   0.044  2.1603  2.1116  0.7950
  560MOL0     H75560   5.875   6.785  -0.356  1.1493 -2.8602 -0.6915
  560MOL0     H75561   5.629   6.638  -0.549 -1.7309 -1.7280  0.3672
  560MOL0     H75562   5.787   6.707  -0.537 -2.9264  2.4211 -0.8511
  560MOL0     H75563   5.773   6.531  -0.518  2.2509  0.9067  2.7513
  560MOL0     H75564   5.439   6.232  -0.230 -0.1663 -0.5535  0.7327
  560MOL0     H75565   5.448   6.007  -0.250 -2.6857  2.0187  0.8868
  560MOL0     H75566   5.603   5.817  -0.306  1.8103 -0.6394 -2.5374
  560MOL0     H75567   5.436   5.781  -0.304  0.2228 -2.3096  0.5811
  560MOL0     H75568   5.495   5.603  -0.492 -0.1982  2.2998 -1.5899
  560MOL0     H75569   5.664   5.654  -0.455 -0.8971  3.6494 -0.5742
  560MOL0     H75570   5.463   5.537  -0.254 -0.4356 -2.4216 -2.7187
  560MOL0     H75571   5.642   5.588  -0.240  1.6045  1.1196 -1.6266
  560MOL0     H75572   5.664   5.406  -0.441 -1.9110  0.6320 -1.1106
  560MOL0     H75573   5.681   5.369  -0.270  3.5734  3.6742 -1.5724
  560MOL0     H75574   5.418   5.329  -0.413 -2.2026 -4.3801  0.2074
  560MOL0     H75575   5.471   5.251  -0.265 -1.4877 -0.7751 -0.0814
  560MOL0     H75576   5.674   5.181  -0.414 -0.8960  1.1247  4.5204
  560MOL0     H75577   5.529   5.083  -0.395  2.2734 -2.1778 -0.6111
  560MOL0     H75578   5.443   5.200  -0.619  0.0409  2.2166  0.2960
  560MOL0     H75579   5.553   5.061  -0.637  0.2463  0.6901  0.8697
  560MOL0     H75580   5.608   5.363  -0.658 -0.9951  0.5858 -1.9337
  560MOL0     H75581   5.650   5.242  -0.780  1.5823  0.8492 -0.0112
  560MOL0     H75582   5.572   6.038  -0.666  0.6327 -1.3794  0.4617
  560MOL0     H75583   5.547   6.294  -0.639 -2.6664  0.9410  0.9678
  560MOL0     H75584   5.555   6.557  -0.048 -1.4991  1.4009 -0.4744
  560MOL0     H75585   5.703   6.730   0.031  1.1505  3.0939 -0.8614
  560MOL0     H75586   7.599   6.806   0.205 -0.0542  0.5016  4.2784
  560MOL0     H75587   7.803   6.933   0.140 -0.0454  1.1443 -1.0448
  560MOL0     H75588   7.956   7.584   0.133 -0.0486 -0.5518 -0.9077
  560MOL0     H75589   8.160   7.661   0.064 -0.0395 -0.7975  2.2682
  560MOL0     H75590   8.501   7.397  -0.083 -2.0338 -0.6710  1.2976
  560MOL0     H75591   8.382   7.403  -0.211  1.9262  0.5632 -2.8321
  560MOL0     H75592   8.591   7.527  -0.284 -0.7758  0.4689 -2.1425
  560MOL0     H75593   8.573   7.643  -0.166  1.4115 -2.3688  0.8157
  560MOL0     H75594   8.369   7.548  -0.389 -1.2177  0.9567 -1.1897
  560MOL0     H75595   8.474   7.681  -0.408  1.4058 -1.8185 -0.1811
  560MOL0     H75596   8.251   7.664  -0.203 -1.2722  2.4945  2.0363
  560MOL0     H75597   8.225   7.740  -0.366  0.5746  0.4602 -0.0227
  560MOL0     H75598   8.404   8.066  -0.223 -3.6370  0.3921  3.1631
  560MOL0     H75599   8.281   7.261  -0.031  0.8071  0.5083  1.0988
  560MOL0     H75600   8.066   7.179   0.020  0.8123  0.3302 -2.8375
  561MOL0     O75601   4.876   1.988   5.525  0.4511  0.1019 -0.4135
  561MOL0     C75602   4.913   1.924   5.423  0.7749  0.3227 -0.7040
  561MOL0     O75603   4.830   1.848   5.346 -0.0212  0.3775  0.4600
  561MOL0     C75604   4.704   1.817   5.392  0.1183 -0.5992  0.3146
  561MOL0     C75605   4.606   1.917   5.410 -0.0040 -0.2241  0.0051
  561MOL0     C75606   4.484   1.893   5.470 -0.0919 -1.5315  0.9548
  561MOL0     C75607   4.443   1.765   5.510  0.0819  0.6962 -0.0635
  561MOL0     O75608   4.337   1.736   5.589 -0.1184 -0.1989 -0.4133
  561MOL0     C75609   4.209   1.792   5.543 -0.5050  0.0826 -0.3178
  561MOL0     C75610   4.101   1.746   5.636  0.4795 -0.4416 -0.5338
  561MOL0     C75611   3.967   1.795   5.597  0.5959 -0.1673  0.0205
  561MOL0     C75612   3.936   1.942   5.652  0.0770  1.1676  0.3016
  561MOL0     C75613   3.804   1.995   5.609  0.3363 -0.9623  0.0530
  561MOL0     C75614   3.693   1.952   5.710  0.4685 -0.0184  0.5519
  561MOL0     C75615   3.561   1.977   5.645  0.4063 -0.3803 -0.0335
  561MOL0     C75616   3.540   1.869   5.532  1.2457 -0.1379  0.4378
  561MOL0     N75617   3.398   1.864   5.491  0.3161 -0.1609 -0.0025
  561MOL0     C75618   3.302   1.806   5.573  0.8056 -0.3651 -0.8066
  561MOL0     C75619   3.182   1.849   5.531  1.0894 -0.8410  1.1986
  561MOL0     C75620   3.046   1.805   5.585 -0.3031  1.0317  0.8014
  561MOL0     C75621   2.928   1.842   5.496 -0.3903 -1.1431 -0.1721
  561MOL0     C75622   2.886   1.988   5.513 -0.0315 -0.1949 -0.9344
  561MOL0     C75623   2.794   2.047   5.401  0.5745  0.4281  0.1330
  561MOL0     O75624   2.658   2.016   5.414 -0.0863  0.3378  0.0345
  561MOL0     C75625   2.571   2.064   5.326 -0.3786 -0.3549 -0.4955
  561MOL0     C75626   2.594   2.151   5.220 -0.5840 -0.3288 -0.3010
  561MOL0     C75627   2.492   2.218   5.147  0.0956  0.1162  0.1543
  561MOL0     C75628   2.540   2.315   5.037  0.0652  0.0219 -0.5054
  561MOL0     C75629   2.356   2.188   5.178 -0.0103  0.0927  0.0963
  561MOL0     C75630   2.239   2.239   5.099  0.4621  0.4317  0.2642
  561MOL0     O75631   2.112   2.231   5.159  0.6481  0.2662  0.0478
  561MOL0     C75632   1.998   2.271   5.093 -0.5519 -1.4133 -0.7263
  561MOL0     C75633   1.979   2.410   5.076  0.3394  0.3372  0.5100
  561MOL0     C75634   1.864   2.456   5.007  0.7492 -0.3721  0.6635
  561MOL0     C75635   1.765   2.373   4.954 -0.4528  0.2586 -0.3058
  561MOL0     O75636   1.652   2.417   4.878  0.2287  0.1811 -0.4061
  561MOL0     C75637   1.656   2.540   4.815 -0.8294 -0.2510 -0.3766
  561MOL0     C75638   1.535   2.557   4.721 -0.4616 -0.2518 -0.1055
  561MOL0     C75639   1.396   2.606   4.772 -0.3365  0.2680 -0.1861
  561MOL0     C75640   1.325   2.503   4.865 -0.3577 -0.3230 -0.8748
  561MOL0     C75641   1.187   2.559   4.904  0.9532 -0.0599 -0.4207
  561MOL0     C75642   1.192   2.655   5.024  0.3938 -1.1505  0.7039
  561MOL0     C75643   1.070   2.744   5.035  0.3410  0.5754 -0.4955
  561MOL0     C75644   0.974   2.709   5.156  0.2499  0.0142  0.0286
  561MOL0    Cl75645   0.817   2.773   5.129  0.3980 -0.0249 -0.2240
  561MOL0     C75646   1.792   2.237   4.961 -0.4376 -0.5817 -0.6445
  561MOL0     C75647   1.896   2.184   5.037 -0.2799 -0.4021 -0.5984
  561MOL0     O75648   2.259   2.264   4.981  0.5592  0.1733 -0.0420
  561MOL0     C75649   2.332   2.092   5.277 -0.6852 -0.2296  0.2386
  561MOL0     C75650   2.437   2.033   5.350 -0.4090 -0.2802 -0.5879
  561MOL0     N75651   3.216   1.946   5.439 -0.2345 -0.8109 -0.4826
  561MOL0     N75652   3.339   1.964   5.424  0.5313 -0.5677 -0.1667
  561MOL0     C75653   4.534   1.658   5.491 -0.2856  0.1313 -0.0889
  561MOL0     C75654   4.661   1.686   5.428  0.1508  0.1462 -0.4437
  561MOL0     C75655   5.052   1.939   5.371 -0.0524 -0.7401 -0.1997
  561MOL0     C75656   5.076   1.943   5.232 -0.0155 -0.3668  0.5033
  561MOL0     C75657   5.201   1.964   5.184  0.2864  0.3587 -0.9626
  561MOL0     C75658   5.307   1.953   5.272 -0.3396  0.1464 -0.3501
  561MOL0     O75659   5.432   1.970   5.213  1.5903 -0.4923  0.0576
  561MOL0     C75660   5.548   1.979   5.296 -0.8148 -0.6043  0.2280
  561MOL0     C75661   5.676   1.955   5.212  0.3000 -0.8034  0.1486
  561MOL0     C75662   5.663   1.813   5.146 -0.0128 -0.2342 -0.1948
  561MOL0     C75663   5.767   1.795   5.036  0.1053  0.5440 -0.6709
  561MOL0     C75664   5.908   1.785   5.088  1.1681 -0.5032 -0.0423
  561MOL0     C75665   6.028   1.798   5.101  0.2107  0.7091  0.2545
  561MOL0     C75666   5.294   1.947   5.414 -0.4222  0.6990 -1.0314
  561MOL0     C75667   5.162   1.944   5.460  1.3251  0.7076  1.4097
  561MOL0     H75668   4.634   2.019   5.385 -1.6640 -0.4016 -3.0362
  561MOL0     H75669   4.415   1.965   5.511  1.0685 -1.6389  3.2361
  561MOL0     H75670   4.206   1.902   5.545 -0.4143  0.2061 -2.8690
  561MOL0     H75671   4.181   1.752   5.445  0.7062 -1.3838 -0.0991
  561MOL0     H75672   4.091   1.637   5.643 -1.5423 -0.1718  2.4175
  561MOL0     H75673   4.116   1.785   5.737 -2.5012 -0.2429 -0.0981
  561MOL0     H75674   3.963   1.790   5.488 -2.3599 -1.6112  0.1066
  561MOL0     H75675   3.892   1.730   5.643  1.3236 -0.4390  0.8483
  561MOL0     H75676   3.955   1.944   5.760  0.3617  1.3833  0.2512
  561MOL0     H75677   4.011   2.016   5.622  1.1672 -0.2971 -0.7343
  561MOL0     H75678   3.803   2.104   5.597 -0.4735 -1.2545 -3.7697
  561MOL0     H75679   3.781   1.959   5.508 -3.7618  0.6115  0.2390
  561MOL0     H75680   3.702   1.846   5.736 -1.1179 -1.0746 -2.6829
  561MOL0     H75681   3.688   2.014   5.800  2.4984 -0.7536  1.2267
  561MOL0     H75682   3.481   1.967   5.719 -0.0398  2.3785 -0.0166
  561MOL0     H75683   3.564   2.079   5.606 -3.6851  0.6374  1.8244
  561MOL0     H75684   3.583   1.774   5.564 -2.8124 -1.9734  0.9962
  561MOL0     H75685   3.590   1.904   5.441  1.0247  0.9157  0.7017
  561MOL0     H75686   3.318   1.724   5.642  0.6250  0.3258  0.0674
  561MOL0     H75687   3.047   1.695   5.581  1.0940  0.9865  1.7556
  561MOL0     H75688   3.026   1.844   5.685 -2.6017 -0.1923  0.9014
  561MOL0     H75689   2.842   1.779   5.519 -2.6028  0.8457 -2.3496
  561MOL0     H75690   2.952   1.835   5.389 -0.9145  3.6578 -0.8611
  561MOL0     H75691   2.977   2.048   5.508 -2.5899  4.4183  1.7205
  561MOL0     H75692   2.833   2.002   5.608  2.6422  0.6437  0.5588
  561MOL0     H75693   2.830   2.016   5.302  2.6632  0.4051  0.8533
  561MOL0     H75694   2.798   2.155   5.413 -4.6232  1.0822 -1.6629
  561MOL0     H75695   2.696   2.189   5.210  0.3116 -2.3606  0.5660
  561MOL0     H75696   2.513   2.285   4.936  1.0816 -2.4896 -0.1054
  561MOL0     H75697   2.483   2.402   5.071 -0.8455 -0.9444  0.5293
  561MOL0     H75698   2.648   2.331   5.030  0.2094 -0.5542  0.2789
  561MOL0     H75699   2.055   2.480   5.108 -0.4042  2.2059 -1.5230
  561MOL0     H75700   1.852   2.563   5.004  2.1956 -0.2097 -1.0704
  561MOL0     H75701   1.647   2.620   4.888 -5.2302 -0.2324 -0.6934
  561MOL0     H75702   1.746   2.550   4.753  0.5988  1.0102  1.7601
  561MOL0     H75703   1.564   2.635   4.649 -1.4434  2.1418  1.9317
  561MOL0     H75704   1.525   2.467   4.660  0.9540  0.8486 -2.1036
  561MOL0     H75705   1.342   2.616   4.678 -1.4603  3.5169  0.6776
  561MOL0     H75706   1.415   2.698   4.827  1.8803  0.2330 -0.7768
  561MOL0     H75707   1.306   2.413   4.807 -4.5179  1.3219 -2.4915
  561MOL0     H75708   1.385   2.495   4.956  0.3555  0.0473 -1.3020
  561MOL0     H75709   1.114   2.477   4.910  2.7021 -1.6891 -0.4754
  561MOL0     H75710   1.150   2.612   4.815 -2.3101  0.1888  0.9356
  561MOL0     H75711   1.218   2.606   5.118  0.2333  1.7470  2.3629
  561MOL0     H75712   1.276   2.723   5.005 -1.6516  2.2162  2.6750
  561MOL0     H75713   1.008   2.746   4.944 -1.6945 -3.2844  0.5365
  561MOL0     H75714   1.107   2.844   5.056  1.0539 -0.0640  1.4928
  561MOL0     H75715   1.010   2.747   5.252  1.2614  1.3924 -0.8622
  561MOL0     H75716   0.959   2.601   5.145  1.4438  0.0663 -3.5503
  561MOL0     H75717   1.727   2.160   4.922 -0.8061 -2.1447  2.6447
  561MOL0     H75718   1.903   2.078   5.058  0.3682 -0.2666 -0.0911
  561MOL0     H75719   2.233   2.058   5.306 -1.1183  2.4927  2.3171
  561MOL0     H75720   2.425   1.946   5.414  0.1039  0.6648  0.8358
  561MOL0     H75721   4.510   1.562   5.535  0.0182 -1.6945 -3.6020
  561MOL0     H75722   4.724   1.602   5.401  0.0885 -0.2327  0.5704
  561MOL0     H75723   4.989   1.943   5.167 -1.3026 -1.4655  2.1469
  561MOL0     H75724   5.222   1.996   5.083  0.4517  3.4442 -0.0406
  561MOL0     H75725   5.557   2.081   5.334 -1.1286  0.5569 -2.6043
  561MOL0     H75726   5.547   1.897   5.369 -0.7130 -1.5518 -0.8026
  561MOL0     H75727   5.763   1.970   5.276 -0.7023  0.1863  1.3535
  561MOL0     H75728   5.682   2.027   5.130  2.2816 -1.2124 -0.0976
  561MOL0     H75729   5.570   1.791   5.094  0.1069 -3.1247  0.6581
  561MOL0     H75730   5.663   1.740   5.228 -0.7783  1.1521  1.0859
  561MOL0     H75731   5.744   1.877   4.966  2.1223  1.3648 -0.4191
  561MOL0     H75732   5.762   1.698   4.986  0.9645 -0.1391  0.5326
  561MOL0     H75733   6.133   1.802   5.118 -0.1300 -0.6883  3.3986
  561MOL0     H75734   5.378   1.961   5.482 -3.3427  1.8979  2.7318
  561MOL0     H75735   5.143   1.947   5.567 -1.6059  4.5461  0.9771
  562MOL0     O75736   3.079  10.730   4.842 -0.1479  0.1461 -0.0362
  562MOL0     C75737   3.078  10.819   4.925  0.3168  0.5444  0.1849
  562MOL0     O75738   3.186  10.888   4.977 -0.0322  0.1399  0.8085
  562MOL0     C75739   3.306  10.823   4.957  0.1632 -0.3129  0.1503
  562MOL0     C75740   3.334  10.694   5.006 -1.0549 -0.4993 -0.5723
  562MOL0     C75741   3.452  10.629   4.965 -0.2115  0.8766 -0.7018
  562MOL0     C75742   3.555  10.685   4.894  0.3317 -0.3838 -0.1035
  562MOL0     O75743   3.663  10.610   4.869  0.1732  0.0031  0.1232
  562MOL0     C75744   3.726  10.642   4.740 -0.2773 -0.0872  0.7400
  562MOL0     C75745   3.842  10.538   4.699  0.4879 -0.6273  0.7178
  562MOL0     C75746   3.789  10.410   4.633 -0.2935  0.2140  0.0156
  562MOL0     C75747   3.893  10.321   4.552 -0.2353 -0.3373 -0.4300
  562MOL0     C75748   3.818  10.208   4.485  0.4324 -0.4497  0.8561
  562MOL0     C75749   3.734  10.248   4.358  0.7450  0.7090  0.4448
  562MOL0     C75750   3.813  10.308   4.244  0.4166  0.1027  0.0171
  562MOL0     C75751   3.938  10.224   4.208  0.1374 -0.1489  0.0777
  562MOL0     N75752   3.894  10.090   4.157  0.1058  0.9698 -0.2909
  562MOL0     C75753   3.812  10.047   4.052 -0.2566 -0.0219  0.2321
  562MOL0     C75754   3.808   9.908   4.059  0.4636 -0.4842  0.4186
  562MOL0     C75755   3.732   9.815   3.964  0.1262  0.4414 -0.4101
  562MOL0     C75756   3.705   9.682   4.026 -0.1149  1.1149 -0.8598
  562MOL0     C75757   3.587   9.683   4.132 -0.2266  0.5984  0.0460
  562MOL0     C75758   3.569   9.554   4.211  0.3382 -0.8215 -1.0364
  562MOL0     O75759   3.523   9.441   4.136  0.0976 -0.2333  0.6604
  562MOL0     C75760   3.390   9.408   4.134 -0.3125  0.6053 -0.5364
  562MOL0     C75761   3.280   9.489   4.164  0.3104  0.0975 -0.2853
  562MOL0     C75762   3.153   9.432   4.180 -0.1845 -0.1406  0.4889
  562MOL0     C75763   3.056   9.526   4.253  0.7679 -0.7021  0.1041
  562MOL0     C75764   3.126   9.297   4.154  0.1216 -0.0267 -0.4356
  562MOL0     C75765   2.993   9.232   4.170 -0.4383 -0.6191  0.5111
  562MOL0     O75766   2.989   9.104   4.150 -0.2572  0.3139 -0.4449
  562MOL0     C75767   2.869   9.038   4.147 -0.3209 -0.2569 -0.5997
  562MOL0     C75768   2.807   8.998   4.267 -0.3457  0.5300 -1.3586
  562MOL0     C75769   2.680   8.936   4.264 -0.3160 -0.3887 -0.4567
  562MOL0     C75770   2.607   8.919   4.148  0.3117  0.0611 -0.4883
  562MOL0     O75771   2.480   8.866   4.155 -0.5132 -0.2157 -0.3553
  562MOL0     C75772   2.410   8.836   4.034  0.1427 -0.1750 -0.3794
  562MOL0     C75773   2.274   8.781   4.085  0.8668 -0.2273  0.9280
  562MOL0     C75774   2.197   8.873   4.182 -0.4092 -0.0609 -1.0639
  562MOL0     C75775   2.077   8.802   4.245 -1.1297 -0.3365 -0.1916
  562MOL0     C75776   2.002   8.877   4.352 -0.1788 -0.6024 -0.6076
  562MOL0     C75777   2.077   8.865   4.492  0.0680 -0.3322  1.5375
  562MOL0     C75778   2.007   8.936   4.604 -0.6008  0.2790 -0.5020
  562MOL0     C75779   2.024   9.094   4.606 -0.6679 -0.1639  0.1264
  562MOL0    Cl75780   1.911   9.168   4.724 -0.4290  0.0695  0.4507
  562MOL0     C75781   2.675   8.951   4.029 -0.2501 -0.6862 -0.4128
  562MOL0     C75782   2.807   9.005   4.028 -0.2874  0.5643 -0.0065
  562MOL0     O75783   2.890   9.300   4.189  0.4248 -0.5576  0.0652
  562MOL0     C75784   3.231   9.219   4.111  0.0439  0.5466 -0.6124
  562MOL0     C75785   3.357   9.272   4.097  0.6240 -0.8240 -1.2239
  562MOL0     N75786   3.865   9.873   4.184  0.2891 -1.1366  0.0251
  562MOL0     N75787   3.926   9.982   4.225  0.5914 -1.1341 -0.4834
  562MOL0     C75788   3.531  10.812   4.852  0.3655  0.2748 -0.0818
  562MOL0     C75789   3.412  10.884   4.882  0.0049  0.0192  1.2777
  562MOL0     C75790   2.950  10.829   4.992  0.3455  0.4875  0.9982
  562MOL0     C75791   2.871  10.713   5.006 -0.4049  0.6364 -0.3340
  562MOL0     C75792   2.763  10.712   5.091 -0.6469  0.9516  0.5364
  562MOL0     C75793   2.713  10.828   5.146 -0.4419 -0.0102  0.2987
  562MOL0     O75794   2.602  10.831   5.231 -0.5146 -0.8497 -0.1880
  562MOL0     C75795   2.507  10.724   5.220 -0.1374 -0.2873  0.5620
  562MOL0     C75796   2.516  10.611   5.322 -0.5533  0.1185  0.3426
  562MOL0     C75797   2.421  10.502   5.271  0.0996  1.2304  0.2069
  562MOL0     C75798   2.402  10.401   5.383 -0.2853 -0.0189  0.4618
  562MOL0     C75799   2.305  10.305   5.361 -0.8604  1.0359 -0.1627
  562MOL0     C75800   2.223  10.215   5.349  0.5044  0.0221 -0.5298
  562MOL0     C75801   2.785  10.944   5.123 -0.4110  0.7167 -0.4848
  562MOL0     C75802   2.908  10.949   5.049 -0.2897  0.7229 -0.1136
  562MOL0     H75803   3.258  10.652   5.071 -2.3206  4.4472  1.6151
  562MOL0     H75804   3.463  10.527   5.001 -0.5712  1.2460  0.5305
  562MOL0     H75805   3.649  10.645   4.663  0.2417 -0.4966  0.1879
  562MOL0     H75806   3.770  10.742   4.747 -0.3951 -0.1491  3.2541
  562MOL0     H75807   3.910  10.585   4.627 -0.4123  0.7512  0.7316
  562MOL0     H75808   3.903  10.514   4.787  1.0735  0.7916  0.7189
  562MOL0     H75809   3.764  10.357   4.726  0.2534  0.3334  0.2346
  562MOL0     H75810   3.702  10.428   4.571 -1.3535 -0.5169  1.2252
  562MOL0     H75811   3.935  10.388   4.476 -0.6888 -1.0654 -1.3383
  562MOL0     H75812   3.974  10.294   4.621 -1.7019  1.8644  2.3759
  562MOL0     H75813   3.890  10.131   4.459 -1.6153 -1.6886 -1.5475
  562MOL0     H75814   3.745  10.161   4.552 -0.8031 -3.1215 -2.1438
  562MOL0     H75815   3.681  10.159   4.325  2.2528  0.2861 -0.9305
  562MOL0     H75816   3.663  10.325   4.390 -1.6770 -1.0936 -0.2895
  562MOL0     H75817   3.757  10.318   4.150  4.3144 -2.1648 -2.8490
  562MOL0     H75818   3.850  10.405   4.278  1.7540 -0.3242 -0.1548
  562MOL0     H75819   3.993  10.209   4.301  0.1001  0.7679  0.2608
  562MOL0     H75820   4.009  10.273   4.141  4.4533 -1.8967  2.9778
  562MOL0     H75821   3.761  10.099   3.972  0.0874 -1.7901 -1.2150
  562MOL0     H75822   3.641   9.853   3.917 -1.0400  1.6086  2.5546
  562MOL0     H75823   3.800   9.802   3.879  0.6236  5.3975 -1.0453
  562MOL0     H75824   3.799   9.654   4.075 -0.2350  0.9760 -0.7057
  562MOL0     H75825   3.672   9.603   3.959 -3.2367 -0.1030  1.8175
  562MOL0     H75826   3.494   9.698   4.077 -1.7132 -3.8801  0.9222
  562MOL0     H75827   3.607   9.770   4.195  3.5674  0.6075 -0.9265
  562MOL0     H75828   3.498   9.578   4.291  0.6774  0.3225 -1.0548
  562MOL0     H75829   3.669   9.531   4.249 -0.7460 -3.5956  0.4476
  562MOL0     H75830   3.299   9.594   4.187 -1.5055  0.5504 -0.6562
  562MOL0     H75831   2.962   9.534   4.198  0.8266 -0.6571  0.0097
  562MOL0     H75832   3.038   9.510   4.360 -1.8966  0.5152 -0.0845
  562MOL0     H75833   3.101   9.625   4.241 -0.2400 -0.1222  0.9436
  562MOL0     H75834   2.862   8.997   4.361  0.4122  2.2155 -1.7271
  562MOL0     H75835   2.647   8.915   4.366 -1.9101  1.3044 -0.5533
  562MOL0     H75836   2.408   8.918   3.963 -1.2898 -0.1403 -0.3461
  562MOL0     H75837   2.456   8.754   3.979 -3.5101 -1.0356 -2.5037
  562MOL0     H75838   2.207   8.748   4.004  0.4858 -1.6215  1.7738
  562MOL0     H75839   2.287   8.687   4.140 -2.2118 -2.0219 -1.0832
  562MOL0     H75840   2.168   8.964   4.129 -3.0963 -0.5083 -0.5122
  562MOL0     H75841   2.268   8.905   4.259 -0.3792  1.9576 -1.8818
  562MOL0     H75842   2.008   8.776   4.163 -2.7479  2.1301  0.2915
  562MOL0     H75843   2.114   8.710   4.291 -0.4842  0.6666  1.3646
  562MOL0     H75844   1.906   8.825   4.364 -1.0554  0.6906 -1.6383
  562MOL0     H75845   1.980   8.980   4.322 -0.5578 -0.8098 -1.0537
  562MOL0     H75846   2.099   8.760   4.516  2.2818 -1.6899 -4.6620
  562MOL0     H75847   2.176   8.905   4.471  0.1040 -1.7955 -1.6453
  562MOL0     H75848   2.053   8.901   4.697  1.1784  1.6039 -0.8205
  562MOL0     H75849   1.900   8.916   4.612 -0.1491 -1.7372  1.4888
  562MOL0     H75850   1.994   9.127   4.507 -2.3077 -0.8612  0.3495
  562MOL0     H75851   2.130   9.117   4.615  0.1400 -2.6914 -1.6882
  562MOL0     H75852   2.634   8.935   3.929 -0.7792 -0.8392 -0.1766
  562MOL0     H75853   2.857   9.047   3.942 -1.1274 -0.2701 -0.9258
  562MOL0     H75854   3.220   9.116   4.079 -1.8299  0.7038 -0.5803
  562MOL0     H75855   3.433   9.196   4.084  0.8839 -0.4681 -1.8269
  562MOL0     H75856   3.608  10.873   4.805  0.1242 -1.5643 -3.1178
  562MOL0     H75857   3.399  10.985   4.843 -1.8832 -0.5133  0.3866
  562MOL0     H75858   2.896  10.621   4.954 -0.2206 -1.1648  2.7394
  562MOL0     H75859   2.722  10.615   5.116  0.7740 -0.1842 -1.2606
  562MOL0     H75860   2.407  10.769   5.227 -0.6140 -1.5235  3.2685
  562MOL0     H75861   2.515  10.677   5.122 -0.2869 -0.0449  0.4350
  562MOL0     H75862   2.499  10.651   5.422  1.3698 -2.0949  1.6318
  562MOL0     H75863   2.617  10.571   5.315 -0.6433  0.0363 -0.7020
  562MOL0     H75864   2.452  10.457   5.176 -2.4650 -1.9692  0.7219
  562MOL0     H75865   2.328  10.552   5.243  0.6738  2.7780  0.9543
  562MOL0     H75866   2.373  10.446   5.478 -0.4319 -0.2307  0.5186
  562MOL0     H75867   2.494  10.342   5.395 -0.0078  0.6031  1.5812
  562MOL0     H75868   2.151  10.136   5.357 -1.2993  1.7140  2.3009
  562MOL0     H75869   2.755  11.040   5.164  1.9852  0.6449  1.6757
  562MOL0     H75870   2.952  11.048   5.042 -1.4056  1.1390 -2.4055
  563MOL0     O75871  10.320  10.273   2.712 -0.7568 -0.2803  0.1481
  563MOL0     C75872  10.326  10.154   2.672  0.4544 -0.2222  0.0581
  563MOL0     O75873  10.236  10.088   2.585  0.1578 -0.1509  0.1982
  563MOL0     C75874  10.120  10.141   2.537 -0.1542 -0.0459 -0.0440
  563MOL0     C75875  10.057  10.259   2.580  0.1190 -0.2909  0.8815
  563MOL0     C75876   9.919  10.283   2.547 -0.3151 -0.5877 -1.3572
  563MOL0     C75877   9.837  10.185   2.494 -1.5507 -0.3312 -0.2980
  563MOL0     O75878   9.709  10.202   2.464  0.9451 -0.5271  0.4173
  563MOL0     C75879   9.645  10.329   2.454 -0.1056  0.2760  0.0042
  563MOL0     C75880   9.525  10.343   2.347 -0.2209  0.5648 -0.6385
  563MOL0     C75881   9.402  10.252   2.371 -0.4261 -0.7841 -0.8506
  563MOL0     C75882   9.283  10.287   2.283 -0.3350  0.8191 -0.2883
  563MOL0     C75883   9.172  10.181   2.298 -0.4788  0.1967 -0.9351
  563MOL0     C75884   9.047  10.193   2.210 -1.0164  0.4227 -0.4538
  563MOL0     C75885   9.085  10.209   2.057 -0.3003 -0.8905 -0.0920
  563MOL0     C75886   9.161  10.085   2.000  0.4151 -0.1375  0.4874
  563MOL0     N75887   9.058   9.978   1.993 -0.2574 -0.1567 -0.2629
  563MOL0     C75888   8.952   9.981   1.914  1.0455 -0.3994 -0.3611
  563MOL0     C75889   8.877   9.871   1.947  0.0339  0.4084 -0.6644
  563MOL0     C75890   8.758   9.835   1.872 -0.5762 -0.3217  0.1378
  563MOL0     C75891   8.693   9.706   1.923  0.1481  0.2848 -0.1952
  563MOL0     C75892   8.571   9.683   1.828  0.4684 -0.1950 -0.7781
  563MOL0     C75893   8.485   9.581   1.904 -0.4486  0.1580  0.0103
  563MOL0     O75894   8.375   9.547   1.819  0.4531  0.5401 -0.8440
  563MOL0     C75895   8.257   9.499   1.878 -0.6921 -0.1798  0.3563
  563MOL0     C75896   8.268   9.398   1.969  0.1048 -0.5548  0.2286
  563MOL0     C75897   8.154   9.325   2.022 -0.3747 -0.4845 -0.5685
  563MOL0     C75898   8.186   9.224   2.126 -0.3178 -0.7040 -0.7557
  563MOL0     C75899   8.027   9.349   1.950  0.0361  0.2057 -0.1504
  563MOL0     C75900   7.909   9.252   1.963  0.7532  0.5007 -0.9509
  563MOL0     O75901   7.835   9.230   1.855 -0.0496  0.9195 -0.1983
  563MOL0     C75902   7.709   9.172   1.859 -0.2077 -0.0972  0.6457
  563MOL0     C75903   7.646   9.102   1.969  0.1955 -0.6546  0.1241
  563MOL0     C75904   7.509   9.050   1.947  0.2819 -0.1307  0.1697
  563MOL0     C75905   7.438   9.087   1.829 -0.6370 -0.2846 -0.7850
  563MOL0     O75906   7.312   9.055   1.808 -0.6115  0.1851 -0.4617
  563MOL0     C75907   7.217   9.023   1.902  0.4035  0.2979 -0.0899
  563MOL0     C75908   7.171   9.134   1.988  0.1774 -1.1045 -0.1647
  563MOL0     C75909   7.197   9.276   1.943 -0.0012 -0.3629  0.7921
  563MOL0     C75910   7.131   9.372   2.040  0.1260 -0.1103 -0.6664
  563MOL0     C75911   7.164   9.518   2.027 -1.4503  0.1092  0.5230
  563MOL0     C75912   7.054   9.615   2.082  0.0488  0.0889 -0.0509
  563MOL0     C75913   7.055   9.612   2.231  0.1461  0.3221 -0.8250
  563MOL0     C75914   6.979   9.723   2.301  0.9908 -0.0001  0.1787
  563MOL0    Cl75915   6.801   9.725   2.279 -0.4757  0.4132 -0.0781
  563MOL0     C75916   7.510   9.145   1.728  0.3824 -0.8602  0.0323
  563MOL0     C75917   7.639   9.187   1.741 -0.5875  0.2161  0.6480
  563MOL0     O75918   7.901   9.191   2.063  0.4622  0.0930 -0.5204
  563MOL0     C75919   8.016   9.456   1.861 -0.6350  0.2813 -0.0723
  563MOL0     C75920   8.136   9.534   1.826  0.0889  0.1391 -0.0819
  563MOL0     N75921   8.950   9.799   2.046  0.9743 -1.1081 -0.7397
  563MOL0     N75922   9.051   9.869   2.069 -0.3007  0.1173  0.6240
  563MOL0     C75923   9.903  10.068   2.454  0.1970  0.8614 -0.8496
  563MOL0     C75924  10.042  10.047   2.475  0.3263 -1.0006  0.1243
  563MOL0     C75925  10.460  10.090   2.694 -0.4702 -0.0642  0.1544
  563MOL0     C75926  10.487   9.986   2.603  0.0556  0.3477  0.1107
  563MOL0     C75927  10.613   9.919   2.604  0.1307  0.7370  0.4420
  563MOL0     C75928  10.707   9.965   2.695 -0.9240  0.2668 -0.0658
  563MOL0     O75929  10.828   9.905   2.698  0.1234 -0.2024 -0.4582
  563MOL0     C75930  10.935   9.986   2.750  0.3794  0.0845 -0.2506
  563MOL0     C75931  11.068   9.921   2.705 -0.4757 -0.3844  1.1103
  563MOL0     C75932  11.131  10.024   2.611  0.1335 -0.0841 -0.2011
  563MOL0     C75933  11.267   9.977   2.552  1.1311  0.1756  0.1295
  563MOL0     C75934  11.314  10.098   2.483 -0.2440 -0.1009 -1.3414
  563MOL0     C75935  11.352  10.202   2.438 -0.4215 -0.0553  0.5473
  563MOL0     C75936  10.681  10.075   2.787 -0.1787 -0.2221 -0.2408
  563MOL0     C75937  10.556  10.135   2.787 -0.3550 -1.1396 -0.2146
  563MOL0     H75938  10.100  10.338   2.641 -0.9420  2.0387 -1.2007
  563MOL0     H75939   9.869  10.375   2.574 -0.2674 -0.7688 -0.6230
  563MOL0     H75940   9.604  10.370   2.547 -0.2807 -1.3967  0.6963
  563MOL0     H75941   9.725  10.392   2.416 -0.9181  0.3327 -1.6997
  563MOL0     H75942   9.482  10.442   2.359 -1.5746 -0.1821  1.2541
  563MOL0     H75943   9.554  10.323   2.243  2.5404 -1.4029  0.3696
  563MOL0     H75944   9.436  10.150   2.352 -0.3178 -0.5914 -1.7455
  563MOL0     H75945   9.372  10.260   2.476 -2.1658  1.2374 -1.4205
  563MOL0     H75946   9.245  10.387   2.310 -0.3381  0.1483  2.4532
  563MOL0     H75947   9.320  10.279   2.181  2.3522 -1.7275  0.7532
  563MOL0     H75948   9.231  10.089   2.288 -2.5324 -1.0844 -1.7154
  563MOL0     H75949   9.131  10.176   2.400  3.3174 -0.3803  0.7613
  563MOL0     H75950   8.987  10.105   2.230  0.2144 -1.1162 -3.0408
  563MOL0     H75951   8.999  10.286   2.242 -0.4442  0.9712 -1.1558
  563MOL0     H75952   8.996  10.233   1.998  0.5290  1.6190 -0.4359
  563MOL0     H75953   9.146  10.299   2.052 -2.2617  0.5514  0.3982
  563MOL0     H75954   9.247  10.052   2.060  0.8581 -0.8293 -0.4919
  563MOL0     H75955   9.201  10.105   1.900 -0.8034 -0.0710  0.0036
  563MOL0     H75956   8.930  10.052   1.835  0.7571 -1.5119 -1.3056
  563MOL0     H75957   8.696   9.925   1.878  1.9334  1.4161  2.0375
  563MOL0     H75958   8.782   9.815   1.767  0.6131  2.3853 -0.1834
  563MOL0     H75959   8.665   9.700   2.028 -0.9844 -2.4864 -0.5563
  563MOL0     H75960   8.752   9.616   1.903 -2.7827 -2.2528  1.6511
  563MOL0     H75961   8.620   9.642   1.739  2.0759  3.0273 -1.5354
  563MOL0     H75962   8.518   9.773   1.795 -2.0670 -2.2081 -2.6348
  563MOL0     H75963   8.436   9.632   1.988 -1.0103  2.4655 -1.6320
  563MOL0     H75964   8.545   9.498   1.943 -1.3516 -0.4605  0.1024
  563MOL0     H75965   8.371   9.377   1.996  0.4846 -0.0030 -0.7327
  563MOL0     H75966   8.180   9.123   2.083 -3.0814 -0.4747 -1.0746
  563MOL0     H75967   8.285   9.238   2.169  0.4814 -0.1184 -2.6657
  563MOL0     H75968   8.106   9.240   2.198  0.4127 -0.4144  0.0063
  563MOL0     H75969   7.696   9.087   2.063  0.7383 -0.5932 -0.1535
  563MOL0     H75970   7.459   9.010   2.035  2.1669 -1.4535  0.6918
  563MOL0     H75971   7.125   8.990   1.853  0.7863 -0.4444 -0.3404
  563MOL0     H75972   7.254   8.935   1.955 -1.9010 -0.4027  0.4448
  563MOL0     H75973   7.069   9.113   2.018  0.7969 -0.0876  2.9765
  563MOL0     H75974   7.234   9.127   2.077  0.4631 -3.0592 -0.4598
  563MOL0     H75975   7.141   9.291   1.850 -1.6910  0.2640  1.8576
  563MOL0     H75976   7.303   9.291   1.923 -0.4591  0.3926 -1.2896
  563MOL0     H75977   7.025   9.353   2.020  0.0996 -2.6302  1.4217
  563MOL0     H75978   7.153   9.346   2.144  2.2116  2.3209 -0.4051
  563MOL0     H75979   7.167   9.538   1.919  1.2056  0.4686  0.5988
  563MOL0     H75980   7.265   9.538   2.063 -0.9165 -0.3330 -0.6692
  563MOL0     H75981   7.087   9.713   2.046  0.4771  0.1039  0.3686
  563MOL0     H75982   6.959   9.587   2.036 -1.0922  2.6604  0.5717
  563MOL0     H75983   7.160   9.626   2.257 -0.0544  0.1110  0.1177
  563MOL0     H75984   7.031   9.510   2.261  3.4866 -0.7600 -1.4613
  563MOL0     H75985   7.024   9.815   2.262  0.1729  1.1100  1.7101
  563MOL0     H75986   7.008   9.724   2.407 -0.1179 -0.8708  0.5116
  563MOL0     H75987   7.466   9.179   1.635  2.6896  1.2553 -0.3881
  563MOL0     H75988   7.685   9.230   1.653 -2.3222  0.4652 -0.1800
  563MOL0     H75989   7.930   9.478   1.799  0.4876  0.1853 -1.7259
  563MOL0     H75990   8.145   9.617   1.757  2.7438  0.4105  0.4812
  563MOL0     H75991   9.841   9.995   2.404  1.0940 -0.7429  0.2498
  563MOL0     H75992  10.101   9.964   2.439  2.6291  0.3375  0.6170
  563MOL0     H75993  10.415   9.967   2.525  0.9148 -1.2167 -0.3346
  563MOL0     H75994  10.631   9.837   2.535  0.3466  0.0559  1.2847
  563MOL0     H75995  10.937  10.091   2.720 -0.3092  0.3942  0.7479
  563MOL0     H75996  10.931   9.999   2.859 -3.7335  2.5033 -0.5068
  563MOL0     H75997  11.055   9.835   2.639 -0.2570  0.4822 -0.1014
  563MOL0     H75998  11.138   9.896   2.785  3.5968 -0.2664 -2.0592
  563MOL0     H75999  11.146  10.114   2.671 -0.7115  0.4532 -0.7676
  563MOL0     H76000  11.058  10.045   2.532  0.0652  0.2211 -0.0564
  563MOL0     H76001  11.252   9.890   2.488  1.9941 -2.1181  2.8684
  563MOL0     H76002  11.334   9.943   2.631 -0.1254  1.5058  1.8296
  563MOL0     H76003  11.392  10.296   2.404  1.7879 -1.5386 -1.2079
  563MOL0     H76004  10.750  10.119   2.858 -0.0163  3.1834 -2.2806
  563MOL0     H76005  10.530  10.220   2.848  0.1003  0.5892 -2.3193
  564MOL0     O76006   4.688   6.513   2.822  0.3106 -0.3771 -0.0132
  564MOL0     C76007   4.754   6.597   2.885 -0.2090  0.7258  0.0968
  564MOL0     O76008   4.707   6.690   2.973 -0.0781 -0.0662  0.6899
  564MOL0     C76009   4.584   6.674   3.012  0.5600  1.0315  0.2757
  564MOL0     C76010   4.558   6.592   3.122 -0.3279 -0.3054 -0.5713
  564MOL0     C76011   4.424   6.579   3.172  0.1885 -0.3820 -0.3343
  564MOL0     C76012   4.313   6.630   3.098 -0.1505 -0.0873  0.1559
  564MOL0     O76013   4.188   6.591   3.130  0.8223 -0.5147 -1.0046
  564MOL0     C76014   4.152   6.518   3.251 -0.5711 -1.0772  0.4647
  564MOL0     C76015   3.999   6.497   3.254  0.2473 -0.6698  0.3658
  564MOL0     C76016   3.924   6.627   3.296 -0.6432 -0.1800  0.1468
  564MOL0     C76017   3.901   6.638   3.442 -0.2594  0.1257  0.9124
  564MOL0     C76018   3.808   6.751   3.474  0.4086  1.0617 -0.1679
  564MOL0     C76019   3.665   6.720   3.469 -0.1404 -0.4121  1.0492
  564MOL0     C76020   3.572   6.826   3.533 -0.6308  0.1386  0.4286
  564MOL0     C76021   3.422   6.811   3.489 -1.0384 -0.1649  0.3402
  564MOL0     N76022   3.366   6.685   3.546  0.1550  0.1136  0.8459
  564MOL0     C76023   3.350   6.563   3.475 -0.6820  0.3820  0.5720
  564MOL0     C76024   3.279   6.485   3.564  0.2572 -0.1999 -0.0537
  564MOL0     C76025   3.246   6.343   3.523 -0.3749 -0.1947 -0.6195
  564MOL0     C76026   3.097   6.304   3.501  0.8311  0.1685 -0.2584
  564MOL0     C76027   3.006   6.335   3.622 -0.6723 -0.5147  0.3193
  564MOL0     C76028   3.038   6.279   3.758  0.0705 -0.0792  0.0405
  564MOL0     O76029   3.049   6.141   3.747 -0.2838 -0.3422 -0.3923
  564MOL0     C76030   2.944   6.065   3.792  0.7748  0.1398  0.2363
  564MOL0     C76031   2.975   5.930   3.845 -0.9618  0.7044  0.0711
  564MOL0     C76032   2.878   5.853   3.911  0.5540 -1.2807  0.1649
  564MOL0     C76033   2.918   5.727   3.969  0.2479  0.5967  0.4766
  564MOL0     C76034   2.739   5.895   3.910 -0.8941  0.1678  0.7077
  564MOL0     C76035   2.616   5.821   3.952 -0.5728  0.1290  0.2745
  564MOL0     O76036   2.500   5.837   3.880  0.2424 -0.6007 -0.0653
  564MOL0     C76037   2.370   5.791   3.915 -0.1836  0.5089  0.1946
  564MOL0     C76038   2.261   5.850   3.851  0.7010 -0.4730 -0.3172
  564MOL0     C76039   2.130   5.809   3.881  0.0715  0.1879  0.1558
  564MOL0     C76040   2.106   5.713   3.977  0.4467  0.3307 -0.4462
  564MOL0     O76041   1.968   5.688   3.998 -0.1558  0.4547 -0.1248
  564MOL0     C76042   1.935   5.641   4.133 -0.2263 -0.2292  0.5921
  564MOL0     C76043   1.778   5.652   4.153 -0.7962  0.4087  0.8129
  564MOL0     C76044   1.756   5.654   4.301  1.1496 -0.4612 -0.2128
  564MOL0     C76045   1.601   5.664   4.328 -0.7346 -1.0401 -0.1617
  564MOL0     C76046   1.532   5.801   4.280  0.2438 -1.0578  0.6519
  564MOL0     C76047   1.387   5.802   4.334  0.2268  0.4154  0.2069
  564MOL0     C76048   1.326   5.944   4.329  0.4501 -0.7248  0.8654
  564MOL0     C76049   1.233   5.980   4.443  0.3861 -0.7597 -0.3357
  564MOL0    Cl76050   1.196   6.167   4.440 -0.2899 -0.2220 -0.0728
  564MOL0     C76051   2.214   5.653   4.037 -0.3410  0.3167  0.3029
  564MOL0     C76052   2.346   5.690   4.008 -0.1925  0.2311  0.5427
  564MOL0     O76053   2.630   5.754   4.050 -0.1834  0.4465 -0.3201
  564MOL0     C76054   2.707   6.018   3.845 -0.7826 -0.1924  0.0545
  564MOL0     C76055   2.806   6.106   3.797 -0.5447  0.4396 -0.7344
  564MOL0     N76056   3.246   6.559   3.676  0.2301 -0.2524  0.7844
  564MOL0     N76057   3.293   6.680   3.668  0.7068 -0.0429  0.3098
  564MOL0     C76058   4.351   6.710   2.992  0.4176 -0.1407  0.2239
  564MOL0     C76059   4.478   6.740   2.944 -0.3213 -0.4842 -0.2468
  564MOL0     C76060   4.895   6.614   2.850  0.3458  0.8201  0.1933
  564MOL0     C76061   4.962   6.534   2.752 -0.1248 -0.3509 -0.4115
  564MOL0     C76062   5.085   6.579   2.700  0.8792 -0.6143 -1.0562
  564MOL0     C76063   5.154   6.692   2.740 -0.0497  0.1041 -0.9606
  564MOL0     O76064   5.270   6.716   2.670  0.1559 -0.3388 -1.1660
  564MOL0     C76065   5.366   6.806   2.734  0.7584  0.4896 -0.2106
  564MOL0     C76066   5.349   6.953   2.706  0.1917 -0.0842 -0.4117
  564MOL0     C76067   5.472   7.048   2.694  0.6962  0.9307 -0.9793
  564MOL0     C76068   5.562   7.012   2.574 -0.6055 -0.4099 -0.1524
  564MOL0     C76069   5.667   6.925   2.619 -0.6653  0.0390 -0.5075
  564MOL0     C76070   5.770   6.871   2.661  0.5170  0.3236  0.4280
  564MOL0     C76071   5.093   6.767   2.848  0.3130  0.6355  0.0887
  564MOL0     C76072   4.974   6.725   2.908  0.5083  0.7861 -0.3001
  564MOL0     H76073   4.648   6.558   3.173 -0.4500  0.8747  0.4877
  564MOL0     H76074   4.397   6.511   3.252 -0.3336 -1.7133 -1.5816
  564MOL0     H76075   4.201   6.420   3.241 -0.4029 -1.1038  1.4808
  564MOL0     H76076   4.177   6.570   3.344 -1.1184  0.1725 -0.0690
  564MOL0     H76077   3.968   6.473   3.152  0.4112  0.7992 -0.0622
  564MOL0     H76078   3.957   6.416   3.313  1.3772 -0.5917  1.3194
  564MOL0     H76079   3.991   6.705   3.259  0.9963  0.0541  3.2849
  564MOL0     H76080   3.822   6.628   3.257 -0.6157  0.9827  0.0689
  564MOL0     H76081   3.859   6.548   3.488  0.5688 -2.7451 -3.3317
  564MOL0     H76082   3.998   6.664   3.486  0.7878 -0.5487 -0.8837
  564MOL0     H76083   3.832   6.778   3.578  0.1067 -1.1131  0.5130
  564MOL0     H76084   3.836   6.833   3.407  0.3209  1.5947  0.4360
  564MOL0     H76085   3.626   6.714   3.367  0.6423  0.7586  0.6609
  564MOL0     H76086   3.658   6.627   3.525 -0.1775 -1.5748 -0.8167
  564MOL0     H76087   3.590   6.831   3.640 -0.7307 -3.1722  0.7263
  564MOL0     H76088   3.603   6.920   3.486 -4.0892  1.5331  0.6314
  564MOL0     H76089   3.411   6.813   3.380 -1.9440 -2.7985  0.3156
  564MOL0     H76090   3.366   6.894   3.533 -0.1298 -0.4186  2.0843
  564MOL0     H76091   3.377   6.533   3.374 -0.3742 -1.7261  1.2337
  564MOL0     H76092   3.302   6.325   3.431  0.2959 -1.7842  0.0555
  564MOL0     H76093   3.277   6.270   3.599  0.1166 -0.4433 -1.0540
  564MOL0     H76094   3.084   6.198   3.476  5.1078 -0.5018 -0.2806
  564MOL0     H76095   3.065   6.360   3.412  1.8906 -1.0087 -1.4382
  564MOL0     H76096   2.902   6.304   3.607 -0.8673  0.4943 -0.5886
  564MOL0     H76097   3.010   6.443   3.633 -4.0212 -0.2707  0.1377
  564MOL0     H76098   2.971   6.312   3.838  1.8873  0.0763  1.5788
  564MOL0     H76099   3.134   6.319   3.793 -0.6812  2.7046 -0.8237
  564MOL0     H76100   3.079   5.898   3.849 -0.6962  1.6930  1.8277
  564MOL0     H76101   2.834   5.659   3.957  0.7203  0.3349 -1.7598
  564MOL0     H76102   3.000   5.680   3.913 -1.3384 -4.0687  1.6545
  564MOL0     H76103   2.947   5.744   4.073  1.7115 -1.9358  0.5822
  564MOL0     H76104   2.283   5.934   3.786 -0.4648  2.4685  2.8111
  564MOL0     H76105   2.044   5.851   3.831 -1.5667 -0.4912  2.2272
  564MOL0     H76106   1.973   5.539   4.147 -1.3386 -0.8728 -0.8261
  564MOL0     H76107   1.985   5.700   4.210  1.1620  1.2685 -1.3508
  564MOL0     H76108   1.745   5.745   4.107 -1.0191  1.1605  2.4080
  564MOL0     H76109   1.718   5.570   4.114  0.0510 -0.2689  0.9081
  564MOL0     H76110   1.798   5.748   4.338  0.5716  0.6073 -2.1156
  564MOL0     H76111   1.799   5.571   4.357  1.5027  0.0438  0.2760
  564MOL0     H76112   1.553   5.580   4.277 -2.0154 -0.8178  0.6369
  564MOL0     H76113   1.572   5.652   4.433 -2.2987  0.2573 -0.4021
  564MOL0     H76114   1.526   5.805   4.171  0.1681 -4.2626  0.4553
  564MOL0     H76115   1.579   5.888   4.326 -1.7337  0.7565 -0.5420
  564MOL0     H76116   1.320   5.730   4.285  1.2428 -1.3177  1.2959
  564MOL0     H76117   1.393   5.765   4.436  0.0689 -1.1890 -0.3329
  564MOL0     H76118   1.270   5.951   4.236 -2.4851 -2.7994  2.2978
  564MOL0     H76119   1.401   6.023   4.316 -1.4454  0.8725 -1.1715
  564MOL0     H76120   1.282   5.939   4.531  0.8269 -0.0282 -0.2291
  564MOL0     H76121   1.135   5.931   4.433  0.7753 -2.1978  2.1084
  564MOL0     H76122   2.202   5.574   4.110 -0.6506  0.4419  0.3880
  564MOL0     H76123   2.429   5.640   4.057 -1.9140 -3.1343  0.3542
  564MOL0     H76124   2.605   6.054   3.848  0.3175  3.3410 -0.8234
  564MOL0     H76125   2.791   6.201   3.747 -1.2560  0.1774 -1.0341
  564MOL0     H76126   4.261   6.754   2.950 -0.0274 -1.2186  0.0033
  564MOL0     H76127   4.505   6.816   2.871 -3.6596  2.0733  0.9294
  564MOL0     H76128   4.920   6.445   2.707  0.4386  0.6112 -3.0236
  564MOL0     H76129   5.136   6.528   2.619  2.8324  3.9021 -3.0154
  564MOL0     H76130   5.368   6.778   2.839 -0.7693 -0.8487 -0.4842
  564MOL0     H76131   5.461   6.774   2.691  0.0247 -1.4820 -0.5150
  564MOL0     H76132   5.281   6.992   2.783 -0.5951 -0.0200 -1.1334
  564MOL0     H76133   5.291   6.957   2.614 -2.1381  0.3467  0.9697
  564MOL0     H76134   5.529   7.043   2.788 -3.5704 -0.1871  1.8429
  564MOL0     H76135   5.429   7.149   2.695 -0.8128  0.4539  2.9112
  564MOL0     H76136   5.611   7.104   2.541  0.3478 -0.7660  0.2541
  564MOL0     H76137   5.494   6.983   2.493 -2.9520  1.4877  1.0029
  564MOL0     H76138   5.857   6.818   2.696  0.6940 -0.2972 -0.8810
  564MOL0     H76139   5.141   6.859   2.878 -1.6302  1.8158 -0.2553
  564MOL0     H76140   4.941   6.787   2.991  1.0123  0.5684  0.0687
  565MOL0     O76141   3.125   2.987   6.882  0.8713 -0.6653 -0.1467
  565MOL0     C76142   3.037   3.038   6.950 -0.1598  0.5823  0.1550
  565MOL0     O76143   2.923   3.092   6.899 -0.4746  0.0845  0.3553
  565MOL0     C76144   2.853   3.060   6.788  0.1307  0.3201  0.3809
  565MOL0     C76145   2.736   3.130   6.756  0.3367  0.1067  0.0604
  565MOL0     C76146   2.661   3.097   6.643  0.9896 -0.3885  0.7539
  565MOL0     C76147   2.688   2.979   6.571  0.1957  0.8460 -0.5325
  565MOL0     O76148   2.590   2.930   6.485 -0.2118  0.9614  0.1691
  565MOL0     C76149   2.600   2.794   6.442  0.6097 -0.5651  0.2058
  565MOL0     C76150   2.472   2.751   6.366  0.0804 -0.7071  0.5750
  565MOL0     C76151   2.346   2.766   6.445  0.2129  0.0160 -0.2470
  565MOL0     C76152   2.229   2.691   6.387 -0.6825  0.3741 -1.3524
  565MOL0     C76153   2.093   2.734   6.452 -0.0224 -0.1209 -0.4137
  565MOL0     C76154   1.973   2.645   6.406  0.0424  0.5838  0.3898
  565MOL0     C76155   1.849   2.707   6.468  0.0915  0.1132  0.5545
  565MOL0     C76156   1.725   2.616   6.455  0.6259 -0.6563  0.8184
  565MOL0     N76157   1.615   2.666   6.369 -0.1726  0.4327 -0.2876
  565MOL0     C76158   1.564   2.787   6.384 -0.5791  0.0451 -0.3154
  565MOL0     C76159   1.454   2.789   6.304 -0.2697  0.7382 -0.3120
  565MOL0     C76160   1.364   2.909   6.299 -0.7672 -0.3259 -0.6136
  565MOL0     C76161   1.249   2.906   6.408 -0.1658 -0.0867  0.3786
  565MOL0     C76162   1.198   3.050   6.418 -0.7664 -0.1073 -0.6002
  565MOL0     C76163   1.078   3.064   6.518  0.2893  0.4170 -0.2053
  565MOL0     O76164   0.970   2.985   6.472 -0.3345  0.4722 -0.0094
  565MOL0     C76165   0.868   2.966   6.554  0.2253 -0.0038 -0.2388
  565MOL0     C76166   0.810   2.840   6.552 -0.1274 -0.5812 -0.2236
  565MOL0     C76167   0.691   2.804   6.622 -0.7465 -0.0264  0.3893
  565MOL0     C76168   0.633   2.662   6.603 -0.2762 -0.4504  0.3728
  565MOL0     C76169   0.637   2.903   6.704  0.2243  0.0073 -0.2276
  565MOL0     C76170   0.511   2.872   6.781  0.2824 -0.5058 -0.0332
  565MOL0     O76171   0.406   2.972   6.771  0.1132  0.2680  0.1699
  565MOL0     C76172   0.302   2.969   6.855  0.0833  0.3113  0.7974
  565MOL0     C76173   0.231   2.861   6.895  0.9299 -0.6416 -0.5367
  565MOL0     C76174   0.125   2.868   6.987 -0.7875  0.3441 -0.3380
  565MOL0     C76175   0.070   2.991   7.027  0.5921 -0.0130 -1.2448
  565MOL0     O76176  -0.040   3.013   7.111 -0.4260  0.0732  0.0963
  565MOL0     C76177  -0.054   2.919   7.218 -0.6292 -0.2001  0.3290
  565MOL0     C76178  -0.167   2.935   7.321  0.6792 -0.3364  0.2191
  565MOL0     C76179  -0.149   3.061   7.416 -0.1169 -0.3950 -0.6784
  565MOL0     C76180  -0.234   3.188   7.386  0.1441  0.0266  0.2230
  565MOL0     C76181  -0.227   3.299   7.487 -0.3139 -0.5869  0.7342
  565MOL0     C76182  -0.285   3.430   7.418 -0.2264  0.2468  0.9014
  565MOL0     C76183  -0.435   3.422   7.390  0.6780  0.2550  0.0304
  565MOL0     C76184  -0.488   3.562   7.386 -0.2857 -0.9886  0.6304
  565MOL0    Cl76185  -0.475   3.652   7.533 -0.0297 -0.3169 -0.4231
  565MOL0     C76186   0.139   3.107   6.987 -0.4609 -0.6994 -0.7362
  565MOL0     C76187   0.258   3.095   6.902  0.3285 -0.5088 -0.8745
  565MOL0     O76188   0.511   2.774   6.848 -0.2365  0.1213  0.3737
  565MOL0     C76189   0.698   3.028   6.711 -0.4639  0.4796  0.0387
  565MOL0     C76190   0.806   3.065   6.635 -0.7575  0.0652 -0.6275
  565MOL0     N76191   1.449   2.668   6.233 -0.5914  0.0976  0.5798
  565MOL0     N76192   1.541   2.587   6.285 -0.5731 -0.5080  0.4172
  565MOL0     C76193   2.810   2.910   6.605  0.4792 -0.0561 -1.4192
  565MOL0     C76194   2.892   2.957   6.704 -0.6084 -0.0642  0.7879
  565MOL0     C76195   3.054   3.027   7.095 -0.6121  0.3007  0.2560
  565MOL0     C76196   3.170   2.969   7.155 -0.0026 -0.6342 -0.3136
  565MOL0     C76197   3.163   2.957   7.295 -0.7496  0.4187  0.2114
  565MOL0     C76198   3.064   3.005   7.373  1.2167  0.1462  0.9321
  565MOL0     O76199   3.081   2.978   7.500 -0.2592  0.1810  0.2896
  565MOL0     C76200   2.990   3.044   7.588 -0.4357 -0.0072 -0.1760
  565MOL0     C76201   3.048   3.180   7.627 -0.0909 -0.2038  0.5532
  565MOL0     C76202   2.957   3.239   7.733  0.5002 -0.7042 -0.1333
  565MOL0     C76203   2.989   3.380   7.778 -0.8594 -0.2017  0.0899
  565MOL0     C76204   3.128   3.400   7.823 -0.5502 -0.6713  0.4077
  565MOL0     C76205   3.250   3.410   7.858 -0.0849 -0.6651  0.2486
  565MOL0     C76206   2.953   3.069   7.309  0.0614  0.0971 -0.2800
  565MOL0     C76207   2.948   3.077   7.171 -0.4763 -1.2229  0.3597
  565MOL0     H76208   2.703   3.218   6.809 -1.8253 -0.4148 -0.3294
  565MOL0     H76209   2.584   3.172   6.627  2.9407  1.6832  0.5646
  565MOL0     H76210   2.691   2.781   6.383 -1.0645  1.5375 -3.2162
  565MOL0     H76211   2.604   2.727   6.528 -1.5565 -1.3717 -0.2511
  565MOL0     H76212   2.469   2.796   6.267  1.8204 -0.7500  0.4713
  565MOL0     H76213   2.481   2.643   6.352  2.6515 -0.5274  0.4716
  565MOL0     H76214   2.361   2.730   6.548  0.5425 -1.0290 -0.6489
  565MOL0     H76215   2.318   2.872   6.452 -1.2078 -0.3063 -0.7967
  565MOL0     H76216   2.223   2.713   6.280 -3.4199 -0.4222 -1.4525
  565MOL0     H76217   2.232   2.582   6.396  1.6323  0.5887  2.0656
  565MOL0     H76218   2.105   2.743   6.560 -1.5377 -0.5623 -0.1813
  565MOL0     H76219   2.080   2.839   6.423 -0.8654  0.4963  1.9841
  565MOL0     H76220   1.945   2.638   6.301 -0.6731  0.4856  0.5801
  565MOL0     H76221   1.990   2.544   6.447 -5.4442 -0.2936  1.2224
  565MOL0     H76222   1.864   2.744   6.570  0.0725 -2.2520  1.4916
  565MOL0     H76223   1.826   2.795   6.408 -2.1961 -1.4172 -0.9945
  565MOL0     H76224   1.673   2.614   6.551  0.2337 -0.2475  0.6173
  565MOL0     H76225   1.758   2.513   6.437 -2.4068 -1.5786 -0.0897
  565MOL0     H76226   1.610   2.871   6.434  4.5288 -0.5006 -3.4299
  565MOL0     H76227   1.421   3.003   6.294  3.5119 -2.7555 -2.7222
  565MOL0     H76228   1.319   2.918   6.200  2.1794  2.7583 -1.8631
  565MOL0     H76229   1.304   2.878   6.498 -0.0967 -0.0947  0.3338
  565MOL0     H76230   1.170   2.835   6.383 -0.1563 -0.6634  1.9212
  565MOL0     H76231   1.161   3.074   6.318  2.0426 -2.2360 -2.2988
  565MOL0     H76232   1.282   3.117   6.436  0.3447 -0.4822 -3.7486
  565MOL0     H76233   1.037   3.165   6.516 -2.2910 -0.5381  0.0215
  565MOL0     H76234   1.107   3.039   6.621  2.0879  0.2164 -0.7305
  565MOL0     H76235   0.861   2.755   6.507 -0.4155 -1.5797  1.2414
  565MOL0     H76236   0.643   2.602   6.694 -1.6144  0.1300  0.9288
  565MOL0     H76237   0.525   2.682   6.594  0.3395  3.4347  0.1255
  565MOL0     H76238   0.675   2.605   6.520  3.7422  2.0050  0.4782
  565MOL0     H76239   0.257   2.761   6.861  0.9095 -0.8659  0.1019
  565MOL0     H76240   0.077   2.776   7.019 -2.0071  0.6561 -1.2305
  565MOL0     H76241  -0.076   2.822   7.172 -2.4309  0.4627 -0.3211
  565MOL0     H76242   0.042   2.917   7.269 -0.7502  0.3889  0.5906
  565MOL0     H76243  -0.269   2.929   7.281  0.9400 -1.7707 -0.2860
  565MOL0     H76244  -0.162   2.845   7.382  2.1941  0.1665  0.8939
  565MOL0     H76245  -0.046   3.094   7.430 -0.1075 -0.9618  0.7497
  565MOL0     H76246  -0.179   3.021   7.513  0.4484 -0.0485 -0.3596
  565MOL0     H76247  -0.185   3.242   7.304 -0.2181  1.1756  0.7482
  565MOL0     H76248  -0.339   3.166   7.362  0.1529 -0.8863  0.9784
  565MOL0     H76249  -0.122   3.324   7.503  0.9099 -2.1203 -3.5072
  565MOL0     H76250  -0.272   3.285   7.586 -1.6536  1.4439  0.4725
  565MOL0     H76251  -0.259   3.522   7.472  0.1968  2.0079 -2.0584
  565MOL0     H76252  -0.225   3.433   7.326  0.4512 -1.6458  1.2426
  565MOL0     H76253  -0.484   3.371   7.473  0.8438 -0.1583 -0.1268
  565MOL0     H76254  -0.465   3.378   7.295  2.4666 -0.5330 -0.2185
  565MOL0     H76255  -0.592   3.544   7.357 -0.3954  1.3474 -0.7097
  565MOL0     H76256  -0.445   3.611   7.298 -0.9075 -0.7208  0.4691
  565MOL0     H76257   0.106   3.203   7.025 -0.9933 -1.0446 -0.3156
  565MOL0     H76258   0.315   3.185   6.884 -0.1474  0.6196  2.5916
  565MOL0     H76259   0.657   3.093   6.789  0.4897  0.6777  0.3874
  565MOL0     H76260   0.849   3.165   6.635  0.8392 -0.5541 -2.4625
  565MOL0     H76261   2.850   2.823   6.553  0.7379 -2.2088  2.0773
  565MOL0     H76262   2.986   2.903   6.708  0.9395  2.0829 -2.2902
  565MOL0     H76263   3.253   2.923   7.102 -0.0481 -0.8745 -0.1814
  565MOL0     H76264   3.252   2.911   7.338 -0.1889 -0.1796 -1.4762
  565MOL0     H76265   2.888   3.042   7.549 -0.3916  0.0237 -0.2927
  565MOL0     H76266   2.976   2.985   7.679  0.5379  1.4961  0.9952
  565MOL0     H76267   3.030   3.248   7.543 -0.9959  0.1349  1.0091
  565MOL0     H76268   3.153   3.172   7.656 -0.4831  1.0109  2.5075
  565MOL0     H76269   2.950   3.177   7.823 -3.6727  0.2442  0.4009
  565MOL0     H76270   2.855   3.244   7.695  1.0058 -0.4903 -1.5424
  565MOL0     H76271   2.921   3.398   7.862  1.3884 -1.3907  2.2929
  565MOL0     H76272   2.970   3.450   7.696  5.3529  0.6932 -1.0527
  565MOL0     H76273   3.348   3.421   7.899  0.1878 -1.0991 -0.2970
  565MOL0     H76274   2.876   3.113   7.372  2.6576  3.7839  0.6718
  565MOL0     H76275   2.863   3.131   7.131 -0.0186  0.5019  1.5711
  566MOL0     O76276   9.825   0.659   1.330 -0.1757  0.2159  0.2680
  566MOL0     C76277   9.881   0.739   1.249  0.5370  0.3409 -0.6043
  566MOL0     O76278   9.815   0.835   1.170 -0.1326  0.0870  0.4704
  566MOL0     C76279   9.680   0.870   1.168 -0.2222 -0.5291 -0.1655
  566MOL0     C76280   9.578   0.800   1.221  0.2797 -0.2627  0.4177
  566MOL0     C76281   9.448   0.836   1.203 -0.0145 -1.1647  0.6950
  566MOL0     C76282   9.415   0.958   1.149 -1.3336  0.1799  0.3804
  566MOL0     O76283   9.288   1.006   1.143  0.2092 -0.3236  0.8625
  566MOL0     C76284   9.182   0.921   1.188  0.2822 -0.7273  0.2498
  566MOL0     C76285   9.048   0.997   1.158 -0.1850 -0.1027 -0.1894
  566MOL0     C76286   8.919   0.916   1.198 -0.1933 -0.2293  0.2859
  566MOL0     C76287   8.793   1.003   1.165  0.4852  0.0050 -0.2206
  566MOL0     C76288   8.667   0.931   1.197 -0.7057 -0.0632  0.8496
  566MOL0     C76289   8.673   0.796   1.121 -0.2136 -0.9081  0.2560
  566MOL0     C76290   8.552   0.709   1.145  0.3929  0.3082  0.6334
  566MOL0     C76291   8.439   0.760   1.056 -0.0918 -0.6915  0.3372
  566MOL0     N76292   8.323   0.665   1.058  0.2142 -0.3745 -0.3944
  566MOL0     C76293   8.204   0.694   1.128  0.1891  1.1910  0.0617
  566MOL0     C76294   8.133   0.577   1.118  0.0540  0.0885  0.5896
  566MOL0     C76295   7.995   0.568   1.175  0.4727  0.9309 -0.2856
  566MOL0     C76296   7.962   0.451   1.275 -0.6907 -0.5072  0.1858
  566MOL0     C76297   8.021   0.468   1.414  0.1703  0.1228  0.2925
  566MOL0     C76298   8.175   0.476   1.414  0.1044  0.4680  0.1141
  566MOL0     O76299   8.216   0.496   1.550 -0.6668  0.1919  1.0156
  566MOL0     C76300   8.354   0.480   1.568  1.1375 -0.3066 -0.1735
  566MOL0     C76301   8.443   0.478   1.473 -0.4545  0.9948 -0.1275
  566MOL0     C76302   8.584   0.478   1.504  0.4937  0.5846 -0.3938
  566MOL0     C76303   8.678   0.490   1.390  0.0245  0.2285  0.0716
  566MOL0     C76304   8.623   0.478   1.637  0.1602 -0.2854  0.1725
  566MOL0     C76305   8.758   0.499   1.683 -0.4921 -0.4670  0.3200
  566MOL0     O76306   8.851   0.458   1.598 -0.0285 -0.3148  0.7022
  566MOL0     C76307   8.983   0.460   1.636 -0.6982 -0.5661 -0.8707
  566MOL0     C76308   9.030   0.352   1.711  0.6723  0.2709  0.1800
  566MOL0     C76309   9.152   0.369   1.783  0.6262 -0.2951  0.2403
  566MOL0     C76310   9.237   0.479   1.761 -0.4997 -0.1572 -0.0816
  566MOL0     O76311   9.363   0.491   1.822  0.2464  0.1756  0.6463
  566MOL0     C76312   9.394   0.599   1.913  0.6041  0.6809  0.2392
  566MOL0     C76313   9.436   0.520   2.035 -0.0290 -0.6206 -0.0915
  566MOL0     C76314   9.522   0.604   2.118 -1.2875  0.0657  0.0847
  566MOL0     C76315   9.548   0.533   2.245  0.2007 -0.0261  0.9715
  566MOL0     C76316   9.667   0.590   2.317  0.9177 -0.8798  0.5252
  566MOL0     C76317   9.683   0.516   2.444 -1.2718  0.3716 -0.3697
  566MOL0     C76318   9.801   0.589   2.513  0.4226 -0.0128  0.3506
  566MOL0     C76319   9.831   0.530   2.651  0.2965 -0.0492  0.8012
  566MOL0    Cl76320   9.863   0.354   2.632  0.2333  0.1936  0.0278
  566MOL0     C76321   9.191   0.584   1.685 -0.8692  0.6636  0.6597
  566MOL0     C76322   9.059   0.583   1.622  0.2446 -0.3907  0.7395
  566MOL0     O76323   8.784   0.532   1.794  0.3876  0.7169 -0.2384
  566MOL0     C76324   8.515   0.486   1.732  0.3719  0.0076 -0.0817
  566MOL0     C76325   8.382   0.477   1.702  0.2383 -0.1127  0.2627
  566MOL0     N76326   8.203   0.483   1.041 -0.7605  0.2336 -0.6427
  566MOL0     N76327   8.309   0.541   0.997  0.3732  0.4565  0.5364
  566MOL0     C76328   9.517   1.033   1.090 -0.7283 -0.1864  0.2337
  566MOL0     C76329   9.655   0.989   1.104  1.5593 -0.5958 -0.0681
  566MOL0     C76330  10.025   0.731   1.243  0.3091  0.4305  0.6177
  566MOL0     C76331  10.096   0.828   1.167  0.4973 -0.3366 -0.6398
  566MOL0     C76332  10.235   0.827   1.174 -0.0300  0.4358 -0.0046
  566MOL0     C76333  10.306   0.735   1.246  0.6679  0.5531  0.7740
  566MOL0     O76334  10.447   0.751   1.239 -0.4700 -0.0830 -0.0850
  566MOL0     C76335  10.533   0.651   1.293  1.1893  0.6943  0.9899
  566MOL0     C76336  10.675   0.672   1.244 -0.3555 -0.2869  0.1201
  566MOL0     C76337  10.733   0.808   1.286  1.3124 -0.3523 -0.7216
  566MOL0     C76338  10.739   0.824   1.435  0.1204  0.6308 -0.1529
  566MOL0     C76339  10.810   0.715   1.508 -0.4351  0.1434  0.0678
  566MOL0     C76340  10.882   0.632   1.561  0.4118 -0.1029 -0.5671
  566MOL0     C76341  10.231   0.627   1.305  0.7480  1.2093 -0.2551
  566MOL0     C76342  10.093   0.630   1.320 -0.5694  0.0218  0.0466
  566MOL0     H76343   9.595   0.700   1.261  3.1022 -0.5204 -1.1015
  566MOL0     H76344   9.371   0.764   1.227 -0.7797 -1.0045 -1.1084
  566MOL0     H76345   9.173   0.827   1.132 -2.3709  0.5710 -1.7970
  566MOL0     H76346   9.190   0.909   1.296  2.5042 -0.3688  0.1598
  566MOL0     H76347   9.053   1.099   1.198  2.9489  0.1565 -0.9796
  566MOL0     H76348   9.046   1.029   1.054  0.9884  0.7925  0.0431
  566MOL0     H76349   8.921   0.832   1.127  1.5612  1.1021 -1.3642
  566MOL0     H76350   8.919   0.868   1.296 -2.2971 -1.8843 -0.4552
  566MOL0     H76351   8.798   1.104   1.207 -1.6525 -0.4362  1.2850
  566MOL0     H76352   8.788   1.016   1.057 -2.8007 -3.5553 -0.7242
  566MOL0     H76353   8.665   0.905   1.303  1.5426 -0.9204  0.7244
  566MOL0     H76354   8.590   1.000   1.162  0.5184 -0.4021 -2.9854
  566MOL0     H76355   8.675   0.820   1.014 -1.8522  1.3190  0.6731
  566MOL0     H76356   8.753   0.735   1.165 -0.7949 -0.1720  2.3987
  566MOL0     H76357   8.571   0.606   1.114 -0.5874  0.4669 -0.5421
  566MOL0     H76358   8.519   0.705   1.249  0.2004 -2.8142  0.5440
  566MOL0     H76359   8.482   0.761   0.955  2.0933  3.2200  1.0890
  566MOL0     H76360   8.416   0.863   1.084  1.2370 -0.4723  0.6949
  566MOL0     H76361   8.167   0.783   1.178 -0.8637  0.2522  0.9851
  566MOL0     H76362   7.979   0.667   1.219  0.2514  1.1488 -0.8416
  566MOL0     H76363   7.921   0.557   1.095  0.1101  0.7686  0.0655
  566MOL0     H76364   8.008   0.361   1.235  3.2939  0.6926  1.5356
  566MOL0     H76365   7.853   0.440   1.283 -0.5492 -1.4629  1.0312
  566MOL0     H76366   7.994   0.377   1.469 -0.8054 -0.3486 -0.9076
  566MOL0     H76367   7.975   0.554   1.463  1.8833  0.8602  0.6851
  566MOL0     H76368   8.208   0.562   1.355  2.2276  0.6497  1.4745
  566MOL0     H76369   8.206   0.378   1.377 -2.0392  0.1195 -0.9212
  566MOL0     H76370   8.420   0.476   1.367 -2.9643  0.5605  0.3626
  566MOL0     H76371   8.626   0.479   1.295 -1.1533 -0.6814  0.7970
  566MOL0     H76372   8.716   0.592   1.382  1.2237 -0.1715  0.3707
  566MOL0     H76373   8.756   0.413   1.394 -0.3689 -0.2277 -0.7397
  566MOL0     H76374   8.975   0.260   1.729 -0.3280  0.4505 -1.7037
  566MOL0     H76375   9.179   0.294   1.857 -0.1825  1.1475  2.1015
  566MOL0     H76376   9.475   0.659   1.871  0.8511 -1.3764 -2.4809
  566MOL0     H76377   9.319   0.675   1.939  0.4897  0.4784  0.5181
  566MOL0     H76378   9.355   0.477   2.094  0.9508 -0.0689  1.7394
  566MOL0     H76379   9.502   0.441   1.998  1.6600 -0.9332  3.1767
  566MOL0     H76380   9.480   0.699   2.153 -1.1165 -0.3084  1.3739
  566MOL0     H76381   9.613   0.624   2.060 -0.4519  3.1691  2.2249
  566MOL0     H76382   9.455   0.547   2.301 -0.5070  0.8333 -0.3601
  566MOL0     H76383   9.565   0.425   2.237 -2.3411 -0.6009  2.1202
  566MOL0     H76384   9.654   0.699   2.325  0.0936 -0.9919  0.8612
  566MOL0     H76385   9.755   0.573   2.255  1.4738  0.2591  0.9830
  566MOL0     H76386   9.588   0.511   2.498 -0.7687 -1.1154  0.4381
  566MOL0     H76387   9.718   0.413   2.429  0.0506  0.6673  0.4662
  566MOL0     H76388   9.779   0.696   2.513 -0.0219 -0.0433 -2.1927
  566MOL0     H76389   9.892   0.566   2.458  0.5956  0.8180  0.2732
  566MOL0     H76390   9.757   0.553   2.729  0.9511  1.8785  0.9008
  566MOL0     H76391   9.914   0.582   2.700  1.8998 -0.9549 -0.8344
  566MOL0     H76392   9.262   0.664   1.664  0.8770 -1.1829 -0.8620
  566MOL0     H76393   9.016   0.671   1.575  1.9958 -0.6231 -1.4891
  566MOL0     H76394   8.540   0.510   1.835  4.8262  2.2891 -1.4290
  566MOL0     H76395   8.302   0.479   1.775 -0.3389  1.5006 -0.3811
  566MOL0     H76396   9.497   1.133   1.054 -0.7368 -0.6489 -1.0986
  566MOL0     H76397   9.721   1.055   1.049 -1.5874  2.0196 -1.0592
  566MOL0     H76398  10.040   0.910   1.123  0.1657 -0.5735 -0.6707
  566MOL0     H76399  10.281   0.919   1.140  2.6896 -0.2699  1.4268
  566MOL0     H76400  10.528   0.626   1.400 -2.2548  1.1968  1.0504
  566MOL0     H76401  10.493   0.563   1.241  0.7252  1.1034  0.6536
  566MOL0     H76402  10.672   0.670   1.135  1.4105  2.1242 -0.0537
  566MOL0     H76403  10.746   0.597   1.280 -1.3490  0.6232  4.5583
  566MOL0     H76404  10.665   0.887   1.251 -1.1093  1.0081  5.6612
  566MOL0     H76405  10.833   0.830   1.248 -0.0806  1.8105 -3.5569
  566MOL0     H76406  10.640   0.816   1.482 -0.2922 -0.5631 -1.1600
  566MOL0     H76407  10.786   0.921   1.453 -0.0170  1.3869 -3.3015
  566MOL0     H76408  10.940   0.552   1.602 -0.2211  1.1555  3.1412
  566MOL0     H76409  10.284   0.549   1.359  0.1821  1.4559  0.6916
  566MOL0     H76410  10.049   0.561   1.391 -4.6819  2.3371  0.0626
  567MOL0     O76411   7.515   4.641  10.504  0.1665  0.9748 -0.0844
  567MOL0     C76412   7.493   4.560  10.414 -0.2682 -0.8262 -0.5592
  567MOL0     O76413   7.589   4.489  10.350  0.3416  0.1219 -0.2217
  567MOL0     C76414   7.723   4.491  10.387  0.5349  0.7022  0.7439
  567MOL0     C76415   7.773   4.455  10.510  0.3924  0.5710 -0.3560
  567MOL0     C76416   7.905   4.471  10.541 -0.7077 -0.2172 -0.2401
  567MOL0     C76417   7.999   4.524  10.443 -0.4904 -0.1834 -0.5855
  567MOL0     O76418   8.130   4.541  10.472 -0.6902 -0.0000 -0.3553
  567MOL0     C76419   8.183   4.460  10.576 -0.7466 -0.4909  0.3284
  567MOL0     C76420   8.194   4.312  10.544 -0.4333  0.2106 -0.1420
  567MOL0     C76421   8.273   4.284  10.416  0.7058  0.2336 -0.2309
  567MOL0     C76422   8.272   4.134  10.365  0.0313  0.3466 -0.1007
  567MOL0     C76423   8.372   4.107  10.252 -0.3436  0.5336 -0.0320
  567MOL0     C76424   8.515   4.112  10.307 -0.2124  0.7016 -0.1449
  567MOL0     C76425   8.620   4.140  10.198 -0.3240 -0.7050  0.9033
  567MOL0     C76426   8.641   4.038  10.086 -1.1767  0.5012 -0.8001
  567MOL0     N76427   8.677   3.912  10.149 -0.0577  0.1015  0.1103
  567MOL0     C76428   8.610   3.795  10.142 -0.4803  0.5815  0.1244
  567MOL0     C76429   8.669   3.713  10.223 -0.4648  0.3434 -0.1222
  567MOL0     C76430   8.602   3.583  10.265  0.3707 -0.2831  0.1973
  567MOL0     C76431   8.536   3.612  10.402  0.4520 -0.0042 -0.3042
  567MOL0     C76432   8.422   3.514  10.431 -0.3028  0.5936  0.6504
  567MOL0     C76433   8.361   3.550  10.568 -0.8763  1.0660  0.5447
  567MOL0     O76434   8.280   3.667  10.543  0.1548 -0.4764  0.4609
  567MOL0     C76435   8.153   3.657  10.497 -0.0538 -0.1354 -0.7672
  567MOL0     C76436   8.078   3.773  10.484 -0.5849  0.3675  0.1534
  567MOL0     C76437   7.940   3.764  10.464  0.4593 -0.0791 -0.4336
  567MOL0     C76438   7.868   3.898  10.448 -0.3283 -1.1239 -0.4032
  567MOL0     C76439   7.873   3.638  10.449 -0.0911  0.4367  0.1918
  567MOL0     C76440   7.725   3.627  10.427  0.3185 -0.8152  0.4168
  567MOL0     O76441   7.651   3.737  10.387  1.0030 -0.5949  0.6738
  567MOL0     C76442   7.509   3.752  10.385 -0.2178  0.0095 -0.0469
  567MOL0     C76443   7.451   3.879  10.372  0.6459  0.7548  1.0667
  567MOL0     C76444   7.314   3.912  10.382  0.4302  0.2990  0.7359
  567MOL0     C76445   7.223   3.810  10.404 -0.0160  0.9456 -0.4424
  567MOL0     O76446   7.086   3.830  10.426 -0.0531  0.1921  0.4080
  567MOL0     C76447   7.037   3.958  10.447  0.3858  0.8666 -0.3330
  567MOL0     C76448   6.897   3.937  10.489  0.0800  0.6562 -0.0390
  567MOL0     C76449   6.830   4.072  10.516  0.1025  0.7125  0.6156
  567MOL0     C76450   6.691   4.057  10.490  0.4074  1.0292  0.2368
  567MOL0     C76451   6.623   4.194  10.463 -0.8503 -0.7174 -0.2026
  567MOL0     C76452   6.509   4.217  10.554  0.2736 -0.4404 -0.1590
  567MOL0     C76453   6.390   4.135  10.509 -0.0756 -0.0376  0.1503
  567MOL0     C76454   6.259   4.169  10.577  0.6800  0.2769  0.2026
  567MOL0    Cl76455   6.266   4.122  10.753  0.4740  0.3547  0.0169
  567MOL0     C76456   7.277   3.675  10.407  0.8919 -0.5584 -0.6355
  567MOL0     C76457   7.418   3.648  10.400  0.8457 -0.1169  0.9173
  567MOL0     O76458   7.675   3.517  10.449 -0.5037  1.1635 -0.3131
  567MOL0     C76459   7.954   3.527  10.457 -0.0865  0.3196  0.0758
  567MOL0     C76460   8.087   3.538  10.474 -0.3925 -0.0750  1.0171
  567MOL0     N76461   8.788   3.768  10.269  0.4550 -0.2864  0.1543
  567MOL0     N76462   8.795   3.887  10.221  1.0088 -0.5464  0.5266
  567MOL0     C76463   7.946   4.567  10.323 -0.1733 -0.1346 -0.1522
  567MOL0     C76464   7.812   4.539  10.290 -0.3300 -0.2723  0.4436
  567MOL0     C76465   7.358   4.529  10.375  0.4625 -0.0744 -0.2353
  567MOL0     C76466   7.343   4.420  10.282  0.5811  0.6410 -0.8717
  567MOL0     C76467   7.220   4.399  10.221 -0.2593  0.3828  0.0301
  567MOL0     C76468   7.106   4.472  10.263 -0.1831 -0.8181  0.1717
  567MOL0     O76469   6.980   4.459  10.211  0.2977 -0.1167  0.5049
  567MOL0     C76470   6.956   4.336  10.158  0.1181  0.4628  0.3414
  567MOL0     C76471   6.812   4.328  10.120 -0.2934  0.3176 -0.2381
  567MOL0     C76472   6.771   4.416  10.001 -0.2305  0.9139  0.2777
  567MOL0     C76473   6.627   4.402   9.938 -0.2548 -0.3518  0.2780
  567MOL0     C76474   6.517   4.404  10.042 -0.9606 -0.5846 -0.3435
  567MOL0     C76475   6.437   4.412  10.122  0.6341 -0.8428  0.8665
  567MOL0     C76476   7.116   4.574  10.366  0.1353 -0.6095  0.2947
  567MOL0     C76477   7.239   4.593  10.423 -0.0648 -0.1298  0.0751
  567MOL0     H76478   7.703   4.414  10.582  0.0628 -1.0835 -1.5730
  567MOL0     H76479   7.932   4.427  10.636 -0.8784 -2.9161 -1.3440
  567MOL0     H76480   8.281   4.501  10.604  0.0237 -0.6631 -1.9168
  567MOL0     H76481   8.132   4.481  10.670 -0.5414 -2.9972  1.0953
  567MOL0     H76482   8.235   4.256  10.628  1.6569 -0.1978 -1.3591
  567MOL0     H76483   8.094   4.274  10.521  0.4870 -2.9608  0.6274
  567MOL0     H76484   8.235   4.351  10.339  2.9903  3.4007  1.1591
  567MOL0     H76485   8.379   4.309  10.428  0.1272  2.8521 -0.0547
  567MOL0     H76486   8.301   4.064  10.444  0.9019  2.1644  1.2849
  567MOL0     H76487   8.177   4.101  10.324 -0.0565  1.0453 -0.4825
  567MOL0     H76488   8.364   4.002  10.223 -1.9415  0.2827  1.1916
  567MOL0     H76489   8.357   4.179  10.172  0.9732  1.1493  0.2424
  567MOL0     H76490   8.535   4.168  10.399 -0.3935 -0.5371  0.6671
  567MOL0     H76491   8.530   4.011  10.346  1.9702  1.4796  1.2531
  567MOL0     H76492   8.602   4.241  10.161  0.3465 -1.2669 -1.0403
  567MOL0     H76493   8.715   4.158  10.248  0.1519 -1.6479  0.3699
  567MOL0     H76494   8.721   4.075  10.021  0.3366 -0.2957  0.5301
  567MOL0     H76495   8.550   4.025  10.028 -0.0972 -1.8099 -2.1086
  567MOL0     H76496   8.507   3.779  10.111  0.4203 -1.0253 -2.2352
  567MOL0     H76497   8.528   3.555  10.190 -0.0412  1.3834 -0.0585
  567MOL0     H76498   8.676   3.505  10.283  0.1816 -0.0729  2.1550
  567MOL0     H76499   8.501   3.716  10.397  3.1542  0.9625 -1.0290
  567MOL0     H76500   8.613   3.610  10.479 -1.5226 -0.5687  1.7629
  567MOL0     H76501   8.464   3.413  10.435  1.9681  1.4832  0.8334
  567MOL0     H76502   8.344   3.510  10.354  0.5256 -2.3815 -0.1612
  567MOL0     H76503   8.439   3.581  10.637  0.7400  1.2243 -1.2809
  567MOL0     H76504   8.302   3.465  10.603 -0.7839  1.2752  1.2105
  567MOL0     H76505   8.110   3.876  10.502 -0.0572  0.2550 -0.1120
  567MOL0     H76506   7.843   3.912  10.342  1.1499 -0.2649 -0.6642
  567MOL0     H76507   7.781   3.892  10.515  0.3225 -2.1289  0.3868
  567MOL0     H76508   7.926   3.987  10.475 -0.3048 -1.5812  1.1625
  567MOL0     H76509   7.517   3.964  10.363  1.8771 -0.3707 -2.1558
  567MOL0     H76510   7.277   4.013  10.368  0.4650 -0.0014 -2.0916
  567MOL0     H76511   7.097   4.006  10.525  2.6514 -1.2295 -0.6459
  567MOL0     H76512   7.031   4.014  10.354 -0.2523  4.0161  1.4472
  567MOL0     H76513   6.853   3.872  10.412 -2.0970  1.1647  0.7013
  567MOL0     H76514   6.902   3.881  10.583 -0.3188  0.1328 -0.3207
  567MOL0     H76515   6.887   4.149  10.462  2.3459 -0.1804  1.6001
  567MOL0     H76516   6.841   4.099  10.622  0.1310  2.3152  0.2371
  567MOL0     H76517   6.656   3.990  10.410  1.5835  1.3887 -0.5923
  567MOL0     H76518   6.641   4.004  10.572 -0.2411 -0.4881 -1.0789
  567MOL0     H76519   6.589   4.204  10.359 -0.9075 -1.7887 -0.2942
  567MOL0     H76520   6.692   4.278  10.473 -3.1128  1.1586  0.7189
  567MOL0     H76521   6.546   4.181  10.650  2.2953 -2.1320 -1.4840
  567MOL0     H76522   6.480   4.323  10.558  0.1757 -0.4373 -0.7939
  567MOL0     H76523   6.409   4.028  10.515 -0.7822 -0.3971 -2.6143
  567MOL0     H76524   6.375   4.162  10.404 -3.1479 -1.2063  0.1951
  567MOL0     H76525   6.181   4.119  10.519  1.6555  1.8445 -2.6719
  567MOL0     H76526   6.247   4.277  10.563 -3.1555 -0.2492 -1.6420
  567MOL0     H76527   7.211   3.591  10.426  0.1024  0.0471 -0.6740
  567MOL0     H76528   7.443   3.543  10.399 -0.5424 -0.4639 -0.3155
  567MOL0     H76529   7.910   3.430  10.434  1.0547  0.3544 -2.6412
  567MOL0     H76530   8.150   3.453  10.454  3.9646  2.6120  1.9686
  567MOL0     H76531   8.018   4.618  10.260 -1.7227  2.3344 -0.0774
  567MOL0     H76532   7.775   4.562  10.190  0.5404  2.6168  0.6918
  567MOL0     H76533   7.434   4.376  10.243  1.4326  1.5030  0.0841
  567MOL0     H76534   7.221   4.330  10.138 -0.4050 -2.1494  1.9918
  567MOL0     H76535   7.015   4.315  10.069 -2.7804 -0.4885 -1.4863
  567MOL0     H76536   6.979   4.267  10.240 -0.4229 -0.4196 -0.2505
  567MOL0     H76537   6.747   4.359  10.203 -2.8529 -0.8476 -1.7059
  567MOL0     H76538   6.791   4.221  10.115 -1.6262  0.1747  3.9099
  567MOL0     H76539   6.842   4.397   9.921 -2.6711  1.0745 -2.0488
  567MOL0     H76540   6.787   4.521  10.029  0.0555  0.8932  0.1962
  567MOL0     H76541   6.625   4.311   9.877  1.1587  1.2916 -2.3651
  567MOL0     H76542   6.604   4.480   9.865 -0.2573 -0.5011  0.1191
  567MOL0     H76543   6.369   4.421  10.204  0.3233 -0.2753  0.5599
  567MOL0     H76544   7.021   4.618  10.393 -0.3195 -2.5715  2.1716
  567MOL0     H76545   7.250   4.656  10.511  1.4218  0.4008 -0.4574
  568MOL0     O76546   1.570   9.519   5.513 -0.1418 -0.1208  0.1814
  568MOL0     C76547   1.603   9.410   5.548 -0.4599  0.3118  0.4130
  568MOL0     O76548   1.515   9.318   5.592  0.2287 -0.1133 -0.1846
  568MOL0     C76549   1.380   9.345   5.593  0.9623 -0.5299 -0.1487
  568MOL0     C76550   1.308   9.290   5.698 -0.1161 -0.8994 -0.3153
  568MOL0     C76551   1.173   9.293   5.700 -0.1407  0.2383 -0.3519
  568MOL0     C76552   1.099   9.341   5.590  0.1690 -0.6724 -0.4186
  568MOL0     O76553   0.966   9.320   5.588 -0.4350 -1.0670 -0.1727
  568MOL0     C76554   0.900   9.274   5.472  0.3715 -0.0974 -0.3277
  568MOL0     C76555   0.765   9.224   5.527 -1.2556  0.7352 -0.6297
  568MOL0     C76556   0.669   9.331   5.496  0.6454  0.4345  1.3490
  568MOL0     C76557   0.523   9.274   5.519 -0.6401  0.8415 -0.3081
  568MOL0     C76558   0.408   9.382   5.508 -0.1674 -1.0379 -0.0666
  568MOL0     C76559   0.275   9.361   5.578 -0.7674  0.7786 -0.6613
  568MOL0     C76560   0.223   9.217   5.539  1.0765  0.1769  0.3451
  568MOL0     C76561   0.167   9.209   5.392  0.4347  0.2322  0.1949
  568MOL0     N76562   0.023   9.251   5.378  0.3943 -0.0848  0.7536
  568MOL0     C76563  -0.091   9.176   5.417  0.0154 -0.5610  0.5877
  568MOL0     C76564  -0.193   9.267   5.406  0.7987 -0.1491 -0.1503
  568MOL0     C76565  -0.336   9.235   5.427 -0.1998 -0.7590 -0.4203
  568MOL0     C76566  -0.420   9.369   5.418  1.0236 -1.1360 -0.0723
  568MOL0     C76567  -0.393   9.469   5.537  0.0914 -0.1698 -0.2875
  568MOL0     C76568  -0.515   9.559   5.570 -0.6478  0.5452  0.4906
  568MOL0     O76569  -0.616   9.466   5.610 -0.1272  0.2221 -0.5759
  568MOL0     C76570  -0.746   9.494   5.568 -0.2152  0.7058  0.2869
  568MOL0     C76571  -0.843   9.383   5.566  0.6175  0.0223  0.4398
  568MOL0     C76572  -0.975   9.400   5.513 -0.2463 -0.1491  0.1289
  568MOL0     C76573  -1.068   9.280   5.517  0.0556 -0.8196  0.0035
  568MOL0     C76574  -1.005   9.534   5.471 -0.4394 -0.8054  0.3580
  568MOL0     C76575  -1.135   9.562   5.413 -0.3880 -0.7681  0.1633
  568MOL0     O76576  -1.186   9.694   5.426  0.0199 -0.1240  0.3811
  568MOL0     C76577  -1.307   9.745   5.382  0.0325  0.3687 -0.8867
  568MOL0     C76578  -1.352   9.866   5.439  0.2411  0.8071  0.0888
  568MOL0     C76579  -1.473   9.921   5.395  0.3692 -0.4851 -0.6775
  568MOL0     C76580  -1.556   9.850   5.309  0.9309  0.0157 -0.9488
  568MOL0     O76581  -1.684   9.889   5.267  0.3924  0.1488 -0.9861
  568MOL0     C76582  -1.737  10.017   5.302  0.4241 -0.9713  0.1507
  568MOL0     C76583  -1.870  10.045   5.221  0.5112  0.5707  0.4961
  568MOL0     C76584  -1.948  10.151   5.282  0.3502 -0.1306  0.6100
  568MOL0     C76585  -2.078  10.176   5.208 -0.1914  0.7519  1.1834
  568MOL0     C76586  -2.146  10.312   5.245  0.1461 -0.1776 -0.3202
  568MOL0     C76587  -2.222  10.360   5.121  0.1170  0.2162  0.6793
  568MOL0     C76588  -2.312  10.480   5.157 -0.0789  0.3875 -0.5103
  568MOL0     C76589  -2.365  10.540   5.024 -0.6026  0.0862  0.9772
  568MOL0    Cl76590  -2.492  10.439   4.949  0.2934  0.2980 -0.2782
  568MOL0     C76591  -1.510   9.725   5.259 -0.2087 -0.0551  0.5300
  568MOL0     C76592  -1.391   9.677   5.292  0.4952  0.7656 -0.8719
  568MOL0     O76593  -1.198   9.468   5.361  0.1354 -0.5536  0.2415
  568MOL0     C76594  -0.914   9.632   5.478 -0.4962 -0.7232  0.4742
  568MOL0     C76595  -0.786   9.613   5.523  0.4362  0.1245 -0.0605
  568MOL0     N76596  -0.140   9.384   5.357 -0.1972 -0.3012  0.5229
  568MOL0     N76597  -0.017   9.380   5.340 -0.5672 -0.1321  0.2808
  568MOL0     C76598   1.167   9.400   5.475 -0.6127 -0.4596  0.1103
  568MOL0     C76599   1.311   9.392   5.479 -0.2746  0.1911  0.5402
  568MOL0     C76600   1.747   9.379   5.534 -0.5041  0.6224  1.0730
  568MOL0     C76601   1.774   9.244   5.495  1.0526 -0.3561 -0.2716
  568MOL0     C76602   1.916   9.215   5.474  0.1004 -0.1749  1.4734
  568MOL0     C76603   2.007   9.314   5.473  0.6902 -0.3212  0.0147
  568MOL0     O76604   2.125   9.281   5.420  0.3019 -0.1361  0.7103
  568MOL0     C76605   2.210   9.196   5.488  0.5228  1.0840 -0.3227
  568MOL0     C76606   2.360   9.196   5.456  1.2437  0.3252 -0.5960
  568MOL0     C76607   2.421   9.057   5.497 -0.0478  0.9486  0.2032
  568MOL0     C76608   2.574   9.069   5.460  0.3088  0.0938  0.2192
  568MOL0     C76609   2.648   9.170   5.540 -0.9948  1.1162 -0.7710
  568MOL0     C76610   2.700   9.245   5.616 -0.6483 -0.2721  0.1589
  568MOL0     C76611   1.971   9.445   5.502 -0.3746  0.0171  0.3376
  568MOL0     C76612   1.835   9.486   5.528 -0.1900 -0.3320 -0.9188
  568MOL0     H76613   1.365   9.261   5.785  0.2514  1.0074  0.1227
  568MOL0     H76614   1.123   9.251   5.786 -0.2440  2.2340  0.6214
  568MOL0     H76615   0.890   9.344   5.388 -0.4704 -1.5094 -1.4583
  568MOL0     H76616   0.952   9.187   5.431 -1.0706 -1.5724  0.8312
  568MOL0     H76617   0.739   9.138   5.464  1.2449  1.4729 -2.8668
  568MOL0     H76618   0.771   9.199   5.633 -0.0347  1.5716 -0.4836
  568MOL0     H76619   0.690   9.419   5.556  0.2246  2.2895 -1.0431
  568MOL0     H76620   0.675   9.364   5.392  2.1687 -0.8427  1.0007
  568MOL0     H76621   0.514   9.188   5.452  5.4572  1.2084 -2.1915
  568MOL0     H76622   0.521   9.242   5.623  1.1036  2.3502  0.2345
  568MOL0     H76623   0.443   9.477   5.550 -1.1943  0.0568 -1.6123
  568MOL0     H76624   0.395   9.398   5.401  0.7038  3.7683  0.3171
  568MOL0     H76625   0.289   9.358   5.686 -0.8083 -0.1876 -0.6787
  568MOL0     H76626   0.200   9.439   5.559 -2.0154  0.0997  1.2158
  568MOL0     H76627   0.304   9.143   5.550  2.4550  1.8328  2.0353
  568MOL0     H76628   0.139   9.185   5.601  1.6616 -0.0260  1.0522
  568MOL0     H76629   0.173   9.103   5.366 -1.9722 -0.6163  2.5864
  568MOL0     H76630   0.230   9.271   5.328  0.0214  2.5886  1.9552
  568MOL0     H76631  -0.101   9.075   5.453 -0.6666  0.1510  2.5298
  568MOL0     H76632  -0.374   9.157   5.361 -0.3048 -1.9507  0.9958
  568MOL0     H76633  -0.351   9.202   5.530  1.5948 -0.7867 -0.1301
  568MOL0     H76634  -0.524   9.337   5.431 -0.4116  3.2281  0.9292
  568MOL0     H76635  -0.407   9.416   5.320 -1.0779 -2.3157 -0.9928
  568MOL0     H76636  -0.301   9.522   5.509  0.1118 -0.4246 -0.7285
  568MOL0     H76637  -0.366   9.410   5.625 -3.9397 -0.0886  1.1931
  568MOL0     H76638  -0.534   9.623   5.483  2.2318 -0.4425 -1.0220
  568MOL0     H76639  -0.496   9.623   5.656  0.5780  1.0155 -0.1030
  568MOL0     H76640  -0.809   9.289   5.608 -1.3545 -0.2949  1.4139
  568MOL0     H76641  -1.165   9.298   5.563  0.2902 -0.3484  0.3181
  568MOL0     H76642  -1.078   9.239   5.416 -0.4749  0.1282 -0.3386
  568MOL0     H76643  -1.013   9.216   5.587  0.5624  0.7227  1.0547
  568MOL0     H76644  -1.296   9.928   5.509  1.9443 -0.0417 -0.4621
  568MOL0     H76645  -1.509  10.002   5.458 -0.7548 -1.9666  0.6822
  568MOL0     H76646  -1.766  10.027   5.407 -0.7911  1.3238 -0.3461
  568MOL0     H76647  -1.666  10.097   5.277 -2.8911  2.2386  0.2928
  568MOL0     H76648  -1.841  10.059   5.116  5.5213 -1.7855  1.2637
  568MOL0     H76649  -1.920   9.948   5.228  1.7373 -0.0920  0.3947
  568MOL0     H76650  -1.891  10.243   5.266  0.9070 -0.5654  0.0599
  568MOL0     H76651  -1.967  10.131   5.388 -0.2724  1.5659  0.8622
  568MOL0     H76652  -2.049  10.188   5.103 -2.3390 -0.9039  0.3318
  568MOL0     H76653  -2.149  10.095   5.219 -0.7709  0.8830 -1.0477
  568MOL0     H76654  -2.072  10.377   5.293  1.2031 -3.9609  3.8284
  568MOL0     H76655  -2.216  10.299   5.328 -1.4424  0.6539 -1.4745
  568MOL0     H76656  -2.165  10.381   5.030  1.4324 -2.2292  0.8705
  568MOL0     H76657  -2.282  10.276   5.087 -1.6500  1.4654  0.6061
  568MOL0     H76658  -2.244  10.549   5.207  1.3760 -2.3246  1.5333
  568MOL0     H76659  -2.391  10.465   5.231  2.1632  2.0154  2.4327
  568MOL0     H76660  -2.285  10.573   4.957 -2.9043  3.8573 -0.3063
  568MOL0     H76661  -2.421  10.631   5.048 -2.3244 -1.0214  1.3678
  568MOL0     H76662  -1.564   9.674   5.181  1.5569 -0.1091 -0.7061
  568MOL0     H76663  -1.354   9.588   5.243  0.9227  1.2201 -1.3860
  568MOL0     H76664  -0.934   9.732   5.439  1.1577 -0.9231 -1.0357
  568MOL0     H76665  -0.727   9.704   5.527 -1.5419  1.4420  0.7414
  568MOL0     H76666   1.116   9.429   5.384 -0.9081 -0.8460  0.1502
  568MOL0     H76667   1.372   9.436   5.400  0.0437  0.0642  0.7152
  568MOL0     H76668   1.697   9.170   5.478 -0.5117  1.3871 -1.0395
  568MOL0     H76669   1.944   9.112   5.456 -0.9423 -0.0800 -1.0644
  568MOL0     H76670   2.204   9.205   5.597  0.4718 -0.5754 -0.1504
  568MOL0     H76671   2.187   9.090   5.471 -0.5021  1.3651 -0.7666
  568MOL0     H76672   2.414   9.274   5.510  1.9870 -1.3326  1.1409
  568MOL0     H76673   2.366   9.207   5.347 -2.3941  0.9025 -0.8743
  568MOL0     H76674   2.372   8.979   5.438  0.2145  0.7266  0.2749
  568MOL0     H76675   2.405   9.034   5.603 -0.0569  1.8801  0.4093
  568MOL0     H76676   2.590   9.098   5.356 -1.4329 -0.4893 -0.2430
  568MOL0     H76677   2.621   8.976   5.491 -0.0844 -1.1281 -2.6103
  568MOL0     H76678   2.754   9.300   5.691  0.0726 -0.7538  0.0104
  568MOL0     H76679   2.040   9.530   5.505 -0.6974  0.2823  0.2995
  568MOL0     H76680   1.806   9.589   5.544 -2.0067 -0.9217 -0.2190
  569MOL0     O76681   6.447   1.433   3.158  0.0913 -0.0576  0.0770
  569MOL0     C76682   6.479   1.356   3.248  0.0616 -0.3158 -0.1000
  569MOL0     O76683   6.395   1.293   3.333  0.0436 -0.2209 -0.3129
  569MOL0     C76684   6.263   1.330   3.321 -0.5053 -0.0124 -0.1590
  569MOL0     C76685   6.218   1.431   3.403  0.2315 -0.2343 -0.2367
  569MOL0     C76686   6.083   1.469   3.407 -0.0847  0.2571  0.8500
  569MOL0     C76687   5.998   1.405   3.314  0.5385  0.0582  0.1124
  569MOL0     O76688   5.861   1.429   3.301 -0.6112  0.2202 -0.0687
  569MOL0     C76689   5.783   1.469   3.416 -1.0268 -0.8684 -0.3249
  569MOL0     C76690   5.761   1.359   3.515  0.1048  0.2507 -0.3704
  569MOL0     C76691   5.670   1.407   3.628 -0.5506  0.3571  0.2858
  569MOL0     C76692   5.615   1.280   3.700  0.1254 -0.3872 -0.7770
  569MOL0     C76693   5.465   1.305   3.756 -0.8324  0.5761  0.3014
  569MOL0     C76694   5.365   1.293   3.640  0.2031 -0.9117  0.3971
  569MOL0     C76695   5.224   1.313   3.670  0.5451  0.0492 -0.7456
  569MOL0     C76696   5.146   1.311   3.538  0.0122 -0.1985 -0.8633
  569MOL0     N76697   5.004   1.302   3.541  0.7270 -0.3076 -0.1502
  569MOL0     C76698   4.915   1.387   3.607 -0.4396  0.1965  0.3254
  569MOL0     C76699   4.805   1.312   3.626 -0.0404  0.1567  0.3847
  569MOL0     C76700   4.683   1.370   3.697 -0.4142 -0.1792 -0.3244
  569MOL0     C76701   4.554   1.342   3.622  0.5229 -0.3973  1.0852
  569MOL0     C76702   4.447   1.440   3.680 -0.0699 -0.3355  0.3841
  569MOL0     C76703   4.307   1.382   3.660 -0.0807 -1.0581  0.7277
  569MOL0     O76704   4.215   1.478   3.715  0.6209 -0.3889 -0.4338
  569MOL0     C76705   4.074   1.483   3.688 -0.4614 -0.4036  1.2336
  569MOL0     C76706   4.010   1.598   3.728  0.2029  0.6449  0.7165
  569MOL0     C76707   3.870   1.615   3.699  0.2184 -0.3840 -0.1669
  569MOL0     C76708   3.810   1.746   3.740 -0.6493 -0.8029 -0.0060
  569MOL0     C76709   3.801   1.517   3.635  0.1440  0.5027 -0.7932
  569MOL0     C76710   3.652   1.528   3.606 -1.0368  0.9940  0.3303
  569MOL0     O76711   3.604   1.443   3.514  0.6758 -0.5500  0.1045
  569MOL0     C76712   3.466   1.431   3.515 -0.0051  0.3590 -0.2069
  569MOL0     C76713   3.404   1.307   3.541  0.0612 -0.2250 -0.8054
  569MOL0     C76714   3.268   1.285   3.532 -0.4617  0.2466  0.4073
  569MOL0     C76715   3.183   1.382   3.482  0.4641 -0.6731  0.3318
  569MOL0     O76716   3.045   1.376   3.474 -0.4573  0.1241 -0.0214
  569MOL0     C76717   2.974   1.262   3.537  0.5517  0.0118  0.1193
  569MOL0     C76718   2.840   1.319   3.586 -0.3190  0.0215  0.0582
  569MOL0     C76719   2.744   1.203   3.619  0.3699  0.2745  0.0147
  569MOL0     C76720   2.595   1.251   3.639 -0.1792 -0.0223 -0.0235
  569MOL0     C76721   2.583   1.296   3.791  0.2883  0.0930  0.9893
  569MOL0     C76722   2.454   1.375   3.817  0.2523  0.1192  0.0701
  569MOL0     C76723   2.339   1.276   3.835 -0.2950  1.5306 -0.8360
  569MOL0     C76724   2.208   1.354   3.837  0.6444  0.3405 -0.4292
  569MOL0    Cl76725   2.215   1.490   3.963  0.9448  0.2183 -0.4948
  569MOL0     C76726   3.246   1.500   3.445 -0.5387 -0.2918  0.1619
  569MOL0     C76727   3.385   1.533   3.474  0.4864 -0.4066 -1.1094
  569MOL0     O76728   3.589   1.613   3.675 -0.0489  0.0370 -0.2444
  569MOL0     C76729   3.868   1.399   3.595  0.3023  0.5477  0.1691
  569MOL0     C76730   4.001   1.389   3.618 -0.6673 -0.2316  0.3471
  569MOL0     N76731   4.821   1.192   3.566  0.0985  0.5133  0.3918
  569MOL0     N76732   4.945   1.181   3.521  0.0166 -0.5760 -0.5396
  569MOL0     C76733   6.044   1.307   3.220  0.8668  0.6762 -0.1633
  569MOL0     C76734   6.177   1.263   3.231  0.0647  0.0220 -0.4613
  569MOL0     C76735   6.622   1.329   3.267 -0.1503  0.6408  1.0528
  569MOL0     C76736   6.715   1.395   3.182 -0.4570  0.0581  0.5042
  569MOL0     C76737   6.847   1.366   3.194 -0.0473  0.7874 -0.3570
  569MOL0     C76738   6.902   1.292   3.296 -0.3864 -0.2381 -0.1782
  569MOL0     O76739   7.041   1.281   3.309 -0.1098 -0.3396  0.1514
  569MOL0     C76740   7.087   1.191   3.411 -0.4903 -0.6081  0.0773
  569MOL0     C76741   7.239   1.206   3.411 -1.2975 -0.1904 -0.7250
  569MOL0     C76742   7.305   1.121   3.309 -0.6454 -0.0164  0.3164
  569MOL0     C76743   7.453   1.158   3.292 -0.1885  0.4195  0.1078
  569MOL0     C76744   7.523   1.099   3.173  0.0150 -0.9038  0.0226
  569MOL0     C76745   7.587   1.053   3.081 -0.2592 -0.6158  0.1307
  569MOL0     C76746   6.813   1.217   3.373  0.5648  0.0130  0.5481
  569MOL0     C76747   6.672   1.241   3.366  0.0645 -0.5656  0.3565
  569MOL0     H76748   6.298   1.480   3.456  2.7826 -4.2265  0.0751
  569MOL0     H76749   6.044   1.541   3.477 -2.4369  0.0141 -0.1265
  569MOL0     H76750   5.828   1.559   3.458 -0.4713 -0.8882 -0.8566
  569MOL0     H76751   5.686   1.503   3.382 -0.4465  0.5008 -0.6608
  569MOL0     H76752   5.711   1.278   3.460  1.9451 -1.2397  0.0398
  569MOL0     H76753   5.858   1.324   3.552 -0.1062 -0.2025 -0.2507
  569MOL0     H76754   5.723   1.478   3.692  0.9434  2.0802 -2.6265
  569MOL0     H76755   5.590   1.464   3.580 -1.7846 -0.6056  1.1323
  569MOL0     H76756   5.610   1.198   3.628  1.8497 -0.4871 -0.8289
  569MOL0     H76757   5.680   1.248   3.783 -1.1322 -1.2861 -0.1147
  569MOL0     H76758   5.441   1.241   3.840 -3.7921  0.1827 -0.7179
  569MOL0     H76759   5.464   1.405   3.801 -1.9527 -0.1810  2.0533
  569MOL0     H76760   5.389   1.360   3.557 -0.6972 -1.0618 -0.0011
  569MOL0     H76761   5.382   1.196   3.593  0.9575 -1.7449  2.3049
  569MOL0     H76762   5.174   1.244   3.738 -1.4678 -0.4154 -2.5838
  569MOL0     H76763   5.195   1.409   3.716 -2.3922 -0.6148 -0.9827
  569MOL0     H76764   5.184   1.222   3.488 -0.0282 -1.3912  1.1227
  569MOL0     H76765   5.183   1.388   3.470  2.2618  0.1896  0.7038
  569MOL0     H76766   4.939   1.485   3.649 -0.8730 -0.8140  3.2008
  569MOL0     H76767   4.681   1.323   3.796  0.3358  0.5708  0.0604
  569MOL0     H76768   4.700   1.477   3.708  3.5980 -0.6210 -0.9922
  569MOL0     H76769   4.527   1.237   3.635 -0.3283 -0.4474 -0.7349
  569MOL0     H76770   4.579   1.346   3.515  1.0873 -1.6933  1.1544
  569MOL0     H76771   4.447   1.543   3.644 -2.5214  0.2179  1.7476
  569MOL0     H76772   4.465   1.451   3.787  0.4245 -2.9270  0.6380
  569MOL0     H76773   4.301   1.284   3.707  2.3042 -3.6606 -3.7635
  569MOL0     H76774   4.286   1.369   3.554  0.3034 -0.1286  0.5242
  569MOL0     H76775   4.068   1.676   3.776 -0.5214 -0.4807  3.6268
  569MOL0     H76776   3.772   1.782   3.644  2.3122  1.7579 -0.3563
  569MOL0     H76777   3.739   1.745   3.824  0.6770  0.6334  1.1853
  569MOL0     H76778   3.881   1.821   3.775 -4.1829  3.1953 -0.5727
  569MOL0     H76779   3.469   1.235   3.591 -0.9016  0.0690  0.9383
  569MOL0     H76780   3.231   1.187   3.559 -0.7081 -0.0631 -0.9746
  569MOL0     H76781   2.956   1.182   3.465 -1.2208 -0.7253  1.3222
  569MOL0     H76782   3.031   1.224   3.622  2.5834 -2.8871 -2.3219
  569MOL0     H76783   2.863   1.376   3.676 -0.7969 -0.1160  0.2714
  569MOL0     H76784   2.788   1.379   3.510 -0.1148 -1.6363 -1.4722
  569MOL0     H76785   2.773   1.143   3.706 -1.5961  0.0933  0.5966
  569MOL0     H76786   2.758   1.142   3.530  0.4481 -0.2317  0.3747
  569MOL0     H76787   2.579   1.339   3.577 -0.3316  0.6909  1.0087
  569MOL0     H76788   2.515   1.183   3.608 -3.0383  2.2269  1.9418
  569MOL0     H76789   2.667   1.362   3.810  0.1391 -0.0153  2.0966
  569MOL0     H76790   2.600   1.209   3.856  1.4041 -0.1112  0.4487
  569MOL0     H76791   2.463   1.428   3.912 -0.2356 -1.3526  0.9540
  569MOL0     H76792   2.431   1.452   3.743 -0.4936  1.7584  1.9202
  569MOL0     H76793   2.348   1.224   3.931  4.1961  2.4966 -0.5106
  569MOL0     H76794   2.339   1.204   3.754 -1.3592 -0.0463  0.5102
  569MOL0     H76795   2.125   1.291   3.869  1.8144 -1.1045 -0.1296
  569MOL0     H76796   2.195   1.395   3.736 -1.6612 -0.0751 -0.3356
  569MOL0     H76797   3.191   1.587   3.411  1.4598  1.2573  0.6980
  569MOL0     H76798   3.427   1.633   3.471  0.7504 -0.2755  2.3869
  569MOL0     H76799   3.812   1.325   3.538 -1.2878  1.5879  0.3094
  569MOL0     H76800   4.046   1.299   3.576  1.1259  1.4677 -1.5828
  569MOL0     H76801   5.982   1.268   3.140 -1.2013  2.5021  0.4671
  569MOL0     H76802   6.201   1.179   3.166 -0.2556 -1.7062  1.5164
  569MOL0     H76803   6.687   1.461   3.101 -0.8762 -0.8329 -0.0966
  569MOL0     H76804   6.927   1.414   3.138 -0.8697  1.3339 -1.0926
  569MOL0     H76805   7.038   1.221   3.504  0.3340  0.3598  0.2176
  569MOL0     H76806   7.074   1.085   3.387 -0.3693 -0.2165 -1.8361
  569MOL0     H76807   7.283   1.178   3.507  0.0076  1.7860 -0.6823
  569MOL0     H76808   7.269   1.311   3.416 -0.2616 -0.5152  2.3302
  569MOL0     H76809   7.253   1.135   3.214  2.6136  0.8150 -1.5332
  569MOL0     H76810   7.312   1.015   3.335  0.5266 -0.2760 -0.8825
  569MOL0     H76811   7.504   1.112   3.377 -2.8285 -0.0036  1.5648
  569MOL0     H76812   7.470   1.266   3.300  1.3708  0.2008  0.0727
  569MOL0     H76813   7.655   1.022   3.003  0.6036 -0.1535  0.6823
  569MOL0     H76814   6.832   1.147   3.453  0.3936  0.1841  0.7392
  569MOL0     H76815   6.605   1.185   3.430  0.2455  0.1797  1.2186
  570MOL0     O76816   2.550   0.448   5.981 -0.4841  0.0332 -0.2759
  570MOL0     C76817   2.558   0.462   5.863 -0.1236  0.7938 -0.6723
  570MOL0     O76818   2.470   0.407   5.775  0.1730 -0.3695 -0.1572
  570MOL0     C76819   2.347   0.375   5.819  0.0028  0.3491 -0.2753
  570MOL0     C76820   2.290   0.277   5.735 -0.9284  0.0417  0.1068
  570MOL0     C76821   2.159   0.231   5.757 -0.1598 -0.7434 -0.1220
  570MOL0     C76822   2.088   0.285   5.863 -0.3658  0.5633  0.0766
  570MOL0     O76823   1.960   0.237   5.879  0.0193  0.8693  0.4639
  570MOL0     C76824   1.856   0.312   5.951 -0.6511 -0.2550  0.0917
  570MOL0     C76825   1.727   0.228   5.934 -0.5320  0.5637  0.0089
  570MOL0     C76826   1.605   0.276   6.022  0.2243 -0.6873 -0.5717
  570MOL0     C76827   1.481   0.189   5.995  0.5357  0.2806  0.5542
  570MOL0     C76828   1.368   0.216   6.103 -0.0349  0.0096 -0.1088
  570MOL0     C76829   1.246   0.127   6.088  0.4203  0.4121 -0.8686
  570MOL0     C76830   1.144   0.141   6.204 -0.1836 -1.0081 -0.6468
  570MOL0     C76831   1.207   0.136   6.347  1.2588  0.2981  0.1257
  570MOL0     N76832   1.112   0.147   6.458  0.7466 -0.0935 -0.0145
  570MOL0     C76833   1.004   0.066   6.480  0.7125 -0.0749  0.6625
  570MOL0     C76834   0.969   0.107   6.605 -0.2613 -0.1340  1.7771
  570MOL0     C76835   0.867   0.043   6.683 -0.6313  0.1824 -1.1622
  570MOL0     C76836   0.720   0.064   6.641  0.0873 -0.4366 -1.2808
  570MOL0     C76837   0.629  -0.004   6.744  0.7957  1.1189  0.0554
  570MOL0     C76838   0.489   0.034   6.720  0.2986 -0.2337 -0.8674
  570MOL0     O76839   0.442   0.010   6.585 -0.4173 -0.1971  0.5052
  570MOL0     C76840   0.317   0.049   6.554  0.7666 -0.1858  0.2961
  570MOL0     C76841   0.234   0.132   6.635 -0.8264 -0.2362 -0.2905
  570MOL0     C76842   0.106   0.169   6.598  0.7294 -0.5474 -0.6286
  570MOL0     C76843   0.032   0.282   6.681  0.5149  0.2164 -0.2389
  570MOL0     C76844   0.048   0.124   6.478 -0.4681 -0.1969  0.3003
  570MOL0     C76845  -0.091   0.158   6.414 -0.2533  0.5764 -0.1712
  570MOL0     O76846  -0.125   0.085   6.304 -0.7819  0.2856 -0.2183
  570MOL0     C76847  -0.235   0.121   6.232  0.0253 -0.2567  0.4701
  570MOL0     C76848  -0.214   0.198   6.119 -0.3112  0.4796 -0.2121
  570MOL0     C76849  -0.318   0.235   6.032 -0.2545 -0.0643 -0.3694
  570MOL0     C76850  -0.451   0.207   6.070 -0.0315 -0.3057  0.1082
  570MOL0     O76851  -0.566   0.241   6.004  0.0085  0.2487  0.3275
  570MOL0     C76852  -0.560   0.298   5.872  0.0686  0.2752 -0.0844
  570MOL0     C76853  -0.518   0.449   5.874  0.5035 -0.4907  1.5482
  570MOL0     C76854  -0.501   0.482   5.723 -0.2006  0.4490 -0.5160
  570MOL0     C76855  -0.356   0.429   5.674  0.0166  0.3648 -0.2471
  570MOL0     C76856  -0.228   0.485   5.740  0.0167 -0.5316  1.5284
  570MOL0     C76857  -0.223   0.634   5.737 -0.0203 -0.8878  0.6908
  570MOL0     C76858  -0.094   0.690   5.789 -1.0231  0.7441 -0.8386
  570MOL0     C76859  -0.070   0.670   5.936 -0.2203 -0.0975  0.6424
  570MOL0    Cl76860  -0.179   0.780   6.018 -0.1653 -0.1945 -0.1106
  570MOL0     C76861  -0.471   0.126   6.184 -0.1972  0.7287 -0.0509
  570MOL0     C76862  -0.363   0.082   6.263 -0.0246  0.2367  0.8413
  570MOL0     O76863  -0.171   0.223   6.473  0.1768  0.4649  0.1628
  570MOL0     C76864   0.128   0.036   6.404 -0.0668  0.3250  0.6459
  570MOL0     C76865   0.259   0.000   6.442 -0.2759  0.8929 -0.4084
  570MOL0     N76866   1.044   0.215   6.635  0.2314 -0.3443  0.1866
  570MOL0     N76867   1.134   0.242   6.551  0.2134 -0.9155  0.8163
  570MOL0     C76868   2.154   0.370   5.954 -0.4485  0.5595  0.6444
  570MOL0     C76869   2.284   0.421   5.931  0.7111 -0.0165  0.1198
  570MOL0     C76870   2.682   0.524   5.797  0.2557 -0.2382 -1.1046
  570MOL0     C76871   2.797   0.551   5.876  0.0519 -1.0468  0.0080
  570MOL0     C76872   2.911   0.600   5.819 -0.3712  0.6716  0.3511
  570MOL0     C76873   2.910   0.621   5.682 -0.5272 -0.9635  0.6175
  570MOL0     O76874   3.013   0.699   5.619  0.1084 -0.5708  0.5365
  570MOL0     C76875   3.072   0.794   5.709 -0.2560  0.2425  0.5004
  570MOL0     C76876   3.175   0.890   5.645  0.7618 -0.6142  0.4622
  570MOL0     C76877   3.315   0.824   5.636  0.6217 -0.3877 -1.0644
  570MOL0     C76878   3.414   0.933   5.588 -0.9049 -0.3621  0.2952
  570MOL0     C76879   3.431   1.043   5.687  0.1603 -0.3335 -0.0607
  570MOL0     C76880   3.450   1.135   5.765  0.4190  0.1513  0.3902
  570MOL0     C76881   2.798   0.595   5.599 -1.4160  0.7818 -0.5083
  570MOL0     C76882   2.686   0.545   5.662  0.3802 -0.2212  0.1064
  570MOL0     H76883   2.342   0.229   5.653  3.2791  2.1648  1.2438
  570MOL0     H76884   2.115   0.162   5.686  0.8467  0.0663 -1.5795
  570MOL0     H76885   1.888   0.316   6.056 -2.2475 -2.0070  0.7121
  570MOL0     H76886   1.830   0.410   5.910 -2.6511  0.4013  2.6606
  570MOL0     H76887   1.692   0.232   5.831 -0.5515  0.5905  0.0165
  570MOL0     H76888   1.760   0.126   5.952  0.4712  1.2618  2.6965
  570MOL0     H76889   1.633   0.251   6.125 -2.8114 -0.7066  0.3451
  570MOL0     H76890   1.586   0.383   6.025  1.9562 -0.3661  0.9287
  570MOL0     H76891   1.442   0.196   5.892  1.0640  0.6328  0.3748
  570MOL0     H76892   1.500   0.082   6.005 -0.7195 -0.0945 -0.6107
  570MOL0     H76893   1.421   0.206   6.199 -2.1150 -3.0950  0.8722
  570MOL0     H76894   1.342   0.323   6.102  2.4403  0.6840 -0.0123
  570MOL0     H76895   1.188   0.148   5.997  0.9506 -0.2599 -1.3726
  570MOL0     H76896   1.288   0.026   6.085  2.0713  1.0089  0.8484
  570MOL0     H76897   1.089   0.235   6.196 -0.7120 -1.1467  1.0782
  570MOL0     H76898   1.066   0.065   6.190  0.4119 -1.8206  0.3390
  570MOL0     H76899   1.268   0.225   6.365 -2.9667  4.1376 -2.3447
  570MOL0     H76900   1.264   0.044   6.363 -1.2378 -1.2394  0.9545
  570MOL0     H76901   0.957  -0.010   6.419 -3.3327  1.9687  0.9115
  570MOL0     H76902   0.885  -0.064   6.673 -0.8802  0.1388 -1.1472
  570MOL0     H76903   0.876   0.075   6.787 -0.8065 -0.1235 -1.0541
  570MOL0     H76904   0.715   0.015   6.544  0.5450 -1.0180 -1.0131
  570MOL0     H76905   0.697   0.171   6.628  1.3515  0.0158 -0.0358
  570MOL0     H76906   0.656   0.017   6.847 -3.3533  0.7112  1.4215
  570MOL0     H76907   0.638  -0.112   6.728 -1.6959  0.5874  1.6307
  570MOL0     H76908   0.466   0.139   6.741 -1.4270 -0.9843  1.3435
  570MOL0     H76909   0.417  -0.013   6.788  0.5360 -0.5246 -0.8172
  570MOL0     H76910   0.270   0.175   6.728 -0.5126 -0.5648 -0.2558
  570MOL0     H76911   0.083   0.274   6.777  0.8981  3.8935 -0.0030
  570MOL0     H76912   0.038   0.380   6.632 -1.8458  0.9191  0.7353
  570MOL0     H76913  -0.072   0.257   6.705  1.1329 -1.0204  1.3262
  570MOL0     H76914  -0.112   0.225   6.096  0.3919 -0.4031  1.5854
  570MOL0     H76915  -0.284   0.288   5.943 -1.4176  0.7032 -0.3736
  570MOL0     H76916  -0.502   0.233   5.806 -0.7134 -0.1423 -0.3755
  570MOL0     H76917  -0.666   0.295   5.847  0.2624 -0.7561 -0.8606
  570MOL0     H76918  -0.612   0.482   5.920 -0.0489 -1.8194  1.4283
  570MOL0     H76919  -0.436   0.479   5.940  1.2180 -0.5400  0.6982
  570MOL0     H76920  -0.510   0.591   5.718 -0.1484  0.5239  0.7847
  570MOL0     H76921  -0.578   0.434   5.662 -1.3458 -3.8360  3.7055
  570MOL0     H76922  -0.357   0.321   5.690 -1.1075  0.3882 -0.0921
  570MOL0     H76923  -0.350   0.442   5.566  0.4276 -1.0033 -0.4138
  570MOL0     H76924  -0.133   0.450   5.698  0.0981 -2.7931  3.4026
  570MOL0     H76925  -0.231   0.448   5.843  2.1658  0.8036  2.1406
  570MOL0     H76926  -0.252   0.655   5.634 -0.0290  0.5457  0.9760
  570MOL0     H76927  -0.303   0.685   5.791  1.5360  0.3826  1.9002
  570MOL0     H76928  -0.058   0.791   5.769  0.8493  0.2833 -0.0112
  570MOL0     H76929  -0.019   0.625   5.743 -1.0673  1.6297 -2.2005
  570MOL0     H76930   0.036   0.689   5.959 -0.7784  4.0475  0.6663
  570MOL0     H76931  -0.089   0.566   5.963  1.5329 -0.4591  0.6323
  570MOL0     H76932  -0.572   0.099   6.214 -0.4448 -0.4485 -1.8185
  570MOL0     H76933  -0.384   0.016   6.346 -0.2461 -1.1306 -0.2490
  570MOL0     H76934   0.107  -0.002   6.304  1.1797  1.2292  0.0063
  570MOL0     H76935   0.316  -0.069   6.382 -0.2852 -0.1418  0.7417
  570MOL0     H76936   2.096   0.398   6.042 -0.5989 -1.5964  1.2847
  570MOL0     H76937   2.323   0.490   6.005  0.8699  1.9837 -1.7247
  570MOL0     H76938   2.802   0.538   5.983 -0.9032  1.0148  0.3594
  570MOL0     H76939   2.988   0.609   5.896 -2.5256 -2.8620  3.2682
  570MOL0     H76940   2.993   0.860   5.747 -0.8312 -0.0128 -0.2316
  570MOL0     H76941   3.114   0.744   5.797 -1.0444 -0.3553  0.5551
  570MOL0     H76942   3.173   0.979   5.708 -0.3987  1.9206 -2.8491
  570MOL0     H76943   3.135   0.917   5.547 -0.0267 -0.6153  0.7740
  570MOL0     H76944   3.319   0.737   5.570  0.3730 -2.3460  1.3358
  570MOL0     H76945   3.352   0.798   5.736 -1.6287 -0.7034 -0.2527
  570MOL0     H76946   3.393   0.968   5.487 -0.4673 -0.6213  0.1101
  570MOL0     H76947   3.506   0.877   5.571 -0.8604 -0.1712 -0.0995
  570MOL0     H76948   3.473   1.208   5.840  1.8419 -0.5167  0.6416
  570MOL0     H76949   2.796   0.599   5.491 -4.5957 -3.1856 -0.8481
  570MOL0     H76950   2.606   0.513   5.596  0.0439 -0.7599  0.7613
  571MOL0     O76951   5.212   0.778   4.987 -0.3117  0.1568 -0.5116
  571MOL0     C76952   5.210   0.673   4.915 -0.4159  0.8975 -0.1853
  571MOL0     O76953   5.104   0.581   4.906 -0.2429  0.4054  0.1403
  571MOL0     C76954   4.981   0.611   4.941 -0.5562  0.4099 -0.0397
  571MOL0     C76955   4.878   0.515   4.933 -0.6219 -0.7492 -0.0698
  571MOL0     C76956   4.738   0.542   4.953 -0.3590  0.0702  0.4697
  571MOL0     C76957   4.692   0.666   4.983 -0.3811 -0.3835  0.0234
  571MOL0     O76958   4.562   0.680   5.001 -0.1244  0.1785 -1.0387
  571MOL0     C76959   4.496   0.807   5.017  0.1212  0.0593 -0.1881
  571MOL0     C76960   4.355   0.783   5.070 -1.1332 -0.5375 -1.0626
  571MOL0     C76961   4.275   0.916   5.068 -0.3720 -0.6231  0.3175
  571MOL0     C76962   4.144   0.913   5.151 -0.0001  0.9021  0.2453
  571MOL0     C76963   4.057   1.040   5.124 -0.0153 -0.4564  1.4670
  571MOL0     C76964   3.929   1.032   5.205 -0.0961 -0.4045 -0.8918
  571MOL0     C76965   3.834   1.146   5.167  0.0987 -0.0347 -0.5841
  571MOL0     C76966   3.704   1.134   5.253 -0.4145 -0.1556 -0.2172
  571MOL0     N76967   3.616   1.023   5.229 -1.2842  0.0799 -0.9244
  571MOL0     C76968   3.531   1.010   5.129 -0.3525  0.8997  0.6346
  571MOL0     C76969   3.465   0.894   5.135 -0.4138  0.2029  0.4024
  571MOL0     C76970   3.364   0.829   5.053  0.6904 -0.0088  0.1921
  571MOL0     C76971   3.266   0.743   5.128  0.2983  0.6018 -0.0327
  571MOL0     C76972   3.174   0.825   5.226  0.1790  0.0448  0.1412
  571MOL0     C76973   3.058   0.739   5.281  0.2940 -0.6007 -0.3291
  571MOL0     O76974   2.950   0.731   5.184  0.9333 -0.1433  0.3336
  571MOL0     C76975   2.851   0.819   5.186  0.1789  0.1376 -0.3478
  571MOL0     C76976   2.747   0.791   5.104 -0.0859  0.4526 -0.7375
  571MOL0     C76977   2.630   0.872   5.083 -0.6546  0.6482 -0.1472
  571MOL0     C76978   2.515   0.809   5.009  0.1618 -0.4844 -0.0744
  571MOL0     C76979   2.627   0.992   5.154 -0.0658  0.4277  0.4926
  571MOL0     C76980   2.517   1.086   5.145 -0.5697  0.0123 -0.3098
  571MOL0     O76981   2.503   1.181   5.239 -0.3089  1.0170 -0.0280
  571MOL0     C76982   2.400   1.266   5.217  0.7724 -1.2793  1.0598
  571MOL0     C76983   2.411   1.391   5.148 -1.1718  1.0612  0.2488
  571MOL0     C76984   2.303   1.477   5.121 -0.6322 -0.3135 -0.2205
  571MOL0     C76985   2.172   1.448   5.166 -0.4533 -0.7000  0.3672
  571MOL0     O76986   2.055   1.521   5.151 -0.0388  0.1479 -0.4211
  571MOL0     C76987   2.063   1.662   5.140 -0.0333  0.1134  0.3301
  571MOL0     C76988   1.918   1.724   5.127 -0.5544 -0.3109 -0.4125
  571MOL0     C76989   1.830   1.655   5.028  0.2393  0.6434  0.8029
  571MOL0     C76990   1.681   1.710   5.044  0.6469 -0.1651  0.2696
  571MOL0     C76991   1.596   1.658   4.927  0.5205 -0.3042 -0.8384
  571MOL0     C76992   1.460   1.738   4.929  0.7230  0.3952  0.8403
  571MOL0     C76993   1.371   1.688   4.816  0.2256 -0.0845 -0.9169
  571MOL0     C76994   1.242   1.753   4.817 -0.1808  0.0915  0.1658
  571MOL0    Cl76995   1.147   1.687   4.953  0.1775  0.1085 -0.2434
  571MOL0     C76996   2.168   1.327   5.235  0.8640 -0.3758  0.4581
  571MOL0     C76997   2.272   1.237   5.252  0.9997  0.4542  0.3484
  571MOL0     O76998   2.451   1.082   5.039  0.5047  1.2975 -0.2725
  571MOL0     C76999   2.730   1.028   5.239 -0.2547 -0.0281 -0.7106
  571MOL0     C77000   2.844   0.934   5.261  0.9863 -0.4241 -0.2055
  571MOL0     N77001   3.524   0.832   5.243 -0.4366 -0.8464 -0.0613
  571MOL0     N77002   3.618   0.906   5.296 -0.1250  0.9443  0.2216
  571MOL0     C77003   4.789   0.768   4.986 -0.3911  1.1571 -0.4537
  571MOL0     C77004   4.929   0.741   4.956 -0.0114 -0.1745  0.8076
  571MOL0     C77005   5.340   0.629   4.862 -0.7302  0.4474  0.3906
  571MOL0     C77006   5.466   0.675   4.901  0.4068 -0.4929 -0.8865
  571MOL0     C77007   5.586   0.624   4.851 -0.4279  0.1410 -0.4002
  571MOL0     C77008   5.583   0.512   4.764 -0.4368 -0.3119  0.4625
  571MOL0     O77009   5.697   0.465   4.707 -0.0357  0.0390 -0.3582
  571MOL0     C77010   5.688   0.358   4.611 -0.0348  0.2256 -0.5879
  571MOL0     C77011   5.827   0.323   4.557  0.6760  0.4653  0.1887
  571MOL0     C77012   5.839   0.184   4.468  0.0423  1.0387 -0.6886
  571MOL0     C77013   5.771   0.183   4.325  0.0068 -0.3708 -0.0370
  571MOL0     C77014   5.636   0.240   4.310  0.6020  0.6918  0.3230
  571MOL0     C77015   5.522   0.284   4.300 -0.6201  0.2927 -0.6305
  571MOL0     C77016   5.454   0.470   4.724  0.0095  0.8380 -0.3980
  571MOL0     C77017   5.336   0.522   4.768  0.5192 -0.5718 -0.0372
  571MOL0     H77018   4.893   0.410   4.909 -2.1553 -1.1260  0.4336
  571MOL0     H77019   4.669   0.460   4.938 -1.1325  0.8584 -0.3471
  571MOL0     H77020   4.554   0.881   5.074 -0.0450 -1.0705  1.5098
  571MOL0     H77021   4.476   0.849   4.918 -1.1881 -2.3915 -1.0333
  571MOL0     H77022   4.312   0.710   5.001 -0.7053  0.6942 -2.6882
  571MOL0     H77023   4.366   0.742   5.171  1.3433 -2.6442 -2.0620
  571MOL0     H77024   4.340   0.999   5.097  1.3374 -2.2371  1.3172
  571MOL0     H77025   4.245   0.931   4.964 -0.6153 -0.4230  0.4145
  571MOL0     H77026   4.080   0.827   5.129  0.6066  0.8812 -1.6119
  571MOL0     H77027   4.172   0.918   5.257  0.0459 -0.7864  0.3266
  571MOL0     H77028   4.116   1.131   5.138 -2.1744  1.8531 -2.6039
  571MOL0     H77029   4.027   1.037   5.019  1.6408 -4.5305  0.9156
  571MOL0     H77030   3.885   0.938   5.171 -2.0851  0.1629 -0.0141
  571MOL0     H77031   3.934   1.030   5.314  0.9864  3.5889 -0.7360
  571MOL0     H77032   3.885   1.238   5.196 -1.7227  1.5454 -2.1375
  571MOL0     H77033   3.807   1.156   5.062  0.1982  2.5106 -0.4165
  571MOL0     H77034   3.641   1.220   5.232  1.2698  2.5633  4.3757
  571MOL0     H77035   3.731   1.148   5.358  0.9797  4.4561 -0.9505
  571MOL0     H77036   3.527   1.081   5.047  3.9397 -0.6924 -1.2444
  571MOL0     H77037   3.303   0.909   5.012  0.3213 -0.5440 -0.3268
  571MOL0     H77038   3.404   0.775   4.966 -1.6418  1.1999 -1.7342
  571MOL0     H77039   3.326   0.666   5.178 -0.3324  0.8966  1.2111
  571MOL0     H77040   3.203   0.698   5.052  1.4071 -3.1535  1.0607
  571MOL0     H77041   3.144   0.923   5.189  2.3382 -0.1697 -2.4174
  571MOL0     H77042   3.233   0.843   5.317 -0.2467  1.7102  0.1188
  571MOL0     H77043   3.012   0.777   5.372  0.1022 -1.2972 -0.1285
  571MOL0     H77044   3.092   0.641   5.314  3.4255  0.2988 -0.5659
  571MOL0     H77045   2.747   0.710   5.031  0.1939  0.9439 -1.2916
  571MOL0     H77046   2.507   0.852   4.908  1.7992  1.3876  0.5107
  571MOL0     H77047   2.525   0.700   5.008 -2.5171 -0.8027  1.0089
  571MOL0     H77048   2.416   0.829   5.050 -0.6686 -3.0070 -0.7023
  571MOL0     H77049   2.514   1.418   5.128 -0.5354 -1.6506 -0.6442
  571MOL0     H77050   2.331   1.577   5.090 -1.1857  0.6558  2.1394
  571MOL0     H77051   2.100   1.708   5.232 -0.2735  1.1468 -0.0733
  571MOL0     H77052   2.131   1.693   5.059 -2.6375  0.9781 -1.6663
  571MOL0     H77053   1.860   1.723   5.219 -1.7735 -1.8948 -1.1704
  571MOL0     H77054   1.930   1.830   5.100  0.5252 -0.4030 -0.3496
  571MOL0     H77055   1.828   1.549   5.054 -0.0360  0.7142  1.0754
  571MOL0     H77056   1.867   1.671   4.927  1.4511  1.4460  1.3404
  571MOL0     H77057   1.643   1.684   5.143 -1.1351  2.9641  0.5380
  571MOL0     H77058   1.680   1.820   5.040 -1.0458 -0.1586 -2.9589
  571MOL0     H77059   1.586   1.550   4.939 -1.0398  0.0339  1.6522
  571MOL0     H77060   1.647   1.678   4.832  0.2044 -0.4148 -1.0324
  571MOL0     H77061   1.412   1.708   5.023  0.0788 -0.3807  0.2784
  571MOL0     H77062   1.474   1.846   4.938 -4.6696  1.5283 -0.6817
  571MOL0     H77063   1.350   1.581   4.831  1.0305 -0.1570 -0.1802
  571MOL0     H77064   1.424   1.709   4.723  1.2339  1.0447 -0.1108
  571MOL0     H77065   1.188   1.726   4.726 -1.8966  3.5003 -0.0120
  571MOL0     H77066   1.263   1.860   4.811 -0.4908  0.1882  0.6531
  571MOL0     H77067   2.071   1.291   5.267  0.4727 -1.0337 -1.3577
  571MOL0     H77068   2.245   1.137   5.285 -1.0034  0.7546 -0.2227
  571MOL0     H77069   2.741   1.125   5.286 -0.9408  0.4384 -1.4890
  571MOL0     H77070   2.921   0.958   5.334  0.3424 -0.7615  0.5967
  571MOL0     H77071   4.753   0.870   4.998 -1.9400  0.8694 -2.2547
  571MOL0     H77072   4.990   0.826   4.926  2.1941 -2.9122 -3.4081
  571MOL0     H77073   5.476   0.756   4.972  1.5602 -2.1006  0.8932
  571MOL0     H77074   5.687   0.659   4.870  0.2506 -1.9244  0.0390
  571MOL0     H77075   5.640   0.266   4.647  1.2259 -0.3530 -0.2959
  571MOL0     H77076   5.629   0.394   4.527 -1.4249 -1.1577 -0.2572
  571MOL0     H77077   5.901   0.324   4.638 -0.4416 -1.4901  1.3054
  571MOL0     H77078   5.858   0.408   4.495  0.1381 -0.8237 -1.9242
  571MOL0     H77079   5.793   0.102   4.523 -0.3996  2.3313  0.9604
  571MOL0     H77080   5.944   0.162   4.449 -0.3101  0.2949 -1.8891
  571MOL0     H77081   5.754   0.078   4.301  1.3309 -0.6609  0.2313
  571MOL0     H77082   5.832   0.228   4.246  0.9234 -1.2984  0.1149
  571MOL0     H77083   5.430   0.338   4.286 -2.2113 -1.8193  1.0693
  571MOL0     H77084   5.446   0.383   4.659 -0.4496 -1.0682  2.0460
  571MOL0     H77085   5.245   0.467   4.745  0.4394  0.0807 -1.3731
  572MOL0     O77086   4.019   5.490   6.238 -0.5332 -0.3885 -0.0856
  572MOL0     C77087   4.035   5.613   6.214  0.3227 -0.2225  0.5477
  572MOL0     O77088   4.138   5.670   6.147  0.4498 -0.5938  0.3986
  572MOL0     C77089   4.247   5.592   6.118  0.2133 -0.1170  0.1979
  572MOL0     C77090   4.246   5.486   6.031 -0.1315  0.1257 -0.6506
  572MOL0     C77091   4.365   5.406   6.010  0.1704 -0.1268 -0.3612
  572MOL0     C77092   4.490   5.455   6.071 -0.8612  0.5463  0.0866
  572MOL0     O77093   4.609   5.399   6.037 -0.5882  0.7519  0.2226
  572MOL0     C77094   4.640   5.349   5.906  0.8064 -0.7340 -0.1590
  572MOL0     C77095   4.787   5.371   5.896  0.4875  0.0867  0.1584
  572MOL0     C77096   4.843   5.309   5.772  0.1664 -1.1518  0.1784
  572MOL0     C77097   4.989   5.327   5.773  0.2216 -0.6953  0.3047
  572MOL0     C77098   5.075   5.229   5.676  0.2745 -0.3091  0.4448
  572MOL0     C77099   5.023   5.225   5.525 -0.3816  0.2030 -0.8448
  572MOL0     C77100   5.121   5.147   5.440 -0.4853  0.4528  1.2478
  572MOL0     C77101   5.102   5.149   5.281  0.0463 -0.3051 -0.1847
  572MOL0     N77102   4.964   5.111   5.244  0.4045  0.3962  0.2204
  572MOL0     C77103   4.929   4.981   5.230  0.0300  0.2331  0.0562
  572MOL0     C77104   4.790   4.990   5.217 -0.1115 -0.8947 -0.4069
  572MOL0     C77105   4.699   4.878   5.205 -0.5982  0.3144  0.3093
  572MOL0     C77106   4.545   4.896   5.189 -0.2255  0.2696  0.1854
  572MOL0     C77107   4.477   4.921   5.325 -0.1402 -0.9013  0.2633
  572MOL0     C77108   4.327   4.951   5.309  0.5576  0.0675  0.1226
  572MOL0     O77109   4.256   4.872   5.208  0.4234  0.0925  0.3467
  572MOL0     C77110   4.120   4.889   5.189  0.4962  0.5177  0.2470
  572MOL0     C77111   4.036   4.980   5.264 -0.4363  0.5942  0.6261
  572MOL0     C77112   3.899   4.997   5.237  0.3550  0.1229 -0.8455
  572MOL0     C77113   3.828   5.109   5.314  0.8238  0.7272  0.2682
  572MOL0     C77114   3.831   4.926   5.136  0.1121  0.9124 -0.4567
  572MOL0     C77115   3.674   4.927   5.102  0.8637  0.1048 -0.2081
  572MOL0     O77116   3.633   4.826   5.019 -0.2814 -0.0885 -0.2831
  572MOL0     C77117   3.499   4.827   5.000 -0.4323 -0.2288  0.5398
  572MOL0     C77118   3.412   4.785   5.100 -0.2026 -0.5997 -0.0614
  572MOL0     C77119   3.275   4.769   5.080  0.4189  0.0323  0.7185
  572MOL0     C77120   3.215   4.793   4.957 -1.0569  0.2488 -0.0754
  572MOL0     O77121   3.081   4.760   4.932  0.4243  0.7484  0.7052
  572MOL0     C77122   3.007   4.791   4.814  1.1965 -0.6798  0.0928
  572MOL0     C77123   2.935   4.923   4.809  0.5717  0.6722 -0.0592
  572MOL0     C77124   2.831   4.933   4.918  0.0629  0.3230 -0.0701
  572MOL0     C77125   2.718   4.835   4.901 -0.3851  0.0605 -0.4250
  572MOL0     C77126   2.602   4.856   4.993  0.5955 -0.0689  0.0275
  572MOL0     C77127   2.497   4.742   4.981  1.7375 -1.4095 -0.1421
  572MOL0     C77128   2.377   4.784   5.071  0.1671  0.2538  0.2523
  572MOL0     C77129   2.294   4.659   5.103  0.1624 -0.2703  0.2629
  572MOL0    Cl77130   2.173   4.679   5.231  0.3776  0.0178  0.4128
  572MOL0     C77131   3.291   4.850   4.857 -0.0809 -0.6969 -0.2976
  572MOL0     C77132   3.434   4.863   4.878 -0.7313 -0.0943 -0.5785
  572MOL0     O77133   3.605   5.010   5.157 -0.6305  0.2843  0.5582
  572MOL0     C77134   3.923   4.834   5.063  0.1987  0.0432 -0.2700
  572MOL0     C77135   4.052   4.818   5.092  0.7631 -0.4688 -0.7202
  572MOL0     N77136   4.751   5.124   5.225  0.9265 -0.4475  0.2490
  572MOL0     N77137   4.853   5.190   5.237  0.7668  0.3534 -0.0263
  572MOL0     C77138   4.485   5.564   6.156  0.1836 -0.1051  1.1060
  572MOL0     C77139   4.366   5.632   6.183 -0.0905  1.0882  0.2594
  572MOL0     C77140   3.916   5.694   6.257  0.2287 -0.4326  0.0634
  572MOL0     C77141   3.789   5.633   6.284 -0.2169  0.0246 -0.2152
  572MOL0     C77142   3.671   5.703   6.295  0.6260  0.4700  0.4718
  572MOL0     C77143   3.682   5.845   6.299 -0.4947 -0.2066 -0.3828
  572MOL0     O77144   3.584   5.934   6.342 -0.5174 -0.0458  0.1344
  572MOL0     C77145   3.444   5.892   6.361  0.4218 -0.5766 -0.1554
  572MOL0     C77146   3.355   6.010   6.345 -0.5676  0.2255  0.2141
  572MOL0     C77147   3.208   5.981   6.394 -0.0464  0.0423 -0.1561
  572MOL0     C77148   3.127   5.913   6.281  0.5805  0.0903 -0.5681
  572MOL0     C77149   2.988   5.920   6.324  0.3673 -0.1255 -0.0799
  572MOL0     C77150   2.866   5.894   6.341 -0.1493  0.7955  1.5575
  572MOL0     C77151   3.800   5.911   6.267 -0.2448  0.3511 -0.0067
  572MOL0     C77152   3.912   5.833   6.239 -0.0392 -0.0907  0.0871
  572MOL0     H77153   4.155   5.454   5.982 -0.5635 -2.4389  1.5944
  572MOL0     H77154   4.358   5.321   5.942 -0.7843  0.9439 -1.6468
  572MOL0     H77155   4.618   5.243   5.891  0.4640 -0.7130  0.1892
  572MOL0     H77156   4.599   5.415   5.829  1.2496 -0.6424 -0.3195
  572MOL0     H77157   4.817   5.476   5.901 -1.8263  0.9492 -1.8933
  572MOL0     H77158   4.840   5.322   5.978  0.7843  4.0229  2.5473
  572MOL0     H77159   4.820   5.202   5.774  2.6761 -1.8522 -2.3874
  572MOL0     H77160   4.785   5.334   5.682 -0.6135 -5.4022 -0.7022
  572MOL0     H77161   4.995   5.435   5.755 -0.9689  0.0478  3.6158
  572MOL0     H77162   5.035   5.311   5.870  0.6503 -0.4886  0.1398
  572MOL0     H77163   5.178   5.265   5.679 -0.0558  0.6834  0.0679
  572MOL0     H77164   5.059   5.124   5.702 -0.1494 -0.5716 -0.8173
  572MOL0     H77165   4.928   5.173   5.540  1.4437 -2.5764  2.9466
  572MOL0     H77166   5.009   5.322   5.477 -0.4409 -0.1437 -1.5333
  572MOL0     H77167   5.220   5.192   5.452  0.9364 -2.1901  0.2302
  572MOL0     H77168   5.126   5.045   5.481 -2.2275  0.2880  1.1364
  572MOL0     H77169   5.167   5.090   5.215 -1.4584  0.2815 -2.3278
  572MOL0     H77170   5.126   5.253   5.258  2.4022 -1.1137 -1.8014
  572MOL0     H77171   4.997   4.897   5.238  1.2058  1.1091 -0.3434
  572MOL0     H77172   4.734   4.836   5.110 -0.2743 -0.2857  0.6877
  572MOL0     H77173   4.733   4.806   5.280  2.2880 -0.2053 -1.3431
  572MOL0     H77174   4.508   4.806   5.139  1.3653  1.3754 -3.2884
  572MOL0     H77175   4.518   4.979   5.123 -2.5488 -1.6517 -1.4662
  572MOL0     H77176   4.529   5.006   5.370  0.6280 -1.6375  0.7938
  572MOL0     H77177   4.492   4.832   5.387  0.3088 -0.7829  0.3316
  572MOL0     H77178   4.319   5.053   5.269  1.4520 -0.4747 -1.5175
  572MOL0     H77179   4.273   4.947   5.404 -2.1528  0.4586 -1.3061
  572MOL0     H77180   4.086   5.042   5.338  2.8809  1.8286 -2.4092
  572MOL0     H77181   3.784   5.174   5.237 -0.9977 -2.4026 -1.5133
  572MOL0     H77182   3.746   5.062   5.369 -0.4134 -0.0725 -2.0903
  572MOL0     H77183   3.895   5.158   5.386 -0.1449  3.2317 -0.4016
  572MOL0     H77184   3.456   4.758   5.196  0.5008 -2.0265 -0.7551
  572MOL0     H77185   3.217   4.731   5.164  1.2132 -2.0899  0.3575
  572MOL0     H77186   3.081   4.791   4.733  0.6386  1.8043 -0.5097
  572MOL0     H77187   2.934   4.711   4.797 -0.2318  0.9184 -1.7850
  572MOL0     H77188   3.004   5.007   4.818 -0.3385  1.4206  0.0815
  572MOL0     H77189   2.882   4.939   4.714 -0.4001  2.3102  0.7220
  572MOL0     H77190   2.785   5.032   4.918 -0.3203  0.2413 -2.9820
  572MOL0     H77191   2.874   4.921   5.018  0.1557 -1.8847 -0.3322
  572MOL0     H77192   2.684   4.838   4.797  2.1379  1.6747 -1.2997
  572MOL0     H77193   2.758   4.738   4.932  2.6519  0.7884 -1.7215
  572MOL0     H77194   2.556   4.950   4.962  3.6008  1.5760  0.2548
  572MOL0     H77195   2.635   4.880   5.094 -0.8955  0.7119  0.3591
  572MOL0     H77196   2.459   4.726   4.880 -0.2763  0.6280  0.2000
  572MOL0     H77197   2.549   4.649   5.006  2.6973 -0.2694  2.4022
  572MOL0     H77198   2.321   4.869   5.030 -0.9072 -0.8076 -0.5317
  572MOL0     H77199   2.403   4.817   5.172 -3.3524  0.3417  1.2711
  572MOL0     H77200   2.355   4.572   5.129  3.7023  2.5767  2.3906
  572MOL0     H77201   2.245   4.643   5.006 -2.3041 -2.5994  1.7529
  572MOL0     H77202   3.263   4.862   4.753  2.8474  0.8248 -1.0352
  572MOL0     H77203   3.498   4.890   4.794  1.2446 -1.9908  0.2208
  572MOL0     H77204   3.889   4.806   4.964  0.6193 -0.8610 -0.1613
  572MOL0     H77205   4.121   4.768   5.024  1.6395 -0.0934 -0.1359
  572MOL0     H77206   4.584   5.606   6.173  2.7033 -3.3246 -3.5009
  572MOL0     H77207   4.354   5.713   6.254 -0.7559  0.7712  0.5195
  572MOL0     H77208   3.792   5.525   6.293 -0.8160  0.0828  0.9597
  572MOL0     H77209   3.576   5.652   6.290  0.2171  1.2472  0.1382
  572MOL0     H77210   3.423   5.813   6.289 -0.8521  1.6308 -2.3638
  572MOL0     H77211   3.432   5.857   6.464 -0.3879  2.1399  0.7533
  572MOL0     H77212   3.355   6.046   6.241  0.9263  3.2164  1.1314
  572MOL0     H77213   3.412   6.083   6.403  4.1037 -2.9877  0.3087
  572MOL0     H77214   3.166   6.076   6.428  2.2321  0.9860  0.2171
  572MOL0     H77215   3.209   5.912   6.479  1.3693 -0.6088 -0.6511
  572MOL0     H77216   3.147   5.806   6.267 -1.1630 -0.5094  1.1522
  572MOL0     H77217   3.127   5.965   6.184  1.7104  0.2512 -0.4968
  572MOL0     H77218   2.761   5.889   6.359 -0.7345  2.6652 -0.9399
  572MOL0     H77219   3.813   6.019   6.274 -1.8915  0.7736 -2.3392
  572MOL0     H77220   4.006   5.886   6.222 -0.8260  1.3074 -0.0278
  573MOL0     O77221   2.672   3.512   4.083 -0.1293 -0.0020 -0.6635
  573MOL0     C77222   2.685   3.620   4.132 -0.2155 -0.0103  0.9042
  573MOL0     O77223   2.599   3.676   4.231  0.1371  0.3045 -0.7678
  573MOL0     C77224   2.485   3.613   4.250  0.2781 -0.2655 -0.2145
  573MOL0     C77225   2.492   3.479   4.307  1.0268 -0.7961 -0.0597
  573MOL0     C77226   2.381   3.407   4.346  0.2620  0.2239  0.3993
  573MOL0     C77227   2.259   3.462   4.324 -0.1330 -0.1033  0.5806
  573MOL0     O77228   2.148   3.399   4.358  0.0422  0.4637 -0.0342
  573MOL0     C77229   2.021   3.430   4.300  1.0639  0.1684  0.1965
  573MOL0     C77230   1.929   3.302   4.324  0.4875  0.5895 -0.2482
  573MOL0     C77231   1.780   3.332   4.276  0.1678 -0.3508  0.0709
  573MOL0     C77232   1.687   3.401   4.378 -0.0408 -0.0277 -0.6025
  573MOL0     C77233   1.542   3.398   4.337  0.0452  0.2868  0.0678
  573MOL0     C77234   1.450   3.474   4.435  0.5504 -0.9704  0.4486
  573MOL0     C77235   1.296   3.444   4.445 -0.7371 -0.4560  0.6221
  573MOL0     C77236   1.227   3.482   4.327 -0.2285  0.5442 -0.1344
  573MOL0     N77237   1.089   3.431   4.323 -0.4848  0.1463  0.1562
  573MOL0     C77238   1.049   3.308   4.276 -0.0346 -0.0199 -0.0029
  573MOL0     C77239   0.915   3.304   4.311  0.7590 -0.3770 -0.2712
  573MOL0     C77240   0.803   3.198   4.283 -0.6845  0.7719  0.9796
  573MOL0     C77241   0.734   3.157   4.406 -0.7599 -0.4680  0.5368
  573MOL0     C77242   0.638   3.034   4.402 -0.0573  0.8124 -0.0306
  573MOL0     C77243   0.549   3.017   4.271  0.1372  0.8829  0.5356
  573MOL0     O77244   0.405   3.009   4.302  0.1717 -0.4683  0.5265
  573MOL0     C77245   0.345   3.121   4.360  0.3300 -0.0072  1.0006
  573MOL0     C77246   0.393   3.251   4.375 -0.1186  1.0867 -0.2370
  573MOL0     C77247   0.317   3.349   4.442 -0.2537  0.1615  0.8215
  573MOL0     C77248   0.379   3.491   4.451 -0.0305  1.3639  0.1341
  573MOL0     C77249   0.185   3.320   4.487 -0.5074 -0.0021 -0.2555
  573MOL0     C77250   0.108   3.403   4.586  0.5077  0.2504 -0.4530
  573MOL0     O77251   0.014   3.342   4.655  0.0079  0.0651  0.2537
  573MOL0     C77252  -0.063   3.408   4.744 -0.5988  0.3306 -0.8484
  573MOL0     C77253  -0.147   3.517   4.715  0.7237  0.0110  0.0686
  573MOL0     C77254  -0.234   3.574   4.812 -0.3545  0.1162 -0.3936
  573MOL0     C77255  -0.240   3.511   4.943  0.3634 -0.2823 -0.0675
  573MOL0     O77256  -0.337   3.568   5.028 -0.4803 -0.5966  0.3009
  573MOL0     C77257  -0.352   3.513   5.159  0.5233  0.1162  1.2534
  573MOL0     C77258  -0.455   3.594   5.233 -0.7647  0.0006 -0.1748
  573MOL0     C77259  -0.456   3.542   5.380  0.0497 -0.0397 -0.2089
  573MOL0     C77260  -0.586   3.451   5.394  0.2910 -1.0331 -0.3915
  573MOL0     C77261  -0.595   3.398   5.542  0.0660  0.4145 -0.1237
  573MOL0     C77262  -0.738   3.350   5.568 -0.0470 -0.6306 -0.2263
  573MOL0     C77263  -0.760   3.283   5.707 -0.5771  0.1439  0.9580
  573MOL0     C77264  -0.892   3.219   5.694  0.4756  0.4056 -0.4252
  573MOL0    Cl77265  -0.933   3.156   5.859 -0.3014 -0.4303 -0.0750
  573MOL0     C77266  -0.151   3.406   4.965  0.1463 -0.8561 -0.2364
  573MOL0     C77267  -0.064   3.357   4.869 -0.0483 -0.8796  0.7369
  573MOL0     O77268   0.143   3.514   4.599 -0.9421  0.2147 -0.5671
  573MOL0     C77269   0.139   3.183   4.469  0.2646 -0.0601  0.0238
  573MOL0     C77270   0.215   3.088   4.397 -0.0272 -0.2128  0.3846
  573MOL0     N77271   0.886   3.427   4.366  0.3531 -0.6341  0.0745
  573MOL0     N77272   0.989   3.499   4.377  0.3863  0.7605 -0.2426
  573MOL0     C77273   2.244   3.593   4.270 -0.1245 -0.3782 -0.7821
  573MOL0     C77274   2.358   3.665   4.228 -0.9444 -0.0265 -0.8047
  573MOL0     C77275   2.810   3.694   4.086  0.9517 -0.5229  1.0173
  573MOL0     C77276   2.824   3.828   4.102 -0.1237 -0.4645 -1.2973
  573MOL0     C77277   2.949   3.891   4.068  0.4947 -1.0236 -0.2520
  573MOL0     C77278   3.056   3.826   4.011  0.2982  0.4313  0.1337
  573MOL0     O77279   3.177   3.882   3.963  0.6755 -0.1181 -0.7168
  573MOL0     C77280   3.195   4.022   3.972 -0.2024 -0.4869  0.1524
  573MOL0     C77281   3.319   4.053   3.887 -0.2478  0.2504 -0.2587
  573MOL0     C77282   3.364   4.192   3.927  0.1179 -1.7456 -0.4965
  573MOL0     C77283   3.506   4.219   3.883  0.4264 -0.6004  0.0575
  573MOL0     C77284   3.512   4.213   3.738  0.2812 -0.3242 -0.4243
  573MOL0     C77285   3.504   4.228   3.615  0.3464 -0.3260 -0.0739
  573MOL0     C77286   3.035   3.696   3.987 -0.2638 -0.0213 -0.4908
  573MOL0     C77287   2.908   3.627   4.018  0.0097 -0.3141  0.4582
  573MOL0     H77288   2.590   3.447   4.341  1.0411 -2.6561 -1.6725
  573MOL0     H77289   2.378   3.313   4.400 -4.2154 -0.1918 -0.2044
  573MOL0     H77290   1.976   3.511   4.359 -3.0625 -1.4718 -0.3388
  573MOL0     H77291   2.024   3.453   4.193  2.2485 -1.5295 -0.1688
  573MOL0     H77292   1.958   3.216   4.263 -1.0167 -1.6878  2.0587
  573MOL0     H77293   1.935   3.266   4.427  1.2585 -1.8346 -1.0732
  573MOL0     H77294   1.780   3.384   4.180 -0.6199  0.3227  0.4233
  573MOL0     H77295   1.744   3.231   4.251 -0.6433 -0.1447  0.3751
  573MOL0     H77296   1.699   3.362   4.480  0.6427 -2.2657 -1.4864
  573MOL0     H77297   1.718   3.506   4.381 -0.7234  0.2342 -1.9655
  573MOL0     H77298   1.528   3.417   4.230 -0.3083 -1.4239 -0.2185
  573MOL0     H77299   1.513   3.292   4.341  2.3701 -0.4775 -1.4443
  573MOL0     H77300   1.491   3.449   4.534  2.4837  0.2873  0.0076
  573MOL0     H77301   1.465   3.580   4.412  1.8818 -1.2478 -0.0471
  573MOL0     H77302   1.287   3.336   4.462  1.7379 -1.1868 -1.9158
  573MOL0     H77303   1.267   3.495   4.537  1.3708  1.8295  0.1371
  573MOL0     H77304   1.292   3.450   4.245  1.0042 -1.7031  1.6105
  573MOL0     H77305   1.221   3.591   4.321 -0.6554  0.4340 -2.7180
  573MOL0     H77306   1.100   3.239   4.210 -1.2019 -0.6823 -0.2531
  573MOL0     H77307   0.736   3.234   4.204 -1.0996 -2.0798 -0.1009
  573MOL0     H77308   0.855   3.111   4.243 -1.3250  0.4733  0.7914
  573MOL0     H77309   0.681   3.249   4.432 -2.4513 -1.7402  1.8175
  573MOL0     H77310   0.814   3.130   4.475  0.2845  0.9880 -0.0598
  573MOL0     H77311   0.582   3.038   4.496  1.7128  0.2018  1.1043
  573MOL0     H77312   0.700   2.944   4.409  1.8700  2.1824  1.8247
  573MOL0     H77313   0.578   2.924   4.221 -1.8031  1.6807 -2.3207
  573MOL0     H77314   0.566   3.100   4.202  1.0882  1.1332  1.0637
  573MOL0     H77315   0.493   3.276   4.341  0.3158 -2.1433 -1.7611
  573MOL0     H77316   0.468   3.502   4.389 -0.5056  0.5416 -0.7100
  573MOL0     H77317   0.311   3.571   4.421  0.8787  1.7347 -0.9835
  573MOL0     H77318   0.395   3.518   4.556  0.2166  2.1249 -0.0899
  573MOL0     H77319  -0.152   3.556   4.614 -1.6874  0.8293  0.4475
  573MOL0     H77320  -0.299   3.658   4.787  1.6140  1.1884 -2.3384
  573MOL0     H77321  -0.383   3.409   5.149  2.9917 -0.5470 -0.5623
  573MOL0     H77322  -0.252   3.515   5.202  1.2981  2.3369 -0.4652
  573MOL0     H77323  -0.407   3.692   5.225  0.4049 -0.6663 -1.8933
  573MOL0     H77324  -0.551   3.587   5.180  1.0819 -1.9553 -3.5962
  573MOL0     H77325  -0.460   3.619   5.458 -0.9292 -2.1371  1.9523
  573MOL0     H77326  -0.367   3.486   5.409  0.3529  0.2762 -0.5199
  573MOL0     H77327  -0.669   3.518   5.369  1.3627  0.5021  0.0451
  573MOL0     H77328  -0.576   3.371   5.320  1.0747 -0.2397 -1.1818
  573MOL0     H77329  -0.577   3.473   5.620 -1.8934 -0.3064  1.1118
  573MOL0     H77330  -0.529   3.311   5.547 -0.1292  0.1727 -1.5540
  573MOL0     H77331  -0.806   3.436   5.565  0.6894  0.0292  1.2031
  573MOL0     H77332  -0.774   3.291   5.483 -4.2754  1.2826 -0.0425
  573MOL0     H77333  -0.768   3.367   5.777 -1.5608  3.3602 -2.6724
  573MOL0     H77334  -0.678   3.213   5.723 -1.4395 -1.2181 -0.3708
  573MOL0     H77335  -0.884   3.135   5.625  0.0393 -1.5028  1.7553
  573MOL0     H77336  -0.967   3.295   5.669  0.0615  0.4429  0.8313
  573MOL0     H77337  -0.148   3.355   5.060 -2.5466  0.2493  0.5505
  573MOL0     H77338  -0.003   3.273   4.900  1.2920 -0.8270 -1.4958
  573MOL0     H77339   0.041   3.155   4.505  0.0677  1.4995  0.7986
  573MOL0     H77340   0.199   2.986   4.364  1.7293  0.6747 -3.8591
  573MOL0     H77341   2.148   3.643   4.265 -0.5745 -1.1836 -0.4688
  573MOL0     H77342   2.339   3.767   4.196 -2.4582 -0.3129 -0.8950
  573MOL0     H77343   2.750   3.893   4.147 -1.0910 -2.4977  0.2083
  573MOL0     H77344   2.958   3.995   4.098  1.2353 -1.1821  0.1010
  573MOL0     H77345   3.104   4.075   3.941  0.3821  0.0357 -0.7055
  573MOL0     H77346   3.201   4.054   4.077  0.5967  1.0389 -0.3301
  573MOL0     H77347   3.288   4.044   3.782 -1.6175 -1.5589  0.2471
  573MOL0     H77348   3.394   3.978   3.910  0.8345  2.1998  3.4071
  573MOL0     H77349   3.361   4.201   4.036  2.3569 -3.2462 -0.2490
  573MOL0     H77350   3.297   4.269   3.886  3.3787  2.0145  0.5549
  573MOL0     H77351   3.565   4.140   3.930  1.2093 -0.0262  0.0691
  573MOL0     H77352   3.543   4.315   3.922 -0.9827 -0.7840  2.0169
  573MOL0     H77353   3.487   4.242   3.510 -2.5149 -2.4120 -0.0288
  573MOL0     H77354   3.112   3.645   3.930  0.4267 -0.1556  0.5380
  573MOL0     H77355   2.908   3.520   3.996 -0.4649 -0.8141  2.6831
  574MOL0     O77356   7.081   7.241   2.597 -1.7048  0.0814  0.6913
  574MOL0     C77357   7.131   7.256   2.707 -0.5586 -0.0037 -0.5282
  574MOL0     O77358   7.066   7.247   2.825  0.4807  0.3294 -0.7072
  574MOL0     C77359   6.938   7.276   2.824 -0.4671 -0.2718  0.0622
  574MOL0     C77360   6.880   7.390   2.890 -0.5859  0.6969  0.1069
  574MOL0     C77361   6.745   7.408   2.904 -0.6951  0.4597 -1.2475
  574MOL0     C77362   6.657   7.309   2.868  0.1472 -0.1131 -0.2552
  574MOL0     O77363   6.525   7.326   2.897 -0.5857  0.0754 -0.1171
  574MOL0     C77364   6.450   7.202   2.919 -0.2131 -0.2676 -0.3954
  574MOL0     C77365   6.339   7.182   2.815  0.1204 -0.4330 -0.3348
  574MOL0     C77366   6.260   7.059   2.849 -0.2977  0.1994  0.1385
  574MOL0     C77367   6.132   7.056   2.767  0.6128 -0.2948  0.5762
  574MOL0     C77368   6.031   7.162   2.802 -0.0395  0.0102  0.1689
  574MOL0     C77369   5.975   7.151   2.950 -0.4902  0.1806  0.2513
  574MOL0     C77370   5.880   7.278   2.974 -0.0671 -0.0155 -0.6621
  574MOL0     C77371   5.753   7.287   2.891  0.5570  0.9497  0.3856
  574MOL0     N77372   5.643   7.376   2.929 -0.5983  0.1248 -0.3634
  574MOL0     C77373   5.660   7.515   2.944  0.3022 -0.1034  0.4688
  574MOL0     C77374   5.535   7.560   2.971  0.1015 -0.3151  0.0189
  574MOL0     C77375   5.508   7.702   2.989  0.1899 -0.4452 -0.2792
  574MOL0     C77376   5.512   7.780   2.851 -0.1320  0.6788  0.1668
  574MOL0     C77377   5.532   7.934   2.862  0.3411 -0.4163  0.1560
  574MOL0     C77378   5.667   7.972   2.922  0.2480  0.3063  0.1135
  574MOL0     O77379   5.653   7.979   3.061 -0.2732 -0.4256 -0.2159
  574MOL0     C77380   5.776   7.980   3.125  0.3759 -0.5144 -0.3609
  574MOL0     C77381   5.781   8.079   3.229 -0.0019  0.1779 -0.0365
  574MOL0     C77382   5.887   8.083   3.319 -0.5719  0.0607 -0.7267
  574MOL0     C77383   5.883   8.207   3.415 -0.4371  0.4934 -0.0535
  574MOL0     C77384   5.992   7.986   3.309 -0.0627  0.2516 -0.8936
  574MOL0     C77385   6.115   7.975   3.402 -0.2871 -0.2270  0.8486
  574MOL0     O77386   6.207   7.881   3.369 -0.4254 -0.5376  0.4297
  574MOL0     C77387   6.332   7.892   3.430  0.6830  0.3244  0.2220
  574MOL0     C77388   6.436   7.975   3.372  1.2005  0.2569 -0.0299
  574MOL0     C77389   6.561   7.997   3.443  0.6563 -0.0149 -0.1105
  574MOL0     C77390   6.572   7.938   3.576 -0.2799  0.6301 -0.1989
  574MOL0     O77391   6.674   7.944   3.673  0.0791  0.4209  0.2386
  574MOL0     C77392   6.803   7.966   3.612  0.5575 -0.0413 -0.3694
  574MOL0     C77393   6.904   7.974   3.723  0.9685  0.6547 -0.2149
  574MOL0     C77394   7.043   7.962   3.664  0.0123  0.0290 -0.1099
  574MOL0     C77395   7.160   7.943   3.762 -0.5603 -0.2216 -0.0998
  574MOL0     C77396   7.292   7.906   3.677  0.3698  0.4480 -1.5053
  574MOL0     C77397   7.393   7.870   3.781 -0.3213  0.2781 -1.0283
  574MOL0     C77398   7.531   7.854   3.712 -0.4643  0.3222 -1.1745
  574MOL0     C77399   7.544   7.729   3.619 -0.2611 -0.0358  0.0946
  574MOL0    Cl77400   7.707   7.677   3.567  0.4299 -0.1272  0.0209
  574MOL0     C77401   6.467   7.854   3.631 -0.7081 -0.0598 -0.1770
  574MOL0     C77402   6.353   7.835   3.554 -0.3590 -0.2457 -0.8202
  574MOL0     O77403   6.133   8.053   3.493  0.1543 -0.0980  0.1860
  574MOL0     C77404   5.980   7.888   3.211 -1.2539 -0.0508  0.2085
  574MOL0     C77405   5.879   7.892   3.111  0.6800  0.0296 -0.1993
  574MOL0     N77406   5.445   7.450   2.982  0.6012 -0.7389  0.7260
  574MOL0     N77407   5.510   7.344   2.950  0.8471 -0.3530  0.0518
  574MOL0     C77408   6.706   7.185   2.810  0.2554  0.0675 -0.1651
  574MOL0     C77409   6.849   7.169   2.788  0.1480 -1.0608 -0.3304
  574MOL0     C77410   7.277   7.271   2.700  0.4248 -0.3587 -0.3232
  574MOL0     C77411   7.359   7.213   2.601  0.3894 -0.2450 -0.3886
  574MOL0     C77412   7.496   7.202   2.628 -0.0846 -0.2116  0.5519
  574MOL0     C77413   7.565   7.270   2.734  0.1941  0.4505 -0.4844
  574MOL0     O77414   7.706   7.273   2.745  0.2652 -0.7187  0.0901
  574MOL0     C77415   7.777   7.164   2.677 -0.1819 -0.5432 -0.2144
  574MOL0     C77416   7.918   7.183   2.720  0.7529  0.6468  0.0066
  574MOL0     C77417   7.986   7.311   2.674  0.2622  0.6710  0.0088
  574MOL0     C77418   8.137   7.329   2.684 -0.1232  0.4360 -0.0930
  574MOL0     C77419   8.217   7.247   2.593  1.0777 -0.5667  0.4287
  574MOL0     C77420   8.283   7.180   2.519 -0.0527 -0.7265  0.8091
  574MOL0     C77421   7.486   7.345   2.818  0.2145  0.0382 -0.1293
  574MOL0     C77422   7.340   7.343   2.806 -0.4062 -0.7074 -0.4531
  574MOL0     H77423   6.950   7.458   2.937  1.1076  0.6935 -2.2167
  574MOL0     H77424   6.714   7.496   2.960  1.2263 -0.6682  1.8639
  574MOL0     H77425   6.507   7.111   2.940 -1.3714 -1.4588 -2.1491
  574MOL0     H77426   6.405   7.220   3.017 -0.1762 -0.5875 -0.3175
  574MOL0     H77427   6.276   7.272   2.818  0.0040 -0.4851 -1.0865
  574MOL0     H77428   6.379   7.169   2.714 -1.0328 -0.4350 -0.8150
  574MOL0     H77429   6.325   6.971   2.845  1.5599  1.5263 -0.6322
  574MOL0     H77430   6.238   7.060   2.956  2.4285  0.8124  0.7819
  574MOL0     H77431   6.142   7.064   2.659 -0.9602  0.9744  0.4887
  574MOL0     H77432   6.083   6.959   2.785 -0.2168 -0.1807 -0.9442
  574MOL0     H77433   6.069   7.259   2.772  2.2899 -0.4626  1.3543
  574MOL0     H77434   5.944   7.138   2.741  0.5614 -2.3088  0.1188
  574MOL0     H77435   5.907   7.065   2.954  0.2260 -0.4291 -0.3782
  574MOL0     H77436   6.056   7.148   3.023 -0.1234 -1.4551 -0.1960
  574MOL0     H77437   5.855   7.288   3.080 -3.6726  0.5504 -1.4211
  574MOL0     H77438   5.935   7.371   2.954 -0.5050 -0.0681 -2.2874
  574MOL0     H77439   5.699   7.192   2.899  2.8748 -0.4325  0.3309
  574MOL0     H77440   5.785   7.285   2.786  1.6933 -3.4851  0.6233
  574MOL0     H77441   5.745   7.582   2.947 -0.8032  1.9652 -4.3420
  574MOL0     H77442   5.415   7.715   3.045  0.7391 -4.1667  1.8214
  574MOL0     H77443   5.588   7.738   3.055 -1.5917  0.0549  1.7391
  574MOL0     H77444   5.415   7.757   2.807 -0.0120 -0.8543  0.6389
  574MOL0     H77445   5.602   7.742   2.802  1.8404  2.8485  1.8758
  574MOL0     H77446   5.443   7.966   2.918  0.4436  1.9851 -0.9357
  574MOL0     H77447   5.523   7.983   2.765 -1.3806 -2.3742 -0.7501
  574MOL0     H77448   5.706   8.065   2.878 -1.5229  0.6005 -0.9188
  574MOL0     H77449   5.740   7.893   2.900 -1.9217 -2.0815  0.9847
  574MOL0     H77450   5.697   8.148   3.237  0.2548  0.6737 -1.3676
  574MOL0     H77451   5.793   8.268   3.411 -0.9894 -0.2007  1.2288
  574MOL0     H77452   5.875   8.157   3.512 -0.0479  0.3412 -0.0960
  574MOL0     H77453   5.970   8.270   3.394  0.0654 -0.8245 -2.2496
  574MOL0     H77454   6.435   8.028   3.277 -1.3665 -1.6854 -1.2292
  574MOL0     H77455   6.638   8.061   3.402  2.5005 -0.5449  2.3068
  574MOL0     H77456   6.817   7.885   3.540 -0.4959  0.8242 -1.5804
  574MOL0     H77457   6.804   8.060   3.556  0.5441  0.9667  1.2501
  574MOL0     H77458   6.905   8.072   3.773  0.1436 -0.1029  1.3655
  574MOL0     H77459   6.881   7.890   3.789  1.6561  0.9302  0.3982
  574MOL0     H77460   7.063   8.057   3.615 -0.8362  0.1418 -0.2477
  574MOL0     H77461   7.044   7.878   3.594 -3.7886 -0.1391 -0.2087
  574MOL0     H77462   7.183   8.031   3.823 -1.1160 -0.5900  0.6664
  574MOL0     H77463   7.131   7.865   3.833 -1.3482  0.8049  0.7448
  574MOL0     H77464   7.322   7.988   3.611  0.0889  1.4331 -0.4443
  574MOL0     H77465   7.265   7.821   3.615  0.4322  0.4772 -1.5724
  574MOL0     H77466   7.398   7.955   3.848 -0.6251 -0.0377 -0.6017
  574MOL0     H77467   7.363   7.780   3.835  0.4223 -0.1214 -1.2603
  574MOL0     H77468   7.604   7.853   3.794 -3.3632  2.0159  1.6470
  574MOL0     H77469   7.559   7.944   3.656  1.9057  0.1341 -0.4390
  574MOL0     H77470   7.491   7.746   3.525 -0.3568 -1.8923 -0.2232
  574MOL0     H77471   7.501   7.640   3.667 -1.8594  1.6410  1.9933
  574MOL0     H77472   6.490   7.799   3.722  0.2818  2.1762  1.0180
  574MOL0     H77473   6.273   7.767   3.583  0.6757 -0.2159  2.5230
  574MOL0     H77474   6.054   7.810   3.191  2.2119  2.8832  0.5495
  574MOL0     H77475   5.881   7.804   3.049 -0.5971 -0.0395 -0.1694
  574MOL0     H77476   6.639   7.100   2.797  0.2974 -0.3156  1.8143
  574MOL0     H77477   6.895   7.083   2.742  0.8406 -0.2962 -1.0929
  574MOL0     H77478   7.313   7.158   2.520  1.8138 -0.8300 -0.8370
  574MOL0     H77479   7.547   7.134   2.561  0.2134  0.6408 -0.1083
  574MOL0     H77480   7.747   7.064   2.708 -0.5094  0.8854  5.1638
  574MOL0     H77481   7.761   7.184   2.571 -4.5276  2.0497  0.6697
  574MOL0     H77482   7.967   7.094   2.682 -2.1452  0.1391 -3.0563
  574MOL0     H77483   7.932   7.172   2.828  3.7965 -1.7504 -0.5019
  574MOL0     H77484   7.929   7.395   2.713 -1.3497 -0.2191 -0.3235
  574MOL0     H77485   7.957   7.315   2.568  0.2819  1.9578  0.0362
  574MOL0     H77486   8.172   7.304   2.784 -1.1261 -0.9562 -0.0561
  574MOL0     H77487   8.177   7.427   2.656  2.1688 -0.0831  1.0858
  574MOL0     H77488   8.351   7.120   2.461  1.6658  1.3243  0.6036
  574MOL0     H77489   7.532   7.408   2.894  0.6504 -0.8354  0.3480
  574MOL0     H77490   7.274   7.398   2.872 -0.3636  0.9923 -1.7628
  575MOL0     O77491   4.163   6.968   7.244 -0.3952  0.6167 -1.1894
  575MOL0     C77492   4.120   6.991   7.359  0.0786 -0.3445 -0.8018
  575MOL0     O77493   3.986   7.021   7.388  0.4804  0.0298  0.0603
  575MOL0     C77494   3.902   6.969   7.301  0.3997  1.3949  0.4667
  575MOL0     C77495   3.811   7.041   7.221 -0.3908  0.0828 -0.3771
  575MOL0     C77496   3.712   6.975   7.143 -0.3002  0.1133 -0.4783
  575MOL0     C77497   3.699   6.842   7.142  0.7551  0.2733 -0.4827
  575MOL0     O77498   3.608   6.769   7.071  0.4294 -0.3795  0.1083
  575MOL0     C77499   3.583   6.813   6.939 -0.4397  0.6551 -0.8725
  575MOL0     C77500   3.434   6.824   6.912  0.2591 -0.4457 -0.3118
  575MOL0     C77501   3.367   6.690   6.912 -0.1882  0.2741  0.7030
  575MOL0     C77502   3.225   6.702   6.854 -0.8326 -0.1909  0.6662
  575MOL0     C77503   3.140   6.745   6.966  1.0674 -0.1135  0.1639
  575MOL0     C77504   2.995   6.780   6.917  0.0766 -0.6803 -0.2922
  575MOL0     C77505   2.918   6.658   6.840 -0.5032 -0.6322 -0.3049
  575MOL0     C77506   2.774   6.693   6.801 -1.2991  0.4632 -0.8416
  575MOL0     N77507   2.711   6.786   6.894  0.2955 -0.2361 -0.1163
  575MOL0     C77508   2.650   6.749   7.015  0.3077 -0.4479 -0.4616
  575MOL0     C77509   2.591   6.864   7.056 -0.4026 -1.0297 -1.0171
  575MOL0     C77510   2.521   6.868   7.193  0.3718 -0.0161  0.3720
  575MOL0     C77511   2.392   6.952   7.194 -0.6488 -0.2047 -0.0138
  575MOL0     C77512   2.330   6.951   7.331 -0.2401  0.0238 -0.6375
  575MOL0     C77513   2.182   6.972   7.313  0.1549  0.7293 -0.7956
  575MOL0     O77514   2.115   7.001   7.438 -0.7436 -0.0109  0.3891
  575MOL0     C77515   1.982   7.043   7.427 -1.3366  0.7184  0.2179
  575MOL0     C77516   1.909   7.067   7.311 -0.4824  0.6488  0.0351
  575MOL0     C77517   1.770   7.090   7.316 -0.8759 -1.1525  0.2023
  575MOL0     C77518   1.705   7.135   7.192 -0.2283 -0.4511  1.1446
  575MOL0     C77519   1.707   7.088   7.442  0.4908  0.9698  0.0684
  575MOL0     C77520   1.555   7.112   7.460 -0.0194 -0.4687 -0.6166
  575MOL0     O77521   1.511   7.122   7.592 -0.6407  0.7204 -0.6508
  575MOL0     C77522   1.385   7.131   7.644  0.3307 -0.1410 -0.2002
  575MOL0     C77523   1.268   7.078   7.583 -0.3450  0.2508  0.7203
  575MOL0     C77524   1.141   7.100   7.629 -0.1754  0.4614 -1.0525
  575MOL0     C77525   1.125   7.166   7.749  0.3000  0.1918  1.5871
  575MOL0     O77526   0.997   7.164   7.805 -0.7104  0.2338 -0.4662
  575MOL0     C77527   0.938   7.277   7.873  0.1095  0.6410 -0.3629
  575MOL0     C77528   0.862   7.367   7.776  0.8567  0.0383  0.8652
  575MOL0     C77529   0.756   7.296   7.710  0.6609 -0.0147 -0.5049
  575MOL0     C77530   0.665   7.399   7.620 -0.2924  1.5004  0.9816
  575MOL0     C77531   0.601   7.307   7.512  0.1098 -0.1703 -0.3217
  575MOL0     C77532   0.455   7.277   7.553  0.2080  0.2168 -0.1498
  575MOL0     C77533   0.376   7.194   7.455  0.8348 -0.8656  0.4539
  575MOL0     C77534   0.274   7.098   7.510 -0.4591 -0.2226 -0.1444
  575MOL0    Cl77535   0.165   7.187   7.620  0.1069  0.2151 -0.2982
  575MOL0     C77536   1.238   7.220   7.818 -0.4421 -0.0224 -0.1395
  575MOL0     C77537   1.363   7.205   7.758  0.1238 -0.9043  0.3126
  575MOL0     O77538   1.480   7.126   7.359  0.0459 -0.3091 -0.6825
  575MOL0     C77539   1.784   7.061   7.553 -0.3197 -0.0876 -0.2251
  575MOL0     C77540   1.923   7.047   7.542  0.1498 -0.3044 -0.4126
  575MOL0     N77541   2.616   6.965   6.973 -0.2477  0.8242  0.3099
  575MOL0     N77542   2.693   6.922   6.872 -0.7360  0.1933 -0.4071
  575MOL0     C77543   3.783   6.770   7.225  0.4168  0.1419  0.0667
  575MOL0     C77544   3.886   6.827   7.302  0.6094  0.2290  0.2201
  575MOL0     C77545   4.216   7.021   7.477 -0.6825 -0.1045  0.3333
  575MOL0     C77546   4.166   6.982   7.606  0.3219  0.1545  0.0298
  575MOL0     C77547   4.246   6.970   7.720 -0.5341  0.6646 -0.6980
  575MOL0     C77548   4.383   7.002   7.707 -0.1461  0.2291  0.3488
  575MOL0     O77549   4.474   6.976   7.808  0.1106  0.2582  0.3797
  575MOL0     C77550   4.436   6.931   7.945  0.0785  0.1094 -0.4067
  575MOL0     C77551   4.404   7.050   8.044  0.3873 -0.2114  1.3877
  575MOL0     C77552   4.257   7.108   8.029  0.1572  0.0137  0.0226
  575MOL0     C77553   4.253   7.236   7.935 -0.7119 -0.1875  0.0035
  575MOL0     C77554   4.124   7.305   7.944 -0.2319 -0.1446  0.5368
  575MOL0     C77555   4.011   7.352   7.950 -0.0149  1.1671 -0.1772
  575MOL0     C77556   4.430   7.059   7.585  0.3205  0.0289 -0.2397
  575MOL0     C77557   4.350   7.056   7.470  0.8112 -0.1149  0.7001
  575MOL0     H77558   3.818   7.149   7.226 -0.9385  0.0997  0.0833
  575MOL0     H77559   3.625   7.027   7.104 -0.6301  0.5954  0.8525
  575MOL0     H77560   3.647   6.896   6.909  2.6711 -0.5227  1.9219
  575MOL0     H77561   3.625   6.734   6.876  0.5862  1.1068 -0.7782
  575MOL0     H77562   3.377   6.895   6.972 -0.7118  0.7918 -2.5608
  575MOL0     H77563   3.423   6.868   6.812 -0.2251  0.6051  0.1838
  575MOL0     H77564   3.427   6.623   6.851  1.3108  1.0796  1.2285
  575MOL0     H77565   3.369   6.648   7.013  3.8192  0.7116  0.9598
  575MOL0     H77566   3.224   6.768   6.767 -0.9553 -0.9053  0.1181
  575MOL0     H77567   3.203   6.603   6.813 -2.0951 -0.3944  1.7924
  575MOL0     H77568   3.129   6.662   7.036  0.4288 -0.4146 -0.2811
  575MOL0     H77569   3.195   6.828   7.013  2.3881 -0.2962 -1.0040
  575MOL0     H77570   2.944   6.808   7.009  1.7990 -0.1445  0.5500
  575MOL0     H77571   3.001   6.864   6.848 -3.3912 -0.5256 -0.5537
  575MOL0     H77572   2.973   6.651   6.746  1.4204  0.4209  0.6859
  575MOL0     H77573   2.921   6.558   6.885 -1.9116 -1.8346 -2.6859
  575MOL0     H77574   2.714   6.602   6.791 -0.3826 -0.2985  0.2667
  575MOL0     H77575   2.782   6.736   6.701 -0.1126  0.2345 -0.8607
  575MOL0     H77576   2.644   6.647   7.052  0.1504 -0.4500 -0.4906
  575MOL0     H77577   2.503   6.764   7.220 -0.8395  0.2210  0.5503
  575MOL0     H77578   2.590   6.912   7.266  1.7823  0.1831 -1.0481
  575MOL0     H77579   2.320   6.917   7.119 -0.0116 -1.1790 -0.1851
  575MOL0     H77580   2.417   7.052   7.157 -3.4831  0.2176 -1.0425
  575MOL0     H77581   2.366   7.018   7.410 -2.0997 -1.3123  1.4661
  575MOL0     H77582   2.347   6.849   7.365 -1.2618 -0.3876 -1.3308
  575MOL0     H77583   2.140   6.885   7.261  2.7261 -1.1920  0.1086
  575MOL0     H77584   2.165   7.059   7.250  1.4680  0.6254 -1.3328
  575MOL0     H77585   1.956   7.067   7.213 -1.1777 -1.1226 -0.3230
  575MOL0     H77586   1.653   7.230   7.208 -1.4523 -0.3529 -2.4947
  575MOL0     H77587   1.761   7.149   7.099 -2.3149 -0.7597 -0.2245
  575MOL0     H77588   1.634   7.055   7.169 -0.0899 -1.0516  2.7057
  575MOL0     H77589   1.291   7.026   7.491  3.4398  0.0507  1.6265
  575MOL0     H77590   1.057   7.077   7.564 -1.2654  1.3597 -0.0132
  575MOL0     H77591   0.866   7.224   7.937  0.0097  1.8578  0.5673
  575MOL0     H77592   1.003   7.340   7.934  0.2293  2.9311 -2.7268
  575MOL0     H77593   0.829   7.454   7.834 -0.5781 -0.4811  0.8652
  575MOL0     H77594   0.930   7.399   7.696 -2.4195 -1.9532 -3.1431
  575MOL0     H77595   0.690   7.237   7.775  2.3737  1.8063  3.1990
  575MOL0     H77596   0.801   7.222   7.643 -0.1235 -1.7087  0.7617
  575MOL0     H77597   0.583   7.453   7.668 -0.6480  2.0190 -0.1779
  575MOL0     H77598   0.728   7.470   7.567 -1.4749  0.9475 -1.3200
  575MOL0     H77599   0.654   7.214   7.492 -1.3807 -0.7620 -1.6904
  575MOL0     H77600   0.597   7.373   7.425  0.6241  2.4905  1.5260
  575MOL0     H77601   0.455   7.224   7.648  0.9688 -0.5642 -0.5713
  575MOL0     H77602   0.406   7.374   7.556  1.1007  0.6587  0.6765
  575MOL0     H77603   0.453   7.139   7.401  0.5492 -0.1225 -0.7330
  575MOL0     H77604   0.331   7.252   7.375  2.0587 -0.3843  0.1003
  575MOL0     H77605   0.315   7.011   7.562 -2.0479 -1.7750 -1.3716
  575MOL0     H77606   0.218   7.057   7.425 -1.8819  0.3188  0.5051
  575MOL0     H77607   1.219   7.281   7.906 -0.0109 -0.0012 -0.0613
  575MOL0     H77608   1.454   7.255   7.791  0.0365 -0.0802 -0.6691
  575MOL0     H77609   1.739   7.046   7.651  2.0343  0.5028  1.0510
  575MOL0     H77610   1.982   7.024   7.630  3.5950  2.2755 -1.8035
  575MOL0     H77611   3.778   6.662   7.231 -1.2535  0.2456  1.2805
  575MOL0     H77612   3.944   6.759   7.362  0.1077 -1.3568 -1.0273
  575MOL0     H77613   4.064   6.950   7.620  0.2874 -0.1645 -0.9145
  575MOL0     H77614   4.204   6.924   7.808  2.5036 -1.1070 -0.0102
  575MOL0     H77615   4.360   6.852   7.941  0.2848 -0.4312  3.1147
  575MOL0     H77616   4.520   6.881   7.994 -0.6743  1.0569  2.0105
  575MOL0     H77617   4.473   7.134   8.046 -1.9877  1.9375 -0.6635
  575MOL0     H77618   4.405   7.004   8.144  0.8207 -3.6440 -0.0429
  575MOL0     H77619   4.227   7.161   8.120  0.0512  1.1844 -0.6666
  575MOL0     H77620   4.177   7.040   7.999  1.5406 -0.6744 -2.3748
  575MOL0     H77621   4.266   7.207   7.831  0.8709  0.2284  0.0576
  575MOL0     H77622   4.334   7.306   7.961  1.7720 -2.6324 -0.7350
  575MOL0     H77623   3.907   7.379   7.955 -0.7991 -1.5820  0.2707
  575MOL0     H77624   4.533   7.091   7.580 -0.5554  3.0108 -2.1466
  575MOL0     H77625   4.396   7.072   7.374  1.0270 -0.7600  0.6971
  576MOL0     O77626  11.216   4.593   5.250 -0.3262  0.1102 -0.5994
  576MOL0     C77627  11.289   4.499   5.227 -0.4429  0.9017  0.5687
  576MOL0     O77628  11.254   4.366   5.258 -0.1291 -0.2800  0.0097
  576MOL0     C77629  11.143   4.313   5.307  0.3275  0.1338  1.0264
  576MOL0     C77630  11.147   4.195   5.373 -0.1120 -0.0577 -0.8399
  576MOL0     C77631  11.033   4.123   5.401 -0.2839  0.2010 -0.4675
  576MOL0     C77632  10.908   4.158   5.354  0.1335 -0.2047  0.7348
  576MOL0     O77633  10.801   4.078   5.382 -0.9667  0.7493  0.2809
  576MOL0     C77634  10.760   4.046   5.510  0.0098  0.4866  0.1483
  576MOL0     C77635  10.603   4.066   5.520  0.6363  0.4462 -0.8162
  576MOL0     C77636  10.510   3.939   5.509 -0.3409  0.3744 -0.0807
  576MOL0     C77637  10.363   3.963   5.542  0.3951  0.2353  0.2431
  576MOL0     C77638  10.284   3.838   5.502 -0.0622  0.5271  0.5093
  576MOL0     C77639  10.132   3.872   5.511  0.4994 -0.1944  0.8159
  576MOL0     C77640  10.056   3.741   5.529 -0.2653  1.2211 -0.2954
  576MOL0     C77641   9.909   3.775   5.562  0.6085 -0.0251 -0.4525
  576MOL0     N77642   9.813   3.670   5.530  1.2505 -0.8804 -0.1022
  576MOL0     C77643   9.746   3.598   5.630 -0.8125  0.3659 -0.1205
  576MOL0     C77644   9.675   3.507   5.556  0.7176 -0.2014  0.5840
  576MOL0     C77645   9.579   3.406   5.604 -0.5314  1.3261  0.1798
  576MOL0     C77646   9.468   3.450   5.703 -0.3681  0.3382  0.5842
  576MOL0     C77647   9.383   3.338   5.759 -0.0775 -0.4424  0.4196
  576MOL0     C77648   9.255   3.384   5.824  0.4429  0.5558  0.4661
  576MOL0     O77649   9.165   3.444   5.726 -0.7397  1.0517  0.0110
  576MOL0     C77650   9.033   3.454   5.750 -0.5748 -0.6071  0.2040
  576MOL0     C77651   8.994   3.451   5.890  0.2363  1.1352  0.5603
  576MOL0     C77652   8.858   3.464   5.920  0.5124  0.0401 -0.6530
  576MOL0     C77653   8.824   3.475   6.063  0.3130  0.2370 -0.0053
  576MOL0     C77654   8.762   3.485   5.816  0.1336  0.4823 -0.8300
  576MOL0     C77655   8.618   3.481   5.844  0.0769  0.9145 -0.5074
  576MOL0     O77656   8.539   3.467   5.727  0.1110 -0.1071 -0.4024
  576MOL0     C77657   8.401   3.462   5.756 -0.8538  0.6159  0.4261
  576MOL0     C77658   8.324   3.347   5.776 -0.1590  0.8973 -0.1321
  576MOL0     C77659   8.182   3.351   5.776  0.0932  0.2511  0.0148
  576MOL0     C77660   8.112   3.463   5.781 -0.4648 -0.1502 -0.0249
  576MOL0     O77661   7.978   3.459   5.782  0.3587 -0.0428  0.4713
  576MOL0     C77662   7.913   3.587   5.810 -0.4680 -0.3086  0.3232
  576MOL0     C77663   7.764   3.567   5.851  0.3784  0.3887  0.2573
  576MOL0     C77664   7.677   3.495   5.748 -0.0575 -0.0092  0.0461
  576MOL0     C77665   7.538   3.568   5.742 -0.3156  0.3080  0.3261
  576MOL0     C77666   7.442   3.498   5.647  0.4356  0.8064 -0.5999
  576MOL0     C77667   7.474   3.523   5.501  0.4484  0.0063 -0.4448
  576MOL0     C77668   7.366   3.454   5.420 -0.0525  0.8279  0.5529
  576MOL0     C77669   7.362   3.516   5.275  0.0259  0.3131 -0.9002
  576MOL0    Cl77670   7.489   3.437   5.164 -0.5333  0.2653 -0.0868
  576MOL0     C77671   8.186   3.579   5.759  0.7922  0.1026 -1.0246
  576MOL0     C77672   8.327   3.576   5.750  0.1521  0.5276  0.6924
  576MOL0     O77673   8.574   3.477   5.959 -0.1379  0.4844  0.2453
  576MOL0     C77674   8.810   3.498   5.683  0.1425 -0.0991 -0.2319
  576MOL0     C77675   8.943   3.481   5.654  0.9900 -0.5209  0.9381
  576MOL0     N77676   9.688   3.530   5.416 -0.5022 -0.1194 -0.2436
  576MOL0     N77677   9.755   3.637   5.403 -0.0366 -0.4992  0.3904
  576MOL0     C77678  10.903   4.279   5.275 -0.0361  0.1984 -1.2311
  576MOL0     C77679  11.016   4.349   5.254 -0.1425  0.2987  0.2428
  576MOL0     C77680  11.430   4.521   5.180  0.6789 -0.8446  0.4714
  576MOL0     C77681  11.469   4.646   5.140  0.1965  0.4157 -0.2875
  576MOL0     C77682  11.594   4.669   5.085  0.0669  0.5697 -0.3185
  576MOL0     C77683  11.686   4.575   5.077 -0.6452 -0.9025 -0.2549
  576MOL0     O77684  11.814   4.622   5.039 -0.6576  0.0652  0.0823
  576MOL0     C77685  11.928   4.537   5.030  0.9145 -0.1587  1.1986
  576MOL0     C77686  12.042   4.604   4.956 -0.3164 -0.8179  0.5571
  576MOL0     C77687  12.006   4.686   4.830  0.4314  0.2534  0.2796
  576MOL0     C77688  12.118   4.764   4.776  0.5255 -0.4575 -1.1628
  576MOL0     C77689  12.163   4.874   4.861  0.7080  0.0805  1.0647
  576MOL0     C77690  12.179   4.976   4.924  0.5291 -0.8510 -0.0348
  576MOL0     C77691  11.650   4.447   5.119 -0.8728  0.5837 -0.7548
  576MOL0     C77692  11.520   4.417   5.166 -0.0934  0.6293 -0.0134
  576MOL0     H77693  11.246   4.175   5.414  0.0483 -1.0406 -1.6510
  576MOL0     H77694  11.033   4.031   5.459  0.2479 -1.1152 -2.4462
  576MOL0     H77695  10.793   3.945   5.534 -0.9670 -0.5960 -2.6893
  576MOL0     H77696  10.797   4.116   5.586  2.6558 -3.5141  2.9666
  576MOL0     H77697  10.583   4.109   5.619 -0.7264 -0.5311 -0.6395
  576MOL0     H77698  10.574   4.132   5.438 -1.4818 -1.3003 -1.5886
  576MOL0     H77699  10.521   3.895   5.409 -0.1323  0.3338 -0.0410
  576MOL0     H77700  10.533   3.856   5.576 -0.5841  0.1047 -0.3265
  576MOL0     H77701  10.349   3.976   5.649 -1.1374 -0.3102  0.1302
  576MOL0     H77702  10.317   4.050   5.495 -1.3048 -1.6988 -1.9342
  576MOL0     H77703  10.294   3.810   5.397 -0.0996 -0.7926  0.8415
  576MOL0     H77704  10.293   3.747   5.563 -2.5158  0.5419  0.9595
  576MOL0     H77705  10.109   3.942   5.591 -1.0851  0.2550  0.0207
  576MOL0     H77706  10.106   3.921   5.416  2.9356  0.0399  0.2012
  576MOL0     H77707  10.069   3.685   5.437  2.9720  0.7254  0.3407
  576MOL0     H77708  10.110   3.692   5.611  1.4059  2.9109 -0.2991
  576MOL0     H77709   9.884   3.865   5.504  1.4050 -0.6359 -1.7693
  576MOL0     H77710   9.890   3.799   5.667  2.7641 -1.4122  0.3110
  576MOL0     H77711   9.768   3.597   5.737 -2.5386 -0.3991  0.2617
  576MOL0     H77712   9.535   3.351   5.520  2.5039 -0.6276 -0.2759
  576MOL0     H77713   9.635   3.328   5.655 -2.2959  0.5440  1.0152
  576MOL0     H77714   9.408   3.517   5.640  1.0637 -0.8698 -2.2861
  576MOL0     H77715   9.508   3.505   5.788 -0.1147  1.9503 -0.5261
  576MOL0     H77716   9.439   3.289   5.838  1.7207  0.5583 -0.1753
  576MOL0     H77717   9.344   3.272   5.681  0.7106  0.5326 -0.8476
  576MOL0     H77718   9.271   3.429   5.922  1.9884  0.8852  0.0981
  576MOL0     H77719   9.202   3.291   5.849 -0.1228  0.9062  0.5609
  576MOL0     H77720   9.054   3.430   5.977  1.1528 -1.5521 -0.6154
  576MOL0     H77721   8.773   3.388   6.105  1.4431 -0.4413 -0.0157
  576MOL0     H77722   8.913   3.491   6.124 -0.1919 -0.0858  0.8378
  576MOL0     H77723   8.768   3.568   6.079  0.4086  0.2810  0.0653
  576MOL0     H77724   8.381   3.257   5.754 -1.5660 -0.0317 -0.0631
  576MOL0     H77725   8.126   3.258   5.769  1.4304 -0.5143 -0.9658
  576MOL0     H77726   7.964   3.626   5.899 -0.8294  4.4971 -1.2485
  576MOL0     H77727   7.922   3.668   5.737 -0.1946  0.6213  1.3623
  576MOL0     H77728   7.757   3.504   5.940 -0.9767  2.2201  1.5273
  576MOL0     H77729   7.738   3.667   5.887  1.1224  0.9029 -0.5762
  576MOL0     H77730   7.667   3.387   5.759 -1.0644 -0.2688 -2.7336
  576MOL0     H77731   7.729   3.513   5.654  2.1436 -0.4184  1.1106
  576MOL0     H77732   7.489   3.582   5.839  1.7733  2.5179  1.1689
  576MOL0     H77733   7.555   3.666   5.697  2.5079 -0.7785 -1.2387
  576MOL0     H77734   7.346   3.545   5.670  0.0573  0.8775 -2.2218
  576MOL0     H77735   7.437   3.391   5.669 -0.4004  0.6783 -1.3943
  576MOL0     H77736   7.484   3.631   5.489 -1.6917  0.4962  1.5604
  576MOL0     H77737   7.571   3.479   5.472  1.0874  2.0514 -1.6033
  576MOL0     H77738   7.272   3.472   5.472 -0.4814 -0.5789  0.3092
  576MOL0     H77739   7.383   3.346   5.414  3.0496  1.1880  0.9741
  576MOL0     H77740   7.393   3.621   5.277 -2.0520  1.0103  2.6725
  576MOL0     H77741   7.266   3.507   5.223  0.3506  0.7958 -1.5969
  576MOL0     H77742   8.146   3.679   5.744  1.0009  0.3102 -0.2515
  576MOL0     H77743   8.375   3.670   5.728  1.1617  0.3084  1.8409
  576MOL0     H77744   8.747   3.531   5.601  3.7449  3.2743 -1.9474
  576MOL0     H77745   8.976   3.496   5.552 -0.1579 -1.0448  0.4729
  576MOL0     H77746  10.802   4.310   5.252 -0.9143  0.8917  2.9215
  576MOL0     H77747  11.008   4.435   5.188 -0.3866 -0.1413 -0.3151
  576MOL0     H77748  11.405   4.733   5.154  0.7168  0.3826  3.4103
  576MOL0     H77749  11.616   4.772   5.062 -1.9165  0.7952 -1.4743
  576MOL0     H77750  11.950   4.511   5.134 -0.7939  2.6816  2.3782
  576MOL0     H77751  11.901   4.448   4.973  1.6333 -0.0534  0.6859
  576MOL0     H77752  12.127   4.537   4.939  0.8957  0.7340  0.2310
  576MOL0     H77753  12.073   4.685   5.024 -1.5761  0.8176 -0.7474
  576MOL0     H77754  11.914   4.742   4.849 -0.4462 -0.6441 -1.1293
  576MOL0     H77755  11.984   4.613   4.751  0.1234  1.0574 -0.3925
  576MOL0     H77756  12.076   4.802   4.682 -1.4666  2.7343  0.8082
  576MOL0     H77757  12.193   4.685   4.769  1.3791  0.1773  0.4223
  576MOL0     H77758  12.185   5.065   4.983 -0.1372 -3.5116  4.5150
  576MOL0     H77759  11.716   4.361   5.122 -3.0263 -1.1616  2.3453
  576MOL0     H77760  11.491   4.317   5.194  1.1554  0.0042 -0.8675
  577MOL0     O77761   5.848   5.889   5.305 -0.7107  0.7522  0.3079
  577MOL0     C77762   5.878   5.923   5.192 -0.0088 -0.5522 -0.3882
  577MOL0     O77763   5.790   5.953   5.089  0.6639  0.1081 -0.0762
  577MOL0     C77764   5.663   5.896   5.076 -0.0240 -0.1532  0.3903
  577MOL0     C77765   5.594   5.808   5.165 -0.4471 -0.0301 -0.1369
  577MOL0     C77766   5.465   5.765   5.126  0.5059 -0.2516 -0.5272
  577MOL0     C77767   5.402   5.803   5.013 -0.0387  0.2386  0.4741
  577MOL0     O77768   5.273   5.779   4.983  0.1120  0.6208 -0.3193
  577MOL0     C77769   5.173   5.786   5.090 -0.3320 -0.4542 -0.2525
  577MOL0     C77770   5.040   5.803   5.018  0.5632  0.2550  0.2650
  577MOL0     C77771   4.915   5.772   5.112 -0.5648  0.2157  0.2457
  577MOL0     C77772   4.781   5.806   5.045  0.6319  0.4403 -0.8769
  577MOL0     C77773   4.655   5.778   5.133  0.0086 -0.0117 -0.0282
  577MOL0     C77774   4.617   5.630   5.125 -0.3196 -0.4731 -0.3295
  577MOL0     C77775   4.561   5.577   5.261  0.3888  0.1988  0.0377
  577MOL0     C77776   4.552   5.426   5.263 -0.2504  0.2286  0.0205
  577MOL0     N77777   4.439   5.374   5.184 -0.4367  0.3071 -0.0900
  577MOL0     C77778   4.444   5.276   5.094 -0.1649  0.3122 -0.6553
  577MOL0     C77779   4.317   5.270   5.053  0.0843  0.2448  0.3013
  577MOL0     C77780   4.279   5.173   4.946 -0.4125 -0.5791  0.2252
  577MOL0     C77781   4.274   5.235   4.806 -0.4609 -0.6714  0.5788
  577MOL0     C77782   4.192   5.149   4.712  0.6941 -0.2454  0.2029
  577MOL0     C77783   4.045   5.190   4.692  0.3463  0.2782 -0.0105
  577MOL0     O77784   3.975   5.190   4.812 -0.5180  0.3131 -0.2128
  577MOL0     C77785   3.842   5.228   4.812 -0.2679 -0.5343 -0.1770
  577MOL0     C77786   3.752   5.253   4.706  0.1001 -0.0139  0.8411
  577MOL0     C77787   3.613   5.265   4.714  0.1495 -1.1640  0.2662
  577MOL0     C77788   3.532   5.289   4.590 -0.1734 -0.9006  0.3161
  577MOL0     C77789   3.562   5.251   4.843 -0.1680 -0.6490  0.0384
  577MOL0     C77790   3.413   5.250   4.877 -0.1396  0.1061 -0.3811
  577MOL0     O77791   3.378   5.307   4.994  0.4954 -0.3133 -0.3124
  577MOL0     C77792   3.254   5.282   5.042 -0.4461 -0.5909  1.1149
  577MOL0     C77793   3.202   5.166   5.103  0.0758  0.5556  0.0250
  577MOL0     C77794   3.071   5.137   5.137  0.0820 -0.9441 -0.6821
  577MOL0     C77795   2.976   5.235   5.111  0.3167 -0.6017  0.1151
  577MOL0     O77796   2.850   5.238   5.146 -0.0380  0.0907 -0.7121
  577MOL0     C77797   2.807   5.175   5.265  0.0561  0.1374 -0.8185
  577MOL0     C77798   2.717   5.267   5.348 -0.6119  0.2772 -0.1715
  577MOL0     C77799   2.780   5.401   5.394 -0.0993 -0.2553  0.4958
  577MOL0     C77800   2.855   5.383   5.523  0.3772  0.5692 -1.0193
  577MOL0     C77801   2.974   5.478   5.550  0.3472 -0.2588  0.5312
  577MOL0     C77802   2.928   5.628   5.544 -0.9756  0.0371  0.0499
  577MOL0     C77803   2.802   5.663   5.630 -0.2966 -0.4102  0.4759
  577MOL0     C77804   2.770   5.812   5.629 -0.2531  0.1048  0.0989
  577MOL0    Cl77805   2.620   5.837   5.711 -0.2653  0.3680  0.5169
  577MOL0     C77806   3.025   5.354   5.057 -0.1779 -0.1112 -0.9643
  577MOL0     C77807   3.157   5.373   5.018  0.3528 -0.3211  0.3160
  577MOL0     O77808   3.330   5.197   4.804 -0.7423 -0.6428  0.0493
  577MOL0     C77809   3.650   5.250   4.952  0.0726 -0.4218 -0.3075
  577MOL0     C77810   3.790   5.235   4.940  0.8787  0.5795  0.0495
  577MOL0     N77811   4.237   5.367   5.111 -0.0887  0.0028 -0.2125
  577MOL0     N77812   4.319   5.429   5.197  0.5386 -0.3830 -0.6285
  577MOL0     C77813   5.468   5.901   4.933  0.4183  0.5286 -0.1426
  577MOL0     C77814   5.588   5.958   4.971 -1.0532  0.9208 -0.0905
  577MOL0     C77815   6.026   5.942   5.160 -0.4031  0.5922 -0.2025
  577MOL0     C77816   6.103   6.001   5.262 -0.6205 -0.3340  0.5840
  577MOL0     C77817   6.227   6.058   5.236  0.2896  0.0507  0.3211
  577MOL0     C77818   6.291   6.028   5.118 -0.9574  0.9088 -0.0322
  577MOL0     O77819   6.418   6.070   5.100  0.5321  0.5295 -0.1008
  577MOL0     C77820   6.506   5.959   5.147  0.7678  1.2550  0.2274
  577MOL0     C77821   6.659   5.992   5.164 -0.4994 -0.2396  0.1058
  577MOL0     C77822   6.674   6.102   5.271 -1.0738  0.6154  1.1527
  577MOL0     C77823   6.810   6.166   5.269 -1.0268 -0.2667  0.5417
  577MOL0     C77824   6.826   6.228   5.403 -0.3841 -0.1044  0.4501
  577MOL0     C77825   6.849   6.279   5.509  0.7611 -1.0069  0.3450
  577MOL0     C77826   6.216   5.973   5.022  0.3395 -0.4156 -0.9520
  577MOL0     C77827   6.079   5.932   5.036 -0.4116  0.2543  0.1000
  577MOL0     H77828   5.651   5.765   5.246 -0.8303 -2.4960 -1.0803
  577MOL0     H77829   5.414   5.699   5.196  0.4030  3.9173  3.7807
  577MOL0     H77830   5.182   5.694   5.149 -0.1467 -0.2075  0.1121
  577MOL0     H77831   5.192   5.863   5.166 -0.9925  0.6763 -1.2098
  577MOL0     H77832   5.039   5.908   4.988  1.9925 -0.4922 -2.8008
  577MOL0     H77833   5.045   5.742   4.927 -1.7122  0.8718 -0.3359
  577MOL0     H77834   4.918   5.667   5.144  3.8049 -0.3880 -1.3307
  577MOL0     H77835   4.926   5.844   5.193 -0.8824  0.7287 -0.1587
  577MOL0     H77836   4.784   5.909   5.006 -0.2800  0.2768 -1.4094
  577MOL0     H77837   4.779   5.746   4.953 -0.0683 -0.4049 -0.3271
  577MOL0     H77838   4.653   5.807   5.239 -0.0449 -2.3433  0.6696
  577MOL0     H77839   4.573   5.834   5.089  1.2599  0.8353 -1.3537
  577MOL0     H77840   4.551   5.610   5.040 -1.1888  1.4791 -0.1665
  577MOL0     H77841   4.708   5.576   5.100 -1.4190 -1.7503 -1.7923
  577MOL0     H77842   4.630   5.612   5.338 -0.9386 -0.4372  1.5937
  577MOL0     H77843   4.468   5.630   5.285  0.9521  1.9645 -1.3983
  577MOL0     H77844   4.547   5.394   5.368  2.4253  1.5148  0.6269
  577MOL0     H77845   4.649   5.395   5.225  1.3840  1.4584  2.8175
  577MOL0     H77846   4.528   5.210   5.074 -0.9033 -0.5851 -0.8736
  577MOL0     H77847   4.356   5.095   4.950  0.7726  0.3019 -2.6662
  577MOL0     H77848   4.190   5.114   4.971  2.1192 -4.4549  1.0137
  577MOL0     H77849   4.377   5.261   4.777 -0.9899  0.9287  0.0039
  577MOL0     H77850   4.231   5.335   4.819 -0.1939 -0.6211  1.0859
  577MOL0     H77851   4.205   5.045   4.743 -1.4927 -0.3126  1.0595
  577MOL0     H77852   4.251   5.150   4.619 -0.7426 -0.9707 -0.7584
  577MOL0     H77853   4.002   5.118   4.621  0.3751  1.3270 -1.1405
  577MOL0     H77854   4.040   5.282   4.633 -1.9476 -0.6114 -1.3649
  577MOL0     H77855   3.806   5.263   4.612  3.0333 -1.4713  2.2410
  577MOL0     H77856   3.487   5.192   4.566 -3.4021  0.5256  0.1739
  577MOL0     H77857   3.450   5.359   4.605 -0.4858 -1.1268 -0.2809
  577MOL0     H77858   3.586   5.341   4.510 -2.0669  0.5176 -0.0935
  577MOL0     H77859   3.276   5.090   5.123  0.2949  1.0541  1.1986
  577MOL0     H77860   3.043   5.047   5.191 -1.9689  0.5741  0.9898
  577MOL0     H77861   2.748   5.084   5.250  1.0659 -0.6631 -0.0007
  577MOL0     H77862   2.892   5.147   5.328 -0.0792  2.6012  0.5758
  577MOL0     H77863   2.632   5.286   5.281 -0.5267 -0.2085 -0.4185
  577MOL0     H77864   2.681   5.220   5.440 -2.7231 -1.0120 -1.5605
  577MOL0     H77865   2.705   5.480   5.406  1.7342  1.3006  2.4005
  577MOL0     H77866   2.848   5.428   5.314 -1.0473 -0.3147 -0.3548
  577MOL0     H77867   2.783   5.388   5.606  0.7771 -1.0105 -0.5405
  577MOL0     H77868   2.902   5.285   5.528  2.9803  1.8000  0.5999
  577MOL0     H77869   3.059   5.455   5.486 -1.2978 -0.9269 -1.5588
  577MOL0     H77870   3.011   5.455   5.650  1.0957 -2.6056 -0.2297
  577MOL0     H77871   3.017   5.673   5.590  0.7891 -1.4874 -1.7305
  577MOL0     H77872   2.916   5.653   5.439  0.5207  0.5200 -0.0369
  577MOL0     H77873   2.818   5.640   5.736 -3.2440 -3.0201  0.5145
  577MOL0     H77874   2.712   5.613   5.594 -1.8293  1.4860  1.4915
  577MOL0     H77875   2.753   5.847   5.526 -1.1907 -1.8677 -0.4516
  577MOL0     H77876   2.853   5.876   5.662  2.5668 -1.6452 -2.9603
  577MOL0     H77877   2.960   5.440   5.067 -0.6367 -0.6858  2.1002
  577MOL0     H77878   3.196   5.465   4.977  0.2944 -0.1641  0.6098
  577MOL0     H77879   3.637   5.241   5.059  1.2544 -1.7936 -0.2489
  577MOL0     H77880   3.854   5.216   5.026 -2.5135 -1.0107  2.4350
  577MOL0     H77881   5.417   5.943   4.847  0.2126 -0.9415 -0.7668
  577MOL0     H77882   5.629   6.036   4.908 -1.9742  1.4434 -0.0538
  577MOL0     H77883   6.059   6.011   5.360 -0.2697 -2.5075  1.0065
  577MOL0     H77884   6.282   6.115   5.310  1.1209 -0.5479  0.1684
  577MOL0     H77885   6.464   5.905   5.233  1.7849 -0.5131 -0.3279
  577MOL0     H77886   6.503   5.883   5.068  0.7996  0.9417  0.5233
  577MOL0     H77887   6.700   6.028   5.070  1.6665 -1.5658  0.4860
  577MOL0     H77888   6.723   5.908   5.191  1.9263  1.0185 -1.4443
  577MOL0     H77889   6.671   6.051   5.368  0.5794 -1.5314  0.1668
  577MOL0     H77890   6.605   6.186   5.259  0.5782  1.7956 -0.4557
  577MOL0     H77891   6.816   6.246   5.195  0.5732  1.4652  2.4214
  577MOL0     H77892   6.888   6.090   5.259 -0.5439  0.0365  1.8143
  577MOL0     H77893   6.885   6.340   5.590  1.1294  3.8076 -3.0246
  577MOL0     H77894   6.255   5.975   4.921  0.1391  2.7796 -1.0431
  577MOL0     H77895   6.012   5.907   4.954 -1.5783  0.7784  0.8657
  578MOL0     O77896   0.991  11.075   6.607 -0.4617  0.9370 -0.1889
  578MOL0     C77897   1.056  10.994   6.667 -1.2046  0.5750  0.5405
  578MOL0     O77898   1.035  10.940   6.790 -0.6256  0.0187 -0.0972
  578MOL0     C77899   0.922  10.987   6.856  0.1475 -0.0042 -0.7205
  578MOL0     C77900   0.790  10.930   6.842 -0.2619 -0.5135 -0.0351
  578MOL0     C77901   0.688  10.981   6.919  0.7355 -0.5404 -0.4911
  578MOL0     C77902   0.713  11.094   7.001 -1.1416  0.2165  0.3773
  578MOL0     O77903   0.608  11.162   7.065 -0.8813 -0.5210  0.2387
  578MOL0     C77904   0.478  11.145   7.020  0.6919  0.2595  0.2107
  578MOL0     C77905   0.374  11.233   7.091 -0.6641 -1.3114 -0.4820
  578MOL0     C77906   0.239  11.238   7.033 -0.1884  0.5073 -0.1966
  578MOL0     C77907   0.148  11.313   7.123  0.4449  0.4734  0.1130
  578MOL0     C77908   0.013  11.331   7.053  0.9826  0.4955 -0.5194
  578MOL0     C77909  -0.083  11.370   7.165 -0.4090  0.6790 -0.9631
  578MOL0     C77910  -0.226  11.387   7.118 -0.4676  0.3256 -0.2128
  578MOL0     C77911  -0.293  11.257   7.066  0.3958  0.2177  0.1647
  578MOL0     N77912  -0.439  11.278   7.042  0.3853  0.7031 -0.9930
  578MOL0     C77913  -0.490  11.355   6.957 -0.4016 -0.6345 -0.2435
  578MOL0     C77914  -0.626  11.339   6.983  1.1914 -0.0777 -0.2591
  578MOL0     C77915  -0.746  11.392   6.910 -0.5534 -0.0996  0.0782
  578MOL0     C77916  -0.872  11.381   6.996 -0.1322  0.1795  0.6068
  578MOL0     C77917  -0.988  11.444   6.911  0.5965 -0.2760 -0.2659
  578MOL0     C77918  -1.126  11.415   6.970 -0.3597  0.2058  0.6020
  578MOL0     O77919  -1.231  11.455   6.883 -0.0837  0.2308 -0.3198
  578MOL0     C77920  -1.357  11.473   6.937  0.4396  0.4672  0.4030
  578MOL0     C77921  -1.406  11.420   7.061  0.8039  0.7757  0.2368
  578MOL0     C77922  -1.544  11.431   7.095  0.8084 -0.5834 -0.6719
  578MOL0     C77923  -1.588  11.357   7.219  0.1947  0.6083  0.1041
  578MOL0     C77924  -1.633  11.504   7.009  0.3308  0.7653 -0.2113
  578MOL0     C77925  -1.771  11.535   7.032  0.6578  0.2222  0.1005
  578MOL0     O77926  -1.818  11.655   7.000 -0.1382  0.3196  0.1383
  578MOL0     C77927  -1.926  11.697   7.069 -0.4327  0.8933  0.1151
  578MOL0     C77928  -1.930  11.727   7.212  0.4856 -0.1164 -1.0546
  578MOL0     C77929  -2.048  11.775   7.281  0.5087 -0.4652  0.2143
  578MOL0     C77930  -2.168  11.788   7.208 -1.2252  0.2072  0.3983
  578MOL0     O77931  -2.270  11.857   7.276  0.6420 -0.5468 -0.6375
  578MOL0     C77932  -2.409  11.852   7.247 -0.2759 -0.6393 -0.2484
  578MOL0     C77933  -2.489  11.899   7.360  0.1551  0.1745 -0.3819
  578MOL0     C77934  -2.628  11.953   7.326  0.6826  0.0530  0.1197
  578MOL0     C77935  -2.745  11.841   7.304  1.1187  0.1863  0.5063
  578MOL0     C77936  -2.875  11.905   7.259  0.3494  0.2192 -0.1219
  578MOL0     C77937  -2.982  11.783   7.258  0.1717  0.1985  0.1880
  578MOL0     C77938  -3.103  11.798   7.168  0.4583  0.7021 -0.3357
  578MOL0     C77939  -3.177  11.928   7.189 -0.2202  0.0343 -0.3756
  578MOL0    Cl77940  -3.321  11.952   7.091 -0.3872  0.4280 -0.2256
  578MOL0     C77941  -2.175  11.753   7.067  0.1819 -0.2821 -0.0157
  578MOL0     C77942  -2.056  11.712   6.998  0.0449  0.2057 -1.0481
  578MOL0     O77943  -1.843  11.443   7.075  0.5211  0.3040 -0.0874
  578MOL0     C77944  -1.578  11.565   6.896  0.4435 -0.4865 -0.1701
  578MOL0     C77945  -1.444  11.554   6.865  0.0079  0.2229  0.6810
  578MOL0     N77946  -0.636  11.259   7.090  0.1890 -0.1839 -0.0515
  578MOL0     N77947  -0.527  11.220   7.132  0.5536  0.1526  0.3524
  578MOL0     C77948   0.842  11.149   7.014 -1.3202  0.1396 -0.4601
  578MOL0     C77949   0.944  11.099   6.941  0.1104  0.7721  0.1043
  578MOL0     C77950   1.178  10.943   6.602 -0.1421 -0.0296  0.1952
  578MOL0     C77951   1.223  10.813   6.636 -0.0094 -0.4008  0.0937
  578MOL0     C77952   1.345  10.762   6.579  1.2013  0.0309  0.6652
  578MOL0     C77953   1.426  10.842   6.502  0.8931 -0.1016 -0.1721
  578MOL0     O77954   1.546  10.794   6.462  0.2543  0.0112 -1.0101
  578MOL0     C77955   1.606  10.842   6.336  0.3681 -0.0048  0.4630
  578MOL0     C77956   1.684  10.726   6.266 -0.4597  0.2331  0.0591
  578MOL0     C77957   1.587  10.618   6.211 -0.1218 -0.5572 -0.1584
  578MOL0     C77958   1.658  10.503   6.162  0.2816  0.4347 -0.2613
  578MOL0     C77959   1.567  10.403   6.096  0.3089  0.4182  0.3431
  578MOL0     C77960   1.476  10.340   6.034  0.3596 -0.7746 -0.3035
  578MOL0     C77961   1.380  10.979   6.471 -0.2936  0.3153  0.2489
  578MOL0     C77962   1.249  11.022   6.513 -1.3972 -0.3342 -0.7611
  578MOL0     H77963   0.764  10.843   6.783 -2.4647 -0.1459  0.3107
  578MOL0     H77964   0.591  10.935   6.903 -0.1172  0.5485  1.2405
  578MOL0     H77965   0.469  11.159   6.912  0.2720  1.2557  0.3618
  578MOL0     H77966   0.446  11.043   7.041  2.9559 -0.3941  0.8236
  578MOL0     H77967   0.370  11.203   7.197  0.5387 -0.6111 -0.2242
  578MOL0     H77968   0.420  11.332   7.094 -1.7181 -0.8195  1.9181
  578MOL0     H77969   0.244  11.279   6.932  0.1077  2.2977  0.5107
  578MOL0     H77970   0.196  11.139   7.016 -1.2187  0.9820 -0.4673
  578MOL0     H77971   0.139  11.260   7.218 -1.1118 -2.0416 -1.3154
  578MOL0     H77972   0.184  11.414   7.145 -1.2838  1.7402 -2.3373
  578MOL0     H77973   0.020  11.408   6.975 -0.6407 -1.6628 -2.9611
  578MOL0     H77974  -0.021  11.237   7.009 -1.9676 -0.0609  2.5086
  578MOL0     H77975  -0.091  11.302   7.250 -1.3325  1.4403 -0.4261
  578MOL0     H77976  -0.049  11.466   7.205  2.1416 -0.4274 -0.2419
  578MOL0     H77977  -0.292  11.433   7.193 -2.1493 -0.9423 -0.8488
  578MOL0     H77978  -0.226  11.455   7.032  0.9894 -0.1535 -0.6065
  578MOL0     H77979  -0.281  11.180   7.142 -1.2784  0.9519  1.2424
  578MOL0     H77980  -0.241  11.226   6.975  0.0172  0.2667 -0.0682
  578MOL0     H77981  -0.439  11.414   6.881  0.1412 -1.2567 -0.3643
  578MOL0     H77982  -0.726  11.497   6.886 -2.7253  1.1680  3.0722
  578MOL0     H77983  -0.763  11.326   6.825 -0.1574  1.4849 -1.2783
  578MOL0     H77984  -0.847  11.438   7.087  0.5444 -0.0734  0.5877
  578MOL0     H77985  -0.888  11.276   7.020  2.6033 -0.4268  0.0989
  578MOL0     H77986  -0.993  11.404   6.809 -0.1114 -0.8945  0.0046
  578MOL0     H77987  -0.972  11.551   6.897  0.1754 -0.3802 -1.7268
  578MOL0     H77988  -1.123  11.466   7.067  0.0283  0.5109  0.4289
  578MOL0     H77989  -1.136  11.309   6.994  0.7543 -0.1203 -0.2877
  578MOL0     H77990  -1.341  11.359   7.123  2.4715 -0.0823 -2.1622
  578MOL0     H77991  -1.569  11.251   7.199  1.9821  1.3471 -2.6599
  578MOL0     H77992  -1.537  11.404   7.303  2.3448  1.8966 -1.8134
  578MOL0     H77993  -1.695  11.374   7.236  0.3838  0.0439  2.1996
  578MOL0     H77994  -1.842  11.720   7.275 -0.3984  0.8429  0.3307
  578MOL0     H77995  -2.046  11.817   7.381 -1.9016 -1.3418  0.6982
  578MOL0     H77996  -2.416  11.922   7.163  1.6407  2.6947  2.1385
  578MOL0     H77997  -2.439  11.752   7.213 -1.3942 -0.3423 -0.1454
  578MOL0     H77998  -2.494  11.817   7.432  0.9095  2.0142  1.8895
  578MOL0     H77999  -2.443  11.977   7.421  1.1292 -1.0539  0.5196
  578MOL0     H78000  -2.608  12.009   7.234  2.4237 -1.0353 -0.2302
  578MOL0     H78001  -2.670  12.020   7.400 -3.0896 -0.7276 -1.1120
  578MOL0     H78002  -2.706  11.768   7.233 -3.1222  1.6321 -3.8959
  578MOL0     H78003  -2.754  11.795   7.403 -2.3429  0.2278  0.3623
  578MOL0     H78004  -2.870  11.954   7.162 -0.5396  1.8447  0.6215
  578MOL0     H78005  -2.913  11.973   7.336 -1.6381 -0.8441 -0.0963
  578MOL0     H78006  -2.935  11.689   7.229  2.6974  1.4126  0.0442
  578MOL0     H78007  -3.020  11.771   7.360 -0.3171 -1.6239 -0.1730
  578MOL0     H78008  -3.158  11.706   7.191  1.7078  0.0485  0.1725
  578MOL0     H78009  -3.069  11.774   7.067  1.9305  2.4185 -0.3023
  578MOL0     H78010  -3.103  12.000   7.151 -0.3415 -0.2107 -1.0895
  578MOL0     H78011  -3.186  11.953   7.295 -0.5867 -0.7427 -0.2208
  578MOL0     H78012  -2.260  11.779   7.003 -0.1646  3.7398  1.7693
  578MOL0     H78013  -2.060  11.710   6.890  1.4318  2.5855 -1.2088
  578MOL0     H78014  -1.634  11.632   6.832  0.3475 -0.4101 -0.0047
  578MOL0     H78015  -1.409  11.614   6.782 -1.7317  0.2431 -0.0723
  578MOL0     H78016   0.859  11.237   7.076  0.8699 -1.1927  0.9642
  578MOL0     H78017   1.033  11.160   6.950 -0.2812  1.0018  3.5732
  578MOL0     H78018   1.161  10.749   6.697 -1.0698 -0.7540 -1.2869
  578MOL0     H78019   1.367  10.656   6.585  4.1204  0.3689 -1.5706
  578MOL0     H78020   1.537  10.888   6.266  1.8358  4.2259  1.4577
  578MOL0     H78021   1.680  10.922   6.347  1.0787 -0.2509 -1.9806
  578MOL0     H78022   1.758  10.681   6.334 -1.1969 -0.5045  0.4025
  578MOL0     H78023   1.735  10.776   6.184 -3.7899  1.0493 -1.6890
  578MOL0     H78024   1.535  10.669   6.130  1.1229  3.0578  1.1127
  578MOL0     H78025   1.511  10.588   6.283 -1.4121 -0.8949 -1.6037
  578MOL0     H78026   1.702  10.454   6.249  1.2698  2.0013  0.1590
  578MOL0     H78027   1.742  10.525   6.095  0.5884 -0.9954 -0.3727
  578MOL0     H78028   1.402  10.290   5.976  0.6548  0.6863 -2.0404
  578MOL0     H78029   1.439  11.054   6.419 -3.3325  1.9679 -1.0597
  578MOL0     H78030   1.206  11.120   6.494 -1.4898 -0.2150  0.0187
  579MOL0     O78031   0.560  10.172   5.544 -0.6098  0.4719  0.1245
  579MOL0     C78032   0.457  10.185   5.611  0.0713  0.5712  0.2204
  579MOL0     O78033   0.456  10.208   5.748 -0.5043 -0.7628 -0.4939
  579MOL0     C78034   0.580  10.210   5.809  0.4256  0.7440  0.1670
  579MOL0     C78035   0.660  10.091   5.827  0.4904  0.1085  0.2223
  579MOL0     C78036   0.787  10.089   5.889  0.4369  0.0176 -1.2504
  579MOL0     C78037   0.825  10.221   5.942 -1.2377  0.6026 -0.4513
  579MOL0     O78038   0.953  10.237   6.001 -0.2831  0.2510  0.1818
  579MOL0     C78039   0.986  10.153   6.115  0.4823 -0.3215  0.2864
  579MOL0     C78040   1.132  10.160   6.157 -0.5200 -0.0215  0.2760
  579MOL0     C78041   1.153  10.282   6.250  0.7612  0.4163  0.4889
  579MOL0     C78042   1.301  10.292   6.302 -0.6121 -0.4046  0.2287
  579MOL0     C78043   1.303  10.240   6.441 -0.1390 -0.4836 -0.0592
  579MOL0     C78044   1.400  10.324   6.523  0.2417  0.2130  0.1146
  579MOL0     C78045   1.441  10.253   6.659  0.0896 -0.4494  0.1116
  579MOL0     C78046   1.326  10.272   6.763  0.0032  0.6866 -0.4471
  579MOL0     N78047   1.272  10.398   6.792  0.4842 -0.1220 -0.2966
  579MOL0     C78048   1.334  10.483   6.880 -0.5393  0.0223 -0.2958
  579MOL0     C78049   1.233  10.568   6.908 -0.5606  1.0428 -0.0290
  579MOL0     C78050   1.248  10.689   6.997  0.1699 -0.2898  0.1483
  579MOL0     C78051   1.117  10.765   7.035  0.0762  0.6484 -0.3394
  579MOL0     C78052   1.062  10.712   7.164  0.7569  0.2505  0.4965
  579MOL0     C78053   0.923  10.777   7.180 -0.5213  0.5491  0.1867
  579MOL0     O78054   0.879  10.761   7.318  0.3815  0.1231 -0.3080
  579MOL0     C78055   0.750  10.790   7.352 -0.4249  0.0333  0.5150
  579MOL0     C78056   0.714  10.753   7.481  0.4151  0.0425 -0.1619
  579MOL0     C78057   0.587  10.773   7.529 -0.9845  0.5624  0.2922
  579MOL0     C78058   0.566  10.711   7.665  0.1301 -0.0635 -0.1480
  579MOL0     C78059   0.495  10.834   7.447 -0.4788 -0.4215  0.1123
  579MOL0     C78060   0.351  10.858   7.486  0.5293 -1.0158 -0.8965
  579MOL0     O78061   0.268  10.904   7.386 -0.3939 -0.3723  0.3620
  579MOL0     C78062   0.125  10.908   7.381  0.2022 -0.1418  0.4374
  579MOL0     C78063   0.042  10.897   7.494  0.1427  0.1688  0.1287
  579MOL0     C78064  -0.095  10.906   7.484  0.5551  0.6480 -0.5414
  579MOL0     C78065  -0.157  10.918   7.354  0.4548  0.0804  0.3180
  579MOL0     O78066  -0.288  10.937   7.317  0.0545 -0.0833 -0.0101
  579MOL0     C78067  -0.378  10.941   7.424  0.4038  0.4072 -0.1662
  579MOL0     C78068  -0.515  10.989   7.367 -0.4554  0.7217  0.1147
  579MOL0     C78069  -0.639  10.988   7.461 -0.3946 -1.1526 -0.4428
  579MOL0     C78070  -0.765  11.033   7.390  0.4320  0.3349  0.1301
  579MOL0     C78071  -0.883  11.027   7.485  0.7673  0.1759  0.0400
  579MOL0     C78072  -1.010  11.047   7.400  0.4973 -0.3632  0.0248
  579MOL0     C78073  -1.130  11.082   7.499 -0.7608  0.5423  0.1217
  579MOL0     C78074  -1.248  11.152   7.425 -0.0130  0.4062  0.2983
  579MOL0    Cl78075  -1.208  11.320   7.394 -0.4808  0.0044  0.0460
  579MOL0     C78076  -0.075  10.916   7.244 -0.3078  0.1847  0.3436
  579MOL0     C78077   0.068  10.917   7.258 -0.1174 -0.1203  0.1442
  579MOL0     O78078   0.311  10.824   7.594 -0.4276  0.2224 -0.0603
  579MOL0     C78079   0.537  10.886   7.326  0.1840  0.3981  1.2250
  579MOL0     C78080   0.663  10.865   7.275  0.1882 -0.5354  0.3546
  579MOL0     N78081   1.106  10.523   6.844  0.3179 -0.4867 -1.1184
  579MOL0     N78082   1.144  10.433   6.767 -0.8877  0.7477  0.6197
  579MOL0     C78083   0.744  10.335   5.934  0.6285  0.2317 -1.1187
  579MOL0     C78084   0.629  10.332   5.857  0.4883  0.1581  0.0056
  579MOL0     C78085   0.328  10.190   5.538 -0.5084 -0.0803 -0.1068
  579MOL0     C78086   0.324  10.165   5.404 -0.8920  0.5357  0.2162
  579MOL0     C78087   0.199  10.151   5.336  0.3515  0.5319 -0.1630
  579MOL0     C78088   0.079  10.159   5.404  0.0650  0.0946  0.3064
  579MOL0     O78089  -0.024  10.156   5.320  0.2368 -0.1402  0.1008
  579MOL0     C78090  -0.149  10.209   5.371 -0.1337 -0.4729 -0.4307
  579MOL0     C78091  -0.267  10.213   5.278 -0.2100  0.0496  0.1282
  579MOL0     C78092  -0.259  10.329   5.169 -0.0709 -0.4547  0.1311
  579MOL0     C78093  -0.297  10.467   5.217 -0.6024 -0.9973 -0.0019
  579MOL0     C78094  -0.444  10.493   5.217  0.5832 -0.9724 -0.1895
  579MOL0     C78095  -0.566  10.511   5.235 -0.5545  0.3172  0.1090
  579MOL0     C78096   0.077  10.183   5.546 -0.5929  0.2714 -0.0401
  579MOL0     C78097   0.205  10.196   5.609 -0.0046 -0.5004  0.5304
  579MOL0     H78098   0.621  10.000   5.782 -1.6915  1.5689 -1.0129
  579MOL0     H78099   0.846  10.000   5.905 -1.4396 -1.4987 -2.3250
  579MOL0     H78100   0.927  10.189   6.199  3.5356  2.5660  1.4483
  579MOL0     H78101   0.977  10.048   6.089  2.4266 -1.5508  3.9163
  579MOL0     H78102   1.147  10.067   6.214 -0.1096 -0.2381 -0.1787
  579MOL0     H78103   1.195  10.160   6.067 -1.6242 -2.8778 -0.6444
  579MOL0     H78104   1.131  10.370   6.188  2.6400  1.0392  0.6493
  579MOL0     H78105   1.078  10.287   6.329 -0.0747  0.8053 -0.3104
  579MOL0     H78106   1.380  10.238   6.249  2.2958  1.8565  1.9617
  579MOL0     H78107   1.327  10.398   6.302  1.0358 -0.7236  2.3467
  579MOL0     H78108   1.203  10.233   6.485 -0.8129 -0.5121 -1.5333
  579MOL0     H78109   1.346  10.140   6.436  1.8770  0.3058  0.2279
  579MOL0     H78110   1.494  10.343   6.471  0.2582 -1.3799 -0.4873
  579MOL0     H78111   1.372  10.429   6.539  0.1822  0.2044  0.0611
  579MOL0     H78112   1.470  10.149   6.642  0.4863  0.0191 -2.5041
  579MOL0     H78113   1.524  10.309   6.703 -0.7342 -0.3939  1.6603
  579MOL0     H78114   1.348  10.217   6.855  0.0196 -1.3296 -1.6116
  579MOL0     H78115   1.256  10.206   6.712  2.3524 -2.4613  0.1222
  579MOL0     H78116   1.440  10.497   6.900 -0.1967 -0.7281 -1.4899
  579MOL0     H78117   1.283  10.657   7.096  3.5882  0.1320 -0.8063
  579MOL0     H78118   1.314  10.762   6.950 -1.0430  0.5745 -0.2812
  579MOL0     H78119   1.050  10.743   6.952  0.7143 -0.0984 -0.6674
  579MOL0     H78120   1.122  10.873   7.048 -1.0785  0.6793 -0.0308
  579MOL0     H78121   1.131  10.751   7.239  1.8876  0.1898 -0.4767
  579MOL0     H78122   1.053  10.603   7.162  1.5509  0.1746 -1.5207
  579MOL0     H78123   0.850  10.732   7.113 -0.3476 -1.5103  1.3155
  579MOL0     H78124   0.923  10.884   7.156 -1.3140  0.4786 -0.1696
  579MOL0     H78125   0.779  10.690   7.540 -2.3591 -1.7217  1.1888
  579MOL0     H78126   0.649  10.656   7.711 -1.8564 -3.1277  0.0986
  579MOL0     H78127   0.535  10.796   7.727  1.1133  0.1718  0.0343
  579MOL0     H78128   0.482  10.641   7.668  0.0720 -0.0118 -0.5710
  579MOL0     H78129   0.086  10.906   7.592  0.4008  0.7488 -0.0345
  579MOL0     H78130  -0.163  10.890   7.567  0.2481  0.3446 -0.8499
  579MOL0     H78131  -0.396  10.841   7.467  0.0179  1.0648  1.2771
  579MOL0     H78132  -0.358  11.015   7.502 -1.9998  3.7463 -2.4700
  579MOL0     H78133  -0.501  11.091   7.329  1.6374 -0.2564 -1.9746
  579MOL0     H78134  -0.540  10.943   7.272 -0.0371  1.6677 -0.4678
  579MOL0     H78135  -0.627  11.048   7.552 -0.6225 -1.6114 -0.1072
  579MOL0     H78136  -0.649  10.885   7.496 -1.4507 -1.2943 -1.0980
  579MOL0     H78137  -0.747  11.138   7.363 -0.4513  0.5917  0.4901
  579MOL0     H78138  -0.783  10.972   7.302 -0.5425  0.4886  0.2160
  579MOL0     H78139  -0.874  11.110   7.556 -0.7884  1.6726 -1.4087
  579MOL0     H78140  -0.888  10.925   7.526  1.7199  0.8232  1.9134
  579MOL0     H78141  -0.993  11.135   7.337  1.2497  0.0533  0.7805
  579MOL0     H78142  -1.027  10.949   7.355 -0.4429 -1.0104  1.7177
  579MOL0     H78143  -1.097  11.140   7.586  1.9279 -2.4323  1.3143
  579MOL0     H78144  -1.182  10.989   7.523 -2.2396  1.4161  0.4235
  579MOL0     H78145  -1.335  11.158   7.491  0.4040 -1.2456  1.0520
  579MOL0     H78146  -1.279  11.096   7.337 -1.6204 -2.7683  2.6797
  579MOL0     H78147  -0.123  10.923   7.148  0.3813  4.5607  0.0980
  579MOL0     H78148   0.122  10.928   7.165  1.5378 -1.2984  0.9228
  579MOL0     H78149   0.471  10.938   7.257  2.0840  1.4127  0.0745
  579MOL0     H78150   0.677  10.901   7.174 -1.0450 -3.3184 -0.9269
  579MOL0     H78151   0.779  10.423   5.986  2.4397 -0.8039 -0.4689
  579MOL0     H78152   0.579  10.428   5.844  1.3606  0.8173  1.3294
  579MOL0     H78153   0.408  10.137   5.342 -0.3034 -1.3674  1.7570
  579MOL0     H78154   0.200  10.126   5.231  0.9179 -1.3425  0.2427
  579MOL0     H78155  -0.192  10.150   5.452 -0.4329  1.8900  1.2148
  579MOL0     H78156  -0.130  10.309   5.410 -1.3326 -0.9593  1.5293
  579MOL0     H78157  -0.353  10.242   5.339 -1.7070  1.8056 -2.6170
  579MOL0     H78158  -0.282  10.120   5.223 -1.7864  0.1193  0.3976
  579MOL0     H78159  -0.324  10.296   5.087  2.6145 -0.7388 -2.0179
  579MOL0     H78160  -0.159  10.321   5.126 -1.0282 -3.0166 -1.8613
  579MOL0     H78161  -0.260  10.529   5.134 -3.2612 -0.4877 -0.9150
  579MOL0     H78162  -0.242  10.492   5.308  0.6230  1.8203 -1.3679
  579MOL0     H78163  -0.668  10.520   5.267 -0.7689  1.5566 -0.8562
  579MOL0     H78164  -0.017  10.215   5.587 -0.7907 -0.2308 -0.0874
  579MOL0     H78165   0.211  10.226   5.714 -1.0402  2.1983 -0.0909
  580MOL0     O78166   2.330   9.642   3.313  0.2683 -0.9938  0.5863
  580MOL0     C78167   2.400   9.591   3.231 -0.2157  1.4619 -0.4700
  580MOL0     O78168   2.520   9.644   3.179 -0.2939  0.6625  0.3975
  580MOL0     C78169   2.552   9.771   3.195  0.2009 -0.0040  0.4841
  580MOL0     C78170   2.470   9.880   3.229 -0.3885 -0.5364 -0.4858
  580MOL0     C78171   2.526  10.006   3.243 -0.2272 -0.6328 -0.1957
  580MOL0     C78172   2.656  10.034   3.185  0.2884  0.1571  0.1075
  580MOL0     O78173   2.680  10.160   3.156  0.4503 -0.4743 -0.1536
  580MOL0     C78174   2.681  10.199   3.011 -0.4136 -0.3882 -0.7590
  580MOL0     C78175   2.624  10.342   3.012 -1.1381  0.2985 -0.0198
  580MOL0     C78176   2.479  10.360   3.062 -1.0231  0.4792  0.0687
  580MOL0     C78177   2.385  10.295   2.971  0.0257 -0.5401 -0.6212
  580MOL0     C78178   2.239  10.319   3.015  0.3619 -0.3466  0.2249
  580MOL0     C78179   2.146  10.229   2.922 -0.0477 -0.2341  0.2389
  580MOL0     C78180   1.998  10.282   2.937 -0.5772 -0.1604 -0.0239
  580MOL0     C78181   1.887  10.179   2.911 -0.4533 -0.7107  0.9309
  580MOL0     N78182   1.757  10.218   2.967 -0.3621  0.3899 -0.2484
  580MOL0     C78183   1.681  10.142   3.054 -0.8773  0.0278  0.3701
  580MOL0     C78184   1.566  10.205   3.053  0.4922  0.1763 -0.1275
  580MOL0     C78185   1.448  10.170   3.145 -1.2132 -0.1209  0.1844
  580MOL0     C78186   1.375  10.048   3.087  0.0829 -0.3947 -0.3070
  580MOL0     C78187   1.242  10.018   3.159  1.0825  0.2928 -0.1860
  580MOL0     C78188   1.119  10.091   3.109  0.6622  0.1381 -0.0583
  580MOL0     O78189   1.003  10.065   3.204 -0.8262 -1.1737 -0.3696
  580MOL0     C78190   0.888  10.137   3.187  0.2527 -0.1172 -0.0792
  580MOL0     C78191   0.857  10.231   3.081 -0.8129 -0.9023  0.4010
  580MOL0     C78192   0.730  10.304   3.077 -1.2065  0.7368  0.4557
  580MOL0     C78193   0.710  10.407   2.978  0.5180 -0.5563  0.4536
  580MOL0     C78194   0.630  10.265   3.169  0.6345 -0.3902  0.3557
  580MOL0     C78195   0.500  10.330   3.164 -0.4090  0.3110  0.3202
  580MOL0     O78196   0.496  10.465   3.131 -0.2014  0.4791  0.0354
  580MOL0     C78197   0.371  10.529   3.142 -0.9896 -0.6048 -0.2881
  580MOL0     C78198   0.276  10.504   3.049  0.6658 -0.6676  0.4141
  580MOL0     C78199   0.154  10.575   3.065 -0.1282  1.1775  1.2928
  580MOL0     C78200   0.132  10.669   3.160 -0.4599  0.0270  0.6572
  580MOL0     O78201   0.018  10.742   3.158 -0.1192  0.0496 -0.4157
  580MOL0     C78202  -0.032  10.817   3.272 -0.6057 -0.1842 -0.7044
  580MOL0     C78203  -0.187  10.824   3.273  0.5555  0.7325  0.5790
  580MOL0     C78204  -0.242  10.934   3.362 -0.2630 -0.4188 -1.0339
  580MOL0     C78205  -0.391  10.961   3.357 -0.2459 -0.0635 -0.0649
  580MOL0     C78206  -0.415  11.084   3.440 -1.2336 -0.5840  0.1690
  580MOL0     C78207  -0.409  11.053   3.590 -1.1655  0.1659 -0.5218
  580MOL0     C78208  -0.427  11.187   3.675  0.6071 -0.7716  0.9951
  580MOL0     C78209  -0.486  11.144   3.813  0.1523  0.0761  0.3398
  580MOL0    Cl78210  -0.667  11.137   3.796  0.4305 -0.1959  0.0984
  580MOL0     C78211   0.226  10.688   3.262  0.1409 -0.7999 -0.4456
  580MOL0     C78212   0.343  10.612   3.259 -0.0301 -0.4272  0.1807
  580MOL0     O78213   0.398  10.260   3.174 -0.6756  0.9839 -0.2828
  580MOL0     C78214   0.655  10.157   3.258  0.3762  0.1292 -0.4944
  580MOL0     C78215   0.779  10.097   3.267 -0.9665  0.2927 -0.3841
  580MOL0     N78216   1.556  10.299   2.957  0.2875  0.6093  1.2145
  580MOL0     N78217   1.670  10.306   2.902 -1.0798  0.0039 -0.0222
  580MOL0     C78218   2.734   9.931   3.140  0.4959 -0.0672  0.7461
  580MOL0     C78219   2.681   9.807   3.153 -0.5905  0.0628  0.2129
  580MOL0     C78220   2.378   9.448   3.215 -0.0515 -0.5905  0.7998
  580MOL0     C78221   2.271   9.378   3.269  0.0817 -0.1852 -0.4249
  580MOL0     C78222   2.240   9.250   3.229 -0.4601  0.4438  0.5764
  580MOL0     C78223   2.319   9.182   3.134 -0.3195 -0.3867  0.0683
  580MOL0     O78224   2.270   9.063   3.080  0.5851  0.6080  0.3115
  580MOL0     C78225   2.354   8.989   2.995 -0.4211  0.0065  0.1838
  580MOL0     C78226   2.273   8.870   2.937 -0.0708 -0.9815  0.7321
  580MOL0     C78227   2.340   8.808   2.813  1.0889 -0.4235 -0.0923
  580MOL0     C78228   2.454   8.712   2.839 -0.7210  0.5404  0.0100
  580MOL0     C78229   2.577   8.778   2.875 -0.3420 -0.2306 -0.2949
  580MOL0     C78230   2.675   8.842   2.913 -0.2583 -0.3438 -0.1265
  580MOL0     C78231   2.444   9.247   3.097 -0.3419 -0.0617  0.4742
  580MOL0     C78232   2.462   9.381   3.127  0.0591 -0.0539 -0.5594
  580MOL0     H78233   2.362   9.871   3.232 -0.7069  0.9651 -3.5295
  580MOL0     H78234   2.474  10.091   3.287  2.0466  0.2640  0.9269
  580MOL0     H78235   2.786  10.199   2.983 -0.3066 -1.2108 -0.4082
  580MOL0     H78236   2.627  10.136   2.940 -0.0417 -1.1056 -0.4208
  580MOL0     H78237   2.686  10.402   3.078  0.3290  1.0209 -1.9466
  580MOL0     H78238   2.629  10.388   2.913 -3.7444 -2.7489 -1.7605
  580MOL0     H78239   2.464  10.319   3.162 -2.7978  2.5830  0.7265
  580MOL0     H78240   2.440  10.462   3.067  0.1028  1.0333 -1.4829
  580MOL0     H78241   2.399  10.355   2.880  2.3192 -1.0564 -0.6692
  580MOL0     H78242   2.407  10.193   2.941  2.4301 -0.5372  0.9010
  580MOL0     H78243   2.237  10.281   3.118  0.0906 -2.3125 -0.4712
  580MOL0     H78244   2.215  10.426   3.017  1.9092  0.0194  0.7549
  580MOL0     H78245   2.180  10.252   2.821  2.2734  0.8915  1.1927
  580MOL0     H78246   2.155  10.125   2.953  0.3520 -0.7935 -1.6675
  580MOL0     H78247   1.988  10.330   3.035 -4.6279  2.2745 -1.3789
  580MOL0     H78248   2.001  10.368   2.869  4.1426  0.5142  0.6707
  580MOL0     H78249   1.916  10.081   2.952 -1.1243 -0.9910  0.7466
  580MOL0     H78250   1.887  10.163   2.803 -1.3080 -3.1003  1.2089
  580MOL0     H78251   1.720  10.070   3.124  0.1162  0.4163  0.2244
  580MOL0     H78252   1.485  10.149   3.246 -0.1067 -1.7679 -0.5174
  580MOL0     H78253   1.373  10.250   3.150 -1.9452 -0.8303  0.6823
  580MOL0     H78254   1.423   9.950   3.091 -2.5742 -1.8324 -0.9200
  580MOL0     H78255   1.342  10.068   2.984  1.3013  0.4047 -0.5553
  580MOL0     H78256   1.258  10.030   3.267 -1.3350  0.3708  0.2239
  580MOL0     H78257   1.225   9.910   3.152  3.7805 -0.2413  0.1571
  580MOL0     H78258   1.081  10.050   3.015  0.9871 -0.7015  0.1654
  580MOL0     H78259   1.141  10.198   3.101  1.1914 -0.0573 -1.5157
  580MOL0     H78260   0.926  10.269   3.005 -2.5789  1.5221 -0.1096
  580MOL0     H78261   0.614  10.398   2.927  1.4318 -0.9509 -1.2777
  580MOL0     H78262   0.710  10.512   3.012 -1.4825 -0.3109 -0.1760
  580MOL0     H78263   0.779  10.406   2.894  0.0615  1.3451 -0.0061
  580MOL0     H78264   0.300  10.447   2.959  0.2306  0.3768 -0.3881
  580MOL0     H78265   0.072  10.565   2.994  1.2066  1.6530 -0.3865
  580MOL0     H78266  -0.005  10.775   3.369 -0.5226  2.0624  0.2928
  580MOL0     H78267   0.009  10.918   3.266  3.4481 -1.6740 -1.6350
  580MOL0     H78268  -0.223  10.823   3.170 -0.5365  0.6745  0.9506
  580MOL0     H78269  -0.230  10.733   3.317 -1.5215  0.9318 -0.9089
  580MOL0     H78270  -0.188  11.024   3.331 -0.0751 -0.7412 -1.6474
  580MOL0     H78271  -0.209  10.901   3.461  1.6695 -0.6974 -1.7325
  580MOL0     H78272  -0.421  10.985   3.255 -0.1894 -0.7502 -0.2526
  580MOL0     H78273  -0.434  10.871   3.404 -0.8378 -0.4581 -1.3237
  580MOL0     H78274  -0.513  11.128   3.421 -0.9617 -0.3455 -0.7142
  580MOL0     H78275  -0.340  11.160   3.416  0.0783 -0.9926  2.6059
  580MOL0     H78276  -0.482  10.983   3.632 -1.4757  1.8120  1.9776
  580MOL0     H78277  -0.306  11.024   3.612 -1.2419  0.3774  0.1493
  580MOL0     H78278  -0.494  11.257   3.625 -1.2668 -2.5171  0.8720
  580MOL0     H78279  -0.330  11.235   3.687 -0.8252  1.7453  4.0038
  580MOL0     H78280  -0.478  11.234   3.874  0.5947  1.0215 -1.0622
  580MOL0     H78281  -0.447  11.051   3.856 -0.8656 -0.8321 -0.6267
  580MOL0     H78282   0.209  10.748   3.351  1.4546 -0.6051 -0.3119
  580MOL0     H78283   0.413  10.615   3.341 -0.7971 -1.0889  0.8700
  580MOL0     H78284   0.574  10.122   3.321  0.5283 -1.6405 -1.2319
  580MOL0     H78285   0.798  10.019   3.340 -0.6943  1.3532  0.7086
  580MOL0     H78286   2.831   9.947   3.094 -1.1658  2.7986 -2.1627
  580MOL0     H78287   2.743   9.724   3.118 -0.5977  1.0152 -2.2828
  580MOL0     H78288   2.196   9.426   3.332 -0.7906 -0.4683 -1.2270
  580MOL0     H78289   2.146   9.214   3.269 -1.4123  2.0417 -0.1255
  580MOL0     H78290   2.378   9.053   2.909  1.0983 -1.1726 -0.3031
  580MOL0     H78291   2.438   8.950   3.053 -1.3397 -2.2442  0.1060
  580MOL0     H78292   2.175   8.908   2.906  0.9326  0.3781 -0.9578
  580MOL0     H78293   2.244   8.803   3.018 -2.2869  1.5395  2.2288
  580MOL0     H78294   2.362   8.898   2.754 -4.5208  2.9452  2.1204
  580MOL0     H78295   2.258   8.763   2.757 -1.1474  3.0928  0.0648
  580MOL0     H78296   2.478   8.642   2.758 -2.0301  1.5971 -1.3370
  580MOL0     H78297   2.419   8.654   2.925 -1.8698  2.2644  0.7479
  580MOL0     H78298   2.762   8.901   2.933 -0.1681 -0.7213  0.6138
  580MOL0     H78299   2.523   9.208   3.033 -0.9642 -0.6642  0.0560
  580MOL0     H78300   2.540   9.437   3.077 -0.0068 -0.8028 -1.5376
  581MOL0     O78301   9.255   7.478   8.799 -0.5200  1.1419 -0.2733
  581MOL0     C78302   9.351   7.488   8.720 -1.0922 -0.0558 -0.0286
  581MOL0     O78303   9.344   7.522   8.596  0.4431 -0.4145 -0.2929
  581MOL0     C78304   9.218   7.556   8.553 -0.5013  0.4197  0.7432
  581MOL0     C78305   9.123   7.454   8.535 -0.4595 -0.3381  0.6260
  581MOL0     C78306   9.000   7.487   8.472 -0.2431  0.6445 -1.0988
  581MOL0     C78307   8.970   7.622   8.442  0.3705 -0.5651 -0.2179
  581MOL0     O78308   8.853   7.654   8.387  0.2355 -0.0440 -0.9536
  581MOL0     C78309   8.828   7.780   8.328 -0.1355  0.1302  0.6898
  581MOL0     C78310   8.688   7.783   8.259  0.2330  0.1119  0.7190
  581MOL0     C78311   8.694   7.853   8.119  1.2103 -0.0131  0.5556
  581MOL0     C78312   8.556   7.899   8.074  0.0793  0.0073 -0.0996
  581MOL0     C78313   8.551   7.943   7.920  0.3710  0.1219  0.2714
  581MOL0     C78314   8.409   7.939   7.865  0.7266  0.3685  1.2975
  581MOL0     C78315   8.409   7.951   7.710 -0.5190 -0.3582  0.0881
  581MOL0     C78316   8.426   7.826   7.628  1.2012  0.7446  0.2395
  581MOL0     N78317   8.300   7.748   7.626 -0.1847  0.2417 -0.2663
  581MOL0     C78318   8.179   7.784   7.574  0.0252 -0.2533  0.2447
  581MOL0     C78319   8.086   7.691   7.625 -0.5057 -0.0240  0.1304
  581MOL0     C78320   7.938   7.685   7.594 -0.5680 -0.0982 -0.3510
  581MOL0     C78321   7.846   7.742   7.696  0.6216  0.7922  0.5966
  581MOL0     C78322   7.702   7.676   7.682  0.4845  0.7327  0.4980
  581MOL0     C78323   7.599   7.755   7.765  0.0758  0.1022  0.0465
  581MOL0     O78324   7.650   7.783   7.897 -0.2356 -0.6035 -0.5872
  581MOL0     C78325   7.547   7.823   7.984 -0.8066 -0.3586  0.1216
  581MOL0     C78326   7.441   7.909   7.936 -1.1671 -0.2492 -0.5845
  581MOL0     C78327   7.338   7.945   8.024 -0.8037 -0.2115 -0.2701
  581MOL0     C78328   7.240   8.043   7.962  0.1384 -0.2092  0.1973
  581MOL0     C78329   7.346   7.898   8.160 -0.1274  0.1254  1.3275
  581MOL0     C78330   7.245   7.945   8.249  0.0222 -0.4489 -1.0623
  581MOL0     O78331   7.277   7.975   8.375 -0.4237  0.6213  0.7171
  581MOL0     C78332   7.176   8.006   8.454  0.7373  0.3450 -0.1754
  581MOL0     C78333   7.131   7.905   8.539 -0.0356 -0.0337  0.5384
  581MOL0     C78334   7.037   7.944   8.637  0.5259  0.2079  0.4770
  581MOL0     C78335   6.982   8.076   8.635 -0.5469 -0.4460 -0.6406
  581MOL0     O78336   6.897   8.127   8.732  0.2495 -0.1528 -0.5320
  581MOL0     C78337   6.860   8.053   8.851  1.0102  0.0945  0.3228
  581MOL0     C78338   6.957   8.070   8.975 -0.2993  0.1853 -0.2118
  581MOL0     C78339   6.906   7.977   9.093 -0.5940  0.7358  0.5113
  581MOL0     C78340   6.996   7.995   9.213 -0.1693  1.4096  0.0516
  581MOL0     C78341   6.947   7.911   9.335 -0.2924 -0.0686 -0.2284
  581MOL0     C78342   6.818   7.978   9.413 -1.1721  0.3379 -0.2195
  581MOL0     C78343   6.781   7.887   9.535  0.4293 -0.0268 -0.2347
  581MOL0     C78344   6.714   7.757   9.480  0.3347 -0.3685 -0.1475
  581MOL0    Cl78345   6.714   7.628   9.606  0.0976  0.0640 -0.1877
  581MOL0     C78346   7.015   8.168   8.538  0.8530  0.4978 -0.2159
  581MOL0     C78347   7.114   8.133   8.443  0.2376 -0.3956  0.5709
  581MOL0     O78348   7.134   7.953   8.200  0.4461 -0.3782 -0.9389
  581MOL0     C78349   7.453   7.810   8.198  0.1336 -0.5629 -0.2537
  581MOL0     C78350   7.549   7.767   8.107  0.2111 -0.3016 -0.3883
  581MOL0     N78351   8.158   7.596   7.687 -0.9772  0.2154  0.2037
  581MOL0     N78352   8.281   7.626   7.686  0.1022 -0.2816  0.3135
  581MOL0     C78353   9.069   7.719   8.466  1.6103  0.5505  0.3260
  581MOL0     C78354   9.191   7.690   8.525  0.3007  0.1152 -0.4974
  581MOL0     C78355   9.489   7.449   8.778  0.1563 -0.1606 -0.6448
  581MOL0     C78356   9.596   7.423   8.700  0.0769  0.4683 -0.1689
  581MOL0     C78357   9.716   7.387   8.756 -0.1072  0.2398  0.1420
  581MOL0     C78358   9.737   7.378   8.891 -0.2385  0.7254 -0.3477
  581MOL0     O78359   9.854   7.333   8.937  0.0150 -0.3564 -0.7882
  581MOL0     C78360   9.969   7.390   8.883 -0.2016 -0.4976 -0.1719
  581MOL0     C78361   9.972   7.534   8.890 -0.2107 -0.4606 -0.1951
  581MOL0     C78362   9.962   7.577   9.037 -0.2241  0.2388 -0.0398
  581MOL0     C78363   9.955   7.729   9.049  0.3784  1.2309 -0.2839
  581MOL0     C78364   9.817   7.767   9.008  0.2705  0.5355  1.7105
  581MOL0     C78365   9.706   7.791   8.964  0.0825 -0.3166 -0.6225
  581MOL0     C78366   9.629   7.410   8.973  0.8693  0.1557 -0.1726
  581MOL0     C78367   9.503   7.446   8.916 -0.1501 -0.2324 -0.0730
  581MOL0     H78368   9.151   7.350   8.545 -3.1367 -1.0817  1.1733
  581MOL0     H78369   8.926   7.412   8.444 -0.5249  0.1196  0.9055
  581MOL0     H78370   8.833   7.863   8.399 -0.0915 -0.0380  0.8831
  581MOL0     H78371   8.903   7.798   8.251 -0.2769 -0.0696  0.5056
  581MOL0     H78372   8.635   7.687   8.260 -0.2314  0.3349  2.9975
  581MOL0     H78373   8.628   7.840   8.330 -0.8336 -1.1476  0.8594
  581MOL0     H78374   8.747   7.948   8.132 -1.4371  1.4447  1.4787
  581MOL0     H78375   8.740   7.788   8.044 -1.2322 -0.2233 -0.8579
  581MOL0     H78376   8.489   7.820   8.109 -1.3478  1.8670  1.6662
  581MOL0     H78377   8.519   7.983   8.134 -2.5659 -1.3017  0.2710
  581MOL0     H78378   8.606   8.036   7.905  0.4883 -0.1904 -1.4031
  581MOL0     H78379   8.621   7.878   7.867  1.2012  1.7752 -0.7388
  581MOL0     H78380   8.358   7.845   7.889 -0.5389 -0.8363 -4.4289
  581MOL0     H78381   8.347   8.023   7.897 -1.5164  0.1514 -1.9553
  581MOL0     H78382   8.333   8.017   7.667 -0.5662  2.7789  4.3007
  581MOL0     H78383   8.503   8.006   7.696 -1.1341  0.3152 -1.7285
  581MOL0     H78384   8.507   7.761   7.664 -1.2437 -2.8544 -0.1714
  581MOL0     H78385   8.440   7.858   7.524 -0.9342  1.4068  0.0980
  581MOL0     H78386   8.156   7.882   7.535  0.3611 -0.5155 -0.6428
  581MOL0     H78387   7.909   7.715   7.493  2.6975  1.2483 -1.0294
  581MOL0     H78388   7.923   7.577   7.586 -0.5761 -0.1389  0.1835
  581MOL0     H78389   7.829   7.849   7.680  2.3626  1.3114  2.0394
  581MOL0     H78390   7.875   7.711   7.796  0.9854 -2.7156 -0.4808
  581MOL0     H78391   7.694   7.571   7.711 -0.9854  0.5539 -0.4600
  581MOL0     H78392   7.671   7.676   7.577 -0.0126 -0.0152  0.6386
  581MOL0     H78393   7.511   7.690   7.769  2.1919 -2.9419  1.4009
  581MOL0     H78394   7.577   7.838   7.697  1.0619 -0.4378 -0.9718
  581MOL0     H78395   7.448   7.952   7.836 -0.8325  2.0892  0.3828
  581MOL0     H78396   7.263   8.086   7.864 -0.0395  1.3126  0.7915
  581MOL0     H78397   7.151   7.981   7.948 -0.2212 -0.5701  3.3786
  581MOL0     H78398   7.209   8.132   8.018 -0.0209 -1.0174  1.4281
  581MOL0     H78399   7.166   7.803   8.523  4.1166  1.3890 -0.8793
  581MOL0     H78400   7.006   7.863   8.703  0.0929 -0.1174 -0.1223
  581MOL0     H78401   6.761   8.096   8.869 -1.8990 -5.6071  0.2416
  581MOL0     H78402   6.837   7.947   8.833 -0.4742  0.6842 -1.6367
  581MOL0     H78403   7.049   8.038   8.926 -0.3241 -0.4457  0.1337
  581MOL0     H78404   6.953   8.177   8.997 -1.8035  0.3591 -1.1828
  581MOL0     H78405   6.922   7.875   9.057  2.1995  0.7232  1.5608
  581MOL0     H78406   6.802   7.996   9.121  0.0468  3.2121  1.5441
  581MOL0     H78407   7.093   7.959   9.179 -0.3162 -0.6656  1.6149
  581MOL0     H78408   7.003   8.100   9.242 -0.3459  1.2947  0.5207
  581MOL0     H78409   7.036   7.918   9.397  1.5105  0.3483 -2.7183
  581MOL0     H78410   6.926   7.807   9.311 -1.2933  0.4157 -1.5650
  581MOL0     H78411   6.852   8.074   9.452 -0.9952  0.1283  0.1388
  581MOL0     H78412   6.738   7.996   9.340 -1.0595 -0.6847 -0.6073
  581MOL0     H78413   6.724   7.956   9.598  3.1419  2.0358  0.1290
  581MOL0     H78414   6.868   7.853   9.591 -1.5473  0.2782  3.3023
  581MOL0     H78415   6.763   7.710   9.395  1.0228  0.4477 -0.2210
  581MOL0     H78416   6.609   7.769   9.453  0.5081  0.0970 -0.6166
  581MOL0     H78417   6.972   8.267   8.538  0.2091  0.2407 -1.5711
  581MOL0     H78418   7.158   8.212   8.383 -1.8579  1.9559  1.9165
  581MOL0     H78419   7.467   7.776   8.300 -0.8885 -1.2895 -0.3429
  581MOL0     H78420   7.635   7.713   8.146 -0.8152 -0.6266  1.5881
  581MOL0     H78421   9.057   7.824   8.442  0.4769  0.6588  1.2871
  581MOL0     H78422   9.270   7.764   8.525 -0.4114  0.9141  0.9639
  581MOL0     H78423   9.572   7.411   8.595 -1.1586  0.2305  0.1260
  581MOL0     H78424   9.797   7.362   8.688  1.4564  3.2026  0.7772
  581MOL0     H78425  10.054   7.358   8.944 -1.2936  1.5411  2.6642
  581MOL0     H78426   9.993   7.357   8.781 -0.0884 -3.2976  0.6703
  581MOL0     H78427   9.902   7.576   8.817  2.3892  0.6204 -2.2105
  581MOL0     H78428  10.066   7.574   8.852 -1.5777  1.8919 -1.3754
  581MOL0     H78429  10.052   7.543   9.089  1.5338  1.2527 -2.2277
  581MOL0     H78430   9.883   7.526   9.092  1.4202  0.6750  3.0080
  581MOL0     H78431  10.009   7.786   8.972 -3.8349  3.7673 -1.6799
  581MOL0     H78432   9.977   7.755   9.153 -2.2776 -1.1223  1.0073
  581MOL0     H78433   9.604   7.801   8.933 -0.0130  0.1388 -0.1810
  581MOL0     H78434   9.633   7.391   9.080 -0.6367  1.2108  0.1113
  581MOL0     H78435   9.416   7.475   8.973 -1.5061 -2.6633 -0.7646
  582MOL0     O78436  10.389   0.337  10.881  1.0019  0.1121 -0.2972
  582MOL0     C78437  10.423   0.434  10.945 -0.1932 -1.4747  0.0522
  582MOL0     O78438  10.338   0.531  10.986 -0.3927  0.6302 -0.7667
  582MOL0     C78439  10.203   0.527  10.958 -0.1679  0.0120  1.1251
  582MOL0     C78440  10.149   0.519  10.831  0.0736  0.3384  0.5680
  582MOL0     C78441  10.010   0.540  10.812 -0.4468  0.5290  0.5021
  582MOL0     C78442   9.921   0.560  10.917  0.2609 -0.4100 -1.3485
  582MOL0     O78443   9.786   0.579  10.885  0.8424 -0.4210 -0.3648
  582MOL0     C78444   9.697   0.503  10.970 -0.0964  0.7730  0.4352
  582MOL0     C78445   9.577   0.453  10.895  0.7838  0.5239 -0.1312
  582MOL0     C78446   9.488   0.373  10.990 -0.0214 -0.2660  0.1793
  582MOL0     C78447   9.364   0.321  10.911  0.5955 -0.8699  0.1850
  582MOL0     C78448   9.267   0.246  10.992  0.6200  0.8260 -0.0552
  582MOL0     C78449   9.120   0.269  10.938 -1.0316  0.9086  0.0840
  582MOL0     C78450   9.008   0.180  10.995  0.8666  0.7844  0.1600
  582MOL0     C78451   9.009   0.032  10.942 -0.3691 -0.3125 -0.0481
  582MOL0     N78452   9.014  -0.064  11.054  0.6184 -0.3240 -0.5323
  582MOL0     C78453   8.909  -0.143  11.088  0.3278 -0.0269 -0.8143
  582MOL0     C78454   8.951  -0.229  11.181 -0.0354 -0.3720  0.7553
  582MOL0     C78455   8.875  -0.334  11.244 -0.1592 -0.6290 -0.0221
  582MOL0     C78456   8.878  -0.462  11.166  0.4671  0.1407 -0.0087
  582MOL0     C78457   8.794  -0.568  11.232  0.4758 -0.3315  0.3641
  582MOL0     C78458   8.758  -0.683  11.139 -0.2101  0.2152 -0.2348
  582MOL0     O78459   8.659  -0.626  11.054 -0.4275 -0.1878  0.1430
  582MOL0     C78460   8.564  -0.696  10.992  0.7915  0.2980 -1.0460
  582MOL0     C78461   8.491  -0.619  10.904  0.4721 -0.5951 -0.0284
  582MOL0     C78462   8.389  -0.680  10.831  0.2900  1.1139  1.3424
  582MOL0     C78463   8.305  -0.582  10.749  1.7855 -0.3306  0.6727
  582MOL0     C78464   8.350  -0.815  10.859 -0.5824  0.3640  0.2175
  582MOL0     C78465   8.227  -0.882  10.794  0.3494 -0.0216 -0.6795
  582MOL0     O78466   8.179  -0.991  10.861 -0.4939 -0.3003  0.7082
  582MOL0     C78467   8.052  -1.034  10.832 -0.5583 -0.1737  0.5363
  582MOL0     C78468   8.008  -1.124  10.928 -0.8944 -0.3413 -0.0379
  582MOL0     C78469   7.873  -1.176  10.930 -0.3073  0.0678  0.7980
  582MOL0     C78470   7.786  -1.136  10.827 -0.3902  0.4689 -0.2377
  582MOL0     O78471   7.666  -1.191  10.839  0.1543 -0.6764  0.4963
  582MOL0     C78472   7.546  -1.107  10.838 -0.7158 -0.2891  0.4520
  582MOL0     C78473   7.501  -1.087  10.981 -0.7303  0.1078  0.5915
  582MOL0     C78474   7.356  -1.142  11.009  0.1761 -0.5004 -0.6278
  582MOL0     C78475   7.283  -1.064  11.126 -0.0917  0.6745 -0.2496
  582MOL0     C78476   7.160  -1.152  11.163  0.0477 -0.1309  0.0593
  582MOL0     C78477   7.032  -1.136  11.074  0.2225 -0.0759 -0.5225
  582MOL0     C78478   6.984  -0.987  11.060  0.6724 -0.6290  0.4029
  582MOL0     C78479   6.858  -0.965  10.969  0.0211 -0.4232 -0.5172
  582MOL0    Cl78480   6.709  -1.062  11.012  0.4744  0.0841 -0.0821
  582MOL0     C78481   7.829  -1.044  10.736 -0.0372 -0.6679 -0.5542
  582MOL0     C78482   7.961  -0.994  10.737 -0.1297 -0.9311  0.5351
  582MOL0     O78483   8.218  -0.860  10.678  0.5671 -0.0872  0.7733
  582MOL0     C78484   8.420  -0.885  10.947  0.2812 -0.1966 -0.7733
  582MOL0     C78485   8.531  -0.834  11.013 -0.4455  0.2663  0.2094
  582MOL0     N78486   9.081  -0.199  11.202  0.1183  0.5634 -0.1768
  582MOL0     N78487   9.119  -0.100  11.126 -0.2604 -0.4629 -0.1188
  582MOL0     C78488   9.979   0.580  11.049  0.1907 -0.3980 -0.4610
  582MOL0     C78489  10.120   0.563  11.063 -0.0030 -0.9553 -0.3718
  582MOL0     C78490  10.564   0.475  10.954 -0.4499 -0.0560 -0.2896
  582MOL0     C78491  10.615   0.544  11.061  0.2085  0.6920 -0.1209
  582MOL0     C78492  10.754   0.541  11.097 -0.1660  0.2034  0.7042
  582MOL0     C78493  10.850   0.472  11.015  0.3531  0.0774 -1.1315
  582MOL0     O78494  10.981   0.475  11.060 -0.1200 -0.6381 -0.3841
  582MOL0     C78495  11.090   0.428  10.977 -0.8257 -0.0790  0.2929
  582MOL0     C78496  11.214   0.393  11.059  0.0895  0.5492  0.8766
  582MOL0     C78497  11.181   0.280  11.154 -0.1658 -0.9372 -0.0967
  582MOL0     C78498  11.314   0.230  11.211  0.1855  0.3523 -0.2558
  582MOL0     C78499  11.398   0.334  11.275 -0.8155 -0.0621 -0.4046
  582MOL0     C78500  11.480   0.426  11.315 -0.0880 -0.1304 -0.8989
  582MOL0     C78501  10.798   0.409  10.895 -0.5842 -0.4525 -1.1878
  582MOL0     C78502  10.657   0.418  10.866  0.1191  0.6715 -0.3177
  582MOL0     H78503  10.215   0.491  10.749  0.0413  1.7819  0.0251
  582MOL0     H78504   9.979   0.538  10.708  2.1244  2.0534 -0.3849
  582MOL0     H78505   9.756   0.423  11.016  0.2662  1.1667  0.6671
  582MOL0     H78506   9.663   0.567  11.052  0.6513  2.0133 -0.2033
  582MOL0     H78507   9.511   0.526  10.849  0.7340 -0.1664 -1.1834
  582MOL0     H78508   9.614   0.387  10.816  1.1234 -0.4270  0.7952
  582MOL0     H78509   9.556   0.298  11.032  2.1358  2.1928  1.3630
  582MOL0     H78510   9.456   0.448  11.063  0.4080  1.5751 -1.4489
  582MOL0     H78511   9.311   0.400  10.857 -0.8072 -2.2386 -0.5109
  582MOL0     H78512   9.400   0.256  10.830 -0.6978 -0.9312 -0.3618
  582MOL0     H78513   9.295   0.141  11.008  1.1908  1.0336  0.3476
  582MOL0     H78514   9.265   0.287  11.093  0.8312 -3.5116  1.9417
  582MOL0     H78515   9.096   0.373  10.959 -1.0060  0.7661  0.8769
  582MOL0     H78516   9.122   0.254  10.830  0.4520 -1.0780  0.3299
  582MOL0     H78517   9.008   0.174  11.104 -1.6028  1.8068  0.2832
  582MOL0     H78518   8.911   0.223  10.967 -0.3573 -2.9638 -1.9588
  582MOL0     H78519   9.093   0.006  10.877 -1.8704 -3.5855 -0.8990
  582MOL0     H78520   8.920   0.010  10.882 -2.0293  1.5718  1.5670
  582MOL0     H78521   8.809  -0.144  11.043  0.5570 -3.1300 -1.4909
  582MOL0     H78522   8.916  -0.347  11.345  0.8263  3.8637  0.3483
  582MOL0     H78523   8.771  -0.306  11.265 -0.2672 -0.3473 -0.9106
  582MOL0     H78524   8.982  -0.497  11.163  0.9287  1.5398 -1.4616
  582MOL0     H78525   8.841  -0.448  11.064  2.0298 -1.6198 -0.8847
  582MOL0     H78526   8.694  -0.537  11.264 -0.5788 -2.7961 -0.2758
  582MOL0     H78527   8.843  -0.611  11.320  0.1965 -1.9202 -0.2321
  582MOL0     H78528   8.709  -0.759  11.200 -0.2074  0.1552 -0.3054
  582MOL0     H78529   8.848  -0.718  11.086  0.2050 -0.6065  0.9745
  582MOL0     H78530   8.503  -0.512  10.890 -2.7750 -0.0451  0.7247
  582MOL0     H78531   8.316  -0.595  10.641  0.2431  3.1933 -0.0589
  582MOL0     H78532   8.198  -0.604  10.755  1.7051 -0.7528 -1.4082
  582MOL0     H78533   8.343  -0.482  10.772  3.0987 -0.7975  0.6140
  582MOL0     H78534   8.077  -1.158  11.004  0.3925  0.1793 -0.9476
  582MOL0     H78535   7.842  -1.251  11.002 -0.9616  0.6555  1.1347
  582MOL0     H78536   7.564  -1.013  10.784  1.8531  0.2692  2.0905
  582MOL0     H78537   7.464  -1.159  10.789 -0.0080 -1.5618  0.5853
  582MOL0     H78538   7.565  -1.154  11.040  0.4253 -0.9464 -1.7308
  582MOL0     H78539   7.510  -0.983  11.014 -4.4317  0.2883  1.5065
  582MOL0     H78540   7.367  -1.249  11.027  2.8208 -0.4246 -1.4318
  582MOL0     H78541   7.290  -1.139  10.922 -0.7099 -1.6666 -0.0313
  582MOL0     H78542   7.344  -1.069  11.217  4.2698 -0.6401 -2.9452
  582MOL0     H78543   7.275  -0.957  11.106  0.6263  1.1326  1.6735
  582MOL0     H78544   7.132  -1.107  11.259  0.1743  2.0277 -0.8542
  582MOL0     H78545   7.179  -1.257  11.186  0.7871  0.2959  1.5179
  582MOL0     H78546   7.064  -1.170  10.975  1.4740 -0.7724  0.0923
  582MOL0     H78547   6.959  -1.207  11.112 -0.0680  0.2253 -0.5141
  582MOL0     H78548   7.057  -0.933  10.999  0.7242 -2.8341 -1.6434
  582MOL0     H78549   6.973  -0.936  11.156  0.3511 -0.3824  0.2366
  582MOL0     H78550   6.887  -1.001  10.870  0.9903 -3.0003  0.6099
  582MOL0     H78551   6.835  -0.858  10.968  2.4137  0.1456 -0.5598
  582MOL0     H78552   7.758  -1.016  10.659 -0.9218 -0.1273  0.4280
  582MOL0     H78553   7.998  -0.928  10.660  2.7172 -1.8820  0.9605
  582MOL0     H78554   8.404  -0.990  10.968  1.1784 -0.3180 -0.6669
  582MOL0     H78555   8.593  -0.899  11.074 -0.5077  0.3739  0.3875
  582MOL0     H78556   9.921   0.605  11.137 -1.2313 -0.6687 -1.2925
  582MOL0     H78557  10.169   0.572  11.159  0.1424 -0.5178 -0.4876
  582MOL0     H78558  10.547   0.592  11.131  2.3144  3.2462  0.3176
  582MOL0     H78559  10.783   0.593  11.188  3.0069  0.0697 -0.1008
  582MOL0     H78560  11.062   0.346  10.911 -0.1121 -1.0788  1.2034
  582MOL0     H78561  11.125   0.509  10.912  0.7469  1.3877  2.7933
  582MOL0     H78562  11.259   0.481  11.106  0.2878  1.1035 -0.3146
  582MOL0     H78563  11.285   0.353  10.986 -0.4464 -0.6021  0.9684
  582MOL0     H78564  11.131   0.194  11.107  1.9809 -1.5484 -1.3987
  582MOL0     H78565  11.121   0.326  11.233  0.5092 -3.8106  2.2598
  582MOL0     H78566  11.365   0.197  11.121  2.1743 -1.4407  1.4161
  582MOL0     H78567  11.298   0.138  11.269  1.0756 -1.6586 -2.9873
  582MOL0     H78568  11.556   0.496  11.344  0.5473 -1.5037  0.9039
  582MOL0     H78569  10.869   0.358  10.831  2.0038 -2.2472  2.7202
  582MOL0     H78570  10.632   0.355  10.781 -0.7464  1.3783 -0.5971
  583MOL0     O78571   3.112   2.340   3.786  0.1804  0.0790 -0.3522
  583MOL0     C78572   3.233   2.358   3.757  1.1009  0.5605 -0.0905
  583MOL0     O78573   3.287   2.356   3.638 -0.1856  0.3709  0.3265
  583MOL0     C78574   3.197   2.330   3.533  0.0095 -0.0292  0.6329
  583MOL0     C78575   3.161   2.207   3.476 -0.3699 -0.5388 -0.1071
  583MOL0     C78576   3.069   2.203   3.367  0.3855 -0.1677 -0.6396
  583MOL0     C78577   3.003   2.318   3.332 -0.1806  0.3739  1.3577
  583MOL0     O78578   2.915   2.310   3.231  0.0537  0.1153  0.0737
  583MOL0     C78579   2.961   2.278   3.095 -0.2580 -0.9181 -0.1138
  583MOL0     C78580   2.952   2.128   3.063 -0.4658  0.2184 -1.0098
  583MOL0     C78581   2.805   2.093   3.071 -0.3935 -0.6004 -0.1990
  583MOL0     C78582   2.790   1.944   3.031  0.7027 -0.8303 -0.7020
  583MOL0     C78583   2.637   1.920   3.016 -0.4268  0.2394 -0.0353
  583MOL0     C78584   2.618   1.763   3.002 -0.5724 -0.6062 -0.1560
  583MOL0     C78585   2.489   1.729   2.929  0.3680 -0.5785  0.1693
  583MOL0     C78586   2.486   1.584   2.899  0.1931  0.6876 -0.1460
  583MOL0     N78587   2.418   1.502   2.999 -0.6184  1.1429  0.2168
  583MOL0     C78588   2.432   1.497   3.134  0.3331 -0.3411 -0.4105
  583MOL0     C78589   2.338   1.409   3.185 -0.4486 -0.1224 -1.0131
  583MOL0     C78590   2.330   1.370   3.327 -0.9834 -0.3883  0.3593
  583MOL0     C78591   2.197   1.335   3.385  0.4734 -0.2860  0.6630
  583MOL0     C78592   2.167   1.181   3.391 -0.3417 -0.1808  0.6408
  583MOL0     C78593   2.013   1.151   3.404 -0.7654 -0.4259  0.4023
  583MOL0     O78594   2.002   1.011   3.409  0.1194  0.9622 -0.4059
  583MOL0     C78595   1.872   0.959   3.413  0.6048  0.0111 -0.3894
  583MOL0     C78596   1.856   0.815   3.413  0.0006  0.3543 -0.0132
  583MOL0     C78597   1.734   0.757   3.405  0.2337 -0.0038  0.0588
  583MOL0     C78598   1.729   0.609   3.397  0.2560  0.0132  0.2714
  583MOL0     C78599   1.618   0.838   3.402  0.0880 -0.9878 -0.2261
  583MOL0     C78600   1.476   0.794   3.398 -0.4015  1.3613 -0.4239
  583MOL0     O78601   1.388   0.847   3.310 -0.2967 -0.0790  0.2665
  583MOL0     C78602   1.265   0.794   3.304  0.3418  0.6274  0.1158
  583MOL0     C78603   1.237   0.663   3.265  0.4200 -0.1765 -0.1094
  583MOL0     C78604   1.106   0.621   3.231 -0.1214  0.2551 -0.3321
  583MOL0     C78605   1.000   0.708   3.247 -0.0451  0.3865  0.2709
  583MOL0     O78606   0.877   0.661   3.216  0.2134 -0.1870 -0.0976
  583MOL0     C78607   0.763   0.749   3.215 -0.4373  0.3542  0.5004
  583MOL0     C78608   0.755   0.823   3.080 -0.4864  0.6259 -0.2931
  583MOL0     C78609   0.647   0.936   3.068 -0.2471 -0.5013 -0.2110
  583MOL0     C78610   0.503   0.884   3.089  0.4849  0.4380  0.0921
  583MOL0     C78611   0.438   0.840   2.957  1.3004  0.1353 -0.2690
  583MOL0     C78612   0.309   0.759   2.987  0.0234 -0.8123 -0.2207
  583MOL0     C78613   0.261   0.685   2.865 -0.6258 -0.0063 -0.2541
  583MOL0     C78614   0.118   0.650   2.888  0.3507 -0.2039 -0.2932
  583MOL0    Cl78615   0.066   0.591   2.738 -0.1166 -0.1540  0.1385
  583MOL0     C78616   1.028   0.842   3.280 -0.1318  0.0164 -1.8512
  583MOL0     C78617   1.161   0.882   3.297 -0.0235  0.4240  0.4435
  583MOL0     O78618   1.449   0.707   3.484 -1.0532  0.2335  0.2061
  583MOL0     C78619   1.626   0.975   3.389 -0.0692 -0.2254 -0.1888
  583MOL0     C78620   1.752   1.032   3.399  0.3816 -0.2848  0.5105
  583MOL0     N78621   2.264   1.370   3.074 -0.3937 -0.3642 -0.1098
  583MOL0     N78622   2.321   1.415   2.971  0.7044  0.6803 -0.4040
  583MOL0     C78623   3.026   2.435   3.390  0.0004 -0.0336 -0.2773
  583MOL0     C78624   3.130   2.443   3.488  0.2864  1.2136  0.5383
  583MOL0     C78625   3.335   2.374   3.871  0.1343 -0.5391 -0.0375
  583MOL0     C78626   3.476   2.381   3.850 -0.1306 -0.5328 -0.6197
  583MOL0     C78627   3.557   2.411   3.962 -0.2790 -1.0370 -0.2884
  583MOL0     C78628   3.500   2.441   4.088 -0.3323  0.9485  0.3355
  583MOL0     O78629   3.564   2.473   4.200 -0.4357 -0.1807  0.2112
  583MOL0     C78630   3.662   2.577   4.191  0.1238  0.2398  0.4043
  583MOL0     C78631   3.769   2.558   4.291 -0.3931  0.3177  0.7126
  583MOL0     C78632   3.891   2.644   4.255 -0.1757 -0.0913  0.2486
  583MOL0     C78633   4.017   2.617   4.348  0.7172 -0.1282 -0.9789
  583MOL0     C78634   4.118   2.712   4.304 -0.1533  0.2902  0.3877
  583MOL0     C78635   4.215   2.786   4.277  0.3248  0.3073  0.0794
  583MOL0     C78636   3.363   2.422   4.107 -0.1311 -0.5489 -0.3849
  583MOL0     C78637   3.289   2.400   4.000 -0.0005 -0.8695  0.8908
  583MOL0     H78638   3.221   2.121   3.505  2.8095  1.4242 -0.3619
  583MOL0     H78639   3.049   2.103   3.330 -2.5841 -0.3991  1.2548
  583MOL0     H78640   2.902   2.327   3.017 -0.2386 -0.8705 -0.0988
  583MOL0     H78641   3.061   2.322   3.090 -0.9438  0.5604 -3.3441
  583MOL0     H78642   3.000   2.124   2.965 -2.5749 -0.0900 -2.1006
  583MOL0     H78643   3.011   2.071   3.135 -0.5192  1.8952  0.4432
  583MOL0     H78644   2.761   2.106   3.170 -1.2451 -1.4260 -0.4519
  583MOL0     H78645   2.749   2.162   3.007  3.8140  1.5013 -2.0571
  583MOL0     H78646   2.834   1.925   2.933  2.2814  1.7352 -0.5806
  583MOL0     H78647   2.829   1.882   3.112  1.7302 -0.9698 -1.2816
  583MOL0     H78648   2.592   1.963   3.106 -0.0892 -0.3753  0.4304
  583MOL0     H78649   2.596   1.971   2.928  0.3994 -2.3381 -2.0449
  583MOL0     H78650   2.706   1.736   2.944  0.0843  2.1940 -0.5801
  583MOL0     H78651   2.618   1.714   3.100  0.6605 -2.0271 -0.8249
  583MOL0     H78652   2.400   1.745   2.990  0.2112 -1.3658  0.1483
  583MOL0     H78653   2.479   1.773   2.829 -2.8052  0.7506  0.9293
  583MOL0     H78654   2.589   1.546   2.896  0.3071  0.9703  0.1514
  583MOL0     H78655   2.427   1.579   2.807 -0.6326  0.4290  0.3879
  583MOL0     H78656   2.496   1.565   3.190 -3.1346  1.5588  1.5604
  583MOL0     H78657   2.394   1.281   3.330  2.1003  1.6944  1.3074
  583MOL0     H78658   2.373   1.447   3.392 -1.3062  2.1212 -2.1590
  583MOL0     H78659   2.118   1.387   3.330  0.7140 -0.3596  0.2368
  583MOL0     H78660   2.189   1.361   3.490 -2.4926 -2.0219  0.9644
  583MOL0     H78661   2.226   1.147   3.477  0.9039  1.9861  0.7095
  583MOL0     H78662   2.197   1.134   3.297  1.3925  1.7509  0.1715
  583MOL0     H78663   1.966   1.189   3.312  1.5817  1.2154 -0.2266
  583MOL0     H78664   1.963   1.209   3.481 -2.5749  0.7265 -1.5264
  583MOL0     H78665   1.944   0.751   3.408 -0.8328 -0.9139  1.0601
  583MOL0     H78666   1.644   0.573   3.339  0.7940  1.1223 -1.2832
  583MOL0     H78667   1.821   0.578   3.346 -1.2448  0.5920 -3.0681
  583MOL0     H78668   1.722   0.557   3.493  1.8271 -0.7212  0.0235
  583MOL0     H78669   1.318   0.592   3.253 -0.2823 -1.3191  1.5682
  583MOL0     H78670   1.098   0.518   3.199  0.1450  0.9889 -3.0014
  583MOL0     H78671   0.677   0.682   3.223  0.4244 -0.5891  2.4518
  583MOL0     H78672   0.764   0.817   3.301  1.2776 -0.6713  1.3275
  583MOL0     H78673   0.852   0.865   3.053  0.6819 -2.3592 -1.0560
  583MOL0     H78674   0.740   0.742   3.009 -1.1701  0.5151 -0.0376
  583MOL0     H78675   0.658   0.985   2.970 -2.0303 -0.7866 -0.5884
  583MOL0     H78676   0.669   1.009   3.147  2.1494  1.0918 -2.1619
  583MOL0     H78677   0.496   0.794   3.150 -0.7326  0.1388 -0.4769
  583MOL0     H78678   0.444   0.956   3.147 -1.7500 -0.8411 -0.5202
  583MOL0     H78679   0.503   0.781   2.891  0.3958 -0.0713 -0.9911
  583MOL0     H78680   0.414   0.933   2.905 -2.8528 -0.3877  0.3803
  583MOL0     H78681   0.313   0.694   3.075  2.7731  1.8412  1.8739
  583MOL0     H78682   0.232   0.833   3.012 -0.3627 -0.0846 -3.2156
  583MOL0     H78683   0.321   0.595   2.849 -0.6401  0.3487 -2.7746
  583MOL0     H78684   0.269   0.743   2.773  0.2043 -0.2075 -0.3132
  583MOL0     H78685   0.055   0.738   2.910 -2.7285 -2.3345  0.1060
  583MOL0     H78686   0.102   0.580   2.971 -1.7455  2.0115  1.3188
  583MOL0     H78687   0.949   0.915   3.294 -1.5138 -1.6922 -0.0731
  583MOL0     H78688   1.184   0.988   3.306  1.7322  0.1238 -0.0995
  583MOL0     H78689   1.543   1.041   3.370  0.7522  0.5087 -1.3172
  583MOL0     H78690   1.745   1.140   3.389  1.2250 -0.4484 -3.0739
  583MOL0     H78691   2.963   2.521   3.368  0.9123  0.4661 -1.0175
  583MOL0     H78692   3.161   2.536   3.534  2.2407  1.1983 -0.6490
  583MOL0     H78693   3.521   2.371   3.751  0.1316 -1.2558 -0.4335
  583MOL0     H78694   3.664   2.416   3.944 -0.3698  2.5429 -0.4256
  583MOL0     H78695   3.700   2.587   4.088  2.8872 -0.1276  1.2956
  583MOL0     H78696   3.611   2.672   4.211 -0.5778  0.1602 -0.8742
  583MOL0     H78697   3.807   2.458   4.270 -2.3529 -0.0746 -1.3996
  583MOL0     H78698   3.736   2.590   4.391  1.2367  2.0986  0.7390
  583MOL0     H78699   3.857   2.747   4.247  1.9622  0.5058 -2.4450
  583MOL0     H78700   3.920   2.627   4.151 -1.4991  1.3205 -0.3743
  583MOL0     H78701   4.058   2.516   4.342  0.8912 -0.0023 -1.9341
  583MOL0     H78702   3.990   2.632   4.453  0.2467  0.4075 -1.1715
  583MOL0     H78703   4.299   2.847   4.249 -0.3597 -0.1624 -3.5910
  583MOL0     H78704   3.325   2.446   4.206  1.1414  0.4297 -0.1024
  583MOL0     H78705   3.182   2.404   4.021 -0.2109 -3.2107  0.6268
  584MOL0     O78706   4.872  10.951   6.075  0.4759  0.1069  0.2474
  584MOL0     C78707   4.878  10.877   5.975  0.0500  0.3410 -0.5213
  584MOL0     O78708   4.770  10.841   5.901  0.7200  0.1104  0.4253
  584MOL0     C78709   4.649  10.907   5.925 -0.0888  0.3604  0.5319
  584MOL0     C78710   4.543  10.828   5.966  0.6616 -0.5169  0.4736
  584MOL0     C78711   4.419  10.886   5.973  0.7613  0.5568 -0.4057
  584MOL0     C78712   4.388  11.014   5.943  0.2302 -0.3602 -0.9440
  584MOL0     O78713   4.261  11.056   5.952 -0.0676  0.6015 -0.2755
  584MOL0     C78714   4.215  11.181   5.889  0.4046 -0.1613  0.0278
  584MOL0     C78715   4.062  11.188   5.911 -0.0088  0.0365  0.2379
  584MOL0     C78716   3.991  11.323   5.890  0.7957  0.3966  0.2239
  584MOL0     C78717   3.839  11.315   5.901  0.1629  0.0790  0.6234
  584MOL0     C78718   3.787  11.396   6.024 -0.0490  0.5373 -0.4313
  584MOL0     C78719   3.637  11.420   6.018  0.0558  0.6305  0.0581
  584MOL0     C78720   3.597  11.524   6.115  1.2334 -0.2897 -0.2197
  584MOL0     C78721   3.451  11.554   6.080  0.1284  0.1351  0.6564
  584MOL0     N78722   3.349  11.445   6.097  0.4729  0.5049  0.0788
  584MOL0     C78723   3.248  11.402   6.011 -0.2206  0.8926  0.3225
  584MOL0     C78724   3.179  11.305   6.073 -0.0051 -0.1428 -0.1592
  584MOL0     C78725   3.075  11.226   6.014  0.7807 -0.0439 -0.0440
  584MOL0     C78726   3.010  11.129   6.127  0.3501 -0.2473  0.1118
  584MOL0     C78727   2.877  11.058   6.073 -0.2194  0.1797 -0.1360
  584MOL0     C78728   2.796  10.984   6.184  0.1101 -0.0691 -0.3781
  584MOL0     O78729   2.677  10.928   6.129  0.2747 -0.0314 -0.5088
  584MOL0     C78730   2.587  10.851   6.213 -1.1942 -0.8128  0.9279
  584MOL0     C78731   2.451  10.853   6.189  0.3553 -0.1662  0.3156
  584MOL0     C78732   2.357  10.787   6.268 -0.1562  0.1980  1.1499
  584MOL0     C78733   2.210  10.794   6.218 -0.5938 -0.3436  0.3406
  584MOL0     C78734   2.400  10.702   6.373 -0.3730  0.7115 -0.1593
  584MOL0     C78735   2.301  10.618   6.459  0.2589 -0.4523  0.9808
  584MOL0     O78736   2.165  10.628   6.446 -0.1265  0.6878  0.1917
  584MOL0     C78737   2.081  10.541   6.517  0.6117 -1.0491  0.3340
  584MOL0     C78738   2.116  10.408   6.564 -0.0689 -0.3031 -0.4227
  584MOL0     C78739   2.026  10.334   6.646  0.3920  0.0386 -0.0428
  584MOL0     C78740   1.891  10.376   6.673  0.0144  0.0977 -0.5673
  584MOL0     O78741   1.806  10.319   6.767  0.6409  0.4686 -1.0970
  584MOL0     C78742   1.872  10.222   6.852 -0.7251  0.9096  0.4175
  584MOL0     C78743   1.764  10.165   6.942 -0.7163 -0.9866 -0.7118
  584MOL0     C78744   1.694  10.284   7.014  0.3469  1.1746 -0.1221
  584MOL0     C78745   1.604  10.213   7.122 -0.8082  0.0121  0.0157
  584MOL0     C78746   1.521  10.320   7.191  0.5672 -0.2981  0.1706
  584MOL0     C78747   1.397  10.258   7.258  1.3989 -1.0587  0.4601
  584MOL0     C78748   1.281  10.242   7.152 -0.0094 -0.1473  0.6069
  584MOL0     C78749   1.142  10.214   7.218 -0.3546  0.0838 -0.0661
  584MOL0    Cl78750   1.096  10.366   7.322  0.5418  0.2817 -0.1194
  584MOL0     C78751   1.863  10.502   6.628 -0.0189 -0.1243  0.0794
  584MOL0     C78752   1.950  10.581   6.563 -0.2594  0.8444 -0.0879
  584MOL0     O78753   2.363  10.559   6.546 -0.1320 -0.6305  0.4682
  584MOL0     C78754   2.536  10.697   6.397 -0.8144 -0.3148 -0.4168
  584MOL0     C78755   2.632  10.770   6.318 -0.5135 -0.1042 -0.6402
  584MOL0     N78756   3.235  11.293   6.206  0.0281 -0.4609  0.3562
  584MOL0     N78757   3.323  11.389   6.217  0.6976  0.3783  0.4497
  584MOL0     C78758   4.493  11.103   5.918  0.1379  0.5287  0.0142
  584MOL0     C78759   4.626  11.048   5.908  0.9155 -0.3126 -0.2068
  584MOL0     C78760   5.002  10.804   5.946 -0.2805  0.5496  0.0947
  584MOL0     C78761   4.996  10.699   5.858  0.4219  0.3899 -0.2062
  584MOL0     C78762   5.108  10.617   5.830  0.0757 -0.5410  0.5807
  584MOL0     C78763   5.231  10.650   5.896  0.7606  0.1236  0.1177
  584MOL0     O78764   5.323  10.552   5.909 -0.0395  0.4410 -0.4432
  584MOL0     C78765   5.411  10.530   5.800  0.3374 -0.0900 -0.2411
  584MOL0     C78766   5.552  10.497   5.856  0.3043  0.6286  0.0029
  584MOL0     C78767   5.618  10.627   5.912  0.4843  0.4310  0.0987
  584MOL0     C78768   5.757  10.601   5.979 -0.6945 -0.0213  0.0410
  584MOL0     C78769   5.842  10.508   5.904 -0.4032  0.6877  0.4570
  584MOL0     C78770   5.909  10.459   5.817 -0.3117  0.1312  0.4048
  584MOL0     C78771   5.240  10.767   5.970 -0.7844 -0.3189  0.0937
  584MOL0     C78772   5.130  10.845   6.001  0.0256 -0.3749  0.3657
  584MOL0     H78773   4.567  10.724   5.987  1.5935 -0.1691  1.2695
  584MOL0     H78774   4.338  10.823   6.007  2.4017 -0.6708  1.4183
  584MOL0     H78775   4.264  11.270   5.929 -0.5144  1.5924 -2.4937
  584MOL0     H78776   4.222  11.197   5.781 -2.4040  2.0238  0.0562
  584MOL0     H78777   4.010  11.117   5.846  0.5440 -0.0444 -0.1200
  584MOL0     H78778   4.054  11.146   6.012  0.0434 -0.2475  0.1266
  584MOL0     H78779   4.031  11.393   5.964 -1.3517 -0.9742  2.9034
  584MOL0     H78780   4.022  11.353   5.790 -0.5486 -1.7417 -0.8951
  584MOL0     H78781   3.793  11.354   5.810  1.4886  2.1094  0.7565
  584MOL0     H78782   3.794  11.216   5.915  0.6035  0.1058  2.6336
  584MOL0     H78783   3.807  11.338   6.114 -2.1711  1.4933  0.7149
  584MOL0     H78784   3.843  11.490   6.034 -0.5962  0.7659  0.6838
  584MOL0     H78785   3.625  11.458   5.916 -0.9739  1.2147  0.3825
  584MOL0     H78786   3.579  11.328   6.035  0.0701  0.8981  1.6713
  584MOL0     H78787   3.605  11.500   6.221  3.3826  1.0369 -0.0377
  584MOL0     H78788   3.662  11.609   6.094  0.6229 -0.0621 -1.2956
  584MOL0     H78789   3.451  11.601   5.981 -3.7935  1.6866  1.2100
  584MOL0     H78790   3.417  11.632   6.150  0.7283  1.9490 -0.9745
  584MOL0     H78791   3.235  11.424   5.906 -2.2349  0.8668  0.5226
  584MOL0     H78792   2.991  11.279   5.968  0.8493  0.7710  0.7402
  584MOL0     H78793   3.117  11.160   5.937  1.2413  2.0728 -1.6971
  584MOL0     H78794   2.994  11.188   6.217 -1.9531 -0.6042 -0.0162
  584MOL0     H78795   3.083  11.051   6.152 -0.5482 -0.8307  0.9355
  584MOL0     H78796   2.902  10.990   5.991 -0.5726 -2.5291  1.8411
  584MOL0     H78797   2.806  11.136   6.044 -0.8193 -0.0810  0.6098
  584MOL0     H78798   2.778  11.041   6.276  2.0714  0.6828 -0.4178
  584MOL0     H78799   2.863  10.904   6.217  0.4933  1.3799  2.6977
  584MOL0     H78800   2.413  10.923   6.115  0.8319  0.1521  0.3672
  584MOL0     H78801   2.154  10.819   6.308  1.0408 -2.6956  2.1476
  584MOL0     H78802   2.192  10.866   6.138 -0.4615  0.2875  0.8779
  584MOL0     H78803   2.185  10.694   6.181 -0.4092 -0.1324 -0.3748
  584MOL0     H78804   2.215  10.369   6.542 -0.6257 -1.6582 -0.6287
  584MOL0     H78805   2.057  10.234   6.676 -1.3603 -0.8820 -1.1305
  584MOL0     H78806   1.926  10.145   6.797  1.8073  3.7559 -1.3673
  584MOL0     H78807   1.945  10.273   6.915 -0.8134 -0.0659  1.3297
  584MOL0     H78808   1.693  10.104   6.884 -1.7569 -0.5803  0.1122
  584MOL0     H78809   1.815  10.103   7.016  0.2530  0.5094 -0.0874
  584MOL0     H78810   1.619  10.335   6.953 -2.2967  0.9696  2.6986
  584MOL0     H78811   1.762  10.355   7.063 -1.5247  0.2464  4.3192
  584MOL0     H78812   1.538  10.141   7.074  0.4445  0.1636 -2.0869
  584MOL0     H78813   1.666  10.155   7.191  0.3468 -0.0195 -1.0090
  584MOL0     H78814   1.487  10.385   7.110 -1.1597  0.3590  1.3804
  584MOL0     H78815   1.564  10.392   7.261 -2.6371  1.5355  0.4668
  584MOL0     H78816   1.420  10.164   7.309  1.8139 -1.5431 -0.6044
  584MOL0     H78817   1.374  10.332   7.335  2.3048  1.5859 -1.6605
  584MOL0     H78818   1.299  10.155   7.088  1.5326 -0.0456  0.8551
  584MOL0     H78819   1.278  10.323   7.079  0.4835 -0.9634 -0.3373
  584MOL0     H78820   1.157  10.133   7.290  1.0561  0.5478  0.2092
  584MOL0     H78821   1.057  10.190   7.153  0.3445 -1.9831 -0.2989
  584MOL0     H78822   1.766  10.547   6.644 -0.7028 -1.5707  0.1311
  584MOL0     H78823   1.909  10.672   6.520  0.3577  0.8223 -0.7401
  584MOL0     H78824   2.567  10.647   6.489 -1.1170  2.6025  1.3960
  584MOL0     H78825   2.738  10.767   6.344 -0.7788 -3.2180  0.6592
  584MOL0     H78826   4.466  11.206   5.899 -2.4019 -0.1135 -0.1323
  584MOL0     H78827   4.708  11.116   5.885  0.1838 -0.0389 -2.2081
  584MOL0     H78828   4.906  10.663   5.809  1.8488 -2.1762 -1.1764
  584MOL0     H78829   5.097  10.521   5.780 -1.4387 -1.0286  1.7992
  584MOL0     H78830   5.367  10.451   5.738 -1.9674  1.9611 -1.4243
  584MOL0     H78831   5.409  10.619   5.736  0.3184 -1.3078 -2.0109
  584MOL0     H78832   5.607  10.441   5.781  1.0293  0.6521  0.5073
  584MOL0     H78833   5.551  10.425   5.938  3.1626  0.4435 -0.0194
  584MOL0     H78834   5.554  10.680   5.983  0.0701  1.9523 -1.3396
  584MOL0     H78835   5.630  10.703   5.834 -0.4245  0.3262 -0.1579
  584MOL0     H78836   5.730  10.560   6.076 -2.1537 -0.9006 -0.7011
  584MOL0     H78837   5.819  10.688   6.005 -1.4597 -0.0124  1.9869
  584MOL0     H78838   5.961  10.420   5.731 -0.4663  0.1480  0.3031
  584MOL0     H78839   5.342  10.791   5.999 -0.9311 -1.6303  1.7911
  584MOL0     H78840   5.140  10.926   6.072  0.1579 -0.1701  0.1128
  585MOL0     O78841   3.533   8.853   7.045 -0.2963  0.6465  0.5515
  585MOL0     C78842   3.602   8.748   7.034  0.4121  0.1940  0.4140
  585MOL0     O78843   3.590   8.654   6.930  0.3182  0.3087  0.2163
  585MOL0     C78844   3.495   8.688   6.834 -0.5212  0.8585 -0.0880
  585MOL0     C78845   3.528   8.762   6.721  0.2191 -0.5416 -0.3846
  585MOL0     C78846   3.429   8.796   6.627  0.0381  0.2711  0.7462
  585MOL0     C78847   3.298   8.748   6.651 -0.0661  0.0324 -0.5525
  585MOL0     O78848   3.214   8.791   6.559 -0.7745 -0.4734  0.2872
  585MOL0     C78849   3.079   8.748   6.556 -0.4178  0.3290  0.4317
  585MOL0     C78850   2.993   8.858   6.484 -0.1126  0.5859  0.8303
  585MOL0     C78851   2.843   8.824   6.521  1.2173  0.0519  0.2680
  585MOL0     C78852   2.769   8.932   6.431  0.3794 -0.5786  0.3275
  585MOL0     C78853   2.627   8.912   6.461  0.0376 -0.4628  0.4397
  585MOL0     C78854   2.524   8.989   6.387  0.8309  0.4149 -0.0280
  585MOL0     C78855   2.514   9.139   6.430  0.3996  0.1927  0.1187
  585MOL0     C78856   2.415   9.222   6.352 -0.2850 -0.2991  0.4947
  585MOL0     N78857   2.279   9.155   6.354 -0.6184 -0.0487  0.0561
  585MOL0     C78858   2.229   9.056   6.274  0.3139 -0.1329  0.0858
  585MOL0     C78859   2.107   9.031   6.323  0.1469  0.7252 -0.3646
  585MOL0     C78860   2.008   8.941   6.268 -0.2074  0.1344 -0.6824
  585MOL0     C78861   1.864   8.976   6.287  0.5413  0.4835  0.3202
  585MOL0     C78862   1.836   9.113   6.227  1.2837  0.4705  0.6269
  585MOL0     C78863   1.684   9.126   6.229  0.2923  0.2677 -0.1634
  585MOL0     O78864   1.612   9.038   6.145 -0.5000  0.3564 -0.4869
  585MOL0     C78865   1.479   9.049   6.124 -0.6909  0.3947 -0.7978
  585MOL0     C78866   1.418   8.983   6.021  0.2226  1.1423 -0.7095
  585MOL0     C78867   1.285   8.981   5.988  0.0710  0.3947 -0.3842
  585MOL0     C78868   1.253   8.883   5.870  0.3103 -0.2804 -0.0110
  585MOL0     C78869   1.200   9.072   6.061 -0.4464  0.2822 -0.3704
  585MOL0     C78870   1.060   9.092   6.037  0.8905  0.1359 -0.3960
  585MOL0     O78871   1.001   9.217   6.075  0.7306  0.4758  0.0062
  585MOL0     C78872   0.868   9.223   6.041 -0.6241 -0.2486 -0.0177
  585MOL0     C78873   0.823   9.249   5.913  0.1177  0.5509  0.1380
  585MOL0     C78874   0.688   9.254   5.885  0.3357  0.1665  0.2602
  585MOL0     C78875   0.593   9.242   5.993 -0.4259 -0.5496  0.4066
  585MOL0     O78876   0.462   9.284   5.970 -0.3073  0.6755 -0.1789
  585MOL0     C78877   0.411   9.368   6.073  0.2189 -0.2378 -0.3104
  585MOL0     C78878   0.304   9.455   6.015 -0.5326 -0.5672  0.3630
  585MOL0     C78879   0.358   9.575   5.928 -0.9596 -0.5088 -0.1170
  585MOL0     C78880   0.285   9.698   5.971 -0.7395 -0.3705 -0.2488
  585MOL0     C78881   0.311   9.813   5.875 -0.8121  0.5293  0.4356
  585MOL0     C78882   0.246   9.941   5.913 -0.2214  0.6734  0.3485
  585MOL0     C78883   0.282   9.993   6.050 -0.4838 -0.6077 -0.0229
  585MOL0     C78884   0.424  10.038   6.057 -0.2933  0.0584 -0.5993
  585MOL0    Cl78885   0.447  10.096   6.228 -0.3750 -0.1699 -0.0200
  585MOL0     C78886   0.639   9.212   6.118 -0.1291  0.4239  0.3975
  585MOL0     C78887   0.775   9.199   6.143 -0.2754  0.5060  0.0951
  585MOL0     O78888   0.996   8.992   5.991 -0.0623  0.6746 -0.3432
  585MOL0     C78889   1.256   9.155   6.163 -0.9465 -0.0444  1.5986
  585MOL0     C78890   1.390   9.133   6.195  0.0457  0.0562  0.1047
  585MOL0     N78891   2.086   9.112   6.430  0.2818 -0.0880  0.5415
  585MOL0     N78892   2.181   9.200   6.449 -0.3598  0.1479  0.1958
  585MOL0     C78893   3.268   8.671   6.761  0.3792  0.7172 -0.1480
  585MOL0     C78894   3.371   8.632   6.847  0.6724  0.2695 -0.4543
  585MOL0     C78895   3.706   8.725   7.136  0.6608 -0.6350 -0.1778
  585MOL0     C78896   3.799   8.616   7.121  0.2280  0.6799 -0.9306
  585MOL0     C78897   3.897   8.592   7.220 -0.5873  0.0380 -0.3703
  585MOL0     C78898   3.913   8.692   7.317 -0.7493 -0.3463 -0.3332
  585MOL0     O78899   4.012   8.664   7.414  0.4304 -0.3032  0.5073
  585MOL0     C78900   3.983   8.553   7.506  0.3528 -1.1297  0.1998
  585MOL0     C78901   4.117   8.480   7.521 -0.3620 -0.4454 -0.1476
  585MOL0     C78902   4.207   8.457   7.397  1.1142 -0.0573  0.6441
  585MOL0     C78903   4.313   8.342   7.411 -0.1046 -0.6782  1.4416
  585MOL0     C78904   4.410   8.314   7.295  0.6339 -0.3516 -1.0820
  585MOL0     C78905   4.496   8.325   7.207  0.4503  0.0320 -0.2662
  585MOL0     C78906   3.830   8.803   7.328  0.9302 -0.2467  0.6144
  585MOL0     C78907   3.725   8.817   7.240  0.1406  0.2288 -0.2404
  585MOL0     H78908   3.627   8.798   6.696  0.5271 -1.5448 -0.6590
  585MOL0     H78909   3.451   8.856   6.539  0.5266 -1.6340 -0.4871
  585MOL0     H78910   3.073   8.644   6.523  1.3959 -0.1520  1.4671
  585MOL0     H78911   3.042   8.746   6.659 -1.9627 -1.4685 -0.1170
  585MOL0     H78912   3.019   8.956   6.524  2.4345  1.1296 -1.7741
  585MOL0     H78913   3.012   8.853   6.376  3.2094 -1.2319  1.3340
  585MOL0     H78914   2.819   8.722   6.490 -1.7163  1.1456 -1.5257
  585MOL0     H78915   2.818   8.846   6.625  2.1507  1.2985  0.2574
  585MOL0     H78916   2.814   9.029   6.454 -0.0140 -0.4476  0.5487
  585MOL0     H78917   2.789   8.905   6.327 -0.4010  0.5878 -0.1378
  585MOL0     H78918   2.602   8.806   6.453 -1.3424 -0.1202 -0.1531
  585MOL0     H78919   2.607   8.940   6.565  1.5527  0.9580  0.3863
  585MOL0     H78920   2.537   8.993   6.279  1.2655 -1.1278 -0.0585
  585MOL0     H78921   2.434   8.930   6.404 -0.7359  2.8899  0.7011
  585MOL0     H78922   2.486   9.143   6.536 -0.9967  4.4674 -0.2171
  585MOL0     H78923   2.614   9.182   6.430  0.9666 -0.9608  2.4618
  585MOL0     H78924   2.459   9.239   6.254  3.8736  4.9913  2.7884
  585MOL0     H78925   2.413   9.323   6.394  0.7427 -0.5831  1.2536
  585MOL0     H78926   2.286   8.997   6.202 -1.5871 -0.4387 -1.2428
  585MOL0     H78927   2.032   8.912   6.165  3.4854  0.4749 -0.0507
  585MOL0     H78928   2.029   8.845   6.316  1.8321  0.4361 -0.8971
  585MOL0     H78929   1.848   8.972   6.395  1.2499 -4.2900  0.4356
  585MOL0     H78930   1.799   8.901   6.241 -1.2897  2.7469 -1.0603
  585MOL0     H78931   1.864   9.124   6.122 -1.4466  0.9610 -0.1275
  585MOL0     H78932   1.885   9.191   6.286  2.9457 -0.8428  1.0432
  585MOL0     H78933   1.663   9.228   6.196  3.0163  0.6138 -1.1247
  585MOL0     H78934   1.657   9.108   6.333  0.1652 -0.4909 -0.3251
  585MOL0     H78935   1.474   8.902   5.973  0.2842  0.4397  0.5087
  585MOL0     H78936   1.165   8.922   5.819 -0.2883 -0.1853  1.0564
  585MOL0     H78937   1.330   8.888   5.793  0.3265 -0.4774 -0.0082
  585MOL0     H78938   1.240   8.781   5.906 -1.4068  0.1384  0.6639
  585MOL0     H78939   0.888   9.273   5.829 -4.0582  1.7416 -3.0926
  585MOL0     H78940   0.653   9.288   5.788 -0.6977  0.2038  0.6292
  585MOL0     H78941   0.360   9.314   6.153 -1.7854  0.9214 -0.7320
  585MOL0     H78942   0.493   9.428   6.114  2.8356 -2.9477 -1.2215
  585MOL0     H78943   0.238   9.393   5.953 -0.4976 -0.5239  0.2815
  585MOL0     H78944   0.245   9.484   6.102  0.4635 -2.5531  1.7753
  585MOL0     H78945   0.339   9.553   5.823 -1.8377  3.3343 -0.8960
  585MOL0     H78946   0.466   9.578   5.941 -1.0935 -1.7853  1.8924
  585MOL0     H78947   0.178   9.673   5.977 -0.4170 -1.7242  0.3382
  585MOL0     H78948   0.323   9.718   6.071 -1.7291 -0.4320  0.1563
  585MOL0     H78949   0.273   9.779   5.778  0.0188 -1.2411  0.6863
  585MOL0     H78950   0.417   9.838   5.872 -0.8213  0.7277  1.4326
  585MOL0     H78951   0.275  10.017   5.841  1.0585 -1.5243 -1.5884
  585MOL0     H78952   0.140   9.924   5.891  0.5063  1.0230 -4.3699
  585MOL0     H78953   0.264   9.925   6.135 -0.5834  0.1347  0.5623
  585MOL0     H78954   0.211  10.070   6.082 -2.1460 -2.3211  0.6298
  585MOL0     H78955   0.432  10.118   5.983 -1.6984 -0.6410 -1.5463
  585MOL0     H78956   0.487   9.952   6.032 -0.9489 -0.7576  0.4659
  585MOL0     H78957   0.565   9.196   6.196  0.0110 -1.4563  0.1917
  585MOL0     H78958   0.799   9.184   6.248 -1.3989  0.9505  0.4334
  585MOL0     H78959   1.206   9.240   6.210 -1.8147  1.2278 -1.3852
  585MOL0     H78960   1.428   9.191   6.279 -0.6875  0.2025  0.3372
  585MOL0     H78961   3.172   8.622   6.766  1.8941 -2.6640 -0.8280
  585MOL0     H78962   3.345   8.567   6.930  1.2892  0.2493 -0.2706
  585MOL0     H78963   3.785   8.544   7.041 -0.1760 -0.3009 -0.0046
  585MOL0     H78964   3.970   8.512   7.221  0.3068  0.8385 -0.3391
  585MOL0     H78965   3.936   8.598   7.594  1.7868 -1.9745  1.4378
  585MOL0     H78966   3.910   8.480   7.467 -3.0256  2.5295 -1.0136
  585MOL0     H78967   4.101   8.386   7.574  1.8539  0.6333  2.7278
  585MOL0     H78968   4.173   8.543   7.591  1.3516 -0.9236 -1.0167
  585MOL0     H78969   4.260   8.546   7.362 -0.6750  0.1306 -1.8954
  585MOL0     H78970   4.147   8.417   7.314  0.2432  0.4384  1.0303
  585MOL0     H78971   4.256   8.249   7.418  0.6133 -1.5534 -2.1148
  585MOL0     H78972   4.372   8.357   7.501 -1.1972 -2.1117  2.4607
  585MOL0     H78973   4.570   8.330   7.130  1.0925  4.5906  0.3860
  585MOL0     H78974   3.821   8.885   7.399 -0.5033  0.7772 -0.6723
  585MOL0     H78975   3.652   8.896   7.253 -1.3197 -1.4210  2.5125
  586MOL0     O78976   8.211   9.568   5.945  0.5259 -0.5552  0.2028
  586MOL0     C78977   8.272   9.609   5.845  1.0175 -0.5494 -0.1765
  586MOL0     O78978   8.219   9.647   5.727 -0.2330  0.7109  0.7418
  586MOL0     C78979   8.084   9.653   5.702 -0.5914  0.5998 -0.4252
  586MOL0     C78980   8.007   9.730   5.792 -0.5324 -0.3011 -0.3140
  586MOL0     C78981   7.867   9.740   5.771 -0.3160  0.2461 -0.7390
  586MOL0     C78982   7.808   9.689   5.657 -0.6411  0.4137  0.3713
  586MOL0     O78983   7.669   9.687   5.651 -1.0378 -0.8396  0.1250
  586MOL0     C78984   7.609   9.702   5.525  0.2251 -0.3027  0.8752
  586MOL0     C78985   7.461   9.733   5.527  0.7316 -0.6263 -0.5817
  586MOL0     C78986   7.393   9.727   5.397  0.1872  0.1295 -0.0960
  586MOL0     C78987   7.378   9.580   5.356 -0.1298 -0.3703 -0.0515
  586MOL0     C78988   7.281   9.568   5.238 -0.5009  0.6789 -0.3599
  586MOL0     C78989   7.279   9.435   5.180  0.0264 -0.0506 -0.1254
  586MOL0     C78990   7.196   9.422   5.047 -0.5047  0.5391 -0.3480
  586MOL0     C78991   7.051   9.484   5.055 -0.0998  0.0413 -0.5941
  586MOL0     N78992   6.963   9.396   5.135 -0.0308 -0.0417  0.2108
  586MOL0     C78993   6.858   9.437   5.207  0.2048  0.5947  0.5824
  586MOL0     C78994   6.790   9.330   5.235  1.5633 -0.1753 -1.0560
  586MOL0     C78995   6.662   9.347   5.321  1.0657 -0.4265 -0.8424
  586MOL0     C78996   6.608   9.213   5.358 -0.0929  1.2754  0.3590
  586MOL0     C78997   6.658   9.163   5.489 -0.1677  0.1052 -0.3419
  586MOL0     C78998   6.614   9.016   5.518  0.1983  0.1340 -0.0224
  586MOL0     O78999   6.475   9.002   5.563  0.6595  0.1773 -0.5001
  586MOL0     C79000   6.369   8.945   5.486 -0.3076 -0.5236  0.9345
  586MOL0     C79001   6.376   8.858   5.372 -0.3630 -0.4422  0.2793
  586MOL0     C79002   6.263   8.797   5.317  0.3594  0.1017 -0.0295
  586MOL0     C79003   6.276   8.714   5.197  0.3194  0.0526 -0.5789
  586MOL0     C79004   6.132   8.830   5.364 -0.5497  0.0264  0.2632
  586MOL0     C79005   6.002   8.794   5.310  0.3874 -0.1872 -1.2133
  586MOL0     O79006   5.900   8.849   5.371 -0.2741  0.1254 -0.0732
  586MOL0     C79007   5.779   8.827   5.328  0.1699 -0.9213  0.4162
  586MOL0     C79008   5.741   8.827   5.192 -0.1009  0.3930 -0.3070
  586MOL0     C79009   5.615   8.795   5.155  0.3749 -0.1341  0.6983
  586MOL0     C79010   5.519   8.781   5.254 -0.7613  0.6611 -1.0006
  586MOL0     O79011   5.388   8.764   5.208 -0.1928 -0.0237  0.1506
  586MOL0     C79012   5.273   8.760   5.297 -0.2934 -0.2976  0.2842
  586MOL0     C79013   5.149   8.791   5.215  0.1156 -0.2907 -0.3529
  586MOL0     C79014   5.036   8.803   5.305  0.6192 -0.6010 -0.2574
  586MOL0     C79015   4.920   8.871   5.233  0.7886  0.1203  0.1865
  586MOL0     C79016   4.798   8.877   5.329  0.0623  0.7146  0.0858
  586MOL0     C79017   4.685   8.954   5.253  0.7062  0.4816  0.4371
  586MOL0     C79018   4.572   8.996   5.344 -1.4024 -0.1761  0.5633
  586MOL0     C79019   4.461   9.087   5.281 -0.0626 -0.2315 -1.2858
  586MOL0    Cl79020   4.364   9.138   5.417 -0.2337  0.0109  0.2960
  586MOL0     C79021   5.557   8.769   5.395  0.3668  0.9402  0.2756
  586MOL0     C79022   5.686   8.804   5.431 -0.6247 -0.2241 -0.5923
  586MOL0     O79023   5.987   8.719   5.210  0.5608 -0.6827  0.4241
  586MOL0     C79024   6.131   8.915   5.479 -0.4784  0.7570  0.1702
  586MOL0     C79025   6.241   8.964   5.543  0.5575  0.3993  0.2436
  586MOL0     N79026   6.856   9.221   5.185 -0.6206 -0.1781  0.3807
  586MOL0     N79027   6.960   9.259   5.120 -0.6899 -0.2465 -0.1907
  586MOL0     C79028   7.891   9.630   5.555  0.2715  0.6496 -0.4655
  586MOL0     C79029   8.026   9.608   5.581  0.0610  0.5820  0.3160
  586MOL0     C79030   8.415   9.627   5.864 -0.0316  0.1898  0.1377
  586MOL0     C79031   8.503   9.689   5.775  0.8173  0.4913  0.5781
  586MOL0     C79032   8.633   9.698   5.792 -0.3050 -0.8281  0.9857
  586MOL0     C79033   8.696   9.641   5.902 -0.4062 -0.5971  0.3684
  586MOL0     O79034   8.828   9.626   5.922 -0.0769 -0.2779 -0.3386
  586MOL0     C79035   8.935   9.660   5.823  0.6044 -0.0558 -0.9778
  586MOL0     C79036   9.074   9.633   5.897  0.2419  0.6880  0.1697
  586MOL0     C79037   9.107   9.481   5.917  0.6972 -0.4791 -0.3603
  586MOL0     C79038   9.222   9.458   6.014 -0.2120  1.1251  0.0623
  586MOL0     C79039   9.345   9.512   5.971 -0.1058 -0.7319 -0.1308
  586MOL0     C79040   9.439   9.572   5.925 -1.1627  0.7546  0.0794
  586MOL0     C79041   8.616   9.594   5.998  0.4095  0.5087 -0.0513
  586MOL0     C79042   8.475   9.590   5.988  0.0642 -0.4571  1.3379
  586MOL0     H79043   8.053   9.783   5.875 -0.0915  1.0701 -1.3870
  586MOL0     H79044   7.800   9.786   5.842 -0.5244  1.4608 -1.6804
  586MOL0     H79045   7.664   9.770   5.458 -3.5944 -0.4715 -2.8414
  586MOL0     H79046   7.616   9.605   5.474  0.3928  1.3967 -2.7020
  586MOL0     H79047   7.407   9.663   5.590  0.5640  1.5818  1.9154
  586MOL0     H79048   7.447   9.834   5.567  0.5429 -0.6893 -0.4912
  586MOL0     H79049   7.292   9.763   5.420  1.2666  1.5959  2.9637
  586MOL0     H79050   7.447   9.778   5.317 -2.7286  0.1140 -2.2359
  586MOL0     H79051   7.476   9.546   5.323  0.6400  1.3751  0.3576
  586MOL0     H79052   7.340   9.528   5.444 -0.9709 -0.5619 -0.5066
  586MOL0     H79053   7.181   9.593   5.275 -0.1434  0.3462  0.8765
  586MOL0     H79054   7.297   9.642   5.159 -2.1751  1.1969 -0.2502
  586MOL0     H79055   7.383   9.409   5.157  0.6801  2.9363 -0.9947
  586MOL0     H79056   7.234   9.371   5.256 -1.6532  0.6118 -0.5224
  586MOL0     H79057   7.246   9.484   4.973  1.3181  0.5133  0.8078
  586MOL0     H79058   7.212   9.318   5.017  1.8127 -0.2011  2.8530
  586MOL0     H79059   7.004   9.506   4.959 -0.1674 -0.3297 -0.6481
  586MOL0     H79060   7.062   9.581   5.104  0.0611  0.3838 -1.3065
  586MOL0     H79061   6.838   9.541   5.232 -1.0584  1.5013 -3.4778
  586MOL0     H79062   6.679   9.405   5.412  1.3877 -2.6225  0.5717
  586MOL0     H79063   6.585   9.386   5.254  1.1959 -1.4641 -1.6215
  586MOL0     H79064   6.616   9.151   5.268 -0.0560  2.2382 -0.3112
  586MOL0     H79065   6.501   9.223   5.379  0.3633  2.4547  2.4745
  586MOL0     H79066   6.627   9.222   5.575  1.8183 -0.4814  0.8416
  586MOL0     H79067   6.767   9.169   5.492 -0.1204 -1.0596  1.7781
  586MOL0     H79068   6.681   8.953   5.578 -1.2659 -1.6304 -0.1293
  586MOL0     H79069   6.618   8.971   5.418  2.7409 -1.4311  0.6703
  586MOL0     H79070   6.479   8.853   5.338  0.3651  1.2295  2.0611
  586MOL0     H79071   6.217   8.622   5.204 -0.3513  0.4668 -0.6627
  586MOL0     H79072   6.256   8.766   5.103 -0.3994 -1.2999 -1.2045
  586MOL0     H79073   6.379   8.677   5.194 -0.3091 -1.9357  0.6139
  586MOL0     H79074   5.814   8.842   5.113  0.4096 -0.4723 -0.0161
  586MOL0     H79075   5.590   8.783   5.051  1.5468  3.6037 -0.1552
  586MOL0     H79076   5.271   8.660   5.342 -1.1195 -0.3761  0.0902
  586MOL0     H79077   5.288   8.829   5.380  1.6553 -2.7263  2.0953
  586MOL0     H79078   5.172   8.883   5.161  1.0548  0.5347  1.3809
  586MOL0     H79079   5.131   8.717   5.136  1.3398 -0.0563 -0.8729
  586MOL0     H79080   5.054   8.869   5.391 -0.0005  0.5412 -0.9808
  586MOL0     H79081   5.006   8.707   5.347  2.2560 -0.3292  1.7187
  586MOL0     H79082   4.957   8.969   5.201 -1.1118  0.5298 -0.8909
  586MOL0     H79083   4.899   8.808   5.146  1.0079 -4.0441  2.8620
  586MOL0     H79084   4.820   8.926   5.425  1.1599  0.6362 -0.1126
  586MOL0     H79085   4.772   8.772   5.341  1.2181  0.3172 -0.7704
  586MOL0     H79086   4.734   9.043   5.210  0.5459  0.0847 -0.5970
  586MOL0     H79087   4.650   8.900   5.165  1.8290 -1.4086  1.1067
  586MOL0     H79088   4.621   9.048   5.427 -1.5349  2.2972 -0.8196
  586MOL0     H79089   4.527   8.903   5.381 -1.5169 -0.5635 -0.5069
  586MOL0     H79090   4.418   9.016   5.210 -1.0961 -2.8878  1.7612
  586MOL0     H79091   4.499   9.178   5.233  0.0747  0.1228 -0.5185
  586MOL0     H79092   5.491   8.758   5.481 -0.5148  1.8389 -0.2576
  586MOL0     H79093   5.706   8.805   5.538 -2.5680 -0.4768 -0.2030
  586MOL0     H79094   6.035   8.942   5.521 -1.0399 -0.0137 -0.5776
  586MOL0     H79095   6.222   9.020   5.634 -1.0335 -1.0865  0.8825
  586MOL0     H79096   7.848   9.585   5.466  0.1264 -1.6776  0.7011
  586MOL0     H79097   8.090   9.569   5.502 -0.7116  0.1426 -0.1100
  586MOL0     H79098   8.460   9.736   5.687 -2.7198  2.7675  3.2498
  586MOL0     H79099   8.692   9.739   5.711  0.7006 -1.7586  1.2205
  586MOL0     H79100   8.922   9.605   5.729  0.4698 -0.4347 -0.7395
  586MOL0     H79101   8.924   9.766   5.799 -0.4459 -0.2068 -1.1976
  586MOL0     H79102   9.065   9.681   5.995 -0.0815 -0.3256  0.6554
  586MOL0     H79103   9.142   9.689   5.833  0.2387 -1.2436 -1.6489
  586MOL0     H79104   9.133   9.443   5.818  1.4567 -1.2889  0.1399
  586MOL0     H79105   9.020   9.431   5.960  0.3038  1.8086  1.7646
  586MOL0     H79106   9.228   9.349   6.011  0.6238  1.1609  0.3358
  586MOL0     H79107   9.198   9.491   6.115 -2.3240 -3.0880  1.1780
  586MOL0     H79108   9.528   9.611   5.879  0.3460 -1.4904  0.9072
  586MOL0     H79109   8.670   9.565   6.088  2.1445 -0.6820 -1.4165
  586MOL0     H79110   8.413   9.546   6.066 -1.6066  0.2381  0.4598
  587MOL0     O79111   3.171   3.662   8.720 -0.5508 -0.3246 -0.0459
  587MOL0     C79112   3.199   3.566   8.648 -0.0510  0.2121  0.9540
  587MOL0     O79113   3.321   3.564   8.571 -0.1852 -0.3636 -0.6022
  587MOL0     C79114   3.410   3.660   8.604  0.8820 -0.6741  0.8733
  587MOL0     C79115   3.477   3.658   8.731 -0.1434  0.0458 -0.3717
  587MOL0     C79116   3.571   3.759   8.756  0.0778  0.1053  0.0763
  587MOL0     C79117   3.592   3.864   8.669 -0.7453 -0.4908  0.5926
  587MOL0     O79118   3.673   3.967   8.709 -0.7013  0.8955 -0.3774
  587MOL0     C79119   3.631   4.055   8.810  0.7190  0.4414  0.4232
  587MOL0     C79120   3.741   4.155   8.847 -0.0397  0.0902  0.2065
  587MOL0     C79121   3.733   4.219   8.989  0.0328  0.8750  0.3607
  587MOL0     C79122   3.839   4.330   9.007  0.2927 -0.3095  0.4579
  587MOL0     C79123   3.899   4.333   9.150  0.0357 -0.5408 -0.3766
  587MOL0     C79124   3.789   4.364   9.253  0.2304 -0.6581  0.0293
  587MOL0     C79125   3.844   4.466   9.356  0.7476  0.0321 -0.0316
  587MOL0     C79126   3.734   4.565   9.403 -0.4100 -0.2065 -0.4017
  587MOL0     N79127   3.637   4.509   9.504  0.8087 -0.1832  0.5144
  587MOL0     C79128   3.539   4.417   9.478  0.6162  0.4452 -0.2462
  587MOL0     C79129   3.486   4.384   9.601  0.2788  1.2445 -0.3534
  587MOL0     C79130   3.360   4.304   9.628  0.3210 -0.4621 -1.0396
  587MOL0     C79131   3.226   4.371   9.605 -0.1306  0.2143  0.2292
  587MOL0     C79132   3.209   4.490   9.695  0.3231  0.3980  0.5393
  587MOL0     C79133   3.077   4.567   9.680  0.5734  0.5822 -0.0969
  587MOL0     O79134   2.981   4.498   9.761 -1.2241 -0.2573 -0.2349
  587MOL0     C79135   2.844   4.530   9.740 -0.5087  0.3945 -0.6703
  587MOL0     C79136   2.757   4.423   9.758 -0.9087  0.6946  0.6293
  587MOL0     C79137   2.624   4.430   9.723 -0.2082  1.1831  0.2527
  587MOL0     C79138   2.533   4.294   9.731  0.4035 -0.4348 -0.0938
  587MOL0     C79139   2.571   4.563   9.686  0.2801  1.0357  0.4351
  587MOL0     C79140   2.429   4.580   9.640 -0.2583 -0.1818 -0.2237
  587MOL0     O79141   2.388   4.707   9.613 -0.7456 -0.2061  0.0433
  587MOL0     C79142   2.266   4.727   9.553  0.5609  0.2619  0.3386
  587MOL0     C79143   2.188   4.826   9.614 -0.4170 -0.2615 -0.1907
  587MOL0     C79144   2.055   4.850   9.575  0.2260  0.3487 -0.3804
  587MOL0     C79145   1.998   4.765   9.484 -0.1928  0.6465 -1.0209
  587MOL0     O79146   1.863   4.777   9.459 -1.2953 -0.8458  0.2072
  587MOL0     C79147   1.785   4.753   9.582  0.6865  0.0100  0.0710
  587MOL0     C79148   1.639   4.776   9.547 -0.5478  0.1683  0.1954
  587MOL0     C79149   1.578   4.646   9.522  0.5689 -0.5441 -0.1750
  587MOL0     C79150   1.431   4.668   9.489  0.2275 -0.1863 -0.8347
  587MOL0     C79151   1.358   4.539   9.453 -0.5137 -0.9072  0.0085
  587MOL0     C79152   1.421   4.485   9.321  0.1525 -0.5549 -0.6186
  587MOL0     C79153   1.341   4.376   9.271 -0.1668  0.6402 -0.5130
  587MOL0     C79154   1.378   4.331   9.128  0.0148 -0.7298  1.0614
  587MOL0    Cl79155   1.375   4.442   8.998  0.4574  0.1806 -0.3882
  587MOL0     C79156   2.071   4.669   9.431  0.0330 -0.0195  0.5282
  587MOL0     C79157   2.203   4.643   9.466 -0.9510 -1.3711  1.1241
  587MOL0     O79158   2.363   4.479   9.626 -0.0948 -0.3834  0.4512
  587MOL0     C79159   2.650   4.677   9.684  0.2645  0.6137  0.1665
  587MOL0     C79160   2.788   4.658   9.701  0.4750  0.3081  0.5029
  587MOL0     N79161   3.555   4.454   9.699 -0.1514  0.9610  0.4952
  587MOL0     N79162   3.648   4.531   9.639  0.2052 -0.4455  0.8811
  587MOL0     C79163   3.525   3.865   8.546  0.2973  1.3225  0.2242
  587MOL0     C79164   3.430   3.764   8.517  0.2766 -0.1757  0.5503
  587MOL0     C79165   3.116   3.453   8.645  0.0566  0.8444  0.4900
  587MOL0     C79166   2.990   3.456   8.703  0.7505 -0.4527 -0.6403
  587MOL0     C79167   2.914   3.337   8.716 -0.2061 -1.0180 -0.5612
  587MOL0     C79168   2.950   3.217   8.667  0.0292 -0.0639  0.6521
  587MOL0     O79169   2.859   3.119   8.681  0.7832 -0.0341 -0.4123
  587MOL0     C79170   2.917   2.987   8.701 -0.3338 -0.7682 -0.0019
  587MOL0     C79171   2.810   2.878   8.741  0.2948 -0.5352  0.1720
  587MOL0     C79172   2.899   2.759   8.801  0.9595 -0.0356 -0.2787
  587MOL0     C79173   2.814   2.630   8.775 -0.2815 -1.5470 -0.1442
  587MOL0     C79174   2.830   2.556   8.902  0.8575  0.4500 -0.1648
  587MOL0     C79175   2.819   2.497   9.005  0.5890  0.9474 -0.6455
  587MOL0     C79176   3.072   3.212   8.594 -0.0889 -0.9690  0.0563
  587MOL0     C79177   3.151   3.329   8.580 -0.7192  0.4941  0.2732
  587MOL0     H79178   3.456   3.584   8.807 -0.3859  0.1557 -0.3297
  587MOL0     H79179   3.634   3.769   8.844 -1.3391  4.3471  0.8330
  587MOL0     H79180   3.544   4.107   8.768  0.5304 -1.1026 -1.2342
  587MOL0     H79181   3.607   3.990   8.895 -1.0491 -2.5137 -2.1151
  587MOL0     H79182   3.833   4.096   8.842  1.1104  1.7670  0.3578
  587MOL0     H79183   3.758   4.233   8.772  2.4700  0.8473  1.4201
  587MOL0     H79184   3.636   4.260   9.018 -1.3722 -1.6556 -0.4157
  587MOL0     H79185   3.756   4.134   9.054 -1.1559  1.2456  1.3021
  587MOL0     H79186   3.918   4.320   8.932 -0.9924  1.7961 -1.2890
  587MOL0     H79187   3.790   4.422   8.975 -0.7241 -0.3475  1.8196
  587MOL0     H79188   3.939   4.235   9.177 -0.6506 -0.4257  1.1429
  587MOL0     H79189   3.976   4.410   9.157 -1.7863  1.2436  1.7307
  587MOL0     H79190   3.701   4.409   9.205  0.0660 -0.4902  0.4815
  587MOL0     H79191   3.765   4.271   9.306  0.3208  0.7209  2.6548
  587MOL0     H79192   3.878   4.407   9.442 -1.2559 -1.1295  0.0277
  587MOL0     H79193   3.930   4.527   9.325  0.9325 -1.4519 -2.7623
  587MOL0     H79194   3.678   4.609   9.320 -2.1245  0.8104  1.2066
  587MOL0     H79195   3.772   4.654   9.454 -0.3955 -0.3444 -0.1708
  587MOL0     H79196   3.480   4.389   9.391 -0.5924 -0.0625  0.7154
  587MOL0     H79197   3.378   4.211   9.572  2.2233 -0.0054 -1.2562
  587MOL0     H79198   3.377   4.284   9.734  2.4802  1.8604 -0.8506
  587MOL0     H79199   3.142   4.306   9.629 -1.2575  2.2958  2.4522
  587MOL0     H79200   3.222   4.398   9.499 -0.2950  0.7987  0.3795
  587MOL0     H79201   3.294   4.558   9.690  0.7166 -0.0914  0.5101
  587MOL0     H79202   3.212   4.443   9.794 -1.0769  0.0573  0.4437
  587MOL0     H79203   3.032   4.563   9.581 -0.3482 -0.9870  0.3507
  587MOL0     H79204   3.099   4.668   9.714  0.0876  0.1448  1.6196
  587MOL0     H79205   2.795   4.329   9.796  3.5540  1.7345 -0.6015
  587MOL0     H79206   2.510   4.251   9.633  2.3328 -0.1992 -0.7055
  587MOL0     H79207   2.590   4.221   9.789 -3.8437 -2.5105  1.8784
  587MOL0     H79208   2.441   4.317   9.786 -0.8471 -1.1878 -1.7864
  587MOL0     H79209   2.244   4.879   9.690 -0.1643 -0.9735  0.1321
  587MOL0     H79210   2.001   4.931   9.622 -1.5385 -1.6249  1.2196
  587MOL0     H79211   1.807   4.655   9.625 -1.4883  0.0071  1.3002
  587MOL0     H79212   1.807   4.833   9.653 -1.9911  0.6602  0.2640
  587MOL0     H79213   1.583   4.822   9.628 -1.3754 -1.8420  0.8177
  587MOL0     H79214   1.625   4.842   9.460  0.5942  0.4440  0.2042
  587MOL0     H79215   1.589   4.581   9.609 -0.3078  0.9364  1.0906
  587MOL0     H79216   1.637   4.600   9.442  0.0930  0.0040 -0.8544
  587MOL0     H79217   1.387   4.712   9.580  4.1720 -1.5837  2.0521
  587MOL0     H79218   1.425   4.734   9.402 -1.9915  1.5889  0.5206
  587MOL0     H79219   1.255   4.570   9.433  0.2436  2.1508  0.3341
  587MOL0     H79220   1.365   4.469   9.537  1.3381 -1.6435 -0.7014
  587MOL0     H79221   1.425   4.565   9.247 -0.0432 -1.0402 -1.1548
  587MOL0     H79222   1.520   4.448   9.352 -1.5310 -2.9447  2.6535
  587MOL0     H79223   1.236   4.406   9.270  0.1685  1.8875  0.2682
  587MOL0     H79224   1.349   4.291   9.341 -0.1234  1.0205 -0.0527
  587MOL0     H79225   1.306   4.253   9.100 -0.7234  0.2363  0.1769
  587MOL0     H79226   1.482   4.297   9.125  0.0889 -0.4614 -0.0361
  587MOL0     H79227   2.023   4.600   9.362  1.5870  1.0147 -1.6952
  587MOL0     H79228   2.248   4.551   9.430 -0.3495 -0.9610  0.7951
  587MOL0     H79229   2.602   4.773   9.672  1.9433  1.4755  0.0883
  587MOL0     H79230   2.866   4.733   9.692  1.5878 -0.6027  1.9701
  587MOL0     H79231   3.537   3.946   8.475  1.0567  0.9929 -0.0325
  587MOL0     H79232   3.365   3.768   8.430 -0.6990 -1.1071  1.2152
  587MOL0     H79233   2.967   3.545   8.759  0.6462  0.1937 -1.6889
  587MOL0     H79234   2.821   3.332   8.772 -0.9741 -2.6492 -1.8986
  587MOL0     H79235   2.967   2.951   8.610 -0.1073 -3.5553  1.1167
  587MOL0     H79236   2.996   2.989   8.776 -0.7230 -0.7470  0.4094
  587MOL0     H79237   2.740   2.851   8.660  1.1077  0.3052 -0.8381
  587MOL0     H79238   2.749   2.927   8.817  0.7270  0.6154 -0.2022
  587MOL0     H79239   2.927   2.771   8.906 -0.0335  0.8078 -0.0992
  587MOL0     H79240   2.989   2.756   8.738  0.1259 -0.8031 -1.4921
  587MOL0     H79241   2.845   2.565   8.693  0.3328  0.2793 -1.4179
  587MOL0     H79242   2.709   2.659   8.763  0.2662  1.2866  0.9938
  587MOL0     H79243   2.810   2.445   9.098  0.3843 -1.5903 -1.9948
  587MOL0     H79244   3.113   3.137   8.527  1.0406  2.4796 -3.5247
  587MOL0     H79245   3.244   3.318   8.524 -0.7472  0.9127  0.1389
  588MOL0     O79246   2.357   3.567  10.398  0.1890 -0.5124  0.2951
  588MOL0     C79247   2.320   3.634  10.495 -0.7572 -0.0905 -0.4025
  588MOL0     O79248   2.200   3.698  10.512 -0.4898  0.2453 -0.0196
  588MOL0     C79249   2.104   3.716  10.420  0.2490 -0.5995 -0.5603
  588MOL0     C79250   2.135   3.781  10.300  0.4055 -0.5673 -0.1903
  588MOL0     C79251   2.034   3.810  10.209  1.0456 -0.0925  0.2765
  588MOL0     C79252   1.902   3.765  10.240  0.2899 -0.6040  0.1741
  588MOL0     O79253   1.795   3.785  10.152  0.5681  0.6540  0.3050
  588MOL0     C79254   1.785   3.919  10.098  0.0830  0.6124 -0.0143
  588MOL0     C79255   1.639   3.960  10.082  0.0523 -0.4463  1.0484
  588MOL0     C79256   1.545   3.909  10.185 -0.1452  0.3494 -0.3500
  588MOL0     C79257   1.412   3.980  10.153  0.4743 -0.6752 -0.1432
  588MOL0     C79258   1.296   3.897  10.222  0.1210  0.2184  0.3477
  588MOL0     C79259   1.149   3.952  10.210 -0.7809  0.1557  0.6119
  588MOL0     C79260   1.106   4.046  10.328  0.0048 -0.9100 -0.3754
  588MOL0     C79261   1.087   3.961  10.460 -0.7810 -0.1245  0.8615
  588MOL0     N79262   1.040   4.069  10.554 -0.5771 -0.7112  0.4859
  588MOL0     C79263   1.107   4.180  10.614 -0.1252  0.3465 -0.0031
  588MOL0     C79264   1.014   4.243  10.688 -0.6153 -0.4221  0.5103
  588MOL0     C79265   1.040   4.377  10.751 -0.8133 -0.4511 -0.2017
  588MOL0     C79266   1.019   4.504  10.671 -0.2829 -0.7119 -0.4908
  588MOL0     C79267   0.876   4.523  10.619  0.8473 -0.1293 -0.5315
  588MOL0     C79268   0.785   4.547  10.740 -0.0044 -0.1228 -0.1495
  588MOL0     O79269   0.660   4.619  10.707 -0.0647  0.7414 -0.3693
  588MOL0     C79270   0.581   4.562  10.618  0.1746  0.3242  0.0253
  588MOL0     C79271   0.522   4.640  10.521  0.7436  0.5440  0.1505
  588MOL0     C79272   0.441   4.580  10.418  0.3032 -0.1914  0.6231
  588MOL0     C79273   0.394   4.671  10.309  0.1943 -0.6422 -0.4543
  588MOL0     C79274   0.410   4.442  10.424 -0.2821  0.0958  0.0436
  588MOL0     C79275   0.341   4.376  10.314  1.0598 -0.2350  0.8739
  588MOL0     O79276   0.402   4.350  10.198 -0.7577  0.8446  0.0149
  588MOL0     C79277   0.531   4.375  10.168 -0.1691  0.7830  1.0568
  588MOL0     C79278   0.573   4.467  10.069  0.6204 -0.0422 -0.3325
  588MOL0     C79279   0.711   4.476  10.050  0.3465 -0.4183 -0.0926
  588MOL0     C79280   0.805   4.412  10.121 -0.1446  0.7780  0.3690
  588MOL0     O79281   0.944   4.436  10.112  0.3476  0.4610  0.9675
  588MOL0     C79282   1.001   4.326  10.035  0.5647  0.5520 -0.4089
  588MOL0     C79283   1.145   4.372  10.006 -0.1415 -0.6259  0.3698
  588MOL0     C79284   1.202   4.280   9.895 -0.8869  0.2823  0.6981
  588MOL0     C79285   1.357   4.320   9.880  0.3669  0.3871 -0.1356
  588MOL0     C79286   1.444   4.204   9.812 -0.3660  0.3960  1.0242
  588MOL0     C79287   1.581   4.263   9.778  0.0551 -0.3180 -0.1309
  588MOL0     C79288   1.635   4.163   9.674  0.0454  0.1038 -0.2218
  588MOL0     C79289   1.772   4.214   9.620  0.0116 -0.1553 -1.2719
  588MOL0    Cl79290   1.758   4.321   9.485  0.1528  0.1959 -0.2210
  588MOL0     C79291   0.759   4.319  10.219 -0.4751  0.3292  0.0112
  588MOL0     C79292   0.624   4.298  10.234  0.8766 -0.2097 -0.3534
  588MOL0     O79293   0.223   4.343  10.335 -0.2582 -0.6151  0.1915
  588MOL0     C79294   0.460   4.364  10.535 -0.1496 -0.7997  1.2101
  588MOL0     C79295   0.545   4.427  10.631  0.3878  0.0600  0.2190
  588MOL0     N79296   0.889   4.177  10.670  0.2474  0.7131 -0.0367
  588MOL0     N79297   0.907   4.078  10.591  0.2571 -0.1023 -0.5729
  588MOL0     C79298   1.861   3.728  10.373 -0.7623 -0.1001  0.5082
  588MOL0     C79299   1.967   3.696  10.459 -0.5326 -0.9229 -0.3109
  588MOL0     C79300   2.414   3.639  10.610 -0.7218 -0.6093  0.3473
  588MOL0     C79301   2.430   3.735  10.713  0.4360  0.0205 -0.2931
  588MOL0     C79302   2.531   3.715  10.815 -0.0953  0.3936 -0.4741
  588MOL0     C79303   2.609   3.602  10.816 -0.6239 -0.0468 -0.1217
  588MOL0     O79304   2.671   3.548  10.924 -0.0667  0.2071 -0.5621
  588MOL0     C79305   2.690   3.620  11.053 -0.7214  0.3501  0.4452
  588MOL0     C79306   2.810   3.703  11.036 -0.5960 -0.5458 -0.0303
  588MOL0     C79307   2.946   3.631  11.056 -0.3582 -0.2912  0.8161
  588MOL0     C79308   2.968   3.514  10.949  0.0609 -0.0322  0.1823
  588MOL0     C79309   3.066   3.414  11.001 -0.0982 -0.8529  0.3585
  588MOL0     C79310   3.155   3.334  11.026 -0.3495  0.0746 -0.3007
  588MOL0     C79311   2.586   3.503  10.727 -0.5645 -0.0172  0.1760
  588MOL0     C79312   2.501   3.528  10.618  0.0151 -0.5987 -0.0354
  588MOL0     H79313   2.241   3.801  10.291  1.3930 -4.3489  1.1725
  588MOL0     H79314   2.064   3.866  10.121  0.4819  1.2073  0.8950
  588MOL0     H79315   1.834   3.993  10.162 -1.8853  2.9365 -1.0559
  588MOL0     H79316   1.837   3.919  10.001 -1.6520  0.1683 -0.9862
  588MOL0     H79317   1.639   4.069  10.075  0.2061 -0.4945  0.2173
  588MOL0     H79318   1.602   3.924   9.986  1.8644 -0.9414  0.4992
  588MOL0     H79319   1.523   3.804  10.167 -0.7916 -0.1261  2.6599
  588MOL0     H79320   1.571   3.921  10.291 -3.5816  0.0351  0.6352
  588MOL0     H79321   1.401   4.082  10.191 -1.5607 -1.3827  1.3407
  588MOL0     H79322   1.407   3.984  10.044 -0.3050  0.5365 -0.0721
  588MOL0     H79323   1.287   3.800  10.172  0.4704  0.9880 -1.2675
  588MOL0     H79324   1.316   3.879  10.328 -2.7063  1.1583  1.1400
  588MOL0     H79325   1.142   4.004  10.114  0.3548 -1.0175 -0.1404
  588MOL0     H79326   1.089   3.861  10.213  1.1169 -1.2981 -2.1468
  588MOL0     H79327   1.180   4.126  10.341 -1.2773  0.1755  0.5593
  588MOL0     H79328   1.015   4.105  10.313 -0.0176 -1.3483 -2.2559
  588MOL0     H79329   1.188   3.928  10.487 -0.7057  0.6401  1.5434
  588MOL0     H79330   1.010   3.884  10.454 -1.1257  0.2519  0.4395
  588MOL0     H79331   1.207   4.220  10.601 -0.2287  0.5184 -0.2902
  588MOL0     H79332   1.002   4.383  10.854  1.9647  0.5256  0.8707
  588MOL0     H79333   1.148   4.382  10.764 -0.6665  2.6634 -1.8276
  588MOL0     H79334   1.080   4.500  10.580  2.3671  1.6437  1.0106
  588MOL0     H79335   1.054   4.592  10.726 -2.4860 -1.2569  1.9377
  588MOL0     H79336   0.835   4.433  10.572 -1.2260 -0.1660  1.1776
  588MOL0     H79337   0.881   4.609  10.551  1.2512  1.5994  1.5829
  588MOL0     H79338   0.840   4.602  10.817  1.3944 -3.6983  1.6704
  588MOL0     H79339   0.762   4.454  10.794 -0.6767  0.3293  0.3528
  588MOL0     H79340   0.557   4.742  10.505 -0.3687  0.6838 -1.5904
  588MOL0     H79341   0.294   4.635  10.281 -0.5761  1.0066  0.0391
  588MOL0     H79342   0.381   4.773  10.347 -1.5604 -0.1417 -2.2095
  588MOL0     H79343   0.459   4.660  10.222 -1.2414 -0.7640 -1.5640
  588MOL0     H79344   0.499   4.528  10.018 -1.8096 -0.8769  1.9472
  588MOL0     H79345   0.739   4.538   9.966  1.6120  0.0683  0.6658
  588MOL0     H79346   0.998   4.243  10.107 -1.0519  0.9148 -0.0157
  588MOL0     H79347   0.934   4.304   9.952 -0.6140  0.4713  0.5355
  588MOL0     H79348   1.137   4.472   9.962  2.8847  0.7168  2.5248
  588MOL0     H79349   1.203   4.369  10.099 -1.4677  0.5712  1.2981
  588MOL0     H79350   1.142   4.282   9.803  2.5423  1.4784 -1.6997
  588MOL0     H79351   1.202   4.176   9.931  0.9682 -1.0788 -2.7776
  588MOL0     H79352   1.373   4.403   9.812  0.4723 -0.5618 -1.2959
  588MOL0     H79353   1.405   4.348   9.974 -1.6808  3.3272  0.1677
  588MOL0     H79354   1.399   4.167   9.720 -2.4865 -0.3048  2.2878
  588MOL0     H79355   1.444   4.114   9.874  0.4793 -0.5570 -0.2866
  588MOL0     H79356   1.571   4.368   9.747  0.7581  0.7351  2.8280
  588MOL0     H79357   1.653   4.265   9.860  2.3229  0.0279 -2.0537
  588MOL0     H79358   1.573   4.142   9.586 -1.2856 -0.3030  0.7787
  588MOL0     H79359   1.651   4.073   9.734 -1.2449  1.1968  1.8700
  588MOL0     H79360   1.820   4.124   9.580  1.0049  0.2286 -0.9639
  588MOL0     H79361   1.836   4.260   9.695  0.6883  0.8165 -2.4218
  588MOL0     H79362   0.821   4.259  10.285  0.6126 -0.4877 -1.6767
  588MOL0     H79363   0.585   4.231  10.311 -0.6275 -0.1413 -1.0184
  588MOL0     H79364   0.445   4.259  10.556  1.5046 -1.3897 -0.2913
  588MOL0     H79365   0.585   4.359  10.705 -0.0002  1.4058  1.7307
  588MOL0     H79366   1.758   3.704  10.398 -0.3846 -0.0719  2.1723
  588MOL0     H79367   1.941   3.648  10.554 -0.9302  2.3280  1.3655
  588MOL0     H79368   2.372   3.826  10.721  1.2307  0.5934 -0.8658
  588MOL0     H79369   2.555   3.787  10.894  2.0131 -2.0419  1.2820
  588MOL0     H79370   2.606   3.684  11.082 -2.2548 -1.2698 -0.2399
  588MOL0     H79371   2.706   3.555  11.140 -0.4180  1.2079  1.0388
  588MOL0     H79372   2.811   3.787  11.106 -0.1797 -0.7640  0.2296
  588MOL0     H79373   2.810   3.750  10.937 -1.3971  0.0095  0.2262
  588MOL0     H79374   2.946   3.580  11.153  0.4333 -1.2779  0.3230
  588MOL0     H79375   3.023   3.706  11.038 -0.4341 -0.5465 -0.7935
  588MOL0     H79376   3.002   3.565  10.859 -0.5043 -1.4207 -0.8420
  588MOL0     H79377   2.884   3.446  10.934  0.3722 -2.1418  5.5594
  588MOL0     H79378   3.226   3.257  11.048  0.7519  1.9126  3.4873
  588MOL0     H79379   2.624   3.403  10.746 -0.5456 -0.1091 -0.3343
  588MOL0     H79380   2.476   3.447  10.550  2.2796 -0.9532 -0.5233
  589MOL0     O79381   4.504   6.742   4.587  0.3737 -0.0945 -1.0195
  589MOL0     C79382   4.577   6.640   4.560 -0.4891 -1.6700  0.6400
  589MOL0     O79383   4.562   6.511   4.610  0.1968  0.7745 -0.1757
  589MOL0     C79384   4.451   6.481   4.684  0.8761  0.2283 -0.1145
  589MOL0     C79385   4.322   6.504   4.642 -0.5433 -0.8193  0.4377
  589MOL0     C79386   4.203   6.462   4.711  0.3629 -1.0444  0.4825
  589MOL0     C79387   4.226   6.394   4.834 -0.5918  0.2258  0.2311
  589MOL0     O79388   4.126   6.345   4.915 -0.1718 -0.8387  0.6691
  589MOL0     C79389   3.996   6.400   4.915  0.6316 -0.5538 -0.3923
  589MOL0     C79390   3.937   6.356   5.047 -0.2324 -0.5714  0.6576
  589MOL0     C79391   3.973   6.455   5.162 -0.0776 -0.4555 -1.2755
  589MOL0     C79392   3.886   6.435   5.296 -1.1939 -0.8868  0.3145
  589MOL0     C79393   3.886   6.571   5.373  0.3580 -0.2745 -0.7664
  589MOL0     C79394   3.799   6.581   5.500 -0.8793  0.3164 -0.4113
  589MOL0     C79395   3.792   6.720   5.564 -0.5146 -0.3946  1.4955
  589MOL0     C79396   3.693   6.724   5.678  0.8622  0.3223 -0.4068
  589MOL0     N79397   3.622   6.854   5.701  0.1506 -0.5254 -0.3419
  589MOL0     C79398   3.679   6.982   5.690 -0.4424 -0.7632  1.3145
  589MOL0     C79399   3.564   7.063   5.687  0.0130 -0.3746 -0.6093
  589MOL0     C79400   3.561   7.211   5.656 -0.9941 -0.3849 -0.1682
  589MOL0     C79401   3.468   7.242   5.538 -0.2738  0.9877  0.0184
  589MOL0     C79402   3.478   7.390   5.504 -0.2564  0.3235 -0.3414
  589MOL0     C79403   3.390   7.426   5.383 -0.7402 -0.1372  0.0324
  589MOL0     O79404   3.253   7.389   5.402 -0.7984  0.5832  0.2180
  589MOL0     C79405   3.167   7.470   5.470  0.0487 -0.4430  0.0701
  589MOL0     C79406   3.194   7.601   5.510 -0.2520  0.0575  0.0886
  589MOL0     C79407   3.094   7.682   5.571  0.3470  0.4801 -0.6868
  589MOL0     C79408   3.139   7.815   5.622  0.6960  0.3380 -0.1149
  589MOL0     C79409   2.959   7.638   5.549  0.4283  0.2400  0.7159
  589MOL0     C79410   2.845   7.724   5.575 -0.2925  0.0074  0.7624
  589MOL0     O79411   2.723   7.659   5.583 -0.0695 -0.2673  0.6069
  589MOL0     C79412   2.603   7.729   5.567 -0.0081 -0.3104 -0.3598
  589MOL0     C79413   2.555   7.734   5.435 -0.6388  0.6233 -0.0229
  589MOL0     C79414   2.435   7.797   5.408 -0.4509 -0.1784 -0.4472
  589MOL0     C79415   2.362   7.862   5.513 -0.2367  0.0076 -0.8680
  589MOL0     O79416   2.250   7.925   5.480  0.3200  0.3219  0.0688
  589MOL0     C79417   2.255   8.068   5.498  0.2981 -0.1902 -0.6949
  589MOL0     C79418   2.109   8.127   5.495  0.2897 -0.4329 -0.4876
  589MOL0     C79419   2.017   8.067   5.598 -0.3145  0.4524  0.2492
  589MOL0     C79420   1.865   8.061   5.553 -0.6467 -0.2770 -0.2304
  589MOL0     C79421   1.778   7.997   5.661  0.0359 -0.3580  0.9677
  589MOL0     C79422   1.646   7.954   5.591  0.5729  0.3533  1.1303
  589MOL0     C79423   1.572   8.069   5.527  0.8415 -0.5777  1.1023
  589MOL0     C79424   1.434   8.015   5.477 -0.4925 -0.2671  0.0185
  589MOL0    Cl79425   1.324   7.944   5.601  0.1106 -0.1693  0.2863
  589MOL0     C79426   2.413   7.855   5.645  0.9590  0.0032  0.3217
  589MOL0     C79427   2.529   7.792   5.671 -0.9005  0.2619  0.4014
  589MOL0     O79428   2.862   7.843   5.581 -0.1684 -0.2440  1.0445
  589MOL0     C79429   2.933   7.510   5.507 -0.0408  0.3177 -0.4022
  589MOL0     C79430   3.038   7.425   5.464 -0.4327 -0.3147 -0.0467
  589MOL0     N79431   3.446   6.988   5.702  0.2604  0.9252 -0.0299
  589MOL0     N79432   3.484   6.863   5.711  0.3227 -0.1143 -0.2892
  589MOL0     C79433   4.359   6.366   4.880  0.0096 -0.6485 -0.2013
  589MOL0     C79434   4.470   6.418   4.809  0.0841 -0.4310 -0.0530
  589MOL0     C79435   4.702   6.677   4.482  0.3225  0.2508 -0.0218
  589MOL0     C79436   4.717   6.807   4.421  0.3171  0.0068  0.1331
  589MOL0     C79437   4.822   6.839   4.337  0.4063 -0.0294  0.6477
  589MOL0     C79438   4.926   6.747   4.307  0.7941 -0.0875  0.2831
  589MOL0     O79439   5.037   6.772   4.224 -0.1652 -0.3142  0.1586
  589MOL0     C79440   5.028   6.891   4.145  0.1388  0.9453  0.4338
  589MOL0     C79441   5.148   6.900   4.049 -0.4884  0.6697  0.1641
  589MOL0     C79442   5.277   6.866   4.121 -0.5614  0.0449  0.0116
  589MOL0     C79443   5.394   6.897   4.033 -0.3041 -0.2749  1.0079
  589MOL0     C79444   5.407   6.824   3.907 -0.3632  1.3027 -0.4424
  589MOL0     C79445   5.417   6.781   3.795  0.7195  0.2254 -0.6396
  589MOL0     C79446   4.912   6.622   4.368 -0.2130  0.8205 -0.3637
  589MOL0     C79447   4.808   6.589   4.459 -0.0032  0.8717  0.0809
  589MOL0     H79448   4.298   6.537   4.541 -0.8482  0.7133  0.9893
  589MOL0     H79449   4.102   6.488   4.679  0.9967  0.7520 -0.2062
  589MOL0     H79450   3.997   6.508   4.901 -1.0959 -0.4105  0.3041
  589MOL0     H79451   3.941   6.363   4.827 -0.1686  0.5543 -0.3739
  589MOL0     H79452   3.830   6.356   5.024 -0.7530  0.4389  2.8376
  589MOL0     H79453   3.978   6.257   5.068 -0.5401 -1.2300 -1.5496
  589MOL0     H79454   4.081   6.452   5.180 -0.1783 -1.2901 -0.7391
  589MOL0     H79455   3.943   6.555   5.130  0.1378 -0.2279 -0.7864
  589MOL0     H79456   3.782   6.411   5.269 -0.9241 -2.5717  0.6685
  589MOL0     H79457   3.909   6.352   5.363 -1.9164  0.9373  2.9748
  589MOL0     H79458   3.990   6.593   5.397 -0.2348  1.9202 -0.0128
  589MOL0     H79459   3.846   6.653   5.314 -2.8838  0.6766  2.3690
  589MOL0     H79460   3.697   6.556   5.468 -0.2208 -0.2957 -2.1634
  589MOL0     H79461   3.826   6.522   5.588  2.2346  2.8319  0.5144
  589MOL0     H79462   3.887   6.764   5.594 -0.4350 -0.3154  1.1305
  589MOL0     H79463   3.755   6.786   5.485  2.5714  0.8100  0.9225
  589MOL0     H79464   3.733   6.687   5.773 -0.8813 -0.2986  0.1131
  589MOL0     H79465   3.617   6.653   5.644 -0.3814  1.3308  0.1894
  589MOL0     H79466   3.783   7.006   5.673 -1.0023 -0.2448 -2.2207
  589MOL0     H79467   3.540   7.268   5.747 -1.4757 -0.8501  0.0154
  589MOL0     H79468   3.666   7.224   5.628 -0.7960 -1.4823  0.0330
  589MOL0     H79469   3.370   7.201   5.567 -0.0524  1.6239  1.7713
  589MOL0     H79470   3.510   7.184   5.455 -1.5806  0.7454 -0.5063
  589MOL0     H79471   3.584   7.400   5.478 -0.2778 -1.7213 -1.3675
  589MOL0     H79472   3.459   7.456   5.589 -3.0639  1.4060 -1.6865
  589MOL0     H79473   3.430   7.383   5.290  2.3750 -0.3955  1.3767
  589MOL0     H79474   3.406   7.534   5.368  1.6314 -0.5720 -1.1099
  589MOL0     H79475   3.293   7.641   5.492  0.3360 -1.6655 -0.6852
  589MOL0     H79476   3.084   7.828   5.716 -1.4231  1.5011 -1.4297
  589MOL0     H79477   3.244   7.806   5.649  0.2530 -0.7820  1.3673
  589MOL0     H79478   3.129   7.903   5.557  0.6103 -0.2759 -0.9531
  589MOL0     H79479   2.595   7.679   5.351  1.0916  0.3482  0.9219
  589MOL0     H79480   2.397   7.798   5.307  0.5036  0.2452 -0.8144
  589MOL0     H79481   2.295   8.090   5.597  2.8426 -5.2877 -0.2360
  589MOL0     H79482   2.320   8.112   5.421 -2.4678  0.7177 -2.6636
  589MOL0     H79483   2.116   8.234   5.516 -1.0864 -0.7202  1.7687
  589MOL0     H79484   2.064   8.127   5.396 -1.1125 -1.3995  0.1199
  589MOL0     H79485   2.032   8.119   5.693  0.1496 -0.9676  0.9836
  589MOL0     H79486   2.056   7.967   5.618  0.8836  0.9583  0.5990
  589MOL0     H79487   1.820   8.159   5.535  0.3517  0.2531  0.0736
  589MOL0     H79488   1.872   7.989   5.470  0.3014 -0.5243  0.0477
  589MOL0     H79489   1.762   8.066   5.744 -1.9093 -0.1680  0.4838
  589MOL0     H79490   1.827   7.905   5.695 -0.7095 -1.2491 -0.3122
  589MOL0     H79491   1.655   7.877   5.514 -1.0719  0.3642  0.8924
  589MOL0     H79492   1.584   7.905   5.667 -0.4189 -0.1021  0.0485
  589MOL0     H79493   1.630   8.102   5.441  0.0179  0.4950  0.9375
  589MOL0     H79494   1.554   8.150   5.598  1.0979 -0.9562  1.6113
  589MOL0     H79495   1.453   7.926   5.416  0.5882 -1.1192  1.5518
  589MOL0     H79496   1.385   8.085   5.408  2.0516 -0.5728 -2.2760
  589MOL0     H79497   2.353   7.910   5.717  1.7986  2.0328 -0.4626
  589MOL0     H79498   2.556   7.805   5.775 -3.6754  3.6118  0.8872
  589MOL0     H79499   2.830   7.480   5.487  0.1979  0.4813 -2.0691
  589MOL0     H79500   3.017   7.321   5.442  1.0641 -1.0659  1.8240
  589MOL0     H79501   4.364   6.305   4.969  1.5655 -0.1109  0.1210
  589MOL0     H79502   4.569   6.402   4.850  0.1991  0.1214 -0.1096
  589MOL0     H79503   4.646   6.889   4.433 -0.5714  0.0985 -4.2082
  589MOL0     H79504   4.824   6.936   4.287 -0.6435  0.7196  1.9932
  589MOL0     H79505   4.931   6.904   4.097 -0.2425  1.5955  1.3377
  589MOL0     H79506   5.041   6.979   4.209  3.7893  2.0887 -1.6066
  589MOL0     H79507   5.162   6.994   3.994  0.1806  1.1385  1.1225
  589MOL0     H79508   5.140   6.825   3.969  1.9562  2.3793 -1.8691
  589MOL0     H79509   5.274   6.759   4.142  0.5162 -0.4782 -2.1710
  589MOL0     H79510   5.295   6.930   4.209  0.7418 -0.8650  0.4399
  589MOL0     H79511   5.485   6.884   4.093  2.4330  0.7126 -2.5834
  589MOL0     H79512   5.396   7.002   4.004  0.8992 -1.0085 -1.9427
  589MOL0     H79513   5.416   6.745   3.694 -2.1101  0.3946 -0.7480
  589MOL0     H79514   4.991   6.552   4.344  1.3277  1.8996  1.2471
  589MOL0     H79515   4.809   6.487   4.498  0.5186 -0.3883 -2.9004
  590MOL0     O79516  11.167  11.019   8.103 -0.0661 -0.2514 -0.2022
  590MOL0     C79517  11.242  11.012   8.002 -0.1959 -0.3757 -0.3910
  590MOL0     O79518  11.247  11.106   7.902  0.7638  0.4020  0.6539
  590MOL0     C79519  11.161  11.207   7.907 -0.3631 -0.3843 -0.7595
  590MOL0     C79520  11.021  11.188   7.900  0.1620 -0.8152 -0.0047
  590MOL0     C79521  10.943  11.304   7.869 -0.6562  0.4705  0.6667
  590MOL0     C79522  10.997  11.430   7.867 -0.0641  0.4880  0.4781
  590MOL0     O79523  10.916  11.535   7.841 -0.1172 -0.6160 -0.1154
  590MOL0     C79524  10.965  11.673   7.853  0.4131  0.3374  0.1224
  590MOL0     C79525  10.860  11.781   7.819 -0.0799 -0.2150 -0.3788
  590MOL0     C79526  10.743  11.783   7.906  0.7451  0.5287 -0.2264
  590MOL0     C79527  10.763  11.787   8.056  0.5175 -0.9525  0.0755
  590MOL0     C79528  10.843  11.907   8.103 -0.1987 -0.4125  0.0434
  590MOL0     C79529  10.833  11.912   8.247  0.4818  0.5552 -0.4640
  590MOL0     C79530  10.878  12.046   8.298 -0.3033  0.1788  0.4566
  590MOL0     C79531  10.953  12.029   8.426  0.2041 -0.4959 -0.3322
  590MOL0     N79532  10.866  12.026   8.542 -0.0474  0.0837  0.9136
  590MOL0     C79533  10.793  11.917   8.562 -0.2413 -0.4844  0.0349
  590MOL0     C79534  10.772  11.920   8.691  0.0147  0.1191 -0.8260
  590MOL0     C79535  10.700  11.822   8.777  0.1748  0.3783 -0.4946
  590MOL0     C79536  10.600  11.738   8.701 -0.0264  0.1421 -0.7639
  590MOL0     C79537  10.486  11.815   8.635  0.4277  0.3730  0.1888
  590MOL0     C79538  10.387  11.721   8.560  0.0867 -0.1282  0.0933
  590MOL0     O79539  10.269  11.805   8.537  0.8333  0.5794  0.4258
  590MOL0     C79540  10.154  11.742   8.501  0.1300  0.0018 -0.9507
  590MOL0     C79541  10.136  11.602   8.500  0.3712  0.7368 -0.4641
  590MOL0     C79542  10.006  11.540   8.464  0.1450  0.7989  0.8974
  590MOL0     C79543   9.988  11.390   8.456  0.1373  0.9271 -0.1103
  590MOL0     C79544   9.900  11.625   8.427 -0.0960 -0.7960 -0.4456
  590MOL0     C79545   9.763  11.590   8.368  0.6332 -0.4252  0.0942
  590MOL0     O79546   9.750  11.472   8.307 -0.0227  0.9074  0.2884
  590MOL0     C79547   9.631  11.460   8.238 -0.4363 -0.3496 -0.0094
  590MOL0     C79548   9.610  11.529   8.116  0.3745 -0.3131  0.2418
  590MOL0     C79549   9.489  11.521   8.057  0.6036 -1.3232 -0.7374
  590MOL0     C79550   9.388  11.424   8.100 -1.3279 -0.1132 -0.3419
  590MOL0     O79551   9.263  11.423   8.051 -0.5340  0.2971 -1.1793
  590MOL0     C79552   9.214  11.291   8.007 -0.0601  0.0520  0.3092
  590MOL0     C79553   9.076  11.301   7.964  0.1549 -0.4612  0.0799
  590MOL0     C79554   8.984  11.314   8.090 -0.8069 -0.6908 -0.1442
  590MOL0     C79555   8.834  11.317   8.057  0.5647 -0.5691  0.1493
  590MOL0     C79556   8.773  11.187   8.012 -0.0803  0.0280 -1.3865
  590MOL0     C79557   8.620  11.175   8.015 -0.3209  0.5140 -0.4399
  590MOL0     C79558   8.561  11.260   7.911  0.5576 -0.2283 -0.0105
  590MOL0     C79559   8.416  11.218   7.897  0.0621 -0.4647 -1.0031
  590MOL0    Cl79560   8.393  11.059   7.831 -0.4376 -0.1900 -0.2239
  590MOL0     C79561   9.429  11.346   8.208  0.2840  0.1136  0.5652
  590MOL0     C79562   9.544  11.368   8.281 -0.3087  0.6969  0.2808
  590MOL0     O79563   9.673  11.675   8.380  0.0408 -0.4527 -0.1918
  590MOL0     C79564   9.919  11.765   8.442 -0.3939 -0.2799  0.6873
  590MOL0     C79565  10.046  11.821   8.480 -0.7970 -0.2256  0.2637
  590MOL0     N79566  10.817  12.033   8.741 -0.0354 -0.2250 -0.5248
  590MOL0     N79567  10.889  12.094   8.656 -0.1827 -0.3360 -0.6300
  590MOL0     C79568  11.141  11.441   7.886  1.0156  0.5504  0.3014
  590MOL0     C79569  11.221  11.331   7.901 -0.2350 -0.0338  0.5406
  590MOL0     C79570  11.322  10.891   7.999 -0.3448 -0.4731 -0.3226
  590MOL0     C79571  11.387  10.855   7.884  0.3963 -0.3925  0.8120
  590MOL0     C79572  11.472  10.742   7.873  0.2242 -0.2705  0.0126
  590MOL0     C79573  11.489  10.658   7.989 -0.1323 -0.7043  0.4103
  590MOL0     O79574  11.562  10.536   7.993  0.3838  0.1936  0.6029
  590MOL0     C79575  11.684  10.523   7.916  0.3614 -0.1091 -0.1082
  590MOL0     C79576  11.737  10.376   7.911  0.2484  0.9854  0.1946
  590MOL0     C79577  11.861  10.363   7.829 -0.0579  0.3849  0.4916
  590MOL0     C79578  11.998  10.392   7.899  1.3382  0.4589  0.2245
  590MOL0     C79579  12.098  10.399   7.797 -0.7154 -0.7743 -0.4341
  590MOL0     C79580  12.178  10.393   7.708 -0.8020  0.6335 -0.3765
  590MOL0     C79581  11.410  10.686   8.101 -0.8387  0.4822  0.3951
  590MOL0     C79582  11.335  10.802   8.109 -0.0995  0.2579  0.7057
  590MOL0     H79583  10.978  11.088   7.892 -1.4274 -0.0666 -1.5898
  590MOL0     H79584  10.838  11.282   7.853 -0.5211 -1.5521  2.1681
  590MOL0     H79585  11.000  11.694   7.955 -1.4137 -0.5678  0.9803
  590MOL0     H79586  11.054  11.676   7.790 -0.5939  1.1959 -1.3031
  590MOL0     H79587  10.909  11.878   7.837 -0.3520 -0.1424 -0.0133
  590MOL0     H79588  10.820  11.772   7.718 -3.3748 -2.2969  0.9769
  590MOL0     H79589  10.688  11.872   7.874  0.3030  0.1322 -0.5821
  590MOL0     H79590  10.677  11.702   7.873  0.7174  0.7152 -0.6481
  590MOL0     H79591  10.664  11.789   8.102  0.6448 -1.7967  0.4026
  590MOL0     H79592  10.805  11.689   8.079  0.2467 -1.6339 -2.0465
  590MOL0     H79593  10.950  11.894   8.079  0.3188  0.3838  1.7763
  590MOL0     H79594  10.809  12.002   8.063  0.1683  0.5059  1.8248
  590MOL0     H79595  10.729  11.900   8.278 -0.2225 -1.6720 -3.2717
  590MOL0     H79596  10.892  11.830   8.289  0.6459  1.8010  1.9596
  590MOL0     H79597  10.948  12.090   8.225 -0.4611  2.6286  1.6653
  590MOL0     H79598  10.795  12.116   8.310 -1.8284 -1.7022  1.2517
  590MOL0     H79599  11.019  12.114   8.444 -0.2447  0.5614 -3.2085
  590MOL0     H79600  11.017  11.940   8.427  2.8145  1.2706  0.9727
  590MOL0     H79601  10.763  11.840   8.491 -0.3066 -0.2438 -0.1956
  590MOL0     H79602  10.780  11.774   8.834 -1.0885  0.5259  1.4833
  590MOL0     H79603  10.649  11.874   8.858  1.3999  2.5298 -1.0245
  590MOL0     H79604  10.550  11.668   8.769 -0.8136  2.2472  0.9828
  590MOL0     H79605  10.659  11.686   8.626  1.2954  1.3374 -0.5946
  590MOL0     H79606  10.526  11.890   8.566  0.9834  0.2674  0.3893
  590MOL0     H79607  10.428  11.862   8.715  1.8347  0.6426  1.0924
  590MOL0     H79608  10.364  11.642   8.632  2.0256 -1.4995 -0.7121
  590MOL0     H79609  10.422  11.678   8.466 -2.0831 -1.2990 -0.2546
  590MOL0     H79610  10.212  11.533   8.535 -2.2814 -2.0154  0.3216
  590MOL0     H79611  10.000  11.365   8.351  0.7582 -0.3671  0.2451
  590MOL0     H79612  10.054  11.338   8.526 -0.8907 -0.3843 -0.0731
  590MOL0     H79613   9.891  11.351   8.488  0.8230 -0.5801  0.2138
  590MOL0     H79614   9.686  11.589   8.065  1.1966 -1.7318 -0.2531
  590MOL0     H79615   9.463  11.580   7.969 -0.1248  1.1772  1.0332
  590MOL0     H79616   9.284  11.266   7.926 -2.7349  0.1888 -2.1957
  590MOL0     H79617   9.227  11.216   8.085  0.2369  1.7168  1.9204
  590MOL0     H79618   9.072  11.380   7.888 -0.4181  1.2461  1.8105
  590MOL0     H79619   9.062  11.206   7.910  3.0214 -0.8078 -0.2018
  590MOL0     H79620   9.011  11.411   8.133 -2.4242 -0.9919  1.6601
  590MOL0     H79621   9.013  11.231   8.155  1.4105 -0.6427 -0.9769
  590MOL0     H79622   8.784  11.348   8.149 -1.3657 -1.9439 -0.3867
  590MOL0     H79623   8.815  11.392   7.980 -0.7425  0.0230  1.0044
  590MOL0     H79624   8.806  11.118   8.090 -2.7452  1.0882  0.8523
  590MOL0     H79625   8.816  11.159   7.915 -0.2078 -3.5403 -0.5462
  590MOL0     H79626   8.597  11.070   7.995  0.5650  0.3279 -0.4990
  590MOL0     H79627   8.572  11.200   8.110 -0.6078 -3.2221  0.5613
  590MOL0     H79628   8.603  11.235   7.813  0.1711  2.7378 -1.0390
  590MOL0     H79629   8.575  11.365   7.936 -0.4234 -0.7049  2.9777
  590MOL0     H79630   8.367  11.293   7.835  1.0115 -0.5756 -1.9062
  590MOL0     H79631   8.367  11.226   7.995  2.1247  1.5128 -0.0237
  590MOL0     H79632   9.353  11.279   8.247 -0.1484 -0.5021 -1.2127
  590MOL0     H79633   9.580  11.317   8.371  2.4561 -1.4545 -1.8630
  590MOL0     H79634   9.845  11.841   8.420  2.4080  2.3639 -0.4783
  590MOL0     H79635  10.062  11.927   8.491  1.1366 -0.5079  0.4515
  590MOL0     H79636  11.185  11.540   7.890 -1.5269  1.7474  0.2206
  590MOL0     H79637  11.329  11.337   7.910 -0.3194  1.2641  0.8342
  590MOL0     H79638  11.375  10.911   7.792 -1.5567  2.2038  2.4929
  590MOL0     H79639  11.517  10.717   7.778 -0.9430  0.1236 -0.6707
  590MOL0     H79640  11.668  10.545   7.810 -0.1282 -0.6689 -0.1574
  590MOL0     H79641  11.755  10.590   7.966  0.2228  1.1632 -1.5654
  590MOL0     H79642  11.661  10.322   7.853  0.2612 -0.5252  1.5334
  590MOL0     H79643  11.741  10.333   8.011 -0.2891  2.3192  0.8162
  590MOL0     H79644  11.847  10.415   7.734 -1.7283 -2.3421 -0.8905
  590MOL0     H79645  11.850  10.256   7.807 -3.7179  0.3412  1.8450
  590MOL0     H79646  12.021  10.314   7.972  0.5528  1.1729  1.2575
  590MOL0     H79647  11.986  10.489   7.947  2.7359 -0.9370  3.6907
  590MOL0     H79648  12.257  10.389   7.635  0.8171 -1.6000  1.3495
  590MOL0     H79649  11.423  10.623   8.189 -0.2792  0.0811  0.0384
  590MOL0     H79650  11.275  10.802   8.200 -1.4363 -1.5290 -0.1027
  591MOL0     O79651   7.716   1.102   5.982 -0.3091  0.5436  0.3648
  591MOL0     C79652   7.799   1.175   5.933  0.1770  0.0126 -0.8290
  591MOL0     O79653   7.779   1.256   5.824 -0.1748 -0.3822 -0.5264
  591MOL0     C79654   7.650   1.280   5.781  0.0859  0.0765  0.6385
  591MOL0     C79655   7.594   1.406   5.793  0.7835 -0.5738 -0.0891
  591MOL0     C79656   7.464   1.446   5.751 -0.6666  0.5188 -0.2335
  591MOL0     C79657   7.392   1.345   5.684  0.4335 -0.4318 -0.8808
  591MOL0     O79658   7.262   1.363   5.635  0.3201  0.1650 -0.1030
  591MOL0     C79659   7.214   1.501   5.628  0.6257  0.4636 -0.7954
  591MOL0     C79660   7.160   1.550   5.757 -0.1504 -0.5179 -0.2899
  591MOL0     C79661   7.053   1.463   5.806  1.0272  0.2164  0.2994
  591MOL0     C79662   6.960   1.533   5.906 -0.0143 -0.2509  0.1293
  591MOL0     C79663   6.833   1.438   5.927 -0.3612 -0.7876  0.1540
  591MOL0     C79664   6.859   1.285   5.933  0.8942 -0.3645 -0.7010
  591MOL0     C79665   6.731   1.216   5.981 -0.2868  0.2310 -0.3021
  591MOL0     C79666   6.739   1.066   5.994 -0.3843  0.7176  1.0487
  591MOL0     N79667   6.620   0.997   6.044  0.0449  0.6031 -0.6939
  591MOL0     C79668   6.583   0.997   6.183  0.6677  0.3685  0.8265
  591MOL0     C79669   6.459   0.936   6.190  0.2181 -0.5173  0.8052
  591MOL0     C79670   6.375   0.909   6.318  0.3039 -0.3364  0.9684
  591MOL0     C79671   6.333   0.760   6.336 -0.2374  0.0232 -0.5288
  591MOL0     C79672   6.215   0.712   6.242 -0.4601 -0.1719 -0.3704
  591MOL0     C79673   6.147   0.585   6.290 -0.0916  0.0937 -0.4447
  591MOL0     O79674   6.060   0.624   6.399  0.1263 -0.4182  1.1950
  591MOL0     C79675   5.922   0.589   6.392  0.4842  0.4700 -0.4154
  591MOL0     C79676   5.882   0.470   6.339  0.0604  0.5420  0.1084
  591MOL0     C79677   5.749   0.445   6.315  0.7300 -0.2690  0.0276
  591MOL0     C79678   5.712   0.305   6.273  0.1113  0.1440  0.2679
  591MOL0     C79679   5.651   0.545   6.352  0.1144 -0.3220 -0.3833
  591MOL0     C79680   5.508   0.534   6.342 -0.0172  0.9810 -0.0862
  591MOL0     O79681   5.456   0.518   6.213  0.2727  0.1868 -0.6754
  591MOL0     C79682   5.323   0.506   6.196  0.6874 -0.5285  0.4663
  591MOL0     C79683   5.223   0.467   6.291  0.5801 -0.3464  0.6125
  591MOL0     C79684   5.090   0.440   6.243 -0.1714  0.0700 -0.4380
  591MOL0     C79685   5.057   0.461   6.109 -0.2708  1.0117  0.7788
  591MOL0     O79686   4.931   0.450   6.054 -0.3723 -0.1474 -0.1114
  591MOL0     C79687   4.802   0.432   6.125 -0.5052  0.3414 -0.1945
  591MOL0     C79688   4.696   0.419   6.019 -0.2550  0.0545 -0.3619
  591MOL0     C79689   4.568   0.394   6.083  0.5286  0.8232 -0.2399
  591MOL0     C79690   4.456   0.449   5.999  0.0367 -0.7451 -0.0654
  591MOL0     C79691   4.321   0.404   6.052 -0.6066 -1.6246 -0.0356
  591MOL0     C79692   4.195   0.446   5.971  0.2657  0.5811  0.5262
  591MOL0     C79693   4.075   0.379   6.018  0.2130 -0.2358  0.3938
  591MOL0     C79694   4.029   0.439   6.155  0.3954  0.4567  0.3888
  591MOL0    Cl79695   3.877   0.355   6.203  0.0538 -0.4672 -0.4673
  591MOL0     C79696   5.155   0.495   6.013  0.5621  0.2092  0.3194
  591MOL0     C79697   5.287   0.515   6.053 -1.0368 -0.4565 -0.4302
  591MOL0     O79698   5.452   0.550   6.446  0.7949 -0.4509 -0.1568
  591MOL0     C79699   5.695   0.667   6.416  0.1607  0.2972 -0.5449
  591MOL0     C79700   5.827   0.681   6.433  0.4521 -0.2166  0.0844
  591MOL0     N79701   6.434   0.896   6.058 -0.5662  0.5094 -0.1390
  591MOL0     N79702   6.527   0.928   5.976  0.5161 -0.2352  0.1305
  591MOL0     C79703   7.442   1.219   5.677  0.4628 -0.2381 -0.4767
  591MOL0     C79704   7.572   1.185   5.718 -0.2071  0.4761 -0.3894
  591MOL0     C79705   7.937   1.161   5.979 -0.9727  0.4913  0.7767
  591MOL0     C79706   8.037   1.253   5.940  0.5227  0.1451  0.1620
  591MOL0     C79707   8.170   1.246   5.993  0.6023  0.1203 -0.2085
  591MOL0     C79708   8.211   1.138   6.071  0.5880  0.2786  0.4384
  591MOL0     O79709   8.336   1.104   6.120 -0.0817 -0.1871 -0.7336
  591MOL0     C79710   8.449   1.188   6.083  0.0298  0.8746  0.3667
  591MOL0     C79711   8.583   1.147   6.134  0.0421  0.3964 -0.0902
  591MOL0     C79712   8.600   1.159   6.290 -0.2960  0.0899  0.0774
  591MOL0     C79713   8.567   1.293   6.346 -1.8246 -1.3685 -0.2797
  591MOL0     C79714   8.648   1.402   6.275  0.8442  0.1515  0.2023
  591MOL0     C79715   8.715   1.484   6.219  0.9493 -0.2269  0.1113
  591MOL0     C79716   8.111   1.053   6.111 -1.2634 -0.6148 -0.6005
  591MOL0     C79717   7.985   1.062   6.067 -0.0326 -0.8224  0.8706
  591MOL0     H79718   7.644   1.480   5.856  0.1747 -0.5159  0.3329
  591MOL0     H79719   7.429   1.544   5.783 -3.4642 -0.5358  0.2306
  591MOL0     H79720   7.290   1.569   5.588  1.1455 -0.3685 -1.2481
  591MOL0     H79721   7.134   1.497   5.554 -0.2148 -2.4559  0.1381
  591MOL0     H79722   7.229   1.561   5.841  0.3575 -0.5107 -0.7075
  591MOL0     H79723   7.125   1.651   5.734  2.7887  0.1929 -2.0164
  591MOL0     H79724   6.994   1.416   5.726  1.5598  0.2258 -0.1006
  591MOL0     H79725   7.093   1.385   5.871 -1.8377  0.8223  3.0334
  591MOL0     H79726   6.997   1.552   6.007  2.6731 -2.3597 -0.3752
  591MOL0     H79727   6.922   1.630   5.871 -0.7667 -0.5810  0.0019
  591MOL0     H79728   6.796   1.469   6.025  1.2248 -0.8152  0.7799
  591MOL0     H79729   6.762   1.458   5.846 -0.8670 -0.4906  0.6597
  591MOL0     H79730   6.884   1.248   5.833  1.0138 -0.8396 -0.4986
  591MOL0     H79731   6.944   1.272   6.001  2.2538 -1.6776 -2.5387
  591MOL0     H79732   6.712   1.256   6.081 -1.5586  0.6804 -0.7048
  591MOL0     H79733   6.646   1.250   5.921 -0.1567  0.3732 -0.4071
  591MOL0     H79734   6.827   1.047   6.057  0.7572  0.3554 -0.5738
  591MOL0     H79735   6.757   1.035   5.891 -0.0895  1.0573  0.9956
  591MOL0     H79736   6.624   1.043   6.273  0.3902  1.0882  0.5895
  591MOL0     H79737   6.421   0.949   6.408 -0.5064  1.8891  0.4637
  591MOL0     H79738   6.275   0.953   6.313  0.9771  1.1216 -0.5306
  591MOL0     H79739   6.307   0.757   6.442  1.7545  1.5227  0.0710
  591MOL0     H79740   6.417   0.695   6.313  1.2987  1.5824  0.4856
  591MOL0     H79741   6.254   0.690   6.143  0.8378  2.2901 -0.4848
  591MOL0     H79742   6.137   0.789   6.229 -2.2836 -2.1025 -1.5078
  591MOL0     H79743   6.225   0.518   6.324 -1.4484 -1.3442 -0.0452
  591MOL0     H79744   6.093   0.535   6.208 -0.7970 -1.7203  1.0625
  591MOL0     H79745   5.958   0.395   6.320 -0.7801  0.0217 -1.3703
  591MOL0     H79746   5.715   0.235   6.356  0.3506  0.0550  0.1858
  591MOL0     H79747   5.613   0.309   6.227  0.8433 -2.0300 -1.7024
  591MOL0     H79748   5.771   0.272   6.187 -1.3760 -2.0044  0.0010
  591MOL0     H79749   5.249   0.442   6.393  1.4823 -2.0531  0.0235
  591MOL0     H79750   5.024   0.430   6.329  3.7201 -1.5301  2.7245
  591MOL0     H79751   4.809   0.341   6.186  3.0481  0.9619  0.5594
  591MOL0     H79752   4.770   0.519   6.182 -0.0006  1.8193 -2.0532
  591MOL0     H79753   4.708   0.510   5.959  1.4969 -0.6853 -1.2178
  591MOL0     H79754   4.715   0.338   5.947 -0.6050  1.7618 -2.4767
  591MOL0     H79755   4.558   0.433   6.185 -0.2378  0.7952 -0.3028
  591MOL0     H79756   4.556   0.287   6.100 -0.2286  1.0239  0.5447
  591MOL0     H79757   4.451   0.558   6.008 -1.7149 -0.7120 -0.9079
  591MOL0     H79758   4.464   0.415   5.895 -0.1238  1.5320 -0.8874
  591MOL0     H79759   4.316   0.443   6.154  0.8955  0.0774 -0.5509
  591MOL0     H79760   4.326   0.295   6.056  4.0489 -1.7167 -2.0818
  591MOL0     H79761   4.172   0.550   5.948 -0.1647 -0.0784 -2.5705
  591MOL0     H79762   4.217   0.406   5.871 -0.0572 -0.4493  0.8563
  591MOL0     H79763   4.081   0.271   6.002  1.6936  0.0707 -1.4463
  591MOL0     H79764   3.993   0.399   5.949  1.9486 -1.9564 -2.3468
  591MOL0     H79765   4.011   0.546   6.144 -1.6700  0.4809  3.0431
  591MOL0     H79766   4.103   0.428   6.235 -1.4570  1.0121  2.2711
  591MOL0     H79767   5.135   0.500   5.907  1.0891  0.5940  0.2363
  591MOL0     H79768   5.366   0.530   5.980  0.1379  3.2701  1.3813
  591MOL0     H79769   5.632   0.748   6.452  0.7643  0.1578  0.9091
  591MOL0     H79770   5.875   0.775   6.460  1.1664 -1.0219  1.8481
  591MOL0     H79771   7.381   1.140   5.634  1.2650 -1.2961  0.2717
  591MOL0     H79772   7.601   1.083   5.694  0.8104  0.4251  0.9546
  591MOL0     H79773   8.016   1.340   5.880  3.5435  0.1303 -1.1135
  591MOL0     H79774   8.236   1.331   5.976  2.0117 -0.9077 -0.0205
  591MOL0     H79775   8.452   1.188   5.973 -0.2326  1.4953  0.3517
  591MOL0     H79776   8.420   1.289   6.114  2.4516  1.8037 -0.2092
  591MOL0     H79777   8.658   1.217   6.094 -1.5818  1.9001 -0.6288
  591MOL0     H79778   8.610   1.045   6.106 -0.3937  0.0172  0.8404
  591MOL0     H79779   8.702   1.133   6.319 -0.3983  1.1422  1.5163
  591MOL0     H79780   8.530   1.085   6.329  0.8941 -0.9222  0.3455
  591MOL0     H79781   8.597   1.290   6.451 -0.9484 -0.5994 -0.4900
  591MOL0     H79782   8.462   1.321   6.339 -1.4695  0.1676  0.2070
  591MOL0     H79783   8.773   1.559   6.170  1.1332 -1.2741 -1.3495
  591MOL0     H79784   8.124   0.968   6.177 -1.6441 -0.7113 -0.6491
  591MOL0     H79785   7.914   0.986   6.098 -0.7674 -0.3470  0.3786
  592MOL0     O79786   6.241   4.426   1.782  0.9434 -0.4340 -0.8854
  592MOL0     C79787   6.199   4.379   1.885  1.1889  0.2129 -0.8205
  592MOL0     O79788   6.071   4.371   1.924 -0.4153 -0.0202 -0.4535
  592MOL0     C79789   5.959   4.394   1.843 -0.0395  0.6169  0.4959
  592MOL0     C79790   5.951   4.489   1.744 -0.1816  0.6052 -0.4346
  592MOL0     C79791   5.832   4.511   1.677  0.2388  0.1428  0.2796
  592MOL0     C79792   5.713   4.436   1.707  0.1569 -0.1126 -0.4451
  592MOL0     O79793   5.594   4.477   1.645 -0.1683 -0.2182 -0.5989
  592MOL0     C79794   5.461   4.435   1.675  0.6314 -0.2181 -0.6592
  592MOL0     C79795   5.406   4.487   1.811 -0.3898 -0.0039  0.7499
  592MOL0     C79796   5.445   4.633   1.838 -0.3904 -0.8643 -0.5139
  592MOL0     C79797   5.434   4.661   1.994  0.2045  0.0651 -0.9162
  592MOL0     C79798   5.440   4.814   2.023  0.6438  0.4724 -0.0917
  592MOL0     C79799   5.373   4.912   1.931  0.0611 -0.0988 -0.3749
  592MOL0     C79800   5.219   4.906   1.920 -0.6044  0.5174 -0.1715
  592MOL0     C79801   5.160   4.915   2.059  0.5235 -0.4573 -0.3052
  592MOL0     N79802   5.014   4.917   2.037 -0.3897 -0.6651 -0.5987
  592MOL0     C79803   4.936   5.023   1.998  0.6246  0.8354 -0.2774
  592MOL0     C79804   4.804   4.979   1.999  0.4945 -0.5236 -0.4749
  592MOL0     C79805   4.683   5.066   1.960  0.3827  0.7409 -0.6092
  592MOL0     C79806   4.558   4.989   1.925  0.0228  0.1915 -0.1736
  592MOL0     C79807   4.429   5.081   1.925 -0.1813  0.2188  0.5982
  592MOL0     C79808   4.296   5.004   1.899 -0.6585  0.4931 -0.6412
  592MOL0     O79809   4.282   4.902   2.006 -0.0404  0.1953 -0.4250
  592MOL0     C79810   4.185   4.813   1.994 -0.5546  0.0374 -0.5142
  592MOL0     C79811   4.208   4.684   2.054 -0.5827 -0.1636 -1.0681
  592MOL0     C79812   4.117   4.582   2.059  0.6774 -0.2105  0.7793
  592MOL0     C79813   4.162   4.455   2.127 -0.1764 -0.4849  0.7466
  592MOL0     C79814   3.992   4.602   1.996  0.3191  0.0451  1.0625
  592MOL0     C79815   3.880   4.509   1.994 -0.1269 -0.5668 -0.4312
  592MOL0     O79816   3.883   4.400   2.085  0.0154  0.3782 -0.4770
  592MOL0     C79817   3.776   4.314   2.076  0.8450 -0.6372 -0.0393
  592MOL0     C79818   3.783   4.197   1.998 -0.4103 -0.0898 -0.5075
  592MOL0     C79819   3.666   4.110   1.975 -0.1536 -0.9397 -0.7869
  592MOL0     C79820   3.556   4.131   2.054  0.0177 -0.5206 -0.2945
  592MOL0     O79821   3.441   4.057   2.056 -0.4461 -0.0013  0.5682
  592MOL0     C79822   3.416   3.956   1.963 -0.0092  0.4611  0.5946
  592MOL0     C79823   3.314   3.863   2.015  0.0429  0.2903 -0.8074
  592MOL0     C79824   3.292   3.740   1.936 -0.7434  0.5629  1.3562
  592MOL0     C79825   3.158   3.686   1.969  0.4886 -0.0879  0.8368
  592MOL0     C79826   3.127   3.558   1.897  0.1522 -0.0078  0.8219
  592MOL0     C79827   3.003   3.493   1.960 -0.0271 -0.7606  0.0266
  592MOL0     C79828   2.878   3.575   1.979  0.4485  0.4542 -0.2138
  592MOL0     C79829   2.815   3.628   1.847  0.5452  1.0039  0.1035
  592MOL0    Cl79830   2.746   3.484   1.756  0.1156  0.0626 -0.0680
  592MOL0     C79831   3.552   4.242   2.132  0.3343 -0.0459  0.6217
  592MOL0     C79832   3.654   4.336   2.139 -0.2568 -0.1928 -0.2478
  592MOL0     O79833   3.782   4.535   1.930 -0.2668 -0.0997  0.1799
  592MOL0     C79834   3.968   4.731   1.939 -0.4311 -0.4652  0.0994
  592MOL0     C79835   4.062   4.836   1.953  0.9061 -0.0929 -0.9369
  592MOL0     N79836   4.803   4.844   2.042  0.4096  0.1698  0.1861
  592MOL0     N79837   4.928   4.818   2.058  0.4362  0.4322  0.0677
  592MOL0     C79838   5.719   4.351   1.816 -0.3424  1.2671  0.8208
  592MOL0     C79839   5.843   4.319   1.871 -0.3755 -0.1438  0.3038
  592MOL0     C79840   6.294   4.314   1.977  0.3257 -0.6273 -0.1103
  592MOL0     C79841   6.434   4.300   1.943 -0.4719 -0.0299  0.2848
  592MOL0     C79842   6.528   4.256   2.043 -0.5706  0.5244  0.3871
  592MOL0     C79843   6.488   4.209   2.172  0.2155  0.4574  0.0895
  592MOL0     O79844   6.566   4.170   2.273 -0.4095 -0.2202  0.2578
  592MOL0     C79845   6.701   4.136   2.249  0.9742  0.6199  0.1102
  592MOL0     C79846   6.706   3.985   2.208 -0.0483 -0.3659  0.7866
  592MOL0     C79847   6.847   3.933   2.202  0.1836 -0.8685 -0.1429
  592MOL0     C79848   6.841   3.788   2.164  0.1286 -0.2856  1.0086
  592MOL0     C79849   6.829   3.703   2.281  0.0388 -1.0064 -0.0467
  592MOL0     C79850   6.827   3.642   2.384  0.4141  0.6082  0.4193
  592MOL0     C79851   6.351   4.203   2.194  0.7285  0.8991 -0.3734
  592MOL0     C79852   6.262   4.265   2.105  0.4671 -0.0653 -0.0519
  592MOL0     H79853   6.033   4.553   1.712  1.0261 -0.4937  0.3478
  592MOL0     H79854   5.831   4.581   1.594 -3.4178  0.2256  0.2692
  592MOL0     H79855   5.395   4.465   1.593  1.7248 -1.1406 -1.9305
  592MOL0     H79856   5.441   4.327   1.671 -1.1510  0.0884 -1.2187
  592MOL0     H79857   5.297   4.480   1.812 -0.4182 -0.1449 -0.9164
  592MOL0     H79858   5.440   4.415   1.886  1.8009 -0.1093 -0.2941
  592MOL0     H79859   5.550   4.649   1.810 -0.5529 -2.8014 -2.4550
  592MOL0     H79860   5.381   4.698   1.778  2.2962  1.7267 -0.7887
  592MOL0     H79861   5.331   4.638   2.022  1.1287 -1.4516  1.5621
  592MOL0     H79862   5.498   4.602   2.060 -0.7770 -0.4107 -0.3670
  592MOL0     H79863   5.417   4.827   2.129 -0.5890 -0.5530 -0.2028
  592MOL0     H79864   5.547   4.834   2.016  0.4172  2.6505  1.6556
  592MOL0     H79865   5.412   5.011   1.956  0.3694 -0.6516  1.5299
  592MOL0     H79866   5.414   4.903   1.830  0.3646  2.8867 -0.6104
  592MOL0     H79867   5.189   4.988   1.855  2.3219  1.9635  0.1205
  592MOL0     H79868   5.191   4.807   1.882  0.1256  0.0565  0.4533
  592MOL0     H79869   5.171   5.017   2.097 -0.7856  0.2610 -1.7298
  592MOL0     H79870   5.167   4.824   2.120  0.6467  0.5004  1.1732
  592MOL0     H79871   4.960   5.127   1.976  1.0839  0.9541  0.7328
  592MOL0     H79872   4.659   5.127   2.047 -3.8545  1.4140 -2.0279
  592MOL0     H79873   4.707   5.131   1.875 -0.3401  0.5385 -0.9792
  592MOL0     H79874   4.547   4.904   1.993  0.0851 -0.5533 -1.0671
  592MOL0     H79875   4.579   4.944   1.827 -0.3896 -0.2823 -0.0483
  592MOL0     H79876   4.432   5.152   1.841 -0.0864 -2.1097 -1.4886
  592MOL0     H79877   4.419   5.141   2.016  0.0850  1.4065 -0.1361
  592MOL0     H79878   4.305   4.956   1.801 -2.2800 -0.0755 -0.5499
  592MOL0     H79879   4.205   5.066   1.904 -1.7561 -1.0899 -0.3256
  592MOL0     H79880   4.308   4.667   2.092 -0.8011 -1.2156 -0.9434
  592MOL0     H79881   4.100   4.450   2.217  0.0605  0.7269  0.9957
  592MOL0     H79882   4.153   4.372   2.057  0.7963 -0.2289  0.3059
  592MOL0     H79883   4.264   4.455   2.165  0.4171 -0.9487 -0.7715
  592MOL0     H79884   3.878   4.178   1.949 -0.7930 -0.4071 -1.1384
  592MOL0     H79885   3.676   4.028   1.905 -3.5730 -0.3064 -2.2041
  592MOL0     H79886   3.384   3.996   1.866  1.6628  1.3956  0.3809
  592MOL0     H79887   3.509   3.901   1.942  0.1293  0.8853  0.0623
  592MOL0     H79888   3.346   3.828   2.114 -1.2989  0.1096 -0.4121
  592MOL0     H79889   3.215   3.904   2.036 -0.5514 -1.6173  0.4561
  592MOL0     H79890   3.371   3.665   1.946  0.4938  1.8804  1.7324
  592MOL0     H79891   3.295   3.765   1.830  0.9523 -3.0009  0.4139
  592MOL0     H79892   3.148   3.690   2.078 -1.2535  0.0532  0.7052
  592MOL0     H79893   3.082   3.759   1.939  1.0604  0.4496  0.6699
  592MOL0     H79894   3.211   3.488   1.908 -0.9669 -1.1574  2.5244
  592MOL0     H79895   3.110   3.573   1.790  0.9294  2.7119  1.0144
  592MOL0     H79896   2.998   3.408   1.891  1.5052 -1.2973  0.5109
  592MOL0     H79897   3.035   3.451   2.056  0.5143 -1.8727 -0.6085
  592MOL0     H79898   2.899   3.662   2.041  2.4475  0.6046 -1.0124
  592MOL0     H79899   2.804   3.515   2.033 -0.0520 -1.2403 -2.6145
  592MOL0     H79900   2.887   3.675   1.780 -0.5822  0.3908 -1.6012
  592MOL0     H79901   2.734   3.697   1.874  1.5148  1.7833  1.0879
  592MOL0     H79902   3.464   4.250   2.195  0.2276  1.0507  0.3445
  592MOL0     H79903   3.641   4.423   2.203 -2.1081 -0.0234 -0.7865
  592MOL0     H79904   3.875   4.762   1.892 -1.0794 -1.2047  0.8427
  592MOL0     H79905   4.039   4.934   1.912 -3.4414 -0.8631 -0.7684
  592MOL0     H79906   5.628   4.294   1.835 -1.1718  2.0853 -0.5105
  592MOL0     H79907   5.844   4.242   1.947 -0.4101 -1.5233 -1.0660
  592MOL0     H79908   6.483   4.339   1.854  0.3327 -1.4579  0.0677
  592MOL0     H79909   6.629   4.273   2.008 -0.5584 -0.1683  0.0811
  592MOL0     H79910   6.748   4.195   2.170  0.2308  0.1994 -0.6548
  592MOL0     H79911   6.759   4.151   2.341  0.7424  0.0987  0.3460
  592MOL0     H79912   6.648   3.983   2.116 -2.6143  1.4589  2.2316
  592MOL0     H79913   6.648   3.936   2.287 -0.5856  1.9779  1.9230
  592MOL0     H79914   6.892   3.934   2.302 -3.5893 -0.4520  1.7251
  592MOL0     H79915   6.900   3.997   2.131 -2.5017  0.9863 -0.6313
  592MOL0     H79916   6.927   3.749   2.109  0.9992  0.0040  2.1378
  592MOL0     H79917   6.757   3.769   2.096  1.2705 -1.9506 -0.0172
  592MOL0     H79918   6.838   3.589   2.476  0.4251 -1.6160 -0.7999
  592MOL0     H79919   6.306   4.172   2.288 -3.7902  4.2569 -1.1002
  592MOL0     H79920   6.158   4.264   2.135  0.2362  2.5447 -0.5613
  593MOL0     O79921   4.871   3.113   8.545  0.2553 -0.0137 -0.0139
  593MOL0     C79922   4.947   3.048   8.618 -0.0180  0.8112  0.5677
  593MOL0     O79923   4.914   2.980   8.738  0.4984  0.3346  0.4844
  593MOL0     C79924   4.781   2.985   8.783  0.1729 -0.0958 -0.6237
  593MOL0     C79925   4.765   3.000   8.927  0.6037  0.4539  1.0180
  593MOL0     C79926   4.629   3.020   8.965  0.0999  0.0426  0.0147
  593MOL0     C79927   4.518   3.006   8.877  0.1705 -0.6509 -0.7890
  593MOL0     O79928   4.396   3.014   8.940 -0.1514  0.3579  0.4974
  593MOL0     C79929   4.273   3.017   8.868 -0.9704 -0.4715 -0.2833
  593MOL0     C79930   4.163   3.066   8.961  0.3567  0.0903 -0.3780
  593MOL0     C79931   4.061   3.157   8.892  0.2761  0.7189  0.3960
  593MOL0     C79932   3.934   3.158   8.976 -0.0422  0.4515  0.1957
  593MOL0     C79933   3.814   3.235   8.921 -0.9820  0.3667 -0.3631
  593MOL0     C79934   3.787   3.233   8.772 -0.0427  0.8429 -0.0075
  593MOL0     C79935   3.662   3.327   8.739 -0.2905  0.7555 -0.6441
  593MOL0     C79936   3.641   3.342   8.588  0.3233 -0.2930  0.4389
  593MOL0     N79937   3.758   3.414   8.531  1.1643  0.0133 -0.5538
  593MOL0     C79938   3.765   3.551   8.511  0.1807  0.9278  0.0083
  593MOL0     C79939   3.881   3.575   8.451 -0.2611 -0.0721  0.5635
  593MOL0     C79940   3.946   3.712   8.422 -0.1825 -0.0113 -0.1525
  593MOL0     C79941   3.876   3.833   8.492  0.2077 -0.4038 -0.3692
  593MOL0     C79942   3.967   3.960   8.495  0.4750  0.2559 -0.5879
  593MOL0     C79943   4.099   3.948   8.573  1.2040  0.1285  0.6828
  593MOL0     O79944   4.052   3.899   8.699 -0.3794  0.1637 -0.3191
  593MOL0     C79945   4.143   3.914   8.801 -0.4936 -0.5389  0.0409
  593MOL0     C79946   4.100   3.929   8.931 -0.7477  1.1518 -1.0800
  593MOL0     C79947   4.190   3.938   9.042 -1.2913  0.3364 -0.3232
  593MOL0     C79948   4.138   3.953   9.182  1.3019 -0.2801  0.6618
  593MOL0     C79949   4.330   3.930   9.020  0.3547 -0.5905  0.0319
  593MOL0     C79950   4.443   3.946   9.130  0.0633 -0.9833 -0.3882
  593MOL0     O79951   4.562   3.994   9.080  0.0488 -0.1775  0.5196
  593MOL0     C79952   4.682   3.953   9.131 -0.5643  0.4639 -0.3468
  593MOL0     C79953   4.707   3.837   9.208  0.0144  0.3603  0.8428
  593MOL0     C79954   4.833   3.796   9.249 -0.4393  0.2976 -1.3052
  593MOL0     C79955   4.946   3.868   9.201  0.5419  0.3331 -0.3638
  593MOL0     O79956   5.074   3.818   9.248 -0.3782  0.0781  1.1164
  593MOL0     C79957   5.179   3.909   9.258 -1.1840 -0.4017  0.5410
  593MOL0     C79958   5.255   3.913   9.126 -0.5297 -0.3994 -0.3324
  593MOL0     C79959   5.387   3.986   9.132 -1.5966  0.0508  0.0151
  593MOL0     C79960   5.467   3.958   9.001 -0.0239  0.0107  0.4825
  593MOL0     C79961   5.604   4.030   8.980 -0.0081 -0.0014 -0.4791
  593MOL0     C79962   5.644   4.020   8.833 -0.9648  1.0263 -0.0214
  593MOL0     C79963   5.767   4.113   8.807 -0.2399  0.5466  0.1557
  593MOL0     C79964   5.896   4.072   8.868 -0.3996 -0.7788  0.3678
  593MOL0    Cl79965   5.953   3.907   8.799  0.0804 -0.0376 -0.1748
  593MOL0     C79966   4.929   3.989   9.128  0.1671  0.6138  0.6857
  593MOL0     C79967   4.793   4.027   9.104 -0.6983  0.0256  1.2284
  593MOL0     O79968   4.419   3.932   9.250  0.0453 -0.4947 -0.0236
  593MOL0     C79969   4.374   3.914   8.887 -0.3655 -0.4068  0.6100
  593MOL0     C79970   4.280   3.905   8.785  0.5492  0.5631 -0.1377
  593MOL0     N79971   3.946   3.446   8.432 -0.2481 -0.0464 -0.5496
  593MOL0     N79972   3.871   3.354   8.482  0.8399 -0.0191 -0.5051
  593MOL0     C79973   4.532   2.968   8.747 -0.5916 -1.3036 -0.1238
  593MOL0     C79974   4.663   2.968   8.700 -0.1085  0.1021 -0.5497
  593MOL0     C79975   5.087   3.033   8.564  0.4566 -0.1114  1.2396
  593MOL0     C79976   5.166   2.930   8.609 -0.7011 -0.3634 -0.4743
  593MOL0     C79977   5.300   2.914   8.579  0.4975  0.2908  0.4543
  593MOL0     C79978   5.362   2.997   8.491  0.8466  0.0614 -0.1770
  593MOL0     O79979   5.493   2.997   8.458 -0.5238 -0.5222  0.6908
  593MOL0     C79980   5.558   2.874   8.492  0.6750  0.6292  0.6463
  593MOL0     C79981   5.661   2.845   8.384  0.3011  0.5252  0.1948
  593MOL0     C79982   5.797   2.913   8.402 -0.3543 -0.5931 -0.2750
  593MOL0     C79983   5.821   3.027   8.306  0.0169 -0.1486  0.3539
  593MOL0     C79984   5.963   3.064   8.301  1.2621  0.3601  0.1357
  593MOL0     C79985   6.081   3.093   8.290 -0.2232 -0.0699  0.1429
  593MOL0     C79986   5.290   3.105   8.436  0.1629  0.8293  0.1976
  593MOL0     C79987   5.153   3.116   8.470  0.8310  0.2837  0.5737
  593MOL0     H79988   4.847   3.021   8.995  2.8074  1.8051 -1.8141
  593MOL0     H79989   4.609   3.040   9.070 -0.3055  0.6813 -0.1782
  593MOL0     H79990   4.277   3.096   8.792 -2.0504 -0.2155 -0.0847
  593MOL0     H79991   4.260   2.915   8.831  1.7973 -2.1257  2.8002
  593MOL0     H79992   4.117   2.975   9.001 -1.1473 -0.1325 -2.4182
  593MOL0     H79993   4.206   3.120   9.046 -0.4411 -0.9797  0.7422
  593MOL0     H79994   4.099   3.256   8.867 -1.5210  1.9230  2.0522
  593MOL0     H79995   4.036   3.110   8.797 -1.4777 -2.2470  2.1675
  593MOL0     H79996   3.909   3.055   9.001 -0.4419  0.3057 -0.7847
  593MOL0     H79997   3.966   3.210   9.067  1.8319 -0.8886  0.3683
  593MOL0     H79998   3.725   3.188   8.965 -0.9508  1.2279  0.6592
  593MOL0     H79999   3.826   3.342   8.939  0.7816  0.7927 -3.3937
  593MOL0     H80000   3.869   3.278   8.716  0.1805  1.1679  0.5668
  593MOL0     H80001   3.777   3.134   8.727  1.9830  1.2269 -1.4285
  593MOL0     H80002   3.575   3.299   8.799  1.8485  2.3795  3.6065
  593MOL0     H80003   3.672   3.431   8.773  0.1334  0.0130  1.6717
  593MOL0     H80004   3.546   3.393   8.572 -0.0057 -1.2374 -0.7643
  593MOL0     H80005   3.637   3.243   8.542 -1.3248 -0.1756  0.2744
  593MOL0     H80006   3.694   3.630   8.534  2.4401  2.9362  0.4546
  593MOL0     H80007   4.044   3.706   8.471  1.0528 -4.6239 -2.6047
  593MOL0     H80008   3.966   3.729   8.316  2.3501  1.1406  0.4286
  593MOL0     H80009   3.853   3.807   8.596 -0.4156  3.0577  0.4680
  593MOL0     H80010   3.780   3.856   8.444  0.5272 -1.2848 -1.4861
  593MOL0     H80011   3.905   4.038   8.541  0.3933  1.7270 -3.0018
  593MOL0     H80012   3.976   4.009   8.398  1.2061 -0.3236 -0.8242
  593MOL0     H80013   4.140   4.049   8.582  0.9542  0.3390 -0.4206
  593MOL0     H80014   4.169   3.890   8.510  0.3390  0.3503 -0.5176
  593MOL0     H80015   3.996   3.917   8.958 -0.0463  1.0056  1.9108
  593MOL0     H80016   4.173   3.870   9.244 -0.2572 -1.2195  0.3503
  593MOL0     H80017   4.176   4.045   9.226 -1.3809  1.8193 -1.1070
  593MOL0     H80018   4.028   3.950   9.181  1.3153 -0.9388  0.5828
  593MOL0     H80019   4.622   3.771   9.215 -1.7064  1.6793 -3.8113
  593MOL0     H80020   4.849   3.714   9.317 -0.0651  1.5055  0.1099
  593MOL0     H80021   5.149   4.013   9.276  1.6719  0.7217 -0.5117
  593MOL0     H80022   5.248   3.876   9.336 -0.8625 -2.8785 -0.7003
  593MOL0     H80023   5.266   3.808   9.097 -0.5322 -0.8742  1.2836
  593MOL0     H80024   5.214   3.961   9.036  3.9080  0.4686 -2.1265
  593MOL0     H80025   5.451   3.958   9.217  1.4191  1.5601 -1.5839
  593MOL0     H80026   5.368   4.094   9.134  0.0537  0.3676  0.0702
  593MOL0     H80027   5.493   3.851   8.999  0.9940  0.2292  1.2633
  593MOL0     H80028   5.404   3.978   8.913 -0.0302 -0.0065  0.4833
  593MOL0     H80029   5.673   3.974   9.043 -1.3294 -0.1304  0.9063
  593MOL0     H80030   5.606   4.137   9.004  1.5965  0.8520 -3.7284
  593MOL0     H80031   5.654   3.916   8.803 -1.0053  0.4753  1.7376
  593MOL0     H80032   5.570   4.070   8.770 -1.1843  1.8754  0.8785
  593MOL0     H80033   5.742   4.216   8.837  0.4451  0.4043  1.2499
  593MOL0     H80034   5.779   4.107   8.698 -1.3387 -1.9217  0.1065
  593MOL0     H80035   5.887   4.067   8.977  2.0090  0.5621  0.7017
  593MOL0     H80036   5.966   4.154   8.851 -1.0149 -0.0135  1.4083
  593MOL0     H80037   5.008   4.053   9.089  0.0878 -0.6125 -1.6403
  593MOL0     H80038   4.768   4.119   9.051 -0.7391 -0.1663  0.9110
  593MOL0     H80039   4.482   3.908   8.877 -0.1895  2.8204 -0.8714
  593MOL0     H80040   4.328   3.883   8.690 -1.3232 -2.5817 -0.4865
  593MOL0     H80041   4.443   2.948   8.687  0.1602  0.1817 -1.8091
  593MOL0     H80042   4.674   2.948   8.594  0.9896 -3.0827  0.0566
  593MOL0     H80043   5.132   2.865   8.689  0.3605  0.4369  0.6564
  593MOL0     H80044   5.351   2.841   8.641 -1.0875  0.3462  1.8956
  593MOL0     H80045   5.611   2.891   8.587 -0.1218  1.0610  1.0260
  593MOL0     H80046   5.504   2.780   8.501 -1.8691  1.6144 -2.6187
  593MOL0     H80047   5.617   2.887   8.293 -0.8002  1.2366  1.0290
  593MOL0     H80048   5.664   2.737   8.371  0.0929  0.2491  2.1183
  593MOL0     H80049   5.864   2.827   8.389 -1.4785 -1.4303 -0.6369
  593MOL0     H80050   5.810   2.943   8.507  2.3978 -2.3594  0.0153
  593MOL0     H80051   5.762   3.103   8.359 -0.4961 -2.3308  3.1578
  593MOL0     H80052   5.786   3.004   8.205  0.9461 -0.5445  0.1160
  593MOL0     H80053   6.184   3.116   8.271 -0.2619 -0.7483 -0.9313
  593MOL0     H80054   5.339   3.176   8.370  1.1083  0.4387  0.4674
  593MOL0     H80055   5.084   3.185   8.423 -1.4304 -1.6789  0.7971
  594MOL0     O80056   7.687   5.348  10.703 -0.3531 -0.6149  0.0259
  594MOL0     C80057   7.766   5.336  10.614 -0.2088  0.1126  0.0363
  594MOL0     O80058   7.738   5.336  10.479 -0.1098  0.0799 -0.1271
  594MOL0     C80059   7.614   5.375  10.452  0.5571  0.2025  0.9721
  594MOL0     C80060   7.577   5.516  10.447 -0.1842 -0.0913  0.0378
  594MOL0     C80061   7.445   5.554  10.412 -0.6344  0.3071  0.8059
  594MOL0     C80062   7.343   5.459  10.396  0.6766  0.2224  0.0569
  594MOL0     O80063   7.215   5.504  10.384 -1.3709 -0.7915  0.4298
  594MOL0     C80064   7.106   5.432  10.438  0.1337  0.3832  0.3024
  594MOL0     C80065   6.970   5.505  10.422 -0.3957  0.1855 -0.2098
  594MOL0     C80066   6.922   5.494  10.281 -0.6502  0.3671  0.4051
  594MOL0     C80067   6.814   5.603  10.240 -0.3138  0.4509 -0.4457
  594MOL0     C80068   6.683   5.605  10.325 -0.0705 -0.5892  0.1363
  594MOL0     C80069   6.595   5.480  10.296 -0.1065 -0.6426 -0.4146
  594MOL0     C80070   6.459   5.498  10.364  0.0295 -1.2580  0.6488
  594MOL0     C80071   6.392   5.369  10.326 -0.3736  0.2493 -0.2528
  594MOL0     N80072   6.326   5.373  10.196  0.0247 -0.4623  0.6564
  594MOL0     C80073   6.237   5.473  10.154 -0.1627 -0.3530  0.7637
  594MOL0     C80074   6.195   5.430  10.031  0.4615  0.1871 -0.1016
  594MOL0     C80075   6.113   5.491   9.917  0.2160 -0.5489 -0.2711
  594MOL0     C80076   5.982   5.425   9.875  0.2016  0.4391 -0.1930
  594MOL0     C80077   6.004   5.319   9.761  0.8009 -0.1575 -0.3853
  594MOL0     C80078   5.890   5.209   9.771 -0.3531 -0.0714 -0.3699
  594MOL0     O80079   5.766   5.276   9.750  0.2600  0.2797  0.1252
  594MOL0     C80080   5.658   5.210   9.706  0.2301  0.0863 -0.4081
  594MOL0     C80081   5.660   5.073   9.667  0.4380 -0.1514 -0.0696
  594MOL0     C80082   5.538   5.011   9.626 -0.7728  0.2253 -0.3524
  594MOL0     C80083   5.556   4.865   9.573  0.6193  0.2039  0.0644
  594MOL0     C80084   5.409   5.078   9.642 -0.6812 -0.1579 -0.5323
  594MOL0     C80085   5.280   5.014   9.622  0.0024 -0.2497  0.1216
  594MOL0     O80086   5.179   5.092   9.560  0.4417  0.8406  0.2602
  594MOL0     C80087   5.057   5.029   9.560 -0.7916 -0.2755 -0.0831
  594MOL0     C80088   4.979   5.049   9.674 -0.2798 -0.2247 -0.2678
  594MOL0     C80089   4.842   4.999   9.681 -1.0336  0.3953 -0.5676
  594MOL0     C80090   4.796   4.928   9.567  0.1665 -0.2998 -0.0914
  594MOL0     O80091   4.671   4.873   9.551 -0.1566 -0.0640  0.2514
  594MOL0     C80092   4.579   4.892   9.660  0.6560 -0.1008 -0.0943
  594MOL0     C80093   4.515   5.039   9.678 -1.1112  0.8463 -0.6034
  594MOL0     C80094   4.381   5.028   9.763 -0.4526  0.0182  0.5527
  594MOL0     C80095   4.293   5.147   9.726  0.4863  0.2009 -0.6677
  594MOL0     C80096   4.149   5.098   9.743  0.4598  0.2388 -0.6590
  594MOL0     C80097   4.112   5.088   9.897  0.7089  0.4671 -0.5426
  594MOL0     C80098   3.970   5.046   9.899  0.2076  0.1985 -0.2132
  594MOL0     C80099   3.913   5.052  10.039  0.4778 -0.2854 -0.5684
  594MOL0    Cl80100   3.957   4.913  10.143  0.2913 -0.2453 -0.0590
  594MOL0     C80101   4.881   4.916   9.455  0.3615 -0.0555 -0.4220
  594MOL0     C80102   5.002   4.970   9.454  0.0139 -0.5700  0.4337
  594MOL0     O80103   5.264   4.904   9.674  0.4528  0.8226 -0.0035
  594MOL0     C80104   5.420   5.212   9.671  0.0726 -0.3914 -0.5746
  594MOL0     C80105   5.533   5.271   9.710 -0.0368  0.5687  0.6850
  594MOL0     N80106   6.255   5.306  10.006  0.5187 -0.4306 -0.1598
  594MOL0     N80107   6.345   5.283  10.096 -0.6173 -0.1571 -0.2072
  594MOL0     C80108   7.382   5.326  10.394 -0.4005  0.0400 -0.5520
  594MOL0     C80109   7.517   5.288  10.408 -0.3670  0.0344 -0.5782
  594MOL0     C80110   7.906   5.352  10.646 -0.9770  1.1946 -0.1552
  594MOL0     C80111   7.982   5.447  10.573  0.9036  0.0032 -0.3846
  594MOL0     C80112   8.112   5.477  10.601 -0.4849 -0.2058  0.5625
  594MOL0     C80113   8.181   5.415  10.705 -0.2916  0.2818 -0.8787
  594MOL0     O80114   8.316   5.433  10.729  0.5244 -0.0771  0.1590
  594MOL0     C80115   8.393   5.499  10.624 -0.4981  0.5823 -0.9005
  594MOL0     C80116   8.541   5.452  10.620  0.5056  0.3684  0.0752
  594MOL0     C80117   8.619   5.561  10.557 -0.6543 -0.9533  0.0064
  594MOL0     C80118   8.761   5.502  10.521 -0.3742 -0.2794 -0.7797
  594MOL0     C80119   8.752   5.385  10.432  0.6524  1.0982  0.7850
  594MOL0     C80120   8.731   5.288  10.364  0.5271 -0.0057  0.4190
  594MOL0     C80121   8.107   5.322  10.783 -0.2155  0.2691  0.9090
  594MOL0     C80122   7.978   5.292  10.753 -0.3443 -0.6526 -0.1400
  594MOL0     H80123   7.661   5.582  10.465  0.2697  0.2316 -2.8071
  594MOL0     H80124   7.410   5.656  10.394  0.2496  0.1842 -2.1222
  594MOL0     H80125   7.104   5.326  10.415  1.0196  0.3704  0.2423
  594MOL0     H80126   7.120   5.435  10.547 -0.8168  0.9091  0.4210
  594MOL0     H80127   6.893   5.451  10.478  1.2271 -0.8543  1.1222
  594MOL0     H80128   6.968   5.611  10.448  3.2461  0.1321  0.8769
  594MOL0     H80129   7.010   5.494  10.216 -0.7789 -3.5653 -0.0165
  594MOL0     H80130   6.879   5.395  10.265  1.4308 -0.0898 -3.8309
  594MOL0     H80131   6.862   5.700  10.228 -1.2783  0.6394 -3.6342
  594MOL0     H80132   6.780   5.579  10.139 -0.9671 -0.6596  0.0169
  594MOL0     H80133   6.716   5.610  10.429  0.1294 -2.1077  0.1684
  594MOL0     H80134   6.619   5.692  10.305  0.4145 -0.0677  0.8229
  594MOL0     H80135   6.583   5.460  10.189 -1.0745 -1.2191 -0.2104
  594MOL0     H80136   6.655   5.398  10.336 -1.2160 -0.6980  1.2112
  594MOL0     H80137   6.482   5.511  10.470 -3.1214 -1.3629  1.4457
  594MOL0     H80138   6.397   5.581  10.329  0.0802 -1.5210 -0.0860
  594MOL0     H80139   6.329   5.349  10.413 -0.1284  0.0494 -0.1212
  594MOL0     H80140   6.467   5.290  10.324 -0.8666 -0.2114 -0.6747
  594MOL0     H80141   6.218   5.568  10.202 -0.0060 -0.7292  1.5963
  594MOL0     H80142   6.089   5.591   9.954 -1.2652 -1.7019  2.1382
  594MOL0     H80143   6.181   5.497   9.831 -1.5460  0.2050 -1.6659
  594MOL0     H80144   5.924   5.511   9.839 -0.4947 -0.8357 -2.2630
  594MOL0     H80145   5.923   5.388   9.959 -0.6192  0.3626 -0.7876
  594MOL0     H80146   6.103   5.273   9.770 -0.0531 -1.7351  2.2320
  594MOL0     H80147   6.008   5.369   9.664  2.8713  1.6546  0.5698
  594MOL0     H80148   5.892   5.146   9.861  0.4861 -0.1995 -0.4685
  594MOL0     H80149   5.912   5.150   9.682  0.7400  0.2641 -0.3365
  594MOL0     H80150   5.756   5.022   9.654 -0.6873 -2.2091 -0.7667
  594MOL0     H80151   5.511   4.803   9.651  0.1313 -0.6701 -0.8811
  594MOL0     H80152   5.488   4.859   9.487 -1.0953  1.4762  1.2517
  594MOL0     H80153   5.661   4.841   9.557  0.3157 -0.2929 -1.3155
  594MOL0     H80154   5.025   5.110   9.751  1.3556 -4.2541  2.2946
  594MOL0     H80155   4.789   5.022   9.773 -2.2040  2.6174 -1.7262
  594MOL0     H80156   4.499   4.822   9.638  0.2517  0.1134  0.6495
  594MOL0     H80157   4.632   4.869   9.753 -0.4412  0.0619  0.5805
  594MOL0     H80158   4.584   5.096   9.740 -2.7304  0.4405  1.6567
  594MOL0     H80159   4.506   5.089   9.581  1.1344 -0.3869 -1.5335
  594MOL0     H80160   4.406   5.025   9.870 -1.4486 -1.2511  0.7827
  594MOL0     H80161   4.329   4.934   9.741  0.0235  0.2071 -1.6080
  594MOL0     H80162   4.324   5.223   9.799 -0.0729 -0.1759 -0.0351
  594MOL0     H80163   4.301   5.175   9.621  0.6183 -0.5389 -0.8588
  594MOL0     H80164   4.145   5.002   9.690  4.1962  0.2713 -1.2250
  594MOL0     H80165   4.082   5.169   9.693  2.0603  1.4272 -1.1996
  594MOL0     H80166   4.176   5.026   9.961 -0.6708 -1.7792 -1.2415
  594MOL0     H80167   4.126   5.189   9.939  2.3220  0.1614 -0.2711
  594MOL0     H80168   3.969   4.943   9.864  4.1557 -0.1110  0.0992
  594MOL0     H80169   3.915   5.119   9.839 -0.5408 -0.6112 -0.5238
  594MOL0     H80170   3.804   5.061  10.028  0.3630  0.1874  0.8365
  594MOL0     H80171   3.946   5.139  10.097 -0.7720 -1.6213  2.3348
  594MOL0     H80172   4.843   4.885   9.358  2.5559  2.2227 -2.1324
  594MOL0     H80173   5.059   4.973   9.361 -0.3796  1.2114  0.2267
  594MOL0     H80174   5.326   5.266   9.670 -0.5785 -1.4752  0.1444
  594MOL0     H80175   5.539   5.378   9.730  0.9718  0.1731  2.8582
  594MOL0     H80176   7.305   5.251  10.386  0.2152 -0.6801  0.1153
  594MOL0     H80177   7.547   5.184  10.400  0.3584  0.2657 -0.9122
  594MOL0     H80178   7.935   5.493  10.487 -1.6415  0.2594  1.0642
  594MOL0     H80179   8.153   5.550  10.532  0.7427  0.3301  1.8135
  594MOL0     H80180   8.353   5.479  10.524  0.2419  2.2691 -1.5783
  594MOL0     H80181   8.378   5.607  10.631 -1.9983  0.6578 -3.6854
  594MOL0     H80182   8.546   5.362  10.558 -0.6675  0.4480 -0.1599
  594MOL0     H80183   8.578   5.449  10.723 -1.6799  1.5371  0.9598
  594MOL0     H80184   8.644   5.643  10.625 -2.0561 -1.0828  0.6996
  594MOL0     H80185   8.571   5.600  10.466 -0.0853  1.1365  0.5312
  594MOL0     H80186   8.819   5.485  10.612  1.8135 -0.7100 -2.1771
  594MOL0     H80187   8.819   5.573  10.463  0.5734  0.8502  1.4320
  594MOL0     H80188   8.732   5.215  10.285  1.6017  1.0040 -0.5470
  594MOL0     H80189   8.147   5.277  10.874  0.3046 -3.3866 -0.9277
  594MOL0     H80190   7.917   5.252  10.834  3.2248  0.4164  3.3715
  595MOL0     O80191   7.242   2.055   8.484 -0.4456 -0.2738  0.4434
  595MOL0     C80192   7.303   1.970   8.409 -0.0190 -0.5298  0.1178
  595MOL0     O80193   7.243   1.865   8.349 -0.0017 -0.0871  0.0639
  595MOL0     C80194   7.106   1.870   8.334 -0.0411  0.5814 -0.1015
  595MOL0     C80195   7.044   1.962   8.254  0.1095 -0.1781  0.5178
  595MOL0     C80196   6.901   1.969   8.245 -0.3392  0.1836  0.6265
  595MOL0     C80197   6.829   1.884   8.327  0.4945  0.3786  0.2301
  595MOL0     O80198   6.690   1.909   8.331 -0.0990 -0.0967 -0.6132
  595MOL0     C80199   6.609   1.796   8.364  0.1615 -0.3759 -0.3392
  595MOL0     C80200   6.471   1.849   8.400 -0.8300  0.1373 -0.3082
  595MOL0     C80201   6.351   1.753   8.406  0.5747 -0.1210  0.3883
  595MOL0     C80202   6.305   1.673   8.282 -0.2533  0.2558 -0.3635
  595MOL0     C80203   6.217   1.556   8.321  0.5225  0.6731  0.5842
  595MOL0     C80204   6.149   1.523   8.184  0.0344  0.2407 -0.7181
  595MOL0     C80205   6.044   1.421   8.211  0.1055 -0.4515  0.7113
  595MOL0     C80206   5.988   1.372   8.073  0.4534 -0.0388  0.3376
  595MOL0     N80207   5.900   1.257   8.091 -0.0226 -1.1602  1.8496
  595MOL0     C80208   5.767   1.265   8.075  0.2926  0.8275  0.5711
  595MOL0     C80209   5.725   1.142   8.105 -0.4556  0.6604  0.3423
  595MOL0     C80210   5.591   1.082   8.112  0.3883 -0.0155  0.2828
  595MOL0     C80211   5.578   0.961   8.036  0.5642  0.0237 -0.3056
  595MOL0     C80212   5.613   0.955   7.888  0.5468 -0.0472 -0.2794
  595MOL0     C80213   5.731   0.852   7.866 -0.0666 -0.9624 -0.3158
  595MOL0     O80214   5.758   0.841   7.724  0.2613 -0.0592 -0.1145
  595MOL0     C80215   5.655   0.788   7.655  0.2349 -0.3492  1.0471
  595MOL0     C80216   5.582   0.680   7.693 -0.4214  0.3234 -0.7862
  595MOL0     C80217   5.471   0.634   7.626  0.6696 -0.9520  0.3183
  595MOL0     C80218   5.406   0.504   7.679 -0.1786  0.3793 -0.0265
  595MOL0     C80219   5.425   0.713   7.515 -0.6325 -0.3995 -0.0661
  595MOL0     C80220   5.294   0.691   7.439  0.3061 -0.0817  0.2042
  595MOL0     O80221   5.258   0.788   7.353 -0.2112 -0.5949 -0.3093
  595MOL0     C80222   5.128   0.786   7.299 -0.2367  0.1945  0.8909
  595MOL0     C80223   5.096   0.679   7.215  0.4341 -0.7679  0.3003
  595MOL0     C80224   4.958   0.668   7.168 -0.5564 -0.0561 -0.1816
  595MOL0     C80225   4.867   0.766   7.199  0.1529  0.1965 -0.0005
  595MOL0     O80226   4.729   0.769   7.155 -0.0260  0.3549 -1.3322
  595MOL0     C80227   4.696   0.684   7.046 -0.0585  0.2583  0.2418
  595MOL0     C80228   4.546   0.686   7.019 -0.1102  0.3233  0.5561
  595MOL0     C80229   4.499   0.591   6.911  0.0075 -0.5037  0.6666
  595MOL0     C80230   4.348   0.547   6.927  0.2519 -0.0351  0.5304
  595MOL0     C80231   4.256   0.667   6.887  0.1874 -0.1562  0.8362
  595MOL0     C80232   4.113   0.615   6.890  0.2999  0.3799  0.2640
  595MOL0     C80233   4.014   0.726   6.853  0.0590 -0.7442  0.6489
  595MOL0     C80234   3.870   0.676   6.822 -0.1576  0.9573 -0.6804
  595MOL0    Cl80235   3.772   0.806   6.745  0.5175 -0.1204 -0.5136
  595MOL0     C80236   4.908   0.878   7.279 -0.0653  0.5743 -0.9450
  595MOL0     C80237   5.034   0.889   7.324  0.4901 -0.2612 -0.9361
  595MOL0     O80238   5.220   0.594   7.478  0.3223  0.7068  0.6263
  595MOL0     C80239   5.506   0.821   7.470  0.1875  0.2149  0.0288
  595MOL0     C80240   5.620   0.857   7.539 -0.0280  0.1479  0.2121
  595MOL0     N80241   5.834   1.065   8.143 -0.6276 -0.0154 -0.4920
  595MOL0     N80242   5.941   1.134   8.127  0.1131  0.6122 -0.2463
  595MOL0     C80243   6.890   1.794   8.405 -0.0221  0.2977 -0.6172
  595MOL0     C80244   7.030   1.786   8.411 -0.4115 -0.6914  0.2296
  595MOL0     C80245   7.450   1.973   8.405 -0.1724 -0.8913  0.2640
  595MOL0     C80246   7.523   2.039   8.504  0.3202  0.5001 -0.3148
  595MOL0     C80247   7.664   2.036   8.501  0.0381  0.2192 -0.1782
  595MOL0     C80248   7.725   1.974   8.388 -0.1962  0.1731  0.7736
  595MOL0     O80249   7.863   1.970   8.375  0.0277  0.3098  0.2247
  595MOL0     C80250   7.939   1.858   8.409 -0.1281  0.1465 -0.2818
  595MOL0     C80251   7.967   1.846   8.558 -0.1238  0.1344  0.2681
  595MOL0     C80252   8.037   1.971   8.621  0.0726  0.7476 -0.5519
  595MOL0     C80253   8.103   1.934   8.755  0.2194 -0.1098 -0.2669
  595MOL0     C80254   8.156   2.049   8.822 -0.4633  0.0601 -0.1081
  595MOL0     C80255   8.206   2.133   8.882 -0.3361 -0.5778 -0.4719
  595MOL0     C80256   7.650   1.901   8.294  1.3314  0.2313  0.2878
  595MOL0     C80257   7.512   1.903   8.299  0.5737  1.4909  0.3239
  595MOL0     H80258   7.093   2.045   8.204 -1.7906  3.9313  4.6251
  595MOL0     H80259   6.844   2.043   8.190 -4.1871 -2.0941  1.2189
  595MOL0     H80260   6.596   1.725   8.282 -2.1275 -2.8527  1.9703
  595MOL0     H80261   6.639   1.752   8.459  0.3612  0.9560  0.2435
  595MOL0     H80262   6.483   1.909   8.491 -0.1116 -0.5570  0.0763
  595MOL0     H80263   6.442   1.918   8.322  0.5639 -0.4041 -1.3549
  595MOL0     H80264   6.377   1.684   8.487 -2.3920 -1.3557  0.4031
  595MOL0     H80265   6.259   1.809   8.421  0.8409  0.5672 -0.4526
  595MOL0     H80266   6.256   1.750   8.223 -0.4714 -0.6260 -1.3706
  595MOL0     H80267   6.397   1.644   8.230  1.7182  3.1597  1.1821
  595MOL0     H80268   6.278   1.472   8.356 -0.3253  0.4617  1.6026
  595MOL0     H80269   6.139   1.583   8.393 -1.3244 -3.1988  0.3103
  595MOL0     H80270   6.093   1.613   8.157  0.8860  1.4067  1.1959
  595MOL0     H80271   6.217   1.496   8.102  2.4630  1.0145  0.9574
  595MOL0     H80272   6.094   1.345   8.271 -1.7777 -0.7941  1.9412
  595MOL0     H80273   5.964   1.462   8.273 -0.8125 -2.1334  0.7111
  595MOL0     H80274   6.072   1.337   8.013  1.3237  3.0942 -0.4925
  595MOL0     H80275   5.932   1.452   8.024 -0.8435  0.5987  2.6631
  595MOL0     H80276   5.703   1.352   8.064 -1.5871 -0.5862 -0.0429
  595MOL0     H80277   5.559   1.074   8.216 -1.3546 -0.1472 -0.2218
  595MOL0     H80278   5.515   1.148   8.069 -1.5413 -2.9493 -1.1529
  595MOL0     H80279   5.473   0.933   8.035  1.0193 -2.0070  1.2878
  595MOL0     H80280   5.620   0.872   8.084  0.4402 -0.8921 -1.8200
  595MOL0     H80281   5.652   1.052   7.853  3.6838 -1.3567 -0.7618
  595MOL0     H80282   5.521   0.929   7.836  0.2559 -0.2431  0.3317
  595MOL0     H80283   5.720   0.755   7.914  2.8378 -0.7100  1.0505
  595MOL0     H80284   5.821   0.892   7.915 -0.9252 -1.1473  1.5050
  595MOL0     H80285   5.617   0.636   7.786 -1.7844 -2.2474 -1.4063
  595MOL0     H80286   5.485   0.441   7.721 -0.4887  0.6938  1.0618
  595MOL0     H80287   5.321   0.517   7.746 -2.4060 -0.5399 -2.4633
  595MOL0     H80288   5.368   0.449   7.592 -1.2517  1.1186 -0.0479
  595MOL0     H80289   5.176   0.611   7.187 -0.8846 -2.9970  1.6575
  595MOL0     H80290   4.934   0.578   7.113  1.1076 -0.7092  0.0914
  595MOL0     H80291   4.761   0.703   6.961  1.1248 -3.5935  0.0898
  595MOL0     H80292   4.716   0.579   7.068 -2.5724 -0.7407 -1.7009
  595MOL0     H80293   4.487   0.660   7.108  0.3089  3.8794  2.0189
  595MOL0     H80294   4.515   0.788   6.992 -0.8539 -0.6937 -3.0243
  595MOL0     H80295   4.567   0.506   6.909 -0.4398 -0.8690  0.7281
  595MOL0     H80296   4.512   0.648   6.818  3.3778 -0.6605  0.9202
  595MOL0     H80297   4.325   0.471   6.851 -1.6697  0.8173  0.1918
  595MOL0     H80298   4.324   0.506   7.025 -2.4942  0.9098  0.3322
  595MOL0     H80299   4.291   0.705   6.791 -0.3955  2.7063  1.6585
  595MOL0     H80300   4.268   0.751   6.956 -1.1415  1.0269 -0.3145
  595MOL0     H80301   4.112   0.529   6.823  0.1724  2.6649 -2.8990
  595MOL0     H80302   4.092   0.576   6.989  0.7893 -0.2674  0.1202
  595MOL0     H80303   4.054   0.789   6.773 -0.2725 -0.5479  0.6337
  595MOL0     H80304   4.004   0.798   6.935  0.3061  3.1754 -2.4340
  595MOL0     H80305   3.807   0.642   6.905 -3.7234  1.5980 -2.9049
  595MOL0     H80306   3.876   0.605   6.739  1.5902 -0.3393  0.4647
  595MOL0     H80307   4.836   0.959   7.291 -2.6244 -1.7492  0.6174
  595MOL0     H80308   5.073   0.972   7.382 -1.2311 -1.5064  2.2646
  595MOL0     H80309   5.473   0.884   7.388 -0.8626  1.2308  1.2034
  595MOL0     H80310   5.678   0.940   7.499 -2.2426 -0.2278 -4.5267
  595MOL0     H80311   6.837   1.733   8.478  0.4565  1.9309  1.1917
  595MOL0     H80312   7.085   1.723   8.480 -0.0463  0.0480  0.6271
  595MOL0     H80313   7.473   2.089   8.586  3.0378  3.0737 -0.0679
  595MOL0     H80314   7.719   2.068   8.588 -0.6595  0.4626  0.1787
  595MOL0     H80315   7.883   1.768   8.378  2.1582 -1.8636  1.0639
  595MOL0     H80316   8.037   1.865   8.362  1.3752  0.5093  2.7262
  595MOL0     H80317   8.041   1.766   8.573 -1.3082 -0.6315  2.4377
  595MOL0     H80318   7.871   1.818   8.603 -2.1837 -0.8223 -4.1162
  595MOL0     H80319   7.965   2.050   8.644  1.1427  1.1458  1.7720
  595MOL0     H80320   8.111   2.001   8.546  1.0348  1.1022  0.4948
  595MOL0     H80321   8.194   1.877   8.732  0.6144 -0.1247  1.2233
  595MOL0     H80322   8.043   1.886   8.833 -0.1459  1.7252  0.6467
  595MOL0     H80323   8.241   2.211   8.946  3.8206 -3.7825  1.6664
  595MOL0     H80324   7.700   1.839   8.220 -1.0825 -2.5937  0.8257
  595MOL0     H80325   7.447   1.843   8.237 -0.7405 -0.3675  3.2875
  596MOL0     O80326   1.062   0.180   9.044 -0.4325  0.2728 -1.0946
  596MOL0     C80327   1.089   0.253   9.138 -0.2730 -0.5608 -0.0672
  596MOL0     O80328   0.996   0.325   9.211  0.0985 -0.4236  0.5903
  596MOL0     C80329   0.859   0.314   9.166  0.4065 -0.7725  0.7364
  596MOL0     C80330   0.793   0.205   9.122 -0.3147  0.0715  0.3074
  596MOL0     C80331   0.660   0.214   9.083  0.7675 -0.5345 -0.2420
  596MOL0     C80332   0.577   0.326   9.109 -0.2001 -0.7346  0.1166
  596MOL0     O80333   0.444   0.324   9.083 -0.3334  0.4283 -0.2381
  596MOL0     C80334   0.408   0.247   8.965 -0.3402  0.5928 -0.6405
  596MOL0     C80335   0.268   0.290   8.934 -0.4658 -0.8604 -0.6391
  596MOL0     C80336   0.255   0.441   8.892 -0.3087 -0.1161  0.3272
  596MOL0     C80337   0.363   0.499   8.801 -1.1912 -0.1760  0.4075
  596MOL0     C80338   0.318   0.629   8.759  0.2144  0.0097  0.4153
  596MOL0     C80339   0.410   0.686   8.651 -0.3414  0.4232  1.1759
  596MOL0     C80340   0.367   0.824   8.606  0.6782  0.6308 -0.7011
  596MOL0     C80341   0.468   0.880   8.513 -0.4754 -0.7776 -0.4559
  596MOL0     N80342   0.438   1.009   8.462  0.0631 -0.1131 -0.8591
  596MOL0     C80343   0.339   1.050   8.378  0.2554  0.6076  0.3320
  596MOL0     C80344   0.353   1.184   8.364  0.1083 -0.3829 -0.5006
  596MOL0     C80345   0.253   1.273   8.291  0.1565 -0.1579  0.2455
  596MOL0     C80346   0.109   1.276   8.349  0.8321  0.3747  0.7807
  596MOL0     C80347   0.029   1.368   8.265 -0.7033  0.7508  0.8756
  596MOL0     C80348  -0.116   1.377   8.312 -0.5247  0.6467  0.5058
  596MOL0     O80349  -0.181   1.252   8.279 -0.2897  0.8448  0.4089
  596MOL0     C80350  -0.303   1.213   8.332 -0.7355 -1.0482 -0.2060
  596MOL0     C80351  -0.368   1.302   8.417 -0.0396 -0.3750 -0.1833
  596MOL0     C80352  -0.490   1.268   8.472 -0.1267  0.0072 -0.1910
  596MOL0     C80353  -0.557   1.361   8.578 -0.5225 -0.6876  0.6614
  596MOL0     C80354  -0.552   1.144   8.434  0.0286  0.1666 -0.2066
  596MOL0     C80355  -0.682   1.089   8.477  0.2628 -0.0557 -0.1655
  596MOL0     O80356  -0.715   0.962   8.427 -0.1398 -0.4167 -0.0604
  596MOL0     C80357  -0.809   0.900   8.499  0.1446  0.1790 -0.8633
  596MOL0     C80358  -0.791   0.868   8.639 -0.1128 -0.1007 -0.2989
  596MOL0     C80359  -0.896   0.809   8.706  0.2095  0.0709 -0.5533
  596MOL0     C80360  -1.025   0.804   8.647  0.8742 -0.1265  0.0599
  596MOL0     O80361  -1.136   0.754   8.716 -0.4559  0.2336 -0.3808
  596MOL0     C80362  -1.121   0.736   8.862 -0.5815  0.0511 -0.1077
  596MOL0     C80363  -1.252   0.782   8.927 -0.1458  0.3988  0.0406
  596MOL0     C80364  -1.382   0.719   8.861  0.8148  0.3631  0.2268
  596MOL0     C80365  -1.388   0.570   8.862 -0.3548 -0.9146 -0.9063
  596MOL0     C80366  -1.520   0.540   8.804  0.0445  0.8585 -0.0171
  596MOL0     C80367  -1.537   0.383   8.799  0.3542  0.1217  0.3669
  596MOL0     C80368  -1.666   0.349   8.734  0.6637 -0.3923  0.1874
  596MOL0     C80369  -1.674   0.197   8.710  0.7422  0.3292 -0.5870
  596MOL0    Cl80370  -1.677   0.117   8.864 -0.2165  0.0272 -0.1792
  596MOL0     C80371  -1.035   0.835   8.512 -0.1378 -0.2415 -0.0485
  596MOL0     C80372  -0.926   0.881   8.439 -0.2779 -0.0394 -0.6019
  596MOL0     O80373  -0.759   1.166   8.538 -0.3754  0.2065 -0.7251
  596MOL0     C80374  -0.485   1.070   8.336  1.0953  0.4912  0.0602
  596MOL0     C80375  -0.359   1.101   8.291 -0.1627  0.2109 -1.1224
  596MOL0     N80376   0.472   1.222   8.422  0.0428  0.5847  0.6607
  596MOL0     N80377   0.515   1.113   8.488  0.3609 -0.1627 -0.1139
  596MOL0     C80378   0.632   0.436   9.179 -0.0131  0.0282  0.3650
  596MOL0     C80379   0.775   0.420   9.197  0.8705 -1.6623 -0.1530
  596MOL0     C80380   1.230   0.264   9.180 -0.3396  0.2651  0.1062
  596MOL0     C80381   1.268   0.330   9.300  0.6755  0.4556  0.3479
  596MOL0     C80382   1.400   0.338   9.341 -0.0520  0.0884 -0.4329
  596MOL0     C80383   1.501   0.304   9.250  0.0218 -0.2881  0.1054
  596MOL0     O80384   1.634   0.326   9.270 -0.0746  0.4358 -0.2928
  596MOL0     C80385   1.677   0.276   9.397 -0.0103  0.5926 -0.9716
  596MOL0     C80386   1.827   0.230   9.384  0.0125 -0.1691 -0.3509
  596MOL0     C80387   1.869   0.170   9.255  0.2923 -0.4034  0.1291
  596MOL0     C80388   1.810   0.040   9.236  0.2779 -0.2291  0.0633
  596MOL0     C80389   1.866  -0.066   9.325  0.3595 -1.0704  0.7120
  596MOL0     C80390   1.906  -0.130   9.410  0.2633  0.6524  0.5464
  596MOL0     C80391   1.466   0.240   9.130  0.6036 -0.6076  0.0309
  596MOL0     C80392   1.330   0.208   9.095  0.1501  0.0531 -0.6987
  596MOL0     H80393   0.836   0.108   9.101 -1.0225 -0.7429  2.3869
  596MOL0     H80394   0.614   0.125   9.040  0.6268 -0.7014  0.2435
  596MOL0     H80395   0.471   0.263   8.877  0.3508 -1.0968 -0.4808
  596MOL0     H80396   0.418   0.139   8.983  0.2198  0.8566  0.7367
  596MOL0     H80397   0.229   0.240   8.845  1.7241  0.0722 -2.2111
  596MOL0     H80398   0.207   0.266   9.022  3.2362 -2.8984  1.6472
  596MOL0     H80399   0.150   0.451   8.862 -1.3552  0.6764  3.8325
  596MOL0     H80400   0.266   0.492   8.988 -0.0401  2.0872 -0.7934
  596MOL0     H80401   0.451   0.512   8.865 -2.2526  1.5238  1.6157
  596MOL0     H80402   0.397   0.442   8.714  2.2612  1.2571  0.6841
  596MOL0     H80403   0.216   0.624   8.721  0.8597 -1.9243 -1.2514
  596MOL0     H80404   0.320   0.694   8.847  0.0432 -0.7395  0.9915
  596MOL0     H80405   0.513   0.684   8.688 -0.1370  0.2297  0.6063
  596MOL0     H80406   0.414   0.618   8.565  0.5610  1.5393  0.2969
  596MOL0     H80407   0.268   0.824   8.558 -0.8903 -0.7121  2.2924
  596MOL0     H80408   0.358   0.887   8.694 -0.8010  0.6001 -0.8107
  596MOL0     H80409   0.487   0.805   8.435  0.9953 -0.9753  0.0614
  596MOL0     H80410   0.561   0.892   8.569 -1.0840 -1.2143  0.6733
  596MOL0     H80411   0.253   0.992   8.346  0.4353  0.2574  0.4708
  596MOL0     H80412   0.286   1.377   8.301  2.5287 -0.8044 -0.1881
  596MOL0     H80413   0.251   1.249   8.184  0.5061  1.6308 -0.1836
  596MOL0     H80414   0.115   1.312   8.452 -0.7749 -0.7153  1.2863
  596MOL0     H80415   0.061   1.178   8.347  0.4727  0.4828 -2.8882
  596MOL0     H80416   0.047   1.345   8.160  0.6459 -1.0246  1.4460
  596MOL0     H80417   0.072   1.468   8.277  0.9521  0.4144 -1.5025
  596MOL0     H80418  -0.169   1.458   8.262 -0.4825  0.2314 -0.2198
  596MOL0     H80419  -0.109   1.399   8.419  0.6948 -0.7354  0.7402
  596MOL0     H80420  -0.328   1.398   8.446  1.2185 -1.2452  1.1080
  596MOL0     H80421  -0.574   1.297   8.665  2.3275 -1.6310  0.6419
  596MOL0     H80422  -0.489   1.442   8.605  1.5872 -2.3343  0.6179
  596MOL0     H80423  -0.646   1.408   8.538  2.4392  1.9328 -3.6526
  596MOL0     H80424  -0.704   0.894   8.698 -0.3263  1.1419 -0.5023
  596MOL0     H80425  -0.874   0.772   8.805  0.9917  0.6348 -0.5068
  596MOL0     H80426  -1.112   0.627   8.874 -1.2482 -0.2054 -1.6895
  596MOL0     H80427  -1.039   0.799   8.897 -2.6706  1.9945  1.5629
  596MOL0     H80428  -1.253   0.741   9.028 -1.6153 -3.1466 -1.2595
  596MOL0     H80429  -1.250   0.891   8.920  1.3264  0.2984 -2.8882
  596MOL0     H80430  -1.408   0.760   8.763 -0.9297 -2.2365 -0.5049
  596MOL0     H80431  -1.463   0.738   8.931  3.0794 -0.4399  3.3128
  596MOL0     H80432  -1.302   0.532   8.807  1.0949  1.7646 -0.6736
  596MOL0     H80433  -1.387   0.537   8.967 -3.0653 -1.5830 -1.0005
  596MOL0     H80434  -1.524   0.595   8.710  2.7715  4.0235  1.5338
  596MOL0     H80435  -1.592   0.577   8.878  0.3586 -1.8629  1.7948
  596MOL0     H80436  -1.454   0.338   8.743  1.0536  0.2264  1.3074
  596MOL0     H80437  -1.539   0.346   8.902  1.2353 -0.3843  0.2117
  596MOL0     H80438  -1.675   0.404   8.640 -0.7851 -0.5998  0.1677
  596MOL0     H80439  -1.745   0.383   8.802 -0.9168 -0.5322 -1.5054
  596MOL0     H80440  -1.587   0.155   8.659  0.7688 -1.2651  0.7245
  596MOL0     H80441  -1.769   0.163   8.668 -2.2682  0.6694  5.0001
  596MOL0     H80442  -1.124   0.823   8.450  1.3184 -1.7950 -1.9728
  596MOL0     H80443  -0.933   0.904   8.333 -3.2242 -0.2169 -0.5334
  596MOL0     H80444  -0.531   0.978   8.300 -0.1853  1.2309 -0.2438
  596MOL0     H80445  -0.324   1.036   8.211 -1.1095 -2.0975  0.2458
  596MOL0     H80446   0.568   0.516   9.215 -2.7581 -1.9250  0.1982
  596MOL0     H80447   0.824   0.504   9.244 -0.3699 -2.3625  2.5897
  596MOL0     H80448   1.192   0.374   9.365  2.8095  3.5629  0.9432
  596MOL0     H80449   1.435   0.382   9.434  3.5197  0.7776 -1.9611
  596MOL0     H80450   1.655   0.350   9.474 -2.5255 -0.0269 -1.0029
  596MOL0     H80451   1.625   0.184   9.424 -1.9174  2.4045  2.2486
  596MOL0     H80452   1.849   0.170   9.472 -1.8247  1.8245  1.5848
  596MOL0     H80453   1.895   0.316   9.386  0.5359 -0.5403  2.7558
  596MOL0     H80454   1.979   0.165   9.258  0.3421  0.8511  1.8335
  596MOL0     H80455   1.843   0.231   9.168 -1.5268  1.7356  2.0233
  596MOL0     H80456   1.826   0.007   9.133 -1.9043 -3.2218  0.5205
  596MOL0     H80457   1.702   0.042   9.255  0.2428 -1.0591  0.0109
  596MOL0     H80458   1.962  -0.193   9.476  0.0979 -0.5670 -0.4430
  596MOL0     H80459   1.541   0.198   9.064 -0.6889 -0.1083 -1.8424
  596MOL0     H80460   1.313   0.134   9.017 -2.3014  1.8175 -1.9672
  597MOL0     O80461   2.954   1.754   6.748  1.0552  0.1576 -0.1754
  597MOL0     C80462   2.984   1.666   6.664 -0.0039 -0.2935  0.4103
  597MOL0     O80463   2.919   1.648   6.547 -0.2654 -0.0493 -0.0779
  597MOL0     C80464   2.815   1.731   6.537  0.0030  1.3147 -1.2793
  597MOL0     C80465   2.683   1.686   6.530 -0.2362  0.8586  0.5029
  597MOL0     C80466   2.573   1.772   6.521  0.3735  0.0771  0.1107
  597MOL0     C80467   2.599   1.915   6.534  1.2042 -0.2526 -0.2017
  597MOL0     O80468   2.503   2.013   6.544  0.0280  0.2982  0.8776
  597MOL0     C80469   2.366   1.990   6.511 -0.0767  0.1396  0.0339
  597MOL0     C80470   2.287   2.108   6.463 -0.7172 -0.7935  0.5391
  597MOL0     C80471   2.135   2.076   6.441 -0.0167 -0.1427  0.3976
  597MOL0     C80472   2.065   2.215   6.402  0.3466 -0.5874 -0.4392
  597MOL0     C80473   1.910   2.224   6.396 -0.2388  0.2312  0.3539
  597MOL0     C80474   1.835   2.122   6.308 -1.2192 -0.4874 -0.1910
  597MOL0     C80475   1.684   2.139   6.291  0.3948 -0.0237  0.6209
  597MOL0     C80476   1.627   2.266   6.207 -0.3145 -0.1376 -0.3726
  597MOL0     N80477   1.485   2.265   6.188  0.4142 -0.5032 -0.6287
  597MOL0     C80478   1.426   2.361   6.116  0.6704  0.8724  0.0793
  597MOL0     C80479   1.291   2.317   6.110  0.2200  0.4863 -0.0672
  597MOL0     C80480   1.162   2.369   6.053  0.0556 -0.7995 -0.0634
  597MOL0     C80481   1.146   2.518   6.074 -0.8667  0.1417 -1.1629
  597MOL0     C80482   1.083   2.563   6.208  0.0771  0.1614  0.1127
  597MOL0     C80483   0.953   2.492   6.247  0.0414  0.1050  0.2013
  597MOL0     O80484   0.974   2.360   6.309  0.2259 -0.3660 -0.6102
  597MOL0     C80485   0.863   2.290   6.355 -1.1291  0.4977 -0.2729
  597MOL0     C80486   0.738   2.350   6.360  0.2295 -0.0717 -0.1258
  597MOL0     C80487   0.639   2.277   6.417 -0.7283  0.4610  0.4610
  597MOL0     C80488   0.505   2.350   6.438  1.3617  0.5217  0.9213
  597MOL0     C80489   0.655   2.142   6.458 -0.6952 -0.0743 -0.4502
  597MOL0     C80490   0.542   2.062   6.516  0.2506  1.3187 -0.3419
  597MOL0     O80491   0.459   2.115   6.620  0.9418  0.6601  0.9546
  597MOL0     C80492   0.324   2.080   6.632 -0.4876  0.3420 -0.2346
  597MOL0     C80493   0.243   2.058   6.521 -0.7968  0.2772 -0.0417
  597MOL0     C80494   0.110   2.035   6.538 -0.1984  1.3272 -0.3886
  597MOL0     C80495   0.049   2.040   6.665  0.3620 -0.5677  0.6479
  597MOL0     O80496  -0.088   2.033   6.679 -0.3334 -0.2819  0.2645
  597MOL0     C80497  -0.147   2.109   6.791  0.3600  0.1482  0.6724
  597MOL0     C80498  -0.286   2.132   6.765  0.8234 -0.3847  1.1292
  597MOL0     C80499  -0.365   2.182   6.896 -0.5759 -0.2397  0.2850
  597MOL0     C80500  -0.485   2.254   6.852 -0.1722 -0.0351  0.9918
  597MOL0     C80501  -0.570   2.305   6.970  0.3326 -0.0439 -0.4830
  597MOL0     C80502  -0.609   2.452   6.948 -1.0408 -0.1895  0.2343
  597MOL0     C80503  -0.684   2.515   7.069 -0.4096  0.5173  0.0888
  597MOL0     C80504  -0.748   2.651   7.036 -0.3067  0.5647 -0.0389
  597MOL0    Cl80505  -0.833   2.732   7.176  0.2460 -0.0346  0.6070
  597MOL0     C80506   0.131   2.062   6.773  0.6891  0.3845  0.2982
  597MOL0     C80507   0.265   2.073   6.753 -0.5333 -0.2833 -0.4365
  597MOL0     O80508   0.528   1.945   6.470  0.9817  0.2165 -0.4912
  597MOL0     C80509   0.787   2.086   6.440  0.7995 -0.7942 -0.2772
  597MOL0     C80510   0.888   2.163   6.396  0.6808 -0.8333  0.3409
  597MOL0     N80511   1.276   2.208   6.198 -0.1931 -0.4118 -0.2885
  597MOL0     N80512   1.398   2.184   6.243  0.7431  0.1320 -0.3824
  597MOL0     C80513   2.731   1.956   6.518 -0.2298 -0.9976 -0.3724
  597MOL0     C80514   2.837   1.868   6.521 -0.1553 -0.0883 -0.1066
  597MOL0     C80515   3.091   1.576   6.694  0.4364  0.3170  0.0248
  597MOL0     C80516   3.102   1.449   6.630 -0.6493  0.7707 -0.5131
  597MOL0     C80517   3.217   1.368   6.653 -0.6560 -0.1733  0.8489
  597MOL0     C80518   3.324   1.408   6.746  0.9725 -0.7145  0.8235
  597MOL0     O80519   3.419   1.309   6.762  0.3407 -0.0951 -0.7988
  597MOL0     C80520   3.542   1.355   6.831 -0.3155 -0.0449  0.0754
  597MOL0     C80521   3.641   1.242   6.848  0.0558  0.8800 -0.2529
  597MOL0     C80522   3.759   1.288   6.932  0.9620 -0.3303 -0.1405
  597MOL0     C80523   3.868   1.178   6.963  0.3305 -0.9141 -0.2605
  597MOL0     C80524   3.843   1.075   7.066  0.0659  0.1321  0.5077
  597MOL0     C80525   3.785   0.996   7.132  0.7683  0.2739  0.5456
  597MOL0     C80526   3.311   1.535   6.803 -0.2361 -0.5210 -0.9460
  597MOL0     C80527   3.193   1.614   6.784 -0.3552 -0.8749  0.2381
  597MOL0     H80528   2.664   1.580   6.530  4.1692 -0.1235  0.0822
  597MOL0     H80529   2.477   1.723   6.518  1.0016 -1.1461 -1.2766
  597MOL0     H80530   2.354   1.918   6.430 -3.4677 -0.4335  0.9117
  597MOL0     H80531   2.326   1.936   6.598 -0.6882  2.9064  1.5737
  597MOL0     H80532   2.300   2.184   6.539 -1.3235  0.7182 -0.8082
  597MOL0     H80533   2.322   2.145   6.366  1.2622 -2.2463  0.6284
  597MOL0     H80534   2.123   2.009   6.356  3.3137  1.1487 -1.2793
  597MOL0     H80535   2.090   2.034   6.531  2.8007  0.0037  1.9772
  597MOL0     H80536   2.100   2.296   6.468 -0.6572 -1.6198  1.4356
  597MOL0     H80537   2.098   2.231   6.299  0.7095 -0.9792 -0.3858
  597MOL0     H80538   1.860   2.216   6.492 -1.7830  0.8108 -0.3763
  597MOL0     H80539   1.878   2.322   6.359  1.3523 -0.0514 -1.9762
  597MOL0     H80540   1.887   2.124   6.212 -1.7208  2.0700 -0.4754
  597MOL0     H80541   1.843   2.024   6.356 -0.4684  0.3151  1.3899
  597MOL0     H80542   1.644   2.051   6.240  1.3399  1.2961 -2.6915
  597MOL0     H80543   1.639   2.149   6.390 -2.2964 -1.1136 -0.3661
  597MOL0     H80544   1.669   2.266   6.106 -1.9825  4.0518 -1.2854
  597MOL0     H80545   1.650   2.357   6.263 -0.5453 -1.3393  1.7767
  597MOL0     H80546   1.470   2.449   6.069  2.1115  1.2567  1.9995
  597MOL0     H80547   1.170   2.354   5.944  1.6755  1.2020 -0.2742
  597MOL0     H80548   1.070   2.316   6.081  0.0544 -0.6878  0.1404
  597MOL0     H80549   1.083   2.567   6.000 -0.9577  2.0466  0.1059
  597MOL0     H80550   1.242   2.568   6.059 -0.4735 -1.0078 -2.7419
  597MOL0     H80551   1.058   2.669   6.193 -0.8285  0.1233  1.1927
  597MOL0     H80552   1.154   2.559   6.292 -0.8203  0.4722  0.9146
  597MOL0     H80553   0.900   2.468   6.155  0.9853 -1.2115 -0.0460
  597MOL0     H80554   0.900   2.566   6.307  1.1807  1.5091 -0.4458
  597MOL0     H80555   0.723   2.448   6.316 -0.6700 -1.0217 -2.0664
  597MOL0     H80556   0.512   2.452   6.399  1.8763 -0.2811 -1.2554
  597MOL0     H80557   0.430   2.294   6.382  3.1785 -0.7468 -0.3527
  597MOL0     H80558   0.481   2.355   6.545 -0.3261 -2.6634  0.8119
  597MOL0     H80559   0.273   2.068   6.417 -2.1074 -0.8215 -0.5496
  597MOL0     H80560   0.041   2.022   6.455  0.8230  0.6464 -1.1570
  597MOL0     H80561  -0.143   2.045   6.879  1.0377 -1.4499 -0.4581
  597MOL0     H80562  -0.097   2.206   6.800  0.2827  0.1478  1.0931
  597MOL0     H80563  -0.293   2.207   6.685 -2.3166  0.3275  1.9283
  597MOL0     H80564  -0.341   2.045   6.730  0.7209 -0.5772  1.7596
  597MOL0     H80565  -0.303   2.250   6.956 -2.9377  4.8572 -2.4277
  597MOL0     H80566  -0.392   2.105   6.969  1.7450  0.5383  2.0691
  597MOL0     H80567  -0.443   2.340   6.800 -1.0587  0.4673  1.0803
  597MOL0     H80568  -0.543   2.194   6.781 -1.0815  1.8415  0.0572
  597MOL0     H80569  -0.513   2.310   7.063 -0.4275 -0.5878  0.0261
  597MOL0     H80570  -0.654   2.239   6.995  2.1676 -2.2108  0.2375
  597MOL0     H80571  -0.519   2.512   6.931 -0.8682 -0.0707  1.4735
  597MOL0     H80572  -0.683   2.447   6.867 -0.9169 -0.2659  0.1258
  597MOL0     H80573  -0.618   2.532   7.154  0.0367  1.3277 -0.4019
  597MOL0     H80574  -0.763   2.444   7.095 -0.3196  1.1358  2.1746
  597MOL0     H80575  -0.823   2.627   6.960 -2.5580 -3.2502  2.9816
  597MOL0     H80576  -0.670   2.715   6.995  0.0060 -0.8629 -1.7636
  597MOL0     H80577   0.090   2.071   6.873  1.6753  0.8705  0.6743
  597MOL0     H80578   0.324   2.089   6.843  1.4169 -1.2481 -1.4844
  597MOL0     H80579   0.814   1.986   6.474  0.4148 -1.5230 -2.0150
  597MOL0     H80580   0.986   2.121   6.373 -0.7335 -4.2552 -0.0270
  597MOL0     H80581   2.746   2.063   6.512  2.2352 -1.3545 -2.5788
  597MOL0     H80582   2.939   1.903   6.528 -0.6451  1.3247  0.3047
  597MOL0     H80583   3.026   1.408   6.565  0.4727 -0.2518 -1.2162
  597MOL0     H80584   3.218   1.268   6.611  2.1405  0.5961 -1.2950
  597MOL0     H80585   3.593   1.434   6.776  1.2118 -2.0795 -1.5892
  597MOL0     H80586   3.510   1.394   6.929 -1.9500  1.8074 -1.1208
  597MOL0     H80587   3.677   1.208   6.750  1.0931  2.5705 -0.5015
  597MOL0     H80588   3.595   1.162   6.907  1.5695  0.8704  0.9803
  597MOL0     H80589   3.739   1.335   7.028  0.9711  0.3654 -0.4708
  597MOL0     H80590   3.808   1.366   6.874  1.6655  0.1933  1.1254
  597MOL0     H80591   3.955   1.221   7.014  0.3469 -2.4333  1.0744
  597MOL0     H80592   3.896   1.132   6.868 -0.6924  2.0767 -2.1376
  597MOL0     H80593   3.727   0.929   7.192 -1.3215  1.4995 -0.0094
  597MOL0     H80594   3.393   1.566   6.866  0.6727 -3.6309 -0.4153
  597MOL0     H80595   3.199   1.713   6.827 -1.8649 -0.4217 -0.5406
  598MOL0     O80596   6.237   7.899   6.878  0.1492  0.0509  0.4301
  598MOL0     C80597   6.207   7.960   6.774 -0.7789 -0.2403 -1.2242
  598MOL0     O80598   6.083   8.023   6.753  0.2735 -1.4255  0.0469
  598MOL0     C80599   6.011   8.045   6.862  0.3404  0.4828  0.5549
  598MOL0     C80600   6.050   8.106   6.980 -0.6289 -0.5071 -1.3614
  598MOL0     C80601   5.954   8.134   7.075 -0.0709 -0.0893  0.1447
  598MOL0     C80602   5.824   8.101   7.056  0.2839  0.2235 -0.6491
  598MOL0     O80603   5.741   8.142   7.162 -0.3031 -0.6982 -0.7089
  598MOL0     C80604   5.595   8.179   7.133 -0.3995  0.1445  0.1652
  598MOL0     C80605   5.542   8.233   7.259  1.0889  0.4052  0.4986
  598MOL0     C80606   5.406   8.261   7.232  1.1567  0.1685 -0.6436
  598MOL0     C80607   5.333   8.287   7.362  0.9462 -0.2752  0.2831
  598MOL0     C80608   5.195   8.360   7.345 -0.7665 -0.9426 -0.2933
  598MOL0     C80609   5.161   8.448   7.462  0.2559  0.1163  0.0367
  598MOL0     C80610   5.026   8.513   7.457 -0.8850  1.0345  0.2281
  598MOL0     C80611   4.999   8.569   7.318  0.4845 -0.0823  0.0903
  598MOL0     N80612   4.878   8.651   7.334  0.2736 -0.8092 -0.0192
  598MOL0     C80613   4.751   8.594   7.345 -0.1197  0.3020 -0.6564
  598MOL0     C80614   4.665   8.699   7.354 -0.2531  0.4557  0.2189
  598MOL0     C80615   4.515   8.706   7.343  0.0993 -0.6682 -0.7045
  598MOL0     C80616   4.465   8.694   7.197  0.5511  0.0146 -0.0797
  598MOL0     C80617   4.483   8.828   7.128 -0.3526 -0.8474  0.4771
  598MOL0     C80618   4.460   8.831   6.980  0.3669 -0.3485  0.2643
  598MOL0     O80619   4.321   8.813   6.951 -0.3856 -0.0001  0.8304
  598MOL0     C80620   4.221   8.903   6.975 -0.2141 -0.7500 -1.1619
  598MOL0     C80621   4.235   9.038   7.007 -0.2248 -0.0223  0.0029
  598MOL0     C80622   4.128   9.120   7.043  0.5875 -0.0470  0.0346
  598MOL0     C80623   4.144   9.274   7.060  0.8448  0.0461 -0.2259
  598MOL0     C80624   4.000   9.064   7.048  0.2945 -0.6796  0.6012
  598MOL0     C80625   3.877   9.152   7.090 -0.2739  0.1702 -0.3291
  598MOL0     O80626   3.820   9.115   7.212 -0.1001  0.2688  0.4077
  598MOL0     C80627   3.697   9.159   7.252  0.4410 -0.1811  0.2172
  598MOL0     C80628   3.585   9.180   7.168  0.2618  0.5150 -0.4166
  598MOL0     C80629   3.461   9.213   7.224  0.1866 -0.2357 -0.2870
  598MOL0     C80630   3.447   9.237   7.360  0.1107  0.1898  0.1927
  598MOL0     O80631   3.324   9.249   7.423  0.0659 -0.0167 -0.2312
  598MOL0     C80632   3.202   9.256   7.339 -1.0618 -0.5404  0.3329
  598MOL0     C80633   3.081   9.337   7.403 -0.0629 -1.0788  0.0355
  598MOL0     C80634   3.016   9.262   7.523  0.0490 -0.3496 -0.1625
  598MOL0     C80635   2.929   9.135   7.477 -0.1840 -0.2410  0.3159
  598MOL0     C80636   2.927   9.015   7.582  0.5171  0.4907 -0.5405
  598MOL0     C80637   2.834   8.904   7.556 -0.5694 -0.8271 -0.0262
  598MOL0     C80638   2.862   8.843   7.423  0.1415  0.4628  0.0098
  598MOL0     C80639   2.809   8.695   7.399  0.2608 -0.5962 -0.8265
  598MOL0    Cl80640   2.903   8.587   7.517  0.5269 -0.0453  0.1388
  598MOL0     C80641   3.560   9.224   7.434 -0.3764  0.4088 -0.1014
  598MOL0     C80642   3.686   9.191   7.386  0.9185  0.9716  0.0723
  598MOL0     O80643   3.830   9.233   7.012 -0.6023 -0.0752 -0.0134
  598MOL0     C80644   3.980   8.929   7.012 -0.0576  1.0463  0.1312
  598MOL0     C80645   4.088   8.849   6.978 -0.1071  0.1123  0.3685
  598MOL0     N80646   4.737   8.815   7.363  0.5938  0.3377 -0.1545
  598MOL0     N80647   4.866   8.783   7.352  0.0564 -0.0196  0.1070
  598MOL0     C80648   5.781   8.055   6.927 -1.2282  0.7519 -0.1274
  598MOL0     C80649   5.875   8.018   6.835 -0.4866  0.3591 -0.9652
  598MOL0     C80650   6.310   7.974   6.664  1.4532  0.4948 -1.1206
  598MOL0     C80651   6.422   7.891   6.670 -0.0040  0.9189 -0.3529
  598MOL0     C80652   6.519   7.901   6.569  0.3215  0.7892 -0.6871
  598MOL0     C80653   6.511   7.994   6.465  0.1036 -0.4328  0.2797
  598MOL0     O80654   6.612   8.014   6.370 -0.9674 -0.3038 -0.1469
  598MOL0     C80655   6.730   7.936   6.354 -0.3994 -0.0274 -0.2984
  598MOL0     C80656   6.838   8.009   6.288  0.3624 -0.1043  0.2316
  598MOL0     C80657   6.798   8.083   6.165 -0.0441 -0.4214 -0.3576
  598MOL0     C80658   6.778   7.985   6.045  0.7059 -0.2992  0.1210
  598MOL0     C80659   6.782   8.045   5.910 -0.1740  0.2171  0.6232
  598MOL0     C80660   6.765   8.108   5.803  0.5052  0.4348 -0.3167
  598MOL0     C80661   6.391   8.064   6.461  0.3596  1.0749  0.2180
  598MOL0     C80662   6.291   8.052   6.556 -0.2339 -0.3971 -0.7520
  598MOL0     H80663   6.150   8.135   7.011 -1.3167  0.9201 -0.4020
  598MOL0     H80664   5.989   8.186   7.164 -1.1691  0.6615  0.1502
  598MOL0     H80665   5.591   8.256   7.054 -1.2172  0.3426  0.3968
  598MOL0     H80666   5.538   8.090   7.108 -1.5060  0.2785  2.0550
  598MOL0     H80667   5.548   8.153   7.332  0.1688 -1.1792 -1.0793
  598MOL0     H80668   5.596   8.323   7.289  0.2492  0.4160  2.0601
  598MOL0     H80669   5.389   8.342   7.160  0.9152 -1.0296 -1.9800
  598MOL0     H80670   5.344   8.180   7.194 -1.9968  0.4060  3.3142
  598MOL0     H80671   5.330   8.196   7.422  1.6686 -0.8781 -0.5539
  598MOL0     H80672   5.399   8.355   7.418  0.4902  0.9247 -0.5832
  598MOL0     H80673   5.197   8.420   7.254  1.5137 -0.3324  0.1000
  598MOL0     H80674   5.113   8.287   7.347 -1.9227  0.2295  3.6043
  598MOL0     H80675   5.162   8.389   7.554  1.6435  1.4645  0.9366
  598MOL0     H80676   5.241   8.523   7.464  0.0265  0.4459 -1.6356
  598MOL0     H80677   4.954   8.444   7.501 -0.5020  0.4584 -0.0352
  598MOL0     H80678   5.032   8.605   7.515 -1.6249  0.2937  1.5324
  598MOL0     H80679   4.975   8.482   7.257  1.6063 -0.2540 -0.1295
  598MOL0     H80680   5.085   8.619   7.272  1.1266 -0.5295  0.7612
  598MOL0     H80681   4.717   8.495   7.317 -3.1241  1.2389 -0.6784
  598MOL0     H80682   4.467   8.628   7.404 -3.2028  1.2001 -0.6431
  598MOL0     H80683   4.482   8.795   7.399  0.7116 -0.5532 -0.5148
  598MOL0     H80684   4.357   8.677   7.198  0.6709 -0.8196  0.9028
  598MOL0     H80685   4.527   8.620   7.145 -0.3139 -0.4634 -0.4413
  598MOL0     H80686   4.587   8.861   7.139 -1.4375  3.3281  0.0100
  598MOL0     H80687   4.424   8.898   7.187 -1.8840 -1.5591 -0.1609
  598MOL0     H80688   4.517   8.754   6.928  1.9466  0.8624  0.1069
  598MOL0     H80689   4.497   8.925   6.936 -1.1169 -0.3591 -1.1352
  598MOL0     H80690   4.330   9.085   7.030 -2.0000  2.5893  2.8542
  598MOL0     H80691   4.094   9.330   6.981  0.0069 -0.4149 -0.0408
  598MOL0     H80692   4.093   9.290   7.156  1.6882 -2.6857  0.7648
  598MOL0     H80693   4.242   9.318   7.083  0.9696 -0.5468  0.4359
  598MOL0     H80694   3.590   9.153   7.063  0.6886 -3.1884  0.4175
  598MOL0     H80695   3.376   9.220   7.157 -0.3430  0.0088  0.3961
  598MOL0     H80696   3.222   9.318   7.251 -0.7956  0.2533  0.9414
  598MOL0     H80697   3.157   9.165   7.297 -0.2049  0.0530 -2.0137
  598MOL0     H80698   3.129   9.427   7.441  1.0000 -1.6894  0.1759
  598MOL0     H80699   3.010   9.366   7.325  2.7087  0.3804 -2.1238
  598MOL0     H80700   2.957   9.331   7.583  2.8782  1.8394  0.3472
  598MOL0     H80701   3.099   9.227   7.585 -1.6798  1.3086  3.4270
  598MOL0     H80702   2.831   9.170   7.444  0.3168  0.3654 -0.5779
  598MOL0     H80703   2.968   9.096   7.383  1.2925 -0.1479  0.8472
  598MOL0     H80704   2.911   9.061   7.680 -1.2285  1.8859 -1.4210
  598MOL0     H80705   3.028   8.973   7.576 -0.5412 -2.2901 -0.2171
  598MOL0     H80706   2.856   8.841   7.643 -0.0387 -2.7342 -1.4725
  598MOL0     H80707   2.732   8.943   7.550 -1.1368 -2.3807 -1.2034
  598MOL0     H80708   2.970   8.842   7.404  0.4954 -3.1076  1.2982
  598MOL0     H80709   2.808   8.905   7.351 -4.7445 -3.5148 -0.3490
  598MOL0     H80710   2.816   8.674   7.292  2.9900  1.8744 -1.2642
  598MOL0     H80711   2.701   8.690   7.416 -0.0362  0.3878 -2.2585
  598MOL0     H80712   3.544   9.240   7.540 -2.7700 -0.4902 -0.2611
  598MOL0     H80713   3.776   9.177   7.444  1.8292  0.6120 -1.3853
  598MOL0     H80714   3.882   8.885   7.025  0.5838  0.2236  2.5511
  598MOL0     H80715   4.077   8.742   6.960  0.8716  0.3062 -1.6337
  598MOL0     H80716   5.677   8.028   6.909 -0.5181 -0.9715 -1.9360
  598MOL0     H80717   5.855   7.956   6.749  0.4538 -0.7570 -0.4165
  598MOL0     H80718   6.420   7.811   6.744 -1.2231  0.1714 -1.1704
  598MOL0     H80719   6.605   7.835   6.561 -0.7208 -0.8865  1.0100
  598MOL0     H80720   6.768   7.921   6.456 -1.2478  1.9948  0.3760
  598MOL0     H80721   6.717   7.839   6.306  0.4813 -0.4195  0.2309
  598MOL0     H80722   6.924   7.944   6.267 -1.3861 -1.6657 -2.8317
  598MOL0     H80723   6.869   8.085   6.360 -2.4086 -0.6530  2.1536
  598MOL0     H80724   6.883   8.148   6.144  2.9296 -3.2567  1.8422
  598MOL0     H80725   6.712   8.147   6.187  0.7299 -0.1181  2.0636
  598MOL0     H80726   6.683   7.933   6.060  0.6758  0.1028  1.4946
  598MOL0     H80727   6.860   7.913   6.052  1.5004  0.0884 -3.3344
  598MOL0     H80728   6.770   8.161   5.710  2.8248  0.7677 -0.0819
  598MOL0     H80729   6.375   8.139   6.385 -2.4573  0.4793  0.1092
  598MOL0     H80730   6.211   8.125   6.560  1.0974  1.0740  1.5164
  599MOL0     O80731   0.391   1.538   0.540 -0.5950  0.5935  0.8999
  599MOL0     C80732   0.388   1.527   0.658 -1.0164 -0.0718 -0.6127
  599MOL0     O80733   0.281   1.487   0.735 -0.4608  0.0407  0.1614
  599MOL0     C80734   0.185   1.416   0.666  1.1554  0.3904  0.3383
  599MOL0     C80735   0.194   1.318   0.564  0.2055  0.4512  0.3214
  599MOL0     C80736   0.083   1.237   0.528  0.1452  0.0389  0.1909
  599MOL0     C80737  -0.032   1.253   0.603  0.4624  0.3986  0.5227
  599MOL0     O80738  -0.138   1.194   0.551  0.1654  0.6382 -0.6376
  599MOL0     C80739  -0.272   1.233   0.561  0.4703  0.2221  0.0813
  599MOL0     C80740  -0.348   1.159   0.449  0.1357 -0.1402 -0.1515
  599MOL0     C80741  -0.500   1.186   0.448  0.7311 -0.6281  0.1857
  599MOL0     C80742  -0.584   1.058   0.425  0.4733  0.4471 -0.8260
  599MOL0     C80743  -0.734   1.086   0.412 -0.1191 -0.8552  0.2132
  599MOL0     C80744  -0.819   0.954   0.395 -0.0339 -0.6503  0.5738
  599MOL0     C80745  -0.963   0.969   0.335 -0.3401 -0.1225  0.5223
  599MOL0     C80746  -1.054   1.039   0.430 -0.2788 -0.6625  0.7212
  599MOL0     N80747  -1.193   1.023   0.409  0.0015  1.0731 -0.7291
  599MOL0     C80748  -1.267   0.911   0.442 -0.8621  0.6878  1.1585
  599MOL0     C80749  -1.394   0.939   0.425  0.3646 -1.3115 -0.1013
  599MOL0     C80750  -1.529   0.855   0.443 -0.5167 -0.6565  0.1535
  599MOL0     C80751  -1.537   0.744   0.341  0.1426  0.7111  0.6584
  599MOL0     C80752  -1.566   0.800   0.204 -0.1974 -0.3579  0.3415
  599MOL0     C80753  -1.622   0.702   0.099 -0.3314 -0.6304 -0.7318
  599MOL0     O80754  -1.723   0.623   0.164  0.5110  0.1681  0.0240
  599MOL0     C80755  -1.858   0.649   0.140 -0.2801 -0.2517  0.2119
  599MOL0     C80756  -1.944   0.648   0.249  0.4993  0.5576  0.3745
  599MOL0     C80757  -2.080   0.669   0.228  0.1620 -0.5169 -0.8147
  599MOL0     C80758  -2.157   0.666   0.358  0.3428  0.5224 -0.3376
  599MOL0     C80759  -2.139   0.701   0.108  0.1593 -0.2069  0.5228
  599MOL0     C80760  -2.287   0.719   0.079 -0.5151 -0.7586  0.1656
  599MOL0     O80761  -2.364   0.728   0.188  0.2568  0.0256 -0.2297
  599MOL0     C80762  -2.497   0.722   0.175  0.4750 -0.3543 -0.4350
  599MOL0     C80763  -2.569   0.819   0.103  0.0821  0.2091 -0.0393
  599MOL0     C80764  -2.711   0.823   0.097 -0.6734 -1.1758  0.0622
  599MOL0     C80765  -2.775   0.723   0.156  0.1914  0.6466  0.7586
  599MOL0     O80766  -2.913   0.709   0.158  0.3512 -0.2687  0.2523
  599MOL0     C80767  -2.978   0.665   0.042 -0.2946 -0.2534  0.6075
  599MOL0     C80768  -3.128   0.633   0.077  0.2402  0.2096  0.4273
  599MOL0     C80769  -3.141   0.574   0.221 -0.9726 -0.1189 -0.2833
  599MOL0     C80770  -3.097   0.421   0.228 -0.2811  0.0908  0.7369
  599MOL0     C80771  -3.215   0.338   0.180  0.3199 -0.2700 -0.2094
  599MOL0     C80772  -3.165   0.192   0.174 -0.1630 -0.3682  0.4449
  599MOL0     C80773  -3.279   0.102   0.136 -0.4181 -0.2988 -0.1288
  599MOL0     C80774  -3.244  -0.045   0.111 -0.3166  0.5303 -0.6311
  599MOL0    Cl80775  -3.388  -0.137   0.069  0.0152  0.0254 -0.0536
  599MOL0     C80776  -2.702   0.637   0.239 -0.2811 -0.0277 -0.7268
  599MOL0     C80777  -2.567   0.635   0.250 -0.4747  0.1195 -0.5788
  599MOL0     O80778  -2.324   0.741  -0.038 -0.5645 -0.3519 -0.3330
  599MOL0     C80779  -2.047   0.705  -0.003  0.8154  0.2319  0.5258
  599MOL0     C80780  -1.908   0.680   0.013  0.8820  0.4572  0.8728
  599MOL0     N80781  -1.400   1.077   0.390  0.3456 -0.7091 -0.9612
  599MOL0     N80782  -1.275   1.128   0.382  0.4316  0.6556  0.3562
  599MOL0     C80783  -0.038   1.347   0.703 -0.0043  0.2537  0.4713
  599MOL0     C80784   0.068   1.421   0.742 -0.3965 -1.2051 -0.6680
  599MOL0     C80785   0.504   1.567   0.734  0.4590  0.8464 -1.2362
  599MOL0     C80786   0.633   1.539   0.691  0.0182  0.4479 -0.1596
  599MOL0     C80787   0.748   1.554   0.765  0.1679 -0.6699  0.9510
  599MOL0     C80788   0.736   1.619   0.896 -1.2411  0.8260  1.2896
  599MOL0     O80789   0.850   1.635   0.966  0.6051 -0.3385  0.2959
  599MOL0     C80790   0.839   1.634   1.105  0.7997  0.1525 -0.2079
  599MOL0     C80791   0.965   1.551   1.143 -0.7103 -0.6987  0.9204
  599MOL0     C80792   0.975   1.520   1.299 -0.2096  0.1292  1.3337
  599MOL0     C80793   1.087   1.413   1.317 -0.4506 -0.4897  0.1904
  599MOL0     C80794   1.076   1.359   1.449 -0.2552 -0.5568  0.1409
  599MOL0     C80795   1.067   1.326   1.571 -0.2733 -0.1077  0.4518
  599MOL0     C80796   0.614   1.653   0.942  0.7944  0.5086 -1.0979
  599MOL0     C80797   0.492   1.626   0.865 -0.5674 -1.1795 -0.6685
  599MOL0     H80798   0.285   1.310   0.504 -0.1855 -0.7252 -0.1411
  599MOL0     H80799   0.099   1.171   0.443 -0.4407  2.0837 -1.5699
  599MOL0     H80800  -0.307   1.215   0.663 -0.3361  2.5286  0.2875
  599MOL0     H80801  -0.284   1.335   0.522  0.3851  0.5718  0.9769
  599MOL0     H80802  -0.294   1.201   0.363  0.3474  4.0422  1.7484
  599MOL0     H80803  -0.334   1.053   0.471 -1.8303  0.1825  3.5030
  599MOL0     H80804  -0.536   1.218   0.546  3.7862  1.3729  0.7721
  599MOL0     H80805  -0.522   1.269   0.381  0.7851 -0.8192 -0.0712
  599MOL0     H80806  -0.558   1.019   0.326 -2.2141 -0.0377 -1.4145
  599MOL0     H80807  -0.556   0.986   0.502  2.0352  2.8556  0.9942
  599MOL0     H80808  -0.767   1.133   0.505  0.7999 -1.4296  0.8466
  599MOL0     H80809  -0.758   1.155   0.331  3.4598  2.1568  1.4652
  599MOL0     H80810  -0.757   0.890   0.332  1.1457  0.0270  1.0061
  599MOL0     H80811  -0.817   0.896   0.488 -0.7185 -1.6955 -0.0510
  599MOL0     H80812  -0.961   1.018   0.237 -1.3510  2.2498  1.6176
  599MOL0     H80813  -1.013   0.872   0.322 -0.5591  0.2459 -1.7417
  599MOL0     H80814  -1.027   1.145   0.430 -0.4255 -0.6256  0.7113
  599MOL0     H80815  -1.035   1.007   0.533 -2.5486  0.2222  1.4854
  599MOL0     H80816  -1.225   0.814   0.467 -0.4157  0.0307 -1.7482
  599MOL0     H80817  -1.508   0.807   0.539  1.6812 -0.5128 -0.2151
  599MOL0     H80818  -1.621   0.913   0.458  0.8609  0.9106  3.4113
  599MOL0     H80819  -1.620   0.680   0.372  2.3237 -1.9132  1.4734
  599MOL0     H80820  -1.455   0.672   0.348  0.0900  0.6696  0.8605
  599MOL0     H80821  -1.473   0.848   0.171 -0.6900  0.9599  0.8130
  599MOL0     H80822  -1.645   0.874   0.216  0.4391  0.4952 -0.5232
  599MOL0     H80823  -1.547   0.643   0.045  2.2293  2.4249 -0.8483
  599MOL0     H80824  -1.653   0.774   0.022  2.6490  2.0703  0.3469
  599MOL0     H80825  -1.899   0.629   0.346 -1.6680  3.7118  2.1849
  599MOL0     H80826  -2.239   0.595   0.340 -0.1360 -0.2022  3.6666
  599MOL0     H80827  -2.095   0.633   0.442 -0.4690 -0.5712 -0.1397
  599MOL0     H80828  -2.200   0.764   0.379  2.8336  2.3657 -3.0934
  599MOL0     H80829  -2.524   0.906   0.056 -3.2757  1.9221 -0.4401
  599MOL0     H80830  -2.760   0.900   0.038  0.7424 -0.4745 -0.2377
  599MOL0     H80831  -2.969   0.748  -0.028 -1.2211 -1.0829 -0.5256
  599MOL0     H80832  -2.936   0.571   0.007 -0.0817  0.2923 -0.6599
  599MOL0     H80833  -3.185   0.725   0.060  0.8598  0.7924  1.4391
  599MOL0     H80834  -3.160   0.556   0.005  0.1366 -2.2394  2.9279
  599MOL0     H80835  -3.241   0.598   0.258 -0.0252  1.0319  1.6737
  599MOL0     H80836  -3.093   0.629   0.302  0.4297  0.8817 -1.7264
  599MOL0     H80837  -3.007   0.402   0.169 -1.1038 -1.4747 -0.0650
  599MOL0     H80838  -3.083   0.398   0.334 -1.6826  1.3328  1.2213
  599MOL0     H80839  -3.252   0.368   0.082  1.6127  2.1459 -0.0362
  599MOL0     H80840  -3.298   0.349   0.251 -1.5048 -0.8119 -2.1497
  599MOL0     H80841  -3.088   0.185   0.096 -1.2391  0.6123 -0.7325
  599MOL0     H80842  -3.129   0.153   0.270 -1.4728 -3.2788 -0.1480
  599MOL0     H80843  -3.336   0.130   0.048 -2.4171  2.9140  1.9766
  599MOL0     H80844  -3.348   0.125   0.219  1.0375  2.8490  0.3519
  599MOL0     H80845  -3.184  -0.075   0.197  2.3717  0.6706 -2.3479
  599MOL0     H80846  -3.175  -0.062   0.028  1.7546 -1.3641  1.3430
  599MOL0     H80847  -2.751   0.552   0.286 -3.3517  0.3837 -2.9256
  599MOL0     H80848  -2.512   0.565   0.311 -1.5599 -0.1551  0.1039
  599MOL0     H80849  -2.079   0.738  -0.101  0.3924 -1.7131 -0.0387
  599MOL0     H80850  -1.851   0.685  -0.079  0.5751  1.1978  0.7140
  599MOL0     H80851  -0.133   1.359   0.754  0.0623  0.5019  0.5423
  599MOL0     H80852   0.063   1.490   0.825 -1.7356 -0.8040 -1.0584
  599MOL0     H80853   0.648   1.512   0.587  2.3645 -1.7149  0.6391
  599MOL0     H80854   0.846   1.520   0.732  0.7407 -1.0223  2.9054
  599MOL0     H80855   0.840   1.731   1.155 -1.6488 -0.0893  0.4469
  599MOL0     H80856   0.747   1.581   1.130  1.1810  0.2200  1.4668
  599MOL0     H80857   1.050   1.608   1.106  0.3473 -0.7663  3.0479
  599MOL0     H80858   0.964   1.459   1.085 -0.4314 -0.2752  0.2351
  599MOL0     H80859   0.881   1.486   1.342 -0.5613  2.4917  2.5833
  599MOL0     H80860   1.002   1.613   1.348  1.0815 -1.3879  3.7052
  599MOL0     H80861   1.188   1.454   1.310 -0.0502 -1.5144 -0.2781
  599MOL0     H80862   1.081   1.335   1.240 -0.3566  0.6038 -0.9537
  599MOL0     H80863   1.056   1.300   1.674 -0.0438  0.7153  0.6943
  599MOL0     H80864   0.583   1.706   1.031 -0.5263  1.1009 -1.8685
  599MOL0     H80865   0.398   1.655   0.910  0.8666  0.9277  1.2158
  600MOL0     O80866   1.381   1.769   3.667 -0.3802 -0.1879 -0.0582
  600MOL0     C80867   1.413   1.865   3.730 -0.3690  0.0483  0.3405
  600MOL0     O80868   1.346   1.914   3.845 -0.7354  0.8394  0.4609
  600MOL0     C80869   1.254   1.823   3.896  0.2971 -0.0076  0.3780
  600MOL0     C80870   1.124   1.823   3.842  0.4561 -0.3082 -0.5631
  600MOL0     C80871   1.025   1.740   3.905  0.6566 -0.1747  0.5091
  600MOL0     C80872   1.052   1.663   4.020 -0.0774 -0.4601  0.6917
  600MOL0     O80873   0.962   1.584   4.084  0.5154  0.1212  0.1902
  600MOL0     C80874   0.832   1.566   4.026  0.6864 -0.3571 -0.3205
  600MOL0     C80875   0.748   1.481   4.127  0.5859  0.6337  0.3450
  600MOL0     C80876   0.613   1.450   4.069  0.2191  0.9351 -1.1434
  600MOL0     C80877   0.533   1.347   4.153 -0.3007 -0.6744 -0.3571
  600MOL0     C80878   0.404   1.302   4.085  0.3526 -0.3171  0.1341
  600MOL0     C80879   0.327   1.206   4.179 -0.8438  0.9438 -0.1305
  600MOL0     C80880   0.196   1.172   4.105  0.1544 -0.6430  0.1779
  600MOL0     C80881   0.096   1.103   4.199 -0.7346 -0.0952 -0.6222
  600MOL0     N80882  -0.035   1.066   4.136  0.2272 -0.9362  0.6982
  600MOL0     C80883  -0.141   0.998   4.193 -0.3270 -0.0121  0.1011
  600MOL0     C80884  -0.230   0.987   4.091  0.5275 -0.7526  0.6588
  600MOL0     C80885  -0.369   0.937   4.107 -0.7064  0.4905 -0.1786
  600MOL0     C80886  -0.369   0.783   4.148 -0.5186  0.5298  0.1019
  600MOL0     C80887  -0.512   0.728   4.169  0.0384 -0.2991  0.9285
  600MOL0     C80888  -0.547   0.624   4.064 -0.1730  0.0006  0.1524
  600MOL0     O80889  -0.652   0.534   4.104  1.0879  0.1531 -0.4379
  600MOL0     C80890  -0.742   0.484   4.015 -0.0337  0.5237 -0.2926
  600MOL0     C80891  -0.809   0.559   3.917  0.5848  0.5407  0.0271
  600MOL0     C80892  -0.911   0.506   3.836  0.2189 -0.3783 -0.3723
  600MOL0     C80893  -0.960   0.597   3.731  0.4436  0.1719  0.9429
  600MOL0     C80894  -0.963   0.377   3.855  0.5234 -0.8282 -0.8236
  600MOL0     C80895  -1.087   0.327   3.782 -0.3786 -0.1996  0.3086
  600MOL0     O80896  -1.115   0.192   3.805  0.2030 -0.7305 -0.0451
  600MOL0     C80897  -1.243   0.146   3.759  0.2715  0.2029  0.3179
  600MOL0     C80898  -1.269   0.127   3.621  0.0009  0.6216  0.4978
  600MOL0     C80899  -1.393   0.084   3.579 -0.0846  0.3110 -0.0190
  600MOL0     C80900  -1.502   0.073   3.674  0.2823  0.4038  0.3375
  600MOL0     O80901  -1.628   0.032   3.631  0.1876  0.0483  0.0342
  600MOL0     C80902  -1.743   0.075   3.711  0.9626 -0.1169  0.2090
  600MOL0     C80903  -1.880   0.036   3.632 -1.1800  0.2152  0.1412
  600MOL0     C80904  -1.890  -0.111   3.594 -0.3391  0.9651  0.1415
  600MOL0     C80905  -2.033  -0.160   3.578 -0.0649  0.4111  0.2835
  600MOL0     C80906  -2.109  -0.077   3.473  0.4752 -0.9471  0.7549
  600MOL0     C80907  -2.227  -0.145   3.426  0.4086  0.4361 -0.1882
  600MOL0     C80908  -2.341  -0.141   3.529  1.1225 -0.6948  0.4730
  600MOL0     C80909  -2.458  -0.207   3.455  0.4941  0.6441 -0.5462
  600MOL0    Cl80910  -2.613  -0.156   3.513  0.1432  0.5516 -0.2597
  600MOL0     C80911  -1.478   0.100   3.809 -0.4399 -0.7527  0.5305
  600MOL0     C80912  -1.350   0.132   3.850 -0.6093  0.0094 -1.1148
  600MOL0     O80913  -1.161   0.408   3.725  0.3593  0.3861 -0.5019
  600MOL0     C80914  -0.883   0.295   3.932 -0.0459 -0.1094  0.3896
  600MOL0     C80915  -0.779   0.349   4.016  0.0405  0.2847 -0.0398
  600MOL0     N80916  -0.175   1.022   3.974 -0.9185 -0.2527 -0.2832
  600MOL0     N80917  -0.056   1.065   3.998 -0.5708 -0.3491 -1.0039
  600MOL0     C80918   1.173   1.682   4.079 -0.9160  0.3803  0.7987
  600MOL0     C80919   1.273   1.756   4.015  0.6448  0.3822  0.0956
  600MOL0     C80920   1.524   1.947   3.668 -0.1471  0.2094  1.3004
  600MOL0     C80921   1.562   1.931   3.536  0.2994 -0.0990 -0.5640
  600MOL0     C80922   1.671   2.001   3.489 -0.4857 -0.1872 -0.4986
  600MOL0     C80923   1.763   2.077   3.572  0.4156  0.7256 -0.0845
  600MOL0     O80924   1.884   2.133   3.540  0.2545  0.0892  0.3487
  600MOL0     C80925   1.937   2.104   3.412 -0.0072 -0.7754  0.6665
  600MOL0     C80926   1.869   2.201   3.315  0.7188  0.0304  0.9835
  600MOL0     C80927   1.928   2.339   3.347 -0.3161 -0.5671  0.4396
  600MOL0     C80928   1.887   2.451   3.239 -0.3037 -0.0111  0.5645
  600MOL0     C80929   1.939   2.576   3.283  1.3864 -0.0484 -0.4740
  600MOL0     C80930   1.987   2.682   3.316  0.3575 -0.3430  0.6375
  600MOL0     C80931   1.717   2.085   3.706  0.5197 -0.3084 -0.6866
  600MOL0     C80932   1.601   2.027   3.749 -0.0539  0.5829 -0.3940
  600MOL0     H80933   1.097   1.885   3.757 -0.5830  1.5725  1.0546
  600MOL0     H80934   0.923   1.744   3.868  0.8361 -1.0327 -0.1220
  600MOL0     H80935   0.777   1.657   3.998  0.5573 -0.6192 -0.9372
  600MOL0     H80936   0.849   1.497   3.943 -0.1848 -0.2745 -0.5804
  600MOL0     H80937   0.808   1.392   4.144  0.8221  0.3650 -1.6924
  600MOL0     H80938   0.730   1.543   4.216  1.5061  3.7510 -1.5037
  600MOL0     H80939   0.555   1.543   4.067  0.5507  1.4913  3.6672
  600MOL0     H80940   0.611   1.415   3.965 -0.7635 -0.3820 -0.7091
  600MOL0     H80941   0.593   1.256   4.168 -1.2188 -1.1138  0.7132
  600MOL0     H80942   0.509   1.394   4.248  0.3477 -0.0226 -0.5068
  600MOL0     H80943   0.350   1.393   4.056 -1.0789 -1.0032  0.5565
  600MOL0     H80944   0.424   1.245   3.993 -2.5863 -0.1661 -0.6881
  600MOL0     H80945   0.365   1.107   4.206 -2.3297 -0.2146 -2.0419
  600MOL0     H80946   0.305   1.269   4.266 -0.5126 -0.4159  0.9802
  600MOL0     H80947   0.146   1.261   4.066  0.0744 -1.4127 -1.5517
  600MOL0     H80948   0.216   1.096   4.029  2.8838  0.7825 -0.6440
  600MOL0     H80949   0.077   1.168   4.285 -0.6144 -1.5206  0.5193
  600MOL0     H80950   0.137   1.014   4.249 -1.6852  1.3686  3.0952
  600MOL0     H80951  -0.156   0.987   4.300  1.2497  1.4144  0.5195
  600MOL0     H80952  -0.412   0.986   4.194 -0.4075 -0.3119  0.4368
  600MOL0     H80953  -0.432   0.957   4.020  0.4217  1.2774 -0.8429
  600MOL0     H80954  -0.302   0.766   4.232  1.2125 -0.1864 -1.3506
  600MOL0     H80955  -0.332   0.726   4.062 -1.3921 -1.3339  0.9106
  600MOL0     H80956  -0.586   0.808   4.155 -0.4452 -1.1986 -2.4021
  600MOL0     H80957  -0.522   0.689   4.271  0.2274 -1.7771  0.3985
  600MOL0     H80958  -0.464   0.563   4.028 -0.4903  0.0060 -0.5977
  600MOL0     H80959  -0.576   0.688   3.980  2.6832 -1.1167 -1.8328
  600MOL0     H80960  -0.780   0.663   3.903 -2.7155  1.2354 -2.7986
  600MOL0     H80961  -0.900   0.682   3.698  4.1279 -2.6155 -0.1041
  600MOL0     H80962  -0.966   0.540   3.638 -0.5899  2.0586 -0.2125
  600MOL0     H80963  -1.059   0.642   3.750 -0.6850 -0.2956 -2.9169
  600MOL0     H80964  -1.185   0.117   3.554 -1.0971 -2.9067 -0.6126
  600MOL0     H80965  -1.410   0.064   3.474 -0.5538 -0.2679  0.1686
  600MOL0     H80966  -1.747   0.011   3.799  0.3053 -1.6624 -0.9002
  600MOL0     H80967  -1.739   0.184   3.723 -2.0802  0.1994 -0.6564
  600MOL0     H80968  -1.965   0.073   3.690 -1.2732  0.4164 -0.1153
  600MOL0     H80969  -1.879   0.098   3.541  1.9330  0.5950  0.3270
  600MOL0     H80970  -1.851  -0.182   3.667 -0.8897  1.6352  1.1030
  600MOL0     H80971  -1.840  -0.108   3.496 -0.6904  1.9164 -0.0254
  600MOL0     H80972  -2.024  -0.265   3.546 -0.1981  0.8454 -1.2863
  600MOL0     H80973  -2.084  -0.156   3.674  3.5228 -0.5559  2.4447
  600MOL0     H80974  -2.044  -0.067   3.386  0.7653  0.8745  1.1449
  600MOL0     H80975  -2.141   0.021   3.509 -2.7561 -1.9638  0.9455
  600MOL0     H80976  -2.266  -0.096   3.336 -0.8460 -1.9577 -1.0402
  600MOL0     H80977  -2.212  -0.247   3.388  0.6557  0.7343 -0.9099
  600MOL0     H80978  -2.372  -0.039   3.550 -0.7477 -0.6854 -1.9849
  600MOL0     H80979  -2.307  -0.200   3.615  3.0554 -2.0943 -1.1309
  600MOL0     H80980  -2.452  -0.316   3.459 -0.4595  0.5987 -0.1503
  600MOL0     H80981  -2.454  -0.197   3.346 -1.1095 -1.3882 -0.8500
  600MOL0     H80982  -1.565   0.084   3.872 -1.7770  1.4837 -0.6068
  600MOL0     H80983  -1.333   0.150   3.955 -3.1187  4.4072 -1.1949
  600MOL0     H80984  -0.907   0.191   3.951  0.3350 -0.3542 -0.4344
  600MOL0     H80985  -0.723   0.293   4.091  0.7453 -0.2118 -0.9105
  600MOL0     H80986   1.184   1.632   4.175  2.6659  2.4954  1.6630
  600MOL0     H80987   1.374   1.769   4.051  0.9794 -0.8523 -0.3413
  600MOL0     H80988   1.515   1.851   3.480  0.1643 -0.5939  0.2337
  600MOL0     H80989   1.690   1.993   3.383  0.1014  0.4424 -0.4455
  600MOL0     H80990   2.045   2.102   3.429 -0.4826  0.4869  5.1895
  600MOL0     H80991   1.914   2.002   3.378  1.2282 -1.7966  2.7122
  600MOL0     H80992   1.760   2.206   3.318  0.7152 -0.1279  1.1330
  600MOL0     H80993   1.899   2.169   3.215 -1.3631 -2.3534  1.0114
  600MOL0     H80994   2.036   2.326   3.352 -0.2390 -0.1275 -0.0010
  600MOL0     H80995   1.888   2.374   3.442  0.5505  2.5379 -0.2153
  600MOL0     H80996   1.779   2.455   3.229 -0.5092  1.7635  2.7379
  600MOL0     H80997   1.924   2.428   3.139  0.8101 -1.6625  1.3140
  600MOL0     H80998   2.039   2.774   3.331  0.0967 -0.2223  0.8115
  600MOL0     H80999   1.767   2.138   3.786 -3.4203  2.1037  0.4645
  600MOL0     H81000   1.569   2.043   3.851  0.3064  2.2734 -0.5096
  601MOL0     O81001   3.798   4.624  11.027 -0.1730 -0.2271 -0.3329
  601MOL0     C81002   3.786   4.510  10.986 -0.3216  0.5326 -0.8775
  601MOL0     O81003   3.678   4.446  10.926 -0.6287 -0.0922 -0.1874
  601MOL0     C81004   3.565   4.525  10.939  0.3172 -0.0323  0.4989
  601MOL0     C81005   3.522   4.603  10.831  0.7163  0.3593  0.6313
  601MOL0     C81006   3.385   4.655  10.828 -0.8240 -0.3661  0.4428
  601MOL0     C81007   3.302   4.624  10.935  0.4074 -0.1528 -0.5520
  601MOL0     O81008   3.171   4.676  10.946  0.0696 -0.0530 -0.0526
  601MOL0     C81009   3.082   4.601  11.037  0.5223  0.4612  0.7018
  601MOL0     C81010   2.938   4.654  11.046  0.1637  0.7206  0.3044
  601MOL0     C81011   2.853   4.544  11.116  0.4246 -0.0590 -0.7059
  601MOL0     C81012   2.705   4.592  11.129  1.0572  0.3210 -0.0004
  601MOL0     C81013   2.610   4.490  11.194 -0.5804 -0.1840 -0.1013
  601MOL0     C81014   2.611   4.357  11.125  0.3937 -0.0066  0.4064
  601MOL0     C81015   2.517   4.257  11.187 -0.6841  0.1633  0.0268
  601MOL0     C81016   2.561   4.218  11.330 -0.2056  0.3302 -0.6580
  601MOL0     N81017   2.683   4.127  11.324  0.7697 -0.1148 -0.5961
  601MOL0     C81018   2.815   4.162  11.351  0.7814  0.6289 -0.3210
  601MOL0     C81019   2.873   4.038  11.367  0.4024  0.1273  0.0437
  601MOL0     C81020   3.021   4.018  11.399 -0.6276  1.7471  0.1179
  601MOL0     C81021   3.041   3.869  11.443 -0.8229  0.3855 -0.7038
  601MOL0     C81022   3.174   3.849  11.513  0.1744 -0.3618 -0.0384
  601MOL0     C81023   3.172   3.732  11.614  0.2017 -0.5878 -0.0325
  601MOL0     O81024   3.181   3.600  11.552 -0.3746  0.0683 -0.4267
  601MOL0     C81025   3.282   3.506  11.585 -0.3077 -0.1026  0.9951
  601MOL0     C81026   3.267   3.382  11.520  0.0938  0.2530 -0.9072
  601MOL0     C81027   3.354   3.274  11.550  0.0398  0.5616  0.0227
  601MOL0     C81028   3.339   3.151  11.468 -1.3613  0.2453  0.5741
  601MOL0     C81029   3.456   3.290  11.646 -0.1243  0.2664  0.2296
  601MOL0     C81030   3.556   3.185  11.679 -0.3017 -0.4193 -0.0998
  601MOL0     O81031   3.621   3.200  11.804  0.1752 -0.2774 -0.2631
  601MOL0     C81032   3.704   3.098  11.845 -0.6687 -0.2391  0.3205
  601MOL0     C81033   3.655   2.975  11.878 -0.5091 -0.0467  0.1417
  601MOL0     C81034   3.736   2.865  11.913 -0.1053 -0.1889  0.0945
  601MOL0     C81035   3.873   2.892  11.930  0.9241 -0.9752  0.3676
  601MOL0     O81036   3.953   2.800  11.985  0.2117  0.5647  0.2500
  601MOL0     C81037   4.041   2.827  12.089 -0.2303 -0.2159 -0.9122
  601MOL0     C81038   4.182   2.884  12.046  0.0992 -0.1330 -0.4187
  601MOL0     C81039   4.210   3.032  12.090 -0.5939 -0.7173  0.5120
  601MOL0     C81040   4.350   3.075  12.046  0.4655 -0.3334  0.5617
  601MOL0     C81041   4.415   3.176  12.139  0.6747  0.0862  0.4468
  601MOL0     C81042   4.559   3.202  12.102  0.2702  0.8622  0.3373
  601MOL0     C81043   4.614   3.297  12.217 -0.3589  0.6281 -0.6372
  601MOL0     C81044   4.762   3.319  12.192 -1.2452 -0.8955 -0.4966
  601MOL0    Cl81045   4.807   3.414  12.338 -0.1143 -0.1290 -0.0065
  601MOL0     C81046   3.919   3.019  11.883 -0.9308 -0.3950  1.3492
  601MOL0     C81047   3.833   3.110  11.840  0.1576 -0.6243 -0.0436
  601MOL0     O81048   3.575   3.096  11.596 -0.3573 -0.2544  0.2341
  601MOL0     C81049   3.467   3.414  11.711 -0.8268 -0.1710  0.3262
  601MOL0     C81050   3.387   3.525  11.678  0.1049 -0.2326 -0.8105
  601MOL0     N81051   2.784   3.937  11.335  0.3124 -0.9766 -0.2382
  601MOL0     N81052   2.672   3.988  11.318  0.4414 -0.4244 -1.0115
  601MOL0     C81053   3.361   4.561  11.053 -0.1604  0.2104 -0.0592
  601MOL0     C81054   3.487   4.508  11.049  0.4335  0.5139 -0.5792
  601MOL0     C81055   3.909   4.424  11.011  0.4400  0.1202 -0.6843
  601MOL0     C81056   4.011   4.460  11.099  0.0065 -1.1232  0.0783
  601MOL0     C81057   4.118   4.371  11.118  0.2305 -0.6185 -1.0287
  601MOL0     C81058   4.123   4.251  11.052  0.0569 -0.2032  0.6721
  601MOL0     O81059   4.236   4.183  11.079  0.2109  0.2949 -0.4288
  601MOL0     C81060   4.263   4.063  11.003 -0.0072  0.0748 -0.2222
  601MOL0     C81061   4.216   3.935  11.079 -0.3150 -0.6507 -0.3486
  601MOL0     C81062   4.276   3.803  11.020  0.2476 -0.5614 -0.0454
  601MOL0     C81063   4.231   3.690  11.112 -0.9310  0.1248  0.4087
  601MOL0     C81064   4.093   3.646  11.099  0.0074 -0.2798 -0.4941
  601MOL0     C81065   3.979   3.610  11.097 -0.1934  0.2751 -0.1183
  601MOL0     C81066   4.028   4.225  10.946 -1.0682  0.2292  0.0715
  601MOL0     C81067   3.919   4.304  10.934  0.5857 -0.3640  0.2012
  601MOL0     H81068   3.585   4.636  10.749  1.4946 -0.7013  0.7737
  601MOL0     H81069   3.349   4.722  10.750 -0.4629 -2.0106 -1.2333
  601MOL0     H81070   3.081   4.499  10.997 -0.8990  1.5407 -2.3029
  601MOL0     H81071   3.124   4.611  11.137  1.0039 -0.1714  0.5640
  601MOL0     H81072   2.947   4.751  11.093  2.8038  1.0747 -0.7795
  601MOL0     H81073   2.891   4.667  10.948 -2.9486 -2.1614  1.2007
  601MOL0     H81074   2.865   4.443  11.075 -0.1642 -0.6217  0.4346
  601MOL0     H81075   2.891   4.536  11.219 -1.2289 -0.1748 -0.0674
  601MOL0     H81076   2.700   4.683  11.188 -2.2215 -0.6509  1.4428
  601MOL0     H81077   2.657   4.618  11.034  1.6054 -1.3532 -0.7984
  601MOL0     H81078   2.656   4.464  11.289  0.7788  1.2754 -0.3289
  601MOL0     H81079   2.511   4.535  11.206 -0.1202  0.5638  1.0143
  601MOL0     H81080   2.574   4.358  11.023  0.7291 -1.6083  0.2414
  601MOL0     H81081   2.712   4.320  11.107 -0.8203 -3.6227  0.2127
  601MOL0     H81082   2.420   4.304  11.203 -0.9327 -0.7589  1.3600
  601MOL0     H81083   2.525   4.169  11.123  2.3583 -0.1681  0.6746
  601MOL0     H81084   2.482   4.159  11.377  1.9665 -1.3715  1.0213
  601MOL0     H81085   2.594   4.302  11.392  1.7788  0.3836 -1.7165
  601MOL0     H81086   2.855   4.261  11.367 -1.2277  1.0301  3.2402
  601MOL0     H81087   3.074   4.024  11.304 -1.2242 -1.4684 -0.5290
  601MOL0     H81088   3.062   4.093  11.467 -0.5906  1.7033  0.1442
  601MOL0     H81089   3.038   3.796  11.362  1.5923 -0.3255 -0.2593
  601MOL0     H81090   2.958   3.848  11.511 -0.7779  3.8348  0.6507
  601MOL0     H81091   3.196   3.936  11.576  2.3282 -1.6769  1.1581
  601MOL0     H81092   3.249   3.834  11.434 -0.3026 -1.5022 -0.2934
  601MOL0     H81093   3.072   3.722  11.656 -0.3182  0.1135 -1.0644
  601MOL0     H81094   3.249   3.740  11.692 -1.3890 -1.4632  1.7033
  601MOL0     H81095   3.189   3.370  11.447  0.4615 -0.7401 -1.1496
  601MOL0     H81096   3.254   3.163  11.400  0.3829  0.8716 -1.6041
  601MOL0     H81097   3.427   3.138  11.405  1.4763  2.9921  3.5728
  601MOL0     H81098   3.341   3.058  11.525  1.3222 -0.6352 -0.7809
  601MOL0     H81099   3.548   2.964  11.866 -0.2093 -0.8645 -2.6377
  601MOL0     H81100   3.679   2.775  11.934 -2.1695  1.0553  0.0769
  601MOL0     H81101   3.995   2.896  12.161 -1.6505  0.0729 -2.0441
  601MOL0     H81102   4.061   2.741  12.154 -0.3944  0.9588  0.7817
  601MOL0     H81103   4.257   2.823  12.096  1.7946  2.2742  0.1896
  601MOL0     H81104   4.185   2.875  11.937  2.2478  2.0417 -0.6422
  601MOL0     H81105   4.187   3.042  12.197 -2.8190  1.1092 -0.0437
  601MOL0     H81106   4.140   3.100  12.041  1.2231  0.1008 -1.1093
  601MOL0     H81107   4.415   2.988  12.061 -0.2826 -0.5557  2.9180
  601MOL0     H81108   4.353   3.104  11.941  0.5737 -0.6601  0.4730
  601MOL0     H81109   4.407   3.137  12.241  0.3413  3.2548  1.7470
  601MOL0     H81110   4.366   3.273  12.124  0.0457 -0.4729 -1.4328
  601MOL0     H81111   4.619   3.110  12.107  1.0446  1.3410  0.0104
  601MOL0     H81112   4.560   3.241  12.000  1.0743  0.7780  0.3053
  601MOL0     H81113   4.611   3.252  12.316  5.7114  2.4455  0.8090
  601MOL0     H81114   4.567   3.396  12.219 -1.3820  0.1689 -1.2986
  601MOL0     H81115   4.777   3.366  12.094 -1.5164 -0.4435 -0.3263
  601MOL0     H81116   4.831   3.235  12.186 -1.0751 -0.8364  0.4171
  601MOL0     H81117   4.025   3.042  11.878 -1.0125 -0.2386  0.2098
  601MOL0     H81118   3.866   3.209  11.809 -3.8537  1.3414  1.1453
  601MOL0     H81119   3.543   3.426  11.788 -1.4286 -2.5095  1.3722
  601MOL0     H81120   3.407   3.625  11.717 -0.3065  0.2944 -1.9060
  601MOL0     H81121   3.308   4.546  11.147 -1.2123 -0.2153 -0.7033
  601MOL0     H81122   3.531   4.452  11.130  0.5575  0.8699 -0.3964
  601MOL0     H81123   4.015   4.551  11.159 -1.8612 -0.5325 -0.6128
  601MOL0     H81124   4.186   4.388  11.201 -1.6235 -1.9644  0.8808
  601MOL0     H81125   4.221   4.068  10.902  2.2768  4.6949 -1.2012
  601MOL0     H81126   4.368   4.052  10.975  1.0222  3.1292  1.8852
  601MOL0     H81127   4.107   3.935  11.069 -0.6018 -1.3060  2.1729
  601MOL0     H81128   4.251   3.944  11.182  1.1351 -1.4653 -0.7384
  601MOL0     H81129   4.384   3.809  11.032  0.3388  1.7294 -1.3287
  601MOL0     H81130   4.241   3.778  10.919 -0.5328  1.0024 -0.1887
  601MOL0     H81131   4.268   3.717  11.211  2.1971  1.6057 -1.0182
  601MOL0     H81132   4.288   3.605  11.075  1.0546  1.5041  0.1009
  601MOL0     H81133   3.873   3.591  11.090  0.0264 -0.3602 -2.0128
  601MOL0     H81134   4.036   4.138  10.882  0.0166  0.3329  0.0426
  601MOL0     H81135   3.851   4.270  10.857  2.3295 -2.4442 -0.5319
  602MOL0     O81136   1.897   7.630   0.998  0.0523 -0.0203  0.4331
  602MOL0     C81137   1.972   7.730   0.977 -0.1910  0.6566  0.5303
  602MOL0     O81138   1.974   7.795   0.851 -0.0894  0.4959  0.3166
  602MOL0     C81139   1.901   7.746   0.744  0.5477  0.2142 -0.5098
  602MOL0     C81140   1.781   7.818   0.721 -0.1110 -0.4294  0.4726
  602MOL0     C81141   1.696   7.766   0.613  0.1583 -0.5300 -0.7032
  602MOL0     C81142   1.726   7.644   0.551 -1.1169  0.6597 -0.2418
  602MOL0     O81143   1.662   7.573   0.456 -0.5396  0.0015  0.4795
  602MOL0     C81144   1.517   7.599   0.457 -0.6418  1.3561  1.0161
  602MOL0     C81145   1.433   7.498   0.373 -0.0605 -0.0068  0.5055
  602MOL0     C81146   1.287   7.488   0.412 -0.5178 -0.5381  0.0195
  602MOL0     C81147   1.219   7.618   0.364 -0.0846  0.2114 -0.4972
  602MOL0     C81148   1.076   7.636   0.410 -1.1482  0.9724  0.5968
  602MOL0     C81149   0.980   7.548   0.321  0.3377  0.2668  0.4966
  602MOL0     C81150   0.833   7.540   0.362 -0.3411 -1.1912  0.0894
  602MOL0     C81151   0.745   7.456   0.253  0.7239 -0.2252 -0.6181
  602MOL0     N81152   0.613   7.429   0.304 -0.1447  0.2059  0.9295
  602MOL0     C81153   0.519   7.525   0.347 -0.5935 -0.1065 -0.6047
  602MOL0     C81154   0.413   7.452   0.366  0.5299 -0.4866  0.4577
  602MOL0     C81155   0.280   7.512   0.406  0.0390 -0.7155 -0.5775
  602MOL0     C81156   0.278   7.536   0.559  0.0761  0.3625 -0.0217
  602MOL0     C81157   0.251   7.408   0.648 -0.7896  0.8957  0.0486
  602MOL0     C81158   0.375   7.346   0.714  1.0626 -0.6327  0.1262
  602MOL0     O81159   0.340   7.229   0.789 -0.9672 -1.0330 -0.0872
  602MOL0     C81160   0.310   7.112   0.733 -0.5066  0.1830  0.4949
  602MOL0     C81161   0.300   7.086   0.596  0.6051  0.2782  0.8731
  602MOL0     C81162   0.253   6.954   0.551  0.0230  0.2908 -0.0121
  602MOL0     C81163   0.269   6.921   0.405 -1.0240 -1.2236 -0.0530
  602MOL0     C81164   0.208   6.861   0.648 -0.1809  0.3350 -0.4360
  602MOL0     C81165   0.156   6.732   0.612  0.0241  0.5579 -0.2968
  602MOL0     O81166   0.059   6.726   0.519 -0.3353 -0.3427 -0.3695
  602MOL0     C81167   0.009   6.615   0.461  0.2652 -0.0432  0.0706
  602MOL0     C81168   0.001   6.478   0.507 -0.3804 -0.8592  0.4686
  602MOL0     C81169  -0.046   6.383   0.424  0.1832  1.0263 -1.2168
  602MOL0     C81170  -0.094   6.401   0.297 -0.4763  0.7163 -0.5856
  602MOL0     O81171  -0.142   6.290   0.222  0.2554 -0.0562 -0.1365
  602MOL0     C81172  -0.114   6.307   0.081 -0.3802  0.2161 -0.1512
  602MOL0     C81173  -0.096   6.170   0.011  0.5970  0.0713 -0.2177
  602MOL0     C81174  -0.227   6.100  -0.031 -0.2006 -0.3179  0.1653
  602MOL0     C81175  -0.198   6.000  -0.140  0.5844 -0.4818  0.7853
  602MOL0     C81176  -0.318   5.952  -0.210  0.4718  0.1280  0.5187
  602MOL0     C81177  -0.271   5.856  -0.319  0.2554  0.4686  0.0364
  602MOL0     C81178  -0.391   5.785  -0.401 -0.7474  0.1516  0.2514
  602MOL0     C81179  -0.481   5.695  -0.317  0.4737  0.0326  0.6849
  602MOL0    Cl81180  -0.399   5.564  -0.217 -0.4879 -0.3288  0.6972
  602MOL0     C81181  -0.094   6.532   0.247  0.2682 -0.3378  0.0465
  602MOL0     C81182  -0.048   6.633   0.331 -0.5095 -0.1829  0.0907
  602MOL0     O81183   0.188   6.645   0.690  0.5965  0.3533 -0.4613
  602MOL0     C81184   0.209   6.905   0.789 -0.1663  0.3884 -0.6461
  602MOL0     C81185   0.260   7.023   0.824  1.0054 -0.6886  0.3492
  602MOL0     N81186   0.447   7.315   0.345  0.4224 -0.0777  0.9567
  602MOL0     N81187   0.566   7.300   0.313  0.1623  0.6643  0.5744
  602MOL0     C81188   1.855   7.581   0.579  0.3483  1.1935 -0.8753
  602MOL0     C81189   1.936   7.634   0.678  0.1494  0.2295 -0.4402
  602MOL0     C81190   2.051   7.776   1.095 -0.2841  0.5016  0.7690
  602MOL0     C81191   2.097   7.910   1.090 -0.9941  0.9070 -1.2359
  602MOL0     C81192   2.174   7.966   1.198  0.3839 -0.3736  0.1190
  602MOL0     C81193   2.212   7.880   1.303 -0.5867  0.3799 -0.2566
  602MOL0     O81194   2.307   7.934   1.388 -0.0017  0.1577  0.5124
  602MOL0     C81195   2.413   7.851   1.439 -0.7388  0.4297 -0.2227
  602MOL0     C81196   2.368   7.796   1.571  0.2126  0.0042  0.3276
  602MOL0     C81197   2.377   7.890   1.686  0.5349 -0.5751 -0.2110
  602MOL0     C81198   2.378   7.824   1.824  0.3238  0.8813  1.0500
  602MOL0     C81199   2.360   7.915   1.934 -0.7419  0.9469  0.1439
  602MOL0     C81200   2.344   7.980   2.035 -0.8647  0.1672 -0.4701
  602MOL0     C81201   2.164   7.749   1.304 -0.4782  0.1447 -0.1137
  602MOL0     C81202   2.079   7.698   1.201 -0.7499  0.1037 -0.4154
  602MOL0     H81203   1.753   7.901   0.784 -3.0924 -1.3310  0.4653
  602MOL0     H81204   1.598   7.805   0.587 -1.2606 -4.0588 -1.0758
  602MOL0     H81205   1.480   7.596   0.560 -0.3051  1.0815  1.1344
  602MOL0     H81206   1.489   7.691   0.405  0.0538  0.8760 -0.2480
  602MOL0     H81207   1.449   7.529   0.269  1.1623 -1.8194  0.0915
  602MOL0     H81208   1.490   7.408   0.396  0.3845 -0.7477 -2.8480
  602MOL0     H81209   1.234   7.409   0.358 -3.5126  1.8487 -0.8728
  602MOL0     H81210   1.270   7.477   0.519 -0.5496  0.3799  0.1238
  602MOL0     H81211   1.271   7.702   0.411  0.3704  0.3156 -1.1717
  602MOL0     H81212   1.232   7.618   0.256 -0.7685  1.4072 -0.5942
  602MOL0     H81213   1.076   7.607   0.516 -1.5663 -1.1892  0.0637
  602MOL0     H81214   1.039   7.739   0.408 -1.4463  0.8792  1.1605
  602MOL0     H81215   0.990   7.608   0.230  2.2484  0.3213  0.7075
  602MOL0     H81216   1.018   7.447   0.300 -1.6248 -0.5042  0.3793
  602MOL0     H81217   0.823   7.483   0.455 -1.1861  0.9327  1.3691
  602MOL0     H81218   0.803   7.644   0.377  4.5376  0.0444  3.9009
  602MOL0     H81219   0.798   7.363   0.228  2.5648 -0.6386  3.9110
  602MOL0     H81220   0.745   7.516   0.162  0.5851  1.1996  0.2980
  602MOL0     H81221   0.532   7.631   0.362  0.2045 -0.1566 -0.9037
  602MOL0     H81222   0.254   7.603   0.350 -0.7915 -0.2091  0.5998
  602MOL0     H81223   0.203   7.442   0.372 -0.9499  0.7451 -1.4938
  602MOL0     H81224   0.200   7.610   0.581 -1.9108 -1.3735 -0.9029
  602MOL0     H81225   0.371   7.583   0.592  0.0172  0.5188 -0.0740
  602MOL0     H81226   0.209   7.330   0.584  2.8564 -1.7435  0.5890
  602MOL0     H81227   0.189   7.433   0.735 -2.2737  0.4418 -0.8435
  602MOL0     H81228   0.412   7.425   0.781 -2.7875  0.9960  0.5972
  602MOL0     H81229   0.435   7.329   0.624 -0.8048  0.9152 -1.5127
  602MOL0     H81230   0.330   7.154   0.517 -1.1457 -1.2958 -1.2984
  602MOL0     H81231   0.171   6.929   0.358 -1.5558  1.8230  1.2662
  602MOL0     H81232   0.339   6.990   0.356  0.4889 -1.1348  2.0706
  602MOL0     H81233   0.324   6.827   0.394  1.6237  0.0059  1.5077
  602MOL0     H81234   0.033   6.448   0.606  2.5352  0.0925 -0.0962
  602MOL0     H81235  -0.042   6.279   0.456 -1.8086  0.7380 -1.7994
  602MOL0     H81236  -0.197   6.366   0.041  0.7611  1.0825 -1.2946
  602MOL0     H81237  -0.018   6.357   0.063  0.1578  0.4277  2.7656
  602MOL0     H81238  -0.037   6.180  -0.081  3.3133  0.3507  1.4604
  602MOL0     H81239  -0.044   6.102   0.079 -0.9311 -1.7079 -0.7497
  602MOL0     H81240  -0.304   6.174  -0.054  0.0346 -0.3261 -0.6700
  602MOL0     H81241  -0.263   6.044   0.056 -1.3520 -2.7396 -1.7485
  602MOL0     H81242  -0.136   6.037  -0.222 -0.3854  3.2126  1.5366
  602MOL0     H81243  -0.146   5.909  -0.107 -0.3282 -1.1519  0.4350
  602MOL0     H81244  -0.389   6.028  -0.246 -1.4193 -1.7778  0.0091
  602MOL0     H81245  -0.371   5.884  -0.143  0.5806 -4.1461 -3.2707
  602MOL0     H81246  -0.214   5.914  -0.393  3.2048  1.1538  2.6173
  602MOL0     H81247  -0.200   5.782  -0.282 -1.5379 -2.6093 -2.2362
  602MOL0     H81248  -0.360   5.716  -0.481 -4.6478 -1.0617 -0.4362
  602MOL0     H81249  -0.456   5.857  -0.451  0.7018  0.7489 -0.8676
  602MOL0     H81250  -0.541   5.641  -0.391 -0.7521  1.4752  0.5812
  602MOL0     H81251  -0.544   5.757  -0.252  2.3306  1.2687  1.3937
  602MOL0     H81252  -0.140   6.552   0.151 -0.6356 -0.6937  0.3990
  602MOL0     H81253  -0.068   6.735   0.301  1.1466 -0.1624 -1.0759
  602MOL0     H81254   0.181   6.842   0.872  1.7504  4.5469  3.6391
  602MOL0     H81255   0.256   7.061   0.926 -5.0531  4.5723 -1.2022
  602MOL0     H81256   1.892   7.492   0.529  1.6203  0.6767  0.8824
  602MOL0     H81257   2.039   7.603   0.692  0.6631  1.8370 -0.3832
  602MOL0     H81258   2.081   7.976   1.005 -1.2615 -0.7534 -2.5105
  602MOL0     H81259   2.219   8.064   1.189  0.6209 -0.5934 -1.2414
  602MOL0     H81260   2.436   7.772   1.367 -2.1948 -0.3951  0.1766
  602MOL0     H81261   2.497   7.919   1.455  0.6826 -1.7011  1.9558
  602MOL0     H81262   2.435   7.713   1.597  0.1718  0.1285  0.8344
  602MOL0     H81263   2.265   7.761   1.564  0.7783 -2.1482  1.7315
  602MOL0     H81264   2.287   7.953   1.693  1.6112  1.0090  0.0333
  602MOL0     H81265   2.465   7.954   1.688  0.4154 -0.0582  5.5239
  602MOL0     H81266   2.469   7.766   1.842  0.8867  1.3557 -0.2074
  602MOL0     H81267   2.292   7.756   1.826  1.4445 -0.5728  1.1300
  602MOL0     H81268   2.341   8.041   2.122  5.0668  1.1556 -0.5338
  602MOL0     H81269   2.187   7.684   1.388  0.9399 -0.1138 -0.6768
  602MOL0     H81270   2.058   7.592   1.213  0.5292 -0.0270  0.9050
  603MOL0     O81271   3.411   9.192   1.700  0.5989 -0.4434 -0.4493
  603MOL0     C81272   3.416   9.162   1.586  0.0484  0.3142 -0.3624
  603MOL0     O81273   3.309   9.165   1.498  0.1952  0.1835 -0.8998
  603MOL0     C81274   3.175   9.167   1.536 -0.7475 -1.2222  0.5655
  603MOL0     C81275   3.097   9.251   1.457 -0.3495  0.0600  0.5648
  603MOL0     C81276   2.965   9.268   1.491  0.0658  1.7144 -0.1961
  603MOL0     C81277   2.911   9.211   1.608 -0.1907 -0.5160  0.1517
  603MOL0     O81278   2.788   9.233   1.648  0.1341 -0.0357 -0.2608
  603MOL0     C81279   2.690   9.278   1.552  0.0446  0.1739  0.7649
  603MOL0     C81280   2.551   9.243   1.611 -0.5816  0.2680  0.0001
  603MOL0     C81281   2.512   9.321   1.735  0.6111  0.5526 -0.4007
  603MOL0     C81282   2.364   9.291   1.760  0.2820 -0.1013  0.4177
  603MOL0     C81283   2.294   9.388   1.864 -0.3546  1.1284  0.2674
  603MOL0     C81284   2.152   9.342   1.889  0.0403  0.1789 -0.8494
  603MOL0     C81285   2.069   9.406   1.783 -0.3740 -0.7166 -0.3238
  603MOL0     C81286   1.922   9.346   1.761 -0.9441 -0.2208  0.5715
  603MOL0     N81287   1.824   9.401   1.854 -0.1498  0.6318  0.6788
  603MOL0     C81288   1.795   9.335   1.972  0.8908  0.8374  0.9180
  603MOL0     C81289   1.703   9.416   2.036 -0.5904  0.4026  0.0741
  603MOL0     C81290   1.657   9.428   2.176  0.3451  1.0847 -0.1625
  603MOL0     C81291   1.532   9.337   2.190  0.1101 -0.2008  0.2659
  603MOL0     C81292   1.403   9.398   2.125 -0.1392 -0.0799  0.5511
  603MOL0     C81293   1.271   9.326   2.165  0.7456 -0.3029 -0.1373
  603MOL0     O81294   1.169   9.360   2.066  0.0241 -0.3562 -0.6637
  603MOL0     C81295   1.043   9.366   2.111  0.8471 -0.4722 -0.3260
  603MOL0     C81296   0.960   9.450   2.034  0.2083  0.4187  0.1939
  603MOL0     C81297   0.828   9.478   2.063  0.3056 -0.2459  0.3497
  603MOL0     C81298   0.766   9.584   1.975  0.9113  0.0666  0.0103
  603MOL0     C81299   0.764   9.410   2.168  0.3775 -0.2791 -0.6208
  603MOL0     C81300   0.615   9.425   2.206  0.0840 -0.0783 -0.0467
  603MOL0     O81301   0.569   9.340   2.301  0.5206 -0.6226  0.0020
  603MOL0     C81302   0.446   9.372   2.366  0.2691  0.2780 -0.1834
  603MOL0     C81303   0.325   9.401   2.300  0.8316  1.3281  0.0184
  603MOL0     C81304   0.203   9.421   2.373  0.3190  0.0576 -0.1395
  603MOL0     C81305   0.199   9.416   2.512  0.5766  0.3854 -0.5981
  603MOL0     O81306   0.095   9.441   2.598  0.0973 -0.4341  0.2128
  603MOL0     C81307  -0.037   9.455   2.539  0.0031  0.9246  0.4698
  603MOL0     C81308  -0.139   9.450   2.645 -0.8426  0.7755 -0.4319
  603MOL0     C81309  -0.269   9.424   2.579 -0.1419 -0.0904 -0.3359
  603MOL0     C81310  -0.377   9.442   2.693 -0.0915 -0.1182  0.0734
  603MOL0     C81311  -0.518   9.428   2.628 -0.3249 -0.7062  0.3100
  603MOL0     C81312  -0.631   9.420   2.732 -0.7143  0.6165 -0.8644
  603MOL0     C81313  -0.634   9.547   2.819 -0.2833 -0.6501 -0.3201
  603MOL0     C81314  -0.757   9.571   2.907 -0.2227  0.4573 -0.0018
  603MOL0    Cl81315  -0.763   9.464   3.046 -0.1888  0.0192  0.1767
  603MOL0     C81316   0.328   9.403   2.579  0.7337  1.1545  0.1956
  603MOL0     C81317   0.440   9.375   2.505  0.0478 -0.6186 -0.0263
  603MOL0     O81318   0.547   9.518   2.155  0.7233  0.3881 -0.1004
  603MOL0     C81319   0.844   9.317   2.237  0.2082 -1.2380 -0.3945
  603MOL0     C81320   0.985   9.305   2.220 -0.0796  0.7572 -0.0139
  603MOL0     N81321   1.677   9.516   1.945 -1.4908 -1.0564  0.1658
  603MOL0     N81322   1.747   9.509   1.841 -0.5845 -0.4730  0.5604
  603MOL0     C81323   2.990   9.148   1.696 -0.2382 -0.3827  0.4294
  603MOL0     C81324   3.123   9.123   1.657  0.7343  0.5399 -0.0689
  603MOL0     C81325   3.546   9.112   1.533  0.8608 -0.9985  0.3295
  603MOL0     C81326   3.580   9.118   1.399 -0.4231 -0.7789 -0.1672
  603MOL0     C81327   3.699   9.071   1.356 -0.3258 -0.0398  0.1682
  603MOL0     C81328   3.790   9.011   1.439  0.1555 -0.8945 -0.1649
  603MOL0     O81329   3.917   8.983   1.389  0.7166  1.1089 -0.3811
  603MOL0     C81330   4.018   8.928   1.477  1.0496 -0.8327  0.5483
  603MOL0     C81331   4.139   8.885   1.402 -0.7309  0.0407  0.5294
  603MOL0     C81332   4.209   8.996   1.325  0.1393  0.4096  0.1062
  603MOL0     C81333   4.340   8.945   1.269 -0.3307 -0.0176  0.4757
  603MOL0     C81334   4.399   9.045   1.189  0.3218 -0.2124 -0.4307
  603MOL0     C81335   4.446   9.139   1.121 -0.3797  0.2208  0.3893
  603MOL0     C81336   3.754   9.004   1.575  0.3141  0.0228 -0.0752
  603MOL0     C81337   3.632   9.049   1.623  0.8926  0.0019  0.0580
  603MOL0     H81338   3.130   9.297   1.364 -0.5597 -1.4921 -0.3132
  603MOL0     H81339   2.910   9.344   1.437  1.2120  0.6880 -2.9497
  603MOL0     H81340   2.691   9.385   1.528  1.2655 -0.3504 -1.8499
  603MOL0     H81341   2.716   9.224   1.460  0.1749  0.8737  0.3870
  603MOL0     H81342   2.469   9.254   1.540 -0.9927 -1.4284  0.1614
  603MOL0     H81343   2.553   9.135   1.630  0.1964  0.1838 -0.4782
  603MOL0     H81344   2.561   9.295   1.830 -0.6188  0.8790  0.3462
  603MOL0     H81345   2.515   9.429   1.721 -1.5356  0.9535  1.6381
  603MOL0     H81346   2.307   9.302   1.667 -0.2123 -0.8645  0.6188
  603MOL0     H81347   2.360   9.184   1.782  1.9581 -0.6885 -1.8268
  603MOL0     H81348   2.349   9.384   1.959  1.7909 -3.0575 -0.8860
  603MOL0     H81349   2.299   9.486   1.816 -0.4981  1.0060  0.0047
  603MOL0     H81350   2.136   9.234   1.881 -1.4146  0.3066  0.0835
  603MOL0     H81351   2.119   9.361   1.991  0.8884  1.5372 -0.7947
  603MOL0     H81352   2.057   9.513   1.806  1.8534 -1.0382  2.8637
  603MOL0     H81353   2.122   9.398   1.688 -1.3351  1.4130 -1.1291
  603MOL0     H81354   1.926   9.238   1.774  0.7524 -0.2505  0.0870
  603MOL0     H81355   1.884   9.370   1.661 -0.3809 -0.4643  0.2927
  603MOL0     H81356   1.851   9.251   2.010  0.2190 -1.2656 -2.3732
  603MOL0     H81357   1.738   9.384   2.235  1.8513  2.3710 -1.2053
  603MOL0     H81358   1.626   9.526   2.212  0.4827  0.6161  1.2906
  603MOL0     H81359   1.513   9.312   2.295  1.4035  1.3241  0.9076
  603MOL0     H81360   1.557   9.239   2.149 -1.7628  0.4844 -2.7858
  603MOL0     H81361   1.409   9.408   2.016  5.3980 -0.7971  0.4735
  603MOL0     H81362   1.397   9.497   2.170  0.4179 -0.1085  0.7033
  603MOL0     H81363   1.239   9.365   2.262  0.3927 -0.5113 -0.1675
  603MOL0     H81364   1.280   9.217   2.177 -1.7273 -0.3651  1.9794
  603MOL0     H81365   1.013   9.507   1.958 -0.1430 -1.0696 -1.2295
  603MOL0     H81366   0.676   9.555   1.919  1.1612  0.4031 -0.5743
  603MOL0     H81367   0.732   9.660   2.046 -2.3836 -1.9362  0.8399
  603MOL0     H81368   0.846   9.615   1.908  0.3632  0.9795 -0.2411
  603MOL0     H81369   0.328   9.412   2.192 -0.0887  2.4930  0.0968
  603MOL0     H81370   0.114   9.434   2.312 -1.3282 -2.6021  1.5125
  603MOL0     H81371  -0.059   9.552   2.495 -2.5578  0.4664  0.6177
  603MOL0     H81372  -0.041   9.365   2.477 -0.4412  1.4706 -0.2955
  603MOL0     H81373  -0.119   9.361   2.706  0.4808  1.1419 -0.2938
  603MOL0     H81374  -0.142   9.538   2.710 -3.5518  1.4030 -1.3135
  603MOL0     H81375  -0.275   9.325   2.533  0.0200 -1.0011  1.5178
  603MOL0     H81376  -0.282   9.501   2.502  0.6335 -0.4155 -0.8060
  603MOL0     H81377  -0.362   9.363   2.767  1.1765  0.5091  0.5030
  603MOL0     H81378  -0.362   9.536   2.747  4.2768 -0.3683 -0.3432
  603MOL0     H81379  -0.519   9.352   2.549  0.4019  2.6420 -3.2059
  603MOL0     H81380  -0.540   9.525   2.582  0.3912  0.3022  1.9957
  603MOL0     H81381  -0.728   9.418   2.681 -0.4690  0.3997 -1.3303
  603MOL0     H81382  -0.626   9.325   2.786  1.1532 -0.5142 -2.8591
  603MOL0     H81383  -0.601   9.629   2.754 -0.7353  0.1323  0.4309
  603MOL0     H81384  -0.553   9.527   2.890  1.6870 -0.9833 -2.5110
  603MOL0     H81385  -0.843   9.549   2.842 -0.2850 -2.7774  1.0219
  603MOL0     H81386  -0.776   9.672   2.945  0.4556  0.3732  0.5805
  603MOL0     H81387   0.339   9.408   2.687 -1.3593  2.7104  0.4011
  603MOL0     H81388   0.526   9.355   2.567 -1.5318 -2.4246  1.7122
  603MOL0     H81389   0.785   9.256   2.305 -0.1034  0.9204  1.3851
  603MOL0     H81390   1.045   9.239   2.282 -1.0310  0.6046  0.7805
  603MOL0     H81391   2.954   9.124   1.795 -0.7462 -0.0511  0.3283
  603MOL0     H81392   3.185   9.058   1.718  1.7541  1.1080 -0.4642
  603MOL0     H81393   3.502   9.161   1.336 -0.0207 -1.7224 -1.3576
  603MOL0     H81394   3.730   9.073   1.252 -0.7555  1.3948  0.0452
  603MOL0     H81395   4.045   9.005   1.551 -3.8098  1.7244  0.0645
  603MOL0     H81396   3.979   8.851   1.544  2.2181 -0.4436  1.7265
  603MOL0     H81397   4.105   8.815   1.325 -0.4597  0.5180 -0.0419
  603MOL0     H81398   4.208   8.835   1.471 -0.2338  1.3377  1.0025
  603MOL0     H81399   4.234   9.080   1.391 -0.1274  1.4538 -1.0670
  603MOL0     H81400   4.142   9.028   1.244  0.8713  1.2216 -0.2040
  603MOL0     H81401   4.320   8.873   1.188  1.2288  0.0022  0.0493
  603MOL0     H81402   4.402   8.897   1.345 -1.4513  0.4155  1.6930
  603MOL0     H81403   4.476   9.224   1.064  1.7825 -0.4808  0.4168
  603MOL0     H81404   3.827   8.978   1.651 -0.8346 -2.1933  0.3550
  603MOL0     H81405   3.618   9.062   1.730 -1.0125  1.6452 -0.3102
  604MOL0     O81406   8.275   8.593   1.568 -0.7507  0.5942  0.2604
  604MOL0     C81407   8.272   8.668   1.473  0.2953 -0.4582  0.3887
  604MOL0     O81408   8.382   8.739   1.432 -0.0045  0.3321 -0.1400
  604MOL0     C81409   8.508   8.715   1.488 -0.0252 -0.1773  0.1014
  604MOL0     C81410   8.590   8.812   1.453 -0.6933 -0.4004 -0.5277
  604MOL0     C81411   8.732   8.811   1.492  0.4710 -0.5264 -0.0691
  604MOL0     C81412   8.777   8.713   1.583 -0.3073 -0.6913  0.4756
  604MOL0     O81413   8.904   8.713   1.637 -0.0457 -0.3141 -0.0485
  604MOL0     C81414   8.967   8.833   1.675  0.2032 -0.2920  0.9381
  604MOL0     C81415   9.114   8.809   1.721  0.4757 -0.6402 -0.0295
  604MOL0     C81416   9.163   8.910   1.827  0.2095 -0.3211  0.3686
  604MOL0     C81417   9.300   8.878   1.870  0.2291 -0.1704 -0.1072
  604MOL0     C81418   9.335   8.968   1.987 -0.1942  0.5557  0.8415
  604MOL0     C81419   9.394   9.109   1.953 -0.0643 -0.1922  0.1596
  604MOL0     C81420   9.412   9.199   2.076  0.0472 -0.6129  0.3523
  604MOL0     C81421   9.507   9.320   2.050  1.1445  0.1836 -0.6050
  604MOL0     N81422   9.459   9.413   1.950  0.0653  0.6291  0.4255
  604MOL0     C81423   9.343   9.488   1.963  0.7801 -0.0458 -0.4278
  604MOL0     C81424   9.362   9.582   1.872  1.0363  0.1738  0.7696
  604MOL0     C81425   9.273   9.699   1.848  1.0299 -0.4187  1.0216
  604MOL0     C81426   9.156   9.678   1.752  0.2539  0.4692  0.0594
  604MOL0     C81427   9.156   9.783   1.644 -0.3757  0.2518 -0.0498
  604MOL0     C81428   9.069   9.737   1.529 -0.4435 -0.4135  0.0060
  604MOL0     O81429   9.055   9.849   1.438 -0.1928 -0.6431 -0.5391
  604MOL0     C81430   8.970   9.836   1.331 -0.2083 -0.5316 -1.0871
  604MOL0     C81431   8.941   9.715   1.274  0.6629 -0.2540 -0.1830
  604MOL0     C81432   8.833   9.717   1.183  0.1320  0.2158  0.1523
  604MOL0     C81433   8.791   9.578   1.141 -0.2522  0.5859 -0.0616
  604MOL0     C81434   8.777   9.844   1.143  0.2214  0.4546  0.0151
  604MOL0     C81435   8.656   9.855   1.058  0.1939  0.2573 -0.7422
  604MOL0     O81436   8.630   9.970   0.995  0.2123  0.2482 -0.0555
  604MOL0     C81437   8.517   9.980   0.921 -0.0866  0.5429  0.1186
  604MOL0     C81438   8.521   9.988   0.785 -0.2681 -0.0119  0.7407
  604MOL0     C81439   8.403  10.001   0.706  0.0670 -0.4149  0.1506
  604MOL0     C81440   8.275  10.034   0.764  0.1120 -0.0345  0.0359
  604MOL0     O81441   8.166  10.072   0.691  0.0263 -0.3703  0.0093
  604MOL0     C81442   8.045  10.102   0.746  0.6210  0.0516 -0.2497
  604MOL0     C81443   7.959   9.969   0.755 -0.0988 -0.5523  1.0167
  604MOL0     C81444   7.833   9.996   0.839 -0.6200 -0.0383 -0.1431
  604MOL0     C81445   7.734  10.072   0.746  0.1178  0.3516  0.8381
  604MOL0     C81446   7.598  10.124   0.826 -0.1840 -0.5869 -0.2808
  604MOL0     C81447   7.497  10.015   0.837 -0.2190 -0.3824  1.3481
  604MOL0     C81448   7.400  10.037   0.950 -0.5647 -0.3971  0.1092
  604MOL0     C81449   7.293  10.140   0.930  0.2378  0.3887 -0.4926
  604MOL0    Cl81450   7.196  10.112   0.781  0.2326  0.5344 -0.4782
  604MOL0     C81451   8.275  10.027   0.906 -0.7377  0.4308  0.2757
  604MOL0     C81452   8.393   9.997   0.983  0.3863 -0.4654  0.0858
  604MOL0     O81453   8.577   9.758   1.049  0.0831  0.0941  0.1362
  604MOL0     C81454   8.817   9.964   1.195  0.1938 -0.3401 -1.0391
  604MOL0     C81455   8.908   9.959   1.300  1.2266 -0.3076 -0.8458
  604MOL0     N81456   9.477   9.563   1.796  0.0592 -0.4852 -0.1119
  604MOL0     N81457   9.539   9.469   1.851 -0.1905 -0.2981 -0.4808
  604MOL0     C81458   8.690   8.609   1.612 -0.5030 -0.4717  0.4405
  604MOL0     C81459   8.554   8.609   1.565 -0.6802 -0.4024  0.3294
  604MOL0     C81460   8.148   8.675   1.391  0.5629  0.1050  0.2284
  604MOL0     C81461   8.043   8.581   1.435  0.1871  0.7312 -0.3922
  604MOL0     C81462   7.916   8.595   1.371  1.6941 -0.5182 -1.0127
  604MOL0     C81463   7.890   8.680   1.262 -0.1267  0.4331 -0.9240
  604MOL0     O81464   7.771   8.702   1.202 -0.2426 -0.0279  0.1065
  604MOL0     C81465   7.651   8.631   1.249 -0.9247 -0.6918  0.8782
  604MOL0     C81466   7.544   8.643   1.142  0.4861  1.7021 -0.7368
  604MOL0     C81467   7.409   8.590   1.195 -0.6893  0.8254 -0.7413
  604MOL0     C81468   7.291   8.641   1.101  0.9278  1.1543 -0.4077
  604MOL0     C81469   7.168   8.578   1.135  0.5125 -0.3350  1.3137
  604MOL0     C81470   7.066   8.522   1.177  0.4038  0.2822  0.5349
  604MOL0     C81471   7.995   8.767   1.225 -0.2614 -0.0540 -0.0743
  604MOL0     C81472   8.119   8.760   1.283  0.7526 -0.2387 -0.4480
  604MOL0     H81473   8.553   8.889   1.385  0.5010 -0.2599 -1.0468
  604MOL0     H81474   8.801   8.888   1.459  0.4140 -0.4039  0.0965
  604MOL0     H81475   8.969   8.906   1.593  1.0261 -0.3563  0.8973
  604MOL0     H81476   8.910   8.874   1.759  1.1211  0.3944  1.2393
  604MOL0     H81477   9.109   8.709   1.766 -0.8861 -0.1474  0.9858
  604MOL0     H81478   9.192   8.810   1.644  0.5631  2.9323 -0.0336
  604MOL0     H81479   9.159   9.009   1.780  0.6958  0.0194  1.0336
  604MOL0     H81480   9.099   8.913   1.915  0.7179  0.6119  0.7143
  604MOL0     H81481   9.285   8.778   1.912 -2.6980  0.1857 -0.1329
  604MOL0     H81482   9.380   8.885   1.795  3.3181  3.7946  3.0556
  604MOL0     H81483   9.249   8.976   2.054 -3.4510 -0.7014 -2.8427
  604MOL0     H81484   9.421   8.921   2.037  1.0167 -0.3041 -1.8640
  604MOL0     H81485   9.492   9.083   1.910 -1.2513 -2.3921 -1.4158
  604MOL0     H81486   9.335   9.163   1.878 -1.8484 -1.0445  0.8948
  604MOL0     H81487   9.314   9.235   2.108  0.5315  0.6463  0.4794
  604MOL0     H81488   9.449   9.144   2.162 -0.2132 -0.7417  0.3825
  604MOL0     H81489   9.603   9.277   2.018  0.7268 -2.6760  1.5802
  604MOL0     H81490   9.524   9.374   2.144  2.5040 -1.1658 -0.0213
  604MOL0     H81491   9.259   9.482   2.031 -0.4256  4.9831 -1.0239
  604MOL0     H81492   9.229   9.725   1.945 -0.4735 -1.3941  0.6343
  604MOL0     H81493   9.341   9.780   1.818  0.7381  0.4178  2.5144
  604MOL0     H81494   9.067   9.681   1.815  0.9263 -1.9158  1.2398
  604MOL0     H81495   9.150   9.578   1.707 -1.2157  0.2980  0.5740
  604MOL0     H81496   9.257   9.809   1.611 -0.8209 -1.1940 -2.7743
  604MOL0     H81497   9.112   9.876   1.682 -2.3074  0.8516 -3.4017
  604MOL0     H81498   8.970   9.709   1.564 -1.3819  2.9011  0.3023
  604MOL0     H81499   9.110   9.643   1.490  0.4558 -0.7484  1.6756
  604MOL0     H81500   8.990   9.627   1.314 -1.3084 -1.3192  0.0035
  604MOL0     H81501   8.869   9.509   1.174 -1.1683 -0.3085  0.2749
  604MOL0     H81502   8.704   9.543   1.198  0.1418 -1.6524 -0.7089
  604MOL0     H81503   8.780   9.574   1.032  0.3170  2.2132 -0.1964
  604MOL0     H81504   8.619   9.981   0.738 -0.4160  0.4892  0.3543
  604MOL0     H81505   8.417  10.027   0.602  2.9084  0.6093  0.7122
  604MOL0     H81506   8.057  10.157   0.839 -0.1583  1.9840 -1.2450
  604MOL0     H81507   7.998  10.172   0.676 -0.6435 -2.5328 -2.1883
  604MOL0     H81508   7.942   9.918   0.660 -4.3928  1.3850  0.5577
  604MOL0     H81509   8.030   9.908   0.812  1.7440  2.8215  2.6729
  604MOL0     H81510   7.869  10.051   0.927  0.7337 -1.2645  0.1145
  604MOL0     H81511   7.787   9.908   0.885  0.8790 -1.2363 -0.8411
  604MOL0     H81512   7.779  10.164   0.705 -0.2697  0.5242  0.7983
  604MOL0     H81513   7.705  10.001   0.669 -1.6824  3.3181 -1.4423
  604MOL0     H81514   7.562  10.211   0.769 -1.6611 -0.5381  0.6752
  604MOL0     H81515   7.630  10.158   0.925  1.8494 -0.5230 -0.8951
  604MOL0     H81516   7.451   9.985   0.742  1.0778  2.3960 -0.2701
  604MOL0     H81517   7.565   9.936   0.869  1.6175  1.0091  1.0395
  604MOL0     H81518   7.462  10.071   1.033  0.2383  1.3382 -1.1612
  604MOL0     H81519   7.359   9.938   0.973  0.0029 -1.0378 -1.4820
  604MOL0     H81520   7.345  10.236   0.926  1.6758 -0.3386  0.1378
  604MOL0     H81521   7.221  10.145   1.013 -3.2114 -2.9535 -2.9400
  604MOL0     H81522   8.183  10.039   0.961 -0.0071 -2.7799  2.4854
  604MOL0     H81523   8.382   9.990   1.091  0.4384  1.3857  0.2528
  604MOL0     H81524   8.779  10.062   1.169  0.5622 -0.4417 -2.0432
  604MOL0     H81525   8.929  10.054   1.347  0.0577  0.9701 -2.7755
  604MOL0     H81526   8.735   8.524   1.662 -1.7158 -1.0233  0.6326
  604MOL0     H81527   8.499   8.522   1.599  0.6535 -1.5149 -0.2561
  604MOL0     H81528   8.065   8.512   1.515 -2.1072 -0.7165 -0.9248
  604MOL0     H81529   7.844   8.523   1.408  0.9607 -0.2728 -1.9398
  604MOL0     H81530   7.680   8.528   1.270  1.4504  0.1906  2.3402
  604MOL0     H81531   7.635   8.679   1.346  3.8149  2.6351  0.3309
  604MOL0     H81532   7.564   8.575   1.059 -0.9011 -0.9492  0.9521
  604MOL0     H81533   7.539   8.747   1.109 -0.1590  1.9489  0.1122
  604MOL0     H81534   7.387   8.620   1.298 -1.0271  0.5228 -0.7235
  604MOL0     H81535   7.396   8.481   1.201  0.2821  0.7756  1.6243
  604MOL0     H81536   7.313   8.609   0.999  1.6319  0.5581 -0.0765
  604MOL0     H81537   7.278   8.749   1.112 -1.0586  0.9029  0.1616
  604MOL0     H81538   6.977   8.466   1.200 -0.7852  1.9016  0.0520
  604MOL0     H81539   7.976   8.825   1.135 -0.7943  0.5552  0.4190
  604MOL0     H81540   8.193   8.829   1.245 -0.3312  2.7054  2.2932
  605MOL0     O81541   9.970   9.347   9.765 -0.2073  0.9609  0.0011
  605MOL0     C81542   9.956   9.379   9.882 -0.0738 -0.1713  0.8197
  605MOL0     O81543   9.873   9.317   9.968 -0.3639 -0.0872 -0.5525
  605MOL0     C81544   9.799   9.219   9.918 -0.1104  0.5612  0.7712
  605MOL0     C81545   9.674   9.254   9.870  0.6268  0.7839 -0.4236
  605MOL0     C81546   9.596   9.152   9.824  0.0395 -0.3163 -0.0505
  605MOL0     C81547   9.644   9.018   9.817  0.2767  0.4054  0.0481
  605MOL0     O81548   9.564   8.907   9.790 -0.1218 -0.2041  0.1457
  605MOL0     C81549   9.475   8.914   9.676 -0.2266 -0.2786  0.2280
  605MOL0     C81550   9.536   8.837   9.563 -0.6438  0.1485 -0.3038
  605MOL0     C81551   9.434   8.784   9.462  0.2990 -0.0899  0.1385
  605MOL0     C81552   9.403   8.629   9.485 -0.9605 -0.5944  0.8132
  605MOL0     C81553   9.276   8.590   9.407 -1.1183 -0.7655 -0.5363
  605MOL0     C81554   9.232   8.452   9.451 -0.2067 -0.0237  0.0683
  605MOL0     C81555   9.128   8.446   9.566 -0.5835 -0.1725 -1.0263
  605MOL0     C81556   9.064   8.317   9.557  0.0471 -0.2985 -0.3553
  605MOL0     N81557   9.005   8.273   9.677 -0.0116 -0.0379 -1.1545
  605MOL0     C81558   8.905   8.338   9.747 -1.0504  0.2396  0.2853
  605MOL0     C81559   8.877   8.250   9.855  0.6667 -1.2908  0.0689
  605MOL0     C81560   8.772   8.274   9.961 -0.3478 -0.5864  0.0022
  605MOL0     C81561   8.661   8.173   9.961 -0.4148  0.1248  0.9483
  605MOL0     C81562   8.677   8.075  10.074 -0.2741  0.2575 -0.3366
  605MOL0     C81563   8.583   7.955  10.068  0.5115 -0.0655  0.4500
  605MOL0     O81564   8.451   7.999  10.064 -0.3146 -0.6609 -0.1001
  605MOL0     C81565   8.343   7.914  10.081 -1.2676  0.7323 -0.0755
  605MOL0     C81566   8.352   7.776  10.116  1.2492  0.6441  0.8216
  605MOL0     C81567   8.243   7.680  10.122 -1.0711 -0.4501  0.3327
  605MOL0     C81568   8.286   7.546  10.172 -1.0153  0.2888 -0.7966
  605MOL0     C81569   8.112   7.728  10.086 -1.7919  0.5504  0.4086
  605MOL0     C81570   7.997   7.642  10.092 -0.1395  0.0363  1.0775
  605MOL0     O81571   7.885   7.685  10.033  0.8304  0.2179  0.3843
  605MOL0     C81572   7.772   7.602  10.023  0.7770 -1.0621 -0.3004
  605MOL0     C81573   7.737   7.555   9.900 -0.0232  0.2874 -0.0902
  605MOL0     C81574   7.615   7.496   9.867 -0.0571 -0.6995 -0.6122
  605MOL0     C81575   7.518   7.479   9.968 -0.7409  0.3378  0.4640
  605MOL0     O81576   7.402   7.419   9.936 -0.3649  0.5389  0.2769
  605MOL0     C81577   7.391   7.295  10.017 -0.2947  0.7992  0.2777
  605MOL0     C81578   7.261   7.222   9.988  0.5802 -1.0709 -0.0144
  605MOL0     C81579   7.217   7.138  10.114 -0.4265 -0.2406 -0.3035
  605MOL0     C81580   7.078   7.078  10.075 -0.2946 -0.0722 -0.9978
  605MOL0     C81581   7.016   6.981  10.171 -0.0735 -0.2636  0.2357
  605MOL0     C81582   6.877   6.924  10.142 -0.4907 -0.6491  0.0547
  605MOL0     C81583   6.845   6.816  10.256  0.4845 -0.4021  0.1445
  605MOL0     C81584   6.697   6.783  10.259 -0.7344  0.0482 -0.3877
  605MOL0    Cl81585   6.655   6.670  10.126  0.0802 -0.1593  0.5039
  605MOL0     C81586   7.554   7.528  10.098  0.0664  0.3873  0.7353
  605MOL0     C81587   7.678   7.583  10.123  0.6030 -0.5404  0.6130
  605MOL0     O81588   8.005   7.543  10.163 -0.1673  0.0782  0.2953
  605MOL0     C81589   8.103   7.869  10.041 -0.5506  0.2360 -0.3187
  605MOL0     C81590   8.215   7.957  10.044  1.1645  0.5712 -0.2811
  605MOL0     N81591   8.956   8.140   9.850 -0.9577  0.3175 -0.0551
  605MOL0     N81592   9.028   8.150   9.743  0.3832 -0.1485  0.9791
  605MOL0     C81593   9.773   8.998   9.861  0.8526  0.9480 -0.1445
  605MOL0     C81594   9.853   9.098   9.917  0.2980  0.5787 -0.0754
  605MOL0     C81595  10.057   9.462   9.940  0.2113  0.5081 -0.1424
  605MOL0     C81596  10.178   9.488   9.877  0.3623 -0.2910  1.1206
  605MOL0     C81597  10.280   9.569   9.926  0.0864 -0.0898 -0.4128
  605MOL0     C81598  10.265   9.641  10.045  0.5386 -0.7850 -0.3808
  605MOL0     O81599  10.358   9.726  10.083 -0.7129 -0.4852  0.0407
  605MOL0     C81600  10.332   9.866  10.132  0.8083 -0.0598 -0.4744
  605MOL0     C81601  10.463   9.934  10.146  0.7183 -0.4933  0.2533
  605MOL0     C81602  10.440  10.076  10.175  1.3087  0.2572  1.0447
  605MOL0     C81603  10.583  10.141  10.201  0.0224  0.2002 -0.5740
  605MOL0     C81604  10.627  10.112  10.338  0.0238 -1.0280  0.3620
  605MOL0     C81605  10.677  10.083  10.445  0.8313  0.5292  0.0877
  605MOL0     C81606  10.141   9.617  10.107  0.1670  0.0262  0.3401
  605MOL0     C81607  10.034   9.532  10.059 -0.9857 -0.1417  0.3267
  605MOL0     H81608   9.645   9.358   9.873 -0.6112  0.5197 -2.0068
  605MOL0     H81609   9.497   9.181   9.789 -0.4234 -0.6741  0.9180
  605MOL0     H81610   9.382   8.868   9.709  2.0387 -4.4642  1.6213
  605MOL0     H81611   9.462   9.017   9.641 -3.2941 -1.0512 -1.2506
  605MOL0     H81612   9.607   8.893   9.502  0.2774  0.1581  0.7489
  605MOL0     H81613   9.598   8.756   9.601 -0.7153  0.9348  1.6046
  605MOL0     H81614   9.346   8.849   9.469  1.0024  1.0232 -1.1976
  605MOL0     H81615   9.471   8.801   9.361 -1.8214  3.0033 -0.2608
  605MOL0     H81616   9.493   8.569   9.475  0.1335  0.6488  2.5994
  605MOL0     H81617   9.379   8.619   9.591 -1.9011 -1.1132  0.5628
  605MOL0     H81618   9.194   8.658   9.430  0.7353  1.7135 -0.9124
  605MOL0     H81619   9.302   8.592   9.300  3.0584  2.3737  0.2920
  605MOL0     H81620   9.188   8.413   9.358  1.2485 -0.3516 -0.5068
  605MOL0     H81621   9.325   8.402   9.478  1.2055  2.1017 -0.5875
  605MOL0     H81622   9.187   8.461   9.657  2.1768  1.1625 -2.8882
  605MOL0     H81623   9.054   8.526   9.558  0.7711  1.1483 -0.9329
  605MOL0     H81624   9.130   8.239   9.517  0.5633  0.3941 -0.8786
  605MOL0     H81625   8.988   8.332   9.479 -0.6942  3.2215  0.8728
  605MOL0     H81626   8.857   8.436   9.747 -2.6737 -0.5282  1.2216
  605MOL0     H81627   8.815   8.278  10.061 -0.9844  0.9013  0.2330
  605MOL0     H81628   8.730   8.374   9.945 -0.6045 -0.1730  2.7598
  605MOL0     H81629   8.659   8.126   9.862 -0.7498  0.9007  0.5763
  605MOL0     H81630   8.569   8.231   9.970 -0.1284  0.6588  0.5619
  605MOL0     H81631   8.661   8.132  10.166  1.0020 -0.2241  0.1979
  605MOL0     H81632   8.780   8.042  10.083 -0.4586 -0.1630  0.2575
  605MOL0     H81633   8.595   7.903  10.163  3.0797  3.4510  2.3042
  605MOL0     H81634   8.605   7.890   9.983 -0.3580  3.3115 -2.6352
  605MOL0     H81635   8.452   7.735  10.127  0.1919 -1.9705  1.5973
  605MOL0     H81636   8.220   7.463  10.149 -0.7560  0.4196 -2.0739
  605MOL0     H81637   8.387   7.514  10.144 -0.9809  0.4839 -0.9017
  605MOL0     H81638   8.285   7.546  10.281 -0.3258 -0.7277 -0.7764
  605MOL0     H81639   7.807   7.578   9.820  2.5332  1.9093  2.4030
  605MOL0     H81640   7.598   7.469   9.764 -0.2111  0.2080 -0.8342
  605MOL0     H81641   7.462   7.216   9.989  1.0445  2.6364 -1.8330
  605MOL0     H81642   7.386   7.322  10.123 -1.9414  1.9828 -0.0723
  605MOL0     H81643   7.193   7.305   9.967  2.3366  0.7923  1.3006
  605MOL0     H81644   7.270   7.167   9.893  0.5163  1.2510 -1.4505
  605MOL0     H81645   7.208   7.210  10.196 -1.1690 -0.7800  0.0989
  605MOL0     H81646   7.282   7.057  10.145  0.2633 -0.3846 -2.0025
  605MOL0     H81647   7.008   7.159  10.053  0.5216  0.4633 -1.6949
  605MOL0     H81648   7.084   7.010   9.990 -0.5715 -1.5999  0.1479
  605MOL0     H81649   7.004   7.046  10.259 -3.4209 -1.3010  0.6623
  605MOL0     H81650   7.080   6.894  10.185  1.6348  1.1235  1.6175
  605MOL0     H81651   6.811   7.009  10.164  0.3130 -0.0213  0.0897
  605MOL0     H81652   6.868   6.891  10.039  0.3818 -1.1335  0.1250
  605MOL0     H81653   6.872   6.863  10.351 -1.8371  0.4410  0.4565
  605MOL0     H81654   6.892   6.719  10.238 -2.9756 -2.2085  0.0975
  605MOL0     H81655   6.642   6.877  10.263  0.1800  0.5541  1.8753
  605MOL0     H81656   6.679   6.727  10.352  0.4234  3.0630  1.8093
  605MOL0     H81657   7.482   7.506  10.176 -3.1430 -2.1660 -2.5818
  605MOL0     H81658   7.704   7.628  10.218 -0.0850  3.1262 -0.8043
  605MOL0     H81659   8.009   7.922  10.028  1.1622  4.0523  1.3570
  605MOL0     H81660   8.186   8.054  10.005 -0.8370  0.4238  0.7193
  605MOL0     H81661   9.803   8.894   9.860 -0.1095  0.6158  1.6616
  605MOL0     H81662   9.951   9.076   9.958 -0.6514 -1.5527  1.1782
  605MOL0     H81663  10.193   9.445   9.778  1.8927  0.3330  1.0483
  605MOL0     H81664  10.365   9.594   9.863 -0.7612 -4.8872 -4.0893
  605MOL0     H81665  10.265   9.923  10.067  0.6161 -1.3750 -1.4849
  605MOL0     H81666  10.293   9.870  10.234  1.1254 -0.1027 -0.3502
  605MOL0     H81667  10.517   9.921  10.052 -1.0886 -1.4103 -0.7271
  605MOL0     H81668  10.522   9.880  10.220 -0.4552 -3.0552 -0.5575
  605MOL0     H81669  10.372  10.089  10.260  1.6180 -0.5476  1.4313
  605MOL0     H81670  10.392  10.129  10.092 -2.0954 -1.0034  2.0375
  605MOL0     H81671  10.577  10.249  10.186 -0.0336  0.0862 -1.4029
  605MOL0     H81672  10.653  10.106  10.125 -0.6883  2.5415 -2.4469
  605MOL0     H81673  10.705  10.056  10.545  3.1589 -0.1335 -0.6683
  605MOL0     H81674  10.116   9.666  10.200 -1.1454 -0.4332  0.2484
  605MOL0     H81675   9.946   9.505  10.117 -2.0896 -0.6049 -1.4728
  606MOL0     O81676   4.076   3.559   4.889  0.1818 -0.2990 -0.1307
  606MOL0     C81677   4.111   3.529   5.001  0.6697  0.4687 -0.1298
  606MOL0     O81678   4.022   3.497   5.104  0.4579  0.2678 -0.2595
  606MOL0     C81679   3.888   3.475   5.073 -0.0354 -0.0729 -0.0583
  606MOL0     C81680   3.798   3.556   4.992 -0.4359  0.5925  0.3142
  606MOL0     C81681   3.664   3.522   4.971  0.4781 -0.2868 -1.0738
  606MOL0     C81682   3.608   3.417   5.034  0.8111 -0.3904  0.4551
  606MOL0     O81683   3.476   3.376   5.024 -0.0778 -0.1054 -0.6260
  606MOL0     C81684   3.370   3.473   5.002 -1.0835 -0.6950 -0.7909
  606MOL0     C81685   3.247   3.391   4.965  0.1671 -0.2384 -0.1812
  606MOL0     C81686   3.274   3.293   4.846  0.1138  0.5762  0.3790
  606MOL0     C81687   3.145   3.219   4.823 -0.6643  0.4783 -0.1525
  606MOL0     C81688   3.161   3.095   4.731 -0.3692  0.1410 -1.2585
  606MOL0     C81689   3.017   3.020   4.727  0.0485  0.0348  0.9757
  606MOL0     C81690   3.059   2.875   4.669 -0.0165  0.6366  0.0355
  606MOL0     C81691   2.931   2.794   4.621  0.2363  0.4824  0.0811
  606MOL0     N81692   2.827   2.783   4.717  0.9632 -0.0412  0.5750
  606MOL0     C81693   2.810   2.690   4.814  0.0435  0.0622 -0.7051
  606MOL0     C81694   2.692   2.729   4.881 -0.9436 -0.5094  0.2093
  606MOL0     C81695   2.628   2.671   5.008  0.2298 -0.6102 -0.0091
  606MOL0     C81696   2.605   2.770   5.119 -0.6173 -0.9808  0.2642
  606MOL0     C81697   2.740   2.806   5.185  0.0135 -1.4424  0.6902
  606MOL0     C81698   2.800   2.936   5.120 -0.5276  0.9055  0.6184
  606MOL0     O81699   2.915   2.979   5.193  0.4386  0.4101  0.6386
  606MOL0     C81700   3.042   2.941   5.157  0.5082  0.5385 -0.5068
  606MOL0     C81701   3.149   3.024   5.186 -0.1767 -0.1167  0.6031
  606MOL0     C81702   3.284   2.993   5.163  0.4258 -0.2878  0.1742
  606MOL0     C81703   3.379   3.094   5.215 -1.1613 -0.6354 -0.0851
  606MOL0     C81704   3.323   2.881   5.101 -0.0389 -0.4205 -0.2415
  606MOL0     C81705   3.467   2.842   5.083  0.2831 -0.4767 -1.3772
  606MOL0     O81706   3.491   2.739   5.003  1.0725  0.0164 -0.5204
  606MOL0     C81707   3.628   2.707   4.993 -0.1906  0.5644  0.1328
  606MOL0     C81708   3.720   2.797   4.939 -0.9853 -0.0147  0.3093
  606MOL0     C81709   3.862   2.768   4.930 -0.4131 -0.2770 -0.5573
  606MOL0     C81710   3.910   2.643   4.974 -0.0082  0.9479  0.3342
  606MOL0     O81711   4.036   2.595   4.972  0.1773 -0.3218  0.0282
  606MOL0     C81712   4.144   2.698   4.953 -0.7150 -0.1970 -0.1184
  606MOL0     C81713   4.221   2.666   4.824  1.0428 -0.2329 -0.2219
  606MOL0     C81714   4.328   2.769   4.789  0.3342  0.1159  0.3686
  606MOL0     C81715   4.381   2.731   4.652  0.4710 -0.2096  0.0732
  606MOL0     C81716   4.476   2.836   4.599 -0.3561 -0.1459 -0.1180
  606MOL0     C81717   4.567   2.765   4.494 -0.8444  0.0096  0.4368
  606MOL0     C81718   4.666   2.868   4.436  0.6276 -0.0913  0.2394
  606MOL0     C81719   4.746   2.807   4.319  0.4203 -0.0924 -0.7260
  606MOL0    Cl81720   4.614   2.760   4.195 -0.4166 -0.4358  0.4846
  606MOL0     C81721   3.818   2.543   5.016  0.0872 -0.3334  0.1711
  606MOL0     C81722   3.680   2.578   5.013 -0.8875 -0.1554 -1.4165
  606MOL0     O81723   3.555   2.908   5.143  0.0646 -0.1245 -0.2780
  606MOL0     C81724   3.216   2.799   5.068  0.3453  0.3122  1.0743
  606MOL0     C81725   3.079   2.832   5.081  0.2579  0.2435 -0.1448
  606MOL0     N81726   2.657   2.855   4.824  0.1770 -0.0570  0.0878
  606MOL0     N81727   2.734   2.888   4.733 -0.9017  0.0429 -0.0654
  606MOL0     C81728   3.690   3.341   5.119 -0.1848  0.0171  0.0347
  606MOL0     C81729   3.820   3.374   5.142  0.1760 -0.2408  0.0224
  606MOL0     C81730   4.266   3.517   5.024 -0.2262  0.0666 -0.3709
  606MOL0     C81731   4.312   3.517   5.155 -0.0960 -0.5428  0.2507
  606MOL0     C81732   4.449   3.527   5.185  0.6632 -0.3542 -0.7631
  606MOL0     C81733   4.541   3.535   5.072 -0.4671  0.0737  0.3741
  606MOL0     O81734   4.678   3.529   5.093 -0.8728 -0.4157  0.4227
  606MOL0     C81735   4.774   3.524   4.978  0.6759  1.0040 -0.0610
  606MOL0     C81736   4.915   3.474   5.013  0.1700  0.8240 -0.1774
  606MOL0     C81737   4.972   3.553   5.139 -0.5735  0.0916  0.6462
  606MOL0     C81738   5.124   3.548   5.138  1.0763  0.8571  1.0600
  606MOL0     C81739   5.192   3.559   5.262 -0.5827  0.2147 -1.0335
  606MOL0     C81740   5.236   3.569   5.372  0.2217  0.8282 -0.1046
  606MOL0     C81741   4.491   3.540   4.939  0.2115 -0.1616 -0.8165
  606MOL0     C81742   4.356   3.531   4.919  0.0295 -0.5937  0.4270
  606MOL0     H81743   3.836   3.639   4.934 -1.6908 -0.0488 -1.5199
  606MOL0     H81744   3.596   3.568   4.901 -1.2835 -3.5817 -1.7205
  606MOL0     H81745   3.342   3.527   5.093 -2.9318 -2.2499 -0.3804
  606MOL0     H81746   3.386   3.550   4.926  0.9667  1.1136  1.3143
  606MOL0     H81747   3.227   3.334   5.056 -0.2133  0.8572  0.4298
  606MOL0     H81748   3.154   3.445   4.944  0.2563 -0.1704 -0.3999
  606MOL0     H81749   3.289   3.348   4.752  0.3778  0.0893  0.1341
  606MOL0     H81750   3.357   3.223   4.857 -0.1728  0.3555  1.2051
  606MOL0     H81751   3.097   3.194   4.918 -1.4220 -0.6536 -0.7984
  606MOL0     H81752   3.077   3.286   4.769 -1.8148 -0.8690 -0.4491
  606MOL0     H81753   3.198   3.127   4.633  2.1864 -1.5670 -0.9199
  606MOL0     H81754   3.235   3.028   4.776 -2.4029  0.2219  2.6108
  606MOL0     H81755   2.977   3.015   4.828  2.7541 -3.5308  2.0912
  606MOL0     H81756   2.947   3.066   4.656 -0.5390  1.0641  2.1741
  606MOL0     H81757   3.122   2.888   4.580 -2.4922 -2.2315 -2.3397
  606MOL0     H81758   3.123   2.825   4.743  1.4894  4.0893  1.2736
  606MOL0     H81759   2.946   2.692   4.583 -3.1822 -0.1807  0.1979
  606MOL0     H81760   2.890   2.854   4.539 -1.4553  1.6195  1.6971
  606MOL0     H81761   2.875   2.604   4.825 -0.2191 -0.1523 -0.8294
  606MOL0     H81762   2.528   2.646   4.973 -0.0732  3.4728 -2.7615
  606MOL0     H81763   2.683   2.578   5.023  0.7018 -0.4224 -0.5491
  606MOL0     H81764   2.531   2.731   5.189 -0.6216  0.8470  1.3375
  606MOL0     H81765   2.556   2.859   5.080 -1.0930 -1.4551 -0.2518
  606MOL0     H81766   2.808   2.721   5.178  3.1087  0.8878  0.0393
  606MOL0     H81767   2.720   2.845   5.285  1.4904  2.9183 -0.4522
  606MOL0     H81768   2.725   3.016   5.118 -1.1264  0.3386 -0.9841
  606MOL0     H81769   2.830   2.910   5.018 -0.6972 -2.5843  1.3453
  606MOL0     H81770   3.132   3.111   5.248  2.8577 -0.6288  2.3343
  606MOL0     H81771   3.417   3.058   5.311 -2.0279 -0.3492  0.3819
  606MOL0     H81772   3.442   3.125   5.131 -1.2974 -0.3320 -0.0787
  606MOL0     H81773   3.331   3.188   5.243  0.5660  0.7351 -1.4319
  606MOL0     H81774   3.691   2.897   4.908  2.3896  1.3678  1.1197
  606MOL0     H81775   3.922   2.843   4.881 -1.4478  0.6953 -0.3612
  606MOL0     H81776   4.123   2.805   4.952  1.2568  0.2252 -0.5202
  606MOL0     H81777   4.211   2.683   5.038  0.1243 -2.4859 -1.0941
  606MOL0     H81778   4.265   2.566   4.824 -2.1636 -1.7898 -2.5801
  606MOL0     H81779   4.152   2.675   4.740  1.5964  0.1376 -0.6395
  606MOL0     H81780   4.413   2.772   4.858  2.0539  2.7828 -1.6738
  606MOL0     H81781   4.294   2.872   4.779  2.7986  0.7907 -2.4692
  606MOL0     H81782   4.435   2.636   4.662 -0.0850 -1.0505 -3.4333
  606MOL0     H81783   4.295   2.724   4.585  1.6141  2.3160 -1.8312
  606MOL0     H81784   4.539   2.877   4.678  1.2098  0.2965 -1.5472
  606MOL0     H81785   4.410   2.921   4.577 -0.3255  0.3413  1.5265
  606MOL0     H81786   4.621   2.680   4.537  0.4787  2.3950  3.9973
  606MOL0     H81787   4.497   2.730   4.418  0.6126 -1.9857 -0.0684
  606MOL0     H81788   4.737   2.900   4.513  0.3491  0.3178  0.3248
  606MOL0     H81789   4.608   2.954   4.402  0.8520  1.2418  2.9634
  606MOL0     H81790   4.811   2.722   4.342 -1.0106 -2.1059 -3.4932
  606MOL0     H81791   4.810   2.887   4.281  0.1362  0.9155  0.8357
  606MOL0     H81792   3.852   2.446   5.050  0.2335 -0.9664 -1.6478
  606MOL0     H81793   3.609   2.497   5.027  0.5013 -1.2509 -0.4627
  606MOL0     H81794   3.239   2.704   5.019  1.7994  1.7027 -1.1645
  606MOL0     H81795   3.002   2.761   5.054  0.5233 -0.5171  1.0052
  606MOL0     H81796   3.651   3.250   5.162  0.4264 -0.9941 -1.4574
  606MOL0     H81797   3.865   3.307   5.214 -1.8319 -1.8415 -0.0912
  606MOL0     H81798   4.235   3.532   5.230 -1.5145 -0.4464 -1.1769
  606MOL0     H81799   4.492   3.529   5.285 -2.0621  0.5474  0.4938
  606MOL0     H81800   4.735   3.449   4.909  2.2778  0.8043 -0.8024
  606MOL0     H81801   4.776   3.626   4.937 -0.0001  0.9798 -0.1645
  606MOL0     H81802   4.974   3.484   4.922  0.2990 -3.4175 -0.7743
  606MOL0     H81803   4.913   3.366   5.035 -1.7919  0.6509 -1.0215
  606MOL0     H81804   4.922   3.506   5.224 -1.7991 -0.2396 -0.2261
  606MOL0     H81805   4.947   3.659   5.137 -0.8216  0.0527 -2.1515
  606MOL0     H81806   5.168   3.613   5.061 -0.8602  1.8819  0.7691
  606MOL0     H81807   5.155   3.447   5.109  0.9759  0.8589  0.9444
  606MOL0     H81808   5.284   3.580   5.468 -2.3942 -0.2140  1.4283
  606MOL0     H81809   4.554   3.545   4.850 -0.3958  0.3670 -1.2164
  606MOL0     H81810   4.316   3.542   4.819  0.8863  0.8416  0.2153
  607MOL0     O81811   3.411   5.402   2.278  0.3179 -0.1382 -0.2919
  607MOL0     C81812   3.485   5.419   2.176 -0.3742  0.0417  0.0780
  607MOL0     O81813   3.464   5.353   2.064 -0.3015  0.0515 -0.5002
  607MOL0     C81814   3.339   5.345   1.999 -0.8471 -0.2058  0.1425
  607MOL0     C81815   3.331   5.257   1.889  1.0626  0.7133 -0.4736
  607MOL0     C81816   3.198   5.227   1.830  0.6183 -0.3715 -0.1143
  607MOL0     C81817   3.075   5.287   1.885 -0.6481  0.6514 -0.3804
  607MOL0     O81818   2.948   5.273   1.831  0.3587 -0.3949 -0.5611
  607MOL0     C81819   2.934   5.200   1.712 -0.1528 -0.0682  1.3724
  607MOL0     C81820   2.790   5.177   1.675  0.2984  0.6334 -0.7686
  607MOL0     C81821   2.698   5.122   1.794 -0.4175  0.3022 -0.5512
  607MOL0     C81822   2.564   5.083   1.735 -0.1023  0.1052 -0.2925
  607MOL0     C81823   2.448   5.079   1.842 -0.3087 -0.0418  0.4219
  607MOL0     C81824   2.472   4.976   1.949 -0.6414  0.0875 -0.1739
  607MOL0     C81825   2.343   4.906   1.999  0.8996  0.3499  0.8356
  607MOL0     C81826   2.317   4.776   1.918  0.3299  0.1116 -0.0760
  607MOL0     N81827   2.190   4.708   1.939 -0.0557 -0.0860 -0.1102
  607MOL0     C81828   2.074   4.756   1.988 -0.5658  0.1794 -0.0537
  607MOL0     C81829   1.989   4.653   1.988  0.3806 -0.4171 -0.0003
  607MOL0     C81830   1.860   4.640   2.064 -0.1505  0.7055 -1.4615
  607MOL0     C81831   1.755   4.573   1.985  0.2076  0.3732 -0.0286
  607MOL0     C81832   1.631   4.524   2.064  0.1236 -0.6976 -1.5616
  607MOL0     C81833   1.542   4.433   1.976  0.4675 -0.0123  0.4896
  607MOL0     O81834   1.483   4.512   1.867 -0.7886 -0.4261  0.1411
  607MOL0     C81835   1.361   4.482   1.826 -0.1510  0.8637  0.5039
  607MOL0     C81836   1.317   4.345   1.817  0.1436  0.2379  0.0281
  607MOL0     C81837   1.183   4.317   1.787  0.5663 -0.3056 -0.3537
  607MOL0     C81838   1.123   4.184   1.825 -0.2624  0.0532  0.1618
  607MOL0     C81839   1.104   4.423   1.733 -0.0133 -0.5517  0.5609
  607MOL0     C81840   0.962   4.417   1.701  0.3336  0.6375 -0.3796
  607MOL0     O81841   0.913   4.301   1.637 -0.7069 -0.2059  0.0348
  607MOL0     C81842   0.784   4.293   1.591  0.2405 -0.3060  0.1873
  607MOL0     C81843   0.682   4.234   1.665 -0.0017  0.7179  0.5254
  607MOL0     C81844   0.555   4.226   1.617  0.1772 -1.0012  0.1651
  607MOL0     C81845   0.521   4.271   1.491 -0.1955 -0.4737  0.1438
  607MOL0     O81846   0.394   4.247   1.444  0.2544 -0.0125 -0.2043
  607MOL0     C81847   0.403   4.133   1.354 -0.3687 -0.4150 -0.1783
  607MOL0     C81848   0.352   4.011   1.425 -0.2071 -0.9616  0.6600
  607MOL0     C81849   0.373   3.886   1.332  1.1804  0.0387 -0.9936
  607MOL0     C81850   0.279   3.863   1.214  0.0374 -0.5052 -0.1565
  607MOL0     C81851   0.330   3.740   1.142  0.3463 -0.0572  0.7454
  607MOL0     C81852   0.221   3.704   1.044  0.0792  0.7746  0.2840
  607MOL0     C81853   0.259   3.567   0.977  0.3467 -0.3673 -0.3441
  607MOL0     C81854   0.164   3.518   0.871 -0.1365 -0.6108  0.6794
  607MOL0    Cl81855  -0.010   3.515   0.912  0.3252 -0.3363  0.0176
  607MOL0     C81856   0.630   4.335   1.420  0.4280  0.7329  0.0865
  607MOL0     C81857   0.754   4.345   1.472  0.1510 -0.6098  0.1942
  607MOL0     O81858   0.891   4.516   1.732 -0.4712  0.0558 -0.1379
  607MOL0     C81859   1.157   4.554   1.713 -0.2056  0.6360 -0.2815
  607MOL0     C81860   1.281   4.583   1.760 -0.3573 -0.1410 -0.3261
  607MOL0     N81861   2.049   4.543   1.936  0.1174  0.2682  0.0413
  607MOL0     N81862   2.176   4.576   1.903  0.5384 -0.9784 -0.1918
  607MOL0     C81863   3.093   5.367   1.993  0.5042 -0.1781 -1.1707
  607MOL0     C81864   3.212   5.400   2.056 -0.1550 -0.7099  0.5891
  607MOL0     C81865   3.599   5.519   2.175  0.5827 -0.2816 -0.2351
  607MOL0     C81866   3.698   5.522   2.073  1.5529 -0.2618  0.4564
  607MOL0     C81867   3.792   5.616   2.059  0.2896  0.5574  0.3043
  607MOL0     C81868   3.817   5.703   2.169 -0.2754  1.2587  1.1434
  607MOL0     O81869   3.920   5.794   2.182 -0.5482 -0.6196  0.3249
  607MOL0     C81870   4.005   5.793   2.072  0.8762  0.0596 -0.1167
  607MOL0     C81871   4.122   5.882   2.107 -1.0839  0.1550 -0.8860
  607MOL0     C81872   4.098   6.036   2.112 -0.4987 -0.6640 -0.2015
  607MOL0     C81873   4.216   6.123   2.060  0.4006 -0.7563 -0.4059
  607MOL0     C81874   4.308   6.155   2.173 -0.0539  0.3314  0.4959
  607MOL0     C81875   4.366   6.211   2.267 -0.1741  0.7490  0.0039
  607MOL0     C81876   3.714   5.706   2.263 -0.3844 -0.2398 -0.1365
  607MOL0     C81877   3.609   5.620   2.265 -1.1155  0.9325 -0.4633
  607MOL0     H81878   3.424   5.224   1.845  1.5571  0.7178  0.5290
  607MOL0     H81879   3.188   5.175   1.735 -2.2763 -1.6235  0.7720
  607MOL0     H81880   2.969   5.258   1.626 -0.3962 -1.4322  0.3129
  607MOL0     H81881   2.979   5.101   1.716 -3.5768 -1.8205  0.3282
  607MOL0     H81882   2.755   5.273   1.636 -0.4675  0.4212 -0.6191
  607MOL0     H81883   2.787   5.101   1.597  3.5465  0.1377 -0.5673
  607MOL0     H81884   2.743   5.035   1.844 -3.0010 -0.3470  0.7884
  607MOL0     H81885   2.681   5.194   1.874 -1.6283 -1.5332  0.9242
  607MOL0     H81886   2.526   5.160   1.667 -1.4025  0.3145  0.6444
  607MOL0     H81887   2.575   4.983   1.691 -0.0234  0.1583 -0.3943
  607MOL0     H81888   2.438   5.177   1.890  0.7713  0.9049 -1.2110
  607MOL0     H81889   2.355   5.055   1.788  1.2292 -2.6510 -1.2787
  607MOL0     H81890   2.542   4.899   1.916 -0.9645 -0.4247  0.3195
  607MOL0     H81891   2.520   5.036   2.028 -2.3609  0.8862  0.3027
  607MOL0     H81892   2.340   4.880   2.105 -4.2475 -0.1983  0.8202
  607MOL0     H81893   2.259   4.975   1.986  1.5733  0.8154 -1.4927
  607MOL0     H81894   2.407   4.715   1.931  1.5653  1.8172 -0.2243
  607MOL0     H81895   2.326   4.798   1.811  1.9675  3.5198  0.6286
  607MOL0     H81896   2.063   4.858   2.022 -2.8641  1.3127 -3.6093
  607MOL0     H81897   1.886   4.589   2.157  3.6557  1.7347 -1.7748
  607MOL0     H81898   1.823   4.737   2.098  1.0135  0.2454  1.3589
  607MOL0     H81899   1.787   4.477   1.942 -2.7229 -0.5619 -0.2982
  607MOL0     H81900   1.727   4.642   1.905  0.1894  2.5112  1.7276
  607MOL0     H81901   1.568   4.609   2.091  2.8303  0.8669  0.3025
  607MOL0     H81902   1.657   4.463   2.151  1.5547  1.5141 -0.3214
  607MOL0     H81903   1.471   4.391   2.048 -0.3007  1.2385  0.4836
  607MOL0     H81904   1.603   4.350   1.938 -0.4655 -0.4078 -0.1880
  607MOL0     H81905   1.384   4.266   1.851  0.9051  0.5417 -0.7034
  607MOL0     H81906   1.202   4.113   1.848  0.3799  0.1144 -1.7195
  607MOL0     H81907   1.065   4.194   1.918  1.6076  2.6530  1.1760
  607MOL0     H81908   1.069   4.155   1.735  3.1199 -0.1544 -1.9294
  607MOL0     H81909   0.698   4.180   1.758  0.7792 -0.1744 -0.1110
  607MOL0     H81910   0.482   4.176   1.680  0.0665 -1.6100 -0.4360
  607MOL0     H81911   0.337   4.147   1.267 -0.8341  1.0367  0.3753
  607MOL0     H81912   0.507   4.127   1.320 -0.0765 -0.1075  0.6331
  607MOL0     H81913   0.405   4.002   1.520 -1.3859  0.3827  1.4706
  607MOL0     H81914   0.246   4.020   1.451 -0.2082 -2.3566  1.2155
  607MOL0     H81915   0.360   3.794   1.390 -0.3408  0.2056 -1.0320
  607MOL0     H81916   0.477   3.879   1.298  1.2310  0.5643 -0.9560
  607MOL0     H81917   0.179   3.849   1.254 -0.1518 -2.7033 -1.2274
  607MOL0     H81918   0.289   3.954   1.154  0.3587 -0.3082  0.1883
  607MOL0     H81919   0.359   3.661   1.212 -0.0235  0.2984  1.3202
  607MOL0     H81920   0.419   3.764   1.083 -0.9140  1.1636 -0.7326
  607MOL0     H81921   0.121   3.689   1.084 -0.0014  1.2225  0.2584
  607MOL0     H81922   0.229   3.779   0.965  2.2295  3.3210  2.7263
  607MOL0     H81923   0.275   3.492   1.055 -0.8403  0.4763  0.7642
  607MOL0     H81924   0.353   3.577   0.923 -0.1533  1.0046 -1.0137
  607MOL0     H81925   0.199   3.430   0.816  1.0578 -0.0932  0.5909
  607MOL0     H81926   0.177   3.589   0.789 -0.6100  3.1722  3.6093
  607MOL0     H81927   0.619   4.357   1.314 -1.3929  2.0367  0.5065
  607MOL0     H81928   0.831   4.392   1.412  0.2946 -2.4803 -1.1547
  607MOL0     H81929   1.089   4.629   1.674  0.2951 -0.0360 -2.5900
  607MOL0     H81930   1.330   4.680   1.767 -1.2882  0.4457 -1.6908
  607MOL0     H81931   3.005   5.416   2.034  1.0069  0.1400 -0.4426
  607MOL0     H81932   3.208   5.472   2.137 -1.8094 -0.5210  0.3686
  607MOL0     H81933   3.694   5.444   1.998 -0.8121  1.1218 -0.9703
  607MOL0     H81934   3.855   5.614   1.971 -0.4682  3.3512 -0.4146
  607MOL0     H81935   4.029   5.690   2.043 -1.8389 -0.4864 -0.7513
  607MOL0     H81936   3.955   5.845   1.990  3.3261  4.2206  0.7611
  607MOL0     H81937   4.211   5.860   2.047 -0.9161  1.5055 -1.1723
  607MOL0     H81938   4.160   5.869   2.209 -0.9453 -0.2742 -0.9897
  607MOL0     H81939   4.062   6.063   2.212  0.5128  0.1576 -0.0402
  607MOL0     H81940   4.014   6.061   2.047 -0.4287 -1.9898 -0.8302
  607MOL0     H81941   4.170   6.215   2.024  3.1690  1.9441  2.3556
  607MOL0     H81942   4.270   6.076   1.978  1.2523 -2.7202  1.1766
  607MOL0     H81943   4.410   6.270   2.345 -1.2972 -1.0649  2.1349
  607MOL0     H81944   3.727   5.780   2.342 -0.0955  2.7333 -2.7582
  607MOL0     H81945   3.544   5.618   2.352  0.2769 -2.1351  0.6538
  608MOL0     O81946   0.774  11.083   4.983  0.5057 -0.0879  0.1937
  608MOL0     C81947   0.881  11.131   5.010 -0.0125 -0.4424  0.2810
  608MOL0     O81948   0.936  11.151   5.134  0.3703  0.2953 -0.0358
  608MOL0     C81949   0.854  11.122   5.244  0.0951  0.2280 -0.0634
  608MOL0     C81950   0.900  11.042   5.355 -0.0980  0.4160 -0.0552
  608MOL0     C81951   0.808  11.023   5.471  0.1668  0.0163  0.9896
  608MOL0     C81952   0.672  11.061   5.468  0.6875  0.7492 -0.2731
  608MOL0     O81953   0.595  11.026   5.576  0.1471 -0.2713  0.5001
  608MOL0     C81954   0.465  11.106   5.590  0.5165 -0.2636  0.6718
  608MOL0     C81955   0.350  11.053   5.498  0.5086  0.4875  0.3732
  608MOL0     C81956   0.208  11.098   5.545  0.0837 -0.0136 -0.2173
  608MOL0     C81957   0.094  11.026   5.470 -0.4834  0.1735  0.7677
  608MOL0     C81958  -0.049  11.059   5.499  0.3159  0.4019 -0.2519
  608MOL0     C81959  -0.126  10.929   5.472 -0.3791  0.6738  0.3103
  608MOL0     C81960  -0.277  10.962   5.498 -0.6925 -0.3046 -0.8894
  608MOL0     C81961  -0.374  10.846   5.447 -1.3918  0.0298  0.5912
  608MOL0     N81962  -0.514  10.852   5.482  0.1366  0.4356  0.7013
  608MOL0     C81963  -0.581  10.952   5.539  0.2115 -0.4663 -0.9175
  608MOL0     C81964  -0.716  10.925   5.529  0.1076  0.2073  0.4004
  608MOL0     C81965  -0.819  11.012   5.589 -0.0852 -0.5638 -1.1045
  608MOL0     C81966  -0.954  10.983   5.520  0.7238 -0.1235  0.0430
  608MOL0     C81967  -1.058  11.074   5.598  0.1945  0.5362  1.1852
  608MOL0     C81968  -1.193  11.071   5.539  0.3544 -0.0080  0.5660
  608MOL0     O81969  -1.290  11.136   5.617  0.6080 -0.0088 -0.1707
  608MOL0     C81970  -1.417  11.157   5.563 -0.4222 -0.3375 -0.3078
  608MOL0     C81971  -1.480  11.090   5.454 -0.2731 -0.0321  0.8341
  608MOL0     C81972  -1.619  11.118   5.419  0.4581  0.5055  0.2517
  608MOL0     C81973  -1.686  11.014   5.331  0.7251  0.5228  0.1439
  608MOL0     C81974  -1.688  11.226   5.487 -0.0186 -0.2536 -0.8944
  608MOL0     C81975  -1.830  11.251   5.478  0.4185  0.0006  0.2193
  608MOL0     O81976  -1.887  11.351   5.553  0.7054  0.1206 -0.0910
  608MOL0     C81977  -2.023  11.334   5.577 -0.3439 -0.7536 -0.1825
  608MOL0     C81978  -2.108  11.378   5.480  0.8681 -0.9939 -0.2718
  608MOL0     C81979  -2.251  11.384   5.501  0.3082 -0.3599  0.6706
  608MOL0     C81980  -2.303  11.344   5.626  0.0142 -0.1956 -0.5132
  608MOL0     O81981  -2.439  11.348   5.647  0.9047 -0.1314 -0.6061
  608MOL0     C81982  -2.503  11.237   5.697 -0.1822  0.1568 -0.4127
  608MOL0     C81983  -2.508  11.119   5.590  0.7851  0.2384 -0.2356
  608MOL0     C81984  -2.593  11.152   5.471 -0.1871  0.5626 -0.0875
  608MOL0     C81985  -2.739  11.117   5.500  0.0871 -0.0497 -0.1458
  608MOL0     C81986  -2.822  11.147   5.375 -0.3443 -0.6622 -0.2424
  608MOL0     C81987  -2.969  11.149   5.402 -0.2706 -0.3841  0.7567
  608MOL0     C81988  -3.059  11.121   5.286 -0.3609 -0.3684  0.4701
  608MOL0     C81989  -3.204  11.111   5.335  0.1499 -0.7705 -0.3532
  608MOL0    Cl81990  -3.232  10.988   5.458  0.3955 -0.0016 -0.1694
  608MOL0     C81991  -2.213  11.313   5.729 -0.0226  0.2922 -0.3958
  608MOL0     C81992  -2.075  11.315   5.711  0.0873  0.3722  0.5855
  608MOL0     O81993  -1.896  11.180   5.393 -0.4853 -0.1419  0.1386
  608MOL0     C81994  -1.614  11.296   5.586 -0.3656  1.0238  0.1330
  608MOL0     C81995  -1.485  11.259   5.623  0.3552 -0.7621  0.2628
  608MOL0     N81996  -0.717  10.799   5.459 -0.7519  0.8534  0.5010
  608MOL0     N81997  -0.596  10.758   5.444  1.0880 -0.1296  0.2852
  608MOL0     C81998   0.634  11.134   5.361 -0.2307 -0.0789 -0.3604
  608MOL0     C81999   0.723  11.184   5.264  0.9526  0.6861  0.8015
  608MOL0     C82000   0.960  11.172   4.897 -0.1740 -0.4396  0.6554
  608MOL0     C82001   1.094  11.215   4.893  0.5742  0.5796  0.4816
  608MOL0     C82002   1.161  11.236   4.776 -0.2740 -0.2735  0.1199
  608MOL0     C82003   1.098  11.230   4.651  0.3862 -0.1207 -0.8349
  608MOL0     O82004   1.173  11.263   4.543 -0.4246  0.3216 -0.1209
  608MOL0     C82005   1.118  11.225   4.416 -0.2067 -0.1127 -0.2343
  608MOL0     C82006   1.206  11.267   4.299 -0.5246 -0.7246  0.2200
  608MOL0     C82007   1.252  11.421   4.291 -0.5126  1.1226  0.4819
  608MOL0     C82008   1.170  11.502   4.190 -0.4237 -0.7628 -0.4240
  608MOL0     C82009   1.039  11.532   4.243  0.5315 -0.2229 -0.7206
  608MOL0     C82010   0.942  11.571   4.304 -0.3819  0.0370 -0.2729
  608MOL0     C82011   0.963  11.194   4.653 -0.0260  0.5390 -0.3837
  608MOL0     C82012   0.895  11.171   4.770  0.1989  0.3981  0.0787
  608MOL0     H82013   1.001  11.003   5.344 -0.5383 -0.8981  0.3375
  608MOL0     H82014   0.848  10.955   5.545 -1.0518  0.8484  2.4702
  608MOL0     H82015   0.430  11.089   5.693 -0.3511  0.5514  0.5287
  608MOL0     H82016   0.475  11.214   5.576 -1.1550 -0.0289  1.0806
  608MOL0     H82017   0.362  11.093   5.397  0.5686 -2.0655 -0.7138
  608MOL0     H82018   0.354  10.944   5.490 -2.5048  0.3939 -2.1494
  608MOL0     H82019   0.183  11.078   5.650  0.7842  1.4832  0.2581
  608MOL0     H82020   0.195  11.205   5.525 -1.1103 -0.1662 -0.3486
  608MOL0     H82021   0.127  11.054   5.370  0.6267 -0.8096  0.8391
  608MOL0     H82022   0.109  10.918   5.470 -0.1213  0.2216  0.6779
  608MOL0     H82023  -0.057  11.092   5.603  2.0462  1.3636 -0.3880
  608MOL0     H82024  -0.083  11.130   5.423 -1.1122 -2.4987 -2.5240
  608MOL0     H82025  -0.114  10.898   5.368 -2.4118 -1.3206  0.5939
  608MOL0     H82026  -0.085  10.849   5.535 -0.0430  0.6412  0.0571
  608MOL0     H82027  -0.293  10.976   5.605 -1.0342 -3.3061 -0.4693
  608MOL0     H82028  -0.305  11.059   5.456 -0.4365  0.8694  1.4879
  608MOL0     H82029  -0.332  10.752   5.484  1.3857  0.0865 -2.0419
  608MOL0     H82030  -0.350  10.842   5.341 -1.4593  2.3876  0.4316
  608MOL0     H82031  -0.528  11.032   5.590  0.7999 -1.2342 -0.3018
  608MOL0     H82032  -0.828  10.981   5.693  4.0421 -0.9816 -0.6970
  608MOL0     H82033  -0.792  11.118   5.584  0.5355 -0.7533 -2.5101
  608MOL0     H82034  -0.988  10.880   5.530  2.1577 -0.5423  0.7792
  608MOL0     H82035  -0.949  11.000   5.412  0.3891 -2.9991 -0.4962
  608MOL0     H82036  -1.028  11.179   5.592  0.3517  0.4043 -2.6891
  608MOL0     H82037  -1.069  11.043   5.702 -0.1937 -0.4985  0.8491
  608MOL0     H82038  -1.225  10.969   5.518 -0.0528  0.2148  0.0778
  608MOL0     H82039  -1.190  11.114   5.438 -3.5034 -0.2486  0.2245
  608MOL0     H82040  -1.422  11.011   5.407 -2.4858 -0.7230 -0.9432
  608MOL0     H82041  -1.605  10.955   5.286 -0.6589 -0.9995 -0.4680
  608MOL0     H82042  -1.745  10.943   5.389  0.6325  1.0808  0.7426
  608MOL0     H82043  -1.742  11.061   5.250 -1.1294  2.1449  2.2441
  608MOL0     H82044  -2.078  11.411   5.381  0.6471  3.4571  0.9289
  608MOL0     H82045  -2.320  11.405   5.420 -1.1396 -0.6587  1.7802
  608MOL0     H82046  -2.438  11.209   5.781 -1.1192 -2.0934 -0.3803
  608MOL0     H82047  -2.604  11.268   5.724 -1.0494 -2.5581 -0.1954
  608MOL0     H82048  -2.408  11.088   5.556  0.3514  1.5954 -3.0316
  608MOL0     H82049  -2.553  11.033   5.640 -2.1391  1.0483 -1.3062
  608MOL0     H82050  -2.554  11.103   5.381  1.3795  1.0066  0.3146
  608MOL0     H82051  -2.577  11.258   5.453 -0.4842  0.4881 -0.8265
  608MOL0     H82052  -2.758  11.015   5.536 -2.8692  0.4689  0.0409
  608MOL0     H82053  -2.775  11.174   5.586 -0.9806 -0.5473 -0.2463
  608MOL0     H82054  -2.806  11.072   5.297 -1.4933  0.2367 -1.3797
  608MOL0     H82055  -2.799  11.248   5.340 -2.2918 -0.3804 -0.8023
  608MOL0     H82056  -3.003  11.081   5.481 -2.5086 -1.1898 -0.8018
  608MOL0     H82057  -2.986  11.254   5.429  2.3120  1.1357 -2.7770
  608MOL0     H82058  -3.030  11.024   5.246 -0.6821 -0.5213  0.6051
  608MOL0     H82059  -3.046  11.208   5.220 -1.1229  0.1743  1.0115
  608MOL0     H82060  -3.262  11.081   5.248 -1.7187  0.0689  0.5437
  608MOL0     H82061  -3.235  11.204   5.384  0.9785 -0.7420  0.1469
  608MOL0     H82062  -2.244  11.284   5.829  0.2254  1.4451  0.0303
  608MOL0     H82063  -2.005  11.296   5.792  2.4304  1.2528 -1.0963
  608MOL0     H82064  -1.650  11.375   5.651  2.6280 -0.4649  4.0288
  608MOL0     H82065  -1.443  11.317   5.704  2.3792 -0.8866 -0.6425
  608MOL0     H82066   0.538  11.184   5.352 -0.3671  0.2015  1.9116
  608MOL0     H82067   0.680  11.244   5.184 -0.0962 -0.7788  0.2269
  608MOL0     H82068   1.151  11.226   4.985  0.8007  1.0974  0.2870
  608MOL0     H82069   1.263  11.274   4.770  0.3090 -0.5689  4.6912
  608MOL0     H82070   1.103  11.116   4.417  1.2486 -0.4357  3.7098
  608MOL0     H82071   1.020  11.269   4.400 -1.2864  0.0312  5.0950
  608MOL0     H82072   1.139  11.250   4.214 -0.4850  2.3357 -0.5728
  608MOL0     H82073   1.280  11.188   4.288 -2.5435 -2.7664  0.5982
  608MOL0     H82074   1.353  11.409   4.249 -0.9020 -1.9593  0.1916
  608MOL0     H82075   1.260  11.464   4.391  0.9967  0.9937  0.4397
  608MOL0     H82076   1.173  11.440   4.100 -0.5511  0.8489 -1.5797
  608MOL0     H82077   1.219  11.599   4.178  0.9897 -0.9523  2.7252
  608MOL0     H82078   0.863  11.603   4.369 -0.5524 -0.8046 -0.0549
  608MOL0     H82079   0.906  11.195   4.561 -1.6294 -0.1698  0.5450
  608MOL0     H82080   0.788  11.159   4.756 -0.2582  4.5345 -1.4958
  609MOL0     O82081   8.331   0.628   4.349  0.2464  0.6912 -0.3202
  609MOL0     C82082   8.245   0.567   4.411  0.4596 -0.0537 -0.0146
  609MOL0     O82083   8.099   0.582   4.389  0.1396 -0.3859  0.0139
  609MOL0     C82084   8.055   0.671   4.291  1.0784 -0.2807 -0.1798
  609MOL0     C82085   8.002   0.796   4.331 -0.0342  0.3848 -0.0303
  609MOL0     C82086   7.937   0.874   4.234 -0.0940  0.6039  0.8831
  609MOL0     C82087   7.961   0.855   4.098  0.0813 -0.2692  0.3643
  609MOL0     O82088   7.910   0.942   4.002 -0.2815 -0.2492 -0.4805
  609MOL0     C82089   7.861   0.890   3.878  0.5918  0.6518  0.5406
  609MOL0     C82090   7.806   1.005   3.778  0.1458  1.1491 -0.3062
  609MOL0     C82091   7.690   1.076   3.841 -0.2877 -0.0268 -0.4284
  609MOL0     C82092   7.567   1.007   3.824 -0.3143  0.5178 -0.1709
  609MOL0     C82093   7.464   1.087   3.894  0.2989  0.5834  0.6141
  609MOL0     C82094   7.327   1.015   3.889 -0.4187  0.0096 -0.1753
  609MOL0     C82095   7.217   1.125   3.914 -0.4501 -0.1073  0.5560
  609MOL0     C82096   7.084   1.054   3.932 -0.3246  0.1629 -0.6637
  609MOL0     N82097   7.079   0.962   4.050 -0.5729  0.0966  0.7232
  609MOL0     C82098   7.085   0.997   4.174  0.0556 -0.0728 -0.4223
  609MOL0     C82099   7.019   0.899   4.243 -0.1326 -0.9111  0.6441
  609MOL0     C82100   6.995   0.883   4.389  0.7460 -0.3110 -0.4044
  609MOL0     C82101   6.849   0.920   4.419 -0.7702 -0.2537  0.6691
  609MOL0     C82102   6.830   0.926   4.568 -0.0376  0.0960  0.8370
  609MOL0     C82103   6.680   0.963   4.601 -0.1708 -0.1470  0.0540
  609MOL0     O82104   6.640   1.089   4.539 -0.5899 -0.4753 -0.0451
  609MOL0     C82105   6.510   1.132   4.572  0.4490 -0.1441 -0.5303
  609MOL0     C82106   6.492   1.274   4.561  0.0667  0.3120  0.4833
  609MOL0     C82107   6.367   1.325   4.590 -0.4095 -0.4322 -0.1436
  609MOL0     C82108   6.343   1.474   4.572 -0.3226  0.3658 -0.1828
  609MOL0     C82109   6.267   1.241   4.643  0.1577 -0.8582  1.6945
  609MOL0     C82110   6.137   1.296   4.674 -0.0092 -0.3002  0.7127
  609MOL0     O82111   6.079   1.394   4.588  0.2803  1.1964  0.0869
  609MOL0     C82112   5.959   1.440   4.625 -0.6912  0.0448 -0.2256
  609MOL0     C82113   5.960   1.575   4.680  0.7470 -0.5356  0.1359
  609MOL0     C82114   5.839   1.634   4.727 -1.1734  0.1579 -0.7776
  609MOL0     C82115   5.723   1.574   4.712  0.8156 -0.2700 -0.9297
  609MOL0     O82116   5.618   1.636   4.774 -0.0172 -0.2877  0.2620
  609MOL0     C82117   5.498   1.557   4.800  0.9238 -0.3553 -0.1042
  609MOL0     C82118   5.408   1.611   4.915 -0.6831 -0.4375  1.2207
  609MOL0     C82119   5.340   1.753   4.881  0.0006 -0.6514  0.7406
  609MOL0     C82120   5.198   1.721   4.827 -0.7064 -0.9210 -0.0317
  609MOL0     C82121   5.097   1.695   4.945  0.2385  0.0122 -0.2453
  609MOL0     C82122   4.957   1.677   4.878 -0.8190  0.5855  0.4205
  609MOL0     C82123   4.872   1.574   4.954  0.2408  0.2094 -0.8450
  609MOL0     C82124   4.725   1.591   4.941 -0.4875 -0.2061 -0.0023
  609MOL0    Cl82125   4.656   1.571   4.785 -0.2376  0.2478  0.3381
  609MOL0     C82126   5.717   1.454   4.643 -0.3235 -0.8352 -0.1658
  609MOL0     C82127   5.836   1.382   4.600  0.0325 -0.1528  0.0544
  609MOL0     O82128   6.087   1.255   4.777 -0.4049  0.1075 -0.3990
  609MOL0     C82129   6.290   1.107   4.666 -0.3467  0.5705 -0.7012
  609MOL0     C82130   6.411   1.047   4.637  0.1163 -0.2478  0.2189
  609MOL0     N82131   6.991   0.801   4.150  0.4611 -0.1650 -0.2313
  609MOL0     N82132   7.020   0.845   4.031 -0.8992  0.4785  0.0637
  609MOL0     C82133   8.023   0.736   4.061 -0.7081  0.4381 -0.2257
  609MOL0     C82134   8.063   0.642   4.154 -0.6299  0.2631 -0.5505
  609MOL0     C82135   8.283   0.461   4.499 -0.0203 -0.0466 -0.2825
  609MOL0     C82136   8.416   0.425   4.495  0.2347  1.6687  0.0532
  609MOL0     C82137   8.470   0.343   4.590 -0.0452  0.0627 -0.1666
  609MOL0     C82138   8.379   0.281   4.680 -0.2558 -0.0140  0.0444
  609MOL0     O82139   8.448   0.201   4.776  0.1257 -0.4522  0.4086
  609MOL0     C82140   8.383   0.081   4.822  0.7270 -0.5594  0.1832
  609MOL0     C82141   8.485  -0.024   4.844 -0.1911 -1.4695  0.1805
  609MOL0     C82142   8.414  -0.152   4.891  0.7653  0.0035  0.2892
  609MOL0     C82143   8.509  -0.270   4.907  0.7400  0.6502 -0.7754
  609MOL0     C82144   8.617  -0.230   4.990 -0.0772  0.5161  0.3817
  609MOL0     C82145   8.708  -0.198   5.066 -0.2221  0.1477  0.4469
  609MOL0     C82146   8.248   0.320   4.691 -0.7702  0.2364  0.0995
  609MOL0     C82147   8.198   0.411   4.597  0.4706 -0.1067 -0.4327
  609MOL0     H82148   7.992   0.814   4.438  0.4380 -0.3857  0.1555
  609MOL0     H82149   7.892   0.970   4.256 -0.6802  0.7138 -0.6893
  609MOL0     H82150   7.927   0.832   3.813 -2.0541 -0.1658 -1.6359
  609MOL0     H82151   7.782   0.822   3.912 -0.5613  1.1627 -1.0172
  609MOL0     H82152   7.885   1.080   3.765  2.3064 -0.3422  2.9811
  609MOL0     H82153   7.780   0.965   3.679  0.5232  0.3489 -0.0889
  609MOL0     H82154   7.698   1.072   3.950 -3.5035  0.8172 -0.0546
  609MOL0     H82155   7.690   1.180   3.807  0.2880  0.0664 -0.1674
  609MOL0     H82156   7.553   0.994   3.716  2.1553 -1.6769 -0.3243
  609MOL0     H82157   7.569   0.902   3.856 -1.7518  0.3901 -0.4498
  609MOL0     H82158   7.494   1.113   3.996  3.6020  0.7473 -0.2764
  609MOL0     H82159   7.473   1.182   3.840  0.2874  0.6338  0.7015
  609MOL0     H82160   7.308   0.969   3.791  1.9064 -4.7092  1.2686
  609MOL0     H82161   7.324   0.939   3.967 -1.6686 -0.7665 -0.9343
  609MOL0     H82162   7.255   1.173   4.005 -1.8556  1.6704  0.2590
  609MOL0     H82163   7.203   1.208   3.843 -1.9400  1.6581  2.7662
  609MOL0     H82164   7.056   0.990   3.848 -0.3679 -0.9846  0.1901
  609MOL0     H82165   7.003   1.127   3.936 -0.7035 -0.3037  1.0407
  609MOL0     H82166   7.123   1.086   4.224 -0.7074 -0.1506  0.3139
  609MOL0     H82167   7.019   0.778   4.405  0.7175 -0.6684 -2.3848
  609MOL0     H82168   7.058   0.944   4.454  0.3513  1.5965 -1.7209
  609MOL0     H82169   6.775   0.861   4.364  0.9327  0.4258 -2.6316
  609MOL0     H82170   6.837   1.024   4.387  1.8010  1.0653  3.4837
  609MOL0     H82171   6.893   1.003   4.614  1.6642  0.1816 -1.4952
  609MOL0     H82172   6.855   0.834   4.622 -0.4370  0.5040  1.7429
  609MOL0     H82173   6.676   0.976   4.709 -1.1928 -1.9897  0.2806
  609MOL0     H82174   6.601   0.891   4.578 -0.8485 -0.1161  2.0870
  609MOL0     H82175   6.565   1.330   4.504  0.2879 -0.6534 -0.2074
  609MOL0     H82176   6.282   1.524   4.647  0.6508  1.8675 -0.3479
  609MOL0     H82177   6.436   1.529   4.556  0.8222 -0.7582  2.1855
  609MOL0     H82178   6.281   1.490   4.483 -2.0306  0.8605  1.0419
  609MOL0     H82179   6.053   1.630   4.681  1.7610 -2.1607 -0.1314
  609MOL0     H82180   5.843   1.729   4.779 -0.8280 -1.2257  1.9135
  609MOL0     H82181   5.443   1.543   4.707 -2.3525 -1.4753  1.8430
  609MOL0     H82182   5.530   1.458   4.834  1.3161 -0.2463 -0.1459
  609MOL0     H82183   5.330   1.538   4.942 -0.2941 -2.8270 -3.1279
  609MOL0     H82184   5.465   1.624   5.007  2.9280 -0.9686 -0.7467
  609MOL0     H82185   5.403   1.816   4.818  0.4293 -3.2075 -1.5792
  609MOL0     H82186   5.323   1.809   4.973 -0.3713  0.9143 -0.2500
  609MOL0     H82187   5.160   1.801   4.763 -1.3377 -1.4599 -0.3471
  609MOL0     H82188   5.210   1.636   4.759  2.4513 -2.4850  2.2604
  609MOL0     H82189   5.094   1.774   5.020  1.4635 -0.9956  0.9094
  609MOL0     H82190   5.124   1.599   4.991 -0.8231 -1.6050 -2.7633
  609MOL0     H82191   4.907   1.774   4.884 -0.7045  0.5604  2.3890
  609MOL0     H82192   4.968   1.650   4.773 -1.2358  1.1367  0.2321
  609MOL0     H82193   4.898   1.593   5.059  0.7631 -3.9159 -0.0454
  609MOL0     H82194   4.894   1.471   4.923 -0.8491 -1.4656  3.1909
  609MOL0     H82195   4.697   1.690   4.977 -1.2849 -1.5461  3.4763
  609MOL0     H82196   4.676   1.522   5.010 -1.5777 -0.8980 -1.4186
  609MOL0     H82197   5.622   1.403   4.635 -1.5293  1.4743 -1.7007
  609MOL0     H82198   5.839   1.279   4.564 -3.7296  0.1473 -1.5415
  609MOL0     H82199   6.221   1.040   4.717  1.6560 -0.2593  1.0672
  609MOL0     H82200   6.421   0.945   4.671  0.3236 -0.9047 -1.7115
  609MOL0     H82201   8.029   0.710   3.956 -0.5929 -1.1588  0.1552
  609MOL0     H82202   8.113   0.547   4.133 -0.0724  0.5179 -0.3943
  609MOL0     H82203   8.467   0.447   4.402  0.7227  2.6739  0.5441
  609MOL0     H82204   8.576   0.320   4.588  0.3907  1.9530 -0.5037
  609MOL0     H82205   8.331   0.102   4.916 -1.2345  0.4374 -1.0519
  609MOL0     H82206   8.309   0.044   4.750  2.7831 -2.2496 -1.1639
  609MOL0     H82207   8.542   0.012   4.930 -0.6708 -4.3647  1.8289
  609MOL0     H82208   8.543  -0.031   4.751  0.0433 -1.2163  0.3038
  609MOL0     H82209   8.329  -0.176   4.827 -0.1676  3.1510  0.1860
  609MOL0     H82210   8.370  -0.133   4.989  2.1241  0.3513  0.8625
  609MOL0     H82211   8.550  -0.295   4.809 -0.1583 -0.7157 -0.8290
  609MOL0     H82212   8.467  -0.357   4.958  1.1114  1.7559  1.5393
  609MOL0     H82213   8.794  -0.166   5.122 -0.1558  2.4529 -0.8700
  609MOL0     H82214   8.179   0.280   4.765 -3.0363 -1.0783 -2.5020
  609MOL0     H82215   8.104   0.464   4.606  1.4692  1.5755  0.4121
  610MOL0     O82216   0.714   0.508   8.678  0.1448 -0.5828 -0.1424
  610MOL0     C82217   0.803   0.506   8.757  0.1049  0.5056  0.2031
  610MOL0     O82218   0.847   0.612   8.827  1.2313 -0.2024 -1.2074
  610MOL0     C82219   0.758   0.719   8.827 -0.3416  0.6752 -0.1595
  610MOL0     C82220   0.782   0.827   8.737  0.7121 -0.1819 -0.3809
  610MOL0     C82221   0.696   0.944   8.751 -0.2179  0.4332 -0.4550
  610MOL0     C82222   0.600   0.960   8.849 -0.4185 -1.2948 -0.3446
  610MOL0     O82223   0.511   1.058   8.851  0.5991 -0.3714 -0.0396
  610MOL0     C82224   0.561   1.194   8.866 -0.3541  0.0105  0.1077
  610MOL0     C82225   0.446   1.294   8.882 -0.1251  0.2797 -0.0366
  610MOL0     C82226   0.343   1.285   8.774  0.7510 -1.0278 -0.1686
  610MOL0     C82227   0.229   1.188   8.816 -0.5579 -1.0900  0.3324
  610MOL0     C82228   0.130   1.166   8.708 -0.4124  0.1140  0.0060
  610MOL0     C82229   0.068   1.025   8.724  0.1837 -0.1742  0.3651
  610MOL0     C82230  -0.038   0.993   8.623 -0.6070  0.0196  0.1313
  610MOL0     C82231  -0.162   1.074   8.621  0.1630  0.0118 -0.2671
  610MOL0     N82232  -0.209   1.096   8.762 -0.3245 -0.0324 -1.1308
  610MOL0     C82233  -0.273   1.009   8.843 -0.2281  0.6152  0.3261
  610MOL0     C82234  -0.288   1.075   8.958  0.6253  0.8394  0.3102
  610MOL0     C82235  -0.376   1.034   9.077 -0.0364 -0.0979  1.2421
  610MOL0     C82236  -0.496   0.945   9.042  0.2449 -0.9448  0.6746
  610MOL0     C82237  -0.549   0.864   9.162  0.1238  0.6892  0.8268
  610MOL0     C82238  -0.678   0.771   9.137 -0.0513  0.2697  0.2219
  610MOL0     O82239  -0.732   0.764   9.266 -0.1813  0.0494 -0.6555
  610MOL0     C82240  -0.850   0.687   9.289 -0.6684 -0.1088 -0.0137
  610MOL0     C82241  -0.905   0.599   9.190  0.0013  0.9362  0.9685
  610MOL0     C82242  -1.027   0.526   9.205 -0.9957 -0.0607 -0.1944
  610MOL0     C82243  -1.067   0.433   9.088  0.8260 -0.2337 -0.6852
  610MOL0     C82244  -1.101   0.543   9.322 -0.1054 -0.5396  0.6157
  610MOL0     C82245  -1.242   0.484   9.342  0.5001  0.2152  0.4499
  610MOL0     O82246  -1.318   0.487   9.233  0.2664  0.7536 -0.0611
  610MOL0     C82247  -1.437   0.430   9.241  0.3132  0.6907 -0.2975
  610MOL0     C82248  -1.457   0.293   9.225 -0.1536 -0.6176 -0.3936
  610MOL0     C82249  -1.587   0.236   9.224  0.7041 -0.2851 -0.4930
  610MOL0     C82250  -1.688   0.325   9.232  0.1547 -0.3131  0.0804
  610MOL0     O82251  -1.819   0.281   9.243 -0.8658 -0.4837  0.7558
  610MOL0     C82252  -1.887   0.269   9.116  0.4095 -0.6044 -0.3255
  610MOL0     C82253  -1.953   0.132   9.089  0.5878 -0.7003  0.7336
  610MOL0     C82254  -2.070   0.159   8.991 -0.8551  0.0103 -0.3896
  610MOL0     C82255  -2.137   0.029   8.986 -0.8626  0.2619  1.0503
  610MOL0     C82256  -2.239   0.013   8.875  0.5096 -0.1872  0.5560
  610MOL0     C82257  -2.297  -0.129   8.862 -1.0247  1.0949  0.4451
  610MOL0     C82258  -2.420  -0.127   8.771  0.7370  0.4571 -0.3821
  610MOL0     C82259  -2.386  -0.149   8.627 -0.9197 -0.7758 -0.7969
  610MOL0    Cl82260  -2.317  -0.000   8.559  0.4157  0.1713  0.3584
  610MOL0     C82261  -1.675   0.463   9.237 -0.1831 -0.2864  0.0252
  610MOL0     C82262  -1.548   0.515   9.237 -0.1109  0.6674 -0.1888
  610MOL0     O82263  -1.283   0.472   9.452  0.4882 -0.1655 -0.2861
  610MOL0     C82264  -1.051   0.634   9.416  0.1638 -0.6178 -0.1474
  610MOL0     C82265  -0.927   0.702   9.400  0.3112  0.3056 -0.3256
  610MOL0     N82266  -0.249   1.207   8.942 -0.1682  0.2155 -0.2989
  610MOL0     N82267  -0.198   1.214   8.830 -0.4259 -0.9223  0.8790
  610MOL0     C82268   0.594   0.857   8.943  0.5801  0.1339  0.2157
  610MOL0     C82269   0.677   0.747   8.938 -0.1133  0.2063 -0.2587
  610MOL0     C82270   0.894   0.394   8.745 -0.4823 -0.3356  0.6270
  610MOL0     C82271   0.862   0.283   8.667  0.0571  0.9022  0.6159
  610MOL0     C82272   0.954   0.181   8.641 -0.2936 -0.4067 -0.5028
  610MOL0     C82273   1.082   0.197   8.697 -0.3243 -0.3103  0.6033
  610MOL0     O82274   1.170   0.094   8.681  0.0878 -0.2203 -0.0853
  610MOL0     C82275   1.124  -0.041   8.652 -0.2340 -1.3263  0.5289
  610MOL0     C82276   1.055  -0.115   8.770 -0.3316  1.0571  0.5622
  610MOL0     C82277   1.155  -0.159   8.883  1.3667 -0.4732  0.5280
  610MOL0     C82278   1.073  -0.228   9.002 -0.3925 -0.1620  0.1092
  610MOL0     C82279   1.167  -0.296   9.099  0.2440 -0.2467 -0.2549
  610MOL0     C82280   1.250  -0.360   9.169  0.0464  0.3034 -0.2052
  610MOL0     C82281   1.113   0.302   8.782  0.4254 -0.3288  0.3381
  610MOL0     C82282   1.024   0.400   8.801 -1.2564 -0.1241 -0.1995
  610MOL0     H82283   0.826   0.821   8.638 -1.0614  0.5196 -1.2579
  610MOL0     H82284   0.702   1.022   8.676  0.5649  3.7950  2.7873
  610MOL0     H82285   0.627   1.196   8.953  0.8225 -1.0601 -0.7379
  610MOL0     H82286   0.627   1.219   8.782  0.9584 -0.0662  1.0973
  610MOL0     H82287   0.386   1.272   8.971 -0.8621  3.2079  0.3174
  610MOL0     H82288   0.486   1.396   8.889 -1.3853  0.9619 -1.8264
  610MOL0     H82289   0.289   1.379   8.762 -2.0561 -2.6846 -1.8060
  610MOL0     H82290   0.379   1.257   8.675 -0.3179 -2.5877 -0.1696
  610MOL0     H82291   0.270   1.088   8.829 -1.5150 -1.7012 -1.0988
  610MOL0     H82292   0.182   1.218   8.911 -0.1884 -1.5399  0.6611
  610MOL0     H82293   0.053   1.242   8.723 -1.3355 -1.1139  1.8477
  610MOL0     H82294   0.176   1.173   8.608  0.8071  1.6381  0.6308
  610MOL0     H82295   0.138   0.942   8.705  2.4609  2.1045 -2.0128
  610MOL0     H82296   0.025   1.021   8.824  2.0208 -0.5012  1.1823
  610MOL0     H82297   0.000   0.997   8.520 -1.5479  2.2536 -0.1887
  610MOL0     H82298  -0.074   0.890   8.630 -2.2038  0.6739  2.5843
  610MOL0     H82299  -0.244   1.029   8.564 -0.0548  0.7176 -0.5169
  610MOL0     H82300  -0.149   1.175   8.582 -0.0865 -0.0089 -0.4052
  610MOL0     H82301  -0.309   0.910   8.817  0.4013  0.6143 -0.6255
  610MOL0     H82302  -0.308   0.979   9.143  0.0536  0.8145  1.9188
  610MOL0     H82303  -0.413   1.122   9.129  3.3546  1.9569  0.4736
  610MOL0     H82304  -0.453   0.872   8.973  2.9827 -0.0001  1.2769
  610MOL0     H82305  -0.582   0.997   8.999 -0.1076 -0.0573  2.3713
  610MOL0     H82306  -0.571   0.935   9.242  2.4444  2.2031  0.2247
  610MOL0     H82307  -0.474   0.788   9.188  1.9799  1.9818 -0.4945
  610MOL0     H82308  -0.643   0.674   9.102  0.4697  0.9455 -1.2214
  610MOL0     H82309  -0.747   0.815   9.065 -1.1059 -3.4230 -1.2610
  610MOL0     H82310  -0.847   0.587   9.099 -1.6315 -2.3655  0.2159
  610MOL0     H82311  -0.987   0.407   9.018 -0.2881  2.4427 -3.1338
  610MOL0     H82312  -1.094   0.337   9.133 -0.1826  0.2497 -0.2338
  610MOL0     H82313  -1.157   0.475   9.043  0.4623  0.8836  0.9921
  610MOL0     H82314  -1.365   0.238   9.244  0.3473  0.3237  0.0184
  610MOL0     H82315  -1.602   0.130   9.208 -3.1301 -0.3209  2.1504
  610MOL0     H82316  -1.970   0.338   9.130  1.6431  0.3470  3.5776
  610MOL0     H82317  -1.813   0.290   9.038  4.6635 -0.1546  3.4411
  610MOL0     H82318  -1.887   0.052   9.055  0.1458  0.0901 -2.2027
  610MOL0     H82319  -2.002   0.100   9.182  1.3589  0.0019  1.4050
  610MOL0     H82320  -2.019   0.189   8.899  1.2561 -0.6540  0.5068
  610MOL0     H82321  -2.131   0.244   9.022  0.0529 -0.0176  1.6529
  610MOL0     H82322  -2.057  -0.043   8.968 -0.0522  1.2412  0.6499
  610MOL0     H82323  -2.183  -0.004   9.079 -1.1299 -2.7905 -0.0416
  610MOL0     H82324  -2.187   0.038   8.783  3.0631 -1.3814  1.5914
  610MOL0     H82325  -2.320   0.084   8.894 -0.6526 -1.5800  1.0092
  610MOL0     H82326  -2.218  -0.202   8.841 -0.0441  2.0222  0.8280
  610MOL0     H82327  -2.331  -0.158   8.962 -1.2684 -0.5363 -0.0712
  610MOL0     H82328  -2.477  -0.035   8.779  1.0311  0.5887  0.2293
  610MOL0     H82329  -2.479  -0.214   8.802  1.8103  0.3531  1.5085
  610MOL0     H82330  -2.474  -0.181   8.570 -1.2736  2.1731 -2.1324
  610MOL0     H82331  -2.310  -0.226   8.622  1.0619  1.1033 -1.0979
  610MOL0     H82332  -1.758   0.531   9.249 -0.3359 -0.3753 -0.5062
  610MOL0     H82333  -1.530   0.621   9.227 -1.6151  1.0403  0.7672
  610MOL0     H82334  -1.114   0.649   9.503 -0.2295 -2.9821  0.0276
  610MOL0     H82335  -0.901   0.781   9.470 -0.2435  2.3137 -2.2679
  610MOL0     H82336   0.512   0.861   9.013 -1.1048  3.1872 -1.7010
  610MOL0     H82337   0.663   0.669   9.013 -0.0060  2.0955  1.8313
  610MOL0     H82338   0.767   0.265   8.617  0.2671 -0.5222  0.6827
  610MOL0     H82339   0.920   0.096   8.583  1.0111 -2.1924  1.2116
  610MOL0     H82340   1.060  -0.044   8.563 -4.0583 -0.5726  2.9866
  610MOL0     H82341   1.214  -0.094   8.621 -1.1494 -1.9181 -1.2389
  610MOL0     H82342   1.011  -0.204   8.725 -0.0164  0.8303  0.6929
  610MOL0     H82343   0.980  -0.053   8.819 -1.0480  0.4780  0.2253
  610MOL0     H82344   1.218  -0.074   8.909  0.2494  1.0570 -1.4932
  610MOL0     H82345   1.219  -0.238   8.842  0.1281 -1.9891  1.3817
  610MOL0     H82346   1.000  -0.294   8.955  1.0337 -0.8583 -1.2339
  610MOL0     H82347   1.008  -0.154   9.049 -2.6800 -1.1416 -1.3329
  610MOL0     H82348   1.330  -0.398   9.229 -1.4213 -0.3307  1.4290
  610MOL0     H82349   1.206   0.303   8.838 -0.3030  1.8862  1.6096
  610MOL0     H82350   1.048   0.488   8.861  1.0870 -1.5596  1.1508
  611MOL0     O82351  10.701   1.253   3.778 -0.3087  0.4459  0.0446
  611MOL0     C82352  10.730   1.290   3.889 -0.3229  0.0783 -1.0926
  611MOL0     O82353  10.645   1.286   4.001 -0.4850 -0.3776 -0.1661
  611MOL0     C82354  10.537   1.208   3.996 -0.5203  0.5611 -0.6705
  611MOL0     C82355  10.440   1.223   3.895  0.1207  0.3821  0.6647
  611MOL0     C82356  10.339   1.130   3.874  0.7126  0.0376 -0.4105
  611MOL0     C82357  10.331   1.014   3.948  0.3898 -0.1697 -0.4870
  611MOL0     O82358  10.227   0.929   3.932  0.3849 -0.0802 -0.5836
  611MOL0     C82359  10.103   0.989   3.895  0.7809  0.8514 -0.3605
  611MOL0     C82360   9.994   0.885   3.939  0.4120  0.9967 -0.1699
  611MOL0     C82361   9.857   0.955   3.952  0.0265  0.1514 -0.3325
  611MOL0     C82362   9.745   0.858   3.928  0.1014  0.1138 -0.4481
  611MOL0     C82363   9.610   0.939   3.927  0.7288  0.1586  0.1059
  611MOL0     C82364   9.502   0.831   3.931 -0.2315  0.3265  0.3394
  611MOL0     C82365   9.363   0.893   3.939 -0.2570  0.4886 -0.4278
  611MOL0     C82366   9.348   1.018   4.037  0.5674  1.0796  0.5868
  611MOL0     N82367   9.211   1.054   4.033  0.5669  1.1227  0.3332
  611MOL0     C82368   9.173   1.188   4.039  0.6439  0.1861  0.4220
  611MOL0     C82369   9.046   1.185   4.065 -0.4713 -0.8279 -0.8937
  611MOL0     C82370   8.975   1.309   4.109  0.6629 -0.6562 -0.6686
  611MOL0     C82371   8.914   1.389   3.987 -0.3262 -0.2866 -0.2825
  611MOL0     C82372   8.851   1.528   4.027  0.7342  0.0521  0.0368
  611MOL0     C82373   8.752   1.520   4.135  0.2051  0.1786 -1.0471
  611MOL0     O82374   8.699   1.651   4.141 -0.0093 -0.2595 -0.0385
  611MOL0     C82375   8.617   1.680   4.246 -0.2634  0.4131  0.3321
  611MOL0     C82376   8.503   1.596   4.278 -0.7636  0.3570  0.5528
  611MOL0     C82377   8.433   1.610   4.395 -0.0164 -0.0118 -0.3019
  611MOL0     C82378   8.321   1.508   4.414 -0.1381 -0.2708  0.3539
  611MOL0     C82379   8.477   1.705   4.491 -0.2229 -0.0136 -0.7621
  611MOL0     C82380   8.411   1.721   4.623  0.3911  0.5804  0.0946
  611MOL0     O82381   8.498   1.770   4.721  0.0357  0.2219 -0.3615
  611MOL0     C82382   8.482   1.735   4.851  0.6281 -0.1327  0.8847
  611MOL0     C82383   8.457   1.595   4.885 -0.5176 -0.0656 -1.0306
  611MOL0     C82384   8.427   1.559   5.013  0.4529  0.4225 -0.4442
  611MOL0     C82385   8.417   1.652   5.115  0.3338 -0.2763 -0.2602
  611MOL0     O82386   8.376   1.599   5.232  0.1613  0.4268 -0.7547
  611MOL0     C82387   8.334   1.679   5.345  0.7212 -0.0255  0.3431
  611MOL0     C82388   8.191   1.733   5.309 -0.3331  0.2643 -0.0419
  611MOL0     C82389   8.147   1.849   5.403 -0.1183  0.1193 -0.2641
  611MOL0     C82390   8.009   1.885   5.362 -0.1312 -0.1024 -0.6061
  611MOL0     C82391   7.986   2.035   5.390  0.2559  0.8349 -0.8629
  611MOL0     C82392   7.863   2.089   5.312  0.9169 -0.0292  0.0734
  611MOL0     C82393   7.842   2.239   5.353 -0.5669 -0.0499  0.3045
  611MOL0     C82394   7.712   2.250   5.428 -0.1577 -0.5761  0.6369
  611MOL0    Cl82395   7.731   2.161   5.584 -0.1480 -0.1264 -0.5989
  611MOL0     C82396   8.457   1.787   5.084  0.6532  0.1299 -0.2271
  611MOL0     C82397   8.492   1.832   4.952 -0.3416  0.1982 -0.2191
  611MOL0     O82398   8.292   1.696   4.639  0.0279 -0.2650 -0.7299
  611MOL0     C82399   8.582   1.793   4.459 -0.0626 -0.1330 -0.3920
  611MOL0     C82400   8.654   1.780   4.341 -0.0674  0.0079 -0.1451
  611MOL0     N82401   9.001   1.059   4.087 -0.1553 -0.5016 -0.7833
  611MOL0     N82402   9.105   0.980   4.068 -0.0010  0.9697  0.3197
  611MOL0     C82403  10.436   0.988   4.038 -0.6616  0.1295 -0.6421
  611MOL0     C82404  10.535   1.088   4.071  0.3299  0.0157  0.7642
  611MOL0     C82405  10.864   1.328   3.918 -0.5640 -0.2930 -0.9304
  611MOL0     C82406  10.948   1.356   3.809  0.2227  0.4630  0.6760
  611MOL0     C82407  11.075   1.398   3.835 -0.0977 -0.8346  0.3871
  611MOL0     C82408  11.136   1.414   3.955 -0.2286  0.7123  0.7796
  611MOL0     O82409  11.262   1.457   3.967  0.2456  0.3189 -0.5152
  611MOL0     C82410  11.321   1.489   4.093  0.5219 -0.6090 -0.5001
  611MOL0     C82411  11.447   1.569   4.080  1.0040  0.1693  0.0004
  611MOL0     C82412  11.418   1.703   4.008 -0.8997  0.0631 -0.2120
  611MOL0     C82413  11.535   1.794   4.031 -0.1254 -0.7723 -0.8810
  611MOL0     C82414  11.647   1.748   3.958  0.3584 -0.1999 -0.2593
  611MOL0     C82415  11.736   1.693   3.896 -0.7230 -0.4642  0.5042
  611MOL0     C82416  11.056   1.372   4.064  0.1205  0.3060 -0.4016
  611MOL0     C82417  10.920   1.333   4.048 -0.2252 -0.7588 -0.3614
  611MOL0     H82418  10.442   1.309   3.828  1.3290 -0.3089 -0.2199
  611MOL0     H82419  10.263   1.158   3.801  0.5416 -2.1626 -1.1590
  611MOL0     H82420  10.085   1.088   3.939  0.7866  0.7338 -0.0931
  611MOL0     H82421  10.093   0.998   3.786  0.4258 -1.0112 -0.5210
  611MOL0     H82422   9.987   0.801   3.868 -0.8072 -1.1131  2.2587
  611MOL0     H82423  10.011   0.838   4.036  0.0378 -0.9817 -1.0065
  611MOL0     H82424   9.854   0.996   4.054  0.3719  0.3647 -0.4068
  611MOL0     H82425   9.855   1.038   3.881  2.3235  0.9285  0.4175
  611MOL0     H82426   9.770   0.800   3.839 -1.5155  2.0404 -2.2858
  611MOL0     H82427   9.746   0.793   4.015 -0.0843  1.2671  0.4418
  611MOL0     H82428   9.611   0.999   4.018 -0.9093 -0.6893  0.7268
  611MOL0     H82429   9.603   1.000   3.836 -0.9126  0.0593  0.1300
  611MOL0     H82430   9.501   0.770   3.841 -2.4427  1.7196 -0.6905
  611MOL0     H82431   9.520   0.760   4.012  1.0073  0.0332 -0.1704
  611MOL0     H82432   9.320   0.910   3.840 -0.3999 -0.1184 -0.4794
  611MOL0     H82433   9.290   0.815   3.967 -1.8894  2.2022  0.2872
  611MOL0     H82434   9.401   1.107   4.001 -1.4123  1.3623 -1.9161
  611MOL0     H82435   9.377   0.995   4.139  0.4530 -0.1222  0.3642
  611MOL0     H82436   9.249   1.265   4.041  1.4315 -0.4992 -0.8693
  611MOL0     H82437   8.892   1.276   4.171 -1.3829  1.5707 -2.0225
  611MOL0     H82438   9.036   1.373   4.174 -1.9250 -0.3325  1.6410
  611MOL0     H82439   8.835   1.330   3.940 -0.3681 -0.7428  0.3436
  611MOL0     H82440   8.992   1.404   3.912 -0.6498  2.3531 -0.1774
  611MOL0     H82441   8.802   1.577   3.943  1.4016 -1.5563 -1.3630
  611MOL0     H82442   8.928   1.594   4.067  1.4299 -0.9296  0.3737
  611MOL0     H82443   8.800   1.491   4.229  0.5349 -2.7848 -2.0150
  611MOL0     H82444   8.667   1.455   4.112 -1.5149  1.3501  1.4876
  611MOL0     H82445   8.474   1.528   4.198  1.7548  1.2812 -1.2680
  611MOL0     H82446   8.317   1.445   4.325  0.0749 -0.8502  0.7472
  611MOL0     H82447   8.337   1.448   4.504 -3.0386 -1.2065  0.3464
  611MOL0     H82448   8.222   1.553   4.426 -0.3387 -0.1941 -1.3585
  611MOL0     H82449   8.452   1.520   4.806 -1.1410 -0.7919 -0.3113
  611MOL0     H82450   8.395   1.458   5.034  2.6573  0.0433  1.4702
  611MOL0     H82451   8.336   1.615   5.434  0.8196  0.0012  0.3608
  611MOL0     H82452   8.395   1.770   5.351 -1.2230  1.4121 -0.8336
  611MOL0     H82453   8.200   1.773   5.208  2.1316  1.4258  0.5631
  611MOL0     H82454   8.123   1.647   5.310 -0.1548  0.1157  1.1440
  611MOL0     H82455   8.213   1.933   5.380  0.2762 -0.5085 -1.4940
  611MOL0     H82456   8.154   1.822   5.509  0.0979 -0.5590 -0.4507
  611MOL0     H82457   7.988   1.870   5.256  1.7162  4.4214 -1.8413
  611MOL0     H82458   7.942   1.825   5.426  2.1638 -0.1861  1.8947
  611MOL0     H82459   8.072   2.093   5.356 -0.1375  1.1092 -1.4065
  611MOL0     H82460   7.972   2.045   5.498 -0.8887  0.4470 -0.9635
  611MOL0     H82461   7.865   2.078   5.203  0.8793  0.2315  0.0474
  611MOL0     H82462   7.775   2.028   5.334 -0.4682  1.7564 -0.3565
  611MOL0     H82463   7.827   2.308   5.269  0.7066  2.1840  1.7987
  611MOL0     H82464   7.927   2.270   5.415 -0.3725  0.3165 -0.1382
  611MOL0     H82465   7.634   2.202   5.368  0.7664 -0.1338 -0.9727
  611MOL0     H82466   7.688   2.355   5.445  1.0402 -0.1497 -0.2517
  611MOL0     H82467   8.452   1.864   5.160 -0.0370 -1.5628  1.5295
  611MOL0     H82468   8.530   1.928   4.917 -0.3914  0.1863 -0.3040
  611MOL0     H82469   8.623   1.878   4.514  3.2826 -2.1873  0.5732
  611MOL0     H82470   8.743   1.840   4.325  1.7977 -1.6147  3.1302
  611MOL0     H82471  10.443   0.895   4.093 -0.8893  0.1684 -0.5457
  611MOL0     H82472  10.621   1.065   4.134  0.2319 -1.2112  0.4833
  611MOL0     H82473  10.904   1.355   3.710 -0.6452 -0.7980  1.0607
  611MOL0     H82474  11.130   1.431   3.749 -0.3562  3.2242  1.5905
  611MOL0     H82475  11.243   1.551   4.140 -0.9232 -1.9490 -1.0158
  611MOL0     H82476  11.329   1.395   4.150 -2.4573 -1.5203 -1.3537
  611MOL0     H82477  11.528   1.508   4.038  0.3360  0.2262 -1.4368
  611MOL0     H82478  11.461   1.589   4.186  0.5044  0.3572  0.0321
  611MOL0     H82479  11.331   1.758   4.043 -0.6199  1.7463 -2.0022
  611MOL0     H82480  11.419   1.693   3.899  1.6258  0.7405 -0.3292
  611MOL0     H82481  11.561   1.790   4.137 -0.9293 -0.5739 -0.6683
  611MOL0     H82482  11.517   1.899   4.006  3.0665  0.0987 -0.0018
  611MOL0     H82483  11.816   1.647   3.841 -0.7266 -0.7886  0.7662
  611MOL0     H82484  11.105   1.384   4.161 -1.6740  2.8168  0.2797
  611MOL0     H82485  10.863   1.302   4.135  1.6461 -1.2588  0.7272
  612MOL0     O82486   4.841   8.043   4.076  0.0783 -0.3431  0.1172
  612MOL0     C82487   4.876   7.967   4.161 -0.6555 -0.6076 -0.4895
  612MOL0     O82488   4.871   7.990   4.297  0.6190  0.2662  0.6964
  612MOL0     C82489   4.803   8.100   4.349  0.2256  0.4347  1.1999
  612MOL0     C82490   4.869   8.224   4.373 -0.2626 -0.9476  0.5091
  612MOL0     C82491   4.800   8.335   4.435 -0.9023  0.1650 -0.0215
  612MOL0     C82492   4.671   8.314   4.480 -0.7562  1.1368  1.0251
  612MOL0     O82493   4.616   8.422   4.541  0.1602 -0.0725  0.1557
  612MOL0     C82494   4.490   8.407   4.617  0.4490  0.3011 -0.3352
  612MOL0     C82495   4.384   8.428   4.509  0.5815  0.4079 -0.4413
  612MOL0     C82496   4.241   8.437   4.583 -0.9770  0.8701 -0.2422
  612MOL0     C82497   4.207   8.582   4.611 -0.5841  0.3328  0.4247
  612MOL0     C82498   4.068   8.610   4.651  0.0596 -0.8081 -0.2114
  612MOL0     C82499   3.956   8.592   4.551 -0.1017 -0.0069 -0.5107
  612MOL0     C82500   3.817   8.618   4.610  0.5324 -0.0752  0.0726
  612MOL0     C82501   3.710   8.638   4.504 -0.3509 -0.8330 -0.2288
  612MOL0     N82502   3.574   8.603   4.557 -0.8155 -0.0806  0.6108
  612MOL0     C82503   3.479   8.691   4.591 -0.6855  0.3670  0.5910
  612MOL0     C82504   3.357   8.629   4.591  0.1383  0.1572  0.6478
  612MOL0     C82505   3.226   8.705   4.619  0.2477 -0.8224  0.0478
  612MOL0     C82506   3.152   8.630   4.734 -0.0895  0.3163  0.2269
  612MOL0     C82507   3.046   8.715   4.797 -0.4975  0.8254 -0.2636
  612MOL0     C82508   2.911   8.687   4.727 -0.2724 -0.0289  0.5508
  612MOL0     O82509   2.920   8.685   4.583 -0.1670  0.3927  0.8450
  612MOL0     C82510   2.818   8.631   4.500 -0.4924 -0.0166 -0.7298
  612MOL0     C82511   2.840   8.626   4.366 -0.2864 -0.6660  0.3847
  612MOL0     C82512   2.748   8.564   4.283  0.9542  0.1023  0.5073
  612MOL0     C82513   2.767   8.567   4.140 -0.2371  0.3475 -0.3087
  612MOL0     C82514   2.625   8.506   4.333 -0.3551 -0.4331 -0.2666
  612MOL0     C82515   2.531   8.425   4.250  0.4277  0.0373  0.1949
  612MOL0     O82516   2.401   8.418   4.292 -0.3763 -0.3023  0.0155
  612MOL0     C82517   2.321   8.326   4.233 -0.0047 -0.6884 -0.1214
  612MOL0     C82518   2.242   8.354   4.120 -0.2650 -0.3900  0.0877
  612MOL0     C82519   2.161   8.258   4.067  0.6921 -0.6279 -0.2973
  612MOL0     C82520   2.143   8.134   4.133  0.1610 -0.3813  0.2169
  612MOL0     O82521   2.053   8.042   4.094  0.0083 -0.0582 -0.3063
  612MOL0     C82522   1.947   8.078   4.001  0.1639 -0.0419 -0.0962
  612MOL0     C82523   1.840   7.970   4.011  0.7371 -0.2766  0.5193
  612MOL0     C82524   1.758   7.983   3.883  0.4841 -0.0377 -0.0743
  612MOL0     C82525   1.632   7.894   3.906 -0.1810 -0.9175 -0.7663
  612MOL0     C82526   1.659   7.741   3.913 -0.3272  0.3704 -0.7146
  612MOL0     C82527   1.526   7.668   3.947  0.6759  0.4768  0.0326
  612MOL0     C82528   1.410   7.691   3.858  0.0787 -0.7474  0.2737
  612MOL0     C82529   1.314   7.575   3.845  0.0279 -0.4314  0.3855
  612MOL0    Cl82530   1.224   7.547   4.001 -0.0836 -0.0545 -0.0838
  612MOL0     C82531   2.222   8.110   4.246 -0.1837  0.0322  0.3656
  612MOL0     C82532   2.313   8.204   4.296  0.0157  0.8700 -0.0737
  612MOL0     O82533   2.584   8.350   4.169  0.2128 -0.3549  0.3420
  612MOL0     C82534   2.602   8.523   4.470  0.4678 -0.8183 -1.0121
  612MOL0     C82535   2.693   8.586   4.552 -0.2910  0.5102 -0.5882
  612MOL0     N82536   3.381   8.500   4.545 -0.8995  0.6659  0.6740
  612MOL0     N82537   3.510   8.484   4.530 -0.0259 -0.5014  0.4922
  612MOL0     C82538   4.608   8.193   4.450 -0.2410 -0.2856 -1.9067
  612MOL0     C82539   4.678   8.086   4.397  0.5743 -0.4064 -0.6575
  612MOL0     C82540   4.937   7.839   4.113  0.6233 -0.5004  0.0028
  612MOL0     C82541   4.961   7.728   4.195  0.1273 -0.9316 -0.0044
  612MOL0     C82542   5.017   7.606   4.153  0.5448 -0.2753  0.0190
  612MOL0     C82543   5.054   7.592   4.020  0.1813 -0.3137 -0.5074
  612MOL0     O82544   5.127   7.489   3.958  0.6492  0.1313 -0.3881
  612MOL0     C82545   5.148   7.366   4.032 -0.3948  0.5797  0.1573
  612MOL0     C82546   5.018   7.273   4.027 -0.5772  0.4808  0.0019
  612MOL0     C82547   5.005   7.203   3.891 -1.0203  0.5554  0.1426
  612MOL0     C82548   4.941   7.312   3.799 -0.9036  0.5016 -0.4710
  612MOL0     C82549   4.874   7.244   3.689 -0.4334  0.6099  0.7965
  612MOL0     C82550   4.820   7.189   3.600  0.4846  0.3545  0.2667
  612MOL0     C82551   5.022   7.695   3.933 -0.2970  0.0274 -0.0474
  612MOL0     C82552   4.961   7.812   3.973  0.3087 -0.2133 -1.3912
  612MOL0     H82553   4.965   8.232   4.324  0.0578  2.2410  1.4489
  612MOL0     H82554   4.847   8.431   4.450 -2.4879  0.6872  1.9069
  612MOL0     H82555   4.493   8.307   4.660  0.5870  0.4562  0.0239
  612MOL0     H82556   4.485   8.487   4.692 -2.5915 -0.8952  0.8898
  612MOL0     H82557   4.395   8.516   4.445 -0.5378  1.2151  0.4298
  612MOL0     H82558   4.390   8.344   4.439 -1.3695 -0.5283  0.4401
  612MOL0     H82559   4.163   8.408   4.512  0.9393 -0.4094 -1.9515
  612MOL0     H82560   4.233   8.379   4.675 -0.9416 -0.1470 -0.8598
  612MOL0     H82561   4.277   8.621   4.686 -1.1116 -0.3378  1.2769
  612MOL0     H82562   4.233   8.650   4.529 -1.6650  2.2494  1.5954
  612MOL0     H82563   4.044   8.540   4.731  0.6275 -1.4766 -0.6155
  612MOL0     H82564   4.069   8.712   4.690  0.8487 -1.0457  0.4134
  612MOL0     H82565   3.972   8.664   4.471 -0.5734 -0.1968 -0.7813
  612MOL0     H82566   3.956   8.491   4.507 -0.7853 -0.7921  1.1993
  612MOL0     H82567   3.792   8.527   4.665  0.9191  1.0191  2.1304
  612MOL0     H82568   3.820   8.703   4.678  0.4353  1.8059 -2.1575
  612MOL0     H82569   3.733   8.589   4.409  2.1696 -1.1492  0.4711
  612MOL0     H82570   3.717   8.745   4.485  0.8201 -1.0258 -1.0044
  612MOL0     H82571   3.497   8.798   4.593 -2.6401  0.9400 -3.1697
  612MOL0     H82572   3.246   8.802   4.665  2.1722 -1.3940  0.4854
  612MOL0     H82573   3.164   8.712   4.529 -0.0336  2.3134  0.3727
  612MOL0     H82574   3.218   8.598   4.815  0.2504 -3.2080 -1.2592
  612MOL0     H82575   3.105   8.540   4.695 -0.4684 -0.6970  2.8520
  612MOL0     H82576   3.073   8.820   4.807  2.0577  0.3192 -1.1845
  612MOL0     H82577   3.038   8.689   4.903  2.4447 -1.6533 -0.5186
  612MOL0     H82578   2.840   8.768   4.747 -2.0270 -1.0622 -1.0996
  612MOL0     H82579   2.867   8.596   4.771  0.1898 -0.1689  0.7223
  612MOL0     H82580   2.935   8.661   4.326 -0.6539  0.0926  0.1529
  612MOL0     H82581   2.843   8.642   4.117 -0.4789  1.6161  2.6396
  612MOL0     H82582   2.793   8.467   4.103 -1.5810  0.0896 -0.6447
  612MOL0     H82583   2.674   8.600   4.091 -0.1904  1.0771  0.0870
  612MOL0     H82584   2.259   8.447   4.065 -1.3214  0.0327  0.4574
  612MOL0     H82585   2.107   8.280   3.976 -0.5903  0.3377  0.6504
  612MOL0     H82586   1.893   8.166   4.036 -0.1658 -0.0727 -0.5246
  612MOL0     H82587   1.981   8.086   3.898  1.5129 -0.8379  0.2529
  612MOL0     H82588   1.879   7.867   4.014 -2.4202 -1.5989 -0.0267
  612MOL0     H82589   1.782   7.988   4.102  0.4013  0.5468  0.1512
  612MOL0     H82590   1.822   7.946   3.801  2.1074  1.6028  0.3744
  612MOL0     H82591   1.721   8.083   3.860 -0.7399 -0.2608  0.8282
  612MOL0     H82592   1.577   7.927   3.996 -2.2480 -2.6919 -1.2833
  612MOL0     H82593   1.561   7.912   3.825  0.8558 -0.0595 -1.5061
  612MOL0     H82594   1.743   7.714   3.978 -0.1902  0.8628 -0.6807
  612MOL0     H82595   1.700   7.713   3.815 -2.3444  0.2112 -1.5522
  612MOL0     H82596   1.541   7.560   3.956 -1.4664 -0.1180 -2.2139
  612MOL0     H82597   1.493   7.705   4.044 -4.1086 -0.7212 -0.8731
  612MOL0     H82598   1.452   7.707   3.758  1.8867 -3.3262  0.5260
  612MOL0     H82599   1.360   7.781   3.895  0.0578 -1.2683  1.5689
  612MOL0     H82600   1.360   7.485   3.804 -0.3624 -0.0613 -0.9161
  612MOL0     H82601   1.236   7.605   3.774 -0.0181  1.2929  1.1203
  612MOL0     H82602   2.202   8.015   4.295  0.4289 -0.7006 -0.7423
  612MOL0     H82603   2.361   8.181   4.391 -2.6292 -0.1112  1.1249
  612MOL0     H82604   2.506   8.498   4.516  0.5893  0.0846 -0.2300
  612MOL0     H82605   2.679   8.597   4.659  3.1973  1.4597 -0.1240
  612MOL0     H82606   4.510   8.179   4.496  1.2930 -1.5336  1.3223
  612MOL0     H82607   4.635   7.987   4.399  1.8363 -1.0032 -1.6724
  612MOL0     H82608   4.945   7.745   4.301 -1.2334  1.3370 -0.5108
  612MOL0     H82609   5.045   7.526   4.221  0.5382 -3.1848 -3.1229
  612MOL0     H82610   5.234   7.312   3.991  0.4579  1.5051  0.6638
  612MOL0     H82611   5.178   7.380   4.136 -0.4448  3.1725 -0.1065
  612MOL0     H82612   4.929   7.327   4.060 -0.3264  1.4255 -0.8340
  612MOL0     H82613   5.017   7.189   4.097 -1.6977  0.3644 -0.1421
  612MOL0     H82614   4.952   7.108   3.899  0.5355 -0.2690  1.2232
  612MOL0     H82615   5.099   7.171   3.844  0.3704  2.3301  1.5510
  612MOL0     H82616   5.018   7.366   3.743  0.2461 -0.9533 -0.3510
  612MOL0     H82617   4.869   7.372   3.857 -1.1661  0.3939 -0.6826
  612MOL0     H82618   4.774   7.146   3.514  0.4551 -0.4342  0.6696
  612MOL0     H82619   5.035   7.671   3.828 -1.1612  0.8483 -0.3476
  612MOL0     H82620   4.925   7.891   3.908  1.7856  4.0971  2.4784
  613MOL0     O82621   7.387   0.741   5.126  0.0755  0.3881 -0.2049
  613MOL0     C82622   7.383   0.648   5.041 -0.9163  0.0580 -0.5123
  613MOL0     O82623   7.281   0.607   4.954 -0.4773  0.4686 -0.1944
  613MOL0     C82624   7.162   0.675   4.938 -0.6795 -0.1707 -1.0680
  613MOL0     C82625   7.058   0.607   4.874 -0.3808 -0.9180 -1.0717
  613MOL0     C82626   6.931   0.668   4.872  0.5665  0.6090 -0.2111
  613MOL0     C82627   6.896   0.787   4.933  0.8307  0.1563  0.0007
  613MOL0     O82628   6.766   0.816   4.939 -0.5074  0.2329  0.4880
  613MOL0     C82629   6.701   0.917   5.024 -0.2970  0.0662 -0.4465
  613MOL0     C82630   6.596   0.849   5.095  0.0402  1.0158  0.2867
  613MOL0     C82631   6.524   0.938   5.189  0.4240  0.4733  0.0814
  613MOL0     C82632   6.423   0.847   5.261 -1.0036 -0.8728  0.9828
  613MOL0     C82633   6.348   0.915   5.380  0.2200  0.4528  0.3643
  613MOL0     C82634   6.209   0.848   5.399 -0.5197  0.1629  0.2892
  613MOL0     C82635   6.112   0.925   5.486 -0.0102  0.2757  0.3281
  613MOL0     C82636   6.041   0.841   5.588 -0.0149 -0.8569 -0.8814
  613MOL0     N82637   5.957   0.750   5.515  0.5770  0.1295 -0.1790
  613MOL0     C82638   5.832   0.777   5.460  0.4513  0.1805  0.4341
  613MOL0     C82639   5.800   0.660   5.398 -0.3261  0.0316 -0.6118
  613MOL0     C82640   5.680   0.637   5.313 -0.4977 -0.0890  0.6248
  613MOL0     C82641   5.547   0.657   5.371  0.0910 -0.3572  1.0528
  613MOL0     C82642   5.431   0.624   5.281 -0.5061  0.0149 -0.1020
  613MOL0     C82643   5.288   0.676   5.315 -0.7728 -0.0596 -0.1440
  613MOL0     O82644   5.233   0.603   5.427 -0.6051  0.3329  0.1543
  613MOL0     C82645   5.102   0.607   5.465  0.2421 -0.5968  0.0841
  613MOL0     C82646   5.007   0.675   5.389  0.7085  0.1312 -0.0437
  613MOL0     C82647   4.878   0.683   5.436 -0.3588 -0.4606  0.6122
  613MOL0     C82648   4.783   0.760   5.340 -0.5127  0.9079 -0.1277
  613MOL0     C82649   4.832   0.619   5.555  0.1670  0.4484  0.0591
  613MOL0     C82650   4.692   0.619   5.603 -1.2467 -0.3246 -0.6376
  613MOL0     O82651   4.620   0.724   5.587 -0.0713 -0.6269  0.4501
  613MOL0     C82652   4.488   0.723   5.619  0.1681 -0.2806 -0.4931
  613MOL0     C82653   4.435   0.794   5.726  0.2086 -0.3505 -0.5248
  613MOL0     C82654   4.290   0.815   5.736 -0.6989 -0.1271 -0.1450
  613MOL0     C82655   4.212   0.769   5.636 -0.3288  0.4447 -0.3676
  613MOL0     O82656   4.074   0.792   5.642  0.3177 -0.3612  0.5434
  613MOL0     C82657   4.027   0.922   5.590 -0.9517  0.3682  0.0891
  613MOL0     C82658   3.873   0.916   5.579 -0.4283 -0.2057 -0.2538
  613MOL0     C82659   3.792   0.931   5.710  0.4001 -0.1822  0.4495
  613MOL0     C82660   3.762   0.794   5.764  0.3006  0.9022 -0.3485
  613MOL0     C82661   3.674   0.804   5.890 -0.4186  0.1145 -0.5103
  613MOL0     C82662   3.621   0.662   5.913  0.4061 -0.6763 -0.8442
  613MOL0     C82663   3.634   0.634   6.064 -0.4310  0.1089 -0.5375
  613MOL0     C82664   3.505   0.689   6.131  0.6116 -0.4737 -0.4791
  613MOL0    Cl82665   3.347   0.600   6.093 -0.2918 -0.4021 -0.0968
  613MOL0     C82666   4.269   0.692   5.522 -0.0779 -0.4736 -0.6292
  613MOL0     C82667   4.401   0.675   5.520  0.1329 -0.3390 -0.1371
  613MOL0     O82668   4.652   0.521   5.666  0.1063  0.2663 -1.0532
  613MOL0     C82669   4.926   0.551   5.634 -0.2623 -0.1166 -0.0297
  613MOL0     C82670   5.060   0.545   5.591 -0.4797 -0.6600 -0.5194
  613MOL0     N82671   5.908   0.568   5.411 -0.1775  0.4555 -0.1445
  613MOL0     N82672   6.002   0.624   5.486 -0.3105 -0.0090 -0.3448
  613MOL0     C82673   6.999   0.859   4.989 -0.8170  0.2605  0.3270
  613MOL0     C82674   7.127   0.801   4.996 -0.5615 -0.3642 -0.5912
  613MOL0     C82675   7.507   0.571   5.039  0.3446  0.5023 -0.7983
  613MOL0     C82676   7.610   0.578   5.132  0.0312 -0.5651 -0.9563
  613MOL0     C82677   7.715   0.497   5.123 -0.1844 -0.0696 -0.3663
  613MOL0     C82678   7.732   0.399   5.018 -0.5955 -0.4575  0.2589
  613MOL0     O82679   7.840   0.318   5.013 -0.1646 -0.0444 -0.9133
  613MOL0     C82680   7.961   0.358   5.074 -0.3295 -0.3060 -0.9629
  613MOL0     C82681   8.053   0.243   5.044 -0.6807  0.3654 -0.3334
  613MOL0     C82682   8.064   0.142   5.162 -0.2211 -0.6749 -0.1370
  613MOL0     C82683   7.969   0.030   5.149  0.8467 -0.0129  0.0177
  613MOL0     C82684   8.020  -0.068   5.052  0.0205  0.4234 -0.3983
  613MOL0     C82685   8.044  -0.151   4.965 -0.3844  0.0605 -0.8269
  613MOL0     C82686   7.629   0.389   4.932  0.3814 -0.8104  0.8632
  613MOL0     C82687   7.518   0.471   4.944  0.2955  0.5793  0.2558
  613MOL0     H82688   7.086   0.514   4.826  1.6527 -0.6908 -0.3963
  613MOL0     H82689   6.854   0.604   4.830 -0.0196  1.5861 -0.6613
  613MOL0     H82690   6.767   0.967   5.095 -0.8716  2.6104 -1.6141
  613MOL0     H82691   6.657   0.985   4.951 -1.1212 -2.6748 -2.7045
  613MOL0     H82692   6.537   0.794   5.021  2.5480 -3.4929  1.2284
  613MOL0     H82693   6.649   0.776   5.157 -0.8995 -0.9691 -1.1203
  613MOL0     H82694   6.592   0.987   5.260  0.8452 -1.9413  1.4414
  613MOL0     H82695   6.466   1.017   5.140  0.0885 -0.0931 -0.4445
  613MOL0     H82696   6.357   0.823   5.177  1.5576  0.4768 -1.6389
  613MOL0     H82697   6.468   0.752   5.292  1.0286 -0.7813 -1.3431
  613MOL0     H82698   6.400   0.905   5.476  0.3957 -1.6132  0.1139
  613MOL0     H82699   6.334   1.017   5.344  0.2362 -0.5162 -2.6980
  613MOL0     H82700   6.160   0.855   5.301 -0.3009  5.1535  0.3020
  613MOL0     H82701   6.224   0.742   5.424  0.0437 -0.0968 -1.0535
  613MOL0     H82702   6.160   1.006   5.542 -2.3537  1.3148  0.9283
  613MOL0     H82703   6.040   0.985   5.429  0.2175  1.2588  1.0371
  613MOL0     H82704   5.984   0.910   5.651  1.0181 -2.1475  1.6439
  613MOL0     H82705   6.109   0.785   5.654  0.1456 -1.7831 -1.8085
  613MOL0     H82706   5.773   0.868   5.454 -0.7893 -0.6544 -0.5030
  613MOL0     H82707   5.699   0.701   5.226  2.2056  2.4968  2.8573
  613MOL0     H82708   5.681   0.531   5.285  3.1096 -0.4777  1.6158
  613MOL0     H82709   5.545   0.765   5.389 -3.4086 -0.4826  2.1269
  613MOL0     H82710   5.537   0.603   5.466 -0.9659 -0.6566  0.7837
  613MOL0     H82711   5.429   0.515   5.274 -2.1954  0.0245  0.0268
  613MOL0     H82712   5.466   0.672   5.189 -0.2592  1.9801  0.9701
  613MOL0     H82713   5.225   0.657   5.228  1.3946  1.2922 -2.0983
  613MOL0     H82714   5.292   0.783   5.340 -1.1473 -0.2942  1.0034
  613MOL0     H82715   5.040   0.724   5.299  0.0458  0.4781 -0.0988
  613MOL0     H82716   4.745   0.856   5.377 -1.3847 -0.1040  1.7359
  613MOL0     H82717   4.844   0.773   5.250 -0.1929 -1.6595 -0.3458
  613MOL0     H82718   4.707   0.690   5.304  1.6252 -0.2116 -2.8588
  613MOL0     H82719   4.508   0.827   5.800 -1.3668  2.2344  0.0231
  613MOL0     H82720   4.252   0.859   5.828 -2.7915 -1.1856 -0.4504
  613MOL0     H82721   4.061   0.996   5.662 -2.4803 -1.9879  3.5332
  613MOL0     H82722   4.068   0.937   5.489  0.1989 -0.4054  0.4202
  613MOL0     H82723   3.845   1.009   5.528 -0.1105 -0.4718 -0.9231
  613MOL0     H82724   3.844   0.825   5.525 -1.7641  0.2617 -0.3658
  613MOL0     H82725   3.696   0.982   5.699 -0.3837 -1.2072  2.1803
  613MOL0     H82726   3.849   0.972   5.795 -0.1954  3.1346 -0.5910
  613MOL0     H82727   3.705   0.732   5.695 -0.5661  0.7004  0.5270
  613MOL0     H82728   3.855   0.743   5.788 -1.4245 -0.6262  4.0003
  613MOL0     H82729   3.587   0.866   5.867 -0.8882 -0.5528 -0.5569
  613MOL0     H82730   3.727   0.848   5.975 -0.6335 -2.2849  0.9539
  613MOL0     H82731   3.516   0.665   5.881  0.8771 -0.0251 -2.4101
  613MOL0     H82732   3.675   0.581   5.864  1.7306 -0.5249  0.3135
  613MOL0     H82733   3.721   0.676   6.116 -2.3227  3.7662  0.0199
  613MOL0     H82734   3.628   0.525   6.073  1.2470  0.0462  0.1164
  613MOL0     H82735   3.496   0.798   6.125  2.3384 -0.3961 -3.0254
  613MOL0     H82736   3.526   0.668   6.236  0.6748  1.4801 -0.0578
  613MOL0     H82737   4.209   0.629   5.458  1.0194 -2.3657  0.1027
  613MOL0     H82738   4.430   0.624   5.429  5.1905 -0.3144  1.1126
  613MOL0     H82739   4.892   0.507   5.727 -3.9558 -0.6343 -1.4494
  613MOL0     H82740   5.131   0.505   5.663  0.3524  2.4060  0.4754
  613MOL0     H82741   6.994   0.963   5.018 -1.1404  0.5763 -0.8054
  613MOL0     H82742   7.205   0.862   5.039  0.1164 -0.3167 -1.8388
  613MOL0     H82743   7.599   0.643   5.219 -0.2995 -0.8040 -0.8175
  613MOL0     H82744   7.791   0.501   5.200  1.4278 -3.0688 -1.6029
  613MOL0     H82745   7.997   0.448   5.024  0.4434  0.9454  1.6382
  613MOL0     H82746   7.948   0.387   5.179  0.6063  0.8348 -1.1367
  613MOL0     H82747   8.154   0.284   5.046 -0.5460  0.3250  4.2421
  613MOL0     H82748   8.035   0.196   4.947 -1.8121 -1.4438  0.6884
  613MOL0     H82749   8.051   0.198   5.255  0.0312  0.5460 -0.8129
  613MOL0     H82750   8.170   0.117   5.178  0.2256  0.9124 -0.4801
  613MOL0     H82751   7.870   0.070   5.124  0.3235 -1.3829 -0.1902
  613MOL0     H82752   7.957  -0.031   5.239  0.7938 -0.7370 -0.4670
  613MOL0     H82753   8.070  -0.224   4.891  0.9321  0.5066 -0.8282
  613MOL0     H82754   7.620   0.322   4.846 -1.8210  1.3491 -0.7483
  613MOL0     H82755   7.440   0.460   4.870  1.2269  1.0018 -0.8007
  614MOL0     O82756   4.686   7.714   4.422 -0.3274  0.2386  0.3318
  614MOL0     C82757   4.666   7.601   4.376 -0.1679 -0.0467  0.1629
  614MOL0     O82758   4.563   7.573   4.295  0.3412  0.4777  0.6274
  614MOL0     C82759   4.505   7.680   4.232  0.0824  0.5221 -0.7687
  614MOL0     C82760   4.402   7.762   4.290 -0.0867  0.0411  0.4124
  614MOL0     C82761   4.350   7.871   4.221  0.0036  0.7517  0.1977
  614MOL0     C82762   4.396   7.907   4.093 -0.2428 -0.0344  0.1361
  614MOL0     O82763   4.331   8.003   4.015  0.2825 -0.3435 -0.7327
  614MOL0     C82764   4.275   7.958   3.892  0.5162 -0.5199  0.9050
  614MOL0     C82765   4.138   8.025   3.876  0.8276  0.5642 -0.6885
  614MOL0     C82766   4.036   7.955   3.973 -0.5828  0.1505 -0.4622
  614MOL0     C82767   3.903   8.019   3.975  0.7024  0.4547 -0.2453
  614MOL0     C82768   3.808   7.946   4.075 -0.4999 -0.7312 -0.6854
  614MOL0     C82769   3.664   8.005   4.060  0.1574 -0.2490 -0.6221
  614MOL0     C82770   3.561   7.952   4.160  0.0832  0.6787 -0.6707
  614MOL0     C82771   3.541   7.801   4.129 -1.1346 -0.3611 -1.0270
  614MOL0     N82772   3.434   7.757   4.219  1.2785 -0.2801  0.9519
  614MOL0     C82773   3.304   7.804   4.195 -0.1421  0.1405 -0.7238
  614MOL0     C82774   3.232   7.771   4.310  0.0344  0.1233 -0.8109
  614MOL0     C82775   3.083   7.798   4.328  0.6795 -0.2515  0.6188
  614MOL0     C82776   2.981   7.694   4.277  0.7964 -0.0501  0.3935
  614MOL0     C82777   2.838   7.753   4.271 -0.1946 -0.0955 -0.5121
  614MOL0     C82778   2.737   7.631   4.271 -0.5821  0.1498 -0.3186
  614MOL0     O82779   2.608   7.675   4.301  0.3135 -0.0768 -0.4433
  614MOL0     C82780   2.497   7.615   4.255 -0.4547 -0.1833  0.6493
  614MOL0     C82781   2.383   7.700   4.224  0.0650  0.3785 -0.9793
  614MOL0     C82782   2.262   7.642   4.171 -0.4649 -1.2369 -0.2319
  614MOL0     C82783   2.148   7.734   4.157 -0.1537  0.8127 -0.1347
  614MOL0     C82784   2.252   7.505   4.155 -0.7839 -0.6496  0.2577
  614MOL0     C82785   2.127   7.435   4.105  0.6376 -0.4120  0.3994
  614MOL0     O82786   2.034   7.503   4.038  0.0326 -0.1485 -0.0660
  614MOL0     C82787   1.923   7.448   3.986  0.2552 -0.3466 -0.9056
  614MOL0     C82788   1.900   7.446   3.848  0.1903 -0.1978  0.0240
  614MOL0     C82789   1.789   7.377   3.800  0.7481 -0.1875 -0.4051
  614MOL0     C82790   1.691   7.317   3.881  0.2118  0.1020  0.8805
  614MOL0     O82791   1.581   7.255   3.819  0.0865 -0.1037  0.3275
  614MOL0     C82792   1.552   7.116   3.854 -0.1954 -0.5415 -0.1875
  614MOL0     C82793   1.415   7.095   3.785  0.0274 -0.1368  0.6052
  614MOL0     C82794   1.383   6.946   3.806 -0.5209 -0.2228 -0.2065
  614MOL0     C82795   1.240   6.920   3.801 -1.3352 -0.3161 -0.0355
  614MOL0     C82796   1.207   6.781   3.853 -0.1829 -0.6744  0.2095
  614MOL0     C82797   1.061   6.751   3.833 -1.1553 -0.3285  0.0858
  614MOL0     C82798   1.019   6.617   3.878 -0.3233  1.0562 -0.3197
  614MOL0     C82799   0.869   6.610   3.878 -0.0485  0.0577  0.4783
  614MOL0    Cl82800   0.816   6.453   3.939  0.1899 -0.1822 -0.1987
  614MOL0     C82801   1.714   7.331   4.016  0.2796  0.7034  0.4514
  614MOL0     C82802   1.834   7.391   4.072  0.0115  0.3383 -1.0635
  614MOL0     O82803   2.118   7.323   4.137  0.3278  0.3791 -0.4938
  614MOL0     C82804   2.370   7.427   4.183 -0.8757 -0.4421 -0.0861
  614MOL0     C82805   2.486   7.485   4.237 -0.0467  0.0444  1.0164
  614MOL0     N82806   3.320   7.703   4.394  0.1994  0.3619 -0.1672
  614MOL0     N82807   3.445   7.707   4.342 -0.1876 -0.1986 -0.5275
  614MOL0     C82808   4.502   7.835   4.036  0.4838 -0.6078 -0.3478
  614MOL0     C82809   4.553   7.726   4.107 -0.2684  0.4864  0.1603
  614MOL0     C82810   4.759   7.499   4.412 -0.2010  0.9726  0.4370
  614MOL0     C82811   4.741   7.366   4.365 -0.1964  0.0549 -0.0522
  614MOL0     C82812   4.839   7.268   4.388  0.6676  0.1797  0.3993
  614MOL0     C82813   4.955   7.292   4.452 -0.5128  0.1441 -0.2248
  614MOL0     O82814   5.048   7.191   4.458  0.6729  0.7279  0.2592
  614MOL0     C82815   5.175   7.235   4.511 -0.4148  0.5912 -0.1598
  614MOL0     C82816   5.258   7.106   4.506 -0.5061 -0.2046  0.3416
  614MOL0     C82817   5.190   6.981   4.579 -0.1871  0.4958 -0.3449
  614MOL0     C82818   5.224   6.854   4.498  0.5511 -0.8541 -0.1519
  614MOL0     C82819   5.362   6.817   4.519  1.4510 -0.0632  0.2575
  614MOL0     C82820   5.476   6.777   4.525 -0.2880  0.2314 -0.8320
  614MOL0     C82821   4.968   7.419   4.513 -0.2496 -0.2086 -0.6824
  614MOL0     C82822   4.867   7.522   4.491 -0.9473  0.3509  0.2197
  614MOL0     H82823   4.365   7.740   4.389  2.9232 -4.2554  0.8539
  614MOL0     H82824   4.266   7.926   4.263 -0.3845  1.3483 -1.2962
  614MOL0     H82825   4.343   7.988   3.812  0.3089  1.0306  1.2847
  614MOL0     H82826   4.265   7.849   3.890 -0.5097 -0.4453 -1.6427
  614MOL0     H82827   4.137   8.131   3.906 -1.2750  1.0145 -2.1365
  614MOL0     H82828   4.096   8.017   3.775  0.0610 -2.4488 -0.2119
  614MOL0     H82829   4.024   7.850   3.945 -0.7726 -0.2707  1.1069
  614MOL0     H82830   4.075   7.963   4.075  1.1163  2.2919 -1.1922
  614MOL0     H82831   3.901   8.125   4.004 -1.4504  0.8586 -1.6118
  614MOL0     H82832   3.867   8.025   3.872 -0.5564  2.1232  0.2463
  614MOL0     H82833   3.797   7.839   4.054 -1.1808 -0.2720 -2.9969
  614MOL0     H82834   3.858   7.952   4.172 -2.9840  2.6711  0.6184
  614MOL0     H82835   3.667   8.111   4.085 -0.9813 -0.6483  1.4568
  614MOL0     H82836   3.632   7.992   3.956  1.9031  1.7957 -1.4796
  614MOL0     H82837   3.573   7.964   4.268 -1.9224 -1.7479 -0.0765
  614MOL0     H82838   3.473   8.012   4.133  1.6871  3.3870 -0.1740
  614MOL0     H82839   3.630   7.745   4.161 -0.6473 -0.2583 -2.1851
  614MOL0     H82840   3.524   7.784   4.023 -3.0199 -2.2520 -0.5033
  614MOL0     H82841   3.268   7.862   4.111  5.1584  3.4960 -1.1669
  614MOL0     H82842   3.067   7.817   4.435  0.7881  3.4377  0.1213
  614MOL0     H82843   3.071   7.893   4.276 -1.8776 -0.8099  0.0612
  614MOL0     H82844   2.985   7.617   4.355 -2.5626  1.3182  2.1387
  614MOL0     H82845   3.006   7.652   4.179  3.3740 -1.9810  1.7386
  614MOL0     H82846   2.817   7.800   4.175  0.9823 -1.2779 -1.3797
  614MOL0     H82847   2.816   7.828   4.348  1.4448  0.1361 -0.2263
  614MOL0     H82848   2.769   7.556   4.343 -1.5109 -0.5872 -0.6501
  614MOL0     H82849   2.731   7.580   4.175  0.9649 -0.7296  0.0312
  614MOL0     H82850   2.399   7.803   4.253  0.7838 -0.0330  0.1922
  614MOL0     H82851   2.106   7.724   4.057 -0.5444 -0.6980  0.1552
  614MOL0     H82852   2.078   7.707   4.237  0.8221 -0.1374  0.4260
  614MOL0     H82853   2.182   7.836   4.175  0.5333  0.3815  1.1140
  614MOL0     H82854   1.973   7.479   3.774 -0.2545 -3.2498 -1.9479
  614MOL0     H82855   1.770   7.374   3.693  1.3061 -2.8094 -0.5043
  614MOL0     H82856   1.628   7.054   3.804  1.9308  0.2287  1.8795
  614MOL0     H82857   1.546   7.098   3.962 -2.2128 -0.9434 -0.3230
  614MOL0     H82858   1.339   7.163   3.824 -0.7830 -0.1634 -0.8558
  614MOL0     H82859   1.424   7.124   3.680 -2.7223 -2.3919 -0.3796
  614MOL0     H82860   1.424   6.904   3.898 -1.5803  1.9265  1.2961
  614MOL0     H82861   1.434   6.885   3.730 -1.0038 -0.1060 -0.6314
  614MOL0     H82862   1.185   6.987   3.868 -1.0439  0.3668 -0.4790
  614MOL0     H82863   1.195   6.926   3.702 -3.1303  3.0522  0.8352
  614MOL0     H82864   1.209   6.779   3.963 -1.5094  2.4452  0.4179
  614MOL0     H82865   1.273   6.707   3.807 -0.7932 -1.1308  0.0573
  614MOL0     H82866   1.004   6.829   3.885 -0.5461 -0.2793  0.6912
  614MOL0     H82867   1.043   6.745   3.726  1.3242 -0.5319 -0.3752
  614MOL0     H82868   1.063   6.603   3.977 -1.4692 -1.1007 -0.0632
  614MOL0     H82869   1.054   6.541   3.808 -1.6725 -0.1966  0.3203
  614MOL0     H82870   0.837   6.625   3.775 -0.4115  0.2517  0.6170
  614MOL0     H82871   0.831   6.697   3.932 -1.1957  1.3389 -2.2474
  614MOL0     H82872   1.631   7.308   4.082  0.3577  3.9587  1.8629
  614MOL0     H82873   1.863   7.406   4.175 -0.5780  1.8687 -1.0955
  614MOL0     H82874   2.368   7.319   4.179  2.6178 -0.6224 -0.2333
  614MOL0     H82875   2.572   7.420   4.246  1.4473  1.4465 -1.8997
  614MOL0     H82876   4.540   7.858   3.937  0.1937 -0.9815 -0.5507
  614MOL0     H82877   4.646   7.689   4.065 -0.7130 -0.9886  0.4460
  614MOL0     H82878   4.653   7.330   4.314 -1.6173  0.2258  2.1519
  614MOL0     H82879   4.841   7.169   4.343  2.1724  1.4048 -2.4541
  614MOL0     H82880   5.212   7.322   4.455  1.5532  0.2485  0.5185
  614MOL0     H82881   5.171   7.263   4.617  1.1963  0.7627 -0.1143
  614MOL0     H82882   5.350   7.120   4.562 -0.2123 -1.1096  0.1109
  614MOL0     H82883   5.280   7.082   4.402 -0.4103  0.3127  0.2430
  614MOL0     H82884   5.084   7.006   4.577 -0.0740  0.9553 -1.4481
  614MOL0     H82885   5.233   6.968   4.679  0.9604  1.6381 -0.6527
  614MOL0     H82886   5.201   6.880   4.394  0.4521  4.5787  0.9276
  614MOL0     H82887   5.162   6.770   4.531 -0.5394  0.2209  0.6189
  614MOL0     H82888   5.575   6.741   4.544 -0.8957 -0.4289  1.3881
  614MOL0     H82889   5.050   7.439   4.581  1.6013  0.4909 -2.9783
  614MOL0     H82890   4.878   7.622   4.532 -0.1272  0.0257  0.8146
  615MOL0     O82891   6.332   4.010   4.944  0.3180  0.7963  0.1902
  615MOL0     C82892   6.328   4.002   5.064 -0.7727  0.7765  0.3116
  615MOL0     O82893   6.224   4.046   5.144  0.2095 -0.1517 -0.4590
  615MOL0     C82894   6.109   4.091   5.084 -0.6566  0.9398  0.3486
  615MOL0     C82895   6.042   4.185   5.163  0.3510 -0.0503  0.6595
  615MOL0     C82896   5.922   4.235   5.118  0.8974 -0.0152  0.6160
  615MOL0     C82897   5.851   4.178   5.010  0.2937 -0.0413  0.0384
  615MOL0     O82898   5.725   4.227   4.982 -0.2257 -0.0210  0.1874
  615MOL0     C82899   5.639   4.135   4.911  0.2160 -0.6782 -0.9667
  615MOL0     C82900   5.507   4.206   4.889  0.0424  0.5584  0.7200
  615MOL0     C82901   5.522   4.333   4.808 -0.1730  0.6341  0.0256
  615MOL0     C82902   5.392   4.415   4.798  0.5144  0.0942  0.2903
  615MOL0     C82903   5.345   4.488   4.925  0.4309  0.6328  0.2838
  615MOL0     C82904   5.448   4.585   4.975  0.1970 -0.1483 -0.4481
  615MOL0     C82905   5.382   4.694   5.073  0.0906  0.4448 -0.8046
  615MOL0     C82906   5.479   4.809   5.101 -0.2996  0.2074 -0.3738
  615MOL0     N82907   5.496   4.891   4.979 -1.2198  1.0611  0.3144
  615MOL0     C82908   5.393   4.943   4.901 -0.6838  0.3812 -0.8772
  615MOL0     C82909   5.464   5.016   4.804 -0.3244  0.3671 -0.3595
  615MOL0     C82910   5.404   5.094   4.700  1.0854  0.1905  0.5773
  615MOL0     C82911   5.267   5.047   4.639  0.7388  0.8306 -0.3865
  615MOL0     C82912   5.274   5.032   4.487  0.3684 -0.4938 -0.6695
  615MOL0     C82913   5.147   5.023   4.412  1.7121 -0.1416  0.5796
  615MOL0     O82914   5.048   5.124   4.451  0.1786 -0.2998 -0.3892
  615MOL0     C82915   4.942   5.137   4.363 -0.3062 -0.6791 -0.9754
  615MOL0     C82916   4.873   5.258   4.378  0.0077  0.0568  0.4885
  615MOL0     C82917   4.749   5.276   4.316  0.3755  0.1442  0.3108
  615MOL0     C82918   4.680   5.412   4.345 -0.3253  0.6386 -0.7699
  615MOL0     C82919   4.687   5.174   4.239 -0.1398 -0.6961  0.2139
  615MOL0     C82920   4.545   5.181   4.186  0.0776  0.3703  0.5455
  615MOL0     O82921   4.525   5.112   4.071 -0.7730  0.4065 -0.0735
  615MOL0     C82922   4.402   5.097   4.007 -0.3417  0.0344 -0.1002
  615MOL0     C82923   4.318   5.201   4.011  0.0971 -0.2228  0.2104
  615MOL0     C82924   4.181   5.184   3.973 -0.2795 -0.2942 -0.5291
  615MOL0     C82925   4.139   5.066   3.902  0.5487 -0.9439 -0.3787
  615MOL0     O82926   4.008   5.040   3.864 -1.0120 -0.4298  0.5818
  615MOL0     C82927   3.917   5.142   3.863 -0.3759 -0.1952 -0.5098
  615MOL0     C82928   3.802   5.080   3.775 -0.5125 -0.1714 -1.1626
  615MOL0     C82929   3.836   5.082   3.630  0.3248 -0.0803 -0.0400
  615MOL0     C82930   3.738   4.992   3.541  0.3759  0.1324  0.1972
  615MOL0     C82931   3.768   4.846   3.569 -0.1409 -0.0873 -0.3356
  615MOL0     C82932   3.682   4.755   3.490  0.9234 -1.5837 -0.0607
  615MOL0     C82933   3.712   4.610   3.493  0.3350 -0.0696 -0.0772
  615MOL0     C82934   3.666   4.535   3.368  0.4279  0.1451  0.3613
  615MOL0    Cl82935   3.492   4.533   3.355  0.1357  0.0609 -0.1144
  615MOL0     C82936   4.240   4.965   3.879  1.0930 -0.0576 -0.4023
  615MOL0     C82937   4.365   4.982   3.939  1.0431  0.0148 -0.0065
  615MOL0     O82938   4.456   5.231   4.260 -0.0676  0.7432  0.0559
  615MOL0     C82939   4.771   5.062   4.213  0.5499 -0.4094 -0.2838
  615MOL0     C82940   4.890   5.037   4.282  0.1667  0.0508  0.0512
  615MOL0     N82941   5.603   5.010   4.831  0.3523 -0.3362 -0.1406
  615MOL0     N82942   5.619   4.946   4.947  0.2604 -0.3063  0.3207
  615MOL0     C82943   5.915   4.077   4.931  0.1641 -0.3951 -0.5790
  615MOL0     C82944   6.041   4.033   4.979  0.1555 -0.3366 -0.8932
  615MOL0     C82945   6.442   3.938   5.138  0.0123 -0.7618 -0.1119
  615MOL0     C82946   6.537   3.876   5.060 -0.6972 -0.0704 -0.3380
  615MOL0     C82947   6.647   3.802   5.123  0.1027 -0.8697 -0.6681
  615MOL0     C82948   6.654   3.810   5.268  0.0643  0.5655  0.4053
  615MOL0     O82949   6.753   3.738   5.334  0.6995  0.0428 -0.5284
  615MOL0     C82950   6.705   3.635   5.420 -0.5630 -0.0724 -0.1599
  615MOL0     C82951   6.828   3.568   5.483  0.1235  0.9844 -0.2007
  615MOL0     C82952   6.880   3.651   5.595  0.4125 -0.8791 -0.5606
  615MOL0     C82953   6.983   3.585   5.687  1.3509 -0.4240  1.0817
  615MOL0     C82954   7.033   3.672   5.786 -0.4125 -0.2447 -0.0996
  615MOL0     C82955   7.082   3.745   5.876  0.3532 -0.3562 -0.2128
  615MOL0     C82956   6.567   3.885   5.346  0.2808  0.1440  0.8088
  615MOL0     C82957   6.461   3.947   5.280 -0.2196 -0.0301  0.6643
  615MOL0     H82958   6.093   4.231   5.248  2.8032 -0.3996 -0.5246
  615MOL0     H82959   5.881   4.319   5.172  0.2197  1.0309 -1.4180
  615MOL0     H82960   5.683   4.112   4.814  1.8696  1.7615 -0.8957
  615MOL0     H82961   5.625   4.047   4.975  0.2962  0.3381  0.5114
  615MOL0     H82962   5.431   4.142   4.844 -0.8982  2.8284 -1.1429
  615MOL0     H82963   5.456   4.250   4.975  1.6638  2.7788  0.6260
  615MOL0     H82964   5.602   4.394   4.852 -1.2514  0.3654  2.5153
  615MOL0     H82965   5.564   4.312   4.709  2.3051 -1.5771  1.4122
  615MOL0     H82966   5.418   4.500   4.734  0.0698  1.8302  2.3027
  615MOL0     H82967   5.307   4.364   4.753 -0.8942  2.0760  0.5905
  615MOL0     H82968   5.255   4.547   4.905  2.3576  3.0044 -2.2884
  615MOL0     H82969   5.330   4.422   5.010 -0.5586  0.0937 -0.2901
  615MOL0     H82970   5.526   4.535   5.034 -2.3743 -2.5634  1.1206
  615MOL0     H82971   5.495   4.640   4.893  2.3509 -1.3012 -0.0622
  615MOL0     H82972   5.286   4.735   5.041 -0.0682 -1.3036 -2.8327
  615MOL0     H82973   5.356   4.637   5.162  0.8396  2.0536  0.4916
  615MOL0     H82974   5.577   4.781   5.140 -0.1478  0.4963 -0.5371
  615MOL0     H82975   5.426   4.875   5.170 -2.4344 -0.8618 -0.9066
  615MOL0     H82976   5.288   4.922   4.919 -0.1356 -1.7722  0.1241
  615MOL0     H82977   5.380   5.191   4.745 -1.3970 -0.4099  0.6891
  615MOL0     H82978   5.474   5.120   4.621  0.8236 -0.3444  0.1655
  615MOL0     H82979   5.188   5.118   4.667 -2.0206 -1.9463 -0.5834
  615MOL0     H82980   5.233   4.952   4.682  2.3028 -0.5039 -1.9686
  615MOL0     H82981   5.341   4.949   4.461  2.3266  0.7302  0.2562
  615MOL0     H82982   5.331   5.117   4.449 -0.3911  0.9907  1.3429
  615MOL0     H82983   5.103   4.924   4.422  1.2260 -0.2427 -1.8799
  615MOL0     H82984   5.168   5.040   4.306  0.5550  1.3923  0.5617
  615MOL0     H82985   4.908   5.328   4.453 -4.2312  0.5157  2.3741
  615MOL0     H82986   4.744   5.488   4.389 -0.6785 -0.6185  2.0848
  615MOL0     H82987   4.624   5.441   4.255 -1.5019 -2.0415 -0.9905
  615MOL0     H82988   4.610   5.390   4.425 -0.1949  0.4079 -0.7182
  615MOL0     H82989   4.348   5.300   4.045  3.6656 -0.7915 -0.8084
  615MOL0     H82990   4.112   5.266   3.994  1.6482  1.4804 -0.8542
  615MOL0     H82991   3.893   5.162   3.967  2.0611 -3.1455  0.7696
  615MOL0     H82992   3.953   5.237   3.820 -0.1582 -0.4415 -0.8860
  615MOL0     H82993   3.780   4.980   3.811 -0.5045  0.5187  0.9004
  615MOL0     H82994   3.709   5.136   3.790 -0.2278 -0.0801  0.4542
  615MOL0     H82995   3.941   5.053   3.619  1.5484  4.0062 -0.5421
  615MOL0     H82996   3.828   5.187   3.599 -1.0704  0.2725  1.3906
  615MOL0     H82997   3.633   5.020   3.559  0.1846  0.0736 -0.7635
  615MOL0     H82998   3.755   5.001   3.433  0.1547 -0.2796  0.1235
  615MOL0     H82999   3.748   4.822   3.674 -3.8160  0.4439 -0.7848
  615MOL0     H83000   3.872   4.832   3.539 -0.3796  2.5822 -2.7950
  615MOL0     H83001   3.577   4.772   3.515  0.8830 -2.7816  0.6819
  615MOL0     H83002   3.693   4.789   3.387  0.7636 -2.1403 -0.2638
  615MOL0     H83003   3.673   4.567   3.585  2.6829 -0.5793  0.7265
  615MOL0     H83004   3.820   4.622   3.495  0.1711  1.6650  0.5237
  615MOL0     H83005   3.696   4.430   3.361 -1.2674 -0.2989 -4.2822
  615MOL0     H83006   3.727   4.570   3.284 -0.3357 -1.9381 -1.1728
  615MOL0     H83007   4.227   4.865   3.838  3.9180 -0.5556 -0.3221
  615MOL0     H83008   4.432   4.896   3.937  2.3559  1.0130 -1.0830
  615MOL0     H83009   4.737   4.972   4.162 -0.3788 -0.7562  0.8999
  615MOL0     H83010   4.939   4.943   4.256 -2.0338 -1.2435  0.3608
  615MOL0     H83011   5.861   4.026   4.852 -0.3356 -1.1056  0.2032
  615MOL0     H83012   6.088   3.956   4.919 -0.5394 -0.8418 -0.8018
  615MOL0     H83013   6.544   3.874   4.951  1.6343 -0.5210 -0.2313
  615MOL0     H83014   6.716   3.725   5.090  2.0700  0.2126  0.7006
  615MOL0     H83015   6.654   3.677   5.507  0.0173  0.2858  0.0138
  615MOL0     H83016   6.643   3.561   5.369  3.9006 -4.3295 -0.2132
  615MOL0     H83017   6.907   3.550   5.409  0.1539 -0.1044  0.0716
  615MOL0     H83018   6.798   3.473   5.528 -4.1678  2.7074  1.0416
  615MOL0     H83019   6.790   3.675   5.653  0.9029 -2.7364  1.0864
  615MOL0     H83020   6.920   3.743   5.552 -2.4856  1.7922  1.9168
  615MOL0     H83021   7.056   3.543   5.617 -2.2307 -1.1260 -2.5809
  615MOL0     H83022   6.939   3.497   5.736 -2.2070 -0.1627 -1.2592
  615MOL0     H83023   7.126   3.802   5.955  1.5193  0.7752 -1.6199
  615MOL0     H83024   6.580   3.897   5.453 -1.6965 -2.7013  1.4889
  615MOL0     H83025   6.390   4.000   5.343 -1.0456  1.3940 -1.3580
  616MOL0     O83026   6.063   7.623  10.803 -0.3428  0.2074 -0.9580
  616MOL0     C83027   6.079   7.719  10.871  0.3844 -0.8111 -0.8216
  616MOL0     O83028   6.000   7.826  10.869 -0.2028 -0.0852 -0.2595
  616MOL0     C83029   5.878   7.829  10.824 -0.1221  0.4139  0.6805
  616MOL0     C83030   5.843   7.951  10.769  0.4463  0.5870  0.3333
  616MOL0     C83031   5.718   7.974  10.707 -0.6499  0.2728  0.2564
  616MOL0     C83032   5.633   7.865  10.700 -0.1166 -0.7953 -0.2077
  616MOL0     O83033   5.516   7.887  10.647  0.4785  0.8101 -0.8259
  616MOL0     C83034   5.400   7.877  10.728 -0.0714  0.8046 -0.1482
  616MOL0     C83035   5.278   7.942  10.664  1.0228 -0.2865  0.2662
  616MOL0     C83036   5.138   7.893  10.713 -0.2062  0.2404 -0.0716
  616MOL0     C83037   5.031   7.907  10.614 -0.0200 -0.0762 -1.1464
  616MOL0     C83038   4.997   8.047  10.584 -0.2779 -0.0533 -0.6050
  616MOL0     C83039   4.869   8.057  10.493 -0.1045 -0.2288 -0.6736
  616MOL0     C83040   4.844   8.211  10.466  0.4376  0.1035  1.0167
  616MOL0     C83041   4.689   8.240  10.459 -0.8232 -0.1368  0.5223
  616MOL0     N83042   4.617   8.215  10.580  0.6927 -0.2324  0.2289
  616MOL0     C83043   4.602   8.321  10.672  0.0940  0.8417 -0.2577
  616MOL0     C83044   4.516   8.274  10.768 -0.0298  0.2525 -0.6597
  616MOL0     C83045   4.469   8.340  10.891  0.0230 -0.0912  0.7043
  616MOL0     C83046   4.407   8.474  10.850  0.6662 -0.3214  0.0326
  616MOL0     C83047   4.310   8.475  10.735 -0.0329  0.4794 -0.7318
  616MOL0     C83048   4.181   8.381  10.755 -0.3040  1.1755  0.0018
  616MOL0     O83049   4.136   8.397  10.889 -0.0943 -0.1846 -0.0606
  616MOL0     C83050   4.028   8.477  10.913 -0.0914  0.1605  0.2255
  616MOL0     C83051   4.036   8.618  10.923 -0.6202  0.2477 -1.0263
  616MOL0     C83052   3.919   8.691  10.960 -0.0243 -0.2762 -0.2255
  616MOL0     C83053   3.926   8.835  10.966 -0.0481 -0.5049  0.2043
  616MOL0     C83054   3.794   8.620  10.976 -0.1469  0.5766  0.2026
  616MOL0     C83055   3.655   8.686  11.000  0.0451 -0.4943  0.5608
  616MOL0     O83056   3.556   8.627  11.081 -0.2521  0.1361 -0.5640
  616MOL0     C83057   3.428   8.664  11.078 -0.6317 -0.7616  0.3702
  616MOL0     C83058   3.379   8.799  11.106 -1.2170  0.6961 -0.3585
  616MOL0     C83059   3.247   8.826  11.110 -0.8558 -0.4674  0.7962
  616MOL0     C83060   3.159   8.726  11.084 -0.8978 -0.3195  0.9332
  616MOL0     O83061   3.019   8.745  11.084  0.3514 -0.5973 -0.5072
  616MOL0     C83062   2.963   8.865  11.137  0.4896 -1.6616 -0.2577
  616MOL0     C83063   2.947   8.967  11.016 -0.3655 -0.0134 -0.4129
  616MOL0     C83064   2.898   9.096  11.073  1.2771 -0.2800  0.3755
  616MOL0     C83065   2.750   9.062  11.112 -0.4564 -0.2211  0.2193
  616MOL0     C83066   2.692   9.199  11.146  0.2524  0.3148  0.1937
  616MOL0     C83067   2.555   9.210  11.218  0.3528 -0.5512 -0.2470
  616MOL0     C83068   2.510   9.349  11.232 -0.1816 -0.0994 -0.7139
  616MOL0     C83069   2.381   9.364  11.311  0.5244 -0.0503 -0.2978
  616MOL0    Cl83070   2.401   9.298  11.486  0.1272 -0.1430  0.2140
  616MOL0     C83071   3.206   8.606  11.029 -0.2457  0.4914  0.1968
  616MOL0     C83072   3.334   8.576  11.037 -0.6562  0.0848  0.0871
  616MOL0     O83073   3.638   8.793  10.954 -0.6020 -0.5115 -0.0447
  616MOL0     C83074   3.792   8.479  10.959 -0.2272  0.5164  0.3962
  616MOL0     C83075   3.909   8.414  10.924 -1.2005  0.5143 -0.6052
  616MOL0     N83076   4.472   8.151  10.725 -0.4961  0.9542  0.5141
  616MOL0     N83077   4.523   8.118  10.606 -0.2002 -0.4842 -0.9386
  616MOL0     C83078   5.671   7.735  10.748  0.5991  0.0737 -0.1448
  616MOL0     C83079   5.795   7.717  10.810  0.1953 -0.2969  0.3332
  616MOL0     C83080   6.214   7.733  10.934  0.1837 -0.4030 -0.8809
  616MOL0     C83081   6.235   7.837  11.026  0.9697 -0.4683  0.2050
  616MOL0     C83082   6.346   7.852  11.101 -0.8890 -0.4980  0.0047
  616MOL0     C83083   6.448   7.753  11.085 -0.2713 -0.9465 -0.5073
  616MOL0     O83084   6.561   7.772  11.166 -0.7516 -0.3747 -0.3378
  616MOL0     C83085   6.687   7.782  11.094  0.1258 -0.0903 -0.1196
  616MOL0     C83086   6.710   7.929  11.056  1.3872 -0.8333  0.3048
  616MOL0     C83087   6.838   7.944  10.975 -0.0973 -0.5739  0.7143
  616MOL0     C83088   6.863   8.085  10.932  0.0757 -0.1235  0.3661
  616MOL0     C83089   6.801   8.109  10.804  0.3889 -0.0643  0.1380
  616MOL0     C83090   6.746   8.132  10.698 -0.3503 -0.8783 -0.4381
  616MOL0     C83091   6.431   7.647  11.004  0.5234 -0.5732  1.1607
  616MOL0     C83092   6.312   7.637  10.926  0.1912  0.3988 -1.1322
  616MOL0     H83093   5.913   8.032  10.790  0.4259  0.2229  1.9334
  616MOL0     H83094   5.699   8.070  10.662 -0.9850  1.3115  2.4695
  616MOL0     H83095   5.390   7.772  10.758  0.1217  0.1223 -2.3065
  616MOL0     H83096   5.420   7.935  10.819 -0.8305 -0.9734  1.2205
  616MOL0     H83097   5.282   8.051  10.662 -0.0315 -0.2330 -1.4081
  616MOL0     H83098   5.287   7.912  10.559 -2.6513  0.5787 -0.4528
  616MOL0     H83099   5.144   7.791  10.753  2.0547 -0.3687 -1.7487
  616MOL0     H83100   5.108   7.949  10.801  0.8264 -0.0958  0.5115
  616MOL0     H83101   5.055   7.844  10.528  0.2151  0.4089 -1.4438
  616MOL0     H83102   4.944   7.847  10.642 -0.0440  0.6561  0.4613
  616MOL0     H83103   4.969   8.092  10.680  1.7236  1.0372 -0.4829
  616MOL0     H83104   5.083   8.097  10.540 -1.1734  1.2073 -0.9742
  616MOL0     H83105   4.884   8.009  10.396 -0.1864  2.1907 -1.9752
  616MOL0     H83106   4.788   8.012  10.551  2.0102 -1.9847  1.1027
  616MOL0     H83107   4.881   8.284  10.538 -0.6335  1.5034  0.1964
  616MOL0     H83108   4.892   8.235  10.370  1.6199 -0.0210  1.5572
  616MOL0     H83109   4.655   8.162  10.390 -3.2883  0.8609  0.5047
  616MOL0     H83110   4.669   8.337  10.412 -3.2182 -1.5269 -1.6479
  616MOL0     H83111   4.653   8.417  10.679 -0.5026  1.0688  1.3919
  616MOL0     H83112   4.401   8.274  10.946 -2.8423 -1.7169 -4.2005
  616MOL0     H83113   4.557   8.363  10.953  0.8979  2.4098 -1.3071
  616MOL0     H83114   4.480   8.553  10.833 -0.2838  0.5706  0.0096
  616MOL0     H83115   4.357   8.502  10.943  0.9188 -1.8238  0.6576
  616MOL0     H83116   4.356   8.449  10.639  0.4181 -1.2170 -0.1012
  616MOL0     H83117   4.268   8.576  10.728 -0.3258  0.3433 -0.9689
  616MOL0     H83118   4.198   8.276  10.732 -2.4712  0.7580  0.1174
  616MOL0     H83119   4.106   8.411  10.682  0.5022  1.4953 -0.7200
  616MOL0     H83120   4.123   8.682  10.922 -2.3497  2.7971 -0.0502
  616MOL0     H83121   3.879   8.866  10.872  1.2346 -0.5444 -0.4796
  616MOL0     H83122   3.874   8.876  11.053  0.2248  2.0221 -0.7366
  616MOL0     H83123   4.028   8.874  10.973  0.3684 -1.3837 -0.6539
  616MOL0     H83124   3.447   8.877  11.138 -2.0954  1.6123 -0.6917
  616MOL0     H83125   3.211   8.926  11.135 -0.6643 -0.2448  0.2209
  616MOL0     H83126   2.869   8.828  11.177  0.2375 -1.5998 -0.7897
  616MOL0     H83127   3.009   8.926  11.215 -2.5103  1.4053 -0.6428
  616MOL0     H83128   3.043   8.981  10.965 -0.9963 -1.2181 -1.9910
  616MOL0     H83129   2.889   8.927  10.933  2.1310 -2.8057 -0.9886
  616MOL0     H83130   2.903   9.169  10.993  1.4616 -1.9321 -1.1774
  616MOL0     H83131   2.954   9.129  11.161  1.1708 -1.3979  0.8793
  616MOL0     H83132   2.692   9.014  11.033 -1.0340  2.3945 -1.0542
  616MOL0     H83133   2.751   8.999  11.201  1.4945  0.6350  0.8739
  616MOL0     H83134   2.671   9.239  11.047 -2.4809  0.6757  0.8331
  616MOL0     H83135   2.774   9.259  11.188  2.6784 -1.3083 -1.9125
  616MOL0     H83136   2.482   9.155  11.158  0.7699 -2.2803  0.7596
  616MOL0     H83137   2.562   9.158  11.314  1.1664  0.2106  0.1106
  616MOL0     H83138   2.498   9.394  11.133 -2.0674 -0.9802 -0.9224
  616MOL0     H83139   2.581   9.420  11.276  0.0420  0.0008 -1.2215
  616MOL0     H83140   2.306   9.297  11.267 -0.0085 -1.6148  2.7540
  616MOL0     H83141   2.346   9.466  11.328 -0.7198 -0.3169 -1.1391
  616MOL0     H83142   3.124   8.543  10.995 -0.8383  1.3842 -0.0756
  616MOL0     H83143   3.358   8.472  11.014  0.5671  0.3638  0.0506
  616MOL0     H83144   3.701   8.421  10.975  1.8259 -3.1129  0.1897
  616MOL0     H83145   3.908   8.306  10.929  2.7938  0.3818  0.9955
  616MOL0     H83146   5.608   7.649  10.726  3.1477 -0.9793 -4.6953
  616MOL0     H83147   5.822   7.624  10.859  1.0120 -0.6375 -0.7103
  616MOL0     H83148   6.161   7.916  11.014  0.4986 -0.9985 -0.4613
  616MOL0     H83149   6.376   7.931  11.169  4.7812 -2.3313  0.0716
  616MOL0     H83150   6.769   7.768  11.165  1.3448  1.5799 -1.1311
  616MOL0     H83151   6.697   7.708  11.014  0.2420  0.4533 -0.6185
  616MOL0     H83152   6.719   7.990  11.146  3.0917 -0.5130 -0.0595
  616MOL0     H83153   6.621   7.961  11.001  0.2390  0.5334  2.7866
  616MOL0     H83154   6.848   7.874  10.892  1.5550  0.1262  0.2955
  616MOL0     H83155   6.920   7.916  11.042 -1.2770 -3.1580  1.2227
  616MOL0     H83156   6.972   8.091  10.930  0.0479  0.3253  0.1404
  616MOL0     H83157   6.818   8.155  11.004 -0.7872 -1.4081  1.1105
  616MOL0     H83158   6.696   8.149  10.605 -0.7619 -0.2336 -0.0979
  616MOL0     H83159   6.509   7.572  10.988  0.5718 -0.7404  2.1165
  616MOL0     H83160   6.296   7.554  10.857 -0.4494 -1.0638  0.6784
  617MOL0     O83161   6.606   9.797   5.563  0.3747  0.1194  0.6549
  617MOL0     C83162   6.631   9.790   5.438 -0.6892 -0.0786  0.2630
  617MOL0     O83163   6.551   9.745   5.342  0.3547 -0.3504  0.1716
  617MOL0     C83164   6.421   9.708   5.368  0.2352  0.0424  0.1561
  617MOL0     C83165   6.327   9.811   5.339 -0.4635  0.2348 -0.0548
  617MOL0     C83166   6.199   9.785   5.376 -0.6109 -0.0286  0.3068
  617MOL0     C83167   6.160   9.665   5.436  0.4926 -0.0507  0.0905
  617MOL0     O83168   6.035   9.652   5.491 -0.0012 -0.2351  0.2436
  617MOL0     C83169   6.017   9.578   5.609 -0.3235 -0.0404 -0.5099
  617MOL0     C83170   5.876   9.609   5.662 -0.2554 -0.0893  0.6857
  617MOL0     C83171   5.854   9.526   5.785  1.0604 -0.0801  0.0766
  617MOL0     C83172   5.713   9.530   5.838 -0.2646  0.0357  0.2951
  617MOL0     C83173   5.661   9.661   5.890 -0.3653 -0.2161 -0.9688
  617MOL0     C83174   5.535   9.647   5.969  0.1083 -0.2473  0.1743
  617MOL0     C83175   5.468   9.791   5.989 -0.0029  0.4913 -0.8461
  617MOL0     C83176   5.348   9.807   6.081 -1.0504 -0.0559  0.7933
  617MOL0     N83177   5.253   9.706   6.043 -1.0296 -0.3900  0.0128
  617MOL0     C83178   5.169   9.716   5.933 -0.1652 -0.2242  0.6619
  617MOL0     C83179   5.085   9.615   5.944 -0.5511 -0.0662  0.8847
  617MOL0     C83180   4.977   9.567   5.846 -0.6415  0.5668  0.2325
  617MOL0     C83181   4.839   9.635   5.883  0.4393 -0.2706 -0.0504
  617MOL0     C83182   4.723   9.585   5.802 -0.0074  0.6538  0.2782
  617MOL0     C83183   4.721   9.586   5.650  0.1820 -0.5509 -0.5599
  617MOL0     O83184   4.760   9.720   5.617 -0.0403  0.5413  0.4501
  617MOL0     C83185   4.658   9.814   5.604 -0.1266 -0.1764  0.3837
  617MOL0     C83186   4.694   9.939   5.554  0.3940  0.7830 -0.5656
  617MOL0     C83187   4.609  10.050   5.549  0.4271  0.3154  0.2439
  617MOL0     C83188   4.674  10.184   5.500 -0.3232  0.7555  0.2375
  617MOL0     C83189   4.471  10.042   5.597 -0.7456  1.3233  0.0660
  617MOL0     C83190   4.376  10.151   5.581  0.9070  0.1193 -0.1098
  617MOL0     O83191   4.248  10.116   5.545 -0.1584 -0.1745  0.1321
  617MOL0     C83192   4.136  10.194   5.544  0.7419  0.0888  0.0136
  617MOL0     C83193   4.033  10.162   5.445 -0.9484  0.9586 -0.0117
  617MOL0     C83194   3.932  10.257   5.416  0.3948 -1.7965 -0.4934
  617MOL0     C83195   3.911  10.368   5.498 -0.8018 -0.2148 -0.4127
  617MOL0     O83196   3.820  10.470   5.467  0.0879 -0.3193  0.6096
  617MOL0     C83197   3.695  10.427   5.404  0.5146  0.7120 -0.4026
  617MOL0     C83198   3.594  10.549   5.416 -0.6490 -0.5786 -0.7674
  617MOL0     C83199   3.618  10.666   5.319 -0.0536  0.9028 -0.7081
  617MOL0     C83200   3.503  10.765   5.333 -0.5250 -0.5416 -0.5927
  617MOL0     C83201   3.546  10.892   5.256 -0.5948  0.1005 -0.1418
  617MOL0     C83202   3.429  10.984   5.273  0.6779  0.1804  1.3250
  617MOL0     C83203   3.428  11.118   5.212 -0.5892 -0.1634 -0.4344
  617MOL0     C83204   3.284  11.184   5.209 -0.4456  0.4466  0.8729
  617MOL0    Cl83205   3.295  11.338   5.113  0.2994  0.9271 -0.7430
  617MOL0     C83206   4.003  10.401   5.596 -0.6660 -0.2957 -0.0133
  617MOL0     C83207   4.112  10.316   5.616 -0.2971  0.2060 -0.0954
  617MOL0     O83208   4.421  10.269   5.577  0.3311  0.5650  0.1379
  617MOL0     C83209   4.440   9.923   5.644  0.3999 -0.0825  0.5887
  617MOL0     C83210   4.525   9.812   5.651  0.4743  0.1433 -0.3025
  617MOL0     N83211   5.125   9.539   6.050 -0.2384 -0.4990 -0.6387
  617MOL0     N83212   5.231   9.584   6.102  0.2568 -0.4654 -0.0079
  617MOL0     C83213   6.249   9.561   5.453  0.4982  0.8843 -0.4383
  617MOL0     C83214   6.383   9.589   5.424 -0.7667 -0.3918  1.4532
  617MOL0     C83215   6.775   9.834   5.401 -0.2035  0.3696  0.5899
  617MOL0     C83216   6.865   9.854   5.502  0.1189  0.4732  0.3632
  617MOL0     C83217   6.989   9.904   5.477 -0.1576  0.3584 -0.8255
  617MOL0     C83218   7.027   9.937   5.345 -0.2888 -0.9259  0.4285
  617MOL0     O83219   7.161   9.984   5.339  0.3451  0.1054  0.2959
  617MOL0     C83220   7.217   9.999   5.208 -0.4466  0.1008 -0.4478
  617MOL0     C83221   7.199  10.143   5.158 -1.1780 -0.0173  0.4836
  617MOL0     C83222   7.276  10.238   5.252 -0.1215 -0.4059  0.2309
  617MOL0     C83223   7.250  10.384   5.199  0.2676 -0.7987 -0.6051
  617MOL0     C83224   7.107  10.434   5.194 -0.6093  0.0505  0.2703
  617MOL0     C83225   6.990  10.475   5.188  0.0870  0.1828  0.2419
  617MOL0     C83226   6.937   9.915   5.239 -0.3532  0.2520 -0.3051
  617MOL0     C83227   6.815   9.862   5.267 -0.4044  0.3258  0.6851
  617MOL0     H83228   6.357   9.902   5.287 -1.0364  0.4750  0.0177
  617MOL0     H83229   6.126   9.864   5.361 -3.3003 -2.4506 -0.3566
  617MOL0     H83230   6.022   9.471   5.586  2.5825 -0.5025  1.6517
  617MOL0     H83231   6.096   9.597   5.681 -0.2393  0.5132 -0.7454
  617MOL0     H83232   5.856   9.715   5.675  1.7467  0.1433  2.5481
  617MOL0     H83233   5.811   9.574   5.582 -1.6826  2.3475  0.7023
  617MOL0     H83234   5.877   9.420   5.775  1.1206 -0.2493  1.6717
  617MOL0     H83235   5.912   9.584   5.858  3.0084  0.0949 -1.5350
  617MOL0     H83236   5.650   9.497   5.755  0.5276  0.5957 -0.5408
  617MOL0     H83237   5.710   9.450   5.913 -0.0585  1.2956  1.7207
  617MOL0     H83238   5.733   9.722   5.944 -1.3422 -0.2820  0.4790
  617MOL0     H83239   5.627   9.721   5.805  1.4886 -2.5061 -3.5231
  617MOL0     H83240   5.473   9.580   5.908  1.0409  0.4735 -1.6628
  617MOL0     H83241   5.556   9.594   6.062  0.0843 -0.6537 -0.0470
  617MOL0     H83242   5.551   9.847   6.033  0.7082 -0.5992 -0.7764
  617MOL0     H83243   5.439   9.847   5.899 -2.2679  1.0424  0.1422
  617MOL0     H83244   5.315   9.911   6.077 -1.7974 -0.3169 -2.4147
  617MOL0     H83245   5.373   9.785   6.185  1.2124  2.8921  1.0270
  617MOL0     H83246   5.174   9.799   5.864  1.8483  2.6902  3.9610
  617MOL0     H83247   5.002   9.590   5.742 -1.9265 -0.6038 -0.3704
  617MOL0     H83248   4.958   9.460   5.862 -1.9117  0.7727  0.2612
  617MOL0     H83249   4.831   9.741   5.857 -1.9690 -0.1651  0.9317
  617MOL0     H83250   4.815   9.628   5.989  1.3231 -1.3569  0.1075
  617MOL0     H83251   4.631   9.636   5.833  0.5721  2.5398 -0.9665
  617MOL0     H83252   4.696   9.482   5.829 -4.2088  1.1173 -1.3298
  617MOL0     H83253   4.627   9.558   5.603  0.9080 -3.1711 -0.5801
  617MOL0     H83254   4.782   9.507   5.606  0.8093  0.5252 -1.6887
  617MOL0     H83255   4.799   9.962   5.536  0.6050  0.2516 -0.0269
  617MOL0     H83256   4.775  10.170   5.460 -0.5138 -1.8176  0.4494
  617MOL0     H83257   4.609  10.227   5.423 -2.9976  0.3373  2.1236
  617MOL0     H83258   4.681  10.258   5.579  0.5688 -0.7691  1.6513
  617MOL0     H83259   4.039  10.072   5.386  1.2779  0.0780  1.4068
  617MOL0     H83260   3.868  10.262   5.328 -1.2727  1.8532  0.7216
  617MOL0     H83261   3.699  10.398   5.298 -2.6563 -2.2114  0.0738
  617MOL0     H83262   3.653  10.345   5.462  2.1088  1.4921  2.0076
  617MOL0     H83263   3.490  10.524   5.392 -0.4710 -0.7229 -1.4046
  617MOL0     H83264   3.602  10.596   5.514 -1.1340  1.9280 -1.8493
  617MOL0     H83265   3.613  10.622   5.219 -2.3369 -2.4941  0.7182
  617MOL0     H83266   3.717  10.710   5.332  0.0511  1.3290 -2.6415
  617MOL0     H83267   3.412  10.727   5.286 -0.6630 -0.7260 -0.1852
  617MOL0     H83268   3.488  10.781   5.441 -0.6568  0.5740 -0.7654
  617MOL0     H83269   3.572  10.867   5.153 -2.0919  1.2096 -0.8229
  617MOL0     H83270   3.637  10.927   5.307 -0.3279 -0.5584 -0.1461
  617MOL0     H83271   3.335  10.939   5.240  1.6541 -1.0118  0.0596
  617MOL0     H83272   3.414  11.005   5.379  1.7389 -1.4453  1.8126
  617MOL0     H83273   3.479  11.104   5.117  5.9728  2.3545  2.1061
  617MOL0     H83274   3.505  11.177   5.262  0.7466 -0.6477 -1.8654
  617MOL0     H83275   3.263  11.192   5.316  1.7961  1.7456  1.2830
  617MOL0     H83276   3.224  11.119   5.144  1.2463  1.4271 -1.8595
  617MOL0     H83277   4.001  10.493   5.654 -1.3045 -0.8777  0.9039
  617MOL0     H83278   4.183  10.346   5.692  1.3992 -0.2191 -1.4653
  617MOL0     H83279   4.341   9.910   5.687  1.1780 -2.5387  1.8557
  617MOL0     H83280   4.483   9.723   5.699 -0.4088  0.7437  0.0686
  617MOL0     H83281   6.214   9.462   5.481 -3.5408  1.8769 -1.3689
  617MOL0     H83282   6.457   9.512   5.444  0.9403  0.9982  0.7883
  617MOL0     H83283   6.849   9.818   5.603  1.1699  2.6112  1.3533
  617MOL0     H83284   7.056   9.896   5.562 -2.6411  0.4636  1.2583
  617MOL0     H83285   7.326   9.986   5.215 -0.3303  1.4552  0.8928
  617MOL0     H83286   7.185   9.916   5.145 -1.6580  0.8450 -0.8437
  617MOL0     H83287   7.093  10.167   5.156 -0.6518  2.5063 -1.1721
  617MOL0     H83288   7.238  10.164   5.058  1.2880  3.6101  2.0040
  617MOL0     H83289   7.385  10.232   5.256 -0.0685 -1.0008 -1.3345
  617MOL0     H83290   7.256  10.233   5.360 -2.1885  1.9226  0.0261
  617MOL0     H83291   7.283  10.389   5.095 -0.7856 -1.5101 -0.9866
  617MOL0     H83292   7.311  10.447   5.264  1.9015 -1.6927 -1.2089
  617MOL0     H83293   6.890  10.511   5.176 -0.0971 -0.7751 -1.3123
  617MOL0     H83294   6.960   9.934   5.135 -0.1162  1.1491 -0.0977
  617MOL0     H83295   6.747   9.837   5.187 -0.9380  2.7676  0.2742
  618MOL0     O83296   3.056   0.951   3.371 -0.0870 -0.3753  0.4618
  618MOL0     C83297   3.043   1.022   3.270  0.4276 -0.2664 -0.3496
  618MOL0     O83298   2.919   1.048   3.204 -0.1673  0.6926  0.4201
  618MOL0     C83299   2.811   0.973   3.244  0.0973  0.2734  0.0888
  618MOL0     C83300   2.681   1.037   3.224 -0.5368 -0.8120 -1.0029
  618MOL0     C83301   2.553   0.971   3.244 -0.6610 -0.4727 -0.1541
  618MOL0     C83302   2.553   0.840   3.275 -1.0176  0.3028 -1.0173
  618MOL0     O83303   2.440   0.764   3.273  0.2436  0.1822  0.3238
  618MOL0     C83304   2.310   0.828   3.266 -0.3147 -0.2743 -0.1400
  618MOL0     C83305   2.200   0.717   3.247 -1.4707 -0.2834  0.4557
  618MOL0     C83306   2.240   0.626   3.129  0.4152  0.2850  0.2180
  618MOL0     C83307   2.130   0.531   3.094 -0.2945  0.6463  0.1798
  618MOL0     C83308   2.154   0.434   2.975  0.2928  0.6654  0.5519
  618MOL0     C83309   2.027   0.354   2.952  0.6115 -0.1434  0.5231
  618MOL0     C83310   1.971   0.268   3.061 -0.3659 -0.6019 -0.2755
  618MOL0     C83311   2.078   0.171   3.110  0.3916 -0.1546 -0.3498
  618MOL0     N83312   2.123   0.077   3.011 -0.4803 -1.3671 -0.3969
  618MOL0     C83313   2.082  -0.051   2.987  0.2512  0.1862  0.6093
  618MOL0     C83314   2.165  -0.099   2.894  0.5348  0.1193  0.9969
  618MOL0     C83315   2.158  -0.243   2.845 -0.6217  0.1301  0.1024
  618MOL0     C83316   2.039  -0.264   2.750  0.0875 -0.0452  0.4184
  618MOL0     C83317   2.051  -0.171   2.634  1.2067  0.1564 -0.0272
  618MOL0     C83318   1.948  -0.193   2.524  0.6817  1.1772  0.0082
  618MOL0     O83319   1.819  -0.181   2.576 -0.1353 -0.8946 -0.3562
  618MOL0     C83320   1.716  -0.163   2.485 -0.0479 -0.8239 -0.3737
  618MOL0     C83321   1.597  -0.097   2.509 -2.1418  0.2142  0.3909
  618MOL0     C83322   1.500  -0.075   2.405  1.1245 -0.1816 -1.0703
  618MOL0     C83323   1.396   0.031   2.432  0.3090 -0.6834 -0.1851
  618MOL0     C83324   1.507  -0.134   2.284  0.1570  0.2842 -0.4172
  618MOL0     C83325   1.392  -0.141   2.181  0.4417 -0.4918 -0.2599
  618MOL0     O83326   1.273  -0.186   2.227  1.1082  0.5674  0.7982
  618MOL0     C83327   1.170  -0.185   2.135  0.5584 -0.0781  0.2745
  618MOL0     C83328   1.127  -0.310   2.099  0.6806  0.5630 -0.2150
  618MOL0     C83329   1.018  -0.323   2.011  0.1845 -0.2132 -0.0063
  618MOL0     C83330   0.957  -0.210   1.953  0.2443 -0.6666  0.3043
  618MOL0     O83331   0.842  -0.221   1.879  0.2899 -0.5853 -0.3931
  618MOL0     C83332   0.732  -0.279   1.952 -0.2366 -0.0502 -0.1250
  618MOL0     C83333   0.603  -0.253   1.882 -1.1723  0.0380  0.6951
  618MOL0     C83334   0.613  -0.251   1.736 -0.2111 -0.2381 -0.5808
  618MOL0     C83335   0.478  -0.303   1.682 -0.0234 -0.0588 -0.2210
  618MOL0     C83336   0.472  -0.300   1.535 -0.0924 -0.6809  0.4772
  618MOL0     C83337   0.333  -0.302   1.470 -1.0904 -0.2029  0.7998
  618MOL0     C83338   0.236  -0.398   1.540 -0.7137 -0.3167  0.0973
  618MOL0     C83339   0.101  -0.423   1.471 -0.3552  0.5956 -0.6690
  618MOL0    Cl83340   0.132  -0.548   1.341 -0.0562 -0.1449  0.3465
  618MOL0     C83341   0.993  -0.079   1.993 -0.5104  1.3293 -0.1128
  618MOL0     C83342   1.102  -0.072   2.084  0.7256 -0.4743 -0.4207
  618MOL0     O83343   1.424  -0.126   2.066  0.3085 -0.2600 -0.5785
  618MOL0     C83344   1.627  -0.191   2.246 -0.0510  0.2009  0.1089
  618MOL0     C83345   1.725  -0.206   2.344  0.3869 -0.3357  0.5050
  618MOL0     N83346   2.261  -0.004   2.860  0.0159  0.2010 -0.0315
  618MOL0     N83347   2.239   0.101   2.938  0.8529  0.1751  0.6903
  618MOL0     C83348   2.676   0.776   3.301 -0.1782  0.6460 -0.5000
  618MOL0     C83349   2.800   0.842   3.274  0.6328  0.2829  0.0760
  618MOL0     C83350   3.170   1.091   3.221 -0.0200  0.7463  0.0126
  618MOL0     C83351   3.155   1.185   3.118 -0.3448 -0.0570  0.2761
  618MOL0     C83352   3.265   1.261   3.075  0.0352  0.6448  0.0165
  618MOL0     C83353   3.393   1.240   3.125  0.1892 -0.5576 -0.4059
  618MOL0     O83354   3.500   1.321   3.078  0.0737 -0.0554 -1.1081
  618MOL0     C83355   3.640   1.279   3.098  0.0784  0.2129 -0.0095
  618MOL0     C83356   3.720   1.369   3.198  0.4084  0.8535  0.4552
  618MOL0     C83357   3.872   1.347   3.198 -0.2362  0.8392 -0.4270
  618MOL0     C83358   3.909   1.220   3.283 -0.2658 -0.0283 -0.3758
  618MOL0     C83359   3.925   1.105   3.195 -0.1838  0.2244 -0.4794
  618MOL0     C83360   3.899   1.005   3.128 -0.1049 -0.5814 -0.4418
  618MOL0     C83361   3.408   1.142   3.220  0.3969  0.8414 -1.0462
  618MOL0     C83362   3.299   1.070   3.278 -0.9378 -0.0189 -0.0967
  618MOL0     H83363   2.688   1.142   3.197  4.0375 -0.6300  0.0600
  618MOL0     H83364   2.468   1.029   3.211 -1.0389  0.1602  1.8243
  618MOL0     H83365   2.291   0.871   3.364 -2.7479 -0.3911 -0.4921
  618MOL0     H83366   2.314   0.893   3.178 -1.4578 -0.8057 -0.6038
  618MOL0     H83367   2.174   0.663   3.338 -2.9778  0.3317  0.4145
  618MOL0     H83368   2.108   0.759   3.206 -0.8157  2.3447  1.4667
  618MOL0     H83369   2.271   0.689   3.045  1.6457 -2.0097 -1.1608
  618MOL0     H83370   2.322   0.559   3.160 -1.5827 -1.1505  2.8807
  618MOL0     H83371   2.121   0.471   3.185 -1.6900 -1.3142 -1.1731
  618MOL0     H83372   2.041   0.593   3.078 -0.6466  0.0151 -0.3276
  618MOL0     H83373   2.165   0.491   2.882 -0.1412  0.1634  0.1811
  618MOL0     H83374   2.245   0.375   2.986 -0.7792 -1.8088 -2.3743
  618MOL0     H83375   1.958   0.426   2.908 -0.7748 -0.5700  1.9390
  618MOL0     H83376   2.053   0.292   2.865  2.0250 -1.1226  1.6062
  618MOL0     H83377   1.934   0.336   3.138  0.1413 -0.7362  0.0924
  618MOL0     H83378   1.886   0.210   3.025 -0.3137 -2.3737  2.2128
  618MOL0     H83379   2.051   0.115   3.200  0.3011 -1.8223 -1.3770
  618MOL0     H83380   2.159   0.233   3.150 -0.2780  2.1857 -2.4160
  618MOL0     H83381   2.001  -0.096   3.043  0.0677 -0.4710 -0.1652
  618MOL0     H83382   2.244  -0.274   2.784 -2.5275 -0.6545 -2.3285
  618MOL0     H83383   2.152  -0.308   2.933 -1.4898 -0.4102 -0.3352
  618MOL0     H83384   1.944  -0.239   2.798  0.4780  0.5144  0.8948
  618MOL0     H83385   2.038  -0.371   2.725 -1.9441 -0.4547  1.9730
  618MOL0     H83386   2.146  -0.185   2.583  1.6942 -1.0672  1.1488
  618MOL0     H83387   2.051  -0.065   2.663  2.4385 -0.1723  1.3188
  618MOL0     H83388   1.949  -0.295   2.485  0.8790 -0.5174  3.8839
  618MOL0     H83389   1.976  -0.127   2.442 -1.3930  3.2658  0.8690
  618MOL0     H83390   1.579  -0.050   2.605 -0.7575  0.7970  0.3808
  618MOL0     H83391   1.428   0.083   2.523 -0.1202 -0.0950 -0.3625
  618MOL0     H83392   1.397   0.101   2.348  4.6203 -0.5554 -0.2280
  618MOL0     H83393   1.292   0.002   2.450 -0.3664  2.6499  2.0925
  618MOL0     H83394   1.179  -0.393   2.146  0.0849  1.0771  1.4010
  618MOL0     H83395   0.983  -0.422   1.981 -4.8888  0.7497  1.6689
  618MOL0     H83396   0.750  -0.386   1.966 -1.2215  0.0705  2.7929
  618MOL0     H83397   0.726  -0.238   2.054  2.3763 -0.2743  0.1967
  618MOL0     H83398   0.523  -0.319   1.918  0.3714 -2.0182  0.4914
  618MOL0     H83399   0.578  -0.150   1.910  1.7681  1.3587 -1.0702
  618MOL0     H83400   0.702  -0.303   1.699  1.1652  0.2033  1.8986
  618MOL0     H83401   0.630  -0.151   1.696 -1.2696 -1.3332 -4.1461
  618MOL0     H83402   0.453  -0.406   1.711  1.1362 -0.7567 -1.6009
  618MOL0     H83403   0.394  -0.247   1.725  0.0221 -0.5975  0.6128
  618MOL0     H83404   0.512  -0.398   1.508  0.8122 -0.2691  0.3142
  618MOL0     H83405   0.527  -0.212   1.501 -1.0704 -0.3573 -0.3304
  618MOL0     H83406   0.290  -0.202   1.474 -2.1490 -0.5295 -1.1142
  618MOL0     H83407   0.343  -0.336   1.367  0.7690  1.5453  0.3499
  618MOL0     H83408   0.232  -0.360   1.643  4.0737  0.6537  0.1644
  618MOL0     H83409   0.280  -0.498   1.545 -1.4672 -0.6366  0.6532
  618MOL0     H83410   0.068  -0.334   1.417  1.2993  1.4737 -0.3177
  618MOL0     H83411   0.040  -0.462   1.553  1.0074 -2.0415 -0.7777
  618MOL0     H83412   0.928   0.001   1.961 -0.4130  2.3181  1.9851
  618MOL0     H83413   1.121   0.029   2.120 -1.4219  0.0772 -0.6494
  618MOL0     H83414   1.634  -0.239   2.149  2.3816  1.3407 -0.3704
  618MOL0     H83415   1.800  -0.274   2.305 -0.8191 -1.8280  0.6947
  618MOL0     H83416   2.689   0.669   3.313  0.6756  0.6889 -0.9543
  618MOL0     H83417   2.887   0.779   3.263 -1.4892 -2.6540 -1.1132
  618MOL0     H83418   3.057   1.206   3.077 -0.4607 -1.6752 -0.3464
  618MOL0     H83419   3.249   1.329   2.991 -1.3287 -0.2279 -0.4528
  618MOL0     H83420   3.643   1.171   3.120 -2.5341 -0.8958 -3.9471
  618MOL0     H83421   3.689   1.291   3.001 -0.0195  3.9910  0.2561
  618MOL0     H83422   3.676   1.342   3.294 -1.5856  1.3680 -0.2710
  618MOL0     H83423   3.696   1.471   3.168 -0.5858  1.0971  1.9797
  618MOL0     H83424   3.932   1.428   3.241 -2.1764  1.1710  1.8217
  618MOL0     H83425   3.915   1.328   3.099 -0.9590  2.3415 -1.0551
  618MOL0     H83426   3.835   1.189   3.357  1.4361 -1.8359  0.6793
  618MOL0     H83427   3.995   1.239   3.348 -2.0672 -0.0523  2.1719
  618MOL0     H83428   3.871   0.921   3.068 -2.6539  1.3193 -2.1050
  618MOL0     H83429   3.509   1.113   3.246  1.8862  3.0338 -3.7996
  618MOL0     H83430   3.314   0.993   3.353  0.4198 -1.3627 -1.6924
  619MOL0     O83431   9.930   2.604   9.606  0.0401 -0.9276 -0.3833
  619MOL0     C83432  10.012   2.575   9.695  1.0090 -0.4978 -0.8640
  619MOL0     O83433   9.981   2.536   9.828  0.4179 -0.0648 -0.2427
  619MOL0     C83434   9.858   2.571   9.879  0.3636 -0.1201  0.9251
  619MOL0     C83435   9.769   2.479   9.937 -0.3155  0.3084 -0.7811
  619MOL0     C83436   9.640   2.531   9.966 -0.4123  0.3039  0.4577
  619MOL0     C83437   9.599   2.664   9.954 -0.4085 -0.2628 -1.2560
  619MOL0     O83438   9.474   2.703  10.005  0.5247 -0.1937 -0.6406
  619MOL0     C83439   9.408   2.828   9.974  0.4192  0.1342  0.1203
  619MOL0     C83440   9.289   2.849  10.067  0.3738 -0.0404 -0.0967
  619MOL0     C83441   9.171   2.753  10.045 -0.0423  0.2816 -0.5154
  619MOL0     C83442   9.094   2.785   9.918 -0.2798  0.3945  0.7199
  619MOL0     C83443   8.982   2.688   9.885 -0.2499 -0.5876  1.0497
  619MOL0     C83444   8.888   2.763   9.790 -0.9653  0.0799 -0.3246
  619MOL0     C83445   8.752   2.693   9.801  1.5186 -0.3957  0.2525
  619MOL0     C83446   8.743   2.553   9.747 -0.1878  0.7999  0.5705
  619MOL0     N83447   8.745   2.547   9.603 -0.0045  0.1901  0.5094
  619MOL0     C83448   8.649   2.595   9.510 -0.1237 -0.2807 -0.3746
  619MOL0     C83449   8.697   2.578   9.384  1.0371 -0.0306 -1.0456
  619MOL0     C83450   8.636   2.605   9.254 -0.0241 -0.2351  0.0719
  619MOL0     C83451   8.615   2.478   9.156 -0.7269  0.3223 -0.4320
  619MOL0     C83452   8.552   2.519   9.019 -0.4224  0.0635 -0.6535
  619MOL0     C83453   8.398   2.493   9.021 -0.3496  0.4332 -0.4301
  619MOL0     O83454   8.333   2.563   9.131 -0.3081 -0.4115  0.0737
  619MOL0     C83455   8.194   2.572   9.138  0.3698  0.3884  0.1004
  619MOL0     C83456   8.142   2.627   9.257 -0.1610 -0.6462  0.4023
  619MOL0     C83457   8.006   2.648   9.284  0.0949 -0.5239 -0.3048
  619MOL0     C83458   7.970   2.709   9.417  0.4938  0.5201 -0.5092
  619MOL0     C83459   7.912   2.590   9.194 -0.7150 -0.1649  0.3275
  619MOL0     C83460   7.768   2.581   9.223 -0.1452  0.2697  0.6952
  619MOL0     O83461   7.709   2.458   9.199 -0.1855  0.6694  0.7871
  619MOL0     C83462   7.568   2.456   9.211  0.3245  0.4348 -0.0413
  619MOL0     C83463   7.488   2.448   9.095 -0.1228 -0.4316 -0.1508
  619MOL0     C83464   7.353   2.434   9.102  0.3021 -1.1635 -0.1555
  619MOL0     C83465   7.298   2.429   9.225  0.1016 -0.1640  0.7864
  619MOL0     O83466   7.160   2.420   9.237  0.3325  0.0044  0.3801
  619MOL0     C83467   7.089   2.373   9.357 -0.1363 -0.1242  0.0553
  619MOL0     C83468   7.156   2.236   9.389  1.1445 -0.4858 -0.0087
  619MOL0     C83469   7.137   2.145   9.263 -0.6659  0.1929 -0.4337
  619MOL0     C83470   6.993   2.101   9.236  0.3414  0.2760 -0.6532
  619MOL0     C83471   6.991   1.974   9.147 -0.2254  0.6273 -0.2049
  619MOL0     C83472   7.045   1.996   9.006  0.3578  0.0323  0.4330
  619MOL0     C83473   6.993   1.890   8.918  0.1554  0.4233 -1.2286
  619MOL0     C83474   7.085   1.832   8.820 -0.9471 -0.6084  0.0854
  619MOL0    Cl83475   7.031   1.680   8.731 -0.4291 -0.3186 -0.1392
  619MOL0     C83476   7.377   2.446   9.340  0.1218  0.1430 -0.4396
  619MOL0     C83477   7.517   2.458   9.334  0.8879 -0.3217 -0.2358
  619MOL0     O83478   7.708   2.678   9.278 -0.4567 -0.0184  0.7876
  619MOL0     C83479   7.963   2.534   9.082  0.9041  0.3845  0.5019
  619MOL0     C83480   8.096   2.528   9.045 -0.8655 -0.7536  0.4902
  619MOL0     N83481   8.822   2.524   9.406 -0.4579 -0.2468  0.1738
  619MOL0     N83482   8.855   2.506   9.524  0.6564 -0.0439 -0.3144
  619MOL0     C83483   9.698   2.754   9.913 -0.5990 -0.5181 -0.0163
  619MOL0     C83484   9.821   2.710   9.863  0.4372  0.1953 -0.0331
  619MOL0     C83485  10.157   2.570   9.651  0.6094 -0.3808 -0.1626
  619MOL0     C83486  10.201   2.574   9.520 -1.1908  0.2216  0.6984
  619MOL0     C83487  10.342   2.593   9.498 -0.1405 -0.0189  0.8359
  619MOL0     C83488  10.435   2.579   9.594 -0.1216  0.0568  0.5359
  619MOL0     O83489  10.569   2.576   9.571  0.3448 -0.1096  0.7223
  619MOL0     C83490  10.606   2.547   9.432 -0.1695  0.2700  0.0756
  619MOL0     C83491  10.752   2.523   9.426 -0.9036 -0.0383 -0.7908
  619MOL0     C83492  10.829   2.632   9.498 -0.4670 -0.1255 -0.6139
  619MOL0     C83493  10.982   2.598   9.526  0.5864 -1.3214  0.2255
  619MOL0     C83494  11.046   2.606   9.395 -0.1645  0.3334 -0.8338
  619MOL0     C83495  11.104   2.620   9.290 -0.4921 -0.8066  0.1349
  619MOL0     C83496  10.386   2.570   9.721 -0.5713 -1.0251  0.0001
  619MOL0     C83497  10.251   2.561   9.748 -0.9957 -0.4829 -0.6733
  619MOL0     H83498   9.795   2.376   9.960  1.2638  0.5098 -1.4733
  619MOL0     H83499   9.560   2.466   9.998 -0.4687  0.6160  0.9573
  619MOL0     H83500   9.479   2.908   9.998  0.4208 -0.0712  0.8467
  619MOL0     H83501   9.373   2.836   9.871 -2.2896 -0.4696  0.9134
  619MOL0     H83502   9.318   2.831  10.171 -2.3003  0.0794  0.7306
  619MOL0     H83503   9.257   2.952  10.049 -0.5928 -0.6141 -1.8376
  619MOL0     H83504   9.211   2.651  10.045  1.3590  0.7916  0.8889
  619MOL0     H83505   9.099   2.766  10.127 -0.7995  0.1981 -1.1626
  619MOL0     H83506   9.056   2.886   9.936 -1.7638  0.2480 -1.2113
  619MOL0     H83507   9.155   2.784   9.827 -0.8643 -2.4934  0.2289
  619MOL0     H83508   9.035   2.605   9.837 -0.0192 -0.4487  1.0635
  619MOL0     H83509   8.929   2.654   9.974 -0.5705 -1.6938  0.4618
  619MOL0     H83510   8.876   2.866   9.825  1.9782  0.4679 -0.2323
  619MOL0     H83511   8.936   2.763   9.692  2.3807  1.4569  1.1487
  619MOL0     H83512   8.724   2.693   9.906 -1.1628  0.4829 -0.4025
  619MOL0     H83513   8.677   2.741   9.737  6.4096  1.0136 -5.3590
  619MOL0     H83514   8.646   2.513   9.780 -0.5726  0.0959 -1.2867
  619MOL0     H83515   8.814   2.485   9.795 -1.1752  0.8962  2.2536
  619MOL0     H83516   8.547   2.622   9.532  0.2702 -0.5128  1.9289
  619MOL0     H83517   8.537   2.649   9.264 -1.3227 -2.7400 -0.7603
  619MOL0     H83518   8.695   2.681   9.202  0.6569 -0.0861  1.0296
  619MOL0     H83519   8.560   2.397   9.204  0.4454 -0.0503  0.3188
  619MOL0     H83520   8.716   2.444   9.131  0.2632 -0.1218  3.5784
  619MOL0     H83521   8.607   2.462   8.944  0.2322 -0.8926  0.5117
  619MOL0     H83522   8.570   2.624   8.993 -0.9010  0.1763 -0.5379
  619MOL0     H83523   8.387   2.385   9.035 -1.0302  0.5134 -0.3386
  619MOL0     H83524   8.351   2.522   8.927 -2.2221  0.4670  0.4749
  619MOL0     H83525   8.217   2.669   9.323  0.1099  0.1075 -0.3644
  619MOL0     H83526   7.914   2.637   9.478  1.9307 -0.1358  0.0897
  619MOL0     H83527   8.061   2.720   9.478  0.2725 -0.4879  0.0329
  619MOL0     H83528   7.910   2.800   9.406 -1.2313 -0.6383 -0.9871
  619MOL0     H83529   7.536   2.454   8.998  1.7366 -0.2551  0.7360
  619MOL0     H83530   7.294   2.417   9.012  2.1362  1.3398 -1.9849
  619MOL0     H83531   7.093   2.444   9.440  3.9522  0.3841 -0.3873
  619MOL0     H83532   6.984   2.355   9.334 -0.5769  1.9421  0.2181
  619MOL0     H83533   7.262   2.244   9.413  0.8998  0.7966  0.6913
  619MOL0     H83534   7.100   2.203   9.477 -1.7376  0.0470 -1.5199
  619MOL0     H83535   7.207   2.062   9.270  1.1078  1.6806  0.2800
  619MOL0     H83536   7.169   2.198   9.173 -0.0066  0.8909  0.1907
  619MOL0     H83537   6.939   2.106   9.331  0.7557  2.2382 -0.4697
  619MOL0     H83538   6.939   2.176   9.176 -0.8829 -0.4209 -0.4373
  619MOL0     H83539   6.888   1.938   9.140 -0.4138  1.5773 -3.9071
  619MOL0     H83540   7.049   1.903   9.207  2.2951  1.2678 -1.7502
  619MOL0     H83541   7.020   2.089   8.955  4.7258  2.4601  2.1115
  619MOL0     H83542   7.153   2.000   9.020  0.0243  1.7585  3.2523
  619MOL0     H83543   6.892   1.907   8.880  0.0505  1.3282 -0.5717
  619MOL0     H83544   6.990   1.808   8.989  2.6388  1.3009  0.0350
  619MOL0     H83545   7.187   1.824   8.859 -1.7780  1.1185  2.9356
  619MOL0     H83546   7.074   1.901   8.736 -1.9223  0.2685  0.9016
  619MOL0     H83547   7.325   2.453   9.435  0.4011 -0.6153 -0.2238
  619MOL0     H83548   7.572   2.460   9.428  1.9265 -0.4787 -0.8268
  619MOL0     H83549   7.886   2.486   9.023 -0.6671  3.0666  0.2377
  619MOL0     H83550   8.118   2.479   8.951  1.9609 -1.4647  1.4337
  619MOL0     H83551   9.669   2.856   9.889  1.8057  0.2486  0.1014
  619MOL0     H83552   9.870   2.779   9.795 -3.3885  2.0501 -1.1944
  619MOL0     H83553  10.133   2.579   9.436 -0.8156 -3.8726 -0.0194
  619MOL0     H83554  10.378   2.601   9.396  2.5402 -0.8267  1.6350
  619MOL0     H83555  10.546   2.465   9.392 -1.2822  0.3958  1.4076
  619MOL0     H83556  10.569   2.619   9.358 -1.1664 -0.3023 -0.0010
  619MOL0     H83557  10.779   2.514   9.320 -0.4296 -2.5172 -0.5366
  619MOL0     H83558  10.777   2.427   9.474  1.0667  0.4724 -0.6926
  619MOL0     H83559  10.784   2.654   9.595  1.2293 -0.0492  0.1940
  619MOL0     H83560  10.827   2.723   9.437 -0.0653 -0.4128 -1.0588
  619MOL0     H83561  10.987   2.501   9.576 -1.3510 -2.4871 -1.6297
  619MOL0     H83562  11.020   2.669   9.599 -2.7104 -0.1438  0.9582
  619MOL0     H83563  11.168   2.626   9.205  3.1820 -0.7067  2.6892
  619MOL0     H83564  10.457   2.577   9.803  0.1676 -0.0307 -0.6934
  619MOL0     H83565  10.233   2.568   9.855  2.0189  0.6673 -0.1242
  620MOL0     O83566  10.417   1.989   0.462  0.1377  0.0479  0.2715
  620MOL0     C83567  10.428   2.101   0.417 -0.4986  0.4067  0.7001
  620MOL0     O83568  10.337   2.165   0.344 -0.3567  0.2264  0.3204
  620MOL0     C83569  10.223   2.094   0.312  0.0830 -1.0039  0.2681
  620MOL0     C83570  10.103   2.148   0.349  0.6215 -0.0728  1.2165
  620MOL0     C83571   9.983   2.102   0.299  0.1253  0.0681 -0.2967
  620MOL0     C83572   9.974   1.982   0.224  0.0222  0.8314 -0.1388
  620MOL0     O83573   9.849   1.931   0.185 -0.2708 -0.2696 -0.2118
  620MOL0     C83574   9.831   1.799   0.125 -0.0245  1.0315  0.3930
  620MOL0     C83575   9.683   1.784   0.081  0.6172  0.0712  0.5618
  620MOL0     C83576   9.642   1.892  -0.027  0.5102  0.4706 -0.2305
  620MOL0     C83577   9.692   1.862  -0.163  0.7429  1.1122 -0.0374
  620MOL0     C83578   9.701   1.987  -0.243 -0.0681 -0.0356  0.3219
  620MOL0     C83579   9.745   1.965  -0.387  0.5446  0.0510  0.3767
  620MOL0     C83580   9.885   1.908  -0.399 -0.1167 -0.7707 -0.2159
  620MOL0     C83581   9.925   1.889  -0.545 -0.0889 -0.9788 -0.3874
  620MOL0     N83582   9.831   1.796  -0.602 -0.2313  0.4258  0.0345
  620MOL0     C83583   9.730   1.824  -0.695 -0.0632  0.1975 -0.0816
  620MOL0     C83584   9.702   1.709  -0.754 -0.7421  0.1540  0.1087
  620MOL0     C83585   9.598   1.704  -0.862  0.6136 -0.8660  0.9230
  620MOL0     C83586   9.462   1.665  -0.812  0.4275  0.2650  0.3061
  620MOL0     C83587   9.349   1.675  -0.912  0.3750 -0.7782  0.2990
  620MOL0     C83588   9.208   1.666  -0.872 -0.9263  0.0289 -0.1379
  620MOL0     O83589   9.169   1.524  -0.866 -0.4326 -0.5431  0.0461
  620MOL0     C83590   9.057   1.482  -0.807 -0.8344  0.7266 -0.3973
  620MOL0     C83591   8.977   1.555  -0.717  0.6876 -1.1709  1.4429
  620MOL0     C83592   8.860   1.502  -0.661  0.3284 -0.4043  0.8454
  620MOL0     C83593   8.796   1.599  -0.565 -0.0753  0.5978 -0.4402
  620MOL0     C83594   8.804   1.384  -0.714  0.1979  0.1703  0.4262
  620MOL0     C83595   8.675   1.338  -0.673 -0.0568  0.3063 -0.7189
  620MOL0     O83596   8.591   1.276  -0.765  0.1473 -0.2649 -0.7969
  620MOL0     C83597   8.467   1.220  -0.731 -0.3383 -0.0274 -0.3276
  620MOL0     C83598   8.349   1.278  -0.745 -0.4682  0.3009  0.2376
  620MOL0     C83599   8.232   1.210  -0.728 -0.3917 -0.1535  0.1152
  620MOL0     C83600   8.239   1.076  -0.685 -0.1178 -0.6048 -0.3488
  620MOL0     O83601   8.121   1.003  -0.684 -0.1230 -1.0335  0.2486
  620MOL0     C83602   8.035   1.022  -0.571 -0.4061  0.8964 -0.0337
  620MOL0     C83603   8.057   0.904  -0.469  0.3619 -0.5714 -0.2506
  620MOL0     C83604   7.964   0.914  -0.347 -0.3637  0.9703  0.0556
  620MOL0     C83605   7.969   0.778  -0.276  0.1106  0.5938  0.3532
  620MOL0     C83606   7.902   0.803  -0.140 -0.3644 -0.4398  0.6827
  620MOL0     C83607   7.884   0.665  -0.071 -0.4002  0.5504  0.7728
  620MOL0     C83608   7.791   0.680   0.055  0.1422  0.3875 -1.0845
  620MOL0     C83609   7.759   0.543   0.104  0.6686 -0.1056  0.3829
  620MOL0    Cl83610   7.626   0.562   0.225 -0.2958  0.2602 -0.1082
  620MOL0     C83611   8.360   1.014  -0.659  0.4760 -0.2318  0.0864
  620MOL0     C83612   8.471   1.090  -0.682  0.3788 -1.3573  0.8479
  620MOL0     O83613   8.651   1.351  -0.554  0.4969 -0.1496  0.7902
  620MOL0     C83614   8.881   1.312  -0.812  0.2549 -1.0718  0.6034
  620MOL0     C83615   9.012   1.354  -0.851  0.5831 -0.6731  0.7445
  620MOL0     N83616   9.778   1.607  -0.703  0.2522 -1.0812 -0.3741
  620MOL0     N83617   9.858   1.659  -0.617 -0.5608 -0.9022 -0.5499
  620MOL0     C83618  10.099   1.916   0.200  0.9032 -0.3627 -0.7003
  620MOL0     C83619  10.225   1.975   0.237  1.2142 -0.3856 -0.1357
  620MOL0     C83620  10.558   2.169   0.448  0.4167 -0.3429  0.0675
  620MOL0     C83621  10.670   2.105   0.489 -0.3184 -0.5022  0.0917
  620MOL0     C83622  10.789   2.176   0.525  0.6628  0.4667 -0.8471
  620MOL0     C83623  10.797   2.318   0.498 -0.0601 -0.3340  0.0950
  620MOL0     O83624  10.904   2.389   0.539 -0.5740 -0.3095  0.7879
  620MOL0     C83625  11.032   2.328   0.515 -0.2894  0.0625  0.2785
  620MOL0     C83626  11.145   2.417   0.457 -0.5160 -0.3484  0.6681
  620MOL0     C83627  11.185   2.536   0.557 -0.2716 -0.2163 -0.1933
  620MOL0     C83628  11.308   2.607   0.514 -0.1804 -0.6934  0.0091
  620MOL0     C83629  11.421   2.538   0.566 -0.4088 -0.2672 -0.0564
  620MOL0     C83630  11.515   2.462   0.594 -0.3685 -0.2852  0.3627
  620MOL0     C83631  10.683   2.376   0.453  0.2791 -0.2019 -0.1281
  620MOL0     C83632  10.568   2.310   0.419  0.1855  0.5187  0.9920
  620MOL0     H83633  10.101   2.243   0.402 -3.7026  0.5332  0.3982
  620MOL0     H83634   9.891   2.158   0.316  0.1345 -0.1153  0.3839
  620MOL0     H83635   9.906   1.792   0.045  1.4784 -2.2986  1.9141
  620MOL0     H83636   9.849   1.718   0.197  1.0554  0.4657 -0.4813
  620MOL0     H83637   9.672   1.683   0.040  1.9368  0.0910  0.0901
  620MOL0     H83638   9.619   1.794   0.169  0.7993 -1.2743  0.8724
  620MOL0     H83639   9.533   1.898  -0.020  0.6725  2.9491  1.8241
  620MOL0     H83640   9.672   1.992   0.007  0.5951 -0.0607  1.3416
  620MOL0     H83641   9.790   1.815  -0.154  0.6002  0.6194 -0.9666
  620MOL0     H83642   9.626   1.792  -0.214 -0.2144 -0.2811  2.8807
  620MOL0     H83643   9.600   2.027  -0.257 -0.3903 -1.2680 -1.0780
  620MOL0     H83644   9.767   2.053  -0.186 -1.3364  0.1390  1.6632
  620MOL0     H83645   9.670   1.904  -0.438 -0.2024  2.6392 -1.8374
  620MOL0     H83646   9.736   2.054  -0.450  0.1988 -0.0244  0.3223
  620MOL0     H83647   9.957   1.977  -0.353  1.0169 -0.9542 -1.6117
  620MOL0     H83648   9.897   1.812  -0.348 -1.6102 -1.5203 -1.2172
  620MOL0     H83649  10.025   1.847  -0.553  0.0941 -0.1267 -4.1483
  620MOL0     H83650   9.932   1.985  -0.597 -1.0505 -0.5970  0.1405
  620MOL0     H83651   9.681   1.918  -0.716 -0.7108  0.5132  2.5060
  620MOL0     H83652   9.598   1.801  -0.911  2.1299  0.0894  2.6888
  620MOL0     H83653   9.629   1.620  -0.925  0.6838 -1.2108  1.4082
  620MOL0     H83654   9.445   1.724  -0.722  1.6898  0.5868  0.3589
  620MOL0     H83655   9.476   1.567  -0.766  1.4087  0.3646  0.2437
  620MOL0     H83656   9.373   1.601  -0.990 -0.2049 -0.6849  0.0284
  620MOL0     H83657   9.366   1.772  -0.959  1.9714 -1.3703 -0.4393
  620MOL0     H83658   9.151   1.711  -0.954 -0.6350 -0.3995 -0.5824
  620MOL0     H83659   9.196   1.710  -0.773  1.1684 -1.1869  0.7138
  620MOL0     H83660   9.018   1.644  -0.670  1.6334 -0.9302  0.2126
  620MOL0     H83661   8.697   1.614  -0.608 -1.4919  2.9751  3.1540
  620MOL0     H83662   8.795   1.563  -0.462  4.4859  0.6047 -0.1595
  620MOL0     H83663   8.836   1.701  -0.566 -0.2265  0.9985  4.9950
  620MOL0     H83664   8.363   1.383  -0.772  3.4684 -0.4353 -1.1739
  620MOL0     H83665   8.149   1.279  -0.741  0.2745  0.5958 -0.3227
  620MOL0     H83666   8.059   1.124  -0.538 -1.3677  1.6563 -1.5361
  620MOL0     H83667   7.932   1.008  -0.604 -0.2366  0.5104 -0.4110
  620MOL0     H83668   8.043   0.809  -0.520 -1.8895 -1.3437  1.6305
  620MOL0     H83669   8.158   0.898  -0.429 -1.3117  1.2510  5.1648
  620MOL0     H83670   7.862   0.936  -0.379 -0.0013  1.0195 -1.1248
  620MOL0     H83671   8.003   0.995  -0.285 -0.3313  2.2628 -1.5688
  620MOL0     H83672   7.911   0.702  -0.329  1.5826 -1.3237  1.3247
  620MOL0     H83673   8.071   0.743  -0.257 -0.0052  0.2255  0.2988
  620MOL0     H83674   7.807   0.857  -0.144 -0.2623 -0.3378 -1.0701
  620MOL0     H83675   7.958   0.867  -0.070 -0.1341  0.9580 -0.7349
  620MOL0     H83676   7.843   0.593  -0.143 -0.0255 -1.4675  2.4705
  620MOL0     H83677   7.982   0.631  -0.036 -0.4096  1.7886  2.0998
  620MOL0     H83678   7.695   0.723   0.027 -2.1009 -1.1745  3.3257
  620MOL0     H83679   7.845   0.741   0.128  0.6099  0.8673 -1.8194
  620MOL0     H83680   7.846   0.496   0.151  0.9891 -0.1185 -0.2150
  620MOL0     H83681   7.736   0.472   0.024 -1.5306 -0.7358  1.5076
  620MOL0     H83682   8.374   0.908  -0.639 -0.6588 -0.4974 -0.4201
  620MOL0     H83683   8.561   1.029  -0.679  0.2819 -1.6451 -0.8767
  620MOL0     H83684   8.829   1.230  -0.861 -0.6053 -0.5201  0.5774
  620MOL0     H83685   9.074   1.294  -0.918  0.1247 -1.8910  1.3985
  620MOL0     H83686  10.116   1.824   0.145  0.5019 -0.7384 -0.2008
  620MOL0     H83687  10.319   1.926   0.213  1.7045  0.2314  0.4627
  620MOL0     H83688  10.671   1.998   0.501  2.3823 -0.4572  0.8415
  620MOL0     H83689  10.870   2.122   0.574 -1.1035  0.3583  2.2476
  620MOL0     H83690  11.065   2.285   0.610 -1.1075 -1.1757  0.0209
  620MOL0     H83691  11.031   2.249   0.440 -1.9190  0.2460  0.0792
  620MOL0     H83692  11.121   2.449   0.355  2.0544 -4.9627 -1.7237
  620MOL0     H83693  11.234   2.353   0.460 -0.3732 -0.1278  1.0749
  620MOL0     H83694  11.204   2.501   0.659  2.1499 -1.3485 -0.9403
  620MOL0     H83695  11.110   2.615   0.566  2.1067  1.9473  2.3441
  620MOL0     H83696  11.320   2.712   0.543  0.5360 -0.0877 -2.3375
  620MOL0     H83697  11.313   2.614   0.405 -0.6772 -0.7185 -0.0179
  620MOL0     H83698  11.588   2.386   0.612  0.2098 -0.2268 -1.5387
  620MOL0     H83699  10.688   2.481   0.427  0.1477 -0.3192 -0.6336
  620MOL0     H83700  10.479   2.364   0.390 -1.1307 -0.8099  2.3479
  621MOL0     O83701   3.801   6.735   4.847  0.3939 -0.0429 -0.6383
  621MOL0     C83702   3.791   6.850   4.806  0.0312  0.3932 -0.4059
  621MOL0     O83703   3.678   6.923   4.808 -0.5214 -0.8429 -0.1330
  621MOL0     C83704   3.553   6.862   4.834 -0.4288 -0.8931 -0.3457
  621MOL0     C83705   3.511   6.740   4.782  0.1665 -0.5289 -1.3184
  621MOL0     C83706   3.382   6.696   4.807 -0.4222  0.8854  0.2711
  621MOL0     C83707   3.288   6.772   4.859  0.1424  0.1087  0.0066
  621MOL0     O83708   3.169   6.711   4.887 -0.4107  0.3462 -0.1076
  621MOL0     C83709   3.071   6.787   4.947 -0.4027 -0.1305  0.0581
  621MOL0     C83710   2.940   6.710   4.943 -0.1321 -0.7234 -0.2698
  621MOL0     C83711   2.821   6.795   4.993  0.4286 -0.0170  0.1556
  621MOL0     C83712   2.686   6.724   4.965 -0.3899  0.4662 -0.5720
  621MOL0     C83713   2.563   6.820   4.987 -0.6344  0.9888  0.1519
  621MOL0     C83714   2.556   6.876   5.128 -0.0350 -0.2262 -0.5040
  621MOL0     C83715   2.423   6.901   5.180  0.0879  0.4530 -0.3816
  621MOL0     C83716   2.357   7.015   5.100  0.0691 -0.3428  0.5938
  621MOL0     N83717   2.219   7.042   5.145  0.5387 -0.0352  0.2419
  621MOL0     C83718   2.178   7.152   5.217 -0.0800  0.0524  0.2478
  621MOL0     C83719   2.045   7.128   5.233  0.3597 -0.3394 -0.2107
  621MOL0     C83720   1.953   7.217   5.315 -0.5622 -0.1055 -0.5072
  621MOL0     C83721   1.806   7.191   5.274  0.6399 -0.0150 -0.0156
  621MOL0     C83722   1.757   7.075   5.365 -0.4946  0.2009 -1.1522
  621MOL0     C83723   1.630   7.011   5.308 -0.8513  0.1318  0.4302
  621MOL0     O83724   1.528   7.100   5.295  0.0684  0.0760 -0.1902
  621MOL0     C83725   1.405   7.050   5.251 -0.7863  0.0470  0.4031
  621MOL0     C83726   1.291   7.117   5.251  0.7251 -0.5770 -0.0527
  621MOL0     C83727   1.169   7.070   5.209 -0.1364  0.3297  0.2515
  621MOL0     C83728   1.054   7.166   5.207  0.1883 -1.0647  0.3381
  621MOL0     C83729   1.162   6.945   5.149  0.6187 -0.3673  0.0224
  621MOL0     C83730   1.045   6.897   5.080  0.0942  0.0554  0.1853
  621MOL0     O83731   0.980   6.789   5.130 -0.1172  0.6238  0.4535
  621MOL0     C83732   0.886   6.721   5.071  0.4644  1.0871 -0.5898
  621MOL0     C83733   0.925   6.594   5.020 -0.4555 -1.1006 -0.0657
  621MOL0     C83734   0.837   6.528   4.927 -0.2882  0.5358 -0.2698
  621MOL0     C83735   0.711   6.571   4.903  0.0036 -0.4251  0.0160
  621MOL0     O83736   0.611   6.511   4.836  0.1030 -0.1663  0.3309
  621MOL0     C83737   0.619   6.379   4.791 -0.6168  0.5152  0.2130
  621MOL0     C83738   0.557   6.291   4.897 -0.2213  0.0029  0.0558
  621MOL0     C83739   0.578   6.145   4.848  0.1668 -0.1245  0.5884
  621MOL0     C83740   0.503   6.051   4.944  0.1918 -0.1034 -0.0661
  621MOL0     C83741   0.535   5.907   4.919  0.5286  0.3800 -0.1387
  621MOL0     C83742   0.460   5.854   4.795  0.4429 -0.0745 -0.0307
  621MOL0     C83743   0.464   5.703   4.797 -0.4046 -0.1587 -0.0832
  621MOL0     C83744   0.328   5.637   4.752 -0.0405  0.1000 -0.3828
  621MOL0    Cl83745   0.180   5.692   4.842 -0.1570  0.8577 -0.2985
  621MOL0     C83746   0.674   6.697   4.963  0.8288 -0.4460 -0.5271
  621MOL0     C83747   0.764   6.770   5.044  0.9114  0.0051  0.1097
  621MOL0     O83748   1.008   6.958   4.978 -0.2109 -0.5672 -0.1316
  621MOL0     C83749   1.267   6.860   5.171  0.9238  0.1841  0.4732
  621MOL0     C83750   1.391   6.914   5.207  0.4937 -0.4536 -0.2434
  621MOL0     N83751   2.011   7.005   5.179 -0.0296 -0.0480 -0.4326
  621MOL0     N83752   2.119   6.952   5.126 -0.2575  0.2717 -0.0238
  621MOL0     C83753   3.325   6.903   4.904  0.3434 -0.2228  0.7066
  621MOL0     C83754   3.454   6.943   4.888 -0.0800  0.1612  0.6523
  621MOL0     C83755   3.907   6.895   4.746  0.0898 -0.3780 -0.2550
  621MOL0     C83756   4.038   6.850   4.771 -0.6069  0.2995 -1.0522
  621MOL0     C83757   4.149   6.909   4.708  0.0343 -0.3811  0.1101
  621MOL0     C83758   4.137   7.014   4.615  0.0586  0.0094 -0.4534
  621MOL0     O83759   4.246   7.072   4.552  0.3388  0.1764  0.0830
  621MOL0     C83760   4.382   7.080   4.606  0.6701 -0.1133 -0.0590
  621MOL0     C83761   4.403   7.200   4.703 -0.5381  0.6691 -0.3932
  621MOL0     C83762   4.440   7.324   4.611 -0.1962  0.6769 -0.0140
  621MOL0     C83763   4.450   7.447   4.706 -0.6443  0.1416 -0.2719
  621MOL0     C83764   4.588   7.468   4.746 -0.0059 -0.2596  0.3013
  621MOL0     C83765   4.694   7.488   4.799 -1.1442 -0.3631 -0.0881
  621MOL0     C83766   4.002   7.049   4.580 -0.9007  0.0787  0.8694
  621MOL0     C83767   3.894   6.994   4.648 -0.7171  0.0511  0.7104
  621MOL0     H83768   3.581   6.693   4.714  2.5652  0.3739  0.3836
  621MOL0     H83769   3.340   6.604   4.768  1.6993  0.7581 -1.9271
  621MOL0     H83770   3.102   6.791   5.052 -0.8141  1.5918  0.1427
  621MOL0     H83771   3.070   6.888   4.905  0.5383  1.0681  2.6763
  621MOL0     H83772   2.921   6.684   4.838 -0.3690  1.5616 -0.8441
  621MOL0     H83773   2.944   6.615   4.998 -1.2175 -0.2007  0.7825
  621MOL0     H83774   2.843   6.825   5.096  2.4150 -0.1117 -0.1998
  621MOL0     H83775   2.808   6.894   4.948 -0.5231 -1.3266 -2.6745
  621MOL0     H83776   2.681   6.696   4.859  1.1289 -2.5156  0.0362
  621MOL0     H83777   2.680   6.638   5.033  1.2518 -0.0025 -0.9785
  621MOL0     H83778   2.571   6.897   4.909 -0.0072  1.4948  0.7001
  621MOL0     H83779   2.475   6.759   4.965  2.3826 -3.3009 -1.2542
  621MOL0     H83780   2.599   6.806   5.199  1.7524  1.5517  0.2898
  621MOL0     H83781   2.620   6.966   5.133 -0.1659 -0.0354 -1.8396
  621MOL0     H83782   2.365   6.809   5.191  2.0554 -0.6588  1.1652
  621MOL0     H83783   2.431   6.935   5.284 -0.7157 -0.1725 -0.1027
  621MOL0     H83784   2.352   6.981   4.996  0.3097  0.4863  0.3092
  621MOL0     H83785   2.414   7.106   5.121  2.2417 -1.4457 -0.1465
  621MOL0     H83786   2.250   7.229   5.244 -0.5664  0.0258  1.6987
  621MOL0     H83787   1.962   7.194   5.422 -0.6566 -0.4479 -0.5714
  621MOL0     H83788   1.982   7.319   5.289  3.6751 -1.3903 -1.5719
  621MOL0     H83789   1.799   7.165   5.168 -0.8621 -1.5211  0.4170
  621MOL0     H83790   1.745   7.282   5.282  1.9849  0.8941  0.2056
  621MOL0     H83791   1.729   7.117   5.462 -1.2630  0.3970 -1.4534
  621MOL0     H83792   1.845   7.010   5.375  1.9152  3.1826 -1.6932
  621MOL0     H83793   1.602   6.925   5.370  0.5656 -1.0807 -0.5188
  621MOL0     H83794   1.640   6.960   5.212 -0.4687 -4.3177  2.5892
  621MOL0     H83795   1.305   7.220   5.281 -1.4055 -0.4139  0.5211
  621MOL0     H83796   0.987   7.124   5.283 -0.5949 -0.4707 -0.0105
  621MOL0     H83797   1.082   7.270   5.226 -2.5303 -0.1757 -0.1555
  621MOL0     H83798   1.001   7.173   5.111 -3.4317  1.2079  2.2729
  621MOL0     H83799   1.023   6.551   5.036 -0.0193  0.1090  0.6693
  621MOL0     H83800   0.868   6.430   4.894 -0.0308 -0.7801  3.4318
  621MOL0     H83801   0.562   6.374   4.697  1.3273  1.1274 -1.0644
  621MOL0     H83802   0.720   6.345   4.767 -1.4845 -1.0840 -1.5367
  621MOL0     H83803   0.612   6.304   4.991  1.1470  0.0992 -0.7335
  621MOL0     H83804   0.450   6.316   4.899 -0.0970  0.5128  1.8869
  621MOL0     H83805   0.685   6.122   4.846  0.8263  2.6427  0.3903
  621MOL0     H83806   0.538   6.145   4.746 -0.8669  0.3489  0.9855
  621MOL0     H83807   0.544   6.061   5.045 -1.2587 -1.0080  0.6493
  621MOL0     H83808   0.395   6.064   4.939 -0.0801 -2.2636 -0.8742
  621MOL0     H83809   0.508   5.861   5.015  1.8744  1.0111  0.5830
  621MOL0     H83810   0.643   5.896   4.901  0.3861 -0.1024 -0.6958
  621MOL0     H83811   0.357   5.891   4.794 -0.0683 -1.4497  0.1020
  621MOL0     H83812   0.511   5.903   4.712  1.8022  3.2790  2.5110
  621MOL0     H83813   0.490   5.670   4.898  0.1681  0.0540 -0.1582
  621MOL0     H83814   0.534   5.647   4.735  0.2223 -2.1980  2.3129
  621MOL0     H83815   0.344   5.529   4.763  1.1181  0.1860 -1.1338
  621MOL0     H83816   0.325   5.672   4.648  2.4507 -0.7653 -0.7944
  621MOL0     H83817   0.582   6.744   4.930 -0.4323 -1.8476  0.8310
  621MOL0     H83818   0.734   6.872   5.068 -2.7886 -0.9078  0.0543
  621MOL0     H83819   1.254   6.757   5.139  1.8393 -0.1268  1.0756
  621MOL0     H83820   1.480   6.851   5.205  2.4688  1.9886  2.2715
  621MOL0     H83821   3.253   6.973   4.945 -0.0055  1.9180 -3.1134
  621MOL0     H83822   3.469   7.048   4.909 -1.4143  0.6680 -0.6995
  621MOL0     H83823   4.062   6.770   4.840 -3.3075  1.3053  1.2684
  621MOL0     H83824   4.253   6.888   4.730  0.3376  0.3355 -0.6107
  621MOL0     H83825   4.406   6.988   4.661 -1.2458  0.9446  2.6991
  621MOL0     H83826   4.447   7.084   4.518 -1.4673 -0.8457 -1.7615
  621MOL0     H83827   4.490   7.190   4.768 -1.2386  0.4040  0.5142
  621MOL0     H83828   4.311   7.226   4.755  0.7766  0.6850  2.0688
  621MOL0     H83829   4.357   7.338   4.541  2.1659 -0.6703 -3.3332
  621MOL0     H83830   4.527   7.308   4.546 -1.7110  1.1191 -2.2864
  621MOL0     H83831   4.385   7.437   4.793  1.0567 -1.3098  0.9061
  621MOL0     H83832   4.425   7.539   4.652  2.1522  0.2870 -1.4850
  621MOL0     H83833   4.788   7.514   4.845 -0.2494 -0.5465 -1.7333
  621MOL0     H83834   3.992   7.131   4.509 -0.5418 -0.1092  0.6005
  621MOL0     H83835   3.795   7.039   4.640 -0.9321 -0.2978  1.3787
  622MOL0     O83836   1.046   9.890   3.959 -0.1681  0.5473  0.9139
  622MOL0     C83837   1.091   9.912   4.073 -0.6724  1.0228 -0.8777
  622MOL0     O83838   1.019   9.921   4.192  0.5025 -0.2323 -0.0434
  622MOL0     C83839   0.883   9.929   4.181 -0.9948 -0.4143  0.5228
  622MOL0     C83840   0.809   9.828   4.242 -0.4095  1.0118 -0.8315
  622MOL0     C83841   0.673   9.820   4.231 -0.6699  0.4293  0.1346
  622MOL0     C83842   0.601   9.923   4.173 -0.0579  0.0348  0.1396
  622MOL0     O83843   0.462   9.924   4.157 -0.4626  0.0734 -0.1899
  622MOL0     C83844   0.410  10.031   4.080  0.9622  0.0122  0.7094
  622MOL0     C83845   0.253  10.010   4.097  0.3437 -0.0708  0.2252
  622MOL0     C83846   0.171  10.082   3.991  0.2108  0.1834  0.0209
  622MOL0     C83847   0.023  10.036   3.974 -0.0497  0.8211  0.0085
  622MOL0     C83848  -0.072  10.136   3.905  0.5049 -0.5047 -1.0090
  622MOL0     C83849  -0.070  10.278   3.967 -0.3351 -0.4840  0.9831
  622MOL0     C83850  -0.180  10.356   3.902  0.3933  0.0810 -0.3093
  622MOL0     C83851  -0.128  10.394   3.759 -0.2455 -0.3139 -0.5833
  622MOL0     N83852  -0.226  10.493   3.700  0.3252  0.3970 -0.1634
  622MOL0     C83853  -0.341  10.453   3.641  0.0424  0.3410 -0.4679
  622MOL0     C83854  -0.374  10.552   3.558 -0.1409 -0.3896 -0.3839
  622MOL0     C83855  -0.490  10.568   3.465 -0.0139 -0.5018  0.1934
  622MOL0     C83856  -0.608  10.471   3.491  0.5950 -0.0846 -0.1022
  622MOL0     C83857  -0.755  10.535   3.487  0.6839  0.0003  0.3517
  622MOL0     C83858  -0.791  10.622   3.363  0.2051  0.7964 -1.1653
  622MOL0     O83859  -0.930  10.642   3.371 -0.5706 -0.0462 -0.0731
  622MOL0     C83860  -0.976  10.727   3.281  0.8028 -1.0999  0.1108
  622MOL0     C83861  -0.928  10.772   3.155 -0.7280  0.1329  0.3847
  622MOL0     C83862  -1.007  10.858   3.067  0.2562  1.1150 -0.1862
  622MOL0     C83863  -0.956  10.911   2.936 -0.3758 -0.5186 -0.4148
  622MOL0     C83864  -1.133  10.899   3.114  0.3418  0.1218 -0.6596
  622MOL0     C83865  -1.220  11.004   3.052 -0.4538 -0.8342 -0.9709
  622MOL0     O83866  -1.279  10.979   2.930 -0.2811  0.0264  0.2231
  622MOL0     C83867  -1.364  11.075   2.885 -0.3129 -0.0034  0.1188
  622MOL0     C83868  -1.499  11.063   2.893 -0.2753 -0.1059  0.4818
  622MOL0     C83869  -1.583  11.146   2.826 -0.4205 -0.2032  0.4612
  622MOL0     C83870  -1.531  11.248   2.755  0.6394 -0.0383  0.4168
  622MOL0     O83871  -1.615  11.346   2.706 -0.5979 -0.0089 -0.5053
  622MOL0     C83872  -1.756  11.363   2.735 -0.2374  0.1076  0.5472
  622MOL0     C83873  -1.810  11.486   2.654 -0.5340  0.0576  0.2139
  622MOL0     C83874  -1.905  11.443   2.537 -0.1579  0.1960  0.1122
  622MOL0     C83875  -1.996  11.556   2.493 -0.5076  0.5081  0.2350
  622MOL0     C83876  -2.068  11.510   2.361  0.4988  0.2312  0.8021
  622MOL0     C83877  -2.207  11.572   2.331 -0.0207 -0.0669 -0.0753
  622MOL0     C83878  -2.254  11.530   2.189  0.1264 -0.4393 -0.4435
  622MOL0     C83879  -2.408  11.553   2.180 -0.5895  0.6121  0.1207
  622MOL0    Cl83880  -2.487  11.520   2.020 -0.2140 -0.4721 -0.0162
  622MOL0     C83881  -1.391  11.261   2.735  0.1793  0.4482  0.1659
  622MOL0     C83882  -1.302  11.172   2.805  0.1722  0.0170  0.6614
  622MOL0     O83883  -1.198  11.119   3.098  0.0991  0.6351  0.7667
  622MOL0     C83884  -1.178  10.871   3.245 -0.2426  1.2049  0.3468
  622MOL0     C83885  -1.099  10.780   3.324  0.5372 -0.3315  0.2599
  622MOL0     N83886  -0.276  10.644   3.571  0.6139  0.1046 -0.6415
  622MOL0     N83887  -0.184  10.613   3.653 -0.4278  1.0611 -0.3447
  622MOL0     C83888   0.672  10.036   4.130 -0.1402  0.3513 -0.0909
  622MOL0     C83889   0.813  10.036   4.130 -1.0335 -0.4588  0.1445
  622MOL0     C83890   1.241   9.927   4.077  0.4832 -1.0310 -0.0626
  622MOL0     C83891   1.308   9.902   4.194  0.6500  0.8495 -0.5424
  622MOL0     C83892   1.450   9.903   4.197  0.1486 -0.7940 -0.3009
  622MOL0     C83893   1.525   9.943   4.078 -0.5786  0.2337 -2.0384
  622MOL0     O83894   1.668   9.949   4.093  0.7046 -1.0206  0.2816
  622MOL0     C83895   1.756  10.019   4.002 -0.3461 -0.2084 -0.7829
  622MOL0     C83896   1.814   9.918   3.900  0.7602 -0.6227  0.6052
  622MOL0     C83897   1.924   9.991   3.834 -0.3951  0.7770 -0.1031
  622MOL0     C83898   2.063   9.945   3.888  0.3962  0.6887 -0.5168
  622MOL0     C83899   2.089   9.816   3.829  0.3872 -0.0375  0.2218
  622MOL0     C83900   2.114   9.701   3.785  0.2169  0.5392 -0.7580
  622MOL0     C83901   1.450   9.969   3.965 -0.0459 -0.0860 -0.5682
  622MOL0     C83902   1.314   9.958   3.957 -0.7968  0.7002 -0.2898
  622MOL0     H83903   0.881   9.753   4.275  0.9040  0.4249 -4.5367
  622MOL0     H83904   0.614   9.740   4.275 -3.2883  2.6150  0.9226
  622MOL0     H83905   0.427  10.133   4.113  2.0025  0.2635 -0.5222
  622MOL0     H83906   0.438  10.027   3.974  0.5563 -2.0506  0.6406
  622MOL0     H83907   0.227   9.903   4.100 -1.0997  0.2754  0.6405
  622MOL0     H83908   0.224  10.042   4.198 -2.3962  3.3385 -1.4600
  622MOL0     H83909   0.183  10.186   4.024  0.5239  0.2762 -0.3802
  622MOL0     H83910   0.218  10.067   3.894 -1.2920  0.3545 -0.7612
  622MOL0     H83911   0.018   9.948   3.909 -1.4773 -0.1860  1.3890
  622MOL0     H83912  -0.011  10.011   4.075  4.6027 -1.9018  1.1887
  622MOL0     H83913  -0.044  10.140   3.799  1.3904  3.1092 -0.7666
  622MOL0     H83914  -0.177  10.107   3.913 -0.1614  1.5538 -1.6009
  622MOL0     H83915  -0.086  10.277   4.076 -0.9552 -0.2128  0.9018
  622MOL0     H83916   0.027  10.324   3.950 -0.1550 -1.0125  0.5620
  622MOL0     H83917  -0.272  10.298   3.902 -0.2407  1.0086  1.6331
  622MOL0     H83918  -0.205  10.448   3.956 -3.3171 -0.3169 -1.1084
  622MOL0     H83919  -0.112  10.305   3.699  0.7031  0.4524 -1.5004
  622MOL0     H83920  -0.033  10.448   3.764 -0.4452 -0.0459  0.8187
  622MOL0     H83921  -0.394  10.359   3.660 -0.5824  1.1549  2.2237
  622MOL0     H83922  -0.525  10.669   3.490  1.0814 -0.2574  0.8002
  622MOL0     H83923  -0.463  10.566   3.359  1.4571  1.0696  0.4859
  622MOL0     H83924  -0.582  10.426   3.587  2.3408 -0.4998 -0.7180
  622MOL0     H83925  -0.610  10.386   3.421  2.1203 -0.9376  0.8316
  622MOL0     H83926  -0.786  10.575   3.584 -0.9083 -2.0754  0.7696
  622MOL0     H83927  -0.819  10.446   3.486 -1.1552  1.2878  0.1486
  622MOL0     H83928  -0.761  10.571   3.271 -0.4482  0.6778 -1.3230
  622MOL0     H83929  -0.729  10.712   3.372  2.3243 -0.7750  1.1984
  622MOL0     H83930  -0.839  10.731   3.109 -1.9462  0.2416 -2.2340
  622MOL0     H83931  -0.941  11.019   2.936 -0.3725 -0.5187 -0.4863
  622MOL0     H83932  -0.858  10.867   2.918 -0.7014 -2.3096  1.7884
  622MOL0     H83933  -1.022  10.880   2.854 -0.0688 -2.4206  0.0045
  622MOL0     H83934  -1.539  10.978   2.948 -2.0358 -0.9281 -1.8413
  622MOL0     H83935  -1.686  11.132   2.856 -0.4741 -2.0052 -0.3745
  622MOL0     H83936  -1.819  11.276   2.715  0.3168  0.1792 -1.8231
  622MOL0     H83937  -1.772  11.392   2.839 -0.9422 -0.7660  0.6947
  622MOL0     H83938  -1.857  11.552   2.727  0.9610  2.0076 -0.5089
  622MOL0     H83939  -1.718  11.533   2.619  0.3134 -0.5217  1.5563
  622MOL0     H83940  -1.966  11.354   2.557  0.5317 -0.5595 -1.0157
  622MOL0     H83941  -1.838  11.420   2.453  0.7551  1.3183  0.5176
  622MOL0     H83942  -2.075  11.586   2.563 -2.1834  0.3283 -1.5129
  622MOL0     H83943  -1.925  11.638   2.480  2.7842 -2.3185 -1.0739
  622MOL0     H83944  -2.070  11.403   2.338  0.8029  0.4606 -0.3783
  622MOL0     H83945  -2.005  11.533   2.275  2.0624  2.3191  2.4144
  622MOL0     H83946  -2.281  11.542   2.405 -1.0680  0.8208 -0.7317
  622MOL0     H83947  -2.191  11.679   2.346  0.5139 -0.0997 -0.3835
  622MOL0     H83948  -2.230  11.427   2.163 -1.4670 -1.2106  0.9881
  622MOL0     H83949  -2.221  11.600   2.111 -2.8516  4.3184  2.0613
  622MOL0     H83950  -2.442  11.653   2.207 -2.2663  0.4104 -1.0699
  622MOL0     H83951  -2.458  11.496   2.259 -2.1236  1.4294 -0.2201
  622MOL0     H83952  -1.353  11.328   2.659  1.4262 -0.5233 -0.1019
  622MOL0     H83953  -1.193  11.163   2.804  0.3817  2.0555  0.1910
  622MOL0     H83954  -1.275  10.902   3.282 -0.8174 -1.4066  1.1631
  622MOL0     H83955  -1.138  10.752   3.421  0.3366 -1.2539 -0.0743
  622MOL0     H83956   0.634  10.130   4.091  2.1047  1.0062 -0.8530
  622MOL0     H83957   0.858  10.126   4.089 -0.7843 -1.7791 -2.7703
  622MOL0     H83958   1.276   9.893   4.298  3.2865  0.9895  0.3761
  622MOL0     H83959   1.493   9.878   4.294  1.7489  1.2596 -0.4184
  622MOL0     H83960   1.687  10.089   3.955  1.1940  1.7271 -0.3271
  622MOL0     H83961   1.834  10.079   4.051 -0.9583 -1.0064  1.2820
  622MOL0     H83962   1.727   9.911   3.834  1.3056  1.4302 -0.4163
  622MOL0     H83963   1.837   9.824   3.952  1.0318  0.0633  1.7568
  622MOL0     H83964   1.910  10.098   3.849  2.6127  0.9532  2.5498
  622MOL0     H83965   1.920   9.982   3.725 -1.6308  2.2783 -0.2051
  622MOL0     H83966   2.056   9.965   3.995 -2.0035 -1.1697 -0.2343
  622MOL0     H83967   2.147   9.996   3.841  0.8624  0.8574  0.4809
  622MOL0     H83968   2.130   9.600   3.753  0.1888  0.5572 -0.8285
  622MOL0     H83969   1.497   9.999   3.872 -0.9773  2.9767 -0.1497
  622MOL0     H83970   1.277   9.961   3.855  2.4647  2.2497 -1.5569
  623MOL0     O83971  10.528   2.666   0.643  0.3668  1.3226  0.2569
  623MOL0     C83972  10.579   2.593   0.731  0.5052 -0.0012  0.4038
  623MOL0     O83973  10.528   2.479   0.786  0.2954 -0.3065 -0.2023
  623MOL0     C83974  10.406   2.423   0.743 -0.6166  0.1331  0.6459
  623MOL0     C83975  10.284   2.485   0.716  0.2122 -0.2901 -0.3627
  623MOL0     C83976  10.159   2.423   0.690 -0.8242 -0.0332 -0.1763
  623MOL0     C83977  10.167   2.284   0.679  0.2705  0.4811 -0.2057
  623MOL0     O83978  10.055   2.204   0.640  0.3043  0.2035  0.1941
  623MOL0     C83979   9.924   2.246   0.670 -1.1315  0.6359  0.1294
  623MOL0     C83980   9.836   2.123   0.705  0.9104 -0.1939  0.5541
  623MOL0     C83981   9.698   2.146   0.768 -0.2106 -0.4519  0.0867
  623MOL0     C83982   9.592   2.169   0.661  0.7280  0.0686  0.0266
  623MOL0     C83983   9.440   2.155   0.708 -0.3569 -0.4516  1.5175
  623MOL0     C83984   9.395   2.243   0.820 -0.7788 -0.0683  0.0470
  623MOL0     C83985   9.258   2.300   0.817 -0.6296 -0.1150  0.5068
  623MOL0     C83986   9.150   2.222   0.889 -0.4655 -0.4228  1.6013
  623MOL0     N83987   9.030   2.301   0.906 -0.3485 -0.4817 -0.1915
  623MOL0     C83988   8.915   2.294   0.832  0.1187  0.0961  0.6644
  623MOL0     C83989   8.834   2.381   0.903  0.1205  0.6961  0.7732
  623MOL0     C83990   8.690   2.411   0.868  0.0438 -0.6610  0.4152
  623MOL0     C83991   8.608   2.426   1.001  0.2982  0.3092  0.0060
  623MOL0     C83992   8.473   2.494   0.976 -0.5571 -0.3517  0.1813
  623MOL0     C83993   8.364   2.450   1.084  0.0954  0.3419  0.2437
  623MOL0     O83994   8.285   2.340   1.024 -0.2669  0.3017 -0.1781
  623MOL0     C83995   8.204   2.269   1.107 -0.5333  0.1556 -0.6922
  623MOL0     C83996   8.164   2.299   1.232  0.9853 -0.4750 -0.5529
  623MOL0     C83997   8.071   2.213   1.303  1.1129 -0.0718 -0.4298
  623MOL0     C83998   8.009   2.265   1.437 -0.2065 -0.1190 -0.1791
  623MOL0     C83999   8.040   2.087   1.250  0.5858 -0.7077  0.7944
  623MOL0     C84000   7.923   1.999   1.294 -0.0489  0.9848 -0.1828
  623MOL0     O84001   7.831   2.053   1.367  0.1100  0.6104  0.0473
  623MOL0     C84002   7.714   1.977   1.396  0.5915 -0.3975 -0.4701
  623MOL0     C84003   7.641   1.905   1.305  0.1641  0.3690 -0.4216
  623MOL0     C84004   7.510   1.847   1.333 -0.4538  0.1302  0.7163
  623MOL0     C84005   7.467   1.866   1.457  1.1733  0.3357  0.4039
  623MOL0     O84006   7.340   1.814   1.491 -0.3968  0.3297 -0.0762
  623MOL0     C84007   7.250   1.907   1.534  0.8470  0.4662  0.2900
  623MOL0     C84008   7.119   1.831   1.501 -0.0876 -0.0403  0.0334
  623MOL0     C84009   7.003   1.919   1.557 -0.1302  0.1326 -0.2534
  623MOL0     C84010   6.866   1.866   1.507  0.1343 -0.3217 -0.1161
  623MOL0     C84011   6.767   1.950   1.603  1.1575  0.8669  0.6614
  623MOL0     C84012   6.622   1.900   1.577 -0.2263 -0.4884 -0.3881
  623MOL0     C84013   6.520   1.981   1.665  0.4133  0.1522  0.6910
  623MOL0     C84014   6.392   1.994   1.594  0.1578  0.0882  0.2250
  623MOL0    Cl84015   6.292   1.842   1.607 -0.3456 -0.0319  0.0745
  623MOL0     C84016   7.547   1.921   1.558  0.1201 -1.2656 -0.6482
  623MOL0     C84017   7.664   1.991   1.521  0.8270  0.1042  0.1712
  623MOL0     O84018   7.932   1.875   1.272 -0.1932 -0.3480 -0.2125
  623MOL0     C84019   8.093   2.049   1.125  0.2831 -1.2002 -0.4968
  623MOL0     C84020   8.167   2.143   1.057  0.4102  0.2096 -0.5817
  623MOL0     N84021   8.905   2.445   0.996  0.2567 -0.6056 -0.4665
  623MOL0     N84022   9.025   2.396   1.001  0.6296  0.4599 -0.0774
  623MOL0     C84023  10.287   2.211   0.703 -0.3027  0.6197 -0.0725
  623MOL0     C84024  10.402   2.280   0.742  0.6564 -0.9408  0.2164
  623MOL0     C84025  10.712   2.634   0.778  0.0962  0.3909 -0.1451
  623MOL0     C84026  10.759   2.594   0.904  0.1062 -0.5036 -0.6712
  623MOL0     C84027  10.862   2.656   0.972 -0.1034 -0.2800  0.4986
  623MOL0     C84028  10.936   2.754   0.907 -0.7162  0.1181  1.3063
  623MOL0     O84029  11.042   2.819   0.945 -0.4952  0.2022 -0.2265
  623MOL0     C84030  11.074   2.821   1.088 -0.5108  0.0880 -0.4311
  623MOL0     C84031  11.138   2.955   1.125  0.3535 -0.3642  0.6550
  623MOL0     C84032  11.116   2.986   1.271 -0.4194 -0.0700 -0.6086
  623MOL0     C84033  11.150   3.138   1.289  0.3728  0.6374 -0.6554
  623MOL0     C84034  11.139   3.169   1.437 -0.3293 -0.3973  0.3032
  623MOL0     C84035  11.130   3.180   1.561  0.0377 -0.4547 -0.0063
  623MOL0     C84036  10.911   2.777   0.772  0.0064  0.0617  0.8950
  623MOL0     C84037  10.797   2.722   0.704  0.1255 -1.2542  0.1292
  623MOL0     H84038  10.286   2.593   0.704 -1.4982 -0.0045  1.4118
  623MOL0     H84039  10.070   2.483   0.680  0.3381  1.6669 -0.8423
  623MOL0     H84040   9.923   2.320   0.749 -0.3863 -0.6723  1.4217
  623MOL0     H84041   9.896   2.300   0.579  0.6550 -1.2251 -1.6644
  623MOL0     H84042   9.826   2.057   0.618  0.8530  1.9758 -1.1618
  623MOL0     H84043   9.904   2.074   0.776  2.2454 -0.3997 -0.8279
  623MOL0     H84044   9.673   2.051   0.817 -1.8791 -0.3256 -0.4587
  623MOL0     H84045   9.695   2.225   0.843 -0.6910  2.5224 -2.8353
  623MOL0     H84046   9.595   2.262   0.603 -0.7178 -0.6027 -1.1723
  623MOL0     H84047   9.608   2.093   0.584  2.3477  1.2818 -0.9007
  623MOL0     H84048   9.379   2.172   0.618  0.7013 -3.1404  0.1665
  623MOL0     H84049   9.423   2.051   0.736  1.1102 -0.6827  1.6276
  623MOL0     H84050   9.423   2.195   0.914 -3.3895 -0.5912  0.6269
  623MOL0     H84051   9.456   2.334   0.817  1.1283 -1.0257  3.5313
  623MOL0     H84052   9.271   2.401   0.857 -0.1755 -0.2675  0.7521
  623MOL0     H84053   9.231   2.314   0.712 -1.9332  0.2699  0.8739
  623MOL0     H84054   9.204   2.212   0.984 -0.6262  0.3803  1.7810
  623MOL0     H84055   9.132   2.125   0.842  1.2888 -0.4936  0.9906
  623MOL0     H84056   8.887   2.241   0.742 -0.3867 -0.4270  1.1242
  623MOL0     H84057   8.695   2.506   0.814  2.6506 -1.6580 -1.3220
  623MOL0     H84058   8.655   2.331   0.802  1.8391 -1.6135  0.5534
  623MOL0     H84059   8.666   2.471   1.081  0.2714 -0.0734  0.2437
  623MOL0     H84060   8.581   2.326   1.035  0.3705  0.4537  0.4870
  623MOL0     H84061   8.423   2.487   0.879 -0.7847  2.5527 -0.0114
  623MOL0     H84062   8.488   2.602   0.989 -0.3762 -0.5743  2.0699
  623MOL0     H84063   8.309   2.539   1.114  0.2549  0.6353 -0.3175
  623MOL0     H84064   8.414   2.409   1.173 -0.0770  1.6576  0.9668
  623MOL0     H84065   8.184   2.397   1.273  0.2081 -0.9945  1.1896
  623MOL0     H84066   7.934   2.338   1.405 -1.6256 -1.9037 -1.0733
  623MOL0     H84067   7.939   2.203   1.494 -0.4005 -1.7668 -2.0985
  623MOL0     H84068   8.090   2.304   1.499  1.6633  2.8950 -4.0877
  623MOL0     H84069   7.685   1.897   1.206  1.0319  2.4258 -0.2483
  623MOL0     H84070   7.453   1.793   1.258 -0.3724  2.0119 -0.7563
  623MOL0     H84071   7.259   1.923   1.642  1.1027 -0.7556  0.4641
  623MOL0     H84072   7.261   2.005   1.487  0.0180  1.6204  2.3554
  623MOL0     H84073   7.101   1.825   1.394 -0.4411 -1.9348  0.1595
  623MOL0     H84074   7.122   1.731   1.546  1.5545  0.9066  2.1709
  623MOL0     H84075   7.008   2.023   1.524  0.4327 -0.0263 -0.6616
  623MOL0     H84076   7.016   1.918   1.666 -0.0088 -2.5089 -0.2342
  623MOL0     H84077   6.849   1.893   1.402  2.9745  0.9720 -0.3282
  623MOL0     H84078   6.855   1.758   1.516  0.4685 -0.4608 -1.2930
  623MOL0     H84079   6.782   2.056   1.582  0.1008  1.3560  2.1921
  623MOL0     H84080   6.798   1.945   1.707  1.4465  1.2574  0.5945
  623MOL0     H84081   6.607   1.911   1.469 -2.6144 -2.2068 -0.3186
  623MOL0     H84082   6.603   1.793   1.593 -1.2627 -0.3349 -0.4729
  623MOL0     H84083   6.563   2.080   1.683 -0.1478  0.6105 -0.4038
  623MOL0     H84084   6.518   1.923   1.757  0.0846 -1.4581 -0.2826
  623MOL0     H84085   6.397   2.023   1.488 -1.0859  0.1681  0.1705
  623MOL0     H84086   6.335   2.076   1.638  1.9677 -0.1302  3.2580
  623MOL0     H84087   7.514   1.935   1.660 -1.6192  2.7062 -1.5665
  623MOL0     H84088   7.709   2.047   1.602 -0.1837  1.4693 -0.1693
  623MOL0     H84089   8.077   1.959   1.068 -0.1145 -1.2436 -0.3221
  623MOL0     H84090   8.191   2.125   0.953  0.3522 -0.6332 -0.4559
  623MOL0     H84091  10.290   2.102   0.698 -0.1452  0.6180  0.0330
  623MOL0     H84092  10.490   2.219   0.762  0.1478 -1.9508 -0.5304
  623MOL0     H84093  10.703   2.525   0.966  1.3368 -2.2225 -1.4186
  623MOL0     H84094  10.869   2.633   1.078  1.4663 -1.4646  0.1603
  623MOL0     H84095  10.985   2.817   1.151  1.9432  0.4096  3.3866
  623MOL0     H84096  11.141   2.736   1.105 -2.0928 -1.6086 -2.2797
  623MOL0     H84097  11.089   3.034   1.067  1.1543 -0.4699 -0.1946
  623MOL0     H84098  11.245   2.952   1.104  0.4631  1.4969  0.7667
  623MOL0     H84099  11.176   2.927   1.341  0.0737  1.4625  0.2944
  623MOL0     H84100  11.010   2.975   1.295 -0.0797 -3.6128 -0.1992
  623MOL0     H84101  11.089   3.203   1.226  4.1098  2.2116 -3.0317
  623MOL0     H84102  11.250   3.152   1.246  0.1212 -0.5192 -1.6871
  623MOL0     H84103  11.111   3.198   1.664 -0.3214  1.2470 -0.3463
  623MOL0     H84104  10.969   2.851   0.718 -1.2098  1.2043  1.0925
  623MOL0     H84105  10.784   2.751   0.600 -2.2774 -2.4004  0.0512
  624MOL0     O84106   8.946   8.459  11.039  0.2686 -0.1424 -0.9264
  624MOL0     C84107   8.972   8.364  11.122 -0.0460  0.3028  0.1637
  624MOL0     O84108   8.906   8.242  11.123  0.0722  0.3454 -0.0900
  624MOL0     C84109   8.813   8.198  11.021 -0.3436 -0.3672 -0.1109
  624MOL0     C84110   8.751   8.077  11.047  0.1282  0.6458 -0.8603
  624MOL0     C84111   8.684   8.008  10.951  0.2709 -0.8141  0.0782
  624MOL0     C84112   8.661   8.058  10.831 -0.1814  0.8707  0.0138
  624MOL0     O84113   8.581   7.983  10.741  0.0427  0.3328 -0.2324
  624MOL0     C84114   8.553   8.033  10.612  1.7985 -0.1829 -0.1030
  624MOL0     C84115   8.471   7.951  10.518 -0.1605  0.7293  0.7668
  624MOL0     C84116   8.326   7.901  10.577 -0.5188  0.8634  0.3701
  624MOL0     C84117   8.261   7.792  10.486  0.5179  1.0472 -0.0212
  624MOL0     C84118   8.140   7.742  10.563 -0.5528 -0.1784  0.1240
  624MOL0     C84119   8.048   7.652  10.479  0.0977  0.1923  0.1651
  624MOL0     C84120   7.933   7.586  10.556 -0.6870  0.1561 -0.1080
  624MOL0     C84121   7.816   7.549  10.468 -0.4933 -0.2397 -0.0111
  624MOL0     N84122   7.721   7.460  10.538  0.0458  0.1504 -0.3573
  624MOL0     C84123   7.614   7.499  10.615 -0.1869 -0.2270  0.3882
  624MOL0     C84124   7.566   7.389  10.674  0.2928 -0.3686  1.0642
  624MOL0     C84125   7.433   7.371  10.739 -0.3526 -0.0141 -0.0785
  624MOL0     C84126   7.323   7.451  10.680  0.1030 -0.5104 -0.0044
  624MOL0     C84127   7.191   7.480  10.763  0.2933 -0.4406 -0.5880
  624MOL0     C84128   7.107   7.353  10.786  0.6423  0.2335  0.3425
  624MOL0     O84129   7.021   7.381  10.889  0.6286 -0.2120 -0.3107
  624MOL0     C84130   6.885   7.354  10.879 -0.2556 -1.0995 -0.2690
  624MOL0     C84131   6.827   7.364  11.004 -0.1076 -0.0460  0.0810
  624MOL0     C84132   6.692   7.322  11.025 -0.1874 -0.2678  0.0242
  624MOL0     C84133   6.654   7.305  11.172  0.7657  0.7938  0.1435
  624MOL0     C84134   6.615   7.280  10.917  0.1836 -0.2444 -0.1565
  624MOL0     C84135   6.465   7.250  10.930  0.0727  0.2383 -0.2223
  624MOL0     O84136   6.394   7.206  10.819 -0.7115 -0.5587  0.8237
  624MOL0     C84137   6.268   7.180  10.855  0.6071 -0.8303  0.1510
  624MOL0     C84138   6.236   7.058  10.906  1.0310 -0.9817  0.1409
  624MOL0     C84139   6.102   7.026  10.932 -0.8100  0.3796 -0.2556
  624MOL0     C84140   6.009   7.112  10.891  0.6627 -0.6293 -0.1826
  624MOL0     O84141   5.879   7.072  10.910 -0.1398 -0.1721  0.4761
  624MOL0     C84142   5.805   7.157  11.000 -0.0970  0.5857 -0.3961
  624MOL0     C84143   5.668   7.099  11.006 -0.1787 -0.4034 -0.0588
  624MOL0     C84144   5.593   7.057  10.874 -0.8089 -0.8879 -0.5670
  624MOL0     C84145   5.583   7.187  10.797  0.2771  0.6677  0.1168
  624MOL0     C84146   5.499   7.156  10.668 -0.6551  0.1034 -0.4670
  624MOL0     C84147   5.438   7.281  10.587  0.2166  0.8604  0.1469
  624MOL0     C84148   5.537   7.399  10.572  0.3292  0.0713 -0.4862
  624MOL0     C84149   5.474   7.516  10.500  0.7054 -0.3050 -0.8085
  624MOL0    Cl84150   5.406   7.476  10.345  0.0640 -0.4845  0.1494
  624MOL0     C84151   6.039   7.235  10.830  0.4228 -0.3767  0.0163
  624MOL0     C84152   6.169   7.274  10.811  0.0365  0.1222  0.4141
  624MOL0     O84153   6.416   7.272  11.042 -0.4654  0.0705  0.2806
  624MOL0     C84154   6.676   7.287  10.784  0.0865  0.5373 -0.1713
  624MOL0     C84155   6.813   7.313  10.763 -0.0383  0.7787  0.2633
  624MOL0     N84156   7.644   7.282  10.628  0.2602 -0.5986 -0.1053
  624MOL0     N84157   7.742   7.329  10.561  0.8378 -0.2912  0.5528
  624MOL0     C84158   8.730   8.176  10.792  0.1718  0.0123 -0.9123
  624MOL0     C84159   8.801   8.249  10.893  0.0142  0.3357 -0.1680
  624MOL0     C84160   9.094   8.365  11.209 -0.2207 -1.3051 -0.0598
  624MOL0     C84161   9.119   8.275  11.317 -0.2266  0.0501  0.0276
  624MOL0     C84162   9.222   8.292  11.409 -0.0371  0.4376  0.5430
  624MOL0     C84163   9.302   8.404  11.402 -0.8762  0.2147  0.6890
  624MOL0     O84164   9.401   8.418  11.495  1.0071 -0.2074 -0.0554
  624MOL0     C84165   9.510   8.514  11.480 -0.2440  0.6952  0.6730
  624MOL0     C84166   9.466   8.657  11.519  0.3928 -0.6269  0.2381
  624MOL0     C84167   9.427   8.667  11.671  0.3382  0.0037 -0.1516
  624MOL0     C84168   9.315   8.758  11.691  0.0146 -0.6973 -0.9639
  624MOL0     C84169   9.352   8.906  11.714  1.1357 -0.0943 -0.3806
  624MOL0     C84170   9.382   9.023  11.733  0.5538  0.6960 -0.1406
  624MOL0     C84171   9.283   8.487  11.285 -0.4087  0.3298 -0.2592
  624MOL0     C84172   9.184   8.458  11.190 -0.6758 -1.0691  0.8795
  624MOL0     H84173   8.764   8.037  11.147  0.8583 -0.1385 -1.2633
  624MOL0     H84174   8.638   7.912  10.974 -1.1306 -0.7523 -2.1391
  624MOL0     H84175   8.505   8.131  10.617  0.9554 -0.5479 -0.9402
  624MOL0     H84176   8.647   8.054  10.559  1.9513  1.0041  0.5926
  624MOL0     H84177   8.444   8.014  10.432 -2.7882  0.1810  1.0884
  624MOL0     H84178   8.535   7.868  10.486  0.4270  0.6215  2.1860
  624MOL0     H84179   8.333   7.869  10.681  2.0389  0.0617  0.0309
  624MOL0     H84180   8.254   7.983  10.585  0.0499  1.2981  1.1971
  624MOL0     H84181   8.219   7.840  10.397 -2.9426  0.1573  0.9725
  624MOL0     H84182   8.328   7.711  10.458 -1.0277  0.1683 -1.3061
  624MOL0     H84183   8.169   7.696  10.657  0.7949  1.6682  0.6596
  624MOL0     H84184   8.097   7.833  10.607  1.3348  1.1057 -0.5600
  624MOL0     H84185   7.999   7.707  10.398 -0.2058 -0.2455  0.0486
  624MOL0     H84186   8.103   7.568  10.435  0.2822 -0.0060  0.7747
  624MOL0     H84187   7.976   7.496  10.599 -1.3072 -0.7191 -1.2475
  624MOL0     H84188   7.903   7.653  10.637  0.2972 -0.5424  0.8565
  624MOL0     H84189   7.855   7.501  10.378 -0.8477 -1.9975  0.7393
  624MOL0     H84190   7.770   7.645  10.444 -2.6399 -1.3976 -0.7770
  624MOL0     H84191   7.579   7.601  10.619  1.1633  0.2107  1.5945
  624MOL0     H84192   7.419   7.263  10.730  1.4456 -0.1608 -1.7427
  624MOL0     H84193   7.437   7.394  10.847  2.6016  0.4964 -0.1927
  624MOL0     H84194   7.283   7.391  10.598 -1.8302 -0.9307  1.1699
  624MOL0     H84195   7.339   7.554  10.647  0.4820 -0.5041  0.1831
  624MOL0     H84196   7.138   7.553  10.702 -2.5220 -0.5209  1.5379
  624MOL0     H84197   7.216   7.526  10.860  1.8156 -1.5840 -0.3983
  624MOL0     H84198   7.176   7.275  10.819  2.5500  1.0185 -1.5434
  624MOL0     H84199   7.065   7.330  10.687  1.4707  0.1620 -0.0008
  624MOL0     H84200   6.890   7.396  11.087 -0.9155  0.9138  0.3569
  624MOL0     H84201   6.570   7.370  11.195  2.1241  1.9241  2.2303
  624MOL0     H84202   6.630   7.200  11.193  1.8063  0.0681 -1.9895
  624MOL0     H84203   6.733   7.340  11.239  2.0074 -1.4623 -0.0379
  624MOL0     H84204   6.317   6.991  10.936  3.4229  0.4570 -2.5683
  624MOL0     H84205   6.079   6.940  10.993  0.0963  0.2115 -0.1363
  624MOL0     H84206   5.849   7.151  11.100  0.6072  3.2418 -0.4791
  624MOL0     H84207   5.799   7.262  10.971  0.1992  0.7327  0.0648
  624MOL0     H84208   5.686   7.010  11.066 -0.6853 -0.3789  0.1290
  624MOL0     H84209   5.616   7.176  11.063 -0.0275 -1.0244  0.9382
  624MOL0     H84210   5.494   7.016  10.893 -0.7441 -1.1398 -0.7631
  624MOL0     H84211   5.660   6.986  10.824  2.8145  2.1130 -0.3763
  624MOL0     H84212   5.522   7.265  10.842 -0.2987  0.7645 -0.7926
  624MOL0     H84213   5.679   7.238  10.784 -0.5159  2.8123  2.0235
  624MOL0     H84214   5.418   7.083  10.683 -1.7275  1.1728 -0.8472
  624MOL0     H84215   5.574   7.106  10.606 -0.5450 -0.4417  0.0894
  624MOL0     H84216   5.412   7.253  10.484 -2.2571  2.3321  0.2940
  624MOL0     H84217   5.340   7.314  10.622 -2.2267 -0.5142 -4.5461
  624MOL0     H84218   5.628   7.374  10.517  2.0792 -2.2686  3.0299
  624MOL0     H84219   5.566   7.425  10.674  1.0398 -1.4582 -0.2658
  624MOL0     H84220   5.549   7.590  10.470  0.0084  0.3520 -0.9762
  624MOL0     H84221   5.405   7.580  10.556  2.8265  0.9020  0.5298
  624MOL0     H84222   5.955   7.291  10.792 -0.1481  0.4614  2.3298
  624MOL0     H84223   6.190   7.367  10.760  0.2435  0.7449  1.5856
  624MOL0     H84224   6.619   7.243  10.704  1.4556  2.4056 -2.2920
  624MOL0     H84225   6.864   7.314  10.667 -2.8911  5.0754 -1.5108
  624MOL0     H84226   8.732   8.220  10.693 -1.8436  0.4522 -0.8116
  624MOL0     H84227   8.831   8.351  10.870 -0.9626  0.2502 -1.9627
  624MOL0     H84228   9.052   8.191  11.332 -1.9843  1.3206 -0.3913
  624MOL0     H84229   9.233   8.219  11.489 -0.4423 -1.6306 -1.1921
  624MOL0     H84230   9.588   8.469  11.542 -0.3161  0.7640  0.8151
  624MOL0     H84231   9.527   8.516  11.372 -0.2303  1.5468  0.6810
  624MOL0     H84232   9.387   8.698  11.455  3.5418  1.0563 -2.9438
  624MOL0     H84233   9.551   8.726  11.510 -1.0867  1.1978 -0.3623
  624MOL0     H84234   9.510   8.688  11.739 -0.9386 -2.4768  2.4074
  624MOL0     H84235   9.383   8.569  11.692 -1.8211  0.2409 -2.9447
  624MOL0     H84236   9.282   8.721  11.788 -0.8522 -3.6844 -2.2806
  624MOL0     H84237   9.240   8.743  11.613  2.1279  0.9787 -3.5161
  624MOL0     H84238   9.410   9.123  11.760  0.7081  1.0426 -1.4978
  624MOL0     H84239   9.346   8.570  11.255  0.9557 -0.9970 -1.2326
  624MOL0     H84240   9.172   8.524  11.105 -2.1698 -1.5920  0.6474
  625MOL0     O84241   7.854  10.402   7.627  0.8268  0.0052 -0.1434
  625MOL0     C84242   7.918  10.407   7.522 -0.4415 -0.5791 -0.1856
  625MOL0     O84243   7.859  10.424   7.397  0.0207 -0.0546  0.2773
  625MOL0     C84244   7.731  10.369   7.380  0.2321 -0.7404 -0.3420
  625MOL0     C84245   7.623  10.445   7.423 -0.2717  0.0966 -0.4223
  625MOL0     C84246   7.491  10.394   7.404 -0.4377 -0.5443  0.0471
  625MOL0     C84247   7.468  10.270   7.341 -0.0204 -0.0286  0.2214
  625MOL0     O84248   7.337  10.233   7.331  0.6972  0.2096  0.3324
  625MOL0     C84249   7.303  10.095   7.326  0.5967 -0.2871  0.8481
  625MOL0     C84250   7.267  10.060   7.187  0.0337 -0.1696 -0.5622
  625MOL0     C84251   7.132  10.120   7.134 -1.2362  0.2052 -0.0776
  625MOL0     C84252   7.036  10.019   7.063  0.0738  0.1948 -0.1000
  625MOL0     C84253   6.896  10.070   7.074  0.0071  0.2318 -0.5034
  625MOL0     C84254   6.795   9.994   6.992 -0.9948 -0.4435 -0.5683
  625MOL0     C84255   6.737   9.876   7.068  0.0546  0.1620  0.1892
  625MOL0     C84256   6.675   9.774   6.974 -0.6027  0.0146 -0.2818
  625MOL0     N84257   6.585   9.678   7.050 -0.3387 -0.3064  0.4710
  625MOL0     C84258   6.506   9.587   6.987  0.0098  0.6935 -0.0592
  625MOL0     C84259   6.445   9.511   7.084  0.1298  0.0306  1.0235
  625MOL0     C84260   6.342   9.408   7.057  0.7546  0.3702  0.2288
  625MOL0     C84261   6.266   9.370   7.183  0.6495  0.5225 -0.6971
  625MOL0     C84262   6.165   9.259   7.156 -0.1012 -0.6406 -0.2844
  625MOL0     C84263   6.086   9.222   7.284 -0.0748  0.2857 -0.1685
  625MOL0     O84264   6.001   9.334   7.318 -0.5913  0.4200 -0.0847
  625MOL0     C84265   5.874   9.310   7.363  0.9021 -0.1768 -0.4334
  625MOL0     C84266   5.791   9.195   7.356 -0.5465 -0.4912  0.7945
  625MOL0     C84267   5.656   9.192   7.394 -0.0530 -0.4581  0.0366
  625MOL0     C84268   5.578   9.059   7.381 -0.0360 -1.0748  0.5517
  625MOL0     C84269   5.603   9.302   7.458 -0.1329  0.1048 -0.6403
  625MOL0     C84270   5.463   9.308   7.506 -0.4879  0.4577 -0.4784
  625MOL0     O84271   5.372   9.270   7.410 -0.2454 -0.0292  0.1476
  625MOL0     C84272   5.238   9.257   7.440 -0.0014  0.2928  0.3410
  625MOL0     C84273   5.162   9.354   7.511 -0.5853 -0.0612 -0.3571
  625MOL0     C84274   5.027   9.333   7.538 -0.0036  0.0848  0.0016
  625MOL0     C84275   4.960   9.235   7.476 -1.0781 -0.2443 -0.4412
  625MOL0     O84276   4.826   9.235   7.519  0.3883  0.3820 -0.2167
  625MOL0     C84277   4.736   9.150   7.442  0.2023 -0.4953 -0.4606
  625MOL0     C84278   4.593   9.206   7.447  0.0889  0.1713  0.4023
  625MOL0     C84279   4.484   9.114   7.395 -0.5013  0.7179  0.3613
  625MOL0     C84280   4.353   9.165   7.440  1.2387 -0.1308  0.8050
  625MOL0     C84281   4.217   9.102   7.381 -0.0905  0.7226  0.1613
  625MOL0     C84282   4.187   8.956   7.428  0.1204  0.8766  0.5240
  625MOL0     C84283   4.216   8.919   7.571  0.3196 -0.3428 -0.2412
  625MOL0     C84284   4.141   8.993   7.686 -0.1106  0.8221  0.0010
  625MOL0    Cl84285   3.974   8.949   7.687  0.3516 -0.2086 -0.0991
  625MOL0     C84286   5.033   9.134   7.396 -0.0608  0.9347 -0.6281
  625MOL0     C84287   5.170   9.149   7.390 -0.3220  0.0115 -0.0129
  625MOL0     O84288   5.447   9.391   7.599 -0.2237  0.2803 -0.3260
  625MOL0     C84289   5.690   9.416   7.484 -0.4443  0.3358  0.1529
  625MOL0     C84290   5.816   9.423   7.426 -0.0644  0.9471 -0.3413
  625MOL0     N84291   6.479   9.572   7.203  0.2580 -0.6797  0.2328
  625MOL0     N84292   6.556   9.674   7.184  0.1550 -0.0364 -0.0455
  625MOL0     C84293   7.583  10.203   7.298 -0.2382  0.2200 -0.1332
  625MOL0     C84294   7.713  10.252   7.313 -0.4152  0.3867  0.0772
  625MOL0     C84295   8.068  10.420   7.528 -0.2522  0.5271  0.3732
  625MOL0     C84296   8.141  10.390   7.645 -0.9071 -0.1920  0.3092
  625MOL0     C84297   8.285  10.390   7.649  0.0563  0.2465 -0.1794
  625MOL0     C84298   8.356  10.420   7.534  0.4534 -1.1795  0.5052
  625MOL0     O84299   8.497  10.431   7.537  0.6880 -0.4396 -0.0306
  625MOL0     C84300   8.582  10.374   7.434 -0.5083  0.2243 -0.2653
  625MOL0     C84301   8.702  10.282   7.488 -0.2826  0.5307  0.4248
  625MOL0     C84302   8.783  10.369   7.583 -0.0207  0.5586  0.1390
  625MOL0     C84303   8.896  10.297   7.655  0.2325 -0.1296 -0.0009
  625MOL0     C84304   8.987  10.223   7.565  0.0405  0.3620  0.2547
  625MOL0     C84305   9.064  10.144   7.512  0.6874  0.9527 -1.1106
  625MOL0     C84306   8.284  10.453   7.409  0.2951 -0.4986 -0.3028
  625MOL0     C84307   8.137  10.452   7.411 -0.9972 -0.2651  0.1463
  625MOL0     H84308   7.645  10.538   7.474  2.2030 -0.2442 -0.7421
  625MOL0     H84309   7.403  10.447   7.441 -0.8081 -1.5385  0.6407
  625MOL0     H84310   7.376  10.030   7.373  0.1900 -0.5306  1.1516
  625MOL0     H84311   7.210  10.087   7.384 -0.3253  0.2848 -0.4893
  625MOL0     H84312   7.351  10.088   7.122 -0.1790 -0.9822 -1.1994
  625MOL0     H84313   7.260   9.952   7.176  1.0530 -0.3912  0.6608
  625MOL0     H84314   7.082  10.144   7.229  3.5640 -2.2204  3.4960
  625MOL0     H84315   7.146  10.216   7.083  3.8887  0.7347  1.7504
  625MOL0     H84316   7.065  10.007   6.958 -1.5556  0.8196 -0.6670
  625MOL0     H84317   7.055   9.924   7.113  0.2813  0.4795  0.3598
  625MOL0     H84318   6.872  10.081   7.180  0.9000 -1.2433 -0.1202
  625MOL0     H84319   6.899  10.171   7.032 -0.4011  0.9067  1.0191
  625MOL0     H84320   6.714  10.065   6.973 -0.2691  1.0553  1.4686
  625MOL0     H84321   6.849   9.967   6.901 -0.8325 -0.3861 -0.4894
  625MOL0     H84322   6.814   9.825   7.126  1.2430  1.3920 -0.2609
  625MOL0     H84323   6.658   9.904   7.139 -0.7558 -0.4936 -0.4297
  625MOL0     H84324   6.755   9.720   6.923  0.1523  0.0177  0.8654
  625MOL0     H84325   6.617   9.823   6.895  0.1155 -1.7676 -2.0097
  625MOL0     H84326   6.482   9.576   6.881  3.8950 -3.0997 -0.8320
  625MOL0     H84327   6.271   9.451   6.986 -0.4204  0.7453  1.5862
  625MOL0     H84328   6.392   9.319   7.016  1.5882  0.1327  1.6666
  625MOL0     H84329   6.212   9.460   7.216 -1.2758 -1.5483  2.2643
  625MOL0     H84330   6.327   9.342   7.269 -1.0881  0.2878  0.5164
  625MOL0     H84331   6.211   9.179   7.097  1.7641  0.4384 -0.3762
  625MOL0     H84332   6.090   9.301   7.089  1.2998  0.4718 -1.2095
  625MOL0     H84333   6.144   9.189   7.371  0.1546  0.2952 -0.3175
  625MOL0     H84334   6.038   9.127   7.258  1.7803 -1.1622  1.3544
  625MOL0     H84335   5.838   9.101   7.330  0.1832 -1.4559  4.8382
  625MOL0     H84336   5.522   9.063   7.288  0.7518 -1.3147  0.0601
  625MOL0     H84337   5.652   8.981   7.364  1.7507  0.7200 -0.4105
  625MOL0     H84338   5.529   9.046   7.478  1.7379  1.3283  1.8983
  625MOL0     H84339   5.200   9.451   7.542 -1.5321  0.1277  0.2667
  625MOL0     H84340   4.970   9.410   7.590 -0.8092 -0.0610 -0.6425
  625MOL0     H84341   4.767   9.148   7.337  2.4313 -1.3358  0.1577
  625MOL0     H84342   4.743   9.045   7.474 -1.2278 -0.2263  0.8840
  625MOL0     H84343   4.570   9.236   7.549  2.6938  0.8763  0.8509
  625MOL0     H84344   4.595   9.293   7.380 -1.9872  0.7546  1.0230
  625MOL0     H84345   4.513   9.012   7.421  3.8428  1.5072 -0.6331
  625MOL0     H84346   4.478   9.111   7.286 -2.7301  1.1038  0.4365
  625MOL0     H84347   4.355   9.163   7.549  1.6837  4.9894  1.1263
  625MOL0     H84348   4.353   9.272   7.416  1.7302 -0.5308 -1.2029
  625MOL0     H84349   4.212   9.106   7.272  1.6738 -1.5296 -0.0701
  625MOL0     H84350   4.138   9.166   7.420  0.1445  2.4576 -2.0138
  625MOL0     H84351   4.083   8.924   7.424  0.1974  0.3888  1.9943
  625MOL0     H84352   4.244   8.894   7.359  0.7620  1.7632  0.2326
  625MOL0     H84353   4.322   8.938   7.589  0.8496 -0.5818 -2.7668
  625MOL0     H84354   4.191   8.812   7.578 -3.4096  0.4336  0.4793
  625MOL0     H84355   4.158   9.101   7.674 -1.2452  1.1186  0.9160
  625MOL0     H84356   4.188   8.952   7.775 -0.2694 -1.0631 -0.7355
  625MOL0     H84357   4.982   9.047   7.355 -0.6165  0.5941  0.7258
  625MOL0     H84358   5.225   9.077   7.331 -0.3983  0.7542 -1.0004
  625MOL0     H84359   5.661   9.506   7.538  0.9754 -0.6855  2.8052
  625MOL0     H84360   5.878   9.512   7.438 -1.1898  1.4427  2.8217
  625MOL0     H84361   7.586  10.107   7.246  2.7168  0.8179 -1.2593
  625MOL0     H84362   7.800  10.210   7.263  0.3864  0.6533  1.2076
  625MOL0     H84363   8.096  10.372   7.742 -1.2547 -3.0221 -0.3073
  625MOL0     H84364   8.341  10.383   7.742  1.8980  0.0511 -1.2490
  625MOL0     H84365   8.519  10.311   7.370 -1.0742 -1.9763  2.2609
  625MOL0     H84366   8.627  10.452   7.372 -0.2488  0.1001 -0.2344
  625MOL0     H84367   8.771  10.250   7.409  1.0795  2.4196  0.7757
  625MOL0     H84368   8.662  10.193   7.537  1.2033 -1.3456 -1.5414
  625MOL0     H84369   8.724  10.399   7.671  0.1073  0.2132  0.3429
  625MOL0     H84370   8.816  10.460   7.533  0.0032  1.0032  0.9423
  625MOL0     H84371   8.843  10.223   7.716 -1.4900  0.5502 -0.6209
  625MOL0     H84372   8.946  10.364   7.725 -1.5012 -0.7012  1.8697
  625MOL0     H84373   9.140  10.074   7.485 -1.4001 -2.3289  0.8132
  625MOL0     H84374   8.331  10.493   7.321  0.2516 -0.9342 -0.5279
  625MOL0     H84375   8.080  10.481   7.324 -1.1150  0.7304  0.5429
  626MOL0     O84376   5.583   9.462   4.762 -0.6099  0.0860 -0.1171
  626MOL0     C84377   5.637   9.480   4.878  0.0592 -0.7284  0.5709
  626MOL0     O84378   5.569   9.486   4.998 -0.0526 -0.7289 -0.1155
  626MOL0     C84379   5.428   9.486   5.011 -0.3331 -0.2049  0.3953
  626MOL0     C84380   5.370   9.425   5.125 -0.6955 -0.2005  0.4984
  626MOL0     C84381   5.237   9.452   5.161 -0.0231 -0.1039  0.5599
  626MOL0     C84382   5.155   9.536   5.079 -0.8518 -0.0716  0.1229
  626MOL0     O84383   5.021   9.566   5.099  0.3405 -0.3209  1.0007
  626MOL0     C84384   4.990   9.595   5.237 -0.2222  0.0281  0.7124
  626MOL0     C84385   4.854   9.667   5.241 -0.3027 -0.1123 -0.2664
  626MOL0     C84386   4.738   9.563   5.238  0.4341  0.2028 -0.2612
  626MOL0     C84387   4.602   9.644   5.239 -0.7418 -0.2759  0.3346
  626MOL0     C84388   4.478   9.556   5.276 -0.0528  0.5166 -0.4548
  626MOL0     C84389   4.339   9.613   5.239  0.7309 -0.7428  0.3201
  626MOL0     C84390   4.305   9.726   5.335  0.7322  0.2484 -0.0892
  626MOL0     C84391   4.191   9.690   5.423  0.4980  0.0452 -0.0797
  626MOL0     N84392   4.232   9.618   5.547  0.1283  0.3990  0.5803
  626MOL0     C84393   4.285   9.491   5.550 -0.4636  0.2852  0.0715
  626MOL0     C84394   4.289   9.455   5.680 -0.3772 -0.4298  0.1413
  626MOL0     C84395   4.327   9.310   5.721 -1.2055  0.1332  0.1535
  626MOL0     C84396   4.475   9.310   5.727  0.3122  0.4893 -0.2401
  626MOL0     C84397   4.534   9.173   5.736 -0.3927 -0.1986  0.1070
  626MOL0     C84398   4.683   9.192   5.728 -0.6789 -0.0722 -0.9007
  626MOL0     O84399   4.712   9.221   5.589  0.1060  0.0165 -0.3034
  626MOL0     C84400   4.849   9.226   5.561 -0.1472 -0.3850  0.9623
  626MOL0     C84401   4.950   9.239   5.651  0.4517 -0.0493  0.5909
  626MOL0     C84402   5.083   9.226   5.604 -0.3982  0.3537 -0.1138
  626MOL0     C84403   5.198   9.278   5.694  0.1507 -0.0732  0.1524
  626MOL0     C84404   5.118   9.205   5.470 -0.3953  0.6754  0.8425
  626MOL0     C84405   5.256   9.174   5.414 -0.2806  0.0816 -0.1544
  626MOL0     O84406   5.376   9.215   5.469  0.9073  0.4311 -0.8158
  626MOL0     C84407   5.492   9.212   5.391  0.2950 -0.1070  0.4498
  626MOL0     C84408   5.582   9.316   5.428 -0.7650  0.2701  0.2094
  626MOL0     C84409   5.709   9.327   5.364  0.3980  0.2140 -0.4725
  626MOL0     C84410   5.747   9.245   5.259  0.7182 -0.0711  0.0896
  626MOL0     O84411   5.873   9.264   5.202 -0.8692  0.4276  0.0903
  626MOL0     C84412   5.919   9.174   5.103  0.1115  0.9371  0.6341
  626MOL0     C84413   6.070   9.164   5.115 -0.5816  1.3898  0.1202
  626MOL0     C84414   6.139   9.087   4.998 -0.2047  0.3137  0.1232
  626MOL0     C84415   6.290   9.082   5.019  0.5210 -0.6833  0.8360
  626MOL0     C84416   6.355   8.997   4.909  0.1104  0.5505  0.4675
  626MOL0     C84417   6.505   8.996   4.918  0.2656 -0.2290  0.9103
  626MOL0     C84418   6.568   8.882   4.846 -0.0212 -0.1420 -0.1258
  626MOL0     C84419   6.722   8.888   4.849  0.3372 -0.4204  0.1349
  626MOL0    Cl84420   6.795   8.742   4.763  0.0630  0.3127 -0.8031
  626MOL0     C84421   5.649   9.156   5.210 -0.5684  0.1539 -0.2333
  626MOL0     C84422   5.532   9.130   5.279 -0.0422  0.0662 -0.6028
  626MOL0     O84423   5.251   9.100   5.317  0.1031  0.1931  0.2991
  626MOL0     C84424   5.009   9.196   5.378 -0.2136 -0.9168  0.1235
  626MOL0     C84425   4.878   9.197   5.424 -0.2968 -0.1456 -0.1859
  626MOL0     N84426   4.257   9.561   5.758  0.1595  0.4515 -0.2504
  626MOL0     N84427   4.228   9.663   5.681  0.8289  0.0786  0.0035
  626MOL0     C84428   5.211   9.590   4.957  0.8697 -0.2654 -0.0263
  626MOL0     C84429   5.345   9.557   4.916 -0.3145 -0.2327  0.2089
  626MOL0     C84430   5.785   9.505   4.871  0.2698  0.1758 -0.0078
  626MOL0     C84431   5.852   9.492   4.994  0.2074 -0.4789  0.4845
  626MOL0     C84432   5.989   9.527   5.003 -0.1830  0.5089 -0.4316
  626MOL0     C84433   6.063   9.549   4.890 -0.7456 -0.9581  0.3489
  626MOL0     O84434   6.198   9.583   4.886  0.6613 -0.6539 -0.5202
  626MOL0     C84435   6.285   9.482   4.835  0.1844 -0.7162  0.1283
  626MOL0     C84436   6.411   9.477   4.922 -0.2007 -0.5522  1.1172
  626MOL0     C84437   6.516   9.585   4.890  0.8674  0.0767 -0.2904
  626MOL0     C84438   6.640   9.550   4.979  0.0253 -0.4960 -0.4451
  626MOL0     C84439   6.749   9.635   4.943  0.0296 -0.0485  1.0367
  626MOL0     C84440   6.842   9.708   4.915  0.4836  0.2372 -0.9871
  626MOL0     C84441   5.998   9.556   4.766  0.5303  0.0696  0.1044
  626MOL0     C84442   5.859   9.529   4.760  0.1603  0.6526 -0.0026
  626MOL0     H84443   5.422   9.361   5.197 -1.0132 -1.7087 -0.5656
  626MOL0     H84444   5.184   9.398   5.238 -0.2836 -1.9416 -0.8238
  626MOL0     H84445   4.982   9.503   5.295 -0.6646  0.3466  1.1706
  626MOL0     H84446   5.067   9.665   5.272  2.2263 -1.5530 -1.1757
  626MOL0     H84447   4.859   9.716   5.339  2.5838 -2.5955  0.9806
  626MOL0     H84448   4.832   9.747   5.170 -2.6962  1.8336  2.4145
  626MOL0     H84449   4.748   9.502   5.148  1.5509  0.6520 -0.4626
  626MOL0     H84450   4.736   9.497   5.326 -2.2708 -0.4002 -0.6973
  626MOL0     H84451   4.607   9.724   5.315 -1.7038 -0.9585  1.1514
  626MOL0     H84452   4.593   9.698   5.145  1.8645  0.1043  0.2403
  626MOL0     H84453   4.492   9.462   5.222 -0.5479  0.6374 -0.7978
  626MOL0     H84454   4.486   9.529   5.381 -2.1313  0.5308 -0.2558
  626MOL0     H84455   4.356   9.656   5.140  2.2062 -1.3809  0.2573
  626MOL0     H84456   4.258   9.540   5.239  0.6856 -0.6929  0.6256
  626MOL0     H84457   4.394   9.751   5.394  0.7368  1.9934 -0.7893
  626MOL0     H84458   4.280   9.816   5.279 -0.9128 -2.0001 -3.3053
  626MOL0     H84459   4.112   9.645   5.362 -0.3630  0.5360  0.6348
  626MOL0     H84460   4.150   9.785   5.459 -0.7147 -0.2711 -0.5580
  626MOL0     H84461   4.304   9.431   5.462  0.2505  1.2303 -0.4415
  626MOL0     H84462   4.290   9.284   5.821 -2.8884 -0.2991 -0.5379
  626MOL0     H84463   4.281   9.240   5.650 -2.0812  1.7039 -0.8921
  626MOL0     H84464   4.490   9.369   5.817 -2.1209 -1.8814  1.9208
  626MOL0     H84465   4.517   9.370   5.646  5.4764 -0.9086  1.0793
  626MOL0     H84466   4.498   9.118   5.649 -0.0101  0.3704 -0.4174
  626MOL0     H84467   4.487   9.122   5.821 -0.6327 -2.0117 -1.0437
  626MOL0     H84468   4.738   9.102   5.757 -4.0789 -2.9476 -2.5845
  626MOL0     H84469   4.698   9.271   5.801  1.7160 -2.6633  1.6695
  626MOL0     H84470   4.923   9.257   5.755  1.0731 -2.4489  1.2405
  626MOL0     H84471   5.261   9.193   5.723 -1.9831 -1.9546 -0.4980
  626MOL0     H84472   5.255   9.356   5.643  0.1940  0.1429  0.5294
  626MOL0     H84473   5.166   9.319   5.790 -0.9769  0.7789 -0.5699
  626MOL0     H84474   5.558   9.373   5.517 -0.3071  2.0646 -0.7754
  626MOL0     H84475   5.780   9.403   5.394  2.2594 -2.9100  4.1032
  626MOL0     H84476   5.892   9.068   5.103  1.3229  0.6160  0.8354
  626MOL0     H84477   5.893   9.213   5.004 -2.8602  0.2269  1.0411
  626MOL0     H84478   6.104   9.267   5.127 -0.5839  1.4897 -0.6886
  626MOL0     H84479   6.092   9.116   5.211 -0.9335  1.6384  0.3297
  626MOL0     H84480   6.125   9.142   4.905 -0.2623 -1.7764 -1.1881
  626MOL0     H84481   6.091   8.988   4.993 -2.0193  1.1625  0.1422
  626MOL0     H84482   6.317   9.188   5.015 -0.7726 -0.3736 -0.8859
  626MOL0     H84483   6.311   9.037   5.117  2.2664 -0.1855  0.7190
  626MOL0     H84484   6.327   9.014   4.804  1.1323 -3.2544 -0.5548
  626MOL0     H84485   6.329   8.894   4.933  2.1703  0.1473  1.1506
  626MOL0     H84486   6.544   9.086   4.870 -1.8783 -1.0102 -2.6137
  626MOL0     H84487   6.530   8.991   5.024 -0.4631  1.1403  1.1679
  626MOL0     H84488   6.531   8.879   4.743 -0.8379  0.5070  0.1394
  626MOL0     H84489   6.537   8.790   4.896  0.0114 -0.9175 -1.5011
  626MOL0     H84490   6.743   8.882   4.956  0.8280 -0.7576  0.0248
  626MOL0     H84491   6.775   8.977   4.815  0.9423  0.0795  2.2407
  626MOL0     H84492   5.668   9.098   5.120  1.2549 -0.5597  0.5461
  626MOL0     H84493   5.458   9.059   5.244 -1.7773  0.5828  1.7401
  626MOL0     H84494   5.031   9.162   5.277  2.5010 -1.5840  0.8758
  626MOL0     H84495   4.794   9.183   5.357  0.3825 -2.7024 -0.5760
  626MOL0     H84496   5.148   9.633   4.880  4.0441  3.7817 -0.7589
  626MOL0     H84497   5.399   9.604   4.834 -0.9043  0.7118  0.3461
  626MOL0     H84498   5.803   9.468   5.088 -0.8173  0.3688  0.1824
  626MOL0     H84499   6.059   9.530   5.085  1.3772  2.1866 -1.7609
  626MOL0     H84500   6.235   9.385   4.838 -0.8607 -0.1886  0.3544
  626MOL0     H84501   6.311   9.508   4.732 -0.8648 -1.7541 -0.4149
  626MOL0     H84502   6.462   9.383   4.897 -1.2927 -0.3826 -2.3228
  626MOL0     H84503   6.398   9.477   5.030 -0.5783  0.7698  1.0912
  626MOL0     H84504   6.475   9.672   4.942  0.9733 -2.5112  4.8652
  626MOL0     H84505   6.521   9.607   4.783  2.7673  1.9260  0.1156
  626MOL0     H84506   6.675   9.451   4.947  0.5069 -0.4187 -0.1644
  626MOL0     H84507   6.619   9.549   5.086 -3.7982  0.5626 -1.0583
  626MOL0     H84508   6.933   9.764   4.906  0.2255  1.2117  1.5184
  626MOL0     H84509   6.061   9.572   4.679 -1.4769 -2.7362 -2.0333
  626MOL0     H84510   5.819   9.532   4.659  0.8874  2.6238 -0.2692
  627MOL0     O84511   6.337   8.978   2.319 -0.9858 -0.6373 -0.3857
  627MOL0     C84512   6.412   8.952   2.413 -0.6763  0.1486  0.7961
  627MOL0     O84513   6.534   9.007   2.431 -0.9176  0.1001 -1.6182
  627MOL0     C84514   6.576   9.109   2.354 -0.0085  0.5621 -0.0994
  627MOL0     C84515   6.505   9.232   2.347 -0.0266  0.5417  0.6914
  627MOL0     C84516   6.544   9.337   2.264  0.1653 -0.5996 -0.0274
  627MOL0     C84517   6.661   9.329   2.186  0.6197  0.0894  0.0375
  627MOL0     O84518   6.704   9.436   2.107  0.4624 -0.4831  0.8243
  627MOL0     C84519   6.608   9.521   2.036  1.0217  0.2258 -0.6320
  627MOL0     C84520   6.635   9.505   1.889  0.3852 -0.4028  0.0974
  627MOL0     C84521   6.573   9.614   1.794 -0.6399  0.6907 -0.3019
  627MOL0     C84522   6.563   9.543   1.655  0.3528  0.5953 -0.6803
  627MOL0     C84523   6.500   9.631   1.547 -0.8074  0.3027 -0.3460
  627MOL0     C84524   6.478   9.561   1.410 -0.0563  0.5809  0.7921
  627MOL0     C84525   6.600   9.484   1.353 -0.8087 -1.3244  0.4852
  627MOL0     C84526   6.699   9.592   1.292  0.8995  0.5441 -0.0836
  627MOL0     N84527   6.829   9.527   1.290 -0.8792 -0.2126  0.5884
  627MOL0     C84528   6.850   9.427   1.201 -0.8674  0.3346 -0.4815
  627MOL0     C84529   6.986   9.416   1.196 -0.3540 -0.7323 -0.5484
  627MOL0     C84530   7.080   9.309   1.134  0.8955 -0.1335 -0.4527
  627MOL0     C84531   7.138   9.362   1.009  1.0131 -0.2720 -1.0428
  627MOL0     C84532   7.028   9.394   0.903 -0.3541 -0.5396 -0.2742
  627MOL0     C84533   7.094   9.398   0.759  0.6555  0.3329  0.2104
  627MOL0     O84534   7.027   9.478   0.666 -0.2146  0.1094  0.4577
  627MOL0     C84535   6.899   9.447   0.629 -0.4619 -0.1511 -0.1433
  627MOL0     C84536   6.836   9.323   0.659 -0.2083 -0.5194 -0.3939
  627MOL0     C84537   6.702   9.303   0.631 -0.5269  0.9758 -0.0092
  627MOL0     C84538   6.650   9.160   0.663 -0.9749  0.9556  0.1321
  627MOL0     C84539   6.630   9.404   0.565  0.2847  0.9261 -0.1936
  627MOL0     C84540   6.484   9.390   0.524 -0.0536  0.5878  0.4566
  627MOL0     O84541   6.437   9.485   0.448 -1.2876 -0.5191 -0.5019
  627MOL0     C84542   6.305   9.498   0.443 -1.2568 -0.4233 -0.0159
  627MOL0     C84543   6.237   9.609   0.501 -0.5948 -0.0105 -0.5456
  627MOL0     C84544   6.109   9.644   0.466  0.4356  0.0937 -0.6247
  627MOL0     C84545   6.039   9.564   0.373 -0.6709 -0.2688 -0.2306
  627MOL0     O84546   5.906   9.589   0.335  0.3630  0.3530  0.1557
  627MOL0     C84547   5.833   9.706   0.378  0.6026 -0.0458  0.2194
  627MOL0     C84548   5.689   9.674   0.340  0.7566 -1.1147  0.3156
  627MOL0     C84549   5.587   9.782   0.370  0.3094  0.4747 -0.0440
  627MOL0     C84550   5.451   9.719   0.402  0.4410  0.1451  0.1235
  627MOL0     C84551   5.354   9.832   0.443  0.5001  0.8106  0.6729
  627MOL0     C84552   5.224   9.766   0.506 -0.3011 -0.5516  0.0086
  627MOL0     C84553   5.148   9.867   0.585  0.5693 -0.5936  0.1386
  627MOL0     C84554   5.130  10.002   0.519  0.5622  0.5882 -0.5156
  627MOL0    Cl84555   5.030   9.976   0.362  0.4492 -0.3801 -0.2117
  627MOL0     C84556   6.103   9.455   0.314 -0.2033  0.6078 -0.2260
  627MOL0     C84557   6.239   9.420   0.349 -0.4163  0.2810  0.3323
  627MOL0     O84558   6.421   9.305   0.581 -0.4806  0.5272 -0.3116
  627MOL0     C84559   6.690   9.521   0.535  0.3182 -0.1149 -0.8034
  627MOL0     C84560   6.823   9.546   0.571 -0.8508 -0.2249  0.4272
  627MOL0     N84561   7.040   9.520   1.283 -0.2631 -0.8704  0.9184
  627MOL0     N84562   6.946   9.588   1.335  0.4143  1.0473  0.5963
  627MOL0     C84563   6.738   9.222   2.210 -0.6028  1.0993  0.6177
  627MOL0     C84564   6.701   9.108   2.287  0.7822  0.4544 -0.2106
  627MOL0     C84565   6.364   8.838   2.498  0.1394 -0.0807  0.0890
  627MOL0     C84566   6.456   8.765   2.578 -0.2738  0.1795 -0.2962
  627MOL0     C84567   6.401   8.654   2.652 -0.2088 -0.2210  0.4940
  627MOL0     C84568   6.265   8.612   2.648  0.0840 -0.5229 -0.4757
  627MOL0     O84569   6.229   8.508   2.727 -0.8237 -0.1051 -0.2913
  627MOL0     C84570   6.141   8.419   2.668  0.1155 -0.1867 -0.0138
  627MOL0     C84571   6.121   8.286   2.743  0.3933  0.3245  1.2899
  627MOL0     C84572   5.982   8.293   2.818 -0.7184  0.4016 -0.2441
  627MOL0     C84573   5.988   8.368   2.949 -0.0859 -0.5009  0.3731
  627MOL0     C84574   6.056   8.287   3.045 -0.2472  0.2201  0.2920
  627MOL0     C84575   6.120   8.228   3.126 -0.3601 -0.3415 -0.5565
  627MOL0     C84576   6.177   8.685   2.567  0.6016 -0.3238  0.0850
  627MOL0     C84577   6.229   8.797   2.495  0.0521  0.6870 -0.0189
  627MOL0     H84578   6.410   9.238   2.398 -0.4594 -0.0755 -0.0152
  627MOL0     H84579   6.490   9.430   2.256  1.3953  0.1219 -0.1924
  627MOL0     H84580   6.501   9.499   2.047  0.7018  1.6945 -0.6137
  627MOL0     H84581   6.636   9.624   2.061  2.3236  0.0633 -1.3511
  627MOL0     H84582   6.744   9.510   1.877  0.5839  0.6348  1.9349
  627MOL0     H84583   6.605   9.403   1.863 -0.0419  0.2756 -2.2505
  627MOL0     H84584   6.477   9.659   1.824  0.3152  2.0817  0.7905
  627MOL0     H84585   6.643   9.696   1.776  0.5975 -0.8897 -3.1601
  627MOL0     H84586   6.664   9.509   1.630  0.7153  0.9394  0.2603
  627MOL0     H84587   6.498   9.455   1.663 -2.1439  2.4448  1.0102
  627MOL0     H84588   6.409   9.681   1.582 -1.0406 -1.2826  1.4686
  627MOL0     H84589   6.581   9.703   1.531 -0.5630  0.4077  1.2351
  627MOL0     H84590   6.400   9.486   1.430  0.9704 -0.0579  2.6296
  627MOL0     H84591   6.444   9.626   1.329 -0.4622 -0.6667 -0.0822
  627MOL0     H84592   6.656   9.428   1.428 -0.6461  0.5293  1.8086
  627MOL0     H84593   6.561   9.418   1.275  2.0128 -2.0539 -0.4070
  627MOL0     H84594   6.704   9.686   1.348  2.2795 -1.1543  2.8312
  627MOL0     H84595   6.666   9.630   1.194 -0.4139  0.0564  0.1474
  627MOL0     H84596   6.776   9.355   1.169 -0.6631  1.0228 -2.6723
  627MOL0     H84597   7.160   9.287   1.206  2.3486 -1.6168 -2.4041
  627MOL0     H84598   7.030   9.213   1.122  0.5732  0.0511 -0.5816
  627MOL0     H84599   7.217   9.296   0.972  1.4456 -0.5586  0.3281
  627MOL0     H84600   7.183   9.456   1.042  3.2152 -1.1348 -1.4164
  627MOL0     H84601   6.996   9.497   0.926  1.7641  0.0090  0.4940
  627MOL0     H84602   6.954   9.315   0.910 -1.6444  0.6873  0.4463
  627MOL0     H84603   7.096   9.294   0.724 -1.8972  0.1432  0.4181
  627MOL0     H84604   7.197   9.433   0.764  0.8457 -0.3418  1.6446
  627MOL0     H84605   6.884   9.240   0.710 -0.4020  0.5408  1.6506
  627MOL0     H84606   6.585   9.169   0.751 -1.6475 -0.4106 -0.2054
  627MOL0     H84607   6.592   9.120   0.580  1.1853 -1.2155 -0.4340
  627MOL0     H84608   6.720   9.079   0.681  0.5347  1.8061 -1.6512
  627MOL0     H84609   6.288   9.649   0.589 -1.6343 -1.6691  0.8721
  627MOL0     H84610   6.057   9.723   0.520 -2.0604 -0.8050 -1.5314
  627MOL0     H84611   5.840   9.731   0.484  2.2883  0.4103  0.0277
  627MOL0     H84612   5.873   9.791   0.323  0.0059 -0.3171 -0.6538
  627MOL0     H84613   5.693   9.655   0.232  2.4050  0.3606  0.0791
  627MOL0     H84614   5.657   9.580   0.385 -2.6775  1.4061  3.7898
  627MOL0     H84615   5.578   9.848   0.284 -1.0621 -0.8007 -0.9449
  627MOL0     H84616   5.617   9.849   0.451  3.1559 -0.7572  0.0298
  627MOL0     H84617   5.407   9.672   0.314 -0.4028  2.5259 -0.8183
  627MOL0     H84618   5.468   9.655   0.488  1.0878  1.3584  0.9336
  627MOL0     H84619   5.325   9.878   0.348 -0.9277 -1.9758 -0.3624
  627MOL0     H84620   5.404   9.905   0.507  0.2581  1.0172  0.6317
  627MOL0     H84621   5.158   9.729   0.428 -0.2335 -1.6316  0.4419
  627MOL0     H84622   5.254   9.682   0.570 -0.7745  1.6059  3.3367
  627MOL0     H84623   5.195   9.894   0.679 -2.2592 -3.0718  2.4572
  627MOL0     H84624   5.048   9.827   0.604 -0.4707  0.0868 -3.1525
  627MOL0     H84625   5.226  10.045   0.492 -0.0655  2.0728 -0.4451
  627MOL0     H84626   5.084  10.072   0.589  1.4459 -0.4305  1.1582
  627MOL0     H84627   6.045   9.388   0.252  2.3714 -1.0158 -1.0208
  627MOL0     H84628   6.298   9.348   0.294 -0.9064  1.6756 -2.1835
  627MOL0     H84629   6.633   9.602   0.490 -1.2388 -1.0834 -0.6793
  627MOL0     H84630   6.877   9.639   0.554  1.0322 -1.5381 -1.3260
  627MOL0     H84631   6.840   9.241   2.178 -0.4742 -0.3327  0.1593
  627MOL0     H84632   6.768   9.023   2.293  1.1088  0.1642 -4.4635
  627MOL0     H84633   6.560   8.788   2.600  0.2534  0.2390 -2.5883
  627MOL0     H84634   6.471   8.611   2.723 -0.9458  0.4092  1.6380
  627MOL0     H84635   6.045   8.468   2.651  1.2186  2.2083  0.3846
  627MOL0     H84636   6.185   8.391   2.572  1.5378 -1.9348  1.0709
  627MOL0     H84637   6.200   8.269   2.817 -0.5692  2.1268  2.8088
  627MOL0     H84638   6.109   8.200   2.676  2.4752  0.4870  0.6185
  627MOL0     H84639   5.951   8.193   2.849  0.0900 -0.4094 -1.9317
  627MOL0     H84640   5.900   8.332   2.758 -2.3047 -0.6581  1.1735
  627MOL0     H84641   5.892   8.389   2.997  0.5844  0.7392  1.2372
  627MOL0     H84642   6.046   8.459   2.933 -3.3864  1.7592  0.4379
  627MOL0     H84643   6.168   8.186   3.213 -3.6353 -0.5955  1.2980
  627MOL0     H84644   6.071   8.663   2.574  0.7876 -0.9373  1.1700
  627MOL0     H84645   6.148   8.859   2.457  1.1972  1.5145 -1.1914
  628MOL0     O84646   4.090   3.469   1.473 -0.0405 -0.4030 -0.3923
  628MOL0     C84647   4.042   3.580   1.450 -0.1199  0.1229  0.3878
  628MOL0     O84648   3.910   3.612   1.430  0.0230 -0.2768  0.7651
  628MOL0     C84649   3.820   3.509   1.412  0.5245 -0.6759 -0.2164
  628MOL0     C84650   3.806   3.399   1.489 -0.6890 -0.0140 -0.6727
  628MOL0     C84651   3.703   3.305   1.470 -0.3402 -0.6733 -0.4871
  628MOL0     C84652   3.622   3.318   1.355  0.6247  0.4837 -0.0112
  628MOL0     O84653   3.519   3.229   1.351 -0.0493  0.5717  0.1214
  628MOL0     C84654   3.419   3.247   1.246 -0.5721  0.8374 -0.0708
  628MOL0     C84655   3.323   3.133   1.251  0.4179  0.2526 -0.0618
  628MOL0     C84656   3.194   3.163   1.163 -0.6748 -0.7737  0.3288
  628MOL0     C84657   3.087   3.051   1.166 -0.4052 -0.1147 -0.3893
  628MOL0     C84658   2.965   3.082   1.071 -0.3487 -0.5213 -1.0353
  628MOL0     C84659   3.012   3.082   0.925 -0.1084 -0.3031 -0.2321
  628MOL0     C84660   2.890   3.056   0.837  0.8750  0.5936 -0.3650
  628MOL0     C84661   2.929   3.029   0.692 -0.6941 -0.4352  1.1888
  628MOL0     N84662   2.812   3.009   0.609  0.6112 -0.1104 -0.3193
  628MOL0     C84663   2.750   3.097   0.523  0.0785  0.3906  0.0109
  628MOL0     C84664   2.638   3.028   0.483 -0.1745  0.3072  0.2130
  628MOL0     C84665   2.541   3.069   0.379 -0.1018  1.1057 -0.4560
  628MOL0     C84666   2.409   3.135   0.427 -0.3818 -0.2510  0.3422
  628MOL0     C84667   2.333   3.187   0.304  0.4410  0.4734  0.9746
  628MOL0     C84668   2.209   3.264   0.345 -0.2027  0.0130 -0.1561
  628MOL0     O84669   2.170   3.342   0.234  0.0601  0.2955 -0.2296
  628MOL0     C84670   2.040   3.350   0.177 -0.5577 -0.2970 -0.8972
  628MOL0     C84671   1.971   3.475   0.179  1.5321  0.4520  0.4754
  628MOL0     C84672   1.845   3.503   0.114  0.0319  0.6843 -0.1310
  628MOL0     C84673   1.780   3.642   0.117  0.2480  0.9454  0.5538
  628MOL0     C84674   1.798   3.382   0.045 -0.0032  0.4656 -1.7162
  628MOL0     C84675   1.675   3.389  -0.027  0.4648  0.2157  0.0730
  628MOL0     O84676   1.661   3.309  -0.134  0.1524  0.0233 -0.4004
  628MOL0     C84677   1.541   3.288  -0.187  1.1486  0.5438  0.0285
  628MOL0     C84678   1.489   3.372  -0.284 -0.3459  0.5355  0.7364
  628MOL0     C84679   1.368   3.344  -0.339 -0.3910  0.6471  0.4652
  628MOL0     C84680   1.285   3.244  -0.286  1.5423 -0.0573  0.1041
  628MOL0     O84681   1.166   3.229  -0.349 -0.6372 -0.1366 -0.2691
  628MOL0     C84682   1.064   3.149  -0.297 -0.0893 -0.6881  0.8742
  628MOL0     C84683   0.929   3.205  -0.345 -0.1043 -0.2292 -0.3507
  628MOL0     C84684   0.909   3.199  -0.490 -0.5238 -0.0678  0.0600
  628MOL0     C84685   0.760   3.239  -0.501  0.1674  0.3333 -0.8731
  628MOL0     C84686   0.722   3.272  -0.653 -0.2812  0.1665 -1.0602
  628MOL0     C84687   0.751   3.174  -0.767 -0.3308 -0.1353  1.2085
  628MOL0     C84688   0.681   3.220  -0.899  0.3571  0.4807  0.3108
  628MOL0     C84689   0.713   3.361  -0.940  0.1991 -0.6251  0.6142
  628MOL0    Cl84690   0.889   3.373  -1.004  0.0326 -0.0052 -0.1171
  628MOL0     C84691   1.332   3.158  -0.187 -0.0246  0.4023 -0.1832
  628MOL0     C84692   1.459   3.183  -0.138 -0.2257  0.3441  0.4977
  628MOL0     O84693   1.584   3.444   0.025 -0.5766  0.1403 -0.7026
  628MOL0     C84694   1.866   3.260   0.043 -0.4632  0.7186  0.5352
  628MOL0     C84695   1.983   3.244   0.109  0.0579 -0.0378 -0.8566
  628MOL0     N84696   2.623   2.905   0.540  0.1847 -0.0677 -0.1183
  628MOL0     N84697   2.734   2.897   0.611 -0.5825 -0.6970 -0.2833
  628MOL0     C84698   3.640   3.431   1.277 -0.6052 -0.3761  0.4902
  628MOL0     C84699   3.736   3.527   1.300 -0.6217  0.2401  0.8053
  628MOL0     C84700   4.132   3.702   1.461  0.7840  0.6765 -0.1480
  628MOL0     C84701   4.264   3.696   1.496 -0.3074  0.2691 -0.7094
  628MOL0     C84702   4.339   3.817   1.515 -0.7289  1.0820 -0.0735
  628MOL0     C84703   4.289   3.944   1.483 -1.5824  0.1883 -0.1088
  628MOL0     O84704   4.368   4.056   1.468 -0.0426 -0.3568  0.7867
  628MOL0     C84705   4.321   4.178   1.406 -0.3073  0.3311  0.3913
  628MOL0     C84706   4.434   4.275   1.395  0.2360  0.4193 -0.6029
  628MOL0     C84707   4.557   4.231   1.309 -0.4643  0.2556 -0.0719
  628MOL0     C84708   4.519   4.153   1.181 -0.0481 -0.5590  0.4859
  628MOL0     C84709   4.641   4.079   1.149  0.3616  0.7523  1.0391
  628MOL0     C84710   4.729   4.008   1.118 -0.3229 -0.1162  0.7025
  628MOL0     C84711   4.151   3.942   1.445  0.3273 -0.9093  0.6320
  628MOL0     C84712   4.077   3.827   1.432 -0.3035 -0.1696  0.0048
  628MOL0     H84713   3.862   3.374   1.578  0.7059 -2.4861 -2.1570
  628MOL0     H84714   3.672   3.217   1.525 -1.0319  1.1101  2.1564
  628MOL0     H84715   3.365   3.340   1.266 -0.3241  1.3075 -1.5078
  628MOL0     H84716   3.466   3.240   1.148 -1.6930  0.5829 -0.6022
  628MOL0     H84717   3.368   3.041   1.213  1.1675  1.2679 -1.7756
  628MOL0     H84718   3.290   3.123   1.355  0.6945  1.0215  0.1068
  628MOL0     H84719   3.151   3.262   1.179 -0.1776 -0.5147  0.0599
  628MOL0     H84720   3.224   3.160   1.058 -1.2750  1.1272  0.0625
  628MOL0     H84721   3.131   2.955   1.138 -0.2210 -0.6442  1.5154
  628MOL0     H84722   3.044   3.037   1.266  2.6597  0.0254  1.0732
  628MOL0     H84723   2.885   3.007   1.076 -0.6760 -0.4653 -3.8013
  628MOL0     H84724   2.921   3.179   1.093  0.6381 -0.3864  0.5209
  628MOL0     H84725   3.044   3.178   0.885 -2.4127  0.1771 -1.0774
  628MOL0     H84726   3.089   3.006   0.912 -1.2112 -1.9676  2.1027
  628MOL0     H84727   2.829   2.974   0.876 -1.1839  2.9280  1.6645
  628MOL0     H84728   2.820   3.140   0.841 -1.2314 -1.1233  2.0891
  628MOL0     H84729   2.998   2.945   0.681 -1.0116 -0.4879 -0.7463
  628MOL0     H84730   2.975   3.124   0.666 -0.7320  0.2462  3.3541
  628MOL0     H84731   2.791   3.192   0.489  2.2115 -0.3523  0.3407
  628MOL0     H84732   2.596   3.121   0.301  1.1009 -0.0290 -0.3999
  628MOL0     H84733   2.506   2.975   0.334 -2.5611  0.7863  1.8648
  628MOL0     H84734   2.427   3.220   0.494  2.3503  1.3104 -2.1048
  628MOL0     H84735   2.354   3.055   0.478 -1.4918  1.4501  1.9411
  628MOL0     H84736   2.308   3.103   0.238  0.3795 -0.2707  1.9311
  628MOL0     H84737   2.388   3.268   0.256 -2.0128  1.5875 -0.1350
  628MOL0     H84738   2.238   3.325   0.432  1.2871 -0.5503 -0.2309
  628MOL0     H84739   2.126   3.200   0.375 -0.7873 -0.2135 -2.1520
  628MOL0     H84740   2.016   3.553   0.240  1.8984  0.6123  0.0053
  628MOL0     H84741   1.709   3.641   0.200 -0.8309  0.0106 -0.3476
  628MOL0     H84742   1.854   3.721   0.135 -0.0087  1.6955 -1.3701
  628MOL0     H84743   1.724   3.657   0.024 -2.7424 -2.1505  1.6686
  628MOL0     H84744   1.545   3.461  -0.308  1.7190 -0.8905  0.0214
  628MOL0     H84745   1.332   3.397  -0.427  1.2622  0.0649 -0.6189
  628MOL0     H84746   1.084   3.048  -0.335  0.5104 -0.8610  1.6259
  628MOL0     H84747   1.056   3.123  -0.191 -0.4363 -2.5275  0.4271
  628MOL0     H84748   0.848   3.156  -0.290  1.3511  0.9352  3.1100
  628MOL0     H84749   0.924   3.312  -0.325  0.1958 -0.4764  1.1646
  628MOL0     H84750   0.933   3.102  -0.534  0.5291 -1.4029  3.3311
  628MOL0     H84751   0.984   3.263  -0.539 -0.1622 -1.9295 -1.9463
  628MOL0     H84752   0.704   3.154  -0.463  1.8828  0.6854  2.9036
  628MOL0     H84753   0.727   3.315  -0.430  1.5392  0.5076 -0.3840
  628MOL0     H84754   0.784   3.360  -0.675  1.9118 -0.8068  0.8594
  628MOL0     H84755   0.617   3.303  -0.660  0.2921  2.9566  0.7575
  628MOL0     H84756   0.858   3.184  -0.787 -0.8209  5.4280 -0.2025
  628MOL0     H84757   0.729   3.071  -0.735  0.3544 -0.1154  1.7889
  628MOL0     H84758   0.573   3.213  -0.884  0.2562  0.2223 -0.4709
  628MOL0     H84759   0.699   3.153  -0.984 -2.7189 -0.1979  0.0807
  628MOL0     H84760   0.689   3.434  -0.862  0.1163 -1.1361  1.0711
  628MOL0     H84761   0.645   3.394  -1.019  0.1659 -0.1697  0.8275
  628MOL0     H84762   1.277   3.075  -0.144 -0.9860  1.7145  1.2715
  628MOL0     H84763   1.486   3.120  -0.053 -2.7031 -1.7116 -0.1140
  628MOL0     H84764   1.824   3.181  -0.019 -1.3357  1.3111  0.3610
  628MOL0     H84765   2.046   3.156   0.097  0.4128 -0.0138  0.6601
  628MOL0     H84766   3.577   3.459   1.193 -1.8808 -0.5402  1.3679
  628MOL0     H84767   3.741   3.614   1.235 -1.5891  0.1391  0.5738
  628MOL0     H84768   4.322   3.604   1.505 -0.5750  0.1689  0.0844
  628MOL0     H84769   4.447   3.810   1.514 -0.8237 -1.0033  0.5426
  628MOL0     H84770   4.282   4.168   1.304 -1.0238 -1.0529  0.7696
  628MOL0     H84771   4.240   4.229   1.459  0.8907  2.0825  0.6142
  628MOL0     H84772   4.481   4.291   1.493  2.8743  0.1613 -1.7203
  628MOL0     H84773   4.402   4.370   1.353 -0.5931 -0.6111 -2.4368
  628MOL0     H84774   4.614   4.160   1.370  2.2725  2.5452  0.2580
  628MOL0     H84775   4.619   4.317   1.280  1.2873 -1.5211 -1.9588
  628MOL0     H84776   4.505   4.219   1.095  0.8352 -0.2115  0.5971
  628MOL0     H84777   4.437   4.082   1.194 -0.8174  0.1836 -0.1511
  628MOL0     H84778   4.816   3.945   1.105  0.6778  1.3873 -0.1787
  628MOL0     H84779   4.107   4.038   1.421  0.7022 -0.3043  2.2605
  628MOL0     H84780   3.978   3.837   1.389 -0.6200  0.0898  0.7826
  629MOL0     O84781   8.153   7.901   7.277 -0.9066  1.2291 -0.0470
  629MOL0     C84782   8.246   7.979   7.255  0.4125  0.4827 -0.1753
  629MOL0     O84783   8.239   8.111   7.256 -0.3635  0.2494  0.2476
  629MOL0     C84784   8.119   8.170   7.269  0.1834  0.1258 -0.0680
  629MOL0     C84785   8.011   8.149   7.180 -0.1684 -1.0029 -0.2521
  629MOL0     C84786   7.894   8.235   7.199 -0.0920 -0.1776 -0.0241
  629MOL0     C84787   7.891   8.336   7.305  0.9555  0.0341 -0.2794
  629MOL0     O84788   7.776   8.406   7.312  0.0901 -0.2690 -0.2026
  629MOL0     C84789   7.741   8.481   7.430 -0.0866  0.0039 -0.2425
  629MOL0     C84790   7.584   8.478   7.455 -0.2787 -0.7632 -0.2683
  629MOL0     C84791   7.490   8.463   7.337  0.1218 -0.9731  0.0323
  629MOL0     C84792   7.347   8.470   7.389 -0.4866 -1.4061  0.6862
  629MOL0     C84793   7.247   8.406   7.293  0.6609 -0.1441 -0.7311
  629MOL0     C84794   7.100   8.428   7.325 -0.7530 -0.7147 -0.4926
  629MOL0     C84795   7.043   8.357   7.449  0.4990  0.1364 -0.6031
  629MOL0     C84796   7.059   8.204   7.448 -0.2609 -0.4002 -0.3601
  629MOL0     N84797   7.006   8.150   7.315 -0.0460  0.6309  0.0639
  629MOL0     C84798   6.876   8.116   7.287 -0.4727  0.1682 -1.0238
  629MOL0     C84799   6.881   8.080   7.160 -0.4125  0.4923  0.1857
  629MOL0     C84800   6.775   8.039   7.064 -0.0177  0.3498  0.4472
  629MOL0     C84801   6.659   7.994   7.153  0.0191 -0.0311 -0.5009
  629MOL0     C84802   6.552   7.918   7.076 -0.0877 -0.2586 -0.9525
  629MOL0     C84803   6.460   7.835   7.176 -0.1098 -0.4474  0.1886
  629MOL0     O84804   6.413   7.934   7.279 -0.3956  0.5475  0.0222
  629MOL0     C84805   6.289   7.909   7.322  0.6064 -0.6442  0.4167
  629MOL0     C84806   6.243   7.786   7.364 -0.2094 -0.0451  0.6289
  629MOL0     C84807   6.128   7.758   7.428  0.0947 -0.9542  0.8016
  629MOL0     C84808   6.092   7.615   7.459 -0.3105 -0.0308  0.5000
  629MOL0     C84809   6.037   7.868   7.459 -0.2406  0.9731 -0.3045
  629MOL0     C84810   5.924   7.858   7.543  0.6504 -0.4908 -0.2661
  629MOL0     O84811   5.835   7.970   7.533 -0.0632  0.1518  0.2157
  629MOL0     C84812   5.715   7.955   7.589  0.8134  0.0230  0.2797
  629MOL0     C84813   5.671   8.059   7.673  0.3180 -0.4481 -0.1190
  629MOL0     C84814   5.539   8.058   7.730 -0.3442  0.7431 -0.2009
  629MOL0     C84815   5.449   7.956   7.706  0.7013  0.8004 -0.0914
  629MOL0     O84816   5.319   7.978   7.757 -0.4097 -0.2096  0.6728
  629MOL0     C84817   5.213   7.891   7.717  0.2870  0.0963 -0.3743
  629MOL0     C84818   5.080   7.929   7.786  0.6730  0.6195  0.0903
  629MOL0     C84819   4.993   8.027   7.705 -0.4362  0.2405 -0.2000
  629MOL0     C84820   4.854   8.046   7.762 -0.1037  0.4949 -0.0507
  629MOL0     C84821   4.790   8.161   7.689 -0.3100  0.2205  0.4274
  629MOL0     C84822   4.639   8.194   7.716 -0.4561  0.3289 -0.1416
  629MOL0     C84823   4.541   8.079   7.740  0.1448  0.2547  0.8854
  629MOL0     C84824   4.394   8.126   7.748 -0.1198  0.0330 -0.6720
  629MOL0    Cl84825   4.353   8.238   7.884  0.0728  0.1659  0.0261
  629MOL0     C84826   5.496   7.849   7.629 -0.5710 -0.5116 -0.5463
  629MOL0     C84827   5.626   7.846   7.571  0.5886 -1.0412  0.0644
  629MOL0     O84828   5.906   7.766   7.623 -0.2706  0.2788  0.3028
  629MOL0     C84829   6.074   7.992   7.412  0.2037 -0.4404 -1.0440
  629MOL0     C84830   6.200   8.018   7.358 -0.3392  0.3190  0.2357
  629MOL0     N84831   7.020   8.076   7.121  0.4599  0.3984 -0.0815
  629MOL0     N84832   7.090   8.125   7.213 -0.2215  0.2187 -0.9529
  629MOL0     C84833   7.999   8.354   7.383 -0.3091 -0.5276 -0.3043
  629MOL0     C84834   8.110   8.271   7.368 -0.3791  0.3803 -0.2914
  629MOL0     C84835   8.387   7.927   7.268  1.0527  0.4622  0.2846
  629MOL0     C84836   8.501   8.012   7.255  0.5656  0.2468 -0.1678
  629MOL0     C84837   8.627   7.955   7.262 -0.3431 -0.3206  1.0546
  629MOL0     C84838   8.643   7.817   7.289  0.2108  0.3927 -0.0133
  629MOL0     O84839   8.771   7.780   7.311  0.0499 -0.0797 -0.1481
  629MOL0     C84840   8.810   7.696   7.428  0.5058 -0.3322  0.6243
  629MOL0     C84841   8.960   7.721   7.467 -0.2742 -0.0186 -0.6523
  629MOL0     C84842   9.004   7.613   7.569 -0.5021 -0.1895  0.5980
  629MOL0     C84843   8.976   7.651   7.717  0.1902 -0.6819 -0.0897
  629MOL0     C84844   8.836   7.622   7.748  0.2679 -0.2481  0.1460
  629MOL0     C84845   8.714   7.588   7.770 -0.6705 -0.7143  0.7501
  629MOL0     C84846   8.536   7.730   7.305  1.0529  0.3566  0.2990
  629MOL0     C84847   8.410   7.781   7.295 -0.6273  0.5189  0.1128
  629MOL0     H84848   7.999   8.069   7.108 -1.5452 -2.2115  1.2389
  629MOL0     H84849   7.813   8.226   7.128  0.7795  0.1649 -1.0912
  629MOL0     H84850   7.793   8.439   7.516  1.4521  1.9987 -0.1151
  629MOL0     H84851   7.773   8.583   7.404  0.0935  0.7054  2.4497
  629MOL0     H84852   7.557   8.393   7.518  1.7401 -1.0557  0.2720
  629MOL0     H84853   7.544   8.557   7.520  1.0243 -1.1716  1.1040
  629MOL0     H84854   7.510   8.554   7.278 -0.3236  0.8374  2.5193
  629MOL0     H84855   7.516   8.374   7.279 -1.3307 -2.5930  1.7593
  629MOL0     H84856   7.348   8.431   7.491  4.0070 -2.1050  0.5787
  629MOL0     H84857   7.310   8.573   7.392 -1.0658 -1.5273 -1.1527
  629MOL0     H84858   7.251   8.465   7.201  0.9373  4.6833  2.0785
  629MOL0     H84859   7.274   8.302   7.271 -0.0668 -0.4919 -0.0034
  629MOL0     H84860   7.092   8.536   7.337 -0.1569 -0.9432  2.7206
  629MOL0     H84861   7.040   8.388   7.242 -2.7812 -2.7981  1.8280
  629MOL0     H84862   7.096   8.384   7.541  0.6857 -3.4244  0.4525
  629MOL0     H84863   6.938   8.387   7.464  0.2816 -0.1207 -1.5927
  629MOL0     H84864   7.011   8.157   7.534  1.7463 -2.3098 -0.1867
  629MOL0     H84865   7.163   8.172   7.445 -0.0016  0.4762 -2.1645
  629MOL0     H84866   6.789   8.116   7.352  0.3524 -0.6777  0.1360
  629MOL0     H84867   6.744   8.121   6.999  1.1265 -1.0612 -2.0112
  629MOL0     H84868   6.810   7.956   7.001 -1.5740  0.0611 -0.0906
  629MOL0     H84869   6.613   8.075   7.210  0.2003 -0.5600  0.4105
  629MOL0     H84870   6.698   7.921   7.224  1.3699 -0.1335 -1.3085
  629MOL0     H84871   6.593   7.853   6.998 -0.0863  0.8646 -1.9245
  629MOL0     H84872   6.491   7.992   7.023  1.7662  1.4566 -0.8312
  629MOL0     H84873   6.509   7.749   7.222 -0.8927 -2.0732 -1.8494
  629MOL0     H84874   6.378   7.791   7.118 -0.0383 -1.7560  1.0172
  629MOL0     H84875   6.299   7.697   7.334 -3.0758 -1.1362 -2.0615
  629MOL0     H84876   6.082   7.597   7.566 -0.4718 -1.7226  0.2292
  629MOL0     H84877   5.990   7.601   7.424 -0.7462 -0.9736  2.0729
  629MOL0     H84878   6.157   7.535   7.423  1.1603  1.2748  0.1378
  629MOL0     H84879   5.734   8.143   7.700  1.4095 -0.2151 -3.0764
  629MOL0     H84880   5.511   8.140   7.795 -1.0012  1.0702 -0.8829
  629MOL0     H84881   5.191   7.895   7.610 -0.2728  0.1729 -0.2585
  629MOL0     H84882   5.229   7.788   7.752 -1.1604 -0.0376 -0.0511
  629MOL0     H84883   5.019   7.839   7.796 -0.0810  0.8424 -1.9198
  629MOL0     H84884   5.091   7.970   7.887  0.0432  0.6122  0.1671
  629MOL0     H84885   4.985   7.989   7.603 -1.8595 -2.3289  0.7492
  629MOL0     H84886   5.051   8.119   7.694  1.3028 -0.8866 -0.7567
  629MOL0     H84887   4.794   7.955   7.750 -3.0479  2.1507  1.1284
  629MOL0     H84888   4.867   8.071   7.868 -0.7821  2.4616 -0.4000
  629MOL0     H84889   4.789   8.137   7.583  1.2842 -0.7376  0.6058
  629MOL0     H84890   4.847   8.253   7.702 -1.1339  0.6550  1.0436
  629MOL0     H84891   4.642   8.247   7.811 -0.8640 -1.0546  0.6708
  629MOL0     H84892   4.600   8.264   7.642 -0.2633  0.9247  0.3131
  629MOL0     H84893   4.581   8.028   7.828  1.3935 -0.4487 -0.0509
  629MOL0     H84894   4.557   8.007   7.659 -0.4827 -0.6895  1.5737
  629MOL0     H84895   4.331   8.038   7.766 -0.2359  0.2595  0.0694
  629MOL0     H84896   4.362   8.178   7.657 -1.6102  1.6091  0.6566
  629MOL0     H84897   5.426   7.770   7.607 -0.7592  0.2782 -3.1220
  629MOL0     H84898   5.666   7.766   7.509  3.8576 -0.4721  1.2161
  629MOL0     H84899   6.025   8.087   7.433  0.6076 -0.4156 -0.1645
  629MOL0     H84900   6.231   8.120   7.338  2.2552 -0.3400  0.5006
  629MOL0     H84901   8.004   8.435   7.454 -0.2785 -0.9693  0.1998
  629MOL0     H84902   8.205   8.289   7.417 -0.0621  1.8747 -1.4070
  629MOL0     H84903   8.489   8.119   7.243  3.7731  1.2486  3.5989
  629MOL0     H84904   8.719   8.012   7.269 -0.2990 -0.4636  1.6528
  629MOL0     H84905   8.744   7.729   7.509 -0.6686 -0.2560 -0.3200
  629MOL0     H84906   8.787   7.591   7.406 -0.6159 -0.2375  1.2745
  629MOL0     H84907   8.974   7.820   7.512 -0.9275 -0.3964  0.4263
  629MOL0     H84908   9.024   7.716   7.379  0.7511 -2.5884  0.1608
  629MOL0     H84909   9.113   7.604   7.560 -0.4353  0.0795  1.0981
  629MOL0     H84910   8.969   7.513   7.543 -1.9668  0.5780 -0.4831
  629MOL0     H84911   9.016   7.748   7.750  1.5814 -2.0640  2.5977
  629MOL0     H84912   9.028   7.584   7.786  0.3743  2.0757  2.7073
  629MOL0     H84913   8.613   7.561   7.793 -0.7482  1.7846  4.1249
  629MOL0     H84914   8.550   7.626   7.335 -0.7781 -0.0391 -0.1237
  629MOL0     H84915   8.314   7.730   7.294 -1.4400  1.9388 -2.4146
  630MOL0     O84916  10.624   8.122   9.334  0.6002  0.5007 -0.2282
  630MOL0     C84917  10.592   8.170   9.440  0.4631 -0.8754 -0.8786
  630MOL0     O84918  10.676   8.219   9.536  0.1666  0.9552  0.3818
  630MOL0     C84919  10.806   8.176   9.544  0.2288 -0.4566  0.5953
  630MOL0     C84920  10.866   8.090   9.456  0.4079 -0.1748 -0.2740
  630MOL0     C84921  10.999   8.061   9.444 -0.6179 -1.0469 -0.7799
  630MOL0     C84922  11.085   8.134   9.536 -0.6186 -0.3240  0.1933
  630MOL0     O84923  11.221   8.130   9.526 -0.6904 -0.7327 -0.9920
  630MOL0     C84924  11.280   8.019   9.463  0.3549 -0.4138 -0.5901
  630MOL0     C84925  11.432   8.014   9.506  0.1078 -0.5084  0.4242
  630MOL0     C84926  11.513   8.139   9.463 -0.2322  0.3971 -0.6667
  630MOL0     C84927  11.649   8.115   9.525  0.6016 -0.3590 -0.4280
  630MOL0     C84928  11.727   8.252   9.540  0.0813  0.1167  0.7735
  630MOL0     C84929  11.852   8.231   9.622 -0.4124 -1.3050 -0.4256
  630MOL0     C84930  11.939   8.354   9.652 -0.3631  0.7846  0.1269
  630MOL0     C84931  12.069   8.329   9.729  0.2423  0.2673  0.1519
  630MOL0     N84932  12.158   8.240   9.665 -0.6466 -0.1130  0.2278
  630MOL0     C84933  12.222   8.254   9.544  1.4501 -0.6362 -0.6545
  630MOL0     C84934  12.317   8.151   9.539 -0.4960  0.1233  0.0079
  630MOL0     C84935  12.410   8.135   9.423  0.1181 -0.4691  0.4175
  630MOL0     C84936  12.436   7.993   9.373 -1.1703 -1.0137 -1.0459
  630MOL0     C84937  12.322   7.918   9.314  0.0478  0.0824 -0.4470
  630MOL0     C84938  12.184   7.966   9.302  0.4069 -0.8008  0.3371
  630MOL0     O84939  12.155   8.030   9.172 -0.1186 -0.2302  0.5445
  630MOL0     C84940  12.027   8.050   9.127 -0.8464 -0.2726 -0.1167
  630MOL0     C84941  12.007   8.060   8.987 -0.3297 -0.5391 -1.5325
  630MOL0     C84942  11.887   8.077   8.924  0.9558 -0.3391  0.1866
  630MOL0     C84943  11.876   8.060   8.774 -0.5364 -0.2111 -0.4660
  630MOL0     C84944  11.769   8.092   9.016 -0.9519  0.0915  0.4038
  630MOL0     C84945  11.627   8.105   8.978  0.3062 -0.0426 -0.7904
  630MOL0     O84946  11.527   8.091   9.077  0.0132 -0.5537  0.9510
  630MOL0     C84947  11.398   8.090   9.041  1.1559  0.8928 -0.3124
  630MOL0     C84948  11.302   8.155   9.119 -0.6391 -0.5044  0.6105
  630MOL0     C84949  11.171   8.153   9.103  0.7570  0.3205  0.1836
  630MOL0     C84950  11.125   8.088   8.993 -0.1107  1.2202 -0.4759
  630MOL0     O84951  10.993   8.083   8.989  0.0718  1.0515  0.4627
  630MOL0     C84952  10.929   8.061   8.866 -0.6351  0.0754 -0.8760
  630MOL0     C84953  10.784   8.096   8.883  0.0822 -0.5884 -0.8154
  630MOL0     C84954  10.715   8.034   9.000 -0.0043  0.3774 -0.2925
  630MOL0     C84955  10.567   8.068   8.992  0.2552  0.6010 -0.4043
  630MOL0     C84956  10.482   7.975   8.914 -0.8125 -0.1995 -0.5186
  630MOL0     C84957  10.329   8.010   8.901 -1.2491  0.6251  0.0405
  630MOL0     C84958  10.252   8.039   9.031 -0.0432  0.4631  0.0147
  630MOL0     C84959  10.119   8.117   9.004  0.1482 -1.1980  1.0767
  630MOL0    Cl84960  10.153   8.279   8.958  0.2735  0.4401  0.1225
  630MOL0     C84961  11.212   8.016   8.906 -0.0033 -0.0894  0.6003
  630MOL0     C84962  11.357   8.018   8.931  0.2650 -0.0263 -0.1765
  630MOL0     O84963  11.603   8.109   8.860 -1.2499 -0.2303  0.1153
  630MOL0     C84964  11.798   8.102   9.153 -0.6030  0.0400  0.7847
  630MOL0     C84965  11.918   8.072   9.210 -0.9220 -0.6628 -0.3505
  630MOL0     N84966  12.305   8.073   9.651 -0.1285  0.3796  0.2447
  630MOL0     N84967  12.212   8.129   9.723 -0.3389 -0.5999  0.6625
  630MOL0     C84968  11.025   8.228   9.626  0.2603  0.1183  0.0526
  630MOL0     C84969  10.884   8.248   9.627  0.6535 -0.2137 -0.0865
  630MOL0     C84970  10.449   8.179   9.469  0.0033  0.5731  0.2214
  630MOL0     C84971  10.358   8.106   9.394  1.7662 -0.5971  0.3079
  630MOL0     C84972  10.217   8.119   9.412  0.5476 -0.5497 -1.1864
  630MOL0     C84973  10.160   8.197   9.520 -0.4629  0.9552  0.5145
  630MOL0     O84974  10.026   8.212   9.556  0.7060  0.3999 -0.2639
  630MOL0     C84975   9.927   8.134   9.488  0.8354  1.1221  0.7243
  630MOL0     C84976   9.850   8.210   9.378 -0.1362 -0.2173  0.1005
  630MOL0     C84977   9.731   8.143   9.324 -0.2022 -0.4822 -0.9909
  630MOL0     C84978   9.653   8.234   9.224 -0.5012 -0.7377  0.0695
  630MOL0     C84979   9.726   8.265   9.104  0.0503  0.3771  0.1372
  630MOL0     C84980   9.766   8.302   8.994 -0.0476  0.2606  0.1530
  630MOL0     C84981  10.254   8.269   9.599 -0.4730  0.5776 -0.1383
  630MOL0     C84982  10.393   8.267   9.570  0.3591  0.0758  0.2356
  630MOL0     H84983  10.803   8.019   9.403  1.2844 -0.2698 -1.2299
  630MOL0     H84984  11.020   7.997   9.359 -1.6023 -0.9889 -1.0846
  630MOL0     H84985  11.223   7.931   9.494 -0.7457  1.2022  2.3868
  630MOL0     H84986  11.251   8.030   9.358 -3.9695 -1.4189  0.3103
  630MOL0     H84987  11.436   8.008   9.616 -3.2310  1.8832  0.8438
  630MOL0     H84988  11.477   7.921   9.472 -1.2998 -1.9599  2.2868
  630MOL0     H84989  11.524   8.150   9.354 -0.4135 -0.6808 -0.8036
  630MOL0     H84990  11.472   8.237   9.487  3.9891  2.1407  0.3051
  630MOL0     H84991  11.651   8.075   9.626  1.2710  3.2045  1.1069
  630MOL0     H84992  11.707   8.044   9.464  2.9413  2.6246 -2.0208
  630MOL0     H84993  11.750   8.293   9.441 -2.5723 -0.4183 -0.1463
  630MOL0     H84994  11.664   8.327   9.590  0.8827  2.3606 -1.3886
  630MOL0     H84995  11.819   8.181   9.713 -2.0652 -0.5241 -0.5597
  630MOL0     H84996  11.911   8.162   9.561  1.2114  1.7132 -2.5598
  630MOL0     H84997  11.954   8.403   9.556 -0.7299 -0.2266 -0.4653
  630MOL0     H84998  11.879   8.423   9.713  1.0916  0.6827  1.7648
  630MOL0     H84999  12.048   8.296   9.831 -0.0172  1.5373  0.5209
  630MOL0     H85000  12.125   8.421   9.749  0.6966  0.0131  0.0622
  630MOL0     H85001  12.196   8.319   9.461  2.7913 -1.4688 -1.7772
  630MOL0     H85002  12.387   8.206   9.343  0.8932  0.4735  1.0058
  630MOL0     H85003  12.503   8.173   9.467 -1.4139  2.0667  1.7103
  630MOL0     H85004  12.464   7.940   9.464 -0.9608 -0.2306 -0.6430
  630MOL0     H85005  12.524   7.999   9.309 -1.0191  0.3698 -0.7437
  630MOL0     H85006  12.313   7.828   9.376 -1.1896  0.5576  0.0934
  630MOL0     H85007  12.364   7.900   9.214 -0.1891 -1.4944 -0.2877
  630MOL0     H85008  12.167   8.042   9.379  1.4926 -3.1582  3.0454
  630MOL0     H85009  12.111   7.885   9.313 -1.5637  0.5871 -1.6246
  630MOL0     H85010  12.090   8.043   8.919 -0.9535  0.4035 -2.5679
  630MOL0     H85011  11.969   8.071   8.717 -1.0637  2.1842 -0.9589
  630MOL0     H85012  11.831   7.962   8.756  1.9488 -1.6025  0.4324
  630MOL0     H85013  11.818   8.147   8.740 -1.7571  0.2910  2.6005
  630MOL0     H85014  11.344   8.213   9.201  0.4478 -3.9511  2.7021
  630MOL0     H85015  11.093   8.189   9.168  0.0142 -0.8855 -0.0135
  630MOL0     H85016  10.972   8.135   8.797 -0.9381  0.9992 -0.0968
  630MOL0     H85017  10.939   7.961   8.825 -1.8367 -0.2997 -0.3046
  630MOL0     H85018  10.782   8.205   8.898  4.5090  0.0370 -3.2473
  630MOL0     H85019  10.745   8.066   8.785  1.3445 -0.3195 -1.4107
  630MOL0     H85020  10.759   8.076   9.091  2.8329 -1.4816 -0.6669
  630MOL0     H85021  10.721   7.925   9.007 -1.1054  0.2112 -1.5501
  630MOL0     H85022  10.530   8.066   9.095  1.6485  0.7534  0.1248
  630MOL0     H85023  10.549   8.168   8.951  1.1065  0.0689 -2.1407
  630MOL0     H85024  10.494   7.876   8.959  1.1605 -0.0324 -0.5528
  630MOL0     H85025  10.510   7.968   8.808 -1.5926 -1.3677 -0.6682
  630MOL0     H85026  10.330   8.106   8.850 -1.2930  0.2768 -0.6282
  630MOL0     H85027  10.284   7.928   8.843 -0.8023  0.1759  0.3189
  630MOL0     H85028  10.315   8.103   9.092  2.7340 -0.0249 -2.1619
  630MOL0     H85029  10.225   7.948   9.087  0.6403 -0.6852 -1.4707
  630MOL0     H85030  10.065   8.128   9.099 -1.9320 -1.3352 -0.0362
  630MOL0     H85031  10.053   8.060   8.937  0.7563  1.3674 -1.9256
  630MOL0     H85032  11.175   7.954   8.825  0.7281 -0.4718  0.5508
  630MOL0     H85033  11.426   7.964   8.867  1.3799 -0.0914  1.0388
  630MOL0     H85034  11.720   8.126   9.224 -0.1003  1.4051  0.9160
  630MOL0     H85035  11.926   8.075   9.318  0.8732 -0.2357 -0.4667
  630MOL0     H85036  11.098   8.285   9.683  4.5757  0.1542 -4.7363
  630MOL0     H85037  10.850   8.314   9.706  0.6936  0.2926 -0.4850
  630MOL0     H85038  10.403   8.049   9.313  0.2460 -2.6464  0.8455
  630MOL0     H85039  10.154   8.063   9.343  0.5926 -0.0379 -1.6440
  630MOL0     H85040   9.962   8.041   9.441 -3.7862 -0.3053 -0.3861
  630MOL0     H85041   9.854   8.100   9.562 -0.9889  0.4929 -1.2698
  630MOL0     H85042   9.921   8.235   9.299 -0.7264 -2.8869 -1.3833
  630MOL0     H85043   9.815   8.300   9.430 -1.4973 -0.6621 -0.0110
  630MOL0     H85044   9.663   8.124   9.408  2.3984 -0.4544  1.2699
  630MOL0     H85045   9.757   8.041   9.294  0.2107 -1.1753  1.4794
  630MOL0     H85046   9.623   8.329   9.270  0.2883 -0.9896  1.1572
  630MOL0     H85047   9.568   8.170   9.197 -1.8484  2.1281 -3.2599
  630MOL0     H85048   9.780   8.350   8.900 -0.9666 -0.7482 -0.5367
  630MOL0     H85049  10.220   8.324   9.686  2.3317  0.1099  1.3594
  630MOL0     H85050  10.454   8.333   9.631 -0.6977  1.1890  0.1354
  631MOL0     O85051   4.967   7.335  10.567 -0.0360 -0.0814 -0.0666
  631MOL0     C85052   5.035   7.305  10.474 -0.8921  0.1665 -0.2593
  631MOL0     O85053   5.049   7.387  10.364  0.5056  0.2700  1.1270
  631MOL0     C85054   4.953   7.478  10.332 -0.5251 -0.1023 -0.0571
  631MOL0     C85055   4.815   7.477  10.377  0.2651  0.9879 -0.3802
  631MOL0     C85056   4.726   7.584  10.349 -0.4287 -0.2881 -0.4557
  631MOL0     C85057   4.781   7.697  10.288 -0.5855 -0.0421  0.6878
  631MOL0     O85058   4.722   7.815  10.283  0.1461  0.0114  0.9405
  631MOL0     C85059   4.614   7.840  10.373 -0.5182  0.6329 -0.6342
  631MOL0     C85060   4.474   7.798  10.316  0.3409 -0.8609 -0.2996
  631MOL0     C85061   4.364   7.833  10.415 -0.1298 -0.5868  0.2683
  631MOL0     C85062   4.362   7.733  10.540  0.1863  0.3822 -0.0713
  631MOL0     C85063   4.247   7.752  10.649  1.3266  0.1136 -0.9164
  631MOL0     C85064   4.091   7.705  10.617 -0.3861 -0.9857 -0.1733
  631MOL0     C85065   4.006   7.684  10.752  0.2522  0.4000 -0.3025
  631MOL0     C85066   4.063   7.585  10.856 -0.1913 -0.0506 -0.0068
  631MOL0     N85067   3.976   7.566  10.978 -0.8888 -0.1889 -0.1629
  631MOL0     C85068   3.848   7.521  10.983  1.4726  0.8234  0.3828
  631MOL0     C85069   3.813   7.514  11.110  0.2732 -0.1505 -0.2771
  631MOL0     C85070   3.686   7.449  11.152  0.5891  0.3317 -0.3195
  631MOL0     C85071   3.558   7.531  11.100 -0.1989  0.7046 -0.3932
  631MOL0     C85072   3.492   7.616  11.208  0.1774  0.0400 -1.0163
  631MOL0     C85073   3.405   7.519  11.297  0.3793  0.5440 -0.4294
  631MOL0     O85074   3.360   7.578  11.424 -0.2172 -0.1221 -0.4554
  631MOL0     C85075   3.261   7.673  11.419  0.7002 -0.2169  0.2177
  631MOL0     C85076   3.227   7.715  11.545  0.0056 -0.4015 -0.3672
  631MOL0     C85077   3.123   7.807  11.556  0.1334 -0.1956 -0.2066
  631MOL0     C85078   3.077   7.837  11.694  0.8704  0.4511 -0.6021
  631MOL0     C85079   3.054   7.864  11.447 -0.2288  0.3123 -0.2714
  631MOL0     C85080   2.934   7.954  11.460 -0.6644 -0.3297  0.0934
  631MOL0     O85081   2.899   8.006  11.580 -0.0140 -0.0396  0.3863
  631MOL0     C85082   2.782   8.081  11.580 -0.7544  0.3731 -0.0518
  631MOL0     C85083   2.668   8.040  11.656 -0.1269 -0.8010 -1.1028
  631MOL0     C85084   2.557   8.126  11.681 -1.1912  1.0480 -0.5726
  631MOL0     C85085   2.559   8.250  11.626  0.2033 -0.8896 -0.4584
  631MOL0     O85086   2.449   8.332  11.657  0.0095 -0.1836  0.5164
  631MOL0     C85087   2.415   8.435  11.556  0.7105  0.6007 -0.0955
  631MOL0     C85088   2.279   8.499  11.591 -0.1994 -0.0950  0.1270
  631MOL0     C85089   2.168   8.398  11.623 -0.6962 -0.0961  0.0193
  631MOL0     C85090   2.033   8.460  11.626  0.3328  0.2312 -0.5535
  631MOL0     C85091   1.985   8.493  11.765  0.4057 -0.3579  0.0286
  631MOL0     C85092   1.859   8.586  11.760 -0.0389 -0.1993  0.0058
  631MOL0     C85093   1.792   8.576  11.904 -0.5013 -0.7404  0.7469
  631MOL0     C85094   1.689   8.674  11.938 -0.3116  0.0330 -0.5648
  631MOL0    Cl85095   1.545   8.666  11.839  0.0806  0.3110  0.2063
  631MOL0     C85096   2.673   8.297  11.555 -0.0480  0.1128  0.2982
  631MOL0     C85097   2.781   8.214  11.524 -0.1468 -0.3033 -1.0386
  631MOL0     O85098   2.863   7.951  11.356 -0.0457  0.0533 -0.7884
  631MOL0     C85099   3.088   7.810  11.324  0.6534  0.2696 -0.1526
  631MOL0     C85100   3.192   7.714  11.309 -0.4064 -0.2651  1.0358
  631MOL0     N85101   3.926   7.546  11.182  1.2949 -0.0244  0.1897
  631MOL0     N85102   4.019   7.584  11.110 -0.2131  0.3755 -0.3582
  631MOL0     C85103   4.919   7.700  10.247  0.5140  0.0875  0.0743
  631MOL0     C85104   4.994   7.588  10.261 -0.2801 -0.2613  0.1901
  631MOL0     C85105   5.096   7.170  10.484 -0.2435  0.5911  0.4252
  631MOL0     C85106   5.188   7.129  10.383 -0.0531 -0.1567 -0.4068
  631MOL0     C85107   5.257   7.003  10.390  0.8375  0.0350  0.1583
  631MOL0     C85108   5.230   6.923  10.496  0.4015  0.6384  0.2115
  631MOL0     O85109   5.283   6.792  10.495 -0.1507  0.0365  0.1912
  631MOL0     C85110   5.424   6.784  10.526  0.7803 -0.4007 -0.0880
  631MOL0     C85111   5.468   6.634  10.509  0.6197 -0.5728 -1.0315
  631MOL0     C85112   5.432   6.585  10.367  0.1660  0.3066 -0.0261
  631MOL0     C85113   5.457   6.435  10.338 -0.6367  0.0131  0.0897
  631MOL0     C85114   5.370   6.356  10.430  0.7847 -0.5075 -0.5869
  631MOL0     C85115   5.301   6.292  10.509  0.1136  0.0657 -0.0243
  631MOL0     C85116   5.135   6.957  10.591  0.4251 -0.1555  0.5828
  631MOL0     C85117   5.057   7.070  10.574 -0.6457 -0.3062  0.0208
  631MOL0     H85118   4.791   7.385  10.430  0.4339 -0.3838 -2.5151
  631MOL0     H85119   4.625   7.580  10.387  0.5434 -1.5760  2.2707
  631MOL0     H85120   4.623   7.781  10.464 -0.9350 -0.1522 -1.0955
  631MOL0     H85121   4.607   7.946  10.399 -0.0569  0.8340 -1.2741
  631MOL0     H85122   4.467   7.849  10.220  5.7845 -2.3936 -1.8568
  631MOL0     H85123   4.470   7.690  10.301 -2.1861 -0.8320 -0.2601
  631MOL0     H85124   4.364   7.937  10.450 -1.4741 -0.9822  1.5797
  631MOL0     H85125   4.267   7.821  10.365 -2.3967 -2.9350  4.5937
  631MOL0     H85126   4.349   7.633  10.498 -2.9252  1.0946 -1.1133
  631MOL0     H85127   4.449   7.749  10.603 -1.5278 -0.5546  2.6957
  631MOL0     H85128   4.271   7.686  10.733  0.5503  0.0801 -0.7080
  631MOL0     H85129   4.239   7.857  10.676 -0.8249  0.4214 -2.5040
  631MOL0     H85130   4.035   7.765  10.544  2.3788  0.5731 -1.1807
  631MOL0     H85131   4.102   7.605  10.575  0.7648 -0.3576 -1.4599
  631MOL0     H85132   3.993   7.779  10.803  1.2490 -0.0450  0.8395
  631MOL0     H85133   3.905   7.646  10.730  0.0507 -0.9016  2.4494
  631MOL0     H85134   4.150   7.635  10.900 -1.7833  0.1871  3.1521
  631MOL0     H85135   4.078   7.482  10.821 -3.7743 -0.2880 -1.2680
  631MOL0     H85136   3.777   7.495  10.905  0.1634 -2.0346  2.3660
  631MOL0     H85137   3.673   7.348  11.112 -0.3652 -0.3656  1.6338
  631MOL0     H85138   3.688   7.427  11.259 -1.5157  0.7011 -0.1650
  631MOL0     H85139   3.484   7.454  11.076  3.1098 -2.9030  0.0598
  631MOL0     H85140   3.571   7.589  11.008  0.2553 -3.4527 -3.2302
  631MOL0     H85141   3.423   7.676  11.149 -0.4114 -0.8526 -1.2654
  631MOL0     H85142   3.564   7.673  11.267  1.0063 -0.3339 -1.6469
  631MOL0     H85143   3.467   7.436  11.330  0.9003  0.6474 -1.1148
  631MOL0     H85144   3.324   7.472  11.240 -0.6029  1.5371  0.1030
  631MOL0     H85145   3.283   7.660  11.620  0.6764 -1.8580 -1.8841
  631MOL0     H85146   2.969   7.828  11.709  0.8732 -0.1999 -0.9203
  631MOL0     H85147   3.125   7.766  11.763 -3.3370 -1.8270  0.2883
  631MOL0     H85148   3.105   7.935  11.734 -0.3251  0.4907  0.1802
  631MOL0     H85149   2.687   7.946  11.708  2.0373  0.8099  1.2762
  631MOL0     H85150   2.469   8.093  11.734 -0.1102 -0.7181  0.1998
  631MOL0     H85151   2.490   8.514  11.568  1.2732 -0.2465  2.6872
  631MOL0     H85152   2.413   8.399  11.453  1.6255 -0.1482  0.1350
  631MOL0     H85153   2.282   8.553  11.686 -2.9121 -2.1197  1.5280
  631MOL0     H85154   2.256   8.575  11.516 -0.1523  0.5629  0.7717
  631MOL0     H85155   2.189   8.328  11.704  5.7058  0.9113 -0.2285
  631MOL0     H85156   2.160   8.326  11.541 -1.5204  1.7214 -1.5796
  631MOL0     H85157   2.025   8.548  11.562  1.2384  0.2264 -0.6796
  631MOL0     H85158   1.959   8.389  11.587  0.4600  0.6903 -1.6812
  631MOL0     H85159   2.064   8.540  11.825 -0.6863  1.6501 -0.0153
  631MOL0     H85160   1.954   8.401  11.814 -3.1523  0.2235 -0.8504
  631MOL0     H85161   1.884   8.688  11.730 -2.9032  1.0236  1.4959
  631MOL0     H85162   1.792   8.548  11.683  2.9650 -1.1460 -2.3581
  631MOL0     H85163   1.856   8.577  11.993 -1.1492  1.0147  1.2463
  631MOL0     H85164   1.740   8.480  11.910 -0.0979 -1.0638 -0.7206
  631MOL0     H85165   1.727   8.777  11.947  0.0615 -0.1565  0.0916
  631MOL0     H85166   1.658   8.645  12.039  0.3865 -0.0366 -0.3631
  631MOL0     H85167   2.691   8.399  11.522  2.7048  0.0647  1.4674
  631MOL0     H85168   2.866   8.258  11.472 -0.7588  1.4722 -0.6028
  631MOL0     H85169   3.039   7.844  11.233 -0.7454 -1.1917  0.0109
  631MOL0     H85170   3.215   7.677  11.209  1.0168 -0.2951  1.3427
  631MOL0     H85171   4.955   7.795  10.209  1.8793 -0.0491  0.9406
  631MOL0     H85172   5.092   7.596  10.215  0.5984  1.1976  2.1660
  631MOL0     H85173   5.214   7.193  10.300 -1.3285  1.2800  0.2554
  631MOL0     H85174   5.334   6.977  10.318 -0.0394  0.0015 -0.7802
  631MOL0     H85175   5.476   6.851  10.456  0.1715  1.9148  1.5470
  631MOL0     H85176   5.441   6.823  10.627  2.1254  0.2833 -0.5517
  631MOL0     H85177   5.416   6.577  10.586  0.4304  2.2007  1.0333
  631MOL0     H85178   5.573   6.616  10.535  0.9958  0.4786 -1.7642
  631MOL0     H85179   5.481   6.645  10.290 -2.7811 -0.3708 -2.6455
  631MOL0     H85180   5.323   6.591  10.358  0.2364  1.2732 -0.3878
  631MOL0     H85181   5.561   6.402  10.354 -1.5692 -2.7920  0.9138
  631MOL0     H85182   5.433   6.413  10.234  0.7855  0.2578 -0.3226
  631MOL0     H85183   5.239   6.233  10.573 -0.5513 -1.2640 -1.7976
  631MOL0     H85184   5.100   6.897  10.674 -0.7467  0.9579  0.9087
  631MOL0     H85185   4.985   7.081  10.655 -0.1444  3.2034  0.1439
  632MOL0     O85186   4.233  10.933   3.862  0.3256  0.1113  0.3048
  632MOL0     C85187   4.281  10.824   3.896  0.0883  0.5844  0.9549
  632MOL0     O85188   4.216  10.711   3.922  0.0795 -0.2214  0.1693
  632MOL0     C85189   4.076  10.686   3.923 -0.4719 -0.0266 -0.3432
  632MOL0     C85190   4.050  10.568   3.988 -0.5024  0.4209  0.5978
  632MOL0     C85191   3.916  10.533   4.007  0.6372  0.3674  0.1581
  632MOL0     C85192   3.810  10.611   3.960  0.8136 -0.1319 -0.4176
  632MOL0     O85193   3.686  10.555   3.989 -0.1436 -0.0763 -0.4305
  632MOL0     C85194   3.557  10.611   3.935 -0.5200 -0.2466 -0.3698
  632MOL0     C85195   3.442  10.544   4.014 -1.7410 -0.5414 -0.4260
  632MOL0     C85196   3.437  10.396   3.999  0.2806  0.7811 -1.3663
  632MOL0     C85197   3.359  10.328   4.107 -0.2022 -0.2402  0.2483
  632MOL0     C85198   3.371  10.169   4.130  0.5141 -1.1564 -0.1273
  632MOL0     C85199   3.317  10.131   4.265  0.3580  0.0857 -0.3278
  632MOL0     C85200   3.332   9.979   4.301  0.1002  0.4887  0.2933
  632MOL0     C85201   3.284   9.952   4.446 -0.1805 -0.0682 -0.2738
  632MOL0     N85202   3.129   9.943   4.458 -0.0842 -0.1767  0.8383
  632MOL0     C85203   3.049  10.055   4.442  0.9428 -0.3942  0.3104
  632MOL0     C85204   2.922  10.012   4.424 -0.7111  0.3129 -0.3680
  632MOL0     C85205   2.800  10.096   4.441  0.3277  0.8166 -0.5391
  632MOL0     C85206   2.725  10.040   4.557 -0.1642  0.4099 -0.7186
  632MOL0     C85207   2.606  10.131   4.587  0.3697 -0.7418  0.3918
  632MOL0     C85208   2.551  10.107   4.724  0.0574  0.0239  0.7432
  632MOL0     O85209   2.462   9.992   4.714  0.6353 -0.6548 -1.0386
  632MOL0     C85210   2.357   9.979   4.812  0.0234 -0.1537  2.1334
  632MOL0     C85211   2.234   9.927   4.770 -0.2261  0.1899 -0.0213
  632MOL0     C85212   2.124   9.928   4.856 -0.1279 -0.2601 -0.0964
  632MOL0     C85213   1.997   9.852   4.817 -0.7887 -0.1848  0.2007
  632MOL0     C85214   2.143   9.962   4.995 -0.0947 -0.0473 -0.0258
  632MOL0     C85215   2.052   9.956   5.105  0.1621 -1.4622  0.4022
  632MOL0     O85216   1.933  10.019   5.075 -0.0066 -1.0116  0.1888
  632MOL0     C85217   1.810   9.974   5.121  0.0769  0.0944 -0.6545
  632MOL0     C85218   1.803   9.856   5.201  1.4655 -0.0176  0.0603
  632MOL0     C85219   1.671   9.823   5.244  0.5914 -0.3704 -0.2315
  632MOL0     C85220   1.554   9.881   5.193  0.3225 -0.6400  0.1731
  632MOL0     O85221   1.426   9.833   5.203  0.6655  0.1816 -0.0051
  632MOL0     C85222   1.401   9.739   5.310  1.4483  0.3255 -0.2576
  632MOL0     C85223   1.262   9.745   5.368  0.0095 -0.8204  0.7371
  632MOL0     C85224   1.155   9.707   5.264  0.0515 -0.9070  0.4397
  632MOL0     C85225   1.018   9.695   5.326 -0.5441 -0.0098  0.6469
  632MOL0     C85226   0.918   9.626   5.234  0.4234 -1.6395  0.1199
  632MOL0     C85227   0.776   9.674   5.267  0.8046  0.4331 -0.0468
  632MOL0     C85228   0.668   9.603   5.196  0.1492 -0.4304  0.3388
  632MOL0     C85229   0.642   9.667   5.060  0.4923  0.6506 -0.6690
  632MOL0    Cl85230   0.515   9.791   5.061 -0.4665 -0.1823 -0.4229
  632MOL0     C85231   1.574   9.982   5.091 -0.0056  0.2913 -0.0684
  632MOL0     C85232   1.699  10.032   5.064 -0.9075 -0.0864 -0.2983
  632MOL0     O85233   2.089   9.918   5.211 -0.2111  0.0429  0.2286
  632MOL0     C85234   2.266  10.017   5.029 -0.4742  0.1232 -0.8969
  632MOL0     C85235   2.373  10.027   4.942  0.3988 -1.0464  0.4977
  632MOL0     N85236   2.937   9.871   4.404  0.6081 -0.9769 -0.2434
  632MOL0     N85237   3.055   9.838   4.412  0.2774  0.3740 -0.8828
  632MOL0     C85238   3.835  10.728   3.893  0.1038  1.2028 -0.9357
  632MOL0     C85239   3.974  10.760   3.870  0.5705  0.1344  0.6503
  632MOL0     C85240   4.420  10.826   3.932  0.5432 -0.7465 -0.1512
  632MOL0     C85241   4.501  10.715   3.941 -0.1155  0.3069 -0.1431
  632MOL0     C85242   4.639  10.732   3.958 -0.1797  0.4312 -0.0624
  632MOL0     C85243   4.698  10.854   3.988  0.3649  0.0720  0.3488
  632MOL0     O85244   4.831  10.860   4.003  0.0290 -0.6499 -0.2350
  632MOL0     C85245   4.895  10.992   3.997 -0.3240  0.3141 -0.5362
  632MOL0     C85246   5.030  10.946   3.964  0.1019 -0.3781  0.6216
  632MOL0     C85247   5.128  11.069   3.977 -0.6341  0.3312 -0.0065
  632MOL0     C85248   5.187  11.090   4.117 -0.1705  0.7182 -0.1781
  632MOL0     C85249   5.099  11.148   4.209 -0.4633 -0.6029  0.3356
  632MOL0     C85250   5.027  11.193   4.295 -0.0693 -0.1650  0.0777
  632MOL0     C85251   4.612  10.970   3.983 -0.7482 -0.6056  0.6094
  632MOL0     C85252   4.481  10.954   3.944  0.0818  0.8550  0.1558
  632MOL0     H85253   4.130  10.504   4.023  1.8519  2.4739 -0.7723
  632MOL0     H85254   3.897  10.435   4.051  0.5745  0.9691  1.5209
  632MOL0     H85255   3.548  10.718   3.954  0.6250  0.1372 -1.8165
  632MOL0     H85256   3.539  10.601   3.828 -0.9428  1.3629 -0.4783
  632MOL0     H85257   3.450  10.574   4.119  2.3081 -0.1389 -0.6705
  632MOL0     H85258   3.347  10.584   3.977 -0.7145  1.8014 -0.7704
  632MOL0     H85259   3.393  10.364   3.905 -2.7772 -2.2928  0.8786
  632MOL0     H85260   3.537  10.351   4.004 -0.9879 -2.1670 -0.5563
  632MOL0     H85261   3.367  10.382   4.202 -3.2235  1.3208 -0.2394
  632MOL0     H85262   3.255  10.340   4.074  0.1560 -1.3182 -1.3605
  632MOL0     H85263   3.319  10.113   4.052  0.2853 -3.5256  1.5982
  632MOL0     H85264   3.478  10.144   4.133  1.8522  3.5812 -0.6397
  632MOL0     H85265   3.386  10.188   4.329  0.0625  1.6804 -1.3809
  632MOL0     H85266   3.217  10.175   4.275  1.0058  1.8273 -1.0115
  632MOL0     H85267   3.279   9.913   4.232  1.8658  0.1610 -0.7993
  632MOL0     H85268   3.439   9.964   4.291 -0.3145 -1.2800 -2.3478
  632MOL0     H85269   3.324  10.017   4.524  1.3749 -0.4275 -0.7282
  632MOL0     H85270   3.321   9.853   4.473  0.9478  1.0076  2.4178
  632MOL0     H85271   3.073  10.156   4.472 -1.0583  0.5880 -1.1811
  632MOL0     H85272   2.832  10.200   4.450 -1.2655  1.2762  0.0218
  632MOL0     H85273   2.730  10.083   4.359 -1.6941  0.6925  1.1301
  632MOL0     H85274   2.789  10.026   4.644 -1.7291  1.4055  0.6492
  632MOL0     H85275   2.686   9.943   4.525  1.0441 -0.0411 -0.8500
  632MOL0     H85276   2.528  10.131   4.510 -0.5412  0.7012  1.2716
  632MOL0     H85277   2.646  10.233   4.584 -1.1000 -0.1661 -0.6643
  632MOL0     H85278   2.496  10.197   4.753 -0.2964  0.0987 -0.1162
  632MOL0     H85279   2.632  10.092   4.796  0.0035 -0.8003  0.6439
  632MOL0     H85280   2.210   9.892   4.670 -2.3725 -2.3126  1.2497
  632MOL0     H85281   2.022   9.747   4.800 -1.4200 -0.0523 -1.8117
  632MOL0     H85282   1.924   9.865   4.898 -0.0914  0.2969  0.7648
  632MOL0     H85283   1.967   9.897   4.722 -1.7333  1.9233  1.4146
  632MOL0     H85284   1.890   9.801   5.235  0.8344  0.0594  1.9165
  632MOL0     H85285   1.655   9.745   5.318 -0.3464  0.6740  0.7069
  632MOL0     H85286   1.404   9.635   5.277 -1.9816  0.0652 -0.0414
  632MOL0     H85287   1.471   9.748   5.393  0.9812 -0.2508  0.2080
  632MOL0     H85288   1.253   9.668   5.444 -1.2228 -0.2292  1.2210
  632MOL0     H85289   1.228   9.846   5.392 -0.1813 -0.7561  0.2203
  632MOL0     H85290   1.174   9.609   5.219 -0.2317  0.0859 -1.9873
  632MOL0     H85291   1.152   9.774   5.178  2.7686 -0.2490  0.7496
  632MOL0     H85292   1.022   9.657   5.428 -0.6000 -1.6218  0.0691
  632MOL0     H85293   0.984   9.799   5.325 -0.9924 -0.1176 -1.9383
  632MOL0     H85294   0.942   9.520   5.247  2.4307 -1.3135 -0.4426
  632MOL0     H85295   0.945   9.656   5.132  4.5063 -1.2719  1.1497
  632MOL0     H85296   0.767   9.664   5.376 -0.1228 -3.4377 -0.3237
  632MOL0     H85297   0.774   9.781   5.242  1.3012  0.3797 -0.3431
  632MOL0     H85298   0.578   9.597   5.258 -0.2489 -2.1431 -0.3370
  632MOL0     H85299   0.689   9.496   5.182  2.2696  0.0486 -0.6701
  632MOL0     H85300   0.602   9.589   4.995 -0.9322 -0.4014  1.3693
  632MOL0     H85301   0.736   9.713   5.026 -0.2993  1.4918 -1.7993
  632MOL0     H85302   1.494  10.021   5.029 -1.3169 -1.3536  0.5203
  632MOL0     H85303   1.712  10.103   4.984 -1.1351  0.7398  0.3798
  632MOL0     H85304   2.269  10.062   5.128 -0.3137 -3.0273  0.6619
  632MOL0     H85305   2.460  10.081   4.981 -0.8338  0.5677  1.1327
  632MOL0     H85306   3.762  10.801   3.860 -2.5487 -0.4582  0.8086
  632MOL0     H85307   3.993  10.862   3.837 -2.6125  0.6264 -0.0284
  632MOL0     H85308   4.457  10.615   3.943  0.0689  0.1214 -2.3493
  632MOL0     H85309   4.704  10.646   3.971 -0.8497 -0.1820 -0.6968
  632MOL0     H85310   4.847  11.062   3.929 -0.4728 -0.5521 -1.3391
  632MOL0     H85311   4.896  11.049   4.091  0.0539 -1.1909  0.4089
  632MOL0     H85312   5.028  10.910   3.861 -2.9480  0.6524  0.2396
  632MOL0     H85313   5.060  10.861   4.026 -2.3428  0.2404  2.7949
  632MOL0     H85314   5.082  11.158   3.932 -0.7554 -0.8787 -2.4453
  632MOL0     H85315   5.218  11.055   3.917  1.3744 -1.8159  3.1958
  632MOL0     H85316   5.268  11.163   4.113  0.3157  0.3447  1.8324
  632MOL0     H85317   5.221  10.995   4.161  0.2008  1.9939  2.4577
  632MOL0     H85318   4.952  11.227   4.363 -1.8570  0.4755 -2.1137
  632MOL0     H85319   4.642  11.072   4.004 -4.4731  0.3949  1.8352
  632MOL0     H85320   4.413  11.038   3.946 -3.4427 -1.5862 -3.0310
  633MOL0     O85321   7.264   4.973   4.599  0.4858 -0.5088 -0.1754
  633MOL0     C85322   7.243   5.096   4.623 -0.3160  0.3517 -0.1490
  633MOL0     O85323   7.122   5.174   4.618 -0.0182  0.4819  0.4791
  633MOL0     C85324   7.019   5.099   4.588 -0.0353 -0.5480  0.5187
  633MOL0     C85325   6.943   5.065   4.694 -0.2722  0.1470 -0.4226
  633MOL0     C85326   6.835   4.980   4.676  0.3491  0.2407 -0.3203
  633MOL0     C85327   6.798   4.936   4.547  0.1343 -0.8829  0.3308
  633MOL0     O85328   6.697   4.859   4.520  0.5104  0.3926  0.6029
  633MOL0     C85329   6.632   4.805   4.627  0.6081  0.2316  0.9472
  633MOL0     C85330   6.527   4.703   4.567 -0.5711 -0.5732  0.6939
  633MOL0     C85331   6.427   4.768   4.469 -0.2435  0.4900  1.0536
  633MOL0     C85332   6.309   4.666   4.435 -0.0465  0.6293 -0.0203
  633MOL0     C85333   6.224   4.725   4.315  0.2289 -0.0249 -0.0262
  633MOL0     C85334   6.094   4.645   4.308  0.4007 -0.0783 -0.7562
  633MOL0     C85335   6.000   4.683   4.202 -0.2791  0.3673 -0.3116
  633MOL0     C85336   5.908   4.782   4.260 -0.7529 -0.2564 -0.6579
  633MOL0     N85337   5.786   4.799   4.180  0.0948  0.8072 -0.4298
  633MOL0     C85338   5.773   4.829   4.043  0.0084  0.1538 -0.2558
  633MOL0     C85339   5.641   4.834   4.015 -0.3989  0.6529 -0.2550
  633MOL0     C85340   5.594   4.867   3.878  1.0491  0.4994  0.4573
  633MOL0     C85341   5.560   4.732   3.805 -0.5429 -0.1782 -0.3954
  633MOL0     C85342   5.530   4.751   3.652 -0.0145  0.7246  1.1152
  633MOL0     C85343   5.414   4.848   3.614 -0.7284 -0.2515 -0.1883
  633MOL0     O85344   5.463   4.985   3.622  0.2212  0.5375 -0.5003
  633MOL0     C85345   5.388   5.097   3.614  0.3670 -0.6982 -0.2901
  633MOL0     C85346   5.453   5.220   3.631  0.0975 -0.3142 -0.0941
  633MOL0     C85347   5.384   5.346   3.604  0.0632  0.8235 -0.2005
  633MOL0     C85348   5.455   5.472   3.623  0.7416  0.8027  0.6407
  633MOL0     C85349   5.249   5.332   3.554  0.3683  0.4549  0.7593
  633MOL0     C85350   5.161   5.446   3.509 -0.2610 -0.0337 -0.2120
  633MOL0     O85351   5.031   5.422   3.466 -0.3203 -0.1233 -1.0010
  633MOL0     C85352   4.931   5.520   3.469 -0.2293  0.3473  0.2946
  633MOL0     C85353   4.805   5.485   3.436 -0.3071  0.1120  0.3624
  633MOL0     C85354   4.695   5.567   3.460 -0.3175 -0.1585  0.0853
  633MOL0     C85355   4.712   5.691   3.516 -0.3830 -0.5656  0.2710
  633MOL0     O85356   4.613   5.781   3.538 -0.3348 -0.0078  1.2731
  633MOL0     C85357   4.480   5.736   3.518 -0.2357 -0.1589  0.6337
  633MOL0     C85358   4.386   5.833   3.587 -0.1195 -0.4651  0.5694
  633MOL0     C85359   4.245   5.779   3.600 -0.7253  0.0543  0.8632
  633MOL0     C85360   4.148   5.896   3.602 -0.1475  0.1027 -0.2493
  633MOL0     C85361   4.003   5.868   3.585 -0.1798  0.2676 -0.1002
  633MOL0     C85362   3.937   5.822   3.717  0.0368  0.1392  0.2763
  633MOL0     C85363   3.794   5.779   3.681 -0.1416 -0.4210 -0.7544
  633MOL0     C85364   3.734   5.684   3.786  1.1844 -0.0077  0.1169
  633MOL0    Cl85365   3.746   5.747   3.962 -0.0355 -0.1900  0.4917
  633MOL0     C85366   4.841   5.731   3.537  0.1365 -0.3794 -0.5636
  633MOL0     C85367   4.944   5.649   3.534 -0.0848 -0.0003 -0.3005
  633MOL0     O85368   5.211   5.559   3.515  0.7132  0.9400  0.8117
  633MOL0     C85369   5.196   5.201   3.529  0.6609 -0.9105 -0.8827
  633MOL0     C85370   5.263   5.090   3.557 -0.0849  0.1578 -0.5463
  633MOL0     N85371   5.571   4.810   4.126  0.3363  0.5235 -0.5773
  633MOL0     N85372   5.657   4.795   4.230 -0.7809 -0.2624  0.0638
  633MOL0     C85373   6.875   4.984   4.434 -0.7102  0.6335  0.0262
  633MOL0     C85374   6.987   5.066   4.457  0.2093  0.3101 -0.1855
  633MOL0     C85375   7.346   5.163   4.705 -0.4217 -0.1194 -0.5612
  633MOL0     C85376   7.440   5.092   4.778 -0.1458 -0.1454 -0.2268
  633MOL0     C85377   7.537   5.149   4.864  0.3374  0.3714  0.7433
  633MOL0     C85378   7.546   5.286   4.878  0.6694  0.7370 -0.0558
  633MOL0     O85379   7.629   5.356   4.966  0.2251 -0.0798 -0.3350
  633MOL0     C85380   7.708   5.269   5.050  0.4460 -0.0903 -0.0937
  633MOL0     C85381   7.822   5.359   5.103 -0.0922 -0.3087  0.0485
  633MOL0     C85382   7.937   5.274   5.160 -0.5123 -0.3922  0.1707
  633MOL0     C85383   8.051   5.365   5.209  0.0930  0.5163  0.6834
  633MOL0     C85384   8.150   5.291   5.291 -1.3165  0.7901 -0.3262
  633MOL0     C85385   8.236   5.218   5.349 -0.0471 -1.2137  0.2997
  633MOL0     C85386   7.462   5.362   4.794 -0.0685 -0.4650  0.7759
  633MOL0     C85387   7.356   5.306   4.713 -1.0107 -0.3159  0.3546
  633MOL0     H85388   6.981   5.083   4.795 -1.2795 -2.2982  0.4699
  633MOL0     H85389   6.778   4.939   4.758 -0.0970  1.6918  0.1332
  633MOL0     H85390   6.704   4.759   4.697  0.8167 -2.2217 -0.7531
  633MOL0     H85391   6.581   4.884   4.683  3.3162  0.1472  3.7908
  633MOL0     H85392   6.579   4.620   4.518 -1.4453 -1.2730  0.9376
  633MOL0     H85393   6.458   4.663   4.642 -1.2991 -0.2494  0.2120
  633MOL0     H85394   6.396   4.871   4.492 -0.7555  1.2371 -2.4406
  633MOL0     H85395   6.481   4.776   4.374 -0.1403 -5.7246  0.1913
  633MOL0     H85396   6.344   4.568   4.402 -1.0045  0.4058 -0.4036
  633MOL0     H85397   6.241   4.640   4.516 -3.8950  0.3786 -3.0657
  633MOL0     H85398   6.204   4.830   4.339  1.7086  0.3974 -0.5531
  633MOL0     H85399   6.278   4.722   4.221 -0.8418 -1.0285 -0.6328
  633MOL0     H85400   6.134   4.543   4.305  0.5363 -0.1344  1.2383
  633MOL0     H85401   6.042   4.649   4.405  1.4753 -1.4101 -0.0943
  633MOL0     H85402   6.041   4.732   4.114 -0.2807  1.3199  0.2124
  633MOL0     H85403   5.941   4.599   4.163 -0.6667  1.1054 -1.3714
  633MOL0     H85404   5.956   4.880   4.271 -0.6218 -0.4190  0.2933
  633MOL0     H85405   5.883   4.756   4.363 -3.2845  0.7611 -0.9172
  633MOL0     H85406   5.849   4.849   3.969 -2.5453  1.8337 -2.6228
  633MOL0     H85407   5.512   4.939   3.892  1.2682  0.4833  1.8960
  633MOL0     H85408   5.668   4.910   3.809  0.9681 -0.4896 -0.2733
  633MOL0     H85409   5.474   4.687   3.855  1.4180 -1.2737  2.2301
  633MOL0     H85410   5.643   4.662   3.820 -0.9417 -0.8510 -1.2194
  633MOL0     H85411   5.513   4.655   3.601 -0.8805  1.6610 -0.4292
  633MOL0     H85412   5.626   4.785   3.615  0.7968 -3.7458 -1.6723
  633MOL0     H85413   5.328   4.840   3.682 -0.1817 -0.1896  0.5128
  633MOL0     H85414   5.372   4.820   3.517 -0.3818 -0.9161 -0.1537
  633MOL0     H85415   5.557   5.211   3.661 -0.4115  0.4893  2.1050
  633MOL0     H85416   5.562   5.463   3.641  1.0411  1.7220 -0.5606
  633MOL0     H85417   5.447   5.523   3.527 -3.4851 -2.2556 -0.9564
  633MOL0     H85418   5.408   5.531   3.702 -0.4235  1.0527 -0.1993
  633MOL0     H85419   4.797   5.396   3.375  0.2408  0.0231  0.4171
  633MOL0     H85420   4.595   5.531   3.437  0.3302 -1.9208 -0.1757
  633MOL0     H85421   4.451   5.742   3.413  0.1346 -2.7563  0.3334
  633MOL0     H85422   4.462   5.632   3.544  2.4701 -1.2924 -1.6106
  633MOL0     H85423   4.433   5.857   3.683  0.9011  3.0455 -0.6744
  633MOL0     H85424   4.383   5.919   3.520 -2.4820  0.9626  2.3646
  633MOL0     H85425   4.233   5.709   3.683  2.0410 -1.4026  0.1731
  633MOL0     H85426   4.223   5.723   3.508  0.8559  0.4198  0.2376
  633MOL0     H85427   4.151   5.950   3.698 -1.0810 -1.9542  1.0081
  633MOL0     H85428   4.175   5.955   3.514 -3.0172 -0.4711 -1.6244
  633MOL0     H85429   3.991   5.783   3.517  1.4798  0.8390 -1.1786
  633MOL0     H85430   3.954   5.958   3.546  3.8787  2.4489 -0.7894
  633MOL0     H85431   3.989   5.735   3.757 -1.5342 -2.0815 -2.1168
  633MOL0     H85432   3.931   5.898   3.795 -0.0845 -2.5500  3.0727
  633MOL0     H85433   3.802   5.736   3.581 -1.0153 -0.7982 -0.6758
  633MOL0     H85434   3.724   5.863   3.677 -2.7006 -2.3187  0.3813
  633MOL0     H85435   3.791   5.592   3.773  0.3265 -0.3887 -1.1072
  633MOL0     H85436   3.632   5.655   3.761  1.7431 -0.5484 -1.6381
  633MOL0     H85437   4.874   5.832   3.560 -0.5936  0.3498 -2.5318
  633MOL0     H85438   5.037   5.681   3.580  0.4059  0.3080 -1.4697
  633MOL0     H85439   5.100   5.184   3.482  0.1065 -2.6702  0.7900
  633MOL0     H85440   5.213   5.001   3.521 -0.5235  0.2522 -0.1787
  633MOL0     H85441   6.844   4.956   4.334  2.6968  0.5675 -1.1524
  633MOL0     H85442   7.045   5.112   4.378  1.4923  0.6076  0.9041
  633MOL0     H85443   7.456   4.987   4.761  5.2001  0.6530 -1.9652
  633MOL0     H85444   7.584   5.078   4.931  0.0219  0.2114  0.7994
  633MOL0     H85445   7.657   5.210   5.126 -2.3592  0.2603 -1.5739
  633MOL0     H85446   7.755   5.190   4.989  1.3058  1.0570 -0.9696
  633MOL0     H85447   7.777   5.419   5.183 -2.3822 -1.5778 -0.1872
  633MOL0     H85448   7.852   5.426   5.023 -0.3775 -0.8269 -0.5005
  633MOL0     H85449   7.974   5.210   5.080 -0.2708  0.5176 -0.4542
  633MOL0     H85450   7.901   5.207   5.239 -1.2257 -2.7267 -2.0082
  633MOL0     H85451   8.006   5.441   5.274  1.0078 -0.6592  2.8098
  633MOL0     H85452   8.098   5.411   5.122 -0.5925 -1.4915 -0.8428
  633MOL0     H85453   8.301   5.149   5.397  2.6419  1.3018  0.5212
  633MOL0     H85454   7.482   5.468   4.803  1.9585 -0.7063 -0.2588
  633MOL0     H85455   7.292   5.374   4.658 -2.0558  0.7606  2.7368
  634MOL0     O85456   3.710   2.218   1.972  0.1220 -0.3837 -0.2783
  634MOL0     C85457   3.737   2.337   1.952  0.4226 -0.2216  0.0028
  634MOL0     O85458   3.686   2.407   1.841 -0.9068  0.4771 -0.2774
  634MOL0     C85459   3.576   2.355   1.786  0.1174  0.7579  0.6498
  634MOL0     C85460   3.465   2.308   1.853 -0.1819 -0.6364 -0.1633
  634MOL0     C85461   3.348   2.270   1.789  0.1251 -0.1264 -0.2883
  634MOL0     C85462   3.332   2.282   1.652  0.1299  0.3083  0.3782
  634MOL0     O85463   3.209   2.248   1.599 -0.1087 -0.2172 -0.7111
  634MOL0     C85464   3.188   2.247   1.462 -0.7094  0.2203  0.2040
  634MOL0     C85465   3.042   2.237   1.425 -0.4784  0.1207 -0.7443
  634MOL0     C85466   2.961   2.370   1.452  0.6296 -0.2214 -0.2349
  634MOL0     C85467   2.804   2.334   1.439 -0.3088 -0.6165 -0.0510
  634MOL0     C85468   2.713   2.460   1.458  0.7190  0.0688 -0.5238
  634MOL0     C85469   2.614   2.454   1.579 -0.0555  0.4895  0.2495
  634MOL0     C85470   2.552   2.586   1.615  0.5210  0.4988 -0.7971
  634MOL0     C85471   2.415   2.555   1.682  0.9812  0.3016 -0.7204
  634MOL0     N85472   2.317   2.494   1.592  0.1233 -1.3267  0.0744
  634MOL0     C85473   2.205   2.437   1.645  0.1075 -0.6821  0.7928
  634MOL0     C85474   2.136   2.408   1.525 -0.9747 -0.2292 -0.2342
  634MOL0     C85475   1.999   2.357   1.500 -0.5315  0.6297  0.1023
  634MOL0     C85476   1.906   2.481   1.489  0.2796  0.6091 -0.8625
  634MOL0     C85477   1.853   2.518   1.341 -1.1145  0.2047 -0.1063
  634MOL0     C85478   1.820   2.668   1.326 -0.8027  0.1600  0.6264
  634MOL0     O85479   1.732   2.700   1.445  0.1198 -0.1336  0.0719
  634MOL0     C85480   1.611   2.637   1.437 -0.1270  0.6023  1.0742
  634MOL0     C85481   1.541   2.644   1.321 -0.2338 -0.2921 -0.5529
  634MOL0     C85482   1.417   2.597   1.299  0.3718 -0.8209  0.1337
  634MOL0     C85483   1.345   2.623   1.167  1.5082 -0.3020 -0.1126
  634MOL0     C85484   1.355   2.531   1.407 -0.3326  1.0009 -0.2223
  634MOL0     C85485   1.217   2.471   1.406  0.2987 -0.1455  0.6347
  634MOL0     O85486   1.180   2.412   1.529 -0.6412  0.2834  0.5674
  634MOL0     C85487   1.053   2.381   1.559  0.6783 -0.1424 -0.5398
  634MOL0     C85488   0.947   2.475   1.553 -1.0972  0.2951 -0.2423
  634MOL0     C85489   0.817   2.436   1.597  0.5638  0.7690 -0.8129
  634MOL0     C85490   0.789   2.310   1.653  0.0974  0.7822 -0.7065
  634MOL0     O85491   0.664   2.284   1.690  0.5642 -0.0588 -0.3969
  634MOL0     C85492   0.631   2.173   1.781  0.0758 -0.5586 -0.3455
  634MOL0     C85493   0.485   2.147   1.786  0.0323  0.1492 -0.0472
  634MOL0     C85494   0.438   2.041   1.679 -0.2517  0.0284  0.5309
  634MOL0     C85495   0.298   2.010   1.697 -0.6457  0.1261 -0.6697
  634MOL0     C85496   0.276   1.909   1.805  1.3247  0.3034  0.0042
  634MOL0     C85497   0.133   1.900   1.862  0.6149  0.9204 -0.3197
  634MOL0     C85498   0.015   1.871   1.772 -0.4841  0.8318 -1.0422
  634MOL0     C85499  -0.116   1.855   1.834  0.3108 -0.4069 -0.6346
  634MOL0    Cl85500  -0.142   1.712   1.943 -0.0437 -0.3744  0.1522
  634MOL0     C85501   0.898   2.223   1.664  0.3897  0.2117  0.2500
  634MOL0     C85502   1.021   2.254   1.612 -0.5079 -0.1543  0.5381
  634MOL0     O85503   1.139   2.490   1.313  0.0587 -0.2543  0.2110
  634MOL0     C85504   1.423   2.519   1.535  0.4192  0.0576  0.1266
  634MOL0     C85505   1.544   2.573   1.542 -0.4221  0.7216 -0.9221
  634MOL0     N85506   2.213   2.447   1.409 -0.3629 -0.3416 -0.4711
  634MOL0     N85507   2.320   2.496   1.458 -1.1545  0.1334 -0.9509
  634MOL0     C85508   3.449   2.320   1.578  0.0983 -0.1056 -0.8627
  634MOL0     C85509   3.562   2.362   1.644  0.8201 -0.4432 -0.2138
  634MOL0     C85510   3.834   2.414   2.037 -0.0393 -1.0251  0.6854
  634MOL0     C85511   3.884   2.536   1.990  0.4702 -0.2364 -0.6366
  634MOL0     C85512   3.963   2.617   2.073  0.5511 -0.4205  0.4532
  634MOL0     C85513   4.002   2.573   2.201 -0.3181  0.2548 -0.4844
  634MOL0     O85514   4.075   2.649   2.296 -0.4877 -0.2665  0.1008
  634MOL0     C85515   4.075   2.636   2.445 -0.6305 -0.4257 -0.6989
  634MOL0     C85516   4.176   2.733   2.506 -0.5070  0.1752  0.2303
  634MOL0     C85517   4.325   2.719   2.455  0.9547 -0.1752  0.5551
  634MOL0     C85518   4.432   2.809   2.518 -0.5413  0.5761  0.1481
  634MOL0     C85519   4.464   2.782   2.658 -0.2169 -0.5800 -0.3072
  634MOL0     C85520   4.497   2.732   2.760 -0.7109 -1.0511 -0.2172
  634MOL0     C85521   3.940   2.455   2.244  0.6911  0.4441  0.1984
  634MOL0     C85522   3.855   2.379   2.164  0.1892 -0.0366 -0.1011
  634MOL0     H85523   3.463   2.323   1.961 -2.1321 -2.5040  0.1272
  634MOL0     H85524   3.258   2.244   1.844 -0.2442 -0.0354 -0.8424
  634MOL0     H85525   3.227   2.336   1.413 -0.5126 -2.1250 -4.5142
  634MOL0     H85526   3.245   2.166   1.415 -0.6439 -0.9948  2.2585
  634MOL0     H85527   3.035   2.182   1.331  0.7235 -2.8058  0.7386
  634MOL0     H85528   3.006   2.162   1.496 -0.2121  0.4421 -0.2615
  634MOL0     H85529   2.977   2.405   1.554 -1.5072 -0.5745  0.2858
  634MOL0     H85530   2.998   2.444   1.381 -0.7706  0.5582 -0.1874
  634MOL0     H85531   2.785   2.291   1.340  3.3518  1.0897 -1.6915
  634MOL0     H85532   2.770   2.261   1.513 -1.7082  0.4820  0.4310
  634MOL0     H85533   2.777   2.549   1.462  0.4969  0.2811 -1.3819
  634MOL0     H85534   2.655   2.484   1.368  0.1845 -1.0147 -0.4800
  634MOL0     H85535   2.546   2.370   1.560  0.2060  0.2825  0.2194
  634MOL0     H85536   2.673   2.429   1.668  1.5733  4.4517  0.4844
  634MOL0     H85537   2.615   2.646   1.681 -2.3541  0.8686  1.8756
  634MOL0     H85538   2.533   2.645   1.525  0.2993  0.4480 -0.7833
  634MOL0     H85539   2.364   2.646   1.712 -0.4939 -0.5018 -0.6975
  634MOL0     H85540   2.426   2.494   1.772 -0.3168  1.4549  0.2433
  634MOL0     H85541   2.173   2.427   1.749 -0.9695 -1.0502  0.4478
  634MOL0     H85542   1.998   2.284   1.419 -0.6428  2.5560 -1.7238
  634MOL0     H85543   1.979   2.305   1.595 -0.5438 -2.0323 -1.2547
  634MOL0     H85544   1.965   2.569   1.518  2.5186 -0.8366 -0.7324
  634MOL0     H85545   1.829   2.461   1.563  2.3445  1.5230  1.6914
  634MOL0     H85546   1.767   2.455   1.316 -2.1698  0.8199  1.7260
  634MOL0     H85547   1.931   2.482   1.273 -1.1449  0.4069 -0.2463
  634MOL0     H85548   1.770   2.691   1.231  0.8868 -0.4759 -0.4511
  634MOL0     H85549   1.910   2.727   1.308 -0.5032 -0.6151 -0.5942
  634MOL0     H85550   1.581   2.722   1.257  0.7659  0.2601  0.7038
  634MOL0     H85551   1.251   2.679   1.177  0.5940 -1.7520 -0.3062
  634MOL0     H85552   1.420   2.673   1.105  1.0600  1.1853  0.4866
  634MOL0     H85553   1.317   2.521   1.142 -2.2478  0.1947  1.4273
  634MOL0     H85554   0.963   2.580   1.534  3.0732  0.0599  0.9451
  634MOL0     H85555   0.748   2.520   1.595 -1.4868 -0.7877  0.4271
  634MOL0     H85556   0.677   2.079   1.749 -0.2657 -0.6457 -0.5976
  634MOL0     H85557   0.674   2.184   1.880  0.4769 -4.2954  0.0302
  634MOL0     H85558   0.457   2.104   1.883 -2.6791 -2.8299 -1.9469
  634MOL0     H85559   0.425   2.238   1.776 -1.8608 -0.9000  1.1589
  634MOL0     H85560   0.498   1.950   1.687  0.1871  0.4200  1.9178
  634MOL0     H85561   0.439   2.084   1.578 -1.7378  1.0567  0.9293
  634MOL0     H85562   0.231   2.094   1.721 -1.0601 -0.6476  1.0429
  634MOL0     H85563   0.260   1.955   1.610  3.1309 -2.1065 -1.1052
  634MOL0     H85564   0.329   1.931   1.898 -2.2513 -2.4677  3.0340
  634MOL0     H85565   0.302   1.808   1.773 -2.6829 -1.5729  1.9251
  634MOL0     H85566   0.129   1.827   1.943  2.1443  1.2229  0.0462
  634MOL0     H85567   0.125   1.999   1.908 -0.0440  0.6823  0.1040
  634MOL0     H85568   0.047   1.776   1.730 -1.7629  0.0865 -0.3749
  634MOL0     H85569   0.022   1.952   1.699  1.7886  0.2733 -1.5466
  634MOL0     H85570  -0.177   1.842   1.745 -2.0039  0.4449  0.7179
  634MOL0     H85571  -0.145   1.942   1.894 -2.3480 -2.3194  1.0642
  634MOL0     H85572   0.882   2.122   1.702  0.8612 -0.4861 -1.3148
  634MOL0     H85573   1.112   2.196   1.607  0.2443  1.0680 -0.2337
  634MOL0     H85574   1.384   2.484   1.630  3.3601  1.5775  2.0492
  634MOL0     H85575   1.590   2.573   1.640  0.6480 -0.9339 -1.3811
  634MOL0     H85576   3.447   2.333   1.470  1.4785  1.4420 -0.7449
  634MOL0     H85577   3.644   2.396   1.582 -1.0002 -1.0592 -3.1540
  634MOL0     H85578   3.860   2.567   1.889 -0.6839  2.0178  0.2702
  634MOL0     H85579   4.006   2.709   2.037 -0.0993 -0.2548  0.0737
  634MOL0     H85580   3.973   2.657   2.481 -0.2407  4.3850 -1.7557
  634MOL0     H85581   4.096   2.530   2.463  0.6465  0.0435  0.6886
  634MOL0     H85582   4.176   2.719   2.614 -1.4938  0.6853  0.3114
  634MOL0     H85583   4.149   2.838   2.489  3.5871  1.3077 -0.2860
  634MOL0     H85584   4.322   2.739   2.348 -1.2065  0.0083  0.6030
  634MOL0     H85585   4.357   2.615   2.469 -1.2312 -1.3679 -2.1823
  634MOL0     H85586   4.411   2.916   2.510  2.2475  1.1337 -0.4518
  634MOL0     H85587   4.522   2.776   2.466 -2.0986 -1.9460 -1.1664
  634MOL0     H85588   4.540   2.695   2.852  0.0076  2.3173  0.9595
  634MOL0     H85589   3.952   2.422   2.347  1.7942  1.7621  0.5125
  634MOL0     H85590   3.800   2.295   2.206  1.4683 -0.6673  0.3523
  635MOL0     O85591   8.613   7.132   5.473 -0.5265  0.1976 -0.4240
  635MOL0     C85592   8.662   7.237   5.520 -0.1559 -0.0510 -0.3714
  635MOL0     O85593   8.597   7.359   5.526 -0.1219 -0.2092 -0.1418
  635MOL0     C85594   8.472   7.357   5.471  0.7908 -0.3986 -0.9590
  635MOL0     C85595   8.360   7.368   5.556 -0.5489  0.2814  0.0478
  635MOL0     C85596   8.237   7.351   5.505 -0.1095  0.7756  1.1350
  635MOL0     C85597   8.213   7.336   5.363 -0.1203  0.1476 -0.7365
  635MOL0     O85598   8.083   7.323   5.322  0.4264  0.4212  0.2045
  635MOL0     C85599   8.066   7.329   5.182  0.5730 -0.4745 -0.3839
  635MOL0     C85600   7.919   7.369   5.164  0.2081  0.2582 -0.2556
  635MOL0     C85601   7.880   7.365   5.007 -0.0655  0.3801 -0.8413
  635MOL0     C85602   7.733   7.388   4.975 -0.3639 -0.5254  0.9197
  635MOL0     C85603   7.701   7.394   4.826  0.3208  0.0978 -1.1654
  635MOL0     C85604   7.693   7.257   4.757 -0.2874  0.3330  0.1454
  635MOL0     C85605   7.587   7.163   4.814  0.0084 -0.5559 -0.1430
  635MOL0     C85606   7.534   7.079   4.702 -0.6786 -0.1549 -0.2416
  635MOL0     N85607   7.466   7.162   4.602  0.0683 -0.6252  0.0153
  635MOL0     C85608   7.346   7.231   4.618 -0.2586 -0.6098  0.3418
  635MOL0     C85609   7.311   7.278   4.492 -0.2235  0.3095 -0.0770
  635MOL0     C85610   7.186   7.348   4.450  0.3622 -0.0956  0.0938
  635MOL0     C85611   7.064   7.284   4.507 -0.0621 -0.0993  0.2507
  635MOL0     C85612   7.034   7.330   4.647  0.3765  0.0197  0.5976
  635MOL0     C85613   6.905   7.266   4.692  0.1153  0.1226  0.2482
  635MOL0     O85614   6.844   7.342   4.798  0.1612 -0.4494  0.1422
  635MOL0     C85615   6.714   7.344   4.837  0.7311 -0.5306  0.7888
  635MOL0     C85616   6.632   7.246   4.787 -0.3666  0.2663 -0.1545
  635MOL0     C85617   6.497   7.234   4.818  0.0770  0.2978  0.5930
  635MOL0     C85618   6.418   7.114   4.777 -0.0475 -0.0977 -0.2984
  635MOL0     C85619   6.453   7.323   4.914  0.3078  0.5247  1.2673
  635MOL0     C85620   6.315   7.321   4.966  1.0383 -0.6055 -0.4904
  635MOL0     O85621   6.232   7.421   4.929  0.3845 -0.9590  0.0268
  635MOL0     C85622   6.144   7.450   5.032 -0.2390 -0.2843 -0.1549
  635MOL0     C85623   6.023   7.379   5.042  0.1404 -0.3813  0.8021
  635MOL0     C85624   5.936   7.414   5.146  0.3472 -0.3342 -0.2850
  635MOL0     C85625   5.976   7.520   5.240  0.8785  1.4451 -0.7448
  635MOL0     O85626   5.888   7.552   5.342 -0.1163 -0.6419  0.0428
  635MOL0     C85627   5.782   7.638   5.305 -0.1203 -0.7472  0.9277
  635MOL0     C85628   5.648   7.568   5.295  0.4812  0.0371 -0.2693
  635MOL0     C85629   5.605   7.519   5.433 -0.2239  0.0984 -0.0704
  635MOL0     C85630   5.461   7.460   5.420  0.5733 -0.0955  0.1479
  635MOL0     C85631   5.350   7.562   5.453  0.7895 -0.4589 -0.4136
  635MOL0     C85632   5.208   7.509   5.416  0.8795 -0.3137 -0.3882
  635MOL0     C85633   5.114   7.622   5.461 -0.5632 -0.6514  0.8105
  635MOL0     C85634   4.969   7.572   5.440 -0.2842  0.0346  0.2932
  635MOL0    Cl85635   4.846   7.704   5.466 -0.5156  0.3097  0.6190
  635MOL0     C85636   6.101   7.575   5.234  0.3194  0.0573  0.3938
  635MOL0     C85637   6.178   7.551   5.123  0.0921  1.1726  0.1538
  635MOL0     O85638   6.280   7.213   5.026 -0.4751 -0.0995  0.2920
  635MOL0     C85639   6.530   7.431   4.958 -0.3669  1.5054 -0.7820
  635MOL0     C85640   6.667   7.447   4.913  0.4068 -0.1302  0.7485
  635MOL0     N85641   7.395   7.225   4.406 -0.1939 -0.2410 -0.1336
  635MOL0     N85642   7.487   7.155   4.465  0.1380 -0.2401  0.9021
  635MOL0     C85643   8.325   7.343   5.279 -0.3359  0.8380 -0.2734
  635MOL0     C85644   8.457   7.352   5.332 -0.0762 -0.0600 -0.1488
  635MOL0     C85645   8.812   7.235   5.553 -0.2627  0.0039 -0.0602
  635MOL0     C85646   8.886   7.120   5.551  0.1047  0.1777 -0.0526
  635MOL0     C85647   9.022   7.127   5.577 -0.5801 -0.7046  0.0907
  635MOL0     C85648   9.088   7.239   5.630 -0.5934  0.1315  0.7961
  635MOL0     O85649   9.221   7.228   5.660 -0.9137 -0.3581 -0.5714
  635MOL0     C85650   9.289   7.352   5.694  0.4904 -0.0821  0.2107
  635MOL0     C85651   9.440   7.335   5.695  0.2175 -1.2565 -0.0536
  635MOL0     C85652   9.504   7.231   5.778  0.3224 -0.8204 -0.4395
  635MOL0     C85653   9.427   7.200   5.906 -0.6945  1.0266  0.8118
  635MOL0     C85654   9.509   7.099   5.972 -0.0213  0.0784  0.4819
  635MOL0     C85655   9.591   7.019   6.017  0.1261  0.2834 -0.3930
  635MOL0     C85656   9.015   7.351   5.647  1.0554 -0.4638  0.4616
  635MOL0     C85657   8.879   7.354   5.608 -0.5510 -0.2876 -0.9325
  635MOL0     H85658   8.369   7.367   5.665  2.4806 -3.8990  0.0213
  635MOL0     H85659   8.157   7.343   5.577  0.8694 -1.7587  2.0230
  635MOL0     H85660   8.120   7.414   5.140 -1.1107  1.0635  0.4212
  635MOL0     H85661   8.087   7.235   5.129  3.0677  1.2507 -2.6866
  635MOL0     H85662   7.858   7.289   5.205 -0.4680  0.3173 -1.1151
  635MOL0     H85663   7.904   7.471   5.199 -2.3271  0.2894 -1.2534
  635MOL0     H85664   7.940   7.438   4.953  0.0152  1.7202  0.9817
  635MOL0     H85665   7.907   7.261   4.985 -0.0683 -0.4967  2.7769
  635MOL0     H85666   7.668   7.319   5.029 -0.1158  0.0094  1.9140
  635MOL0     H85667   7.698   7.488   5.004 -0.9226  0.5369 -2.8568
  635MOL0     H85668   7.602   7.438   4.810  0.4532  1.8289  1.9285
  635MOL0     H85669   7.774   7.454   4.771  0.7139  0.2632 -0.4861
  635MOL0     H85670   7.675   7.275   4.651  3.6993 -2.9111 -1.3813
  635MOL0     H85671   7.787   7.202   4.762 -1.4815 -1.8034  0.0524
  635MOL0     H85672   7.627   7.094   4.889  0.8028  1.4108  1.3265
  635MOL0     H85673   7.513   7.219   4.873  1.5728  2.4416 -0.8334
  635MOL0     H85674   7.467   7.003   4.742 -0.9239  0.5230  0.6769
  635MOL0     H85675   7.620   7.027   4.659 -0.1856 -1.9166  2.6109
  635MOL0     H85676   7.300   7.242   4.716 -0.5500  0.3185  0.1069
  635MOL0     H85677   7.199   7.452   4.482  1.6378 -0.3584  0.4821
  635MOL0     H85678   7.170   7.347   4.342 -2.0806 -0.0722  0.4006
  635MOL0     H85679   7.089   7.177   4.501 -0.6436 -0.1754 -1.7673
  635MOL0     H85680   6.976   7.308   4.447 -0.2668  0.7320  0.8804
  635MOL0     H85681   7.013   7.437   4.643  1.3623  0.2178  0.4643
  635MOL0     H85682   7.114   7.302   4.716 -1.5702 -4.4121  1.4082
  635MOL0     H85683   6.920   7.164   4.728 -0.6770  0.0928  0.5038
  635MOL0     H85684   6.841   7.264   4.603  0.2223  2.6251  0.0302
  635MOL0     H85685   6.677   7.185   4.710  1.3474  1.1016  0.1493
  635MOL0     H85686   6.315   7.143   4.797 -1.1994 -5.1688  3.1744
  635MOL0     H85687   6.421   7.088   4.670 -1.5285  0.2119 -0.4315
  635MOL0     H85688   6.454   7.040   4.849  1.8319  1.7729  0.7846
  635MOL0     H85689   6.002   7.289   4.985  2.2389 -1.7445  2.0609
  635MOL0     H85690   5.840   7.366   5.160 -1.3678  1.8581 -3.3131
  635MOL0     H85691   5.766   7.706   5.389 -2.3546  1.2237 -0.9370
  635MOL0     H85692   5.800   7.701   5.218 -2.2248 -0.5025  0.6025
  635MOL0     H85693   5.569   7.633   5.256 -0.9686 -2.3272 -1.5223
  635MOL0     H85694   5.659   7.484   5.226  3.4729  0.3150 -0.2573
  635MOL0     H85695   5.614   7.598   5.508  2.3616 -0.6501  0.4991
  635MOL0     H85696   5.683   7.448   5.462 -0.5673  0.1071  0.9295
  635MOL0     H85697   5.445   7.412   5.323 -0.1523  1.4532 -0.5403
  635MOL0     H85698   5.450   7.381   5.495 -0.0275 -0.3042 -0.1539
  635MOL0     H85699   5.365   7.652   5.393  0.9214  0.3471  0.8006
  635MOL0     H85700   5.348   7.588   5.559 -1.1677 -1.4063 -0.1778
  635MOL0     H85701   5.189   7.487   5.311 -0.0791 -4.1243  0.4265
  635MOL0     H85702   5.195   7.416   5.472  3.0337 -0.4276  0.0091
  635MOL0     H85703   5.133   7.712   5.402  0.5125 -0.5506  1.2973
  635MOL0     H85704   5.132   7.645   5.567  2.1689 -1.5947  0.6162
  635MOL0     H85705   4.969   7.488   5.511 -0.2949 -1.4527 -1.3916
  635MOL0     H85706   4.958   7.533   5.339  0.4797 -0.9273  0.5597
  635MOL0     H85707   6.125   7.652   5.307  0.8953 -1.7331  2.1631
  635MOL0     H85708   6.261   7.620   5.107 -0.6065  2.4324  1.6403
  635MOL0     H85709   6.502   7.492   5.043  1.2976 -0.3727  1.2356
  635MOL0     H85710   6.736   7.520   4.956  0.6870  0.0822 -0.0543
  635MOL0     H85711   8.321   7.341   5.170 -0.6161  1.2435 -0.2740
  635MOL0     H85712   8.542   7.355   5.264 -0.7713 -1.6712 -1.1317
  635MOL0     H85713   8.853   7.024   5.513  4.4232 -0.7388 -2.1239
  635MOL0     H85714   9.079   7.035   5.577 -0.3537 -0.5645 -0.2336
  635MOL0     H85715   9.255   7.417   5.613  1.7618 -1.0582 -1.1371
  635MOL0     H85716   9.258   7.380   5.796 -1.2557 -1.8284  0.2170
  635MOL0     H85717   9.486   7.433   5.715 -1.3427 -0.6681  0.8772
  635MOL0     H85718   9.466   7.309   5.592 -0.2961  1.0072 -0.8358
  635MOL0     H85719   9.610   7.249   5.801  1.0097  0.6030 -4.0299
  635MOL0     H85720   9.503   7.146   5.710 -0.3591 -1.0111 -0.1966
  635MOL0     H85721   9.334   7.149   5.879 -0.2616  0.8782 -0.5117
  635MOL0     H85722   9.413   7.294   5.960 -2.2649  3.0187 -2.6849
  635MOL0     H85723   9.658   6.946   6.059 -1.9589 -1.2006  0.4942
  635MOL0     H85724   9.055   7.445   5.686  0.2858  1.2970 -2.6606
  635MOL0     H85725   8.817   7.438   5.636 -4.5251 -2.5065 -2.2198
  636MOL0     O85726   8.398   3.174   7.013  0.8565 -0.0513 -0.2953
  636MOL0     C85727   8.410   3.276   7.081 -0.9422 -0.1228  0.2620
  636MOL0     O85728   8.320   3.376   7.103  1.1547  0.8370 -0.2082
  636MOL0     C85729   8.193   3.352   7.048  0.3175  0.7189 -0.3611
  636MOL0     C85730   8.118   3.233   7.069 -0.3232 -0.1811 -0.1606
  636MOL0     C85731   7.988   3.214   7.013 -0.6659  0.4670 -0.2539
  636MOL0     C85732   7.927   3.312   6.932 -0.1096 -0.7670  0.3036
  636MOL0     O85733   7.806   3.300   6.859 -0.6645 -0.2678 -1.1541
  636MOL0     C85734   7.723   3.187   6.888  0.4082 -0.2177  0.2824
  636MOL0     C85735   7.571   3.223   6.854 -0.0556  0.0229 -0.4715
  636MOL0     C85736   7.489   3.095   6.875  1.1717  0.1560 -0.1447
  636MOL0     C85737   7.336   3.105   6.856 -0.4496  0.8337  0.3924
  636MOL0     C85738   7.239   3.003   6.924  0.4978  0.5613 -0.3658
  636MOL0     C85739   7.102   2.982   6.856 -0.5751 -0.1985  0.3391
  636MOL0     C85740   7.050   2.845   6.870  0.3028 -0.0297 -0.0084
  636MOL0     C85741   6.917   2.821   6.792  0.8399  0.0622  0.2889
  636MOL0     N85742   6.869   2.690   6.832  0.4928  0.2557 -0.2177
  636MOL0     C85743   6.918   2.571   6.784  0.9028 -0.3211 -0.7115
  636MOL0     C85744   6.873   2.481   6.874  0.3398 -0.0571 -0.2225
  636MOL0     C85745   6.912   2.331   6.882 -0.7582 -0.3701  0.0265
  636MOL0     C85746   6.793   2.240   6.851 -0.0315  0.9290  0.0485
  636MOL0     C85747   6.757   2.264   6.703  0.4455  0.1096  0.3941
  636MOL0     C85748   6.673   2.148   6.655 -0.3628 -0.7513  0.2774
  636MOL0     O85749   6.758   2.031   6.667  0.0498  0.0999  0.2417
  636MOL0     C85750   6.698   1.911   6.646 -0.3683  0.5487  0.0618
  636MOL0     C85751   6.770   1.792   6.687 -0.2252  0.1682 -0.2754
  636MOL0     C85752   6.717   1.664   6.667 -0.3458 -0.7384 -0.6620
  636MOL0     C85753   6.809   1.555   6.712  0.5570  0.0838 -0.2198
  636MOL0     C85754   6.582   1.657   6.614 -0.8139  0.3609 -1.2723
  636MOL0     C85755   6.503   1.523   6.604 -0.2389  0.4177 -1.4262
  636MOL0     O85756   6.405   1.523   6.511 -0.4362 -0.4225  0.4383
  636MOL0     C85757   6.312   1.421   6.498  0.5039  0.1193 -0.1897
  636MOL0     C85758   6.195   1.457   6.433  0.1228  0.4031 -0.3025
  636MOL0     C85759   6.098   1.364   6.400 -0.1987 -0.1800 -0.4457
  636MOL0     C85760   6.114   1.232   6.433 -0.3407  0.1814 -0.5131
  636MOL0     O85761   6.023   1.135   6.425  0.3043 -0.9038 -0.3191
  636MOL0     C85762   5.882   1.165   6.435  1.0869 -0.1413 -0.6399
  636MOL0     C85763   5.816   1.063   6.336 -0.4230 -0.5056 -0.8724
  636MOL0     C85764   5.660   1.054   6.351  0.1834 -0.7779 -0.2097
  636MOL0     C85765   5.602   0.968   6.238  0.4007  0.4015 -0.0973
  636MOL0     C85766   5.450   0.972   6.231  0.7299 -0.1765  0.2720
  636MOL0     C85767   5.380   0.920   6.367  0.2149 -0.3604 -0.3312
  636MOL0     C85768   5.233   0.961   6.363  0.4657  0.7539 -0.0665
  636MOL0     C85769   5.154   0.861   6.278  0.3135 -0.2027 -0.2647
  636MOL0    Cl85770   4.980   0.901   6.299 -0.3859  0.1939 -0.3161
  636MOL0     C85771   6.239   1.190   6.493  0.0425 -0.2653  0.9466
  636MOL0     C85772   6.325   1.285   6.521 -0.8690 -0.3074  0.0824
  636MOL0     O85773   6.523   1.433   6.688  0.0494 -0.4087 -0.4333
  636MOL0     C85774   6.516   1.774   6.582  0.0929  0.7085  0.0806
  636MOL0     C85775   6.572   1.897   6.597  0.1432 -0.7603  0.1644
  636MOL0     N85776   6.800   2.543   6.973  0.0489 -0.1484 -0.2579
  636MOL0     N85777   6.792   2.667   6.946  0.3105  0.0564 -0.0528
  636MOL0     C85778   8.008   3.427   6.914 -1.1370  0.4573  1.1213
  636MOL0     C85779   8.132   3.445   6.966  0.3152 -0.3955 -0.5152
  636MOL0     C85780   8.537   3.283   7.158 -1.3957  0.2522 -0.2430
  636MOL0     C85781   8.642   3.187   7.143 -0.1879  0.0484  0.6065
  636MOL0     C85782   8.759   3.195   7.231  0.3261 -0.2888  0.3513
  636MOL0     C85783   8.766   3.301   7.321 -0.9132  0.0323 -0.3995
  636MOL0     O85784   8.876   3.325   7.402 -0.6151 -0.0153  0.2671
  636MOL0     C85785   9.006   3.289   7.336  0.0069 -0.0964  0.0216
  636MOL0     C85786   9.132   3.361   7.388 -0.0126  0.4814  0.3317
  636MOL0     C85787   9.251   3.315   7.316 -0.0937  1.0090 -0.4387
  636MOL0     C85788   9.381   3.369   7.386 -0.1266 -0.5042  0.8993
  636MOL0     C85789   9.499   3.297   7.351 -0.3993 -1.1198  0.2194
  636MOL0     C85790   9.604   3.233   7.346 -0.0497  0.0969  0.3692
  636MOL0     C85791   8.662   3.390   7.330 -0.2240  0.2235  0.7812
  636MOL0     C85792   8.545   3.383   7.257  0.0341 -0.2803  0.0367
  636MOL0     H85793   8.154   3.151   7.131  2.5422  0.0873 -1.3366
  636MOL0     H85794   7.940   3.120   7.039 -0.2295 -0.1085 -1.4770
  636MOL0     H85795   7.767   3.102   6.835  0.5642 -1.3168  2.0860
  636MOL0     H85796   7.723   3.172   6.996  0.7098 -1.0887  0.1670
  636MOL0     H85797   7.533   3.303   6.917  1.6054  0.8401 -0.4642
  636MOL0     H85798   7.556   3.255   6.750  0.1741  0.7910 -0.2713
  636MOL0     H85799   7.531   3.009   6.821  2.5857  0.7752 -0.0974
  636MOL0     H85800   7.509   3.066   6.978  0.9490  0.8456  0.0962
  636MOL0     H85801   7.309   3.205   6.892 -2.3283  0.9846 -1.2401
  636MOL0     H85802   7.328   3.101   6.747  0.0066  0.7667  0.3626
  636MOL0     H85803   7.300   2.912   6.923 -2.6684 -1.7077 -0.7361
  636MOL0     H85804   7.216   3.037   7.026  1.8990 -1.0142  0.5217
  636MOL0     H85805   7.031   3.045   6.912  0.1870  0.1706  0.9123
  636MOL0     H85806   7.116   3.008   6.751  0.9781  0.2894  0.6370
  636MOL0     H85807   7.131   2.776   6.846  0.8264 -1.0085  3.8817
  636MOL0     H85808   7.040   2.819   6.976 -0.6564 -0.2375 -0.1334
  636MOL0     H85809   6.932   2.837   6.685 -0.7376  0.7470  0.1493
  636MOL0     H85810   6.842   2.891   6.829  2.0466  0.5614  1.8871
  636MOL0     H85811   6.983   2.554   6.698 -0.1275  1.9389 -2.0250
  636MOL0     H85812   6.993   2.315   6.811 -0.8753  1.2771 -0.5177
  636MOL0     H85813   6.955   2.307   6.980 -0.2504  1.2378  0.2186
  636MOL0     H85814   6.709   2.258   6.920  0.1348  3.6216 -0.3498
  636MOL0     H85815   6.816   2.137   6.877  0.0251  1.3014  1.5777
  636MOL0     H85816   6.846   2.283   6.642 -0.3601 -0.8982 -1.1391
  636MOL0     H85817   6.694   2.353   6.699 -0.5849 -0.6217  0.1151
  636MOL0     H85818   6.658   2.174   6.550  4.2323  3.8642  0.3870
  636MOL0     H85819   6.580   2.151   6.712 -0.3801  2.4322  0.2410
  636MOL0     H85820   6.863   1.790   6.743  0.2333 -0.4528 -1.0392
  636MOL0     H85821   6.807   1.554   6.821  1.0542  2.3037 -0.1287
  636MOL0     H85822   6.781   1.455   6.678  3.3880 -1.6269  2.0403
  636MOL0     H85823   6.915   1.561   6.684  0.7614  2.9809  0.8476
  636MOL0     H85824   6.180   1.562   6.411 -0.4426  0.3573 -0.1644
  636MOL0     H85825   6.001   1.395   6.363  0.0935  0.2863 -0.8280
  636MOL0     H85826   5.838   1.144   6.532 -1.2861 -2.1292 -2.0385
  636MOL0     H85827   5.854   1.267   6.406 -1.9272 -0.3894  1.0044
  636MOL0     H85828   5.828   1.093   6.232 -0.9647 -1.9085 -1.3572
  636MOL0     H85829   5.860   0.965   6.353 -1.2925 -0.3266  3.8599
  636MOL0     H85830   5.614   1.153   6.357 -3.6539 -2.2558 -1.9279
  636MOL0     H85831   5.640   1.008   6.448  0.0452 -0.0710  0.1005
  636MOL0     H85832   5.649   0.982   6.140  0.9255  0.8876  0.2165
  636MOL0     H85833   5.630   0.864   6.256  0.9096 -0.3439 -4.1691
  636MOL0     H85834   5.420   0.911   6.145  1.8980 -3.1756  1.8461
  636MOL0     H85835   5.430   1.076   6.204  2.1345  0.3173  1.0032
  636MOL0     H85836   5.387   0.811   6.370 -2.0792 -0.5560  0.5372
  636MOL0     H85837   5.428   0.961   6.457  1.1105 -0.3600 -0.8054
  636MOL0     H85838   5.219   1.060   6.317  0.7701  1.7198  1.8096
  636MOL0     H85839   5.186   0.975   6.461 -1.7170  0.1641 -0.9717
  636MOL0     H85840   5.180   0.758   6.305  1.4266  0.6315  2.1673
  636MOL0     H85841   5.183   0.869   6.173  1.4887  1.2092  0.1202
  636MOL0     H85842   6.267   1.091   6.527  0.9036  0.2926  1.9117
  636MOL0     H85843   6.420   1.253   6.563 -0.7176  1.8786  1.5792
  636MOL0     H85844   6.419   1.768   6.533  0.8720  1.1330 -1.5986
  636MOL0     H85845   6.511   1.981   6.567  1.5505  0.1684 -0.2086
  636MOL0     H85846   7.973   3.509   6.852  1.2448  0.8314  0.1564
  636MOL0     H85847   8.179   3.537   6.935  2.1066 -0.3170  2.1154
  636MOL0     H85848   8.648   3.097   7.082 -0.2805  1.0362 -0.9232
  636MOL0     H85849   8.829   3.113   7.219  0.5379 -0.3037  1.5431
  636MOL0     H85850   9.016   3.180   7.347  0.8586 -0.2376 -1.8684
  636MOL0     H85851   8.999   3.306   7.229 -0.8563 -0.0055  0.0845
  636MOL0     H85852   9.135   3.338   7.495 -0.2021 -1.7222 -0.1018
  636MOL0     H85853   9.117   3.469   7.376 -1.2970  0.2638 -0.1362
  636MOL0     H85854   9.241   3.343   7.210  0.5675  0.7867 -0.5632
  636MOL0     H85855   9.270   3.207   7.317 -0.5267  0.9319 -0.1810
  636MOL0     H85856   9.376   3.372   7.495  2.7877  1.2026  1.0910
  636MOL0     H85857   9.399   3.474   7.363 -2.1104  0.2318  2.4640
  636MOL0     H85858   9.684   3.162   7.353  1.5700  1.9456  1.6666
  636MOL0     H85859   8.668   3.468   7.405 -2.6403  0.1747  1.0925
  636MOL0     H85860   8.465   3.451   7.285 -0.0808  0.2581 -1.4729
  637MOL0     O85861   7.269   3.331   3.719  0.3770 -0.7554 -0.0189
  637MOL0     C85862   7.329   3.315   3.615 -0.2189  0.0576  0.4637
  637MOL0     O85863   7.292   3.360   3.492  0.9738  0.6850  0.3540
  637MOL0     C85864   7.162   3.414   3.481  0.0875 -0.4960 -0.6024
  637MOL0     C85865   7.092   3.390   3.362  0.1392 -0.3004  0.7710
  637MOL0     C85866   6.976   3.455   3.337 -0.2423 -0.5377 -0.5210
  637MOL0     C85867   6.917   3.537   3.432 -0.2254  0.1113  0.9869
  637MOL0     O85868   6.798   3.589   3.405 -0.7763 -0.3328 -0.4046
  637MOL0     C85869   6.679   3.521   3.451  0.6090 -0.2660  0.3107
  637MOL0     C85870   6.552   3.592   3.408 -0.5342  0.8555  0.1586
  637MOL0     C85871   6.416   3.539   3.483 -0.9334  0.6736 -0.1184
  637MOL0     C85872   6.289   3.596   3.425  0.2054 -0.5951  0.3183
  637MOL0     C85873   6.168   3.560   3.524  0.5857 -0.1974  0.0153
  637MOL0     C85874   6.023   3.579   3.461 -0.4199  0.7708  0.6480
  637MOL0     C85875   5.998   3.724   3.416 -0.3565 -0.2699  0.6119
  637MOL0     C85876   5.852   3.725   3.372 -0.5502 -0.6359 -0.0579
  637MOL0     N85877   5.824   3.669   3.241 -0.4982 -1.1483 -0.2501
  637MOL0     C85878   5.915   3.669   3.137  0.1024  0.4696  0.3985
  637MOL0     C85879   5.842   3.597   3.046  0.2817 -0.2506  0.7954
  637MOL0     C85880   5.902   3.568   2.911  0.0599 -0.0474  0.7874
  637MOL0     C85881   5.808   3.513   2.806  0.0873  0.1929  0.0037
  637MOL0     C85882   5.711   3.611   2.741 -0.3825  0.9347  0.4286
  637MOL0     C85883   5.626   3.540   2.623 -0.2183 -0.2936 -0.5627
  637MOL0     O85884   5.550   3.650   2.560  0.2902  0.3983  0.2644
  637MOL0     C85885   5.411   3.633   2.541 -0.5024  0.3177  0.5328
  637MOL0     C85886   5.325   3.564   2.633 -1.2606  0.0181  0.2873
  637MOL0     C85887   5.191   3.551   2.607  0.1212 -0.1771  0.5744
  637MOL0     C85888   5.114   3.469   2.713  0.5344 -0.8657 -0.5933
  637MOL0     C85889   5.130   3.619   2.493 -0.0516  0.7250 -0.5312
  637MOL0     C85890   4.987   3.601   2.457 -0.0207  0.3223 -1.3976
  637MOL0     O85891   4.902   3.527   2.543 -0.3517  0.2856  0.5042
  637MOL0     C85892   4.775   3.536   2.495  0.9670 -0.7978  0.1136
  637MOL0     C85893   4.682   3.613   2.567 -1.6731 -0.6880 -0.3210
  637MOL0     C85894   4.546   3.613   2.539  0.7827  0.3345 -0.4286
  637MOL0     C85895   4.486   3.545   2.430 -0.1846  0.5830 -0.9179
  637MOL0     O85896   4.361   3.539   2.388 -0.3206  0.3847  0.1102
  637MOL0     C85897   4.259   3.617   2.459 -0.0169 -0.0311 -0.1901
  637MOL0     C85898   4.130   3.608   2.383  0.8401 -0.4354 -0.3375
  637MOL0     C85899   4.022   3.687   2.445  0.7072  0.5055 -0.6965
  637MOL0     C85900   4.052   3.839   2.476  0.7144 -0.4101  0.1356
  637MOL0     C85901   3.928   3.915   2.518 -1.1796 -0.0980  0.8384
  637MOL0     C85902   3.939   4.066   2.544 -0.7939 -0.5782  0.2183
  637MOL0     C85903   3.805   4.123   2.579 -0.4729 -0.6281 -0.5768
  637MOL0     C85904   3.726   4.061   2.698 -0.3308 -0.7769  0.0412
  637MOL0    Cl85905   3.844   4.015   2.833 -0.2833 -0.2675  0.2069
  637MOL0     C85906   4.581   3.476   2.359  0.7568  1.3668 -0.4212
  637MOL0     C85907   4.720   3.470   2.383 -0.0819 -0.0341  0.5656
  637MOL0     O85908   4.956   3.653   2.351 -0.2193  0.0909 -0.3220
  637MOL0     C85909   5.212   3.705   2.419  0.5450  0.0917 -0.9116
  637MOL0     C85910   5.351   3.701   2.437 -0.0896 -0.3020 -0.4128
  637MOL0     N85911   5.717   3.573   3.085 -0.1244  0.3188 -0.3380
  637MOL0     N85912   5.701   3.619   3.213 -0.2382 -0.4121  0.9164
  637MOL0     C85913   6.979   3.552   3.554 -0.7336 -0.6279  0.8566
  637MOL0     C85914   7.096   3.498   3.580 -0.3274  0.9513  0.0654
  637MOL0     C85915   7.463   3.252   3.630 -0.0208  0.1269 -0.3708
  637MOL0     C85916   7.566   3.293   3.546 -0.5474 -1.5449 -0.3417
  637MOL0     C85917   7.701   3.256   3.559 -0.2099 -0.3390  0.5928
  637MOL0     C85918   7.734   3.151   3.654  0.0348 -0.8854  0.2868
  637MOL0     O85919   7.857   3.095   3.670  0.3208 -0.3891 -0.2307
  637MOL0     C85920   7.968   3.161   3.608  0.0018  0.6500  0.6794
  637MOL0     C85921   8.100   3.089   3.638 -0.4036  0.1968  0.0583
  637MOL0     C85922   8.103   2.935   3.610  0.2037 -0.1818  0.5096
  637MOL0     C85923   8.021   2.851   3.717 -0.1385 -0.3233 -0.5520
  637MOL0     C85924   8.046   2.708   3.693  1.0385  0.0328 -0.0001
  637MOL0     C85925   8.073   2.595   3.673  0.4286 -0.0198  0.0471
  637MOL0     C85926   7.631   3.104   3.734  0.6924  0.3350  0.4401
  637MOL0     C85927   7.492   3.147   3.721  0.5865  0.2165  0.0934
  637MOL0     H85928   7.132   3.337   3.276 -1.1044  2.7518 -1.9018
  637MOL0     H85929   6.921   3.438   3.245  0.7524  0.5328 -1.3335
  637MOL0     H85930   6.684   3.418   3.416  2.4081 -1.2399  3.0844
  637MOL0     H85931   6.687   3.528   3.560  0.1024  1.5009  0.2616
  637MOL0     H85932   6.570   3.699   3.426 -3.6284  2.0093 -2.4853
  637MOL0     H85933   6.544   3.583   3.299 -1.9604  1.7349  0.1659
  637MOL0     H85934   6.406   3.432   3.466  0.3490  1.0199 -4.0207
  637MOL0     H85935   6.411   3.561   3.591 -1.8140 -0.0927  0.0130
  637MOL0     H85936   6.297   3.704   3.409  0.1111 -1.0390 -4.0077
  637MOL0     H85937   6.274   3.550   3.326  1.0819  2.3856 -1.3161
  637MOL0     H85938   6.179   3.455   3.551 -0.9792 -0.4531 -0.2913
  637MOL0     H85939   6.190   3.622   3.612 -2.1955 -1.3814  1.6409
  637MOL0     H85940   6.008   3.527   3.366 -2.0144  0.9183  0.7820
  637MOL0     H85941   5.952   3.526   3.526  1.3925 -1.0698  1.2348
  637MOL0     H85942   6.015   3.785   3.505  1.3393 -3.7278  2.8674
  637MOL0     H85943   6.063   3.763   3.338 -1.3082 -0.5709 -0.3623
  637MOL0     H85944   5.813   3.825   3.389 -2.9913 -1.8524  2.4072
  637MOL0     H85945   5.798   3.664   3.446 -0.5013  0.8547  1.2757
  637MOL0     H85946   6.013   3.716   3.130 -0.4052  1.5432  0.2910
  637MOL0     H85947   5.949   3.657   2.868  0.6539 -0.2725  0.9603
  637MOL0     H85948   5.986   3.500   2.929  2.0942  1.9796 -0.6212
  637MOL0     H85949   5.760   3.422   2.844  0.3415 -0.0535 -0.2559
  637MOL0     H85950   5.874   3.473   2.728 -1.3796  1.1539 -1.8102
  637MOL0     H85951   5.766   3.693   2.696 -1.0547  1.1409 -0.0324
  637MOL0     H85952   5.644   3.642   2.821  0.3390  2.4564  0.4679
  637MOL0     H85953   5.560   3.466   2.668  0.0745 -0.5254 -0.5134
  637MOL0     H85954   5.698   3.492   2.556  0.8430  1.3208 -0.6560
  637MOL0     H85955   5.370   3.529   2.725  2.9337  0.9386 -1.1809
  637MOL0     H85956   5.032   3.525   2.760 -1.3613 -2.8182 -1.4496
  637MOL0     H85957   5.079   3.375   2.670  0.7823 -1.0440 -0.4091
  637MOL0     H85958   5.183   3.446   2.795  1.5669  0.1994 -1.1178
  637MOL0     H85959   4.721   3.664   2.655 -1.2103 -2.0952  0.3164
  637MOL0     H85960   4.486   3.675   2.605 -1.5620  0.0632 -2.1628
  637MOL0     H85961   4.252   3.560   2.552 -0.1719  1.0535  0.4790
  637MOL0     H85962   4.286   3.719   2.487  1.7543 -1.1077  2.4808
  637MOL0     H85963   4.138   3.630   2.276 -5.3552  0.2629 -0.9992
  637MOL0     H85964   4.098   3.505   2.399 -1.0716  0.3691  1.5405
  637MOL0     H85965   4.009   3.634   2.540  1.6309  0.8289 -0.3755
  637MOL0     H85966   3.939   3.686   2.374 -0.8599 -0.9672  1.0483
  637MOL0     H85967   4.120   3.854   2.561 -2.7482 -0.7195  3.2142
  637MOL0     H85968   4.089   3.884   2.384  0.0788 -0.1853 -0.0091
  637MOL0     H85969   3.887   3.864   2.605  0.5682  0.5000  2.0744
  637MOL0     H85970   3.860   3.906   2.432 -2.5967 -0.4040  1.9474
  637MOL0     H85971   4.002   4.081   2.632 -0.5301  0.3772 -0.1173
  637MOL0     H85972   3.987   4.116   2.460 -0.7032 -2.5896 -0.9922
  637MOL0     H85973   3.736   4.113   2.495  1.5279 -1.6137 -2.2028
  637MOL0     H85974   3.815   4.229   2.603 -1.2134 -0.5717 -0.4857
  637MOL0     H85975   3.674   3.974   2.656 -1.0699  0.2722 -1.2676
  637MOL0     H85976   3.654   4.134   2.735  1.6038  0.8721  0.6882
  637MOL0     H85977   4.542   3.409   2.282  0.7081 -1.0160  1.5629
  637MOL0     H85978   4.783   3.413   2.315 -0.1573 -1.0549  1.3170
  637MOL0     H85979   5.172   3.749   2.329  0.9789  1.1550 -0.5926
  637MOL0     H85980   5.409   3.762   2.368  1.0048 -0.7306  0.1023
  637MOL0     H85981   6.933   3.604   3.638  1.7285  3.0791  0.1553
  637MOL0     H85982   7.145   3.515   3.676 -1.6555 -0.0307  0.9517
  637MOL0     H85983   7.535   3.370   3.476  1.7543 -0.8922 -0.7290
  637MOL0     H85984   7.775   3.308   3.500 -0.0570 -0.1346  0.9604
  637MOL0     H85985   7.956   3.148   3.501 -1.4283  0.6721  0.8243
  637MOL0     H85986   7.980   3.266   3.636  2.0612  0.7456 -0.3835
  637MOL0     H85987   8.134   3.101   3.742 -2.1716 -3.2248  1.1939
  637MOL0     H85988   8.171   3.134   3.569 -2.6717  0.0402 -2.5324
  637MOL0     H85989   8.203   2.890   3.611  0.5470  0.5443 -0.0401
  637MOL0     H85990   8.062   2.913   3.511  4.7141  2.3106 -2.2452
  637MOL0     H85991   7.914   2.870   3.723 -0.4263 -2.1196  0.6430
  637MOL0     H85992   8.062   2.881   3.815 -3.3592  2.8059  0.0538
  637MOL0     H85993   8.097   2.491   3.662 -0.3279 -0.1676 -0.3455
  637MOL0     H85994   7.653   3.022   3.801  2.5857  0.3925 -0.0671
  637MOL0     H85995   7.411   3.115   3.786 -1.0683  1.6122 -1.1703
  638MOL0     O85996   2.846   6.154   7.485  0.2139 -0.6954 -0.6608
  638MOL0     C85997   2.867   6.097   7.591  0.5488  0.5851  0.4666
  638MOL0     O85998   2.777   6.005   7.649 -0.3994 -0.1943  0.6625
  638MOL0     C85999   2.662   5.980   7.584 -0.0470 -0.5164  0.1875
  638MOL0     C86000   2.670   5.871   7.489  0.1832 -0.2422  0.4075
  638MOL0     C86001   2.547   5.830   7.423 -0.5794  0.5482  0.4867
  638MOL0     C86002   2.426   5.891   7.461 -0.6959  0.5501 -0.2352
  638MOL0     O86003   2.318   5.830   7.409 -0.1677 -0.2270  0.1312
  638MOL0     C86004   2.191   5.879   7.447  0.2904 -0.4293 -0.4660
  638MOL0     C86005   2.083   5.790   7.385  0.3859  0.3836 -0.6687
  638MOL0     C86006   2.102   5.771   7.235 -0.2982  0.0539  0.7525
  638MOL0     C86007   1.969   5.734   7.163  0.0999  0.4606 -1.1761
  638MOL0     C86008   1.912   5.855   7.089 -0.8883  0.0379 -0.2695
  638MOL0     C86009   1.823   5.814   6.973 -1.0274  0.1938  0.5458
  638MOL0     C86010   1.908   5.792   6.842  0.2142 -0.5965 -0.0962
  638MOL0     C86011   1.823   5.794   6.721  0.1193  0.2230  0.1922
  638MOL0     N86012   1.740   5.676   6.702 -0.3769  0.4500  0.0647
  638MOL0     C86013   1.792   5.548   6.683  0.2794  0.0148  0.3553
  638MOL0     C86014   1.692   5.464   6.681 -0.0315 -0.0922  0.5084
  638MOL0     C86015   1.708   5.315   6.665 -0.3691 -0.3714 -0.2427
  638MOL0     C86016   1.775   5.286   6.531  0.2840  0.0073 -0.6042
  638MOL0     C86017   1.767   5.134   6.496 -0.5435  0.6431 -0.4306
  638MOL0     C86018   1.630   5.086   6.434 -0.3298 -0.7872  0.1587
  638MOL0     O86019   1.527   5.070   6.528  0.3093 -0.2024  0.6086
  638MOL0     C86020   1.390   5.055   6.497 -1.3400  0.1976 -0.1752
  638MOL0     C86021   1.312   5.091   6.604  0.6665 -0.4199 -0.7791
  638MOL0     C86022   1.167   5.087   6.599 -0.4412  0.0263  0.0972
  638MOL0     C86023   1.094   5.139   6.720 -0.5751 -0.5876 -0.9489
  638MOL0     C86024   1.105   5.045   6.479  0.4722  0.1422 -0.7994
  638MOL0     C86025   0.960   5.042   6.460 -0.6229 -1.0974 -0.0255
  638MOL0     O86026   0.869   5.090   6.554  0.1378 -0.3097 -0.5062
  638MOL0     C86027   0.736   5.101   6.520  0.4975  0.0870  0.7538
  638MOL0     C86028   0.657   5.218   6.554 -1.0166  0.6278 -0.7487
  638MOL0     C86029   0.522   5.228   6.532 -0.3408  1.1605  0.8007
  638MOL0     C86030   0.443   5.118   6.492  0.0836  0.1187  0.2949
  638MOL0     O86031   0.306   5.114   6.484  0.1704  0.1470  0.5209
  638MOL0     C86032   0.238   5.244   6.491 -0.1729  0.6733 -0.3544
  638MOL0     C86033   0.094   5.209   6.505 -0.3177  0.1658 -0.1679
  638MOL0     C86034   0.006   5.332   6.513  0.3776 -0.5931  0.0966
  638MOL0     C86035  -0.142   5.283   6.528  0.3908 -0.4318 -0.3086
  638MOL0     C86036  -0.225   5.388   6.590  0.0440 -0.9096  0.4105
  638MOL0     C86037  -0.370   5.344   6.588  0.8137  0.1300 -0.0715
  638MOL0     C86038  -0.474   5.450   6.628  0.3303  0.0318  0.0222
  638MOL0     C86039  -0.623   5.408   6.618 -0.2726 -0.0113  0.4973
  638MOL0    Cl86040  -0.721   5.491   6.743 -0.4140 -0.2182  0.2623
  638MOL0     C86041   0.514   5.004   6.464 -0.4645  0.0764  0.5708
  638MOL0     C86042   0.657   4.996   6.476 -0.4879  0.3618 -1.1982
  638MOL0     O86043   0.923   5.002   6.347  0.0203 -0.3888 -0.7680
  638MOL0     C86044   1.194   5.011   6.377 -0.5081 -0.2511  0.2770
  638MOL0     C86045   1.335   5.010   6.380 -0.0531  0.7297 -0.3713
  638MOL0     N86046   1.572   5.538   6.684 -1.1645  0.0361  0.8691
  638MOL0     N86047   1.598   5.665   6.687  0.6011  0.0932  0.1712
  638MOL0     C86048   2.421   5.988   7.571  0.3479  0.0249 -0.0009
  638MOL0     C86049   2.543   6.030   7.629 -0.3100  0.2900 -0.7193
  638MOL0     C86050   3.008   6.105   7.630 -0.2693  0.0135  0.9271
  638MOL0     C86051   3.104   6.200   7.589  0.3295 -0.2904 -0.7442
  638MOL0     C86052   3.236   6.194   7.633 -0.5232  0.0541  0.6639
  638MOL0     C86053   3.282   6.098   7.717  0.4045  0.3254 -0.0688
  638MOL0     O86054   3.404   6.077   7.768  0.2239 -0.2192  0.6213
  638MOL0     C86055   3.518   6.155   7.714 -0.1021 -0.0545 -0.2811
  638MOL0     C86056   3.651   6.090   7.751  0.1756 -0.3618  0.2451
  638MOL0     C86057   3.657   5.944   7.709 -0.8986  0.7491  0.0456
  638MOL0     C86058   3.772   5.874   7.783  0.2314 -0.6012  0.1243
  638MOL0     C86059   3.902   5.943   7.798 -0.6957 -0.3168  0.1974
  638MOL0     C86060   4.007   6.002   7.788 -0.0734 -0.7123  0.2740
  638MOL0     C86061   3.186   6.004   7.758 -0.4511  0.3830  0.9256
  638MOL0     C86062   3.048   6.007   7.718 -0.6254 -0.4935 -0.6160
  638MOL0     H86063   2.758   5.817   7.459  2.5755  2.2861  2.3092
  638MOL0     H86064   2.556   5.747   7.354  0.2567 -1.0310  2.4125
  638MOL0     H86065   2.179   5.871   7.555  0.5635 -2.1037 -0.5408
  638MOL0     H86066   2.172   5.983   7.419 -4.5101 -0.6232  1.1759
  638MOL0     H86067   2.099   5.688   7.420  3.4398  0.0589 -2.6312
  638MOL0     H86068   1.985   5.833   7.408  0.6048  1.4692 -1.6557
  638MOL0     H86069   2.143   5.866   7.199  4.4260 -1.6129  0.9699
  638MOL0     H86070   2.185   5.702   7.218  0.0199  0.0641  2.0969
  638MOL0     H86071   2.007   5.660   7.092 -0.0060 -1.0556  0.2844
  638MOL0     H86072   1.893   5.687   7.227 -0.2367  0.4962 -1.5469
  638MOL0     H86073   1.845   5.911   7.155 -1.2395  0.7552 -1.2150
  638MOL0     H86074   1.997   5.920   7.068 -1.2235  1.3548  2.0892
  638MOL0     H86075   1.765   5.725   7.001 -0.2782  0.0898  1.8895
  638MOL0     H86076   1.759   5.901   6.959  0.2623  1.0120 -0.4510
  638MOL0     H86077   1.978   5.873   6.821  1.0752 -1.3965 -0.3933
  638MOL0     H86078   1.954   5.693   6.854  0.0445 -0.4484  2.1542
  638MOL0     H86079   1.874   5.817   6.627 -1.2426  2.7873 -0.0244
  638MOL0     H86080   1.757   5.881   6.732 -0.8444  0.0001 -2.9209
  638MOL0     H86081   1.893   5.511   6.695  0.7061  0.9384 -0.2919
  638MOL0     H86082   1.780   5.275   6.737  0.2290 -0.0582 -0.6606
  638MOL0     H86083   1.614   5.259   6.667  0.7202 -2.2656 -0.0158
  638MOL0     H86084   1.881   5.316   6.528  0.1869  0.4890  0.3154
  638MOL0     H86085   1.727   5.347   6.454  1.0856  0.3146 -0.8730
  638MOL0     H86086   1.796   5.078   6.586 -1.8403  1.1955  0.3507
  638MOL0     H86087   1.845   5.108   6.424  0.4055 -0.7356  1.0199
  638MOL0     H86088   1.637   4.991   6.380 -0.7167 -0.3869 -0.6131
  638MOL0     H86089   1.597   5.157   6.357 -2.5313 -1.7951  0.1029
  638MOL0     H86090   1.354   5.133   6.695 -0.3352  1.4181 -1.1167
  638MOL0     H86091   1.022   5.066   6.758  0.8988 -0.7974  1.6530
  638MOL0     H86092   1.162   5.161   6.803 -2.3265 -0.2247  0.4744
  638MOL0     H86093   1.038   5.230   6.694 -0.4233 -0.4581 -0.8277
  638MOL0     H86094   0.711   5.302   6.596 -0.2678 -1.2923  2.5398
  638MOL0     H86095   0.475   5.324   6.553  1.4579  1.7604  2.3170
  638MOL0     H86096   0.259   5.300   6.583  1.3087  1.3238 -1.0531
  638MOL0     H86097   0.250   5.310   6.405 -2.8071 -0.3814 -1.6545
  638MOL0     H86098   0.068   5.145   6.421 -1.0009  2.0805 -1.4858
  638MOL0     H86099   0.078   5.158   6.600 -1.6961  4.6046  2.2894
  638MOL0     H86100   0.024   5.391   6.422 -0.0987  0.1018  0.4456
  638MOL0     H86101   0.036   5.384   6.604  1.9386 -2.8107  0.9281
  638MOL0     H86102  -0.174   5.255   6.427  1.4574 -1.5545 -0.3636
  638MOL0     H86103  -0.145   5.204   6.603 -0.7684  0.4826  0.6418
  638MOL0     H86104  -0.227   5.482   6.535 -0.3969 -0.9064  0.4277
  638MOL0     H86105  -0.199   5.414   6.693  1.7933  0.7679 -0.3966
  638MOL0     H86106  -0.384   5.314   6.484 -1.7249 -1.6130  0.6671
  638MOL0     H86107  -0.390   5.261   6.656 -2.4391  0.6162 -0.2636
  638MOL0     H86108  -0.457   5.544   6.576  0.9210  0.6260  1.2327
  638MOL0     H86109  -0.458   5.461   6.736  4.0397  1.4484 -0.5322
  638MOL0     H86110  -0.617   5.299   6.626 -0.7703 -0.1988 -1.2227
  638MOL0     H86111  -0.654   5.432   6.516  1.3949  0.5429  0.0856
  638MOL0     H86112   0.474   4.914   6.419  0.1343 -1.2132  2.4862
  638MOL0     H86113   0.711   4.904   6.456 -1.7567 -1.3554  2.3831
  638MOL0     H86114   1.156   4.976   6.282 -2.4913  4.0642 -0.7872
  638MOL0     H86115   1.391   4.995   6.288 -1.2020  3.7425 -1.7021
  638MOL0     H86116   2.328   6.029   7.609 -0.4065  0.5082 -2.2649
  638MOL0     H86117   2.546   6.104   7.708 -1.5050 -0.0987 -0.2886
  638MOL0     H86118   3.091   6.283   7.520  3.1469 -0.0096 -1.0669
  638MOL0     H86119   3.296   6.271   7.585  0.6403 -1.2799 -0.0905
  638MOL0     H86120   3.522   6.147   7.605  1.7305 -0.6097 -0.1980
  638MOL0     H86121   3.509   6.257   7.751 -1.1329 -0.1166 -0.3112
  638MOL0     H86122   3.661   6.108   7.858 -0.4106 -2.7237  0.7526
  638MOL0     H86123   3.723   6.148   7.692 -1.7463 -0.7084 -2.6855
  638MOL0     H86124   3.681   5.940   7.603  0.7279  0.8031  0.3843
  638MOL0     H86125   3.562   5.895   7.731 -1.1247  0.0580 -2.2226
  638MOL0     H86126   3.793   5.775   7.742 -0.6892 -0.4263 -0.7940
  638MOL0     H86127   3.732   5.858   7.884 -0.1030 -1.4326 -0.1344
  638MOL0     H86128   4.096   6.054   7.759  1.6856 -3.9790 -0.5316
  638MOL0     H86129   3.211   5.912   7.811  1.6401  1.1346  1.3664
  638MOL0     H86130   2.984   5.936   7.768  0.6748 -0.9551  0.4466
  639MOL0     O86131   2.889   9.082   7.984  0.7335 -0.0568  0.1644
  639MOL0     C86132   2.987   9.032   8.051 -0.2710  0.0465  0.6652
  639MOL0     O86133   2.994   9.019   8.186  0.7343 -0.1374  0.1622
  639MOL0     C86134   2.896   9.072   8.272  0.1756 -0.1187 -0.5383
  639MOL0     C86135   2.767   9.116   8.237 -0.2693 -0.1052  0.6002
  639MOL0     C86136   2.672   9.155   8.335 -0.0473 -0.3410  0.9989
  639MOL0     C86137   2.700   9.144   8.474 -0.5124 -0.4370  0.6692
  639MOL0     O86138   2.593   9.160   8.560 -0.4127  0.3588 -0.6375
  639MOL0     C86139   2.611   9.143   8.698 -0.5273 -1.3578 -0.5691
  639MOL0     C86140   2.515   9.230   8.785  0.3633 -0.1512  0.6966
  639MOL0     C86141   2.573   9.239   8.923 -0.3874  0.0980  0.8946
  639MOL0     C86142   2.485   9.310   9.025  0.4925 -0.1507  0.7289
  639MOL0     C86143   2.546   9.293   9.159 -0.5315  0.1354  0.1553
  639MOL0     C86144   2.467   9.387   9.250 -0.2732 -0.9075  0.2830
  639MOL0     C86145   2.503   9.372   9.401  0.3980  0.0636 -0.6809
  639MOL0     C86146   2.423   9.472   9.495  0.6300  0.0284 -1.3039
  639MOL0     N86147   2.490   9.600   9.503  0.0916  0.2208 -0.0730
  639MOL0     C86148   2.560   9.653   9.610 -0.1153 -0.2406  0.0990
  639MOL0     C86149   2.585   9.783   9.583  0.2347  0.4706  0.4344
  639MOL0     C86150   2.664   9.857   9.679 -0.4952 -0.1598  0.9241
  639MOL0     C86151   2.596   9.871   9.813 -0.6342 -0.0129 -0.0503
  639MOL0     C86152   2.536  10.014   9.849 -0.4314  0.1078 -0.2375
  639MOL0     C86153   2.482  10.000   9.991  0.6301  0.8604  0.0124
  639MOL0     O86154   2.376   9.898   9.997  0.1127 -0.5287 -0.1503
  639MOL0     C86155   2.254   9.946   9.961  0.4745 -0.1530  0.6518
  639MOL0     C86156   2.188  10.046  10.032 -0.1158 -0.4640 -0.6715
  639MOL0     C86157   2.056  10.096   9.993 -0.2904 -0.6747 -0.7522
  639MOL0     C86158   2.005  10.209  10.076  0.4588 -0.0312  0.4348
  639MOL0     C86159   1.991  10.046   9.874 -0.3878 -0.2413 -0.4170
  639MOL0     C86160   1.861  10.097   9.825  0.1164 -0.2344  0.2873
  639MOL0     O86161   1.841  10.082   9.692  0.1409 -0.2570 -0.5064
  639MOL0     C86162   1.725  10.143   9.649 -1.0149  1.0192 -0.5969
  639MOL0     C86163   1.718  10.275   9.616  1.1071 -0.4503 -0.1737
  639MOL0     C86164   1.605  10.328   9.561 -0.6051  0.0298 -0.2778
  639MOL0     C86165   1.484  10.257   9.562  0.1862 -0.1173 -0.7282
  639MOL0     O86166   1.376  10.324   9.516 -0.5635  0.2543  0.1303
  639MOL0     C86167   1.244  10.293   9.560 -0.6755  0.0435  0.5625
  639MOL0     C86168   1.157  10.396   9.494  0.8420  0.9138 -0.4083
  639MOL0     C86169   1.023  10.424   9.562  0.6419 -0.2077  0.7447
  639MOL0     C86170   0.918  10.304   9.560 -0.7234  0.1780 -0.0524
  639MOL0     C86171   0.782  10.351   9.612 -0.1016 -0.4134  0.0576
  639MOL0     C86172   0.772  10.363   9.764  0.5392 -0.5121 -0.1603
  639MOL0     C86173   0.645  10.433   9.815  0.3030 -0.2127 -0.1671
  639MOL0     C86174   0.603  10.363   9.949 -0.3432 -0.0323  0.3378
  639MOL0    Cl86175   0.437  10.443   9.986 -0.1633  0.3992  0.1761
  639MOL0     C86176   1.487  10.124   9.616  0.0479 -0.1141  0.0170
  639MOL0     C86177   1.609  10.063   9.651 -0.2215  1.3440  0.7436
  639MOL0     O86178   1.778  10.140   9.906  0.1767  0.4424  0.3017
  639MOL0     C86179   2.069   9.951   9.808 -0.3633 -0.1629 -0.3183
  639MOL0     C86180   2.200   9.905   9.839  0.3054 -0.4976 -0.1760
  639MOL0     N86181   2.529   9.809   9.460  0.0977 -0.2734 -0.3753
  639MOL0     N86182   2.465   9.703   9.418  0.2055 -0.4639  0.1603
  639MOL0     C86183   2.828   9.092   8.506 -0.0288  1.0245 -0.0533
  639MOL0     C86184   2.926   9.059   8.413 -0.4042 -0.1557 -0.5904
  639MOL0     C86185   3.109   9.027   7.975  0.6850  1.4639  0.6790
  639MOL0     C86186   3.150   9.119   7.881  0.5684  0.2675  1.2752
  639MOL0     C86187   3.276   9.098   7.817 -0.0975 -0.8948 -0.1742
  639MOL0     C86188   3.347   8.980   7.827  0.0717 -0.1269 -0.7030
  639MOL0     O86189   3.456   8.966   7.750 -0.6013 -0.4516  0.4934
  639MOL0     C86190   3.454   8.850   7.666 -0.0603  0.2493  0.0632
  639MOL0     C86191   3.374   8.863   7.542 -0.1796 -0.1396  0.5122
  639MOL0     C86192   3.365   8.740   7.443  1.3560  0.0910 -0.1217
  639MOL0     C86193   3.282   8.785   7.318 -0.1030 -0.4048  0.6726
  639MOL0     C86194   3.238   8.671   7.236 -0.0395  0.1098 -0.9617
  639MOL0     C86195   3.193   8.580   7.180  0.8274  0.4200  0.3969
  639MOL0     C86196   3.303   8.895   7.929 -0.1401 -0.3631 -0.6322
  639MOL0     C86197   3.190   8.922   8.001  0.5529  0.4140  1.4470
  639MOL0     H86198   2.738   9.122   8.133  0.7649  0.8516  0.3563
  639MOL0     H86199   2.569   9.178   8.311  0.4920  1.7411  0.4655
  639MOL0     H86200   2.616   9.035   8.714  1.5278 -1.1856  0.2274
  639MOL0     H86201   2.709   9.181   8.725 -1.9450  2.9460 -0.7825
  639MOL0     H86202   2.519   9.333   8.750  2.0706 -0.1870  0.6696
  639MOL0     H86203   2.412   9.194   8.782 -0.4257  1.8741  1.7545
  639MOL0     H86204   2.588   9.133   8.945 -1.7442  0.0487  1.6669
  639MOL0     H86205   2.673   9.283   8.915 -0.7720  1.0991  1.4326
  639MOL0     H86206   2.499   9.412   8.988  3.1236 -1.3145 -1.8970
  639MOL0     H86207   2.380   9.282   9.037 -0.0432  1.1013 -0.6719
  639MOL0     H86208   2.546   9.190   9.194  1.5117  0.6337  1.8337
  639MOL0     H86209   2.648   9.332   9.146 -1.5548  2.9596 -0.2294
  639MOL0     H86210   2.476   9.490   9.214  0.7238 -1.6561 -1.7542
  639MOL0     H86211   2.362   9.357   9.249 -0.3779 -0.6474 -2.0896
  639MOL0     H86212   2.485   9.266   9.422  1.1185  0.2026  0.7522
  639MOL0     H86213   2.610   9.383   9.422 -0.0926  0.2103  2.1046
  639MOL0     H86214   2.445   9.433   9.595  1.0972 -2.5119 -2.3199
  639MOL0     H86215   2.316   9.492   9.481  0.2611  0.8344  1.8288
  639MOL0     H86216   2.598   9.601   9.698 -1.2811  1.3265  1.6086
  639MOL0     H86217   2.760   9.807   9.690 -0.4640 -0.8549 -1.7547
  639MOL0     H86218   2.685   9.956   9.638 -2.3493  0.6074  1.6847
  639MOL0     H86219   2.667   9.845   9.892 -0.6573 -4.1523 -1.1715
  639MOL0     H86220   2.514   9.799   9.820 -0.0526 -0.9621 -2.2723
  639MOL0     H86221   2.453  10.040   9.782 -0.2850  1.5167  0.1051
  639MOL0     H86222   2.612  10.093   9.847 -1.1640  0.8091 -1.7760
  639MOL0     H86223   2.447  10.094  10.033 -1.1021 -0.2593  1.1982
  639MOL0     H86224   2.572   9.976  10.049 -0.3729  0.9835  1.6837
  639MOL0     H86225   2.239  10.084  10.119 -1.4863 -0.5143  0.1920
  639MOL0     H86226   1.944  10.281  10.021 -2.5510 -1.5884  1.5077
  639MOL0     H86227   1.943  10.170  10.157  2.3674  1.7225  2.8813
  639MOL0     H86228   2.085  10.258  10.132  3.2678 -2.1559 -1.4112
  639MOL0     H86229   1.809  10.332   9.630 -0.3142  1.9834 -0.1134
  639MOL0     H86230   1.595  10.433   9.534 -0.3165  0.2888  0.6089
  639MOL0     H86231   1.225  10.195   9.515  0.6485 -0.4534  1.0539
  639MOL0     H86232   1.242  10.308   9.668 -3.3775  0.9651  0.4763
  639MOL0     H86233   1.204  10.495   9.496 -0.7824  1.7095 -0.2255
  639MOL0     H86234   1.134  10.360   9.393 -0.2047  0.2873  0.0390
  639MOL0     H86235   0.983  10.513   9.512  3.5379  1.9385  1.9925
  639MOL0     H86236   1.039  10.444   9.668 -0.8664  2.4442  0.5550
  639MOL0     H86237   0.891  10.273   9.459  0.7302 -0.0241 -0.3994
  639MOL0     H86238   0.951  10.219   9.619 -3.9770 -0.0157  1.7150
  639MOL0     H86239   0.706  10.277   9.585 -0.2960 -0.6877  1.3008
  639MOL0     H86240   0.754  10.446   9.565  1.1411  0.7869  1.6264
  639MOL0     H86241   0.773  10.258   9.794 -1.4765 -1.1653 -2.0993
  639MOL0     H86242   0.853  10.417   9.814 -2.6090  0.6196  4.2563
  639MOL0     H86243   0.564  10.411   9.745 -1.5768 -0.5090  1.9935
  639MOL0     H86244   0.656  10.542   9.813 -0.4829 -0.1189  0.2661
  639MOL0     H86245   0.673  10.398  10.025 -0.2237 -1.2103  0.8014
  639MOL0     H86246   0.603  10.253   9.949 -2.2483 -0.0636  0.6204
  639MOL0     H86247   1.396  10.066   9.626 -1.3420  2.3007  3.8568
  639MOL0     H86248   1.611   9.961   9.689  1.1482  1.3839  0.8207
  639MOL0     H86249   2.023   9.926   9.713  0.5684 -0.1090 -0.7985
  639MOL0     H86250   2.250   9.830   9.780  1.1181 -0.6224  0.6494
  639MOL0     H86251   2.844   9.067   8.610  3.6602  6.7799  1.2317
  639MOL0     H86252   3.024   9.020   8.441  0.4734  1.7311 -0.8762
  639MOL0     H86253   3.084   9.201   7.854 -1.2494 -1.0469  1.4934
  639MOL0     H86254   3.315   9.166   7.742 -0.8110 -0.9853 -0.6410
  639MOL0     H86255   3.558   8.830   7.640  0.8953  1.6004  2.5065
  639MOL0     H86256   3.408   8.769   7.724 -0.2375 -0.6763 -1.3260
  639MOL0     H86257   3.421   8.942   7.483  0.3722 -1.2418 -0.5785
  639MOL0     H86258   3.269   8.887   7.563 -0.2938  0.1898 -0.3676
  639MOL0     H86259   3.322   8.648   7.482  0.0311  1.1175  0.9091
  639MOL0     H86260   3.463   8.708   7.406  1.1043 -3.6306  1.9228
  639MOL0     H86261   3.340   8.856   7.259  1.6531 -0.7609  1.8876
  639MOL0     H86262   3.199   8.848   7.350 -0.0980 -1.0870  2.1258
  639MOL0     H86263   3.156   8.500   7.119  0.6793  1.0057 -0.2850
  639MOL0     H86264   3.358   8.807   7.959 -2.7581 -1.0297  2.8470
  639MOL0     H86265   3.151   8.847   8.069 -4.0585 -0.9417 -2.1445
  640MOL0     O86266   1.765   1.920   8.758  0.2100  0.4856  0.5976
  640MOL0     C86267   1.783   1.930   8.633  0.1095 -0.8119 -0.9511
  640MOL0     O86268   1.687   1.959   8.538 -0.3708 -0.4909  0.4497
  640MOL0     C86269   1.583   2.048   8.566  0.0054 -0.5600  0.4890
  640MOL0     C86270   1.461   2.030   8.505  0.1609 -1.4060  0.1217
  640MOL0     C86271   1.352   2.121   8.526  0.0545 -0.1868 -0.1276
  640MOL0     C86272   1.365   2.229   8.606 -0.6560 -0.2457  0.9367
  640MOL0     O86273   1.262   2.319   8.620  0.7695 -0.0087 -0.2773
  640MOL0     C86274   1.246   2.393   8.735  0.2957  0.5595 -0.6779
  640MOL0     C86275   1.097   2.430   8.745  0.0248 -0.1929 -1.0749
  640MOL0     C86276   1.073   2.465   8.897 -0.1751 -0.2265 -0.4221
  640MOL0     C86277   0.939   2.524   8.923  0.1189  0.1946 -0.6741
  640MOL0     C86278   0.835   2.425   8.979 -0.3696  0.2518  0.3944
  640MOL0     C86279   0.694   2.487   8.975 -1.0273  1.0342 -0.4694
  640MOL0     C86280   0.590   2.376   8.988 -0.9853  0.3379  0.4873
  640MOL0     C86281   0.456   2.438   8.964  0.0000  0.4741 -0.1224
  640MOL0     N86282   0.347   2.339   8.954  0.3743 -0.4307  1.0454
  640MOL0     C86283   0.299   2.263   8.845 -0.4072 -0.5442  0.3548
  640MOL0     C86284   0.190   2.203   8.890  0.0134  0.7584 -0.2758
  640MOL0     C86285   0.099   2.123   8.806 -1.4035 -0.1649  0.4997
  640MOL0     C86286  -0.027   2.206   8.792 -0.5511 -0.8641  0.3174
  640MOL0     C86287  -0.114   2.189   8.925  0.6574  0.2566 -0.2736
  640MOL0     C86288  -0.261   2.153   8.899  0.3745 -0.3587 -0.8783
  640MOL0     O86289  -0.311   2.237   8.792 -0.1448 -0.3310 -0.1627
  640MOL0     C86290  -0.446   2.252   8.774 -0.6393  0.7840 -0.3374
  640MOL0     C86291  -0.496   2.358   8.699  0.6464  0.7316  0.6193
  640MOL0     C86292  -0.634   2.374   8.671  0.4719  0.5596  1.0603
  640MOL0     C86293  -0.671   2.486   8.583  0.4325 -0.2375 -0.3468
  640MOL0     C86294  -0.725   2.275   8.713  0.2402  0.0437 -0.3866
  640MOL0     C86295  -0.872   2.293   8.704 -0.0413  1.0116 -0.0469
  640MOL0     O86296  -0.940   2.186   8.757  0.7243  0.1190 -0.7795
  640MOL0     C86297  -1.082   2.177   8.766  0.3299  0.2782  0.8425
  640MOL0     C86298  -1.171   2.284   8.768  0.0726  1.2538  0.0673
  640MOL0     C86299  -1.315   2.257   8.785  0.1604  0.4105  0.0737
  640MOL0     C86300  -1.370   2.127   8.772  0.2237 -0.7218 -0.9691
  640MOL0     O86301  -1.507   2.103   8.795  0.4103  0.0160  0.6136
  640MOL0     C86302  -1.569   1.976   8.780  0.1319  0.0787  0.2421
  640MOL0     C86303  -1.719   2.004   8.767  0.1773  0.0976 -1.2781
  640MOL0     C86304  -1.749   2.070   8.637  0.7763  0.1687  0.9582
  640MOL0     C86305  -1.900   2.037   8.601 -0.0974 -0.1729  0.5705
  640MOL0     C86306  -1.940   2.079   8.463 -0.7793  0.9043  0.1094
  640MOL0     C86307  -2.090   2.043   8.438  0.6042 -0.0065  0.2974
  640MOL0     C86308  -2.134   2.125   8.322  0.7876  0.9393  1.1281
  640MOL0     C86309  -2.286   2.091   8.298 -0.4230  0.3818  0.0608
  640MOL0    Cl86310  -2.402   2.125   8.430 -0.3603  0.1582 -0.3023
  640MOL0     C86311  -1.272   2.024   8.765 -1.4108  0.0127  1.0888
  640MOL0     C86312  -1.136   2.048   8.754  0.5018  0.5074  0.1224
  640MOL0     O86313  -0.922   2.394   8.649 -1.4811  0.1848  0.0518
  640MOL0     C86314  -0.671   2.171   8.790 -0.4535  0.1853 -0.7367
  640MOL0     C86315  -0.540   2.146   8.811 -0.0225 -0.9776 -0.5324
  640MOL0     N86316   0.179   2.225   9.030  0.5889 -0.0699 -0.6966
  640MOL0     N86317   0.269   2.314   9.065  0.1015 -0.4280  0.2583
  640MOL0     C86318   1.485   2.247   8.678 -0.3306 -0.5141  0.2409
  640MOL0     C86319   1.597   2.161   8.655  0.0880 -0.0224  0.4908
  640MOL0     C86320   1.906   1.875   8.573 -0.1804 -0.1137  0.8220
  640MOL0     C86321   1.986   1.948   8.491 -0.4559  0.1684 -0.4054
  640MOL0     C86322   2.108   1.899   8.442 -0.7481  0.2244 -0.8716
  640MOL0     C86323   2.137   1.760   8.456  0.0420  0.1234  0.4869
  640MOL0     O86324   2.251   1.720   8.390 -0.6965 -0.0443 -0.0696
  640MOL0     C86325   2.282   1.580   8.377  1.0306 -0.6629 -0.0366
  640MOL0     C86326   2.370   1.566   8.271  0.2282  0.4486 -0.2513
  640MOL0     C86327   2.498   1.637   8.293  0.2937  0.2385 -0.2065
  640MOL0     C86328   2.575   1.615   8.430  0.2658  0.7187 -0.6526
  640MOL0     C86329   2.604   1.481   8.475 -0.7629  0.1911 -0.6719
  640MOL0     C86330   2.625   1.374   8.542  0.6676  0.0308  0.6576
  640MOL0     C86331   2.063   1.693   8.547 -0.0401  0.9268  0.9015
  640MOL0     C86332   1.935   1.744   8.586  0.4518 -0.0056  0.1041
  640MOL0     H86333   1.445   1.952   8.431  0.8682  0.8389 -2.5660
  640MOL0     H86334   1.253   2.101   8.485 -0.9577 -0.3780  2.2453
  640MOL0     H86335   1.265   2.333   8.825 -2.5906  2.6330  1.5181
  640MOL0     H86336   1.308   2.482   8.745  0.6977  0.1013  1.2796
  640MOL0     H86337   1.085   2.519   8.683  0.6391  0.4997 -0.2292
  640MOL0     H86338   1.033   2.349   8.710 -3.0074  2.3079 -1.8017
  640MOL0     H86339   1.089   2.374   8.956 -3.1627 -0.6537 -0.1515
  640MOL0     H86340   1.147   2.536   8.936 -0.3017 -1.3423  2.0793
  640MOL0     H86341   0.949   2.604   8.997  2.0977  1.5031 -2.2547
  640MOL0     H86342   0.900   2.565   8.829  0.5014  2.2894  0.0202
  640MOL0     H86343   0.839   2.334   8.919  1.4087 -0.3164  1.2884
  640MOL0     H86344   0.870   2.410   9.082 -1.4083  0.5280  0.8026
  640MOL0     H86345   0.681   2.551   9.063 -0.0725  1.4573 -0.6272
  640MOL0     H86346   0.693   2.553   8.888 -0.9207 -0.2868 -1.5016
  640MOL0     H86347   0.612   2.292   8.922 -0.6201 -1.8084  3.1469
  640MOL0     H86348   0.612   2.328   9.084 -3.2107  0.1321  0.9598
  640MOL0     H86349   0.452   2.512   8.884 -2.2928  0.4892 -0.0573
  640MOL0     H86350   0.446   2.504   9.050  1.3330 -1.1196  1.3224
  640MOL0     H86351   0.351   2.266   8.750  1.2845 -1.9754  1.1809
  640MOL0     H86352   0.146   2.114   8.708 -0.9929 -5.1457  0.8803
  640MOL0     H86353   0.091   2.024   8.851 -2.9997  0.1948  1.0567
  640MOL0     H86354  -0.075   2.154   8.708 -0.3966 -0.8227  0.2029
  640MOL0     H86355  -0.002   2.308   8.761 -0.0230 -1.0053  0.2786
  640MOL0     H86356  -0.123   2.283   8.980 -2.4822 -0.8176  1.3025
  640MOL0     H86357  -0.086   2.107   8.991 -2.2123 -1.4916 -1.0213
  640MOL0     H86358  -0.319   2.170   8.990  0.4211  0.0284 -0.9197
  640MOL0     H86359  -0.273   2.047   8.876  0.3312 -1.9953  4.9562
  640MOL0     H86360  -0.426   2.433   8.665  0.6034  0.6898  0.4363
  640MOL0     H86361  -0.738   2.457   8.501  0.8211 -0.4903 -0.5759
  640MOL0     H86362  -0.705   2.577   8.635  0.1428 -0.3416 -0.3486
  640MOL0     H86363  -0.577   2.523   8.542  0.4982  1.2938  1.0738
  640MOL0     H86364  -1.143   2.388   8.775 -0.5317  1.5282 -1.2861
  640MOL0     H86365  -1.393   2.332   8.796 -1.0062 -0.7060 -0.2865
  640MOL0     H86366  -1.539   1.924   8.689 -0.3748  1.7774 -0.9465
  640MOL0     H86367  -1.549   1.923   8.873  0.2120  1.6446  1.1535
  640MOL0     H86368  -1.774   1.910   8.774  1.2077 -0.7252 -3.4793
  640MOL0     H86369  -1.747   2.061   8.857  2.4863 -0.6208 -0.0099
  640MOL0     H86370  -1.690   2.038   8.551 -2.9509 -1.2339 -1.3701
  640MOL0     H86371  -1.736   2.178   8.647  3.6140  0.0075 -0.2224
  640MOL0     H86372  -1.930   1.934   8.624  1.0465 -0.0771  2.7064
  640MOL0     H86373  -1.969   2.090   8.667 -0.6912  2.4613 -1.9808
  640MOL0     H86374  -1.880   2.035   8.383  2.0056  0.3635  2.3188
  640MOL0     H86375  -1.919   2.186   8.454  0.7143  0.8419  2.0468
  640MOL0     H86376  -2.105   1.937   8.415  1.6093  0.2677 -1.7809
  640MOL0     H86377  -2.145   2.059   8.531  0.9434 -3.1054  1.1776
  640MOL0     H86378  -2.081   2.095   8.231 -1.8169 -1.6242  0.2799
  640MOL0     H86379  -2.117   2.232   8.341  2.0026  0.6560  1.7122
  640MOL0     H86380  -2.314   1.994   8.255  3.4494 -0.5870 -0.6267
  640MOL0     H86381  -2.324   2.159   8.221 -2.5598 -1.1454 -0.3523
  640MOL0     H86382  -1.318   1.926   8.753 -1.9559  0.3843 -0.0571
  640MOL0     H86383  -1.068   1.964   8.742 -2.5912 -2.3055  0.7080
  640MOL0     H86384  -0.734   2.102   8.845 -0.7554  1.9058  1.2115
  640MOL0     H86385  -0.509   2.062   8.871 -0.1058 -0.5197  0.1644
  640MOL0     H86386   1.498   2.328   8.748 -3.1002 -1.2593  1.7790
  640MOL0     H86387   1.692   2.187   8.702 -0.7547  1.9399  1.2251
  640MOL0     H86388   1.956   2.050   8.469  0.2332 -0.1854 -3.3595
  640MOL0     H86389   2.166   1.958   8.371 -1.3942 -1.2720 -2.6963
  640MOL0     H86390   2.326   1.550   8.472 -2.5151 -2.5272  1.2010
  640MOL0     H86391   2.189   1.523   8.366  0.1927 -0.2968  3.8328
  640MOL0     H86392   2.330   1.600   8.175  0.6480  1.0442 -0.2184
  640MOL0     H86393   2.399   1.461   8.258  1.0794  0.8075 -1.3996
  640MOL0     H86394   2.476   1.744   8.279  0.2582 -0.1774 -4.3415
  640MOL0     H86395   2.569   1.597   8.221  1.5494 -2.3740  2.2774
  640MOL0     H86396   2.515   1.663   8.508 -0.0411 -2.7357  1.4681
  640MOL0     H86397   2.671   1.666   8.441  2.1672 -3.0281  3.1481
  640MOL0     H86398   2.661   1.283   8.585  1.7432  0.0872 -0.0866
  640MOL0     H86399   2.105   1.605   8.595  0.7114 -0.0441 -1.4002
  640MOL0     H86400   1.867   1.677   8.638  2.1135 -1.1271  0.8942
  641MOL0     O86401   2.549   4.965   2.335  0.7636  0.2207  0.1195
  641MOL0     C86402   2.591   4.871   2.273  0.1664  0.0272  0.8733
  641MOL0     O86403   2.539   4.745   2.267 -0.3297  0.2625 -0.3267
  641MOL0     C86404   2.417   4.719   2.334 -0.0360 -0.1746  0.5958
  641MOL0     C86405   2.410   4.742   2.478 -1.1286  0.5504  0.1507
  641MOL0     C86406   2.303   4.704   2.553 -0.4733  0.1210 -0.6984
  641MOL0     C86407   2.198   4.640   2.493 -0.3083  0.0078 -0.5571
  641MOL0     O86408   2.091   4.587   2.557 -0.2700 -0.4299  0.3506
  641MOL0     C86409   2.133   4.471   2.627  0.1034 -0.3211  1.0095
  641MOL0     C86410   2.020   4.426   2.723 -0.1103 -1.0660  0.0127
  641MOL0     C86411   1.876   4.440   2.669 -0.2795 -0.2905 -0.4629
  641MOL0     C86412   1.789   4.399   2.785  0.1017  0.0562  0.0009
  641MOL0     C86413   1.644   4.449   2.756  0.4007  0.2580 -0.3988
  641MOL0     C86414   1.584   4.370   2.638 -0.2810  0.2195 -0.2096
  641MOL0     C86415   1.433   4.397   2.609  0.7593  0.3032  0.3111
  641MOL0     C86416   1.352   4.273   2.656  0.7658 -0.0529 -0.1709
  641MOL0     N86417   1.221   4.310   2.710 -0.1128  0.3319  0.7747
  641MOL0     C86418   1.102   4.302   2.648  0.0724  0.1324  0.2425
  641MOL0     C86419   1.010   4.342   2.743 -0.9617  0.2282  0.5805
  641MOL0     C86420   0.860   4.333   2.711  0.8811  0.0865  0.4210
  641MOL0     C86421   0.765   4.393   2.818  0.3554  0.1071  0.7687
  641MOL0     C86422   0.618   4.340   2.786 -0.4078 -0.4730  0.1026
  641MOL0     C86423   0.578   4.231   2.877  0.7468 -0.2225 -0.9271
  641MOL0     O86424   0.429   4.230   2.857 -0.9241  0.0835  0.2442
  641MOL0     C86425   0.379   4.119   2.797  0.0273  1.0115  0.1963
  641MOL0     C86426   0.446   4.035   2.706  0.0712  0.3273  0.2650
  641MOL0     C86427   0.388   3.914   2.674  0.0788  0.0292 -0.0980
  641MOL0     C86428   0.483   3.825   2.599  0.4386  0.1617 -0.6125
  641MOL0     C86429   0.250   3.885   2.689  0.4305  0.6126  0.0194
  641MOL0     C86430   0.184   3.765   2.643  0.5968 -0.7458  0.4421
  641MOL0     O86431   0.266   3.661   2.639 -0.9056 -0.5107  0.6132
  641MOL0     C86432   0.227   3.535   2.606 -0.0854 -0.5405  0.3003
  641MOL0     C86433   0.266   3.492   2.479 -0.3938  0.1276  0.5686
  641MOL0     C86434   0.218   3.371   2.431 -0.6141 -0.2233 -0.4272
  641MOL0     C86435   0.138   3.286   2.512 -0.4428 -0.4464  0.7385
  641MOL0     O86436   0.108   3.160   2.476 -0.5165 -0.2018 -0.3379
  641MOL0     C86437   0.067   3.133   2.340 -0.0383  0.3065  0.4803
  641MOL0     C86438  -0.044   3.033   2.342 -0.0489  0.7081 -0.2828
  641MOL0     C86439  -0.173   3.109   2.392 -0.4004  0.3690  0.9284
  641MOL0     C86440  -0.298   3.025   2.371  1.0576  0.2688  0.7446
  641MOL0     C86441  -0.410   3.085   2.460  0.3418 -0.4615  0.0317
  641MOL0     C86442  -0.533   2.994   2.445  0.7393 -0.1953  0.0282
  641MOL0     C86443  -0.650   3.068   2.502  0.5177 -0.2635 -0.0051
  641MOL0     C86444  -0.656   3.054   2.649 -0.3834 -0.6981  0.6102
  641MOL0    Cl86445  -0.808   3.136   2.692 -0.3372  0.2292 -0.0044
  641MOL0     C86446   0.102   3.329   2.637  0.2027 -0.3231  0.8507
  641MOL0     C86447   0.139   3.460   2.686  0.9349 -0.3572  0.0550
  641MOL0     O86448   0.060   3.763   2.638 -0.4664 -1.1954 -0.1948
  641MOL0     C86449   0.173   3.979   2.756 -0.5337  1.0331  0.4151
  641MOL0     C86450   0.244   4.087   2.819 -0.4370  0.0035 -0.4925
  641MOL0     N86451   1.084   4.367   2.867  0.1522  0.2372  0.1640
  641MOL0     N86452   1.208   4.355   2.840  0.3837 -0.4515 -0.0169
  641MOL0     C86453   2.193   4.627   2.351 -0.1155  0.3272 -0.2123
  641MOL0     C86454   2.304   4.652   2.273 -0.0536 -0.1515 -0.4783
  641MOL0     C86455   2.727   4.881   2.207  0.0575  0.1787 -0.0557
  641MOL0     C86456   2.797   4.769   2.158 -0.1977  0.1252 -0.0541
  641MOL0     C86457   2.913   4.780   2.082 -0.9203  0.2431 -0.7486
  641MOL0     C86458   2.973   4.906   2.056  0.6114  0.1539  0.3180
  641MOL0     O86459   3.083   4.911   1.976 -0.1793 -0.4552 -0.0604
  641MOL0     C86460   3.213   4.957   2.019 -0.9730 -0.2743 -0.3513
  641MOL0     C86461   3.271   4.846   2.113 -0.5503 -0.2324 -0.8267
  641MOL0     C86462   3.404   4.885   2.169  0.7476  0.6419  0.8209
  641MOL0     C86463   3.508   4.916   2.059 -0.4619 -0.6373  0.7189
  641MOL0     C86464   3.643   4.923   2.116 -0.8517 -0.2477 -0.4336
  641MOL0     C86465   3.752   4.906   2.157  0.0213 -0.1046 -0.0162
  641MOL0     C86466   2.911   5.016   2.105 -0.4209  0.4514 -0.2494
  641MOL0     C86467   2.792   5.005   2.180 -0.6363  0.2549 -0.6341
  641MOL0     H86468   2.494   4.791   2.526 -0.8524  1.3213 -1.0869
  641MOL0     H86469   2.304   4.704   2.662  0.3646 -1.0143 -0.6859
  641MOL0     H86470   2.162   4.391   2.558 -0.6279  0.9071 -0.8003
  641MOL0     H86471   2.223   4.488   2.688  0.4067  0.4414  0.3725
  641MOL0     H86472   2.041   4.321   2.744  1.4376 -1.0900 -1.5032
  641MOL0     H86473   2.036   4.480   2.817 -0.4533 -2.5107  0.9254
  641MOL0     H86474   1.854   4.544   2.646 -1.1733 -0.4094 -0.1793
  641MOL0     H86475   1.858   4.388   2.574 -0.3089 -0.5956 -0.2950
  641MOL0     H86476   1.796   4.290   2.793  1.2862  0.0803 -0.5750
  641MOL0     H86477   1.815   4.426   2.887  1.0772 -1.1534  0.0907
  641MOL0     H86478   1.595   4.441   2.854 -0.0183  0.1683 -0.6100
  641MOL0     H86479   1.644   4.554   2.724  0.0763  1.1710  2.3412
  641MOL0     H86480   1.633   4.412   2.550  0.6798  0.4697  0.4274
  641MOL0     H86481   1.603   4.264   2.659 -1.8426 -0.1070 -0.3317
  641MOL0     H86482   1.398   4.487   2.662  1.3457  0.2522  0.7968
  641MOL0     H86483   1.409   4.406   2.503 -1.9659  1.3457  0.9242
  641MOL0     H86484   1.407   4.224   2.737  1.0901  1.1769  0.3655
  641MOL0     H86485   1.332   4.193   2.583  0.2170 -0.0887  0.0122
  641MOL0     H86486   1.062   4.278   2.550 -0.7039  1.3325  0.2413
  641MOL0     H86487   0.832   4.371   2.613 -0.7132  0.1267  0.8728
  641MOL0     H86488   0.828   4.228   2.705 -0.4860  0.5184 -0.2475
  641MOL0     H86489   0.763   4.502   2.810 -3.3303  0.0262 -1.7242
  641MOL0     H86490   0.802   4.356   2.914 -1.3482 -0.8176  1.1039
  641MOL0     H86491   0.606   4.311   2.681 -0.1508  0.0033 -0.0607
  641MOL0     H86492   0.555   4.429   2.787 -0.3536 -0.4347  0.2863
  641MOL0     H86493   0.599   4.274   2.976 -0.6389 -0.2283 -0.6111
  641MOL0     H86494   0.630   4.135   2.885  1.2365  0.0760 -0.3445
  641MOL0     H86495   0.552   4.057   2.697  0.5278 -1.4007  1.0768
  641MOL0     H86496   0.577   3.875   2.575  1.4189 -1.9112 -1.3533
  641MOL0     H86497   0.500   3.732   2.654 -0.3778 -0.9769 -2.1798
  641MOL0     H86498   0.446   3.799   2.499  3.0332 -1.5090 -1.2491
  641MOL0     H86499   0.333   3.549   2.415  1.3161 -2.1444  0.2022
  641MOL0     H86500   0.257   3.324   2.341  0.7197 -2.7376  1.3434
  641MOL0     H86501   0.034   3.225   2.291  1.9457  1.0593  0.4944
  641MOL0     H86502   0.153   3.102   2.280 -1.0150 -1.3047 -0.1639
  641MOL0     H86503  -0.070   2.998   2.242 -5.2646 -0.3440  1.1671
  641MOL0     H86504  -0.024   2.945   2.404  2.1799  2.2113  1.3125
  641MOL0     H86505  -0.186   3.206   2.344  0.9545 -0.2459 -0.7806
  641MOL0     H86506  -0.154   3.120   2.499 -1.7565 -0.7740  1.3191
  641MOL0     H86507  -0.319   3.035   2.264  4.4866  2.7116  0.1315
  641MOL0     H86508  -0.288   2.917   2.389 -3.3818 -0.5305 -0.2943
  641MOL0     H86509  -0.425   3.187   2.423 -2.6455 -0.7173  0.3513
  641MOL0     H86510  -0.368   3.093   2.561 -0.9024 -0.9492  0.6045
  641MOL0     H86511  -0.552   2.963   2.342 -2.3297 -1.2139  0.7853
  641MOL0     H86512  -0.510   2.900   2.497  0.0209 -0.2357  0.2879
  641MOL0     H86513  -0.742   3.014   2.477  1.0314 -1.3624  0.3904
  641MOL0     H86514  -0.641   3.174   2.477  1.3522 -0.8258 -2.3803
  641MOL0     H86515  -0.573   3.110   2.692  0.8953 -1.9393 -0.1457
  641MOL0     H86516  -0.654   2.952   2.688  1.5064 -1.5655 -1.5242
  641MOL0     H86517   0.026   3.279   2.695  1.2942 -0.8986  1.8265
  641MOL0     H86518   0.096   3.498   2.778  0.7110  0.1571 -0.2539
  641MOL0     H86519   0.070   3.946   2.770 -0.2085  0.1685  0.8028
  641MOL0     H86520   0.184   4.147   2.886 -0.5228  0.1209 -0.6744
  641MOL0     H86521   2.109   4.580   2.302  0.0299  0.5147 -0.6459
  641MOL0     H86522   2.282   4.625   2.170 -2.4760 -3.6020  0.7482
  641MOL0     H86523   2.763   4.668   2.182  0.5065  0.3671  2.1828
  641MOL0     H86524   2.946   4.689   2.033 -3.6405 -1.5592  0.5215
  641MOL0     H86525   3.272   4.967   1.928 -2.4120  0.2099 -1.2724
  641MOL0     H86526   3.205   5.047   2.081  2.0184 -1.3783  1.8787
  641MOL0     H86527   3.273   4.748   2.065 -1.8164 -0.1791 -1.0152
  641MOL0     H86528   3.205   4.833   2.199  2.4339  1.1493  1.8808
  641MOL0     H86529   3.434   4.797   2.227  1.5921  2.3979  3.2042
  641MOL0     H86530   3.386   4.977   2.225 -1.9462  0.4952  0.3011
  641MOL0     H86531   3.485   5.014   2.017 -0.0594 -0.2421  1.3903
  641MOL0     H86532   3.518   4.847   1.975 -2.1746  2.7516 -2.5360
  641MOL0     H86533   3.842   4.896   2.215 -1.8081 -0.4314  2.9547
  641MOL0     H86534   2.941   5.118   2.085 -3.7780  1.1867 -2.1691
  641MOL0     H86535   2.749   5.098   2.214 -1.2859 -0.9724  2.2061
  642MOL0     O86536   0.147  10.097   0.408  0.6623  0.0390  0.0069
  642MOL0     C86537   0.187  10.179   0.492  0.1737 -0.4000 -0.2921
  642MOL0     O86538   0.114  10.283   0.544 -0.4057  1.1235  0.9241
  642MOL0     C86539  -0.017  10.277   0.526 -0.2598 -0.4664  0.0604
  642MOL0     C86540  -0.102  10.237   0.631  0.0123  0.1906  0.1955
  642MOL0     C86541  -0.238  10.260   0.623  0.0119  0.1422 -0.4362
  642MOL0     C86542  -0.296  10.328   0.509 -0.3688  0.3321  0.0509
  642MOL0     O86543  -0.426  10.353   0.497 -0.0883  0.1754 -0.1083
  642MOL0     C86544  -0.490  10.302   0.380 -0.4431 -0.0257  0.0026
  642MOL0     C86545  -0.578  10.413   0.324 -1.0168 -0.2448 -1.1907
  642MOL0     C86546  -0.630  10.376   0.184  0.1125 -0.4796  0.5458
  642MOL0     C86547  -0.697  10.505   0.125 -0.9803  0.7543 -0.5502
  642MOL0     C86548  -0.773  10.485  -0.007 -0.0634 -0.1920 -0.2037
  642MOL0     C86549  -0.862  10.614  -0.050 -0.2620 -0.1933 -0.0188
  642MOL0     C86550  -0.991  10.653   0.028  0.0395  0.4787 -0.4696
  642MOL0     C86551  -1.082  10.529   0.045 -0.7370  0.3181  0.3191
  642MOL0     N86552  -1.220  10.564   0.091  0.5900  0.0087  0.4570
  642MOL0     C86553  -1.318  10.600   0.011  0.2282  0.7425  0.4215
  642MOL0     C86554  -1.431  10.613   0.091 -0.4786 -0.4539  0.8951
  642MOL0     C86555  -1.572  10.656   0.057 -0.3047 -0.1357  0.0814
  642MOL0     C86556  -1.590  10.799   0.102  0.5268  0.2948  0.2454
  642MOL0     C86557  -1.724  10.851   0.044  0.1843 -0.2999 -0.1959
  642MOL0     C86558  -1.856  10.762   0.071 -0.7731 -0.0675 -0.4562
  642MOL0     O86559  -1.883  10.659  -0.024  0.1006 -0.1641 -0.1361
  642MOL0     C86560  -2.005  10.602  -0.035 -0.0007  0.4654 -0.4433
  642MOL0     C86561  -2.119  10.628   0.046 -0.9930  0.0210 -0.9843
  642MOL0     C86562  -2.230  10.544   0.042 -0.2264  0.4650 -0.0224
  642MOL0     C86563  -2.347  10.558   0.147 -0.2690  0.4328 -0.3508
  642MOL0     C86564  -2.231  10.434  -0.046 -0.1794  0.0870 -0.4404
  642MOL0     C86565  -2.350  10.351  -0.055 -0.2755 -0.7872  0.3081
  642MOL0     O86566  -2.466  10.411  -0.080  0.6767 -0.5382 -0.5443
  642MOL0     C86567  -2.581  10.341  -0.093 -0.3457 -0.5645  0.0068
  642MOL0     C86568  -2.593  10.268  -0.214  0.1415 -0.2846  0.6325
  642MOL0     C86569  -2.709  10.205  -0.255 -0.1740  0.0475  0.5364
  642MOL0     C86570  -2.818  10.220  -0.170 -0.2634  0.6248 -0.4866
  642MOL0     O86571  -2.946  10.165  -0.188 -0.3292  0.2398  0.4012
  642MOL0     C86572  -2.940  10.041  -0.262  1.2777 -0.5512  0.3916
  642MOL0     C86573  -3.082   9.976  -0.269 -0.1530  0.2451  0.3386
  642MOL0     C86574  -3.061   9.830  -0.316  0.8008 -0.5176  0.4164
  642MOL0     C86575  -3.207   9.790  -0.374 -0.7262  0.3941 -0.7648
  642MOL0     C86576  -3.228   9.638  -0.399 -0.2269  0.2596  0.3132
  642MOL0     C86577  -3.233   9.541  -0.275 -0.2189 -0.4835  0.6216
  642MOL0     C86578  -3.287   9.392  -0.308 -0.3957 -1.4189 -0.8204
  642MOL0     C86579  -3.259   9.299  -0.187 -0.7033  0.8161  0.1363
  642MOL0    Cl86580  -3.339   9.359  -0.032 -0.3300 -0.1609 -0.2593
  642MOL0     C86581  -2.805  10.293  -0.051  0.6238 -0.0971  0.3527
  642MOL0     C86582  -2.682  10.356  -0.011 -0.0838  0.3092 -1.0523
  642MOL0     O86583  -2.333  10.234  -0.031 -0.0338 -0.7034 -0.1543
  642MOL0     C86584  -2.126  10.409  -0.135 -0.1902  0.1453 -0.1044
  642MOL0     C86585  -2.017  10.492  -0.128  0.5430  0.0173  0.4418
  642MOL0     N86586  -1.391  10.554   0.208  0.4366 -0.3486 -0.4898
  642MOL0     N86587  -1.266  10.523   0.210 -0.0459 -0.3580  0.0145
  642MOL0     C86588  -0.209  10.374   0.414 -0.2680 -0.3044 -0.7688
  642MOL0     C86589  -0.074  10.357   0.420  0.0817  0.5666 -0.2866
  642MOL0     C86590   0.335  10.169   0.520  0.1790  0.1035  0.2710
  642MOL0     C86591   0.394  10.285   0.578  0.1196 -0.1067  0.0754
  642MOL0     C86592   0.533  10.284   0.598  0.1234  0.3897  0.1715
  642MOL0     C86593   0.606  10.162   0.569  0.5248 -0.2306 -0.1064
  642MOL0     O86594   0.731  10.153   0.618  0.1386  0.1170  0.2275
  642MOL0     C86595   0.839  10.169   0.522 -0.4075 -0.7301 -0.1631
  642MOL0     C86596   0.961  10.237   0.579  0.1382  0.5904  0.0626
  642MOL0     C86597   0.951  10.385   0.596  0.5402  0.0078 -1.3234
  642MOL0     C86598   1.028  10.427   0.726 -0.1753  1.0141 -0.3416
  642MOL0     C86599   0.994  10.558   0.765  0.1725 -0.6382  0.7154
  642MOL0     C86600   0.971  10.672   0.809 -0.4570  0.5719 -0.4077
  642MOL0     C86601   0.541  10.055   0.505  0.0671  0.1035 -0.3668
  642MOL0     C86602   0.409  10.060   0.479 -0.0533 -0.0977 -0.4018
  642MOL0     H86603  -0.059  10.195   0.721  1.1890  0.4471 -0.2251
  642MOL0     H86604  -0.303  10.222   0.701  1.0063 -1.3335 -0.2779
  642MOL0     H86605  -0.412  10.265   0.313 -1.5105  2.6046 -2.9218
  642MOL0     H86606  -0.553  10.222   0.418 -0.6238  1.3610  2.9113
  642MOL0     H86607  -0.657  10.436   0.397  1.0969 -1.0933  1.5281
  642MOL0     H86608  -0.512  10.501   0.325  1.2457 -1.8453  0.6994
  642MOL0     H86609  -0.554  10.337   0.116  1.5216  2.3488  0.3103
  642MOL0     H86610  -0.716  10.310   0.197 -1.2940  0.9747 -0.8182
  642MOL0     H86611  -0.767  10.554   0.193 -0.5948 -0.0818  0.4730
  642MOL0     H86612  -0.618  10.579   0.110 -0.8475  0.1725 -3.4866
  642MOL0     H86613  -0.697  10.456  -0.081  1.4874  0.6540  0.9893
  642MOL0     H86614  -0.827  10.390   0.004  3.6013 -2.3557  1.1886
  642MOL0     H86615  -0.804  10.707  -0.045 -1.3906  0.6432 -1.5894
  642MOL0     H86616  -0.878  10.608  -0.157 -0.5060  0.5227 -0.0295
  642MOL0     H86617  -0.963  10.701   0.122 -0.9253  0.4460 -0.1644
  642MOL0     H86618  -1.040  10.726  -0.037 -2.0853 -1.5472 -1.2695
  642MOL0     H86619  -1.040  10.451   0.109  2.3094  2.1392  0.7334
  642MOL0     H86620  -1.095  10.498  -0.059 -0.7699 -1.5928  0.8558
  642MOL0     H86621  -1.310  10.625  -0.094  5.0417  1.7558  0.8163
  642MOL0     H86622  -1.588  10.640  -0.050 -4.1840 -1.3100  0.6716
  642MOL0     H86623  -1.648  10.602   0.114 -0.7057 -0.0581 -0.3716
  642MOL0     H86624  -1.512  10.869   0.072 -0.6974  1.2724 -0.7652
  642MOL0     H86625  -1.611  10.794   0.209  0.8804  0.9247  0.3424
  642MOL0     H86626  -1.726  10.849  -0.065 -3.1773  0.3845 -0.2535
  642MOL0     H86627  -1.740  10.951   0.086  1.1118 -0.0463 -0.4169
  642MOL0     H86628  -1.947  10.822   0.064 -0.1297  1.0367  0.2711
  642MOL0     H86629  -1.857  10.708   0.166 -0.9513 -1.8440 -1.4317
  642MOL0     H86630  -2.110  10.712   0.114 -0.1931 -0.1011 -0.9300
  642MOL0     H86631  -2.308  10.626   0.224 -2.2111  1.2879 -0.0438
  642MOL0     H86632  -2.444  10.592   0.110 -0.0497  2.9200  1.1560
  642MOL0     H86633  -2.360  10.457   0.189  2.2768  0.0793 -0.2727
  642MOL0     H86634  -2.512  10.255  -0.285  0.2348  0.6214  0.5684
  642MOL0     H86635  -2.714  10.142  -0.343 -3.1531 -1.7051  1.8284
  642MOL0     H86636  -2.904  10.049  -0.365  1.2640  3.2203  0.5239
  642MOL0     H86637  -2.874   9.975  -0.206 -0.5910 -0.6072  2.6642
  642MOL0     H86638  -3.135   9.963  -0.175  0.9072  0.1069  0.9281
  642MOL0     H86639  -3.151  10.033  -0.331  2.0188  1.5693 -1.0059
  642MOL0     H86640  -3.039   9.763  -0.233 -2.5112 -0.7779  1.2414
  642MOL0     H86641  -2.985   9.812  -0.392 -0.8102 -3.3045 -0.6940
  642MOL0     H86642  -3.291   9.828  -0.316  0.5260  0.4043  1.1575
  642MOL0     H86643  -3.213   9.836  -0.473  2.7875  0.2025 -1.1850
  642MOL0     H86644  -3.144   9.613  -0.465 -0.7682  3.6249 -1.9165
  642MOL0     H86645  -3.318   9.639  -0.462  0.9168  6.8593 -1.9865
  642MOL0     H86646  -3.135   9.547  -0.226 -0.4438 -0.8210  1.1146
  642MOL0     H86647  -3.299   9.587  -0.202  0.1396  2.3203 -0.6658
  642MOL0     H86648  -3.245   9.339  -0.394 -4.3453 -4.7738 -1.0303
  642MOL0     H86649  -3.393   9.403  -0.336 -0.0654  1.6241 -1.1263
  642MOL0     H86650  -3.151   9.288  -0.176 -0.7077 -2.2816 -1.6255
  642MOL0     H86651  -3.298   9.197  -0.197 -0.5288  0.9476 -3.1381
  642MOL0     H86652  -2.892  10.296   0.013  1.8857 -0.0392  2.1473
  642MOL0     H86653  -2.673  10.420   0.077 -1.4549 -1.7292  0.6854
  642MOL0     H86654  -2.138  10.324  -0.203 -1.5491  1.5876 -1.7670
  642MOL0     H86655  -1.931  10.475  -0.191  0.9976  2.4112  0.3319
  642MOL0     H86656  -0.246  10.444   0.339 -0.3723  1.0169  0.4657
  642MOL0     H86657  -0.001  10.394   0.348  0.6840  0.8748  0.4662
  642MOL0     H86658   0.340  10.371   0.615  0.1584  0.0124 -0.1404
  642MOL0     H86659   0.584  10.363   0.652 -0.7501  0.5795  0.7502
  642MOL0     H86660   0.861  10.068   0.486 -0.6400 -1.0915  0.6845
  642MOL0     H86661   0.823  10.226   0.430 -0.8364  0.9959  0.9472
  642MOL0     H86662   1.045  10.209   0.514  0.3129 -2.2199  1.3228
  642MOL0     H86663   0.967  10.188   0.676 -1.2474 -0.4915 -0.3590
  642MOL0     H86664   0.843  10.396   0.609  0.2103 -3.8665  0.5898
  642MOL0     H86665   0.987  10.438   0.507 -0.5103 -0.9844 -2.3911
  642MOL0     H86666   1.135  10.403   0.722  0.0218  0.9000  3.0981
  642MOL0     H86667   0.991  10.352   0.796 -0.5440 -0.3237 -1.9154
  642MOL0     H86668   0.952  10.769   0.850  0.2460 -0.9616  4.0353
  642MOL0     H86669   0.602   9.969   0.481 -0.9424 -0.9684  0.7408
  642MOL0     H86670   0.344   9.988   0.430  0.7868 -1.4557  0.4316
  643MOL0     O86671   4.276   7.808   2.818  0.1276  0.3003  0.4030
  643MOL0     C86672   4.366   7.721   2.835  0.9513 -0.6489  0.2213
  643MOL0     O86673   4.355   7.616   2.916 -0.0866 -0.6656  0.0195
  643MOL0     C86674   4.232   7.591   2.984 -0.1199 -0.3663 -0.0481
  643MOL0     C86675   4.109   7.591   2.917 -0.1601  0.0100  0.3438
  643MOL0     C86676   3.994   7.566   2.986 -0.2599  0.7017 -0.6702
  643MOL0     C86677   3.996   7.541   3.122 -0.9763  0.0488 -0.5274
  643MOL0     O86678   3.878   7.538   3.188 -0.2416  0.2655  0.1598
  643MOL0     C86679   3.877   7.640   3.295 -0.9662  0.3403  0.4203
  643MOL0     C86680   3.770   7.612   3.391 -0.4481  0.0646 -0.3639
  643MOL0     C86681   3.632   7.650   3.325 -0.1555  0.1311 -0.0972
  643MOL0     C86682   3.512   7.614   3.410  0.0963  1.2277 -0.6040
  643MOL0     C86683   3.384   7.617   3.321 -0.6177 -0.3801 -0.0391
  643MOL0     C86684   3.324   7.756   3.318 -0.0370  0.3839  0.1145
  643MOL0     C86685   3.202   7.755   3.228  0.0639 -0.3108  0.5246
  643MOL0     C86686   3.244   7.751   3.079 -0.1266  0.3499  0.4974
  643MOL0     N86687   3.120   7.770   2.993  0.3553 -0.7268 -0.1789
  643MOL0     C86688   3.034   7.878   2.978  0.3431  0.5558  0.3590
  643MOL0     C86689   2.934   7.834   2.894  0.5138  1.0028  0.0118
  643MOL0     C86690   2.822   7.919   2.848 -0.7373  1.6208 -0.1190
  643MOL0     C86691   2.691   7.833   2.834  0.1674 -0.5827  0.6230
  643MOL0     C86692   2.645   7.769   2.959  0.2004 -0.0567 -0.0647
  643MOL0     C86693   2.581   7.630   2.932  0.1078 -1.0424  0.5768
  643MOL0     O86694   2.471   7.642   2.838 -0.6150 -0.3229 -0.5609
  643MOL0     C86695   2.377   7.550   2.854  0.0555 -0.5525  0.0273
  643MOL0     C86696   2.251   7.582   2.829 -0.7061  0.6567 -0.2806
  643MOL0     C86697   2.137   7.495   2.835  0.1442  0.5771 -0.4389
  643MOL0     C86698   2.007   7.554   2.776 -0.0321  0.4535  0.2574
  643MOL0     C86699   2.153   7.355   2.865 -0.7537 -0.7530  0.0159
  643MOL0     C86700   2.048   7.245   2.841 -0.2409 -0.5683 -0.3619
  643MOL0     O86701   2.077   7.140   2.921 -0.2388  0.2542  0.7565
  643MOL0     C86702   1.981   7.049   2.938 -0.5838 -0.0640  0.5350
  643MOL0     C86703   1.860   7.090   2.993  0.2544  1.1076  0.3557
  643MOL0     C86704   1.755   6.998   3.010 -0.0193  0.1813  0.4083
  643MOL0     C86705   1.762   6.872   2.954 -0.2845 -0.4279  0.0400
  643MOL0     O86706   1.661   6.783   2.966  0.8392 -0.4531 -0.0920
  643MOL0     C86707   1.558   6.792   2.863 -0.2854  0.3580 -0.1023
  643MOL0     C86708   1.438   6.869   2.904 -0.2031  0.0407  0.3066
  643MOL0     C86709   1.318   6.866   2.802  0.1772 -0.0588 -0.8905
  643MOL0     C86710   1.362   6.892   2.653 -0.1536  0.5851 -0.1893
  643MOL0     C86711   1.239   6.933   2.569 -0.9115 -0.3630 -0.7227
  643MOL0     C86712   1.253   6.943   2.413  0.7753 -0.0958 -0.5261
  643MOL0     C86713   1.343   7.064   2.370  0.9532  0.2413  0.1225
  643MOL0     C86714   1.267   7.195   2.359  0.3734 -0.2990 -0.3469
  643MOL0    Cl86715   1.191   7.177   2.196 -0.0045 -0.6917 -0.3007
  643MOL0     C86716   1.882   6.838   2.874  0.4137 -0.1753 -0.8994
  643MOL0     C86717   1.989   6.923   2.879  0.0459  0.4376  0.4040
  643MOL0     O86718   1.940   7.267   2.791  0.5947  0.5080  0.1140
  643MOL0     C86719   2.285   7.323   2.912  0.3050 -0.8963  0.8167
  643MOL0     C86720   2.392   7.419   2.906  0.0826 -0.3308  1.2369
  643MOL0     N86721   2.975   7.711   2.845 -0.3866 -0.3668 -0.0668
  643MOL0     N86722   3.080   7.675   2.900 -0.1685  0.3595  0.2943
  643MOL0     C86723   4.131   7.519   3.186  0.3029  0.4658 -0.6128
  643MOL0     C86724   4.240   7.540   3.113 -0.9884  0.2832  0.4816
  643MOL0     C86725   4.495   7.726   2.747  0.4831 -0.6205 -0.1759
  643MOL0     C86726   4.498   7.811   2.639  0.0049  0.4385 -0.1410
  643MOL0     C86727   4.612   7.810   2.559 -0.4501 -1.0577  0.1181
  643MOL0     C86728   4.717   7.717   2.571 -0.4165 -0.8271  0.0359
  643MOL0     O86729   4.823   7.715   2.482 -0.4813 -0.0167 -0.2775
  643MOL0     C86730   4.853   7.592   2.414 -0.1832  0.0445 -0.0289
  643MOL0     C86731   4.963   7.606   2.307  0.5943 -0.0279  0.7326
  643MOL0     C86732   4.930   7.704   2.198  0.5219 -0.0707  0.0396
  643MOL0     C86733   4.812   7.663   2.128  0.5989 -0.2038  0.9469
  643MOL0     C86734   4.791   7.739   2.005 -0.5359 -0.1828  0.4862
  643MOL0     C86735   4.778   7.808   1.909  0.6964 -0.3195 -0.0440
  643MOL0     C86736   4.711   7.633   2.682 -0.3544 -0.6120 -0.6593
  643MOL0     C86737   4.605   7.640   2.771  0.6626  0.7918 -0.3591
  643MOL0     H86738   4.112   7.601   2.809  1.1005 -0.7520  0.2827
  643MOL0     H86739   3.904   7.550   2.926 -0.6105  0.0481  0.0106
  643MOL0     H86740   3.972   7.650   3.349  1.2102  2.6560 -3.3988
  643MOL0     H86741   3.864   7.741   3.254 -1.4259 -0.1410 -0.6544
  643MOL0     H86742   3.770   7.505   3.415  0.2851 -0.2071 -1.5281
  643MOL0     H86743   3.779   7.667   3.485 -4.2290 -0.1837  0.3155
  643MOL0     H86744   3.630   7.758   3.309 -1.2037  0.0599 -0.4926
  643MOL0     H86745   3.623   7.596   3.231 -0.2350 -1.6342  0.8689
  643MOL0     H86746   3.529   7.514   3.451  1.5762  1.4789 -0.5562
  643MOL0     H86747   3.493   7.684   3.492  1.0753  1.1741 -0.3161
  643MOL0     H86748   3.410   7.586   3.219 -1.8744 -0.3140 -0.4010
  643MOL0     H86749   3.313   7.540   3.354 -0.5889 -0.7703 -0.8528
  643MOL0     H86750   3.291   7.785   3.418 -1.0385 -1.4820  0.3896
  643MOL0     H86751   3.396   7.835   3.298  2.9145 -1.7574  1.4426
  643MOL0     H86752   3.137   7.670   3.252  0.6577 -0.7546  0.5828
  643MOL0     H86753   3.127   7.833   3.243 -0.6738 -0.7336 -0.7744
  643MOL0     H86754   3.289   7.654   3.054 -1.9716 -0.6863  1.0130
  643MOL0     H86755   3.308   7.835   3.051 -0.2026  0.1715 -0.2269
  643MOL0     H86756   3.049   7.969   3.035  1.9859 -0.1796  1.1709
  643MOL0     H86757   2.793   7.996   2.921  1.3299  0.4970  2.0354
  643MOL0     H86758   2.851   7.958   2.750  3.7896  0.7189  0.6743
  643MOL0     H86759   2.719   7.768   2.750  3.9762  2.4715 -0.7840
  643MOL0     H86760   2.615   7.903   2.797 -1.2025 -1.7015  1.2311
  643MOL0     H86761   2.578   7.838   3.010  0.0201 -1.7768  2.1603
  643MOL0     H86762   2.726   7.754   3.031  1.8433  1.8220 -1.3697
  643MOL0     H86763   2.540   7.590   3.025 -0.5914 -0.7147  0.4142
  643MOL0     H86764   2.660   7.560   2.902 -0.4249 -1.9951  1.3373
  643MOL0     H86765   2.243   7.682   2.786 -1.6619 -0.3630 -2.6329
  643MOL0     H86766   1.991   7.524   2.672 -0.5356 -0.5007  0.5898
  643MOL0     H86767   1.917   7.520   2.829  0.0250 -1.3046 -0.6846
  643MOL0     H86768   2.006   7.663   2.776  0.3729  0.5939 -3.5339
  643MOL0     H86769   1.853   7.178   3.055 -0.0557  0.7602  0.8213
  643MOL0     H86770   1.677   7.015   3.083  1.8762  2.5262  2.0066
  643MOL0     H86771   1.594   6.827   2.766 -1.7745 -0.5733 -1.0534
  643MOL0     H86772   1.520   6.689   2.859 -1.4681  0.3232  5.0875
  643MOL0     H86773   1.400   6.834   3.001 -1.9173  2.3557  0.5424
  643MOL0     H86774   1.470   6.972   2.917  2.8220 -0.6464 -0.9182
  643MOL0     H86775   1.251   6.944   2.840  2.0206 -0.2039  3.1775
  643MOL0     H86776   1.281   6.766   2.828 -1.1470  1.2436  3.0272
  643MOL0     H86777   1.427   6.979   2.662  0.5754  0.8621 -5.4479
  643MOL0     H86778   1.419   6.814   2.601 -2.4524 -1.3777  0.0179
  643MOL0     H86779   1.212   7.031   2.609 -1.7959  0.1657 -2.5144
  643MOL0     H86780   1.160   6.859   2.582 -0.2958 -1.1667 -1.4349
  643MOL0     H86781   1.299   6.851   2.377  1.7615  0.0712  0.2373
  643MOL0     H86782   1.156   6.944   2.364  1.0463  0.4014 -1.0681
  643MOL0     H86783   1.400   7.048   2.278  0.4847  0.6786 -0.2500
  643MOL0     H86784   1.426   7.074   2.442 -2.0602 -0.2305  4.0251
  643MOL0     H86785   1.333   7.282   2.354 -2.0814  1.6254 -1.5794
  643MOL0     H86786   1.192   7.212   2.437  0.1562 -1.8697 -0.1676
  643MOL0     H86787   1.887   6.733   2.845 -2.8674 -0.2380 -1.6780
  643MOL0     H86788   2.070   6.887   2.816 -1.7909 -2.3664 -0.5553
  643MOL0     H86789   2.312   7.227   2.955 -0.1796 -1.8020 -0.7971
  643MOL0     H86790   2.495   7.390   2.923  0.7832  0.9441 -0.4573
  643MOL0     H86791   4.147   7.486   3.288  3.5289  0.1518 -1.1156
  643MOL0     H86792   4.337   7.528   3.160 -1.3379 -3.4688  0.5511
  643MOL0     H86793   4.418   7.881   2.615 -0.2009  0.6427  1.0601
  643MOL0     H86794   4.612   7.873   2.470  0.0442 -3.1461 -1.4562
  643MOL0     H86795   4.888   7.520   2.488  0.4975 -0.7383 -1.0705
  643MOL0     H86796   4.768   7.552   2.358 -0.4423  1.2821 -0.5665
  643MOL0     H86797   4.995   7.509   2.267 -2.1094 -1.9405  2.8236
  643MOL0     H86798   5.043   7.647   2.368  0.2709 -0.2350  1.3048
  643MOL0     H86799   5.014   7.709   2.128  0.4595 -1.1836 -0.1475
  643MOL0     H86800   4.915   7.804   2.239 -0.9081 -0.5525  0.7652
  643MOL0     H86801   4.721   7.660   2.189  1.3436 -0.0504  2.0832
  643MOL0     H86802   4.832   7.559   2.100  0.7977 -0.0104  0.3547
  643MOL0     H86803   4.762   7.864   1.819  0.9434 -0.2072 -0.0190
  643MOL0     H86804   4.796   7.568   2.700 -0.7245 -1.0457 -0.4681
  643MOL0     H86805   4.613   7.569   2.853  1.6578 -0.9358 -1.8695
  644MOL0     O86806   6.065   1.009   2.140  0.0536  0.1945 -0.5797
  644MOL0     C86807   6.139   1.100   2.156  0.0037 -0.3917  0.2145
  644MOL0     O86808   6.112   1.237   2.128 -0.1354 -0.2978 -0.0307
  644MOL0     C86809   5.991   1.297   2.106  0.5594  0.6170 -0.1530
  644MOL0     C86810   5.995   1.433   2.067 -0.4673  0.8698  0.0760
  644MOL0     C86811   5.880   1.498   2.028  0.8705 -0.2291 -0.2646
  644MOL0     C86812   5.756   1.436   2.041 -0.0581  0.1729 -0.5119
  644MOL0     O86813   5.632   1.492   2.018  0.2740  0.1545 -0.2759
  644MOL0     C86814   5.616   1.630   2.033 -1.1477 -0.9966  0.5731
  644MOL0     C86815   5.480   1.684   2.061  0.5025  0.9013  0.2975
  644MOL0     C86816   5.410   1.617   2.183 -0.4214 -0.3834 -0.1260
  644MOL0     C86817   5.274   1.683   2.217  0.7836  0.4522  0.1416
  644MOL0     C86818   5.197   1.635   2.339  0.1469  0.8251  0.3482
  644MOL0     C86819   5.088   1.738   2.373 -0.4978 -0.2715  0.8039
  644MOL0     C86820   5.018   1.697   2.508  0.0035 -0.0933 -1.0389
  644MOL0     C86821   4.978   1.549   2.539 -0.5951  0.0055 -0.1746
  644MOL0     N86822   4.859   1.506   2.457  0.0893  0.5176  0.6062
  644MOL0     C86823   4.733   1.536   2.489  0.7181  0.3207  0.6621
  644MOL0     C86824   4.664   1.461   2.406 -0.4424  0.6025  1.1128
  644MOL0     C86825   4.517   1.452   2.388  0.5355 -0.2321 -0.0959
  644MOL0     C86826   4.453   1.580   2.331 -0.3827 -0.0883 -1.0070
  644MOL0     C86827   4.323   1.540   2.259  0.6378  0.5060 -0.0873
  644MOL0     C86828   4.222   1.474   2.352  0.4006  0.1940  0.1826
  644MOL0     O86829   4.102   1.464   2.281 -0.1488  0.1085 -0.1908
  644MOL0     C86830   3.986   1.412   2.337 -0.6236 -0.8081  0.1187
  644MOL0     C86831   3.974   1.374   2.466 -0.4673  0.1222  0.1685
  644MOL0     C86832   3.863   1.323   2.526 -0.1141  0.1831  0.4207
  644MOL0     C86833   3.862   1.289   2.669 -1.3013  0.2552  0.0389
  644MOL0     C86834   3.745   1.323   2.445  0.6070  0.5214  0.3763
  644MOL0     C86835   3.607   1.276   2.490 -1.3782  0.0143 -0.5158
  644MOL0     O86836   3.535   1.205   2.394  0.1643  0.0513  0.0665
  644MOL0     C86837   3.411   1.158   2.416 -0.0955  0.1600 -0.9993
  644MOL0     C86838   3.340   1.131   2.300  0.0148 -0.2035  0.1148
  644MOL0     C86839   3.208   1.076   2.313  0.1656  0.6702 -0.4566
  644MOL0     C86840   3.153   1.044   2.439 -0.3988  0.2778 -0.1617
  644MOL0     O86841   3.024   1.015   2.461 -0.3392 -0.4323 -0.2805
  644MOL0     C86842   2.943   1.112   2.393  1.4081 -0.0051  0.2350
  644MOL0     C86843   2.803   1.108   2.451 -0.8837 -0.6556 -0.1524
  644MOL0     C86844   2.713   1.194   2.369 -0.5446 -0.2801  0.4096
  644MOL0     C86845   2.567   1.199   2.419  0.2786 -0.3805  0.6434
  644MOL0     C86846   2.554   1.267   2.555 -0.9009 -0.1902  0.4346
  644MOL0     C86847   2.591   1.409   2.568  0.5511 -0.1909  0.8841
  644MOL0     C86848   2.546   1.503   2.457  0.1634 -0.1398 -0.0961
  644MOL0     C86849   2.549   1.656   2.501 -0.1008 -0.1256 -0.3335
  644MOL0    Cl86850   2.717   1.716   2.501 -0.6112 -0.6588  0.3049
  644MOL0     C86851   3.231   1.062   2.548 -0.8729  0.2424  0.0054
  644MOL0     C86852   3.357   1.121   2.538 -0.2607 -0.4317  0.0693
  644MOL0     O86853   3.560   1.320   2.598 -1.2557 -0.6594  0.1132
  644MOL0     C86854   3.750   1.373   2.314 -0.3342  0.3872 -0.2915
  644MOL0     C86855   3.875   1.408   2.262  0.2061  0.4162  0.1127
  644MOL0     N86856   4.749   1.377   2.331 -0.4558 -0.0507 -0.2415
  644MOL0     N86857   4.877   1.412   2.362  0.4761 -0.4100 -0.2022
  644MOL0     C86858   5.743   1.300   2.079 -0.7385 -0.8740  0.1516
  644MOL0     C86859   5.866   1.232   2.101  0.3892 -0.4897  0.1554
  644MOL0     C86860   6.281   1.064   2.193  0.3857  0.2975  1.2081
  644MOL0     C86861   6.370   1.168   2.245 -0.4877 -0.3503  0.5776
  644MOL0     C86862   6.499   1.131   2.288  0.1475 -1.0491  0.6893
  644MOL0     C86863   6.551   1.001   2.254 -0.8569  1.4323 -0.2965
  644MOL0     O86864   6.685   0.971   2.279  0.2752  0.5289  0.0346
  644MOL0     C86865   6.729   0.834   2.270 -0.1787  0.3548 -0.2669
  644MOL0     C86866   6.776   0.795   2.131  0.0527 -0.3374  1.2860
  644MOL0     C86867   6.890   0.890   2.085 -0.2711  0.1215 -0.4037
  644MOL0     C86868   6.920   0.866   1.936 -0.2300 -0.4806 -0.0142
  644MOL0     C86869   6.833   0.933   1.849 -0.1174 -0.0684 -0.7152
  644MOL0     C86870   6.756   0.972   1.760  0.0341  0.1005 -0.3666
  644MOL0     C86871   6.466   0.909   2.190  0.4422 -0.5104 -0.0972
  644MOL0     C86872   6.333   0.939   2.161 -0.7684 -0.0632 -0.1698
  644MOL0     H86873   6.090   1.486   2.060  0.1583 -0.1362  0.7713
  644MOL0     H86874   5.882   1.605   2.006 -0.5692  0.0291  0.6597
  644MOL0     H86875   5.682   1.665   2.114 -1.1155 -0.0858  0.1645
  644MOL0     H86876   5.654   1.676   1.941 -0.0170  2.7192  2.6830
  644MOL0     H86877   5.496   1.789   2.087  0.4852  0.7007  1.1703
  644MOL0     H86878   5.413   1.673   1.975  0.4325 -0.4244  0.4916
  644MOL0     H86879   5.398   1.512   2.153  2.4806 -0.4888 -1.3004
  644MOL0     H86880   5.472   1.623   2.273 -1.9608  0.1788  0.9287
  644MOL0     H86881   5.294   1.791   2.221  2.2156  0.1761  1.2937
  644MOL0     H86882   5.205   1.660   2.136  0.8549  2.4905 -0.5640
  644MOL0     H86883   5.162   1.534   2.316  3.1287 -0.1627 -0.2834
  644MOL0     H86884   5.274   1.622   2.416  2.6427 -1.5489 -2.3262
  644MOL0     H86885   5.128   1.838   2.387 -0.9160  0.1968 -1.0720
  644MOL0     H86886   5.011   1.756   2.296  0.3954 -0.0177 -0.0518
  644MOL0     H86887   5.088   1.727   2.587 -0.8967  2.4063 -1.1058
  644MOL0     H86888   4.935   1.766   2.522  1.1683  1.0609  0.5850
  644MOL0     H86889   4.959   1.546   2.647 -0.0023  0.4723 -0.0532
  644MOL0     H86890   5.056   1.480   2.506 -0.2109  0.8620 -1.1126
  644MOL0     H86891   4.692   1.616   2.549  0.8914  2.4642 -1.8912
  644MOL0     H86892   4.506   1.365   2.323  1.4618  0.0529 -0.6443
  644MOL0     H86893   4.470   1.436   2.486 -1.3145  0.9675 -0.7306
  644MOL0     H86894   4.518   1.629   2.258 -2.2914  0.8182 -2.1649
  644MOL0     H86895   4.439   1.651   2.414 -0.2597 -0.2329 -0.8615
  644MOL0     H86896   4.349   1.468   2.181  1.2553 -3.4462  3.3947
  644MOL0     H86897   4.289   1.631   2.208  2.1286  1.6436  0.8329
  644MOL0     H86898   4.216   1.531   2.445 -1.8484 -2.3932  1.7815
  644MOL0     H86899   4.264   1.374   2.364  1.0415  0.6931  2.7614
  644MOL0     H86900   4.067   1.371   2.523  0.5919 -0.6273 -1.5146
  644MOL0     H86901   3.827   1.378   2.723 -0.0261  0.6201  0.2969
  644MOL0     H86902   3.792   1.207   2.683 -1.6157 -0.0468 -2.8773
  644MOL0     H86903   3.963   1.269   2.708 -2.4628 -1.5665  2.3954
  644MOL0     H86904   3.369   1.150   2.197 -2.0637  0.2448 -0.4563
  644MOL0     H86905   3.150   1.052   2.225  0.0271 -0.4517 -0.0790
  644MOL0     H86906   2.969   1.217   2.407 -1.6865  0.7989  0.5038
  644MOL0     H86907   2.941   1.081   2.288 -0.6191  0.5417  0.0757
  644MOL0     H86908   2.770   1.004   2.444 -0.0033 -0.8976 -0.9321
  644MOL0     H86909   2.800   1.143   2.554  0.9433  1.0714 -0.6083
  644MOL0     H86910   2.721   1.149   2.269  0.9238  0.6050  0.0966
  644MOL0     H86911   2.755   1.295   2.369 -0.3081 -0.2519  4.1561
  644MOL0     H86912   2.509   1.253   2.344  1.4166  0.7206  0.5217
  644MOL0     H86913   2.532   1.095   2.428  0.5654 -0.7249 -1.6031
  644MOL0     H86914   2.605   1.205   2.630  1.5108  1.9643  0.7297
  644MOL0     H86915   2.447   1.269   2.575 -1.1166 -0.3771 -0.6257
  644MOL0     H86916   2.559   1.451   2.664 -1.7034 -0.9522  0.5120
  644MOL0     H86917   2.700   1.418   2.557  0.6606 -1.0189  1.2309
  644MOL0     H86918   2.446   1.478   2.421  0.9246 -0.8741 -1.8065
  644MOL0     H86919   2.610   1.490   2.369 -1.1363 -1.2921 -0.9205
  644MOL0     H86920   2.500   1.668   2.598  1.1965  0.2061  0.3063
  644MOL0     H86921   2.497   1.719   2.427 -0.2393 -1.4852 -1.4324
  644MOL0     H86922   3.181   1.037   2.641 -0.5826  0.9122  0.3446
  644MOL0     H86923   3.401   1.134   2.636  0.1566 -3.0164  0.3071
  644MOL0     H86924   3.663   1.368   2.250 -0.8377 -1.5233  0.4514
  644MOL0     H86925   3.882   1.455   2.164 -2.2023  1.8944  0.5634
  644MOL0     H86926   5.656   1.237   2.083 -1.1632 -0.4658 -1.7936
  644MOL0     H86927   5.854   1.125   2.113  0.3694 -0.8369 -2.4866
  644MOL0     H86928   6.346   1.273   2.260  0.2013 -0.2474  1.0280
  644MOL0     H86929   6.569   1.193   2.342  2.0972 -2.3963 -0.1828
  644MOL0     H86930   6.818   0.833   2.333  0.2307  2.4083 -0.7417
  644MOL0     H86931   6.653   0.762   2.302  0.2669 -1.1387 -2.3292
  644MOL0     H86932   6.694   0.817   2.062  1.4571  0.6322 -0.1361
  644MOL0     H86933   6.808   0.690   2.124  1.5271  0.2189 -1.7566
  644MOL0     H86934   6.979   0.868   2.145 -1.6257  1.2601  2.1452
  644MOL0     H86935   6.879   0.998   2.099 -0.1957 -0.0437  1.0528
  644MOL0     H86936   6.929   0.759   1.913  0.1515 -1.1000  2.6629
  644MOL0     H86937   7.019   0.912   1.926 -1.1419  1.3650 -1.1295
  644MOL0     H86938   6.685   1.006   1.687  0.1858  1.5663  0.1343
  644MOL0     H86939   6.493   0.806   2.170 -0.7788 -0.4783 -2.1290
  644MOL0     H86940   6.288   0.867   2.094  4.1733 -1.8266 -2.0740
  645MOL0     O86941   3.682   7.976   3.426 -0.0166  0.6841 -0.2363
  645MOL0     C86942   3.733   8.027   3.525 -0.2084  0.2812  0.8114
  645MOL0     O86943   3.693   8.012   3.648 -0.8651  0.7009  0.5272
  645MOL0     C86944   3.581   7.934   3.673 -0.4256  0.4464  0.9575
  645MOL0     C86945   3.445   7.985   3.676 -0.3535  0.5961  0.0772
  645MOL0     C86946   3.335   7.900   3.709  0.2449 -0.6832  0.0597
  645MOL0     C86947   3.364   7.763   3.732  0.0080  0.2647 -0.2385
  645MOL0     O86948   3.268   7.679   3.780 -0.5389  0.1315  0.0424
  645MOL0     C86949   3.139   7.720   3.816  0.0934 -0.7517  0.2528
  645MOL0     C86950   3.047   7.604   3.858 -0.0916 -0.1436  0.4268
  645MOL0     C86951   2.892   7.647   3.862 -0.6586 -0.1293 -0.6896
  645MOL0     C86952   2.823   7.513   3.860  0.4231 -0.7211 -0.3297
  645MOL0     C86953   2.668   7.557   3.846 -0.3677  0.2671 -0.1689
  645MOL0     C86954   2.571   7.446   3.797 -0.1700 -0.3049  0.1224
  645MOL0     C86955   2.438   7.504   3.745 -0.1270 -0.0861 -0.2705
  645MOL0     C86956   2.365   7.412   3.656 -0.3865 -0.0109  0.1501
  645MOL0     N86957   2.330   7.289   3.733 -0.2332 -0.2450 -0.2657
  645MOL0     C86958   2.206   7.257   3.781  0.1395 -0.1066  1.1702
  645MOL0     C86959   2.220   7.136   3.829 -0.1548 -0.6424 -0.5606
  645MOL0     C86960   2.109   7.062   3.895 -0.0635  0.3615  0.5133
  645MOL0     C86961   2.026   6.982   3.795 -0.3030 -0.9878 -0.9670
  645MOL0     C86962   1.910   6.901   3.859  0.4716 -1.2779 -0.2137
  645MOL0     C86963   1.866   6.777   3.783 -0.2153  0.4201  0.4637
  645MOL0     O86964   1.737   6.730   3.837  0.1514  0.0553  0.2283
  645MOL0     C86965   1.666   6.628   3.773  0.1970  0.1166  0.7676
  645MOL0     C86966   1.555   6.569   3.828  0.1785 -0.6624  1.2294
  645MOL0     C86967   1.479   6.464   3.770 -0.3193  0.3459 -0.2615
  645MOL0     C86968   1.362   6.416   3.849 -0.7336  0.5654 -0.0599
  645MOL0     C86969   1.520   6.414   3.639  0.7441  0.1786 -0.5922
  645MOL0     C86970   1.452   6.306   3.572 -0.4805  0.7991  0.8987
  645MOL0     O86971   1.534   6.254   3.478  0.3635  0.1060  0.5743
  645MOL0     C86972   1.495   6.178   3.373  0.4388  0.2670 -0.2971
  645MOL0     C86973   1.364   6.142   3.337 -0.2288 -0.8970  0.4804
  645MOL0     C86974   1.332   6.062   3.228  0.3155 -0.1137 -1.4623
  645MOL0     C86975   1.437   6.021   3.144  0.5847 -0.0584  0.3574
  645MOL0     O86976   1.423   5.951   3.018 -0.2436  0.1040  0.9410
  645MOL0     C86977   1.292   5.906   2.974 -0.1471 -0.7173 -0.0149
  645MOL0     C86978   1.309   5.794   2.876  0.4490  0.4925  0.1644
  645MOL0     C86979   1.187   5.785   2.782 -0.8402 -0.3817 -0.4745
  645MOL0     C86980   1.209   5.870   2.653 -0.4208  0.0147  0.3445
  645MOL0     C86981   1.097   5.829   2.556 -0.7721 -0.6229 -0.2918
  645MOL0     C86982   0.956   5.867   2.598  0.3893  0.0775  0.6540
  645MOL0     C86983   0.855   5.815   2.492  1.3547 -0.3062  0.6287
  645MOL0     C86984   0.710   5.864   2.540  0.7190 -0.1585  0.3728
  645MOL0    Cl86985   0.684   6.031   2.518 -0.1843 -0.0760 -0.4617
  645MOL0     C86986   1.567   6.048   3.176 -0.5640 -0.2524 -0.7293
  645MOL0     C86987   1.598   6.124   3.291  0.2114  0.5515  0.7060
  645MOL0     O86988   1.335   6.276   3.596 -0.1224  0.2332 -0.1137
  645MOL0     C86989   1.622   6.480   3.574 -0.5063  0.2984  0.8580
  645MOL0     C86990   1.691   6.578   3.644 -1.1501  0.1662 -0.8436
  645MOL0     N86991   2.352   7.084   3.804  0.3358 -0.1677  0.2186
  645MOL0     N86992   2.412   7.179   3.751  0.6834  0.4436  0.3252
  645MOL0     C86993   3.494   7.717   3.746 -0.0576 -0.0260  1.4089
  645MOL0     C86994   3.602   7.802   3.723 -0.2157 -0.8760 -0.3685
  645MOL0     C86995   3.850   8.110   3.504  0.4557  0.5743  0.2929
  645MOL0     C86996   3.927   8.095   3.387  0.4213 -1.0900 -0.9639
  645MOL0     C86997   4.042   8.173   3.369 -0.6873 -0.2052 -0.3358
  645MOL0     C86998   4.090   8.261   3.470 -0.3501 -0.1227  0.5733
  645MOL0     O86999   4.204   8.335   3.482 -0.2987 -0.9985 -0.6232
  645MOL0     C87000   4.308   8.309   3.386  0.5579  0.2146  0.5375
  645MOL0     C87001   4.450   8.334   3.439  0.1679 -0.5537 -0.4630
  645MOL0     C87002   4.487   8.230   3.549 -0.3338 -0.3319  0.4288
  645MOL0     C87003   4.641   8.201   3.546 -0.0871  0.5465 -1.4778
  645MOL0     C87004   4.676   8.107   3.656  0.6326 -0.5754  0.0599
  645MOL0     C87005   4.710   8.042   3.752  0.5739  0.0566  0.0504
  645MOL0     C87006   4.003   8.270   3.579 -0.9214 -0.1165 -0.7504
  645MOL0     C87007   3.886   8.207   3.598 -0.4932  0.7777  0.1804
  645MOL0     H87008   3.436   8.089   3.645 -0.8017  0.4643 -0.2363
  645MOL0     H87009   3.232   7.933   3.699 -0.4159 -3.0520 -2.0169
  645MOL0     H87010   3.145   7.786   3.903  0.1191 -1.5548  0.8706
  645MOL0     H87011   3.097   7.784   3.739 -1.9096  0.1972  2.0226
  645MOL0     H87012   3.063   7.525   3.784 -0.9299  0.8285 -0.8336
  645MOL0     H87013   3.076   7.570   3.958  0.0487 -2.3381 -0.3086
  645MOL0     H87014   2.858   7.703   3.950  2.5629  0.3611  0.3936
  645MOL0     H87015   2.881   7.703   3.768 -0.4754 -1.3616 -1.4660
  645MOL0     H87016   2.863   7.455   3.777  1.4056  0.7032 -0.9031
  645MOL0     H87017   2.856   7.456   3.947  2.2826  0.2023 -0.3638
  645MOL0     H87018   2.629   7.579   3.946 -2.6472 -2.7295 -0.2623
  645MOL0     H87019   2.660   7.645   3.782  4.1955  1.5784  0.6517
  645MOL0     H87020   2.613   7.384   3.717 -0.1645 -0.7883  0.4942
  645MOL0     H87021   2.553   7.381   3.883  2.1067  0.5029  1.2897
  645MOL0     H87022   2.374   7.530   3.830  1.4257  1.1859  0.5483
  645MOL0     H87023   2.462   7.594   3.688 -0.6607 -0.9778 -1.9726
  645MOL0     H87024   2.432   7.362   3.586 -1.2297 -3.7869  1.8200
  645MOL0     H87025   2.287   7.463   3.599  0.7995  2.8745  0.8957
  645MOL0     H87026   2.124   7.329   3.788  2.0270  2.6529 -1.9898
  645MOL0     H87027   2.152   6.998   3.973  0.1062  0.4450  0.4886
  645MOL0     H87028   2.038   7.125   3.948 -0.7748  1.3905 -1.5419
  645MOL0     H87029   2.091   6.911   3.743  0.3727 -1.0242 -0.0962
  645MOL0     H87030   1.977   7.050   3.724 -3.0082  0.1165  1.7552
  645MOL0     H87031   1.828   6.972   3.868  0.7691 -0.7631 -1.3046
  645MOL0     H87032   1.938   6.877   3.962  0.0213  2.8808  1.0349
  645MOL0     H87033   1.944   6.701   3.793  1.3578  2.1763  2.3295
  645MOL0     H87034   1.847   6.806   3.679  0.1160  2.7450  1.0079
  645MOL0     H87035   1.518   6.612   3.921  0.0190 -0.3612  1.0276
  645MOL0     H87036   1.275   6.442   3.789 -0.8202 -0.9083 -0.6199
  645MOL0     H87037   1.370   6.307   3.859 -1.0217  0.4916 -0.5933
  645MOL0     H87038   1.354   6.459   3.949  0.0396  2.1068 -0.6265
  645MOL0     H87039   1.276   6.177   3.391  0.9170  0.1107  1.7631
  645MOL0     H87040   1.232   6.025   3.206  0.7509 -1.6442 -1.0513
  645MOL0     H87041   1.233   5.860   3.053  1.6049 -2.3180  0.4421
  645MOL0     H87042   1.238   5.993   2.936  2.5215  1.5052  0.9623
  645MOL0     H87043   1.404   5.784   2.823 -0.2462 -3.4127 -0.6377
  645MOL0     H87044   1.310   5.704   2.939 -0.4891 -0.9016 -1.7038
  645MOL0     H87045   1.090   5.806   2.827 -1.1200 -2.7362  0.1627
  645MOL0     H87046   1.173   5.682   2.747 -0.2993  0.5538 -3.7637
  645MOL0     H87047   1.213   5.979   2.662 -0.3084  0.4893 -3.8358
  645MOL0     H87048   1.304   5.854   2.602 -1.0168  2.7141 -1.8522
  645MOL0     H87049   1.105   5.721   2.539 -0.2306 -0.5160 -0.7703
  645MOL0     H87050   1.116   5.879   2.460  0.9057 -0.6223  0.0160
  645MOL0     H87051   0.938   5.806   2.687  0.2247 -0.8752 -0.0144
  645MOL0     H87052   0.954   5.973   2.627 -0.9491  0.2318  0.0799
  645MOL0     H87053   0.854   5.707   2.476 -1.0860  0.0902 -3.5859
  645MOL0     H87054   0.877   5.861   2.395  0.9786 -1.8693 -0.2355
  645MOL0     H87055   0.689   5.830   2.642  0.9275 -2.6428 -0.3376
  645MOL0     H87056   0.641   5.808   2.477  1.9918  0.1875 -1.3867
  645MOL0     H87057   1.643   6.013   3.108 -0.8992 -2.6834  0.0701
  645MOL0     H87058   1.702   6.156   3.291  0.7857 -0.2650 -4.8120
  645MOL0     H87059   1.656   6.457   3.474  2.4999 -2.2328  2.2492
  645MOL0     H87060   1.780   6.598   3.585 -1.6091 -0.1185 -1.6465
  645MOL0     H87061   3.510   7.611   3.757  0.8383 -0.1061 -0.2541
  645MOL0     H87062   3.707   7.774   3.725  1.1950  3.5688 -1.7261
  645MOL0     H87063   3.904   8.042   3.296  1.1314  0.9869 -2.4395
  645MOL0     H87064   4.110   8.158   3.286  1.5800 -0.9278  1.5467
  645MOL0     H87065   4.304   8.205   3.352 -3.6533 -0.3839  2.1942
  645MOL0     H87066   4.295   8.379   3.303 -0.9675 -1.0092 -0.3090
  645MOL0     H87067   4.450   8.430   3.492 -0.6867 -1.7613  1.8625
  645MOL0     H87068   4.519   8.322   3.355  2.2187  0.9166  0.9159
  645MOL0     H87069   4.441   8.132   3.532  1.4692 -0.9650 -1.1759
  645MOL0     H87070   4.457   8.271   3.646 -1.5140  0.1753 -0.1274
  645MOL0     H87071   4.689   8.296   3.569 -3.0428  1.6273  0.8998
  645MOL0     H87072   4.670   8.169   3.446 -3.0288  1.1445 -2.6052
  645MOL0     H87073   4.729   7.987   3.842 -1.2482  0.2773  0.6164
  645MOL0     H87074   4.025   8.350   3.649  0.4332 -1.4479  0.4052
  645MOL0     H87075   3.828   8.235   3.684 -4.7481 -4.8910 -0.2664
  646MOL0     O87076   6.092   9.126   6.843  0.2139 -1.1087 -1.6455
  646MOL0     C87077   6.086   9.207   6.754 -0.6910 -0.0243  0.4059
  646MOL0     O87078   5.968   9.231   6.682  0.0271  0.1658  0.2377
  646MOL0     C87079   5.872   9.135   6.686  0.5934 -0.8570  0.0310
  646MOL0     C87080   5.810   9.096   6.568 -0.2360  0.2105  0.0489
  646MOL0     C87081   5.706   9.001   6.564  0.3347  1.1035  0.3224
  646MOL0     C87082   5.644   8.946   6.678  0.0988 -0.0663 -0.2139
  646MOL0     O87083   5.551   8.849   6.654  0.2152  0.2358  0.5264
  646MOL0     C87084   5.488   8.772   6.765 -0.4660 -0.3594  0.0016
  646MOL0     C87085   5.385   8.873   6.829  0.4589  0.0873  0.1614
  646MOL0     C87086   5.286   8.789   6.919 -0.3907 -0.7468  0.0897
  646MOL0     C87087   5.190   8.874   7.012 -0.1806  0.5175 -0.3475
  646MOL0     C87088   5.075   8.789   7.073  0.3695 -0.1218 -0.6271
  646MOL0     C87089   4.945   8.793   6.980 -0.8065  1.0147 -0.6507
  646MOL0     C87090   4.866   8.926   6.994 -0.4734 -0.0117  0.2725
  646MOL0     C87091   4.881   9.034   6.884 -0.4102 -0.0795 -0.4276
  646MOL0     N87092   4.782   9.126   6.929  0.6677 -1.4898 -0.4362
  646MOL0     C87093   4.799   9.217   7.030 -0.2961 -0.6087  0.5140
  646MOL0     C87094   4.695   9.296   7.030  0.4106  0.0137  0.6456
  646MOL0     C87095   4.672   9.414   7.118  0.6782 -0.3650 -0.2384
  646MOL0     C87096   4.521   9.450   7.118  0.0591  0.3491 -0.5013
  646MOL0     C87097   4.493   9.545   7.240  1.0349  0.3193  0.2804
  646MOL0     C87098   4.353   9.582   7.240 -0.3498  0.4997  0.1214
  646MOL0     O87099   4.346   9.693   7.328  0.5635  0.2046  0.0207
  646MOL0     C87100   4.222   9.749   7.322 -0.2828  0.2533  0.5464
  646MOL0     C87101   4.106   9.689   7.269 -0.0916  0.5336 -0.1701
  646MOL0     C87102   3.977   9.748   7.278  0.3266 -0.2945  0.4452
  646MOL0     C87103   3.855   9.667   7.227 -0.9006 -0.3657  0.4471
  646MOL0     C87104   3.966   9.877   7.338 -0.1853  0.4296 -0.0438
  646MOL0     C87105   3.839   9.952   7.356 -0.1684 -0.2416  0.9889
  646MOL0     O87106   3.718   9.892   7.365 -0.9053 -0.9488 -0.2184
  646MOL0     C87107   3.614   9.965   7.414 -0.1026 -0.6837  0.9132
  646MOL0     C87108   3.539  10.054   7.337  0.3616  0.5281 -0.0465
  646MOL0     C87109   3.429  10.116   7.399  0.5961  0.8623  0.0015
  646MOL0     C87110   3.395  10.107   7.535  0.4194 -0.0358 -0.0043
  646MOL0     O87111   3.278  10.159   7.594  0.2665  0.5969 -0.4790
  646MOL0     C87112   3.162  10.180   7.509 -0.4947  0.5096  1.1937
  646MOL0     C87113   3.060  10.250   7.594 -0.7321  0.5273  0.6084
  646MOL0     C87114   3.117  10.364   7.683 -0.8696 -1.1854  0.1033
  646MOL0     C87115   3.006  10.413   7.775 -0.9436 -0.7117  0.3164
  646MOL0     C87116   3.064  10.487   7.903 -0.1968 -0.0365  0.7146
  646MOL0     C87117   2.967  10.524   8.019  0.7609  0.0828  0.5375
  646MOL0     C87118   3.021  10.617   8.128 -0.3088  0.2424  0.1386
  646MOL0     C87119   2.924  10.643   8.242  0.1399  0.6447  0.5081
  646MOL0    Cl87120   2.928  10.520   8.377  0.0831 -0.0170 -0.6022
  646MOL0     C87121   3.481  10.037   7.610  0.3790  0.2074 -0.2535
  646MOL0     C87122   3.589   9.960   7.553 -0.1440 -0.9384 -0.6140
  646MOL0     O87123   3.858  10.080   7.347  0.3968  0.1449 -0.5798
  646MOL0     C87124   4.086   9.942   7.372 -0.0423  0.4564 -0.4253
  646MOL0     C87125   4.203   9.880   7.370  0.5094  1.0755  0.2451
  646MOL0     N87126   4.611   9.241   6.933  0.3067 -1.0169  0.4298
  646MOL0     N87127   4.657   9.139   6.872 -0.4747  0.5793  0.0003
  646MOL0     C87128   5.708   8.979   6.802 -0.1262 -0.1012 -0.4564
  646MOL0     C87129   5.821   9.074   6.803  0.0853 -0.6266 -0.0774
  646MOL0     C87130   6.205   9.281   6.709  0.1821  0.5764 -0.2295
  646MOL0     C87131   6.333   9.261   6.773  0.4810 -0.1109  1.0707
  646MOL0     C87132   6.453   9.327   6.743  0.2552  0.2243  0.7076
  646MOL0     C87133   6.454   9.416   6.633  0.6443 -0.3130 -0.6563
  646MOL0     O87134   6.558   9.497   6.603 -0.3609  0.4461  0.3986
  646MOL0     C87135   6.685   9.492   6.669 -0.1487 -0.4288 -0.6194
  646MOL0     C87136   6.758   9.623   6.626  0.5069 -0.1829  0.2300
  646MOL0     C87137   6.903   9.630   6.694  0.2131  0.0576  0.4210
  646MOL0     C87138   6.997   9.704   6.600 -0.5915 -0.8444 -1.3896
  646MOL0     C87139   6.945   9.822   6.541  0.0090 -1.4720 -0.1657
  646MOL0     C87140   6.879   9.927   6.510 -0.3655  0.4420 -0.4246
  646MOL0     C87141   6.326   9.432   6.568 -0.4048  0.0228  0.1284
  646MOL0     C87142   6.204   9.375   6.611 -0.2517 -0.1263  0.1261
  646MOL0     H87143   5.858   9.140   6.482  1.0414  0.4899  0.8716
  646MOL0     H87144   5.673   8.948   6.475 -0.7969  1.1786  0.6854
  646MOL0     H87145   5.447   8.686   6.712 -1.8225  1.1820 -1.6024
  646MOL0     H87146   5.553   8.735   6.844 -0.0925  3.0368  1.4731
  646MOL0     H87147   5.434   8.939   6.902 -0.9738 -0.9906  2.1824
  646MOL0     H87148   5.326   8.933   6.759  0.0699 -2.0444 -1.4342
  646MOL0     H87149   5.221   8.732   6.852 -1.1360 -1.2790  1.2234
  646MOL0     H87150   5.327   8.717   6.991 -0.3026 -1.3887 -0.5962
  646MOL0     H87151   5.255   8.900   7.097  3.0666  1.6934 -2.9687
  646MOL0     H87152   5.144   8.962   6.966 -0.0767  0.5984 -0.2979
  646MOL0     H87153   5.104   8.685   7.057  0.6005  0.0892 -1.6644
  646MOL0     H87154   5.042   8.811   7.175 -0.6609  0.4148 -1.0630
  646MOL0     H87155   4.966   8.765   6.876  1.4017  0.4644 -0.1061
  646MOL0     H87156   4.891   8.710   7.027  0.3332  1.8972  2.4901
  646MOL0     H87157   4.761   8.897   6.985 -0.0371 -2.1375  1.2073
  646MOL0     H87158   4.882   8.958   7.097  3.7640 -0.0059 -0.2077
  646MOL0     H87159   4.869   8.989   6.786  0.3175 -4.6411  1.3306
  646MOL0     H87160   4.977   9.085   6.895  0.7154 -2.2155  0.2418
  646MOL0     H87161   4.887   9.222   7.093  0.5887  0.2687 -0.7448
  646MOL0     H87162   4.716   9.389   7.215  1.0316 -0.9857 -0.5495
  646MOL0     H87163   4.736   9.499   7.092  0.4179  0.0034  0.3020
  646MOL0     H87164   4.473   9.353   7.135  3.0357 -1.4778 -1.7715
  646MOL0     H87165   4.486   9.496   7.025  0.1308  1.8270  0.1895
  646MOL0     H87166   4.553   9.636   7.242 -1.9628  2.4854 -0.3017
  646MOL0     H87167   4.512   9.499   7.338  2.2464 -0.0962 -0.1395
  646MOL0     H87168   4.295   9.496   7.275 -1.4397  0.9185 -0.6356
  646MOL0     H87169   4.327   9.605   7.137 -2.6074  1.4663  0.8400
  646MOL0     H87170   4.109   9.585   7.239  0.3060  0.0629  1.4227
  646MOL0     H87171   3.765   9.721   7.196 -0.1431  0.9980  0.5606
  646MOL0     H87172   3.882   9.608   7.139  3.3452  1.0275  0.6204
  646MOL0     H87173   3.813   9.594   7.297  0.8620 -2.4482 -0.5263
  646MOL0     H87174   3.544  10.063   7.229  0.0942 -1.4763 -0.2641
  646MOL0     H87175   3.358  10.180   7.348 -0.3067  0.2600  0.4711
  646MOL0     H87176   3.172  10.250   7.426 -0.6991  1.3512  1.8641
  646MOL0     H87177   3.116  10.084   7.484 -0.8517 -0.6143  5.4042
  646MOL0     H87178   2.973  10.287   7.539  0.3076  0.5624 -1.0738
  646MOL0     H87179   3.007  10.177   7.655  2.0718 -0.8546  1.5458
  646MOL0     H87180   3.149  10.445   7.617 -0.2239 -2.1022 -0.7507
  646MOL0     H87181   3.198  10.343   7.753 -0.7905 -0.3187  0.2856
  646MOL0     H87182   2.931  10.468   7.717 -1.4542 -1.8485 -0.1249
  646MOL0     H87183   2.952  10.325   7.811 -2.1817 -0.6581 -1.2814
  646MOL0     H87184   3.125  10.574   7.878 -0.8933  1.1511  2.8677
  646MOL0     H87185   3.138  10.427   7.955 -1.1719  0.3877  2.6767
  646MOL0     H87186   2.878  10.571   7.976  1.0108 -1.0972 -1.4008
  646MOL0     H87187   2.945  10.429   8.068 -0.1519 -0.5827 -1.0711
  646MOL0     H87188   3.035  10.714   8.079 -0.8314  0.2459 -0.0085
  646MOL0     H87189   3.107  10.577   8.182 -1.0697 -4.2171 -1.5787
  646MOL0     H87190   2.821  10.659   8.208 -0.0664 -2.6981 -0.8695
  646MOL0     H87191   2.960  10.736   8.287  0.2294  0.2678  1.2267
  646MOL0     H87192   3.448  10.031   7.713 -3.0139 -0.3012 -1.2371
  646MOL0     H87193   3.650   9.897   7.616 -2.3060 -2.1495  0.3960
  646MOL0     H87194   4.086  10.046   7.403 -2.0981  0.4975 -0.4376
  646MOL0     H87195   4.282   9.943   7.410  0.1405  2.6749 -1.4125
  646MOL0     H87196   5.675   8.931   6.893 -2.5144 -0.1275 -1.2514
  646MOL0     H87197   5.872   9.109   6.892  4.4722 -0.4649 -2.3931
  646MOL0     H87198   6.339   9.177   6.842  0.8728 -0.2883  0.8207
  646MOL0     H87199   6.552   9.314   6.785 -0.1787  2.2587  2.5105
  646MOL0     H87200   6.667   9.514   6.775  0.2487  1.5954 -0.9311
  646MOL0     H87201   6.739   9.398   6.655  1.0182  0.3399 -1.4352
  646MOL0     H87202   6.700   9.713   6.646 -0.9737 -1.2110  0.7483
  646MOL0     H87203   6.780   9.612   6.520  0.4318 -0.0611  0.2026
  646MOL0     H87204   6.937   9.528   6.712  2.2861  0.1236 -2.4102
  646MOL0     H87205   6.900   9.674   6.794 -1.9275  0.0711  0.4059
  646MOL0     H87206   7.020   9.643   6.512  0.8633  0.6053 -2.0560
  646MOL0     H87207   7.088   9.716   6.659  0.3755 -4.1995 -1.9705
  646MOL0     H87208   6.840  10.017   6.468 -2.7648 -2.1375 -4.3991
  646MOL0     H87209   6.333   9.513   6.496  0.4056  2.7825  3.0904
  646MOL0     H87210   6.110   9.412   6.571  1.5985  1.3913 -3.1771
  647MOL0     O87211   5.704   8.055   9.426  0.3528  0.2204 -0.2241
  647MOL0     C87212   5.754   8.089   9.321 -0.3925 -0.0361  0.1603
  647MOL0     O87213   5.690   8.085   9.195  0.3713  0.1767 -0.5381
  647MOL0     C87214   5.555   8.046   9.185 -0.1174 -0.1551  0.4143
  647MOL0     C87215   5.516   7.975   9.074 -0.1258 -0.5495  0.0718
  647MOL0     C87216   5.382   7.942   9.064 -0.2612  0.2880  0.2096
  647MOL0     C87217   5.280   7.981   9.149  0.4136 -0.5934 -0.3511
  647MOL0     O87218   5.150   7.930   9.116 -0.2992  0.0253 -0.5309
  647MOL0     C87219   5.043   7.962   9.200  0.0928 -0.0201 -0.5602
  647MOL0     C87220   4.925   7.908   9.132 -1.4236  0.0706  0.1907
  647MOL0     C87221   4.810   7.946   9.226 -0.4586  0.3073  0.8750
  647MOL0     C87222   4.676   7.958   9.145 -0.2456  0.1749  1.2233
  647MOL0     C87223   4.556   7.966   9.232 -0.8257  0.3626 -0.5796
  647MOL0     C87224   4.426   7.929   9.150 -0.1731  0.2975 -0.2884
  647MOL0     C87225   4.386   8.041   9.058  0.1226 -1.1514 -0.5237
  647MOL0     C87226   4.318   8.156   9.142  0.1639  0.4918 -0.4991
  647MOL0     N87227   4.183   8.120   9.182 -0.5377 -0.4324 -0.4751
  647MOL0     C87228   4.069   8.127   9.112 -0.2036  0.6549  1.3384
  647MOL0     C87229   3.968   8.090   9.191 -0.2793 -0.0561  0.8104
  647MOL0     C87230   3.816   8.069   9.173  0.0617 -0.0629  0.3242
  647MOL0     C87231   3.742   8.200   9.169 -0.4599  1.0270  0.1274
  647MOL0     C87232   3.754   8.259   9.033 -0.2465  0.1481 -0.6860
  647MOL0     C87233   3.665   8.209   8.921 -0.4384  0.3937 -0.5897
  647MOL0     O87234   3.540   8.287   8.915 -0.0193 -0.5208 -0.0075
  647MOL0     C87235   3.437   8.253   8.831 -0.5287  0.1437  0.1232
  647MOL0     C87236   3.308   8.303   8.852 -0.0314  0.4282  0.5353
  647MOL0     C87237   3.201   8.274   8.777 -0.2539 -0.3955 -0.1566
  647MOL0     C87238   3.069   8.312   8.826  0.2437 -0.7876 -0.3893
  647MOL0     C87239   3.223   8.203   8.656  0.4409 -0.4806 -0.5917
  647MOL0     C87240   3.109   8.161   8.577  1.5050  0.3275  0.2048
  647MOL0     O87241   3.100   8.030   8.539  0.3342  0.1010 -0.0781
  647MOL0     C87242   2.976   7.978   8.513 -0.0376  0.1054 -0.6501
  647MOL0     C87243   2.968   7.894   8.399  0.3080 -0.7211  0.6005
  647MOL0     C87244   2.840   7.831   8.369  0.6922 -0.2949  0.7958
  647MOL0     C87245   2.738   7.845   8.457  0.0984 -0.0015  0.1086
  647MOL0     O87246   2.616   7.788   8.445 -0.0871  0.3715  0.4500
  647MOL0     C87247   2.515   7.872   8.391  0.3464  0.2716 -0.8143
  647MOL0     C87248   2.373   7.841   8.448 -1.0963 -0.4741 -1.2042
  647MOL0     C87249   2.271   7.922   8.386  1.5366  0.7383  0.2064
  647MOL0     C87250   2.263   8.061   8.429  0.0619 -0.2800 -0.1865
  647MOL0     C87251   2.131   8.132   8.392  0.7772  0.3146 -0.4783
  647MOL0     C87252   2.015   8.094   8.488 -0.2052  0.1641 -0.5193
  647MOL0     C87253   1.879   8.141   8.441  0.3078  0.2403 -0.2139
  647MOL0     C87254   1.751   8.082   8.503 -1.0715  1.3050 -0.3286
  647MOL0    Cl87255   1.607   8.187   8.489  0.4446 -0.0354 -0.1395
  647MOL0     C87256   2.752   7.926   8.573  0.0433 -0.4616 -0.4097
  647MOL0     C87257   2.861   7.994   8.595  0.1507  0.0777  0.2170
  647MOL0     O87258   3.034   8.246   8.536 -0.2276 -0.4129 -0.1141
  647MOL0     C87259   3.354   8.149   8.627 -0.3418 -0.6211 -0.4813
  647MOL0     C87260   3.458   8.184   8.712  0.4975 -0.2131 -0.3390
  647MOL0     N87261   4.022   8.057   9.316  0.2836 -0.2059  0.7719
  647MOL0     N87262   4.148   8.060   9.309  0.1109 -0.3626 -0.7653
  647MOL0     C87263   5.310   8.061   9.256 -0.2225 -0.1543 -0.1225
  647MOL0     C87264   5.450   8.095   9.271 -0.2361 -0.3556  0.0714
  647MOL0     C87265   5.892   8.122   9.319 -0.3142  0.0273  0.5183
  647MOL0     C87266   5.966   8.133   9.439 -0.0465  0.7943  0.4545
  647MOL0     C87267   6.113   8.148   9.431 -0.4552  0.1912 -0.2080
  647MOL0     C87268   6.172   8.172   9.310 -0.1077 -0.3292  0.2769
  647MOL0     O87269   6.307   8.195   9.314 -0.0105  0.1184 -0.3459
  647MOL0     C87270   6.385   8.240   9.209 -0.3953  0.6354 -0.4947
  647MOL0     C87271   6.524   8.261   9.258  0.3342 -0.5209  0.1119
  647MOL0     C87272   6.607   8.294   9.135  0.1091  0.2687  0.2515
  647MOL0     C87273   6.730   8.387   9.166  0.5758  0.2584  0.3765
  647MOL0     C87274   6.814   8.406   9.045 -0.8108  0.7929  0.1902
  647MOL0     C87275   6.880   8.425   8.945 -0.5940 -0.7304  1.0773
  647MOL0     C87276   6.098   8.178   9.197  0.2133 -0.0615 -0.2397
  647MOL0     C87277   5.957   8.154   9.201  0.2999 -0.0484 -0.1154
  647MOL0     H87278   5.595   7.938   9.010  0.1320  0.2932 -0.1022
  647MOL0     H87279   5.364   7.874   8.981  3.5281  0.5523 -1.0563
  647MOL0     H87280   5.047   7.924   9.302  1.4354  1.9160  0.1755
  647MOL0     H87281   5.026   8.070   9.192  0.6472  0.3308  2.0212
  647MOL0     H87282   4.920   7.969   9.041  2.2081  3.2216  1.8320
  647MOL0     H87283   4.935   7.801   9.108  3.3938  0.5165 -0.7779
  647MOL0     H87284   4.801   7.880   9.313 -4.1137  0.9640  1.1737
  647MOL0     H87285   4.831   8.047   9.263  0.6675  0.9628 -1.3879
  647MOL0     H87286   4.670   8.044   9.079 -3.2761 -1.8770 -1.4725
  647MOL0     H87287   4.675   7.868   9.083 -2.6137  2.2292 -2.0179
  647MOL0     H87288   4.565   7.895   9.314 -1.6400  2.1897  1.1710
  647MOL0     H87289   4.539   8.060   9.285 -0.5345 -1.7194  3.5669
  647MOL0     H87290   4.436   7.834   9.096  1.0636 -1.7559  3.2251
  647MOL0     H87291   4.342   7.912   9.218  0.2962 -0.3771  0.1251
  647MOL0     H87292   4.473   8.073   9.001  0.1896 -4.8406 -2.7771
  647MOL0     H87293   4.314   8.001   8.986 -0.4370  3.4770 -2.9600
  647MOL0     H87294   4.311   8.243   9.076 -0.8357  0.6192 -0.2509
  647MOL0     H87295   4.376   8.177   9.232  0.1705 -4.8344  1.0676
  647MOL0     H87296   4.059   8.159   9.009 -0.5728  0.1764  1.2232
  647MOL0     H87297   3.795   8.002   9.088  1.2021 -0.0913  0.0415
  647MOL0     H87298   3.794   8.010   9.262  0.3660  0.1792  0.5594
  647MOL0     H87299   3.788   8.268   9.241 -3.2919  1.9479  1.2218
  647MOL0     H87300   3.637   8.179   9.193  0.1182 -1.9656  0.4443
  647MOL0     H87301   3.857   8.242   8.999  0.9228 -0.2042  2.6281
  647MOL0     H87302   3.746   8.366   9.050  2.9860  0.3920 -0.0159
  647MOL0     H87303   3.648   8.102   8.938  0.1253  0.6074  1.4970
  647MOL0     H87304   3.724   8.222   8.830 -0.6884 -2.4177 -1.2525
  647MOL0     H87305   3.295   8.352   8.949  0.9874  2.2095 -0.1882
  647MOL0     H87306   3.082   8.305   8.935  1.5449  1.3345 -0.3396
  647MOL0     H87307   3.054   8.417   8.797  0.7452 -0.4586  0.4907
  647MOL0     H87308   2.986   8.247   8.797 -0.9184  1.6241 -2.9247
  647MOL0     H87309   3.046   7.880   8.325  1.0014  0.0094  1.1703
  647MOL0     H87310   2.834   7.799   8.266 -2.4773  4.7643 -0.9697
  647MOL0     H87311   2.538   7.975   8.419 -1.0373 -0.1195  2.1741
  647MOL0     H87312   2.517   7.855   8.283  1.1040 -1.6344 -0.5474
  647MOL0     H87313   2.350   7.735   8.432 -0.1864 -1.1472  1.4661
  647MOL0     H87314   2.368   7.863   8.555 -0.2722 -1.4675 -0.9449
  647MOL0     H87315   2.172   7.880   8.406  1.3794  1.0134  0.0126
  647MOL0     H87316   2.286   7.922   8.277 -1.6668  0.7327 -0.3329
  647MOL0     H87317   2.269   8.058   8.539  2.5950 -0.7370 -0.2800
  647MOL0     H87318   2.345   8.111   8.377  0.3720  0.5316  1.0378
  647MOL0     H87319   2.114   8.102   8.288  2.3118 -1.4829 -0.2777
  647MOL0     H87320   2.148   8.240   8.399  1.5110  0.0912  2.9403
  647MOL0     H87321   2.003   7.985   8.494 -0.4946  0.0991 -1.9244
  647MOL0     H87322   2.037   8.122   8.591 -1.6832  0.7052 -0.3268
  647MOL0     H87323   1.871   8.127   8.333 -2.9681 -1.2514  0.0901
  647MOL0     H87324   1.862   8.248   8.459 -1.9117 -0.1592  0.4752
  647MOL0     H87325   1.767   8.057   8.608 -0.6787  0.6204 -0.5462
  647MOL0     H87326   1.721   7.989   8.454  0.0790  0.9399 -0.3561
  647MOL0     H87327   2.670   7.935   8.643 -0.0750 -1.2434 -0.4368
  647MOL0     H87328   2.870   8.058   8.682 -1.5109  0.0689  0.4308
  647MOL0     H87329   3.370   8.107   8.529 -1.5875 -1.1854 -0.4635
  647MOL0     H87330   3.556   8.156   8.676  0.5671 -1.2304  0.5858
  647MOL0     H87331   5.230   8.090   9.322  1.0996  1.4458  0.8644
  647MOL0     H87332   5.476   8.152   9.360 -1.3247 -0.9454  0.7900
  647MOL0     H87333   5.929   8.115   9.540  1.5750 -3.5724  0.5255
  647MOL0     H87334   6.178   8.141   9.518  0.2443  2.7056 -0.4396
  647MOL0     H87335   6.386   8.158   9.136  1.5655  0.0659  0.0998
  647MOL0     H87336   6.354   8.333   9.161 -1.7080 -0.2170 -1.3796
  647MOL0     H87337   6.566   8.190   9.329 -2.0232 -0.4730  1.6721
  647MOL0     H87338   6.506   8.354   9.312 -0.3096 -1.0093  0.7573
  647MOL0     H87339   6.548   8.349   9.061  2.5188 -0.2262 -2.1965
  647MOL0     H87340   6.634   8.199   9.089  2.4380 -0.2936  2.5180
  647MOL0     H87341   6.786   8.325   9.238  0.5396 -0.9960 -0.6405
  647MOL0     H87342   6.694   8.477   9.217  0.1095 -1.2888  3.0284
  647MOL0     H87343   6.929   8.437   8.851 -2.0951  2.3335  0.5642
  647MOL0     H87344   6.149   8.208   9.106 -2.2400  1.2914 -1.2658
  647MOL0     H87345   5.904   8.155   9.106  0.6651  0.1064 -0.3172
  648MOL0     O87346   2.380   8.163   8.908 -0.0875 -0.1004 -0.5723
  648MOL0     C87347   2.345   8.268   8.856  0.0194  0.4396 -0.4045
  648MOL0     O87348   2.242   8.342   8.902 -0.3514 -0.0085 -0.1601
  648MOL0     C87349   2.180   8.295   9.013 -0.4024 -0.2171  0.3016
  648MOL0     C87350   2.189   8.353   9.141  0.4907 -0.3821  0.3615
  648MOL0     C87351   2.102   8.311   9.245 -0.1056 -0.1624 -0.5296
  648MOL0     C87352   2.010   8.214   9.230  0.3106  0.0015  0.4641
  648MOL0     O87353   1.922   8.183   9.335 -0.5841 -0.2199 -0.4825
  648MOL0     C87354   1.895   8.045   9.351  1.2188  0.0837 -0.4986
  648MOL0     C87355   1.821   8.025   9.482 -0.0547 -0.0318  0.2266
  648MOL0     C87356   1.782   7.870   9.493 -0.5617 -0.1732 -0.7889
  648MOL0     C87357   1.740   7.840   9.634  0.5623 -0.2503  0.7699
  648MOL0     C87358   1.735   7.692   9.642  1.1701  0.3110 -0.4866
  648MOL0     C87359   1.708   7.623   9.773 -0.1667  0.0765  0.2295
  648MOL0     C87360   1.580   7.668   9.837 -0.9911 -0.3264 -0.0285
  648MOL0     C87361   1.469   7.571   9.814 -0.0306 -0.8257 -0.4156
  648MOL0     N87362   1.342   7.624   9.868 -0.4217 -0.5586 -0.2320
  648MOL0     C87363   1.279   7.745   9.840  0.0358 -0.0756  0.0184
  648MOL0     C87364   1.169   7.750   9.917 -0.1483  0.4642 -0.4329
  648MOL0     C87365   1.074   7.878   9.920  0.3113 -0.1316 -1.0768
  648MOL0     C87366   1.087   7.953  10.056  0.4997  0.6391 -0.3617
  648MOL0     C87367   0.976   8.058  10.078  0.3351  0.3422  0.0308
  648MOL0     C87368   0.831   7.994  10.083 -1.2172 -0.0576  0.9957
  648MOL0     O87369   0.734   8.101  10.055 -0.5264 -0.0699  0.2504
  648MOL0     C87370   0.603   8.063  10.051 -0.1491 -0.2347  0.6723
  648MOL0     C87371   0.528   8.097  10.157  0.3846  0.1902  0.1160
  648MOL0     C87372   0.390   8.071  10.165 -0.1265  0.2403  0.2099
  648MOL0     C87373   0.324   8.093  10.299 -0.2013 -0.8136 -0.4135
  648MOL0     C87374   0.329   8.024  10.044 -0.8153 -0.9314 -1.3052
  648MOL0     C87375   0.186   8.011  10.033  0.3468  0.6655 -0.6229
  648MOL0     O87376   0.135   7.931   9.934  0.6873 -0.2078  0.7126
  648MOL0     C87377   0.002   7.916   9.918 -0.2625 -0.0338  1.0048
  648MOL0     C87378  -0.062   7.807   9.992 -0.5954 -0.5823 -0.5427
  648MOL0     C87379  -0.198   7.786   9.975  0.5643  0.6882  0.6867
  648MOL0     C87380  -0.280   7.873   9.901  0.2557 -0.3169  0.8299
  648MOL0     O87381  -0.410   7.838   9.903  0.8629 -0.3176  0.2994
  648MOL0     C87382  -0.497   7.937   9.845 -0.5170  0.7129 -0.5857
  648MOL0     C87383  -0.636   7.877   9.864 -0.2454 -0.9986  0.3805
  648MOL0     C87384  -0.740   7.977   9.831  0.7516  1.0683  0.2182
  648MOL0     C87385  -0.874   7.920   9.870  0.4235 -0.8849  0.1983
  648MOL0     C87386  -0.942   7.843   9.762  0.3016 -0.2421  0.0248
  648MOL0     C87387  -1.087   7.808   9.809 -0.8237 -1.1509  0.6846
  648MOL0     C87388  -1.179   7.740   9.698 -0.1239 -0.6520  0.6136
  648MOL0     C87389  -1.239   7.833   9.595  0.0483  0.0185 -0.3761
  648MOL0    Cl87390  -1.330   7.743   9.466 -0.6406 -0.3900  0.3003
  648MOL0     C87391  -0.219   7.993   9.849 -0.1137 -0.9404 -0.5755
  648MOL0     C87392  -0.080   8.007   9.845 -0.0431  0.7250  0.2716
  648MOL0     O87393   0.117   8.084  10.101 -0.6931  0.2779 -0.7305
  648MOL0     C87394   0.406   7.986   9.933  0.3717  0.8222 -0.7469
  648MOL0     C87395   0.547   7.998   9.937  0.0287 -0.5990  0.2184
  648MOL0     N87396   1.159   7.625   9.977  0.5530  0.8704 -0.3157
  648MOL0     N87397   1.261   7.552   9.950 -0.1859  0.0277 -0.6490
  648MOL0     C87398   2.011   8.148   9.102 -0.3462  0.5445 -0.3663
  648MOL0     C87399   2.099   8.179   8.999 -0.5467  0.1360  0.0868
  648MOL0     C87400   2.427   8.317   8.745 -0.2084  0.2031  0.1352
  648MOL0     C87401   2.376   8.420   8.663  0.1005  0.1996 -0.0264
  648MOL0     C87402   2.449   8.485   8.562 -1.2829  0.0620 -0.7969
  648MOL0     C87403   2.565   8.421   8.525 -0.4206 -0.1593 -0.2416
  648MOL0     O87404   2.621   8.460   8.408 -0.5742  0.5870  0.2759
  648MOL0     C87405   2.708   8.356   8.340 -0.3474  0.0264 -1.2878
  648MOL0     C87406   2.681   8.361   8.197  1.0139 -1.0758  0.6049
  648MOL0     C87407   2.531   8.322   8.169  0.2732  0.2949 -0.9291
  648MOL0     C87408   2.479   8.395   8.044 -0.8387  0.0139 -0.8903
  648MOL0     C87409   2.556   8.393   7.924 -1.0658 -0.3153 -0.7770
  648MOL0     C87410   2.627   8.376   7.832 -0.7052  0.0637  0.4531
  648MOL0     C87411   2.624   8.318   8.606  0.8102  0.1281  0.8360
  648MOL0     C87412   2.548   8.267   8.714  0.5218  0.1748  0.2947
  648MOL0     H87413   2.262   8.432   9.159  0.1322  0.1759 -0.5619
  648MOL0     H87414   2.103   8.354   9.345  3.4702  0.1539 -0.5492
  648MOL0     H87415   1.835   8.010   9.267  1.9471  0.5205 -1.2090
  648MOL0     H87416   1.978   7.974   9.349  0.5856 -0.6854  0.0202
  648MOL0     H87417   1.881   8.063   9.566 -0.8987  0.7027  0.5158
  648MOL0     H87418   1.732   8.089   9.482  0.2442  0.4315  1.6880
  648MOL0     H87419   1.696   7.848   9.428 -1.5900  0.1273  0.4251
  648MOL0     H87420   1.869   7.809   9.468 -1.8255 -3.8276  2.7136
  648MOL0     H87421   1.816   7.881   9.702  0.9966  1.1773 -0.5060
  648MOL0     H87422   1.647   7.896   9.648  0.4183  0.0412 -1.1310
  648MOL0     H87423   1.655   7.657   9.576  0.4346  0.0815  0.5086
  648MOL0     H87424   1.824   7.646   9.597 -0.0443 -1.7067 -0.9746
  648MOL0     H87425   1.701   7.514   9.765  0.3813 -0.0057  0.7519
  648MOL0     H87426   1.790   7.647   9.843  0.8377  0.4919 -1.0491
  648MOL0     H87427   1.601   7.687   9.943  1.8412  5.2999 -1.2230
  648MOL0     H87428   1.550   7.770   9.811  1.2079  0.9679  2.1301
  648MOL0     H87429   1.483   7.481   9.875  1.0426  0.7192  1.7586
  648MOL0     H87430   1.455   7.537   9.711 -1.6655 -4.4818  0.8404
  648MOL0     H87431   1.324   7.821   9.776  2.2842 -1.9335 -0.7881
  648MOL0     H87432   1.079   7.941   9.830 -0.0077  1.2107 -0.1875
  648MOL0     H87433   0.977   7.828   9.911  0.2502 -1.4448  3.9301
  648MOL0     H87434   1.188   7.995  10.061  0.7246  0.1451 -0.6293
  648MOL0     H87435   1.084   7.883  10.140 -2.5218 -0.4463 -1.2654
  648MOL0     H87436   0.981   8.138  10.004 -3.2108  0.5100 -0.1806
  648MOL0     H87437   0.991   8.112  10.172 -2.3540  0.9233  0.1970
  648MOL0     H87438   0.800   7.951  10.179 -3.2681  2.0094  1.3396
  648MOL0     H87439   0.826   7.915  10.007  1.7529  0.9417 -0.3911
  648MOL0     H87440   0.588   8.130  10.241  0.5744 -1.5853  0.7323
  648MOL0     H87441   0.270   8.003  10.332  1.9105 -2.1594 -0.4206
  648MOL0     H87442   0.403   8.118  10.370 -0.8336 -0.7203  0.2726
  648MOL0     H87443   0.266   8.184  10.281 -0.3610 -0.8922 -0.2874
  648MOL0     H87444  -0.001   7.743  10.055  0.1458  0.9603  0.3698
  648MOL0     H87445  -0.248   7.707  10.030  1.8114 -0.4258  0.2747
  648MOL0     H87446  -0.496   8.025   9.909  2.0923  0.6354 -0.4360
  648MOL0     H87447  -0.472   7.965   9.742 -1.3143  0.5133 -0.8431
  648MOL0     H87448  -0.652   7.796   9.793 -0.6810  0.5213 -1.3418
  648MOL0     H87449  -0.639   7.841   9.967  1.7434 -3.0099 -0.1722
  648MOL0     H87450  -0.725   8.011   9.728  3.4927  2.3094  0.9435
  648MOL0     H87451  -0.731   8.067   9.892  2.1446  0.6501  0.6674
  648MOL0     H87452  -0.862   7.866   9.964 -0.3693  1.5829  1.8022
  648MOL0     H87453  -0.942   8.002   9.894 -0.3544 -0.5063 -2.8122
  648MOL0     H87454  -0.892   7.750   9.735 -0.2976 -0.7990  0.7891
  648MOL0     H87455  -0.951   7.913   9.679  0.9105  3.3607  2.7489
  648MOL0     H87456  -1.076   7.749   9.900 -0.3683 -4.0005 -1.1002
  648MOL0     H87457  -1.141   7.899   9.839  0.5338  0.3855 -1.2440
  648MOL0     H87458  -1.267   7.693   9.744 -1.1670 -0.5203 -1.1902
  648MOL0     H87459  -1.129   7.664   9.637 -1.3611 -2.4646  1.7163
  648MOL0     H87460  -1.162   7.893   9.547 -1.9764  1.5905 -1.7984
  648MOL0     H87461  -1.310   7.908   9.630 -1.2091 -0.4731 -1.8045
  648MOL0     H87462  -0.281   8.068   9.801  2.5276  0.4333 -2.1258
  648MOL0     H87463  -0.040   8.086   9.783 -0.6104  0.4162 -0.4980
  648MOL0     H87464   0.364   7.938   9.845  2.0465  0.3448 -1.3147
  648MOL0     H87465   0.614   7.966   9.858  0.9811  0.2476  0.6694
  648MOL0     H87466   1.942   8.065   9.091  1.9246 -1.6074  0.7221
  648MOL0     H87467   2.080   8.131   8.903 -0.9815 -1.3756  0.8918
  648MOL0     H87468   2.271   8.448   8.660  0.3855  1.2235 -0.8598
  648MOL0     H87469   2.407   8.563   8.498  2.7447  1.3746 -2.1383
  648MOL0     H87470   2.811   8.388   8.360  0.1071 -1.8065 -0.3836
  648MOL0     H87471   2.694   8.258   8.388  1.1748  0.5595  0.3819
  648MOL0     H87472   2.744   8.291   8.141  2.6142 -0.2004  1.2686
  648MOL0     H87473   2.710   8.457   8.155  4.1435 -2.7624 -1.4702
  648MOL0     H87474   2.468   8.350   8.254  3.3330  0.2137  1.5663
  648MOL0     H87475   2.525   8.215   8.147 -2.6801  0.3541 -0.7058
  648MOL0     H87476   2.477   8.496   8.085  1.5507 -0.6369  1.0552
  648MOL0     H87477   2.380   8.356   8.019 -1.0278 -0.3694  0.3776
  648MOL0     H87478   2.691   8.364   7.747  0.1148 -0.8528  1.1862
  648MOL0     H87479   2.721   8.277   8.580 -0.4508 -1.5655 -1.5858
  648MOL0     H87480   2.595   8.190   8.773  2.0988 -0.8631 -2.1456
  649MOL0     O87481   4.666   8.761  10.166 -0.2370 -0.7493 -0.1911
  649MOL0     C87482   4.684   8.642  10.147  0.8497 -0.4920  0.3484
  649MOL0     O87483   4.591   8.551  10.183 -0.2447  0.0710 -0.3065
  649MOL0     C87484   4.470   8.602  10.224 -0.3403  0.4661 -0.4672
  649MOL0     C87485   4.404   8.561  10.342  0.5032  1.1621 -0.3187
  649MOL0     C87486   4.276   8.609  10.374  0.2771 -0.4436  0.5249
  649MOL0     C87487   4.213   8.706  10.292  0.1246 -0.1588  0.1655
  649MOL0     O87488   4.092   8.765  10.318 -0.3332 -0.1682  0.6150
  649MOL0     C87489   4.033   8.759  10.446  0.3460  0.1412 -0.1315
  649MOL0     C87490   3.893   8.802  10.431 -0.6683 -0.4727  0.0568
  649MOL0     C87491   3.811   8.813  10.557 -0.3971  0.0514 -0.2069
  649MOL0     C87492   3.667   8.841  10.520  0.9118  0.3128  0.3866
  649MOL0     C87493   3.585   8.873  10.644  0.6222 -0.8816 -0.1146
  649MOL0     C87494   3.453   8.959  10.607 -0.6771  0.0946  0.1658
  649MOL0     C87495   3.347   8.944  10.718 -0.1806  1.1808 -0.1067
  649MOL0     C87496   3.251   8.827  10.718 -0.3124 -0.1355 -0.7570
  649MOL0     N87497   3.185   8.818  10.594 -0.2738 -0.7153 -0.0437
  649MOL0     C87498   3.220   8.741  10.484 -0.1846 -0.6504  0.3459
  649MOL0     C87499   3.117   8.737  10.402  0.6902 -0.7969  0.3068
  649MOL0     C87500   3.108   8.662  10.268  0.2770  0.6801 -0.1882
  649MOL0     C87501   2.971   8.651  10.193  0.4301  0.1155 -0.2145
  649MOL0     C87502   2.890   8.560  10.281 -0.0245  0.0251 -0.3233
  649MOL0     C87503   2.742   8.553  10.252 -0.2182  0.4090  0.5869
  649MOL0     O87504   2.681   8.506  10.372  0.3896  0.2207  0.2646
  649MOL0     C87505   2.560   8.554  10.392 -0.0179 -0.0630  0.2992
  649MOL0     C87506   2.452   8.478  10.359 -0.4490 -0.7240 -0.7677
  649MOL0     C87507   2.319   8.521  10.387 -1.1066 -0.2464  0.4868
  649MOL0     C87508   2.219   8.413  10.367  0.3736 -0.9703 -0.6268
  649MOL0     C87509   2.297   8.650  10.452  0.1325 -0.1889  0.3473
  649MOL0     C87510   2.156   8.701  10.488 -0.6223 -0.1971  0.0771
  649MOL0     O87511   2.047   8.614  10.488  0.7583 -0.4090  0.3216
  649MOL0     C87512   1.918   8.659  10.501 -0.0676  0.7336  0.1032
  649MOL0     C87513   1.821   8.557  10.495  0.7192 -1.0670  0.6303
  649MOL0     C87514   1.685   8.585  10.477 -0.1668  0.2941 -0.5512
  649MOL0     C87515   1.639   8.716  10.501  0.1970 -0.1716 -1.4916
  649MOL0     O87516   1.502   8.730  10.510  0.0201 -0.3257  0.2653
  649MOL0     C87517   1.441   8.860  10.529 -0.3614  0.2737  0.5055
  649MOL0     C87518   1.396   8.917  10.394 -0.4946  0.7866  0.3953
  649MOL0     C87519   1.270   8.849  10.344 -0.1647 -0.2666  0.7347
  649MOL0     C87520   1.155   8.897  10.431  0.0435 -0.5526  0.7463
  649MOL0     C87521   1.022   8.837  10.395 -0.3622  0.3252  0.0905
  649MOL0     C87522   0.981   8.858  10.256 -0.1517 -0.6768  0.3527
  649MOL0     C87523   0.827   8.842  10.238 -0.1190  0.4309 -0.3260
  649MOL0     C87524   0.743   8.971  10.280 -0.7168 -0.2247  0.0897
  649MOL0    Cl87525   0.569   8.933  10.264  0.0526  0.0401 -0.1419
  649MOL0     C87526   1.735   8.818  10.508  1.1601 -0.5965  0.2506
  649MOL0     C87527   1.873   8.786  10.513 -0.4531 -0.3222 -0.5473
  649MOL0     O87528   2.163   8.818  10.518 -0.0492 -0.0632  0.6682
  649MOL0     C87529   2.413   8.730  10.470 -0.3218 -0.4128 -0.5385
  649MOL0     C87530   2.540   8.686  10.439 -0.6011 -0.5070 -0.0265
  649MOL0     N87531   3.022   8.822  10.459  0.3068 -0.4371  0.4324
  649MOL0     N87532   3.060   8.870  10.567  0.5471 -0.4109 -0.5984
  649MOL0     C87533   4.274   8.742  10.181 -0.8747 -0.6857  0.7757
  649MOL0     C87534   4.391   8.684  10.146 -0.2595  0.1305 -0.1675
  649MOL0     C87535   4.804   8.584  10.077 -0.4474  0.6448  0.9860
  649MOL0     C87536   4.894   8.674  10.012  0.4903 -0.8281 -0.6791
  649MOL0     C87537   5.010   8.614   9.951  0.6342 -0.1628  0.1642
  649MOL0     C87538   5.020   8.479   9.941  0.3699  0.4186 -0.8620
  649MOL0     O87539   5.132   8.421   9.882  0.4594 -0.1678  0.0013
  649MOL0     C87540   5.254   8.484   9.880  0.1331 -0.1536 -0.7870
  649MOL0     C87541   5.306   8.510  10.028  0.0262  0.8290 -0.1682
  649MOL0     C87542   5.429   8.586  10.036  0.8712 -0.3051 -1.0611
  649MOL0     C87543   5.554   8.521   9.976 -0.2753 -0.0276 -0.0990
  649MOL0     C87544   5.685   8.597   9.977 -0.0024  0.5164  0.2779
  649MOL0     C87545   5.787   8.666   9.973  0.4532 -0.6329 -0.2285
  649MOL0     C87546   4.928   8.394   9.989 -0.6897  0.7004  0.1778
  649MOL0     C87547   4.821   8.442  10.055 -0.2755  0.3271  0.2115
  649MOL0     H87548   4.459   8.496  10.410  2.8016  1.6180 -1.6520
  649MOL0     H87549   4.229   8.581  10.468  1.8425 -1.2475  1.1021
  649MOL0     H87550   4.034   8.659  10.490 -0.8554  0.6370  1.0907
  649MOL0     H87551   4.077   8.829  10.518  2.2573 -0.3318 -0.7887
  649MOL0     H87552   3.888   8.905  10.396 -0.9757  0.7707  3.3729
  649MOL0     H87553   3.843   8.732  10.364  1.2052  0.5802 -2.6235
  649MOL0     H87554   3.803   8.721  10.615 -0.4351 -0.1954 -0.6038
  649MOL0     H87555   3.856   8.892  10.618 -6.0085  2.6510  1.2524
  649MOL0     H87556   3.674   8.927  10.451  0.8029 -0.0868 -0.1260
  649MOL0     H87557   3.621   8.758  10.467 -1.0818  1.9677 -0.5965
  649MOL0     H87558   3.555   8.776  10.685  0.7522 -0.1701  1.7432
  649MOL0     H87559   3.640   8.930  10.719 -1.3345 -0.4724  1.0866
  649MOL0     H87560   3.486   9.063  10.600 -1.4194  0.3360  0.1684
  649MOL0     H87561   3.404   8.942  10.511 -1.5083  1.1427  0.3910
  649MOL0     H87562   3.382   8.940  10.822 -1.8440 -0.0674  0.4567
  649MOL0     H87563   3.288   9.035  10.716 -2.5271 -0.2383  0.5364
  649MOL0     H87564   3.174   8.845  10.794 -0.0141 -0.7103 -0.3108
  649MOL0     H87565   3.302   8.735  10.749 -1.2733  0.1349  1.9398
  649MOL0     H87566   3.317   8.697  10.462  0.2295  0.1620  0.5174
  649MOL0     H87567   3.177   8.720  10.205  0.8181  3.1218  2.4424
  649MOL0     H87568   3.154   8.564  10.281 -0.9651  0.2985  1.6484
  649MOL0     H87569   2.983   8.617  10.090  1.2530  1.6850 -0.6755
  649MOL0     H87570   2.921   8.748  10.187 -0.6787 -0.5330 -2.4231
  649MOL0     H87571   2.898   8.596  10.384 -2.2711 -1.3504  0.4050
  649MOL0     H87572   2.927   8.458  10.271 -0.1793 -0.2876  1.8779
  649MOL0     H87573   2.720   8.487  10.168  0.7837 -2.1697  2.2286
  649MOL0     H87574   2.704   8.650  10.220  0.0311  0.7578  1.3217
  649MOL0     H87575   2.473   8.380  10.317  0.4916 -1.6442  1.6185
  649MOL0     H87576   2.268   8.332  10.312  0.4844 -0.6973 -0.9333
  649MOL0     H87577   2.171   8.380  10.459 -0.0836  1.3220  0.0223
  649MOL0     H87578   2.144   8.462  10.305  2.4040  1.8067 -1.1069
  649MOL0     H87579   1.855   8.454  10.495  0.4782 -1.1508  1.2728
  649MOL0     H87580   1.604   8.513  10.473  0.7198 -0.8854  1.3896
  649MOL0     H87581   1.357   8.852  10.599  0.9234  1.6558  2.3087
  649MOL0     H87582   1.507   8.936  10.572 -0.6745  0.8879 -0.0837
  649MOL0     H87583   1.383   9.026  10.403  1.5668  1.0704  0.3491
  649MOL0     H87584   1.470   8.892  10.318  0.2730 -1.5800  1.8194
  649MOL0     H87585   1.278   8.740  10.353 -0.9891 -0.3191  0.9401
  649MOL0     H87586   1.243   8.880  10.243 -3.5486 -1.9525  0.9968
  649MOL0     H87587   1.172   8.879  10.537 -0.4082 -1.7864  0.6277
  649MOL0     H87588   1.142   9.005  10.427 -0.8644 -0.5746  2.2285
  649MOL0     H87589   0.943   8.883  10.455  1.6858 -0.0396  3.3226
  649MOL0     H87590   1.027   8.733  10.430  1.4577 -0.1344 -1.3678
  649MOL0     H87591   1.013   8.955  10.216 -1.3902  0.6971  2.5287
  649MOL0     H87592   1.032   8.780  10.198 -0.5860 -1.0345  0.4440
  649MOL0     H87593   0.791   8.755  10.295 -2.7999  1.4009 -0.3789
  649MOL0     H87594   0.812   8.815  10.134 -0.3075 -2.8409  0.4344
  649MOL0     H87595   0.767   9.046  10.204 -0.6920  0.8110  1.0856
  649MOL0     H87596   0.778   9.011  10.376  3.4414  1.5235 -1.8846
  649MOL0     H87597   1.691   8.917  10.516 -3.2583 -2.0893 -1.9802
  649MOL0     H87598   1.946   8.866  10.522  3.6586 -3.9556  3.2587
  649MOL0     H87599   2.417   8.833  10.504 -1.7607  0.3800 -2.5872
  649MOL0     H87600   2.618   8.758  10.463 -0.1813 -0.7176 -0.7249
  649MOL0     H87601   4.237   8.818  10.113  0.9138 -0.6111 -0.1852
  649MOL0     H87602   4.440   8.708  10.052  3.6716  0.4020  1.7276
  649MOL0     H87603   4.880   8.781  10.008  3.3958 -0.4205 -2.6156
  649MOL0     H87604   5.086   8.678   9.908  0.7835 -2.0974 -2.7399
  649MOL0     H87605   5.330   8.428   9.824  1.5058  0.4422  0.4423
  649MOL0     H87606   5.247   8.579   9.827  0.1232  2.2274  3.1092
  649MOL0     H87607   5.329   8.414  10.076 -0.1821  0.1600 -1.3830
  649MOL0     H87608   5.240   8.570  10.092  0.5543  0.3307  0.8797
  649MOL0     H87609   5.461   8.593  10.140  0.7474  0.3658 -1.0609
  649MOL0     H87610   5.405   8.683   9.992 -0.7152  0.5602  1.5228
  649MOL0     H87611   5.537   8.499   9.871 -0.3505  0.7613 -0.2510
  649MOL0     H87612   5.575   8.423  10.021  0.9448  0.1171 -0.2993
  649MOL0     H87613   5.873   8.728   9.960 -0.5105  0.6899 -0.5530
  649MOL0     H87614   4.939   8.287   9.974  0.5288  1.0553 -1.9175
  649MOL0     H87615   4.733   8.388  10.088  0.5309 -1.5241 -0.5258
  650MOL0     O87616   4.642   3.818   0.270  0.2676  0.3400 -0.5723
  650MOL0     C87617   4.621   3.699   0.281  0.5816  0.7552 -0.9017
  650MOL0     O87618   4.512   3.635   0.232  0.3545 -0.0018 -0.2285
  650MOL0     C87619   4.388   3.696   0.209  0.8727 -0.5530  0.5585
  650MOL0     C87620   4.358   3.831   0.255  1.0436  0.9105  0.6010
  650MOL0     C87621   4.232   3.883   0.228  0.7832 -0.7394 -0.0585
  650MOL0     C87622   4.129   3.812   0.162 -0.6053 -0.4435 -1.3193
  650MOL0     O87623   4.004   3.868   0.143  0.6297 -0.4656  0.3488
  650MOL0     C87624   3.965   3.891   0.002 -0.6516 -0.2462 -0.1846
  650MOL0     C87625   3.980   4.050  -0.022  0.3022  0.1691  0.2256
  650MOL0     C87626   3.881   4.127   0.064  0.0272  0.3336 -0.1670
  650MOL0     C87627   3.913   4.272   0.102 -0.3491  0.4512  0.4630
  650MOL0     C87628   3.775   4.339   0.143 -0.1830 -0.2768  0.3684
  650MOL0     C87629   3.784   4.494   0.159 -0.0534  0.0451 -0.5843
  650MOL0     C87630   3.782   4.557   0.021  0.5110  0.6686  0.6526
  650MOL0     C87631   3.774   4.713   0.024 -0.6803 -0.2278 -0.4087
  650MOL0     N87632   3.638   4.760   0.054  0.8932 -0.5078  0.0980
  650MOL0     C87633   3.538   4.749  -0.040  0.9486  0.9902  0.2642
  650MOL0     C87634   3.422   4.784   0.023  0.6900  0.5138  0.1126
  650MOL0     C87635   3.285   4.798  -0.036  0.3521  0.0623  0.9104
  650MOL0     C87636   3.207   4.923   0.011  0.3938  0.2446 -0.8384
  650MOL0     C87637   3.189   4.921   0.164 -0.7448 -0.2592 -0.2856
  650MOL0     C87638   3.036   4.942   0.201 -0.2116 -0.3783  0.6241
  650MOL0     O87639   2.997   5.079   0.157  0.1430 -0.3263 -0.2487
  650MOL0     C87640   2.861   5.111   0.176 -1.1375  0.6598 -0.1146
  650MOL0     C87641   2.753   5.041   0.134 -0.2940 -0.3736 -0.3609
  650MOL0     C87642   2.622   5.092   0.138  0.5172  0.2123 -0.2610
  650MOL0     C87643   2.522   4.995   0.080  0.6282 -0.1261 -0.1771
  650MOL0     C87644   2.594   5.216   0.200  0.1884 -0.1567  0.5896
  650MOL0     C87645   2.464   5.268   0.227  0.0396  0.2873 -0.6096
  650MOL0     O87646   2.460   5.394   0.265 -0.3590 -0.0567 -0.2683
  650MOL0     C87647   2.366   5.453   0.340  0.3498 -0.2262 -0.4114
  650MOL0     C87648   2.234   5.411   0.382 -0.6063 -0.8291 -0.8901
  650MOL0     C87649   2.154   5.500   0.453  0.1549 -0.0207  0.4885
  650MOL0     C87650   2.195   5.630   0.484  0.4381 -0.4232 -0.0202
  650MOL0     O87651   2.092   5.715   0.525 -0.3479  0.6459 -0.2508
  650MOL0     C87652   2.117   5.807   0.638  0.1879 -0.8044 -0.4598
  650MOL0     C87653   2.008   5.903   0.670 -0.0695 -0.0016 -0.8613
  650MOL0     C87654   1.887   5.814   0.703 -0.0586  0.0002  0.5773
  650MOL0     C87655   1.775   5.895   0.771  0.9685 -0.0648 -0.4633
  650MOL0     C87656   1.656   5.802   0.830 -0.7495 -0.0056 -0.4822
  650MOL0     C87657   1.545   5.775   0.721  0.3230  0.1686  0.0925
  650MOL0     C87658   1.446   5.667   0.760  0.4152  0.1537 -0.4550
  650MOL0     C87659   1.485   5.526   0.731 -0.4956 -0.0615 -0.1952
  650MOL0    Cl87660   1.641   5.466   0.805  0.5270 -0.4257  0.2288
  650MOL0     C87661   2.323   5.666   0.455  0.1624 -0.0738  0.1466
  650MOL0     C87662   2.408   5.583   0.384  0.3651 -0.3612 -1.2266
  650MOL0     O87663   2.366   5.200   0.209 -0.4959  0.0152 -0.7003
  650MOL0     C87664   2.710   5.290   0.232 -0.1157  0.4378  0.7840
  650MOL0     C87665   2.836   5.243   0.224  0.6382 -0.1423 -0.1672
  650MOL0     N87666   3.460   4.814   0.160 -0.4766 -0.2822  0.0326
  650MOL0     N87667   3.589   4.795   0.176  0.7824  0.4512 -0.4911
  650MOL0     C87668   4.164   3.690   0.112  0.9000  0.6144 -0.4443
  650MOL0     C87669   4.293   3.636   0.124 -0.5105 -0.1570 -0.4281
  650MOL0     C87670   4.730   3.613   0.312  0.0437  0.1328  0.4154
  650MOL0     C87671   4.862   3.642   0.281 -0.6190 -0.5254  0.5318
  650MOL0     C87672   4.963   3.554   0.295 -0.1821 -0.3239  0.4905
  650MOL0     C87673   4.948   3.422   0.349 -0.0132 -1.0562  0.5633
  650MOL0     O87674   5.049   3.340   0.393 -0.4447 -0.3636  0.1556
  650MOL0     C87675   5.176   3.393   0.431  0.2086  0.3146  0.5623
  650MOL0     C87676   5.239   3.313   0.546  0.1274  0.4020  0.1401
  650MOL0     C87677   5.137   3.315   0.661 -0.1790  1.0497  0.8961
  650MOL0     C87678   5.168   3.188   0.743 -0.1396 -0.4054 -0.2428
  650MOL0     C87679   5.105   3.173   0.873  0.7379 -0.7468 -0.0361
  650MOL0     C87680   5.053   3.173   0.987  0.2326  0.2117 -0.4682
  650MOL0     C87681   4.810   3.388   0.366 -0.6859  0.2550 -1.3339
  650MOL0     C87682   4.708   3.486   0.358 -0.3142 -0.0641 -0.2916
  650MOL0     H87683   4.428   3.902   0.299  0.6362  1.5822  0.1811
  650MOL0     H87684   4.207   3.981   0.268  1.8055 -0.7029  0.5524
  650MOL0     H87685   4.031   3.842  -0.071  1.7436  3.9438 -1.1828
  650MOL0     H87686   3.860   3.861  -0.004 -1.0031  0.9923 -0.5148
  650MOL0     H87687   4.078   4.074   0.021 -0.0533 -0.5178  1.4831
  650MOL0     H87688   3.982   4.073  -0.129  0.5387  1.2798  0.4628
  650MOL0     H87689   3.783   4.120   0.016 -0.6962 -1.9884  1.4500
  650MOL0     H87690   3.864   4.081   0.162  1.0860 -1.8444 -0.9338
  650MOL0     H87691   3.991   4.278   0.179 -0.4042  1.9359  0.4166
  650MOL0     H87692   3.947   4.327   0.015  3.0878  2.4902  2.8361
  650MOL0     H87693   3.692   4.314   0.076 -0.5496  2.2988 -0.2373
  650MOL0     H87694   3.744   4.293   0.237 -0.0844  0.7015  0.8820
  650MOL0     H87695   3.690   4.529   0.202 -1.0904 -2.7434 -0.3751
  650MOL0     H87696   3.873   4.516   0.219 -0.5453  1.6415 -0.4091
  650MOL0     H87697   3.877   4.532  -0.026  0.4008  0.3545  0.5969
  650MOL0     H87698   3.703   4.516  -0.043  1.1522 -1.0256  0.9029
  650MOL0     H87699   3.817   4.748  -0.070  1.3290 -1.2358  0.0795
  650MOL0     H87700   3.836   4.754   0.104  1.6484  0.1478 -2.3058
  650MOL0     H87701   3.565   4.726  -0.143  0.9598  0.7218  0.3285
  650MOL0     H87702   3.299   4.796  -0.144 -1.5000 -4.5173  0.5745
  650MOL0     H87703   3.217   4.715  -0.018 -1.5295  1.3764  0.0977
  650MOL0     H87704   3.109   4.935  -0.037 -0.4871  0.3008  0.8569
  650MOL0     H87705   3.273   5.008  -0.008  1.9929 -1.1165 -1.6393
  650MOL0     H87706   3.253   5.001   0.204 -0.3764 -0.5502 -0.2882
  650MOL0     H87707   3.220   4.826   0.210  0.4354  0.4431  0.4467
  650MOL0     H87708   3.016   4.934   0.308  1.9334  2.5127  1.3531
  650MOL0     H87709   2.983   4.861   0.149 -1.7787  1.8138 -1.3853
  650MOL0     H87710   2.773   4.941   0.096 -1.6853 -0.3792 -1.1577
  650MOL0     H87711   2.562   4.916   0.016 -0.9014  0.0940 -1.4774
  650MOL0     H87712   2.460   4.940   0.151  1.4070  0.2273  0.7928
  650MOL0     H87713   2.468   5.055   0.006  0.7753 -0.2708 -0.4026
  650MOL0     H87714   2.208   5.314   0.340  2.3797 -1.9038 -0.4636
  650MOL0     H87715   2.048   5.478   0.449 -0.6049  3.3234 -2.2036
  650MOL0     H87716   2.143   5.761   0.734 -1.5626 -0.5701  0.1528
  650MOL0     H87717   2.197   5.879   0.620 -0.6670  1.0702  2.4346
  650MOL0     H87718   2.044   5.955   0.760 -3.5402 -0.4960  0.9731
  650MOL0     H87719   1.989   5.972   0.588  0.9408  0.6845 -0.5374
  650MOL0     H87720   1.916   5.728   0.763  0.4500 -0.5548 -0.4335
  650MOL0     H87721   1.849   5.766   0.612  2.6517 -0.1258 -0.5889
  650MOL0     H87722   1.812   5.955   0.854  1.0019  0.2074 -0.6757
  650MOL0     H87723   1.743   5.973   0.702  0.5338  1.6658  1.6084
  650MOL0     H87724   1.605   5.841   0.919  0.3889 -0.6232  0.4847
  650MOL0     H87725   1.700   5.711   0.872 -1.0290  0.5472  1.1035
  650MOL0     H87726   1.487   5.864   0.695 -0.9493 -0.4782  0.6516
  650MOL0     H87727   1.596   5.736   0.632  0.2380 -4.7305  1.8653
  650MOL0     H87728   1.349   5.682   0.712 -0.4904 -2.4121  0.3979
  650MOL0     H87729   1.438   5.674   0.869  3.2256 -0.5436 -0.1181
  650MOL0     H87730   1.493   5.502   0.625 -1.0871 -3.0639  0.3681
  650MOL0     H87731   1.404   5.461   0.764 -0.0871 -0.3436  0.2629
  650MOL0     H87732   2.344   5.770   0.479 -1.2901 -0.2210  2.3359
  650MOL0     H87733   2.505   5.620   0.353  1.3919 -1.2079  0.7418
  650MOL0     H87734   2.707   5.392   0.268 -2.2725  0.6607  0.0916
  650MOL0     H87735   2.920   5.306   0.250  1.4181 -1.2785  0.1029
  650MOL0     H87736   4.093   3.629   0.057  1.9229  0.5391 -1.7191
  650MOL0     H87737   4.324   3.539   0.086  1.8639 -0.4903  2.0522
  650MOL0     H87738   4.885   3.739   0.237 -0.8838 -0.9673 -0.6412
  650MOL0     H87739   5.068   3.575   0.274 -0.2581  1.3791  1.6381
  650MOL0     H87740   5.242   3.388   0.344 -2.6405  4.6612 -2.2611
  650MOL0     H87741   5.158   3.496   0.463  0.7803  0.4895  0.3367
  650MOL0     H87742   5.326   3.366   0.584 -0.7346  0.7903  1.6828
  650MOL0     H87743   5.261   3.210   0.517 -2.7852  0.0123 -1.1269
  650MOL0     H87744   5.037   3.298   0.621 -0.0778  1.5536  0.4250
  650MOL0     H87745   5.148   3.407   0.719  0.0902  1.4521  0.2216
  650MOL0     H87746   5.276   3.185   0.762  0.1121  1.3112 -1.1622
  650MOL0     H87747   5.159   3.101   0.677 -0.2883  0.5812 -1.5721
  650MOL0     H87748   5.010   3.157   1.084  0.6446  1.6385 -0.0157
  650MOL0     H87749   4.784   3.299   0.421  1.0748  0.7337  0.3711
  650MOL0     H87750   4.608   3.468   0.396  0.3447 -3.6285  0.1486
  651MOL0     O87751   8.720   4.613   6.133  0.5301  0.7153  0.1048
  651MOL0     C87752   8.803   4.701   6.112  0.1324  0.3586 -0.3401
  651MOL0     O87753   8.777   4.820   6.055  0.8519  1.1116  0.3121
  651MOL0     C87754   8.663   4.842   5.973 -0.0822  0.8809 -0.7690
  651MOL0     C87755   8.621   4.747   5.879  0.3614  0.6127 -0.1519
  651MOL0     C87756   8.485   4.759   5.832 -0.0051  0.0264 -0.1300
  651MOL0     C87757   8.404   4.867   5.877 -0.3266  1.2083 -0.1526
  651MOL0     O87758   8.272   4.871   5.843 -0.0950  0.3309  0.0610
  651MOL0     C87759   8.246   4.850   5.705  0.1480 -0.3738  0.6150
  651MOL0     C87760   8.112   4.900   5.667 -0.4076  0.0314 -0.2027
  651MOL0     C87761   8.006   4.843   5.763 -0.6716 -0.3329  0.5004
  651MOL0     C87762   7.866   4.897   5.740  0.4206  0.1310 -0.6203
  651MOL0     C87763   7.770   4.839   5.849  0.0116 -0.8879  0.2213
  651MOL0     C87764   7.641   4.811   5.780  1.1569 -0.1196 -0.0731
  651MOL0     C87765   7.554   4.931   5.738 -0.1870  0.7357 -0.7565
  651MOL0     C87766   7.446   4.903   5.627  0.0371 -0.0849 -0.3347
  651MOL0     N87767   7.352   4.797   5.665 -0.1341  0.6393 -0.3025
  651MOL0     C87768   7.213   4.800   5.673 -0.7971 -0.3152 -0.0185
  651MOL0     C87769   7.171   4.671   5.683  0.8472 -0.3787  0.1135
  651MOL0     C87770   7.030   4.621   5.713 -0.2890 -0.0516 -0.6339
  651MOL0     C87771   6.929   4.714   5.645 -0.5805 -0.3476  0.2865
  651MOL0     C87772   6.794   4.682   5.696  0.9256  0.4520 -0.0587
  651MOL0     C87773   6.692   4.769   5.623 -1.0237  0.8728 -0.4568
  651MOL0     O87774   6.683   4.723   5.479  0.1813  0.3072 -0.4520
  651MOL0     C87775   6.588   4.779   5.396  1.2989 -0.5752  0.0888
  651MOL0     C87776   6.583   4.727   5.272  0.0673  0.0308 -0.0998
  651MOL0     C87777   6.506   4.782   5.166 -0.4354  0.2567  0.6061
  651MOL0     C87778   6.534   4.737   5.023  0.0020  0.0438  0.1913
  651MOL0     C87779   6.409   4.874   5.201  0.2194  0.2733 -0.6613
  651MOL0     C87780   6.290   4.906   5.111  0.3189  0.5341 -0.3003
  651MOL0     O87781   6.297   4.850   4.985 -0.0309  0.8248 -0.4321
  651MOL0     C87782   6.222   4.904   4.883 -0.6771 -0.1308 -0.0397
  651MOL0     C87783   6.191   5.038   4.878 -0.5867 -0.1335 -0.5548
  651MOL0     C87784   6.103   5.090   4.787  0.9625  0.2764  0.5924
  651MOL0     C87785   6.060   5.010   4.677 -0.4928  0.5295  0.8052
  651MOL0     O87786   5.964   5.043   4.581 -0.0402  0.9163 -0.3640
  651MOL0     C87787   5.901   5.169   4.604  0.2643 -0.4899 -0.1400
  651MOL0     C87788   5.786   5.195   4.514 -0.6309  0.4521  0.3927
  651MOL0     C87789   5.830   5.216   4.374 -0.0843 -0.1947 -0.1141
  651MOL0     C87790   5.719   5.239   4.270 -0.5784  0.0472  0.4127
  651MOL0     C87791   5.582   5.166   4.304 -1.1923  0.0500 -0.6084
  651MOL0     C87792   5.495   5.141   4.182 -0.1265 -0.6772 -0.4189
  651MOL0     C87793   5.429   5.284   4.147  0.5697  0.3961 -0.7462
  651MOL0     C87794   5.336   5.261   4.034 -0.0277 -0.1392 -0.1240
  651MOL0    Cl87795   5.267   5.403   3.961 -0.3945  0.0934  0.4328
  651MOL0     C87796   6.102   4.877   4.672  0.1465 -0.4665  0.2846
  651MOL0     C87797   6.184   4.821   4.772 -0.0167 -0.0611 -0.2323
  651MOL0     O87798   6.203   4.976   5.157 -0.2281 -0.2751  0.4590
  651MOL0     C87799   6.410   4.929   5.333  0.2242  0.2107 -0.1998
  651MOL0     C87800   6.508   4.888   5.429 -0.5483  0.8533 -0.2428
  651MOL0     N87801   7.281   4.585   5.673  0.5509 -0.7200 -0.4702
  651MOL0     N87802   7.382   4.659   5.663 -0.1883  0.2704  0.1309
  651MOL0     C87803   8.460   4.961   5.968 -0.2722  0.0532 -0.4732
  651MOL0     C87804   8.589   4.955   6.014 -0.0700 -0.5818  0.1257
  651MOL0     C87805   8.945   4.680   6.146 -0.3300  0.1865 -0.1204
  651MOL0     C87806   9.035   4.781   6.114 -0.6659  0.1014  0.5876
  651MOL0     C87807   9.171   4.767   6.154  0.3980 -0.6504 -0.3764
  651MOL0     C87808   9.220   4.656   6.220 -0.0205 -0.1824 -0.2420
  651MOL0     O87809   9.355   4.641   6.240  0.2908  0.2671 -0.6296
  651MOL0     C87810   9.412   4.592   6.114 -0.0492 -0.3881 -0.2023
  651MOL0     C87811   9.527   4.505   6.133 -0.5023  0.1420  0.8429
  651MOL0     C87812   9.595   4.460   5.998  0.4130 -0.0387  0.2720
  651MOL0     C87813   9.711   4.360   6.017  0.4475 -0.1986 -0.1583
  651MOL0     C87814   9.824   4.449   6.040  0.4237 -0.2903  0.0995
  651MOL0     C87815   9.916   4.527   6.044  0.3733  0.2666  0.9391
  651MOL0     C87816   9.134   4.555   6.249 -0.3563 -0.0753  0.6812
  651MOL0     C87817   8.995   4.565   6.211 -0.7585  0.5592  0.3586
  651MOL0     H87818   8.678   4.663   5.840 -0.1892  0.1648 -0.0035
  651MOL0     H87819   8.432   4.685   5.773 -0.5708  0.4741 -0.1893
  651MOL0     H87820   8.308   4.905   5.634 -3.1125 -0.1935 -2.3716
  651MOL0     H87821   8.242   4.745   5.676 -0.2625  0.6751 -3.9428
  651MOL0     H87822   8.117   5.008   5.684  1.1135 -0.1797  0.9680
  651MOL0     H87823   8.096   4.864   5.565  0.7032 -4.3836  0.9401
  651MOL0     H87824   8.007   4.734   5.750  0.5048 -0.0706 -2.4275
  651MOL0     H87825   8.032   4.874   5.864 -3.0944  0.8481  0.8408
  651MOL0     H87826   7.862   5.006   5.740 -0.0475  0.1177 -1.2172
  651MOL0     H87827   7.848   4.858   5.640 -0.6083  0.0722 -0.4256
  651MOL0     H87828   7.808   4.745   5.890  1.4173 -0.1356  0.6996
  651MOL0     H87829   7.752   4.912   5.927  1.4173  1.4537 -1.5092
  651MOL0     H87830   7.673   4.742   5.701  1.8498 -2.0357  1.7830
  651MOL0     H87831   7.568   4.750   5.834 -0.0867  0.6519 -0.8235
  651MOL0     H87832   7.503   4.961   5.830  0.4026 -0.2847 -0.0802
  651MOL0     H87833   7.611   5.018   5.703 -1.8323  2.5833  0.8829
  651MOL0     H87834   7.495   4.884   5.531 -0.8284  0.7195 -0.9571
  651MOL0     H87835   7.379   4.988   5.612  0.6050  0.6391  1.0198
  651MOL0     H87836   7.144   4.883   5.666 -1.9468 -1.3448 -1.4884
  651MOL0     H87837   7.031   4.516   5.682 -1.6661  0.2970 -1.9195
  651MOL0     H87838   7.034   4.619   5.822 -1.4972 -2.9662 -0.5732
  651MOL0     H87839   6.924   4.691   5.538 -2.0414 -0.3693  0.3431
  651MOL0     H87840   6.960   4.818   5.658 -0.4627  0.3866 -4.2323
  651MOL0     H87841   6.780   4.704   5.802  1.9648 -0.3175  0.2477
  651MOL0     H87842   6.763   4.579   5.674  0.0698  1.0080 -1.6496
  651MOL0     H87843   6.723   4.872   5.646 -0.6709  1.1633 -2.0859
  651MOL0     H87844   6.593   4.753   5.668 -1.7009 -0.0386 -2.1928
  651MOL0     H87845   6.645   4.643   5.241  2.3644  2.0765 -1.4064
  651MOL0     H87846   6.478   4.646   4.997  0.9349 -0.3856 -0.3572
  651MOL0     H87847   6.520   4.810   4.942 -1.5423  0.0478  0.4245
  651MOL0     H87848   6.634   4.694   5.011 -0.4186 -0.5467 -1.5364
  651MOL0     H87849   6.237   5.114   4.940  1.3250 -0.1849 -1.8161
  651MOL0     H87850   6.074   5.194   4.797  0.3000  0.4198 -2.0824
  651MOL0     H87851   5.863   5.182   4.706  1.3833  1.4699  0.0819
  651MOL0     H87852   5.975   5.250   4.598  0.6406 -0.8644 -0.6004
  651MOL0     H87853   5.728   5.103   4.524 -0.1438  0.3256  2.4347
  651MOL0     H87854   5.722   5.279   4.543 -0.6572  0.5185  0.1505
  651MOL0     H87855   5.888   5.127   4.348 -0.2162 -0.0653 -0.8577
  651MOL0     H87856   5.895   5.303   4.372 -0.0693 -0.1798  0.6993
  651MOL0     H87857   5.706   5.346   4.253 -0.6377 -0.1632 -0.9085
  651MOL0     H87858   5.755   5.191   4.179 -2.2904 -1.6645  0.5917
  651MOL0     H87859   5.526   5.229   4.374  0.7636  1.0390  0.1335
  651MOL0     H87860   5.610   5.065   4.336  2.7832  1.2596  0.2552
  651MOL0     H87861   5.565   5.096   4.111 -2.5378 -5.8401  0.0121
  651MOL0     H87862   5.413   5.071   4.203  0.6319 -1.4726 -0.0640
  651MOL0     H87863   5.501   5.365   4.130  0.7997  1.6798  4.5164
  651MOL0     H87864   5.373   5.313   4.237  1.7162 -1.5503  0.6809
  651MOL0     H87865   5.252   5.204   4.075 -0.6364  1.5647  1.1265
  651MOL0     H87866   5.388   5.220   3.947  0.5108  1.8650 -0.8050
  651MOL0     H87867   6.073   4.822   4.583  0.9284 -0.9478  0.3145
  651MOL0     H87868   6.203   4.716   4.750  0.0092  0.2609 -1.8935
  651MOL0     H87869   6.330   4.998   5.358  0.0820  1.4588 -3.5237
  651MOL0     H87870   6.508   4.923   5.532 -2.0158  0.8782 -0.2332
  651MOL0     H87871   8.396   5.046   5.988 -2.3412 -0.6977 -3.1152
  651MOL0     H87872   8.635   5.024   6.084 -0.5112 -0.9260  0.7635
  651MOL0     H87873   9.005   4.865   6.052 -0.9197  1.2913  2.2780
  651MOL0     H87874   9.240   4.843   6.120 -0.5877 -0.3150 -1.6966
  651MOL0     H87875   9.342   4.532   6.054  0.0868 -1.1976  0.4371
  651MOL0     H87876   9.450   4.681   6.063  1.4213 -1.6329 -1.3830
  651MOL0     H87877   9.505   4.416   6.192 -1.0699 -1.1217 -1.1777
  651MOL0     H87878   9.604   4.563   6.185 -0.3119  1.5050 -0.8659
  651MOL0     H87879   9.625   4.548   5.941  0.7452  0.8735  1.8034
  651MOL0     H87880   9.531   4.398   5.934  1.0923 -1.5597  1.0208
  651MOL0     H87881   9.723   4.302   5.925  2.4097 -1.5287  0.8702
  651MOL0     H87882   9.694   4.289   6.099  0.8488 -3.0549 -2.3936
  651MOL0     H87883   9.994   4.600   6.042  1.8324 -1.2390 -0.3194
  651MOL0     H87884   9.158   4.465   6.305  0.5422  2.2156  4.3308
  651MOL0     H87885   8.933   4.477   6.218 -0.6089  0.5632  2.1507
  652MOL0     O87886   6.175   1.869   8.918  1.1445  0.1495  0.3648
  652MOL0     C87887   6.261   1.850   8.831  0.7588  0.3421 -0.3240
  652MOL0     O87888   6.253   1.890   8.699 -0.3921 -0.7632 -0.1986
  652MOL0     C87889   6.144   1.966   8.663  0.3933  0.0077 -0.3988
  652MOL0     C87890   6.161   2.095   8.619  0.1082 -0.9459 -0.0131
  652MOL0     C87891   6.053   2.171   8.576  0.2555 -0.6639  0.7832
  652MOL0     C87892   5.924   2.130   8.578  0.5713 -0.1422  0.3832
  652MOL0     O87893   5.810   2.187   8.520 -0.1343 -0.7984  0.3198
  652MOL0     C87894   5.832   2.220   8.379 -0.5616  0.3769 -0.5600
  652MOL0     C87895   5.751   2.117   8.304 -0.2171 -0.4053 -0.1470
  652MOL0     C87896   5.604   2.113   8.336 -0.0810  0.8050  0.1439
  652MOL0     C87897   5.546   2.001   8.245 -0.0927  0.3753 -0.1057
  652MOL0     C87898   5.396   2.012   8.249  0.1778 -0.1827  0.0710
  652MOL0     C87899   5.344   2.104   8.128  0.9795  0.0697 -0.7457
  652MOL0     C87900   5.359   2.042   7.993  0.7654  0.5613  0.7060
  652MOL0     C87901   5.286   2.116   7.880  0.0386 -0.8419 -0.4706
  652MOL0     N87902   5.357   2.243   7.840 -0.3318  0.8238 -0.0050
  652MOL0     C87903   5.333   2.287   7.715 -0.2386 -0.0050  0.2373
  652MOL0     C87904   5.428   2.385   7.707 -0.6084  0.5749  0.5594
  652MOL0     C87905   5.435   2.469   7.576 -0.5125  0.1643 -0.7298
  652MOL0     C87906   5.301   2.479   7.499 -0.6828  0.1656 -0.0445
  652MOL0     C87907   5.292   2.619   7.420  1.0219 -0.6853  1.0718
  652MOL0     C87908   5.160   2.634   7.337  0.3592  0.3087  0.0100
  652MOL0     O87909   5.039   2.624   7.417 -0.8079 -0.3319 -0.0470
  652MOL0     C87910   4.929   2.697   7.384  0.0773 -0.0026  0.2649
  652MOL0     C87911   4.911   2.761   7.259 -0.8941 -0.0136  0.0385
  652MOL0     C87912   4.799   2.832   7.219  0.9841 -0.2184 -0.1553
  652MOL0     C87913   4.803   2.887   7.080 -0.1733  0.7516 -0.8220
  652MOL0     C87914   4.683   2.832   7.305 -0.1967 -0.1143  0.6263
  652MOL0     C87915   4.546   2.884   7.275  0.4806 -0.2758 -1.1528
  652MOL0     O87916   4.483   2.926   7.391 -0.3885  0.3070 -0.1190
  652MOL0     C87917   4.348   2.948   7.400  1.3683 -1.1473 -0.7210
  652MOL0     C87918   4.240   2.914   7.311 -0.1011 -0.4604  0.1401
  652MOL0     C87919   4.111   2.949   7.337 -0.0823 -0.6005 -1.2791
  652MOL0     C87920   4.069   3.008   7.460 -1.0965 -0.0305 -0.5320
  652MOL0     O87921   3.940   3.033   7.481 -0.0815 -0.9353  0.3507
  652MOL0     C87922   3.875   2.998   7.599 -0.0561  0.1156  0.3255
  652MOL0     C87923   3.727   2.999   7.578 -0.3204  0.0349 -0.7196
  652MOL0     C87924   3.648   2.995   7.711 -0.2613  0.2231 -0.7158
  652MOL0     C87925   3.498   2.999   7.690  1.2012  0.2555  0.0202
  652MOL0     C87926   3.405   2.958   7.809 -0.4822 -0.1860  1.4592
  652MOL0     C87927   3.395   3.065   7.914 -0.2121  0.1465 -0.0270
  652MOL0     C87928   3.268   3.034   7.992  0.7873  0.7442  0.5526
  652MOL0     C87929   3.239   3.144   8.100 -0.1592 -0.3782 -0.3003
  652MOL0    Cl87930   3.347   3.130   8.247 -0.1542  0.5093  0.7670
  652MOL0     C87931   4.181   3.052   7.543  0.3514 -0.7244 -0.0377
  652MOL0     C87932   4.312   3.009   7.518  0.4498 -0.1053  0.1171
  652MOL0     O87933   4.495   2.864   7.162 -0.1729 -0.7594  0.2616
  652MOL0     C87934   4.701   2.774   7.432 -0.3395  0.0264 -0.0877
  652MOL0     C87935   4.819   2.708   7.469  0.3202  0.0600  0.5414
  652MOL0     N87936   5.512   2.388   7.816 -0.1304  0.3146 -1.0721
  652MOL0     N87937   5.466   2.303   7.899 -0.2628 -0.0621 -0.9531
  652MOL0     C87938   5.899   1.995   8.627 -0.7617  0.4516  0.6026
  652MOL0     C87939   6.012   1.918   8.667  0.9111 -0.2785  0.3293
  652MOL0     C87940   6.387   1.787   8.877  0.2518 -0.0084  0.2889
  652MOL0     C87941   6.385   1.707   8.994  0.0555  0.6049 -0.4187
  652MOL0     C87942   6.502   1.633   9.040  0.6377 -0.4567 -0.2109
  652MOL0     C87943   6.615   1.646   8.963 -0.1282  0.2099 -0.4132
  652MOL0     O87944   6.722   1.567   8.989 -0.4762 -0.7368  0.5558
  652MOL0     C87945   6.754   1.494   9.103 -1.0799 -0.2353  0.0369
  652MOL0     C87946   6.895   1.524   9.149 -0.4932 -0.0983 -1.3302
  652MOL0     C87947   6.995   1.477   9.047 -0.2006  0.5540  0.7944
  652MOL0     C87948   7.134   1.462   9.102  0.1227 -1.5463 -0.1062
  652MOL0     C87949   7.207   1.587   9.111  0.2138  0.5379  0.9391
  652MOL0     C87950   7.282   1.685   9.125 -0.4488 -0.4150 -0.2599
  652MOL0     C87951   6.627   1.726   8.852 -0.2442 -0.2977 -0.1766
  652MOL0     C87952   6.509   1.796   8.812  0.0384 -0.3077 -0.0595
  652MOL0     H87953   6.262   2.135   8.624 -0.7451  1.3249  0.2667
  652MOL0     H87954   6.077   2.268   8.534 -0.2634 -1.2951 -1.0280
  652MOL0     H87955   5.802   2.322   8.355  0.4328  0.2052 -2.7797
  652MOL0     H87956   5.938   2.207   8.353 -0.4287 -0.6908  0.4043
  652MOL0     H87957   5.763   2.147   8.199 -1.6915 -2.2766 -0.9035
  652MOL0     H87958   5.793   2.017   8.317 -3.0858 -2.1979 -2.9461
  652MOL0     H87959   5.577   2.082   8.437 -3.6219  1.7008 -0.3981
  652MOL0     H87960   5.563   2.212   8.314 -0.0524  0.7387 -0.2190
  652MOL0     H87961   5.589   2.013   8.145  0.3434 -1.5232 -0.1845
  652MOL0     H87962   5.583   1.903   8.275  0.4077  0.6372  0.1574
  652MOL0     H87963   5.345   1.916   8.238 -1.7101  0.7441  0.4182
  652MOL0     H87964   5.368   2.060   8.343 -0.9725  0.8044 -0.7391
  652MOL0     H87965   5.237   2.106   8.153  1.1183  0.4961 -0.1565
  652MOL0     H87966   5.391   2.203   8.128  2.2260 -0.5086 -1.0797
  652MOL0     H87967   5.465   2.035   7.967  0.3849  1.3405 -1.2422
  652MOL0     H87968   5.310   1.945   8.006  0.4999  0.8060  1.6313
  652MOL0     H87969   5.183   2.133   7.913  0.5528  2.9954 -0.3230
  652MOL0     H87970   5.281   2.037   7.805 -1.1689 -2.4954  1.2757
  652MOL0     H87971   5.263   2.247   7.643  0.1600  1.2306 -0.8844
  652MOL0     H87972   5.460   2.568   7.617  1.0239 -1.1477  1.7593
  652MOL0     H87973   5.521   2.444   7.514  1.7632  1.9757  1.4900
  652MOL0     H87974   5.219   2.485   7.571 -0.8952  1.3898 -0.3641
  652MOL0     H87975   5.288   2.397   7.427 -0.3716  0.8790 -0.9329
  652MOL0     H87976   5.371   2.615   7.344 -1.2768 -0.6753 -1.4764
  652MOL0     H87977   5.304   2.708   7.482 -1.1224 -1.0707  2.1432
  652MOL0     H87978   5.158   2.558   7.258 -0.1500  0.0236  0.2906
  652MOL0     H87979   5.166   2.734   7.294  1.8059  0.8689  1.3821
  652MOL0     H87980   4.984   2.737   7.183 -0.1869 -0.0529  0.7180
  652MOL0     H87981   4.830   2.808   7.009 -0.3193 -0.1537  0.1051
  652MOL0     H87982   4.703   2.928   7.063 -1.9486 -2.7666  0.0688
  652MOL0     H87983   4.881   2.963   7.073  0.0214  0.5471 -0.9070
  652MOL0     H87984   4.266   2.861   7.221  0.8851  1.7342 -0.9540
  652MOL0     H87985   4.033   2.921   7.266 -2.3939 -2.5934  1.7625
  652MOL0     H87986   3.911   2.902   7.637  0.5781  0.9036  1.7715
  652MOL0     H87987   3.908   3.069   7.675  2.2219  0.3412 -0.7813
  652MOL0     H87988   3.705   3.094   7.530 -1.1039 -0.0907 -0.6317
  652MOL0     H87989   3.684   2.915   7.521 -0.6365  0.9297 -1.8263
  652MOL0     H87990   3.693   3.068   7.778  1.2563 -1.9996  0.8099
  652MOL0     H87991   3.671   2.895   7.751  1.1929  0.2129 -1.5162
  652MOL0     H87992   3.471   3.100   7.658 -0.5160 -1.0662 -3.2640
  652MOL0     H87993   3.478   2.934   7.604  0.3190  3.0823 -2.0752
  652MOL0     H87994   3.441   2.867   7.858  1.6477  0.1765  0.6903
  652MOL0     H87995   3.311   2.947   7.756  0.4055  0.6305 -0.3756
  652MOL0     H87996   3.489   3.071   7.970  1.8054  1.0473 -3.2400
  652MOL0     H87997   3.385   3.159   7.859 -0.2630 -1.1868 -2.4632
  652MOL0     H87998   3.264   2.930   8.025  0.1536  0.5766 -0.0315
  652MOL0     H87999   3.190   3.040   7.916  1.9102 -1.1418 -0.8558
  652MOL0     H88000   3.133   3.152   8.125 -0.0939 -1.4090  0.3889
  652MOL0     H88001   3.281   3.239   8.066  0.8957  0.8612  3.8161
  652MOL0     H88002   4.148   3.102   7.634  0.4283 -1.7854  0.5857
  652MOL0     H88003   4.387   3.031   7.593  0.7577 -0.1191 -0.1822
  652MOL0     H88004   4.623   2.771   7.507  0.6093 -1.3622  0.9035
  652MOL0     H88005   4.828   2.665   7.568 -0.2910  2.0219  1.5011
  652MOL0     H88006   5.792   1.976   8.636 -0.4596 -1.0804  1.2386
  652MOL0     H88007   5.991   1.829   8.724 -2.0854  0.9112  1.2790
  652MOL0     H88008   6.290   1.687   9.042  0.3344  1.0586  0.3337
  652MOL0     H88009   6.493   1.571   9.129  2.0924  0.8913  0.9376
  652MOL0     H88010   6.683   1.519   9.182 -1.2512  1.5487 -0.6366
  652MOL0     H88011   6.740   1.388   9.077  3.4822 -1.2567  0.8653
  652MOL0     H88012   6.910   1.459   9.236  2.0007 -0.1290 -1.6989
  652MOL0     H88013   6.916   1.627   9.177 -0.8154 -0.0760 -1.1686
  652MOL0     H88014   6.996   1.539   8.957 -2.5945 -0.8666 -0.2879
  652MOL0     H88015   6.969   1.373   9.027 -0.8351  0.9983 -0.8838
  652MOL0     H88016   7.187   1.378   9.056  1.8866 -1.6778  1.9640
  652MOL0     H88017   7.130   1.428   9.206 -2.1614 -3.5237 -0.7514
  652MOL0     H88018   7.332   1.779   9.137 -2.8649  1.1034 -1.3267
  652MOL0     H88019   6.725   1.745   8.810 -1.3729 -0.6828 -3.2081
  652MOL0     H88020   6.512   1.851   8.718  2.2962  0.6253  0.4955
  653MOL0     O88021   6.259  10.625   0.491 -0.1675 -0.1905  0.0721
  653MOL0     C88022   6.269  10.496   0.505  0.5543  0.0927 -0.5987
  653MOL0     O88023   6.158  10.406   0.492 -0.3596  0.7893  0.1476
  653MOL0     C88024   6.034  10.451   0.481  0.1169  0.2506  0.4767
  653MOL0     C88025   5.970  10.449   0.363  0.2548  0.7818 -0.1440
  653MOL0     C88026   5.844  10.508   0.353 -0.2912 -0.1084 -0.4318
  653MOL0     C88027   5.782  10.572   0.459  0.4540  0.3783 -0.1437
  653MOL0     O88028   5.657  10.626   0.471  0.2764 -0.1060  0.3286
  653MOL0     C88029   5.556  10.595   0.370  0.2517  1.1301 -0.0548
  653MOL0     C88030   5.425  10.635   0.413 -0.4709  0.6039  0.4422
  653MOL0     C88031   5.380  10.560   0.532 -0.3077 -0.1645 -1.1413
  653MOL0     C88032   5.237  10.574   0.588  0.7761  0.6887  0.1864
  653MOL0     C88033   5.182  10.716   0.614  0.5339  1.1879  0.0313
  653MOL0     C88034   5.045  10.713   0.680  0.0609  0.1819 -0.7081
  653MOL0     C88035   4.980  10.854   0.700 -0.2477  0.0410 -0.4302
  653MOL0     C88036   5.039  10.947   0.809  0.7384 -0.1720  0.2341
  653MOL0     N88037   5.001  10.911   0.947 -0.4290  0.7456  0.1638
  653MOL0     C88038   4.881  10.938   1.003  0.7685 -0.0510  0.3614
  653MOL0     C88039   4.902  10.905   1.130  0.1708 -0.8848 -0.3122
  653MOL0     C88040   4.798  10.878   1.234 -0.0909 -0.7400 -0.2630
  653MOL0     C88041   4.799  10.971   1.353  0.5942 -0.6056  0.2327
  653MOL0     C88042   4.732  10.914   1.482  0.2981  0.7175  0.0573
  653MOL0     C88043   4.596  10.842   1.461 -0.9094  0.3356 -0.2041
  653MOL0     O88044   4.512  10.909   1.375  0.4749 -0.7669 -0.1931
  653MOL0     C88045   4.380  10.867   1.364 -0.1324 -0.2197  0.2661
  653MOL0     C88046   4.330  10.743   1.407  0.7924  0.7216 -0.6281
  653MOL0     C88047   4.193  10.708   1.393 -0.6378  1.0511  0.7665
  653MOL0     C88048   4.152  10.571   1.446  0.2628 -0.8172 -0.7008
  653MOL0     C88049   4.107  10.811   1.347 -0.1349 -0.4021 -0.0464
  653MOL0     C88050   3.955  10.784   1.348  0.1552 -0.4885  0.3135
  653MOL0     O88051   3.883  10.879   1.274 -0.5529  0.2221 -0.1460
  653MOL0     C88052   3.756  10.856   1.234 -0.0689 -0.1575 -0.2869
  653MOL0     C88053   3.738  10.821   1.097  0.8980  0.7872 -1.1475
  653MOL0     C88054   3.610  10.810   1.045  0.5318 -0.6069 -0.4538
  653MOL0     C88055   3.498  10.843   1.127 -0.5067 -0.2306  0.6120
  653MOL0     O88056   3.375  10.840   1.072  0.1169  0.7513  0.0581
  653MOL0     C88057   3.255  10.876   1.142  0.1657 -0.5121  0.2333
  653MOL0     C88058   3.141  10.889   1.045 -0.2292  0.0608  0.1863
  653MOL0     C88059   3.001  10.915   1.092  0.4923 -0.5686 -0.2356
  653MOL0     C88060   2.978  11.026   1.202 -0.2225 -0.1254  0.3032
  653MOL0     C88061   2.843  11.025   1.270 -1.2875  0.3836 -0.1011
  653MOL0     C88062   2.725  11.073   1.179  0.1447 -0.3844 -0.5603
  653MOL0     C88063   2.585  11.047   1.246  0.1824  0.2377  0.5762
  653MOL0     C88064   2.501  11.184   1.251  0.3177  0.3544 -0.5339
  653MOL0    Cl88065   2.330  11.153   1.284 -0.2290  0.4006 -0.1034
  653MOL0     C88066   3.526  10.869   1.262 -0.3138 -0.6111  0.5885
  653MOL0     C88067   3.652  10.873   1.316 -0.4207  0.8346  0.2100
  653MOL0     O88068   3.904  10.694   1.409  0.2962 -0.0823  0.0735
  653MOL0     C88069   4.154  10.940   1.311  0.0215  1.0334 -0.2261
  653MOL0     C88070   4.295  10.966   1.318 -0.2155 -0.2522  0.4016
  653MOL0     N88071   5.040  10.877   1.151  0.0557 -0.1272 -0.6608
  653MOL0     N88072   5.090  10.875   1.038 -0.7788 -0.3173 -0.0973
  653MOL0     C88073   5.849  10.570   0.582  0.0176  0.8215 -0.1754
  653MOL0     C88074   5.975  10.513   0.593 -0.7113  0.7917 -0.0447
  653MOL0     C88075   6.397  10.429   0.535 -0.2973 -0.6834  0.0964
  653MOL0     C88076   6.416  10.291   0.552 -1.9394 -0.2053  0.7702
  653MOL0     C88077   6.543  10.239   0.578  0.2291 -0.2159  0.7119
  653MOL0     C88078   6.654  10.318   0.585  0.2066  0.4851 -1.4712
  653MOL0     O88079   6.774  10.266   0.628  0.2769  0.3648 -0.1866
  653MOL0     C88080   6.806  10.129   0.622 -0.2608  0.5105 -0.1157
  653MOL0     C88081   6.842  10.085   0.479 -0.2947 -0.2801 -0.2809
  653MOL0     C88082   6.982  10.148   0.462 -0.1997 -1.0176  0.2578
  653MOL0     C88083   7.038  10.110   0.333  0.1765  1.3523  0.5212
  653MOL0     C88084   6.975  10.166   0.211  0.1552  0.1275  0.1645
  653MOL0     C88085   6.904  10.197   0.115  0.8738 -0.3469  0.9172
  653MOL0     C88086   6.636  10.452   0.556  0.1937 -0.6692  0.0961
  653MOL0     C88087   6.510  10.515   0.537 -0.4964 -0.5510  0.2786
  653MOL0     H88088   6.018  10.409   0.274 -1.7494 -2.0100 -0.0959
  653MOL0     H88089   5.781  10.499   0.265 -0.4820 -2.3450 -0.1122
  653MOL0     H88090   5.578  10.658   0.283 -0.0132  1.7037  0.2852
  653MOL0     H88091   5.558  10.487   0.355  1.5459  0.7752  2.1432
  653MOL0     H88092   5.425  10.741   0.440 -0.8354  0.9496 -0.8170
  653MOL0     H88093   5.357  10.627   0.327  1.0676 -0.8217 -0.7112
  653MOL0     H88094   5.374  10.453   0.511 -4.4439 -0.9352  2.4327
  653MOL0     H88095   5.437  10.590   0.620 -1.0719  1.5105 -1.1798
  653MOL0     H88096   5.160  10.520   0.532  1.2482 -0.6742  0.8041
  653MOL0     H88097   5.244  10.523   0.684  1.7861 -1.3477 -0.9036
  653MOL0     H88098   5.257  10.771   0.671  2.6261 -0.5224 -0.9186
  653MOL0     H88099   5.171  10.760   0.514  0.2445  3.7028  1.0980
  653MOL0     H88100   4.984  10.643   0.622  0.0554 -0.0879 -0.3815
  653MOL0     H88101   5.050  10.667   0.780 -0.1467  0.0933 -0.7370
  653MOL0     H88102   4.989  10.922   0.614 -1.6218  4.3338  2.5082
  653MOL0     H88103   4.872  10.835   0.707 -0.4567 -0.2835 -3.2291
  653MOL0     H88104   5.003  11.048   0.789 -0.9339 -0.4234  1.7100
  653MOL0     H88105   5.148  10.942   0.809  0.7204 -0.7963  1.6398
  653MOL0     H88106   4.791  10.959   0.946  1.9554 -1.0005 -2.0024
  653MOL0     H88107   4.701  10.884   1.184 -0.7174 -0.1528  0.9853
  653MOL0     H88108   4.802  10.775   1.272  1.9261 -0.0838  1.4551
  653MOL0     H88109   4.749  11.063   1.321  0.4281 -0.9776 -0.5995
  653MOL0     H88110   4.900  11.003   1.377  1.0424 -1.9035  0.1569
  653MOL0     H88111   4.702  11.004   1.537  3.3423  2.4198 -0.8494
  653MOL0     H88112   4.794  10.848   1.542  0.8725 -1.2427 -2.5159
  653MOL0     H88113   4.551  10.845   1.560 -1.1276  2.5934 -0.3221
  653MOL0     H88114   4.623  10.742   1.426  1.1378  1.1287 -1.0643
  653MOL0     H88115   4.389  10.669   1.460 -0.2664 -1.4683 -2.3460
  653MOL0     H88116   4.071  10.531   1.385  1.3206 -0.5461 -2.3341
  653MOL0     H88117   4.228  10.492   1.449  3.4789  2.0692 -0.4633
  653MOL0     H88118   4.126  10.591   1.551  2.6445  1.5261 -0.4620
  653MOL0     H88119   3.831  10.816   1.042  2.4430 -1.8929  1.4701
  653MOL0     H88120   3.602  10.795   0.938 -0.8284 -0.1933 -0.4348
  653MOL0     H88121   3.221  10.799   1.211  2.0948 -0.3794  1.3866
  653MOL0     H88122   3.251  10.971   1.196 -2.5422 -1.2534  1.5307
  653MOL0     H88123   3.177  10.950   0.962  0.7158  0.6121  0.9843
  653MOL0     H88124   3.135  10.792   0.994  2.7947 -0.1674  0.0960
  653MOL0     H88125   2.958  10.822   1.130 -2.6644  1.4422  1.4393
  653MOL0     H88126   2.941  10.933   1.002  0.5376 -2.8116 -0.7913
  653MOL0     H88127   3.058  11.020   1.277  2.2576  2.2235 -1.9368
  653MOL0     H88128   2.991  11.130   1.171 -0.0350 -0.3928 -0.5565
  653MOL0     H88129   2.846  11.094   1.355  0.8890 -1.4165  1.3657
  653MOL0     H88130   2.826  10.922   1.301  0.7735  0.4966  1.6351
  653MOL0     H88131   2.739  11.177   1.147 -1.4798  0.9142  2.5479
  653MOL0     H88132   2.716  11.018   1.085 -1.2552 -1.4044  0.1438
  653MOL0     H88133   2.605  11.015   1.349  2.9425  3.7657  1.3488
  653MOL0     H88134   2.531  10.970   1.191 -2.2017 -1.3407  4.6211
  653MOL0     H88135   2.494  11.245   1.161  0.3498  2.4047  0.7794
  653MOL0     H88136   2.549  11.250   1.324  3.5493  1.0129 -2.9818
  653MOL0     H88137   3.445  10.890   1.332 -0.9839  2.0984 -0.8485
  653MOL0     H88138   3.672  10.875   1.423  1.5152 -1.4797 -0.0364
  653MOL0     H88139   4.088  11.019   1.275 -0.4125  0.2708 -1.1758
  653MOL0     H88140   4.332  11.065   1.295 -2.2441  0.6897  0.9985
  653MOL0     H88141   5.804  10.623   0.665 -1.7437  0.4187 -0.8380
  653MOL0     H88142   6.029  10.526   0.686  0.6458 -1.1607 -0.4984
  653MOL0     H88143   6.325  10.233   0.544 -2.6761  0.9484  0.3915
  653MOL0     H88144   6.540  10.134   0.605 -0.8381 -0.1892  0.7580
  653MOL0     H88145   6.887  10.099   0.689 -1.8894 -1.1928  1.1737
  653MOL0     H88146   6.723  10.063   0.649  1.4555 -2.6474 -2.0605
  653MOL0     H88147   6.771  10.118   0.403  2.1002  4.1210 -0.9151
  653MOL0     H88148   6.863   9.978   0.482  0.8649 -0.0446  0.3764
  653MOL0     H88149   7.056  10.126   0.539  0.1610  0.1261  0.2675
  653MOL0     H88150   6.981  10.258   0.458  0.7707 -0.9788  0.8266
  653MOL0     H88151   7.043  10.001   0.326 -0.2624  1.3486  0.2240
  653MOL0     H88152   7.142  10.146   0.330  0.6582  0.0848  1.1569
  653MOL0     H88153   6.849  10.241   0.034  1.7113 -3.0607 -1.2810
  653MOL0     H88154   6.716  10.525   0.559  0.3966 -0.8300  4.7072
  653MOL0     H88155   6.507  10.623   0.526 -0.4528 -0.5131  0.6263
  654MOL0     O88156   0.894   7.812   4.363  0.8182 -0.3249 -0.0631
  654MOL0     C88157   0.951   7.821   4.258 -0.4976 -0.3152 -0.1313
  654MOL0     O88158   0.904   7.779   4.137  0.6218 -0.3671  0.1044
  654MOL0     C88159   0.831   7.662   4.130 -0.4043  0.0294 -0.3204
  654MOL0     C88160   0.872   7.552   4.202 -0.5521  0.1863  0.3728
  654MOL0     C88161   0.811   7.431   4.194  0.0462 -0.0482 -0.6420
  654MOL0     C88162   0.714   7.414   4.099 -0.9288  0.2725  0.3824
  654MOL0     O88163   0.656   7.288   4.086 -0.4955  0.4884 -0.1262
  654MOL0     C88164   0.633   7.225   3.958  0.7600  0.1040  0.1708
  654MOL0     C88165   0.591   7.085   3.957 -0.1554  0.5411 -0.7999
  654MOL0     C88166   0.523   7.049   3.827  0.5297 -1.4688  0.5682
  654MOL0     C88167   0.488   6.896   3.821  0.2475 -0.6830 -0.2330
  654MOL0     C88168   0.358   6.852   3.886  0.1413  0.1973  0.4003
  654MOL0     C88169   0.258   6.963   3.923  1.1331  0.5145  1.3274
  654MOL0     C88170   0.124   6.897   3.976 -0.7078 -0.2495 -0.4260
  654MOL0     C88171   0.011   7.000   3.965  0.6823  0.5081 -0.7361
  654MOL0     N88172  -0.111   6.944   4.022 -0.3396  0.5390 -0.0595
  654MOL0     C88173  -0.218   6.919   3.947 -0.6962 -0.8247  0.4596
  654MOL0     C88174  -0.323   6.917   4.032 -0.0030 -0.6239  0.5959
  654MOL0     C88175  -0.464   6.912   3.986  0.7657  0.5907 -0.2105
  654MOL0     C88176  -0.514   7.001   3.866 -0.3165 -0.0738  0.1515
  654MOL0     C88177  -0.651   6.953   3.818 -0.0759 -0.1850 -0.7784
  654MOL0     C88178  -0.690   7.032   3.693  0.4496 -0.2453 -0.5523
  654MOL0     O88179  -0.632   6.984   3.571 -0.0524  0.5533  0.6973
  654MOL0     C88180  -0.668   7.025   3.444  0.2955 -0.2005  0.0542
  654MOL0     C88181  -0.613   6.955   3.336 -0.5734 -0.0444 -1.7079
  654MOL0     C88182  -0.637   6.994   3.206  0.5663 -0.3140  0.0797
  654MOL0     C88183  -0.572   6.915   3.099  0.9065  0.4022 -0.1911
  654MOL0     C88184  -0.716   7.109   3.178 -0.6014 -0.1435  0.2327
  654MOL0     C88185  -0.732   7.170   3.042 -0.0859 -0.5543 -0.2367
  654MOL0     O88186  -0.847   7.237   3.023 -0.3419 -0.0576  0.9849
  654MOL0     C88187  -0.878   7.287   2.898 -0.7395  0.0815  0.1991
  654MOL0     C88188  -0.874   7.205   2.778 -0.7633  0.0280  0.7714
  654MOL0     C88189  -0.902   7.262   2.656  0.3589  0.2244  0.7060
  654MOL0     C88190  -0.930   7.396   2.648 -0.6572 -0.4046 -0.7936
  654MOL0     O88191  -0.932   7.463   2.525  0.2283 -0.2912  0.2541
  654MOL0     C88192  -1.039   7.425   2.437 -0.2051 -0.2048 -0.1112
  654MOL0     C88193  -1.061   7.551   2.352 -0.3639  0.0472 -0.2689
  654MOL0     C88194  -1.192   7.557   2.268  0.6850 -0.2930 -0.2277
  654MOL0     C88195  -1.319   7.536   2.345 -0.1568  0.3518 -1.2902
  654MOL0     C88196  -1.447   7.566   2.269 -0.5535  0.3401 -0.7051
  654MOL0     C88197  -1.574   7.529   2.344 -0.0419 -0.4522 -0.2518
  654MOL0     C88198  -1.710   7.561   2.276  0.6303 -0.4508 -0.2370
  654MOL0     C88199  -1.721   7.499   2.142  0.3836  0.1953 -1.0854
  654MOL0    Cl88200  -1.889   7.484   2.094  0.0002  0.2848  0.2197
  654MOL0     C88201  -0.942   7.483   2.765 -0.4446 -0.0927  0.3319
  654MOL0     C88202  -0.908   7.419   2.883  0.9154  0.2162  0.2670
  654MOL0     O88203  -0.627   7.188   2.973 -0.0072 -0.2831 -0.5619
  654MOL0     C88204  -0.759   7.182   3.288  0.2017  0.3346 -0.9270
  654MOL0     C88205  -0.745   7.141   3.421 -0.2585  0.2466 -0.4301
  654MOL0     N88206  -0.276   6.930   4.164  0.1249  0.2251 -0.2598
  654MOL0     N88207  -0.147   6.940   4.154 -0.3188  0.9841  0.6930
  654MOL0     C88208   0.664   7.527   4.024  0.0876  0.5036  0.0771
  654MOL0     C88209   0.726   7.651   4.041  0.1106 -0.1753  0.0239
  654MOL0     C88210   1.075   7.890   4.264  0.3095 -0.4824 -0.1792
  654MOL0     C88211   1.106   7.975   4.376  0.1097  0.2162  0.2476
  654MOL0     C88212   1.222   8.050   4.374 -0.8371 -0.1718 -0.7330
  654MOL0     C88213   1.328   8.029   4.280  0.3850  0.6153  0.4337
  654MOL0     O88214   1.447   8.094   4.284  0.4748  0.5743 -0.3636
  654MOL0     C88215   1.567   8.030   4.335 -0.7755 -0.2675  0.3670
  654MOL0     C88216   1.611   8.093   4.470 -0.0147  0.0350 -0.2992
  654MOL0     C88217   1.727   8.003   4.526 -0.4892  0.6505  0.3662
  654MOL0     C88218   1.852   8.005   4.446 -0.7378  0.1576  0.2833
  654MOL0     C88219   1.962   8.070   4.515  0.6810 -0.1942  0.1720
  654MOL0     C88220   2.046   8.115   4.586  0.9127 -0.4472  0.2673
  654MOL0     C88221   1.297   7.949   4.175 -1.1358  0.5507  0.5248
  654MOL0     C88222   1.177   7.873   4.174  0.2381 -0.1336  0.3271
  654MOL0     H88223   0.958   7.557   4.268 -0.3387 -1.5197  0.2492
  654MOL0     H88224   0.837   7.343   4.253 -0.7915  0.9377  1.3109
  654MOL0     H88225   0.575   7.289   3.891  0.7895  1.8656  1.7313
  654MOL0     H88226   0.737   7.229   3.925  0.7826  0.7633  0.3111
  654MOL0     H88227   0.668   7.008   3.964 -1.1761 -0.3236  2.5520
  654MOL0     H88228   0.524   7.075   4.043  1.1798  1.3377  0.3870
  654MOL0     H88229   0.436   7.109   3.803  0.3258 -1.8016  0.4660
  654MOL0     H88230   0.589   7.079   3.744 -1.9526  0.0777 -0.9636
  654MOL0     H88231   0.473   6.883   3.714 -1.5034 -0.1376 -0.0817
  654MOL0     H88232   0.571   6.834   3.856  1.1168 -0.1871 -1.3839
  654MOL0     H88233   0.308   6.786   3.813  0.7189 -1.1358  1.1640
  654MOL0     H88234   0.374   6.786   3.972 -2.8952  0.0785  0.9958
  654MOL0     H88235   0.312   7.026   3.995  0.8134 -2.1754  4.1751
  654MOL0     H88236   0.236   7.012   3.828  1.1125 -3.1539 -0.7337
  654MOL0     H88237   0.095   6.821   3.903 -2.7792  0.3421 -0.2889
  654MOL0     H88238   0.140   6.851   4.074  1.0892 -3.8592 -2.1973
  654MOL0     H88239  -0.006   7.049   3.869 -0.5313 -1.6744 -1.7006
  654MOL0     H88240   0.035   7.081   4.034  0.0653  0.3915 -0.3771
  654MOL0     H88241  -0.221   6.915   3.838  3.8886  2.2058 -0.0582
  654MOL0     H88242  -0.483   6.807   3.964  1.3356  0.5712 -0.6398
  654MOL0     H88243  -0.522   6.933   4.077 -0.7870  0.3120 -1.1115
  654MOL0     H88244  -0.440   6.999   3.786  0.2196 -0.0854  0.6369
  654MOL0     H88245  -0.525   7.104   3.901  0.0424 -0.6926  2.2357
  654MOL0     H88246  -0.718   6.950   3.904  1.8011 -3.3318  0.7957
  654MOL0     H88247  -0.653   6.849   3.783  2.2010 -0.6509  0.2694
  654MOL0     H88248  -0.666   7.138   3.708  0.4915  0.1187 -2.8444
  654MOL0     H88249  -0.799   7.034   3.679  0.1388 -1.1820  1.4223
  654MOL0     H88250  -0.547   6.874   3.365 -2.1208 -0.8825 -0.4048
  654MOL0     H88251  -0.652   6.890   3.029 -0.9647  1.2407  1.5365
  654MOL0     H88252  -0.492   6.970   3.049 -1.6632  1.2245 -3.8089
  654MOL0     H88253  -0.528   6.823   3.137  1.8410  0.7904 -0.3011
  654MOL0     H88254  -0.845   7.100   2.774  1.2174  0.4616 -4.2155
  654MOL0     H88255  -0.899   7.196   2.570  0.9950 -0.7861  1.4851
  654MOL0     H88256  -1.010   7.342   2.372 -0.2846 -0.1559 -0.2080
  654MOL0     H88257  -1.130   7.398   2.490 -1.5344  3.2437 -0.3926
  654MOL0     H88258  -1.062   7.632   2.426 -1.3613  1.7122 -2.0286
  654MOL0     H88259  -0.976   7.575   2.288 -1.0414  2.2888 -0.4332
  654MOL0     H88260  -1.187   7.486   2.185  1.7626 -0.3569 -0.1266
  654MOL0     H88261  -1.192   7.661   2.236  3.3148  0.7368  2.6004
  654MOL0     H88262  -1.319   7.429   2.367 -0.7947  0.1699 -2.0934
  654MOL0     H88263  -1.316   7.591   2.439  1.0499  0.1851 -1.2265
  654MOL0     H88264  -1.432   7.507   2.179 -1.8430  0.9981 -1.3737
  654MOL0     H88265  -1.453   7.669   2.232 -1.6873 -0.1861 -2.0511
  654MOL0     H88266  -1.576   7.423   2.370 -1.3644 -0.2867  0.4342
  654MOL0     H88267  -1.560   7.576   2.443 -0.5140 -2.7406  0.9669
  654MOL0     H88268  -1.732   7.668   2.271 -3.4651 -1.1568 -1.6804
  654MOL0     H88269  -1.792   7.521   2.337 -2.2344  3.2401 -1.3103
  654MOL0     H88270  -1.702   7.395   2.168 -1.8736  0.0131  0.0642
  654MOL0     H88271  -1.655   7.536   2.063 -1.1514 -0.0374 -2.5489
  654MOL0     H88272  -0.961   7.590   2.766  0.9742  0.1884 -0.2193
  654MOL0     H88273  -0.899   7.467   2.980  2.2623  0.6276 -0.0444
  654MOL0     H88274  -0.812   7.276   3.272 -0.1533  1.1823  3.8106
  654MOL0     H88275  -0.788   7.201   3.500 -1.0252 -1.8803  0.8563
  654MOL0     H88276   0.579   7.516   3.957 -1.0487  1.1958  1.3533
  654MOL0     H88277   0.694   7.740   3.988  0.1629 -0.3860 -0.3620
  654MOL0     H88278   1.032   7.989   4.455  0.5969 -0.2399  0.7911
  654MOL0     H88279   1.258   8.110   4.456  0.3271 -1.4846 -0.2460
  654MOL0     H88280   1.536   7.927   4.353 -2.6570  0.1863  0.0081
  654MOL0     H88281   1.644   8.045   4.259 -1.3379 -2.2434 -0.6396
  654MOL0     H88282   1.531   8.085   4.544 -0.9173  2.2195 -0.9724
  654MOL0     H88283   1.640   8.198   4.462  1.4992 -0.3602 -0.2995
  654MOL0     H88284   1.690   7.901   4.529 -1.2746  0.5655 -4.4265
  654MOL0     H88285   1.753   8.038   4.627 -0.0264 -0.6060  0.6996
  654MOL0     H88286   1.824   8.058   4.354 -1.2602 -1.0924 -0.3071
  654MOL0     H88287   1.884   7.901   4.431 -2.3834 -0.5683  1.5529
  654MOL0     H88288   2.121   8.151   4.653  1.9971 -3.7757  1.0630
  654MOL0     H88289   1.360   7.947   4.087 -2.8087 -0.7030 -0.6984
  654MOL0     H88290   1.162   7.814   4.084 -0.7991 -2.8742  2.1599
  655MOL0     O88291   0.664   7.697  10.285 -0.4097 -0.2680 -0.6918
  655MOL0     C88292   0.662   7.582  10.327  0.1979  0.0464  0.7440
  655MOL0     O88293   0.547   7.515  10.363  0.4093 -0.1570 -0.7110
  655MOL0     C88294   0.435   7.590  10.350  0.4815  0.1485  0.5339
  655MOL0     C88295   0.381   7.635  10.221  0.0807 -0.6105 -0.9142
  655MOL0     C88296   0.257   7.694  10.223  0.3930 -0.4564  0.0408
  655MOL0     C88297   0.179   7.715  10.335  0.4741 -0.0256 -0.2989
  655MOL0     O88298   0.062   7.783  10.317  0.0026  0.4474  0.1022
  655MOL0     C88299   0.034   7.873  10.424 -0.2081 -0.5040 -0.6372
  655MOL0     C88300  -0.037   8.008  10.394 -0.3626  0.2031 -0.0464
  655MOL0     C88301  -0.159   7.984  10.307  0.6703 -0.2961 -0.1785
  655MOL0     C88302  -0.296   7.989  10.376  0.4558 -0.1792  0.7761
  655MOL0     C88303  -0.403   7.933  10.274 -0.3016  0.2437 -0.4792
  655MOL0     C88304  -0.543   7.966  10.336 -1.0746 -0.1707  1.0119
  655MOL0     C88305  -0.648   7.931  10.244  0.5486 -0.1918  0.2652
  655MOL0     C88306  -0.782   7.929  10.320  0.3653 -0.2410  0.7732
  655MOL0     N88307  -0.881   7.837  10.261  0.3315  0.0742 -0.3254
  655MOL0     C88308  -0.862   7.704  10.258 -0.5024 -0.2421  0.1746
  655MOL0     C88309  -0.973   7.649  10.195 -0.5740 -0.2504 -0.4351
  655MOL0     C88310  -0.982   7.498  10.176 -0.1244 -0.7178 -0.1916
  655MOL0     C88311  -0.973   7.463  10.029  0.1243  0.5660  0.4864
  655MOL0     C88312  -0.853   7.531   9.948 -0.5402  0.5995 -0.8529
  655MOL0     C88313  -0.711   7.491  10.010 -0.4074 -0.7688 -0.8173
  655MOL0     O88314  -0.611   7.507   9.912  0.0256  0.2112  0.1219
  655MOL0     C88315  -0.475   7.480   9.926 -0.0919 -1.0238 -0.3219
  655MOL0     C88316  -0.412   7.446  10.043 -0.5314 -0.1544 -0.1159
  655MOL0     C88317  -0.277   7.427  10.070  0.4685 -0.1454  0.4740
  655MOL0     C88318  -0.229   7.404  10.216 -0.3152 -0.2967 -0.4816
  655MOL0     C88319  -0.202   7.439   9.953 -0.0866 -0.0054  0.8860
  655MOL0     C88320  -0.044   7.440   9.954  0.6396 -0.2216  0.4985
  655MOL0     O88321   0.032   7.467   9.834  0.1482 -0.2897 -0.2513
  655MOL0     C88322   0.167   7.477   9.845 -0.4037  0.7204  0.0082
  655MOL0     C88323   0.230   7.599   9.835 -0.6007 -0.4407  0.2865
  655MOL0     C88324   0.375   7.611   9.825  0.6318  0.3860  0.2555
  655MOL0     C88325   0.449   7.496   9.838  0.0017  0.1284  0.6996
  655MOL0     O88326   0.580   7.486   9.833 -0.3837 -0.1364  0.1851
  655MOL0     C88327   0.655   7.579   9.910 -1.1834 -0.0314 -1.1306
  655MOL0     C88328   0.802   7.551   9.878  0.3814 -0.3435  0.2747
  655MOL0     C88329   0.849   7.410   9.928  0.4309  0.1124  0.3269
  655MOL0     C88330   0.973   7.371   9.837 -0.1124  0.5132  0.4413
  655MOL0     C88331   1.057   7.256   9.886 -0.3336 -0.1753  0.1685
  655MOL0     C88332   1.179   7.222   9.794  0.3414  0.8452  0.7760
  655MOL0     C88333   1.276   7.123   9.869  0.0130  0.5158 -0.8017
  655MOL0     C88334   1.389   7.074   9.780  0.1400 -0.1889 -0.1308
  655MOL0    Cl88335   1.485   7.195   9.714  0.0444  0.2694 -0.0913
  655MOL0     C88336   0.382   7.372   9.856  0.2674 -0.5239  0.0116
  655MOL0     C88337   0.244   7.359   9.862  1.0405  0.6278 -0.2513
  655MOL0     O88338   0.002   7.415  10.060  0.2356 -0.2518 -0.4806
  655MOL0     C88339  -0.262   7.461   9.821 -0.4169 -0.4609 -0.6917
  655MOL0     C88340  -0.399   7.495   9.815  0.0011  0.1439 -0.0409
  655MOL0     N88341  -1.059   7.755  10.165  0.5691 -0.8324  0.2643
  655MOL0     N88342  -0.998   7.866  10.203  0.7021  0.8596 -0.0448
  655MOL0     C88343   0.233   7.665  10.459 -0.0552  0.2312  0.4407
  655MOL0     C88344   0.357   7.597  10.467 -0.1621 -0.2054  0.6570
  655MOL0     C88345   0.785   7.505  10.336  0.0177  1.2172  0.2000
  655MOL0     C88346   0.791   7.383  10.407  0.4329 -0.3268  0.0901
  655MOL0     C88347   0.902   7.305  10.408 -0.3575 -0.5847 -0.4655
  655MOL0     C88348   1.007   7.355  10.325  0.0699 -0.4807 -0.7691
  655MOL0     O88349   1.129   7.283  10.326  0.1301  0.8477  0.0041
  655MOL0     C88350   1.241   7.335  10.264 -0.2422 -0.2497  0.7935
  655MOL0     C88351   1.352   7.223  10.285  0.0361 -0.4098 -0.1382
  655MOL0     C88352   1.496   7.284  10.253 -0.0591  0.1717 -0.0657
  655MOL0     C88353   1.604   7.183  10.291  0.2633  0.4766  0.1702
  655MOL0     C88354   1.595   7.051  10.232 -0.6918 -0.2682 -0.0348
  655MOL0     C88355   1.568   6.951  10.164  0.3741 -0.5437  0.6647
  655MOL0     C88356   1.005   7.470  10.254  0.2103  0.5379  0.4976
  655MOL0     C88357   0.889   7.546  10.260  0.0541  0.4524 -0.1299
  655MOL0     H88358   0.439   7.626  10.130  1.4223  1.0650 -0.2857
  655MOL0     H88359   0.214   7.741  10.135  0.0384  0.3821  0.6482
  655MOL0     H88360  -0.044   7.817  10.476  1.6708 -1.1789  1.6191
  655MOL0     H88361   0.121   7.888  10.489  0.1828  2.9607 -1.7834
  655MOL0     H88362  -0.060   8.053  10.491  1.4123  0.1534  0.4429
  655MOL0     H88363   0.038   8.066  10.339 -0.9061  2.3042  1.3216
  655MOL0     H88364  -0.165   8.070  10.240  1.2150  0.3404  0.5739
  655MOL0     H88365  -0.135   7.900  10.241  2.6894  0.9487 -1.1114
  655MOL0     H88366  -0.302   7.924  10.464 -1.4838  0.9842  1.5648
  655MOL0     H88367  -0.304   8.094  10.406  3.7409  0.3197  0.2144
  655MOL0     H88368  -0.388   7.985  10.179 -1.8319 -0.1433 -0.9657
  655MOL0     H88369  -0.386   7.825  10.262  1.0794  0.1553  1.6988
  655MOL0     H88370  -0.548   7.911  10.431 -0.2736 -2.2849 -0.1068
  655MOL0     H88371  -0.548   8.075  10.342  0.6087 -0.0801  1.2488
  655MOL0     H88372  -0.660   7.997  10.159 -0.3481 -1.8332 -0.9369
  655MOL0     H88373  -0.623   7.834  10.201  0.1664 -0.3955  0.4962
  655MOL0     H88374  -0.824   8.030  10.310  0.5357 -0.3228 -1.0473
  655MOL0     H88375  -0.773   7.893  10.423  3.0711 -2.3049 -0.0740
  655MOL0     H88376  -0.782   7.642  10.295  2.0276  1.6221 -1.8413
  655MOL0     H88377  -0.888   7.466  10.223  0.5743  1.0229 -0.3328
  655MOL0     H88378  -1.058   7.444  10.234 -0.0712  1.3158  1.9088
  655MOL0     H88379  -1.070   7.491   9.987  0.8690  3.8810  0.7461
  655MOL0     H88380  -0.964   7.354  10.026  3.0941  0.7170  1.0422
  655MOL0     H88381  -0.861   7.638   9.931 -0.0756  1.4754  3.2344
  655MOL0     H88382  -0.851   7.489   9.847  0.0267  0.0622 -0.6274
  655MOL0     H88383  -0.709   7.389  10.050  1.4457 -1.4733 -2.5761
  655MOL0     H88384  -0.688   7.565  10.088  1.6363 -0.9067 -1.2441
  655MOL0     H88385  -0.468   7.449  10.136  0.7373  0.3475  0.6548
  655MOL0     H88386  -0.168   7.489  10.247  0.0152 -1.0032  0.9097
  655MOL0     H88387  -0.311   7.395  10.288  0.8639  1.4251  1.1618
  655MOL0     H88388  -0.173   7.310  10.220 -1.5001 -1.1814 -2.5928
  655MOL0     H88389   0.171   7.689   9.824 -1.1613 -0.8606 -0.2390
  655MOL0     H88390   0.429   7.705   9.821  0.4293  0.7028  2.8973
  655MOL0     H88391   0.633   7.681   9.876 -1.3762 -0.3047 -1.8408
  655MOL0     H88392   0.630   7.574  10.017 -0.7079 -0.2707 -1.0322
  655MOL0     H88393   0.830   7.558   9.772  2.4692 -1.0579  0.7185
  655MOL0     H88394   0.860   7.629   9.929 -1.5294  1.8459 -0.7104
  655MOL0     H88395   0.774   7.332   9.912 -0.0075  0.2815  1.4503
  655MOL0     H88396   0.871   7.411  10.035  1.6929  1.6462  0.0985
  655MOL0     H88397   0.938   7.356   9.734 -4.5240  0.6477  1.7366
  655MOL0     H88398   1.046   7.452   9.828 -2.1383  2.1690 -2.4221
  655MOL0     H88399   0.992   7.169   9.898 -0.8342 -0.1375 -1.8300
  655MOL0     H88400   1.096   7.289   9.983  2.3278 -1.6288 -0.3089
  655MOL0     H88401   1.151   7.197   9.691 -2.1358  0.2196  1.5350
  655MOL0     H88402   1.238   7.313   9.780 -0.8452  1.3171 -1.5543
  655MOL0     H88403   1.220   7.040   9.913  0.0474 -0.4976 -2.5973
  655MOL0     H88404   1.319   7.167   9.960 -2.4467  1.8175 -0.1715
  655MOL0     H88405   1.348   7.004   9.706  2.4589 -1.7690 -0.0224
  655MOL0     H88406   1.455   7.011   9.840 -0.3721  2.6560  3.8222
  655MOL0     H88407   0.438   7.279   9.855 -0.9436 -1.2838 -1.3174
  655MOL0     H88408   0.201   7.263   9.888  2.0867 -0.0911 -1.0473
  655MOL0     H88409  -0.204   7.484   9.732 -1.2810 -1.4051 -1.5420
  655MOL0     H88410  -0.448   7.547   9.733 -0.6962 -0.4007  0.0152
  655MOL0     H88411   0.179   7.673  10.553 -2.5962  0.1301 -0.9015
  655MOL0     H88412   0.400   7.567  10.562  1.8335 -0.5784 -0.3274
  655MOL0     H88413   0.710   7.352  10.472 -0.1428  0.0848 -0.4273
  655MOL0     H88414   0.904   7.212  10.464 -1.5819 -0.0377  0.5395
  655MOL0     H88415   1.219   7.353  10.158 -1.1916  0.5477  1.1118
  655MOL0     H88416   1.272   7.427  10.313  5.2158  0.4766 -3.0787
  655MOL0     H88417   1.321   7.142  10.218 -0.3312  0.4286 -1.0140
  655MOL0     H88418   1.354   7.196  10.391 -1.0533  0.4010  0.1047
  655MOL0     H88419   1.509   7.372  10.317  2.0840  0.6304 -1.0437
  655MOL0     H88420   1.498   7.323  10.151 -2.5403 -0.7026 -0.5057
  655MOL0     H88421   1.612   7.167  10.399  0.4070  0.1924  0.1192
  655MOL0     H88422   1.701   7.223  10.260 -0.0152  0.4487 -0.7656
  655MOL0     H88423   1.545   6.876  10.092 -0.9307  1.2103 -0.8387
  655MOL0     H88424   1.088   7.506  10.194  1.0100  0.6273  1.6474
  655MOL0     H88425   0.888   7.645  10.217 -0.8923 -0.2334 -1.8009
  656MOL0     O88426   2.518   2.852   2.240 -0.5589  0.3124 -0.0797
  656MOL0     C88427   2.589   2.903   2.152  0.0047 -0.4340 -0.1204
  656MOL0     O88428   2.548   2.939   2.027  0.3931 -0.5880 -0.1315
  656MOL0     C88429   2.419   2.908   1.986 -0.4026 -0.8970 -1.2888
  656MOL0     C88430   2.349   2.789   1.995 -0.3637  0.6512 -0.0757
  656MOL0     C88431   2.222   2.767   1.944  0.4423 -0.2756 -0.3761
  656MOL0     C88432   2.136   2.879   1.900  0.1021  0.0056 -0.0149
  656MOL0     O88433   2.004   2.885   1.860 -0.6660 -0.3221 -0.2109
  656MOL0     C88434   1.940   2.759   1.853 -0.7490 -0.6020  0.0158
  656MOL0     C88435   1.798   2.761   1.793 -0.6692  0.3571  0.3848
  656MOL0     C88436   1.699   2.845   1.869 -0.6895  0.1985 -0.2323
  656MOL0     C88437   1.554   2.829   1.823 -0.1619 -0.2359  0.2756
  656MOL0     C88438   1.458   2.919   1.895  0.0756  0.1719 -0.5648
  656MOL0     C88439   1.314   2.880   1.892 -0.0460  0.0374 -0.3875
  656MOL0     C88440   1.265   2.863   1.742  0.4630  0.6590 -1.1560
  656MOL0     C88441   1.142   2.773   1.717 -0.3752  0.4451 -0.3315
  656MOL0     N88442   1.014   2.833   1.743  0.1253 -1.0447  0.0701
  656MOL0     C88443   0.979   2.962   1.684  0.2815  0.1210 -0.1599
  656MOL0     C88444   0.844   2.979   1.702 -0.4972 -0.1959 -0.6328
  656MOL0     C88445   0.770   3.102   1.666  0.0571 -0.6383 -0.4857
  656MOL0     C88446   0.848   3.229   1.726  0.2752 -0.0863  0.7461
  656MOL0     C88447   0.773   3.363   1.699 -0.4081  0.1072  0.0654
  656MOL0     C88448   0.842   3.492   1.747  0.2991  0.5579  0.6461
  656MOL0     O88449   0.879   3.479   1.889 -0.1792 -0.2355 -0.1875
  656MOL0     C88450   0.941   3.583   1.954 -0.0718 -0.2309  0.4060
  656MOL0     C88451   1.020   3.556   2.067  0.4329  0.3916  0.5294
  656MOL0     C88452   1.092   3.658   2.133  1.1701 -0.8586 -0.3167
  656MOL0     C88453   1.189   3.611   2.239 -0.4122 -0.0359 -0.0807
  656MOL0     C88454   1.076   3.798   2.090 -0.5634  0.1678  0.2136
  656MOL0     C88455   1.150   3.915   2.152 -0.8215 -0.9987  0.2600
  656MOL0     O88456   1.236   3.893   2.257 -0.7550 -0.4370  0.4772
  656MOL0     C88457   1.340   3.972   2.258 -0.4586 -0.0319  0.3232
  656MOL0     C88458   1.347   4.111   2.263  0.6613  0.2062  0.8899
  656MOL0     C88459   1.469   4.179   2.273  0.1661 -0.1755 -1.1758
  656MOL0     C88460   1.589   4.114   2.266 -0.6132 -0.3063  0.1315
  656MOL0     O88461   1.707   4.189   2.256 -0.9059 -0.7690  0.3815
  656MOL0     C88462   1.831   4.116   2.257 -0.8051  0.0365  0.3767
  656MOL0     C88463   1.941   4.224   2.255  0.7676 -0.8178 -0.5131
  656MOL0     C88464   2.082   4.175   2.222 -0.7148  0.1620  0.4016
  656MOL0     C88465   2.184   4.286   2.231  0.1000 -0.0191  0.6241
  656MOL0     C88466   2.329   4.234   2.213  0.3243  0.1135  0.2380
  656MOL0     C88467   2.433   4.346   2.205 -0.5773  0.0871  0.7516
  656MOL0     C88468   2.579   4.288   2.204 -0.5430 -0.3721  0.1678
  656MOL0     C88469   2.682   4.402   2.201  0.5350  0.0547  0.0817
  656MOL0    Cl88470   2.689   4.479   2.030 -0.1969  0.2511  0.7216
  656MOL0     C88471   1.591   3.971   2.253  0.6320  0.2550  0.0438
  656MOL0     C88472   1.466   3.902   2.262  0.0672 -0.0455  0.9025
  656MOL0     O88473   1.139   4.023   2.086  0.2580 -0.5250 -0.6620
  656MOL0     C88474   1.001   3.821   1.969 -0.4048 -0.1062  0.4659
  656MOL0     C88475   0.928   3.717   1.911 -0.1451 -0.5927  0.3790
  656MOL0     N88476   0.800   2.863   1.763 -0.0838  0.7641  0.0481
  656MOL0     N88477   0.897   2.780   1.792  0.1137  0.0313 -0.3513
  656MOL0     C88478   2.208   3.005   1.910 -0.5943 -0.0551  0.0549
  656MOL0     C88479   2.345   3.020   1.939  0.6754  1.0384 -0.1993
  656MOL0     C88480   2.729   2.934   2.187  0.1592  0.3993  0.8496
  656MOL0     C88481   2.834   2.924   2.105 -0.0947 -0.5294  0.7343
  656MOL0     C88482   2.964   2.962   2.142  0.3074  0.4958  0.3863
  656MOL0     C88483   3.002   3.004   2.274 -0.2398  0.1774 -0.0738
  656MOL0     O88484   3.132   3.054   2.291  0.3089 -0.6467 -0.4377
  656MOL0     C88485   3.169   3.089   2.427 -0.0290 -0.5512  0.2191
  656MOL0     C88486   3.317   3.055   2.422 -0.3176 -0.4036  0.0740
  656MOL0     C88487   3.344   2.904   2.395  0.9282  0.4291 -0.3764
  656MOL0     C88488   3.332   2.828   2.528  0.2208  0.1555 -0.0792
  656MOL0     C88489   3.375   2.691   2.527 -0.5682  0.4564 -0.5166
  656MOL0     C88490   3.420   2.577   2.505  0.6383 -0.5684  0.0756
  656MOL0     C88491   2.892   3.015   2.363  0.2885  0.7746  0.5880
  656MOL0     C88492   2.759   2.977   2.316  0.8330 -0.1738 -0.1887
  656MOL0     H88493   2.403   2.703   2.032  2.4185  1.5779 -1.7227
  656MOL0     H88494   2.186   2.665   1.943  2.0608 -0.8755 -0.9049
  656MOL0     H88495   1.994   2.690   1.788  2.4755  0.6322  1.1790
  656MOL0     H88496   1.949   2.719   1.955 -1.3931  1.8086  1.0926
  656MOL0     H88497   1.805   2.800   1.691 -2.1836  0.1736  0.1921
  656MOL0     H88498   1.784   2.653   1.782  3.0555 -0.2560  0.2365
  656MOL0     H88499   1.711   2.821   1.975 -1.6248  1.4787  0.1751
  656MOL0     H88500   1.719   2.951   1.851  1.7479  0.0120  0.9186
  656MOL0     H88501   1.565   2.850   1.716  1.3130  1.5715  0.7183
  656MOL0     H88502   1.534   2.722   1.828  4.3692 -1.2433  1.5541
  656MOL0     H88503   1.479   2.921   2.002  0.9669 -0.7085 -0.7090
  656MOL0     H88504   1.466   3.023   1.862  3.7643 -0.9197 -3.8492
  656MOL0     H88505   1.297   2.790   1.953  1.6076 -0.1384 -0.1380
  656MOL0     H88506   1.256   2.964   1.931  2.2476  1.8635 -0.7351
  656MOL0     H88507   1.241   2.958   1.693 -2.4929  0.1376 -0.9350
  656MOL0     H88508   1.346   2.813   1.689  0.4707  2.4987 -2.9625
  656MOL0     H88509   1.160   2.676   1.764  1.7617  0.4038 -1.1215
  656MOL0     H88510   1.133   2.762   1.608 -1.2272  2.7098 -0.5446
  656MOL0     H88511   1.034   3.036   1.626 -0.8237  2.5407  1.6830
  656MOL0     H88512   0.767   3.101   1.556 -2.4911 -4.4190 -0.5617
  656MOL0     H88513   0.669   3.095   1.708  0.6799 -0.8586  1.0106
  656MOL0     H88514   0.949   3.246   1.687 -0.7015  2.5874 -0.9792
  656MOL0     H88515   0.852   3.213   1.834 -0.2767 -0.6483  0.6890
  656MOL0     H88516   0.674   3.349   1.745 -0.6982 -2.0646 -1.1109
  656MOL0     H88517   0.763   3.384   1.592 -2.1098 -3.4470 -0.6244
  656MOL0     H88518   0.782   3.581   1.730 -0.2435  0.3894  1.5881
  656MOL0     H88519   0.932   3.509   1.686 -0.1002  0.8681  0.1412
  656MOL0     H88520   1.045   3.456   2.099  0.8312  0.3148 -0.0074
  656MOL0     H88521   1.291   3.635   2.205 -1.0566  2.1587 -0.6222
  656MOL0     H88522   1.165   3.665   2.330 -1.4617  1.1274 -1.0069
  656MOL0     H88523   1.181   3.503   2.255  1.2107 -0.1504  0.1021
  656MOL0     H88524   1.255   4.168   2.272  1.2961  1.2524  0.8464
  656MOL0     H88525   1.462   4.284   2.303 -3.9378 -1.6753  5.3034
  656MOL0     H88526   1.851   4.047   2.339 -1.1026 -0.0570  0.3721
  656MOL0     H88527   1.848   4.057   2.167 -0.3123 -2.4407  2.0000
  656MOL0     H88528   1.920   4.291   2.170 -0.6103 -0.3457  0.1723
  656MOL0     H88529   1.955   4.282   2.347  0.4043 -1.3557 -0.1144
  656MOL0     H88530   2.088   4.129   2.123  2.7234 -1.0427  1.0408
  656MOL0     H88531   2.106   4.096   2.294 -0.6479 -0.0238  0.1769
  656MOL0     H88532   2.160   4.362   2.157 -1.5856 -0.4493  0.6960
  656MOL0     H88533   2.182   4.336   2.328 -0.7057 -2.2164  1.8193
  656MOL0     H88534   2.339   4.178   2.119 -1.0972  0.7694 -0.3344
  656MOL0     H88535   2.351   4.167   2.297  2.5695  1.2332  0.5935
  656MOL0     H88536   2.408   4.407   2.118  1.5618 -2.9778 -2.2897
  656MOL0     H88537   2.427   4.403   2.299 -0.8759 -0.5377  1.1112
  656MOL0     H88538   2.596   4.217   2.122  2.3190  1.1283 -0.6906
  656MOL0     H88539   2.595   4.229   2.295  0.4874  0.3251  0.4668
  656MOL0     H88540   2.781   4.357   2.213 -0.0401 -0.9156  1.4605
  656MOL0     H88541   2.674   4.477   2.280 -1.3409 -0.6563  0.6266
  656MOL0     H88542   1.682   3.914   2.238  1.9615  2.2404  0.1526
  656MOL0     H88543   1.464   3.794   2.262  0.2514 -0.0493  1.0013
  656MOL0     H88544   0.994   3.923   1.934 -0.9684 -0.3565 -0.1820
  656MOL0     H88545   0.848   3.747   1.845 -3.1769 -1.0823  3.5382
  656MOL0     H88546   2.138   3.086   1.888 -1.6635 -0.3263  2.1554
  656MOL0     H88547   2.381   3.122   1.926  1.0910  0.7614 -1.3184
  656MOL0     H88548   2.825   2.898   2.000  1.1896  1.8284 -0.0558
  656MOL0     H88549   3.046   2.965   2.071 -1.8726  0.3058 -2.3236
  656MOL0     H88550   3.150   3.193   2.454 -0.3337 -0.8314  1.1289
  656MOL0     H88551   3.123   3.031   2.508 -0.0312  0.5582  1.0285
  656MOL0     H88552   3.355   3.078   2.522  0.4894 -1.3797  0.0110
  656MOL0     H88553   3.372   3.115   2.349 -0.1229 -1.0256 -0.3028
  656MOL0     H88554   3.437   2.877   2.345  0.4020 -4.0056  0.5983
  656MOL0     H88555   3.262   2.868   2.332 -1.7751  0.0173  3.0448
  656MOL0     H88556   3.226   2.823   2.555  0.0545 -0.3730 -0.7958
  656MOL0     H88557   3.381   2.879   2.611  0.5409  0.2918 -0.3482
  656MOL0     H88558   3.452   2.475   2.498 -0.5460 -1.2033  2.5537
  656MOL0     H88559   2.902   3.041   2.468 -1.0113 -1.3327  1.3010
  656MOL0     H88560   2.669   2.978   2.377 -1.3424 -0.6418 -3.1238
  657MOL0     O88561   8.093   0.704   9.293  0.3072  0.3122 -0.2113
  657MOL0     C88562   8.205   0.659   9.318 -0.2073  0.0566  0.8880
  657MOL0     O88563   8.229   0.530   9.363 -0.2677 -0.6969 -0.5926
  657MOL0     C88564   8.130   0.432   9.386 -0.5295 -0.2743 -0.2680
  657MOL0     C88565   8.004   0.429   9.323  0.4494  0.0556 -0.6131
  657MOL0     C88566   7.908   0.334   9.371  0.0581  0.1603 -0.1164
  657MOL0     C88567   7.934   0.251   9.472 -0.4539  0.3976 -0.0202
  657MOL0     O88568   7.840   0.157   9.497 -0.5021 -1.0686  0.0204
  657MOL0     C88569   7.870   0.046   9.573 -1.0011 -0.1166  0.0482
  657MOL0     C88570   7.746  -0.029   9.614 -0.8372  0.0685  0.4204
  657MOL0     C88571   7.682   0.013   9.751  0.2646 -0.0752  0.4403
  657MOL0     C88572   7.573  -0.080   9.811  0.0309  0.0366 -0.5676
  657MOL0     C88573   7.448  -0.077   9.720 -0.1606 -0.5818 -0.6498
  657MOL0     C88574   7.358  -0.195   9.753  0.2640 -0.3609 -0.6054
  657MOL0     C88575   7.245  -0.211   9.657  0.3510 -0.1078  0.2221
  657MOL0     C88576   7.141  -0.098   9.682  0.3470 -0.2433 -0.2461
  657MOL0     N88577   7.021  -0.107   9.597 -0.6162  1.5852  0.5582
  657MOL0     C88578   6.934  -0.211   9.607  0.2173  0.6046 -0.0924
  657MOL0     C88579   6.858  -0.216   9.496 -0.0714 -0.2397 -0.3347
  657MOL0     C88580   6.750  -0.319   9.489  0.0487 -0.1331  0.1927
  657MOL0     C88581   6.650  -0.286   9.373 -0.5255 -0.5355  0.1161
  657MOL0     C88582   6.562  -0.167   9.392 -0.5056 -0.7697 -0.5351
  657MOL0     C88583   6.418  -0.194   9.347 -0.2628 -0.3093 -0.4469
  657MOL0     O88584   6.394  -0.290   9.242  0.0965  0.6611 -0.0203
  657MOL0     C88585   6.263  -0.330   9.217 -0.4872  0.5107 -0.3371
  657MOL0     C88586   6.252  -0.471   9.172  0.0452 -0.5910 -0.1345
  657MOL0     C88587   6.125  -0.528   9.136 -0.8739 -0.3633 -0.2290
  657MOL0     C88588   6.122  -0.680   9.107  0.3776 -0.0876 -0.9355
  657MOL0     C88589   6.016  -0.439   9.149  0.6470  0.5672  0.4389
  657MOL0     C88590   5.872  -0.473   9.113 -0.5549 -0.2355  0.2634
  657MOL0     O88591   5.778  -0.377   9.135 -0.0989 -0.2814  0.2718
  657MOL0     C88592   5.649  -0.397   9.104 -0.3626  0.2012 -0.4913
  657MOL0     C88593   5.558  -0.404   9.210 -0.1519  0.4546  0.1435
  657MOL0     C88594   5.421  -0.430   9.189 -0.7226  0.1395  0.4846
  657MOL0     C88595   5.374  -0.446   9.058 -0.2514  0.2353  0.2555
  657MOL0     O88596   5.244  -0.462   9.020  0.0704 -0.5058 -0.0087
  657MOL0     C88597   5.148  -0.485   9.130 -0.1935 -0.5692 -0.1245
  657MOL0     C88598   5.004  -0.496   9.072 -0.3806  0.4898 -0.2284
  657MOL0     C88599   4.956  -0.373   8.986 -0.0335 -0.3930  0.0171
  657MOL0     C88600   4.816  -0.369   8.939  0.3539  0.6413  0.8792
  657MOL0     C88601   4.712  -0.349   9.048  0.0100 -0.0818  0.7476
  657MOL0     C88602   4.572  -0.332   9.000  0.2368 -0.2831 -0.1332
  657MOL0     C88603   4.464  -0.271   9.096  0.1248  0.0651 -0.1971
  657MOL0     C88604   4.324  -0.240   9.034 -0.2203 -0.3882 -0.4910
  657MOL0    Cl88605   4.328  -0.089   8.937 -0.0386  0.1437 -0.2771
  657MOL0     C88606   5.471  -0.450   8.956  0.3171  0.5519  0.1612
  657MOL0     C88607   5.605  -0.420   8.974  0.6884  0.0004  0.3292
  657MOL0     O88608   5.842  -0.584   9.059 -0.8372  0.3188 -0.2551
  657MOL0     C88609   6.023  -0.306   9.193 -0.8398 -0.5975 -0.1918
  657MOL0     C88610   6.151  -0.250   9.229 -0.2572  0.1764  0.4459
  657MOL0     N88611   6.908  -0.110   9.415  0.4218 -0.6764 -0.1631
  657MOL0     N88612   6.994  -0.040   9.483 -0.2879  0.2180  0.4429
  657MOL0     C88613   8.059   0.264   9.539  0.5013  0.3660  0.1954
  657MOL0     C88614   8.161   0.347   9.491 -0.8967  0.7460  0.5394
  657MOL0     C88615   8.333   0.736   9.286  1.2137 -0.0744  0.3279
  657MOL0     C88616   8.326   0.860   9.216  0.6612  0.5329 -0.1365
  657MOL0     C88617   8.442   0.931   9.189 -0.3001 -0.2761 -0.1420
  657MOL0     C88618   8.575   0.887   9.237  0.1794 -0.2970  0.0590
  657MOL0     O88619   8.686   0.958   9.193 -0.1871 -0.5087 -0.7788
  657MOL0     C88620   8.806   0.875   9.183  0.0249  0.1324 -0.2773
  657MOL0     C88621   8.917   0.978   9.144 -0.0443 -0.6123 -0.1016
  657MOL0     C88622   9.002   1.028   9.261 -0.1561  0.9557  0.4661
  657MOL0     C88623   9.127   1.111   9.221  0.6334  0.2438  0.1436
  657MOL0     C88624   9.238   1.114   9.318  0.6615  0.7718  0.4865
  657MOL0     C88625   9.324   1.125   9.400 -0.0721 -0.6417 -0.0964
  657MOL0     C88626   8.577   0.763   9.311  0.0753 -0.0848 -0.1766
  657MOL0     C88627   8.461   0.692   9.330 -0.8870 -0.0478 -0.0217
  657MOL0     H88628   7.964   0.499   9.251 -0.6042  0.6137  0.4786
  657MOL0     H88629   7.814   0.319   9.320 -0.6461  1.6994  0.6658
  657MOL0     H88630   7.935  -0.027   9.523 -0.5785  0.4410 -0.2381
  657MOL0     H88631   7.918   0.081   9.665 -0.8772 -0.8948  0.2840
  657MOL0     H88632   7.681  -0.017   9.527 -1.2886  1.1448  0.8861
  657MOL0     H88633   7.766  -0.136   9.603  0.4296  0.5574 -4.3505
  657MOL0     H88634   7.757   0.034   9.828  2.7419  0.9034 -2.0406
  657MOL0     H88635   7.637   0.109   9.724  0.7361 -0.7107 -3.0667
  657MOL0     H88636   7.608  -0.183   9.818 -0.8730 -0.2440  0.0688
  657MOL0     H88637   7.550  -0.047   9.913  0.3369  1.4346 -0.9400
  657MOL0     H88638   7.399   0.020   9.721  2.3494  0.8109  2.0970
  657MOL0     H88639   7.487  -0.094   9.619  0.5251 -2.2616 -0.1410
  657MOL0     H88640   7.422  -0.283   9.738  0.0331 -0.3092 -2.1013
  657MOL0     H88641   7.324  -0.192   9.857 -1.0344 -2.1631 -0.9133
  657MOL0     H88642   7.284  -0.214   9.555  1.9269 -1.2239  0.8178
  657MOL0     H88643   7.187  -0.300   9.681 -0.4914  1.0423  2.8094
  657MOL0     H88644   7.176   0.005   9.667 -5.0324  2.0774  0.9993
  657MOL0     H88645   7.106  -0.095   9.785 -0.1653  0.0015 -0.4256
  657MOL0     H88646   6.934  -0.279   9.691  0.7034  2.0913  1.1565
  657MOL0     H88647   6.786  -0.421   9.472 -1.9987 -0.9863  0.5466
  657MOL0     H88648   6.695  -0.320   9.584 -0.1836 -0.2673  0.0615
  657MOL0     H88649   6.588  -0.375   9.356 -0.3791 -0.5742 -0.2333
  657MOL0     H88650   6.708  -0.273   9.281 -3.0136  1.7849 -1.2348
  657MOL0     H88651   6.601  -0.076   9.344 -0.2073 -1.9826 -2.7313
  657MOL0     H88652   6.556  -0.154   9.500 -3.1036 -1.7472 -0.5003
  657MOL0     H88653   6.381  -0.098   9.310 -1.8293  0.6154  3.0846
  657MOL0     H88654   6.356  -0.223   9.433 -0.9564  1.0296 -0.4652
  657MOL0     H88655   6.336  -0.540   9.165  0.5286  0.0442 -0.8436
  657MOL0     H88656   6.222  -0.701   9.067  2.5599  0.3765  3.6079
  657MOL0     H88657   6.100  -0.747   9.190  0.4986  0.0705 -0.7750
  657MOL0     H88658   6.055  -0.706   9.024 -1.1369 -2.7253  0.9575
  657MOL0     H88659   5.592  -0.397   9.313  1.7187  1.9140 -0.5281
  657MOL0     H88660   5.359  -0.442   9.277  1.7977  0.1323  2.3822
  657MOL0     H88661   5.159  -0.578   9.187  1.4291  1.5139  3.2271
  657MOL0     H88662   5.160  -0.400   9.197 -1.1510  1.1255 -1.9803
  657MOL0     H88663   5.015  -0.586   9.011 -0.5793  0.7551 -0.6638
  657MOL0     H88664   4.932  -0.522   9.151  3.0038 -0.6993  2.7624
  657MOL0     H88665   5.032  -0.348   8.912  1.5928  1.6159  2.2293
  657MOL0     H88666   4.969  -0.284   9.048  4.2444  0.0379 -1.1895
  657MOL0     H88667   4.805  -0.291   8.863  0.2665 -2.2549 -2.3088
  657MOL0     H88668   4.800  -0.465   8.889 -0.1230  1.0211  0.2866
  657MOL0     H88669   4.738  -0.253   9.094 -1.1246  0.1825  0.8695
  657MOL0     H88670   4.713  -0.432   9.120 -0.8553 -1.3789 -0.6973
  657MOL0     H88671   4.569  -0.280   8.904 -2.1498  0.7349  0.4139
  657MOL0     H88672   4.538  -0.435   8.981  1.0674 -0.1412 -2.9579
  657MOL0     H88673   4.515  -0.182   9.131  0.6957 -0.6105  0.7422
  657MOL0     H88674   4.443  -0.329   9.187 -1.2159  1.6555  0.5607
  657MOL0     H88675   4.250  -0.231   9.113  0.2050  2.6028 -0.2836
  657MOL0     H88676   4.298  -0.325   8.971 -1.7929  0.0850 -0.5163
  657MOL0     H88677   5.431  -0.469   8.857 -2.8583 -1.1110  1.5644
  657MOL0     H88678   5.680  -0.410   8.897  0.7974 -1.6828  0.1823
  657MOL0     H88679   5.939  -0.240   9.211 -0.5628 -0.6013  1.3241
  657MOL0     H88680   6.167  -0.145   9.253  1.9856  0.0565 -0.3864
  657MOL0     H88681   8.074   0.227   9.640 -1.8844 -1.2751  0.0338
  657MOL0     H88682   8.247   0.357   9.557 -1.3068  1.8676  0.9254
  657MOL0     H88683   8.232   0.889   9.170  0.2614 -0.0988  0.2654
  657MOL0     H88684   8.432   1.010   9.114 -1.9037 -1.1729 -0.9187
  657MOL0     H88685   8.833   0.829   9.279  2.2884 -0.7268 -1.2476
  657MOL0     H88686   8.784   0.798   9.110 -2.5200  1.2436 -0.7782
  657MOL0     H88687   8.873   1.062   9.090 -0.1857  0.6218  1.8055
  657MOL0     H88688   8.976   0.920   9.073 -2.0706  0.6262 -2.9535
  657MOL0     H88689   9.049   0.946   9.316  3.2859  2.5645  0.2424
  657MOL0     H88690   8.939   1.090   9.326  0.5554  1.1306  1.0035
  657MOL0     H88691   9.096   1.215   9.209 -1.1661 -0.2241  0.4886
  657MOL0     H88692   9.160   1.080   9.122 -0.9434  2.1359 -1.0349
  657MOL0     H88693   9.387   1.136   9.485 -1.4778  1.1446  0.7889
  657MOL0     H88694   8.668   0.717   9.348 -1.4027 -2.5369  0.5975
  657MOL0     H88695   8.459   0.594   9.378  1.9298 -1.2605 -2.0577
  658MOL0     O88696   3.031   2.031   6.734  0.9493 -0.8057 -0.0896
  658MOL0     C88697   3.051   2.026   6.855  0.0907 -0.4042  0.1656
  658MOL0     O88698   2.960   2.049   6.953 -0.8587 -0.0122 -0.2153
  658MOL0     C88699   2.840   2.107   6.921 -0.0472  0.4479 -0.5724
  658MOL0     C88700   2.728   2.035   6.891 -0.6613 -0.4297  0.2752
  658MOL0     C88701   2.607   2.095   6.849  0.7194 -0.2908  0.1340
  658MOL0     C88702   2.602   2.231   6.847 -0.2045 -0.5116 -0.3336
  658MOL0     O88703   2.489   2.290   6.805  0.3301 -0.0374 -0.1865
  658MOL0     C88704   2.471   2.430   6.813 -1.4148  0.6941 -0.3021
  658MOL0     C88705   2.328   2.452   6.754 -0.0780  1.1425 -0.0484
  658MOL0     C88706   2.215   2.390   6.842 -0.5889  0.2877  0.5926
  658MOL0     C88707   2.080   2.435   6.798  0.4022  0.2537 -0.5738
  658MOL0     C88708   1.969   2.360   6.868  0.9588  0.8016  0.3414
  658MOL0     C88709   1.834   2.435   6.849 -0.1130  0.2454 -0.6509
  658MOL0     C88710   1.835   2.562   6.933  0.3918 -0.8686 -0.7698
  658MOL0     C88711   1.703   2.591   7.003  0.1911  0.5206  0.1772
  658MOL0     N88712   1.601   2.624   6.896  0.0461  0.1966 -0.4764
  658MOL0     C88713   1.489   2.554   6.874  0.4868 -0.6844  0.7262
  658MOL0     C88714   1.438   2.613   6.763 -0.4370  0.9128 -0.5660
  658MOL0     C88715   1.308   2.590   6.698 -0.1285 -1.0061  0.4371
  658MOL0     C88716   1.315   2.449   6.643 -0.2307 -0.5243  0.3599
  658MOL0     C88717   1.191   2.413   6.574 -0.4334 -0.1444  0.0145
  658MOL0     C88718   1.061   2.387   6.659  0.2130 -0.0872 -0.3625
  658MOL0     O88719   1.007   2.504   6.730 -0.2392  0.7722 -0.1887
  658MOL0     C88720   0.901   2.500   6.809 -0.2747  0.0289  0.1948
  658MOL0     C88721   0.825   2.382   6.823  0.3251  0.7545 -0.5556
  658MOL0     C88722   0.718   2.364   6.907  0.0136 -0.4275 -0.1495
  658MOL0     C88723   0.648   2.223   6.925 -0.5847  0.2522 -0.4219
  658MOL0     C88724   0.662   2.477   6.975 -0.4623 -0.4072  0.5421
  658MOL0     C88725   0.540   2.484   7.060 -0.0541 -1.0477  0.3263
  658MOL0     O88726   0.524   2.591   7.139  0.2856  0.0309  0.3080
  658MOL0     C88727   0.419   2.594   7.229 -0.3932  0.3175 -0.3341
  658MOL0     C88728   0.357   2.718   7.252 -0.3447  1.3832  0.6656
  658MOL0     C88729   0.267   2.734   7.358 -0.0180 -0.3559  0.4029
  658MOL0     C88730   0.255   2.635   7.456  0.7201  0.1721 -1.0316
  658MOL0     O88731   0.162   2.637   7.558  0.5659 -0.7699  0.1221
  658MOL0     C88732   0.049   2.711   7.516  0.1259  0.0974  0.7201
  658MOL0     C88733  -0.067   2.674   7.602 -0.6728 -0.2568 -0.5886
  658MOL0     C88734  -0.055   2.701   7.750  0.2665  0.5776 -0.2935
  658MOL0     C88735  -0.111   2.837   7.797  0.0346  0.7121  0.3563
  658MOL0     C88736  -0.111   2.829   7.948  0.0830 -1.3567  0.1652
  658MOL0     C88737  -0.180   2.944   8.024  0.1344  0.9843  0.2715
  658MOL0     C88738  -0.140   3.084   7.992  0.0838 -0.4247  0.2316
  658MOL0     C88739   0.019   3.098   7.995  0.0677 -0.4521 -0.4057
  658MOL0    Cl88740   0.060   3.267   7.966  0.0576  0.1624  0.1360
  658MOL0     C88741   0.321   2.514   7.437 -0.0291  0.3277  0.3058
  658MOL0     C88742   0.403   2.491   7.321 -0.2490  0.1817  0.2233
  658MOL0     O88743   0.455   2.394   7.047 -0.5160  0.0505 -0.4370
  658MOL0     C88744   0.732   2.602   6.961  0.0238 -0.2310  0.1607
  658MOL0     C88745   0.855   2.608   6.877 -1.0196 -0.3215 -0.0444
  658MOL0     N88746   1.523   2.722   6.726 -0.5292  0.0569 -0.1901
  658MOL0     N88747   1.619   2.730   6.814 -0.3515  0.4949 -0.3079
  658MOL0     C88748   2.708   2.308   6.907  0.2035 -0.3187  0.2712
  658MOL0     C88749   2.830   2.245   6.937 -0.1438  0.0996 -0.8315
  658MOL0     C88750   3.194   1.989   6.888 -0.2310  0.1263  0.6212
  658MOL0     C88751   3.225   1.915   7.004  0.6983  0.3469  0.3373
  658MOL0     C88752   3.357   1.882   7.046 -1.1841 -0.9268  0.0792
  658MOL0     C88753   3.459   1.900   6.953  0.6145 -0.5057 -0.1763
  658MOL0     O88754   3.577   1.842   6.995 -0.3837  0.2788 -0.3203
  658MOL0     C88755   3.694   1.853   6.911  0.3292  0.8357  0.0928
  658MOL0     C88756   3.814   1.875   6.999  0.1753  1.0440 -0.3346
  658MOL0     C88757   3.901   1.750   7.018  0.6263  0.7029  0.0337
  658MOL0     C88758   3.850   1.648   7.110  0.2083  0.1905 -0.0195
  658MOL0     C88759   3.946   1.538   7.121 -0.7181 -0.1496 -0.1644
  658MOL0     C88760   4.018   1.437   7.145  0.2738 -0.8202 -0.3668
  658MOL0     C88761   3.431   1.963   6.833 -0.6230 -0.8292  0.5503
  658MOL0     C88762   3.303   2.004   6.799 -1.3720  1.1575 -0.4745
  658MOL0     H88763   2.739   1.928   6.882  1.1281 -0.2891  0.5388
  658MOL0     H88764   2.525   2.032   6.816  0.3069 -0.0747  0.7377
  658MOL0     H88765   2.469   2.463   6.917 -0.5897  1.4833 -0.5249
  658MOL0     H88766   2.549   2.487   6.762 -0.3931  0.5485  1.0479
  658MOL0     H88767   2.314   2.559   6.737 -1.0842  0.8049 -1.5054
  658MOL0     H88768   2.308   2.410   6.655 -2.7108 -0.1013  0.9169
  658MOL0     H88769   2.228   2.282   6.843  2.0657  0.5431  0.9289
  658MOL0     H88770   2.238   2.418   6.945 -0.5722 -2.0847  1.2885
  658MOL0     H88771   2.086   2.537   6.837  0.6259 -0.0406  0.1784
  658MOL0     H88772   2.066   2.426   6.690 -1.6606 -0.8135 -0.2687
  658MOL0     H88773   1.963   2.261   6.822 -0.0572  0.5403  0.9944
  658MOL0     H88774   1.987   2.346   6.975  0.5157  1.0507  0.4518
  658MOL0     H88775   1.832   2.450   6.740  3.2592 -0.3069 -0.8982
  658MOL0     H88776   1.755   2.364   6.871  0.1026  0.3962  0.6916
  658MOL0     H88777   1.914   2.563   7.009 -1.7454 -0.7191  1.5479
  658MOL0     H88778   1.861   2.638   6.859  3.6064 -1.2007 -0.1533
  658MOL0     H88779   1.715   2.687   7.056 -1.0048  1.8935 -1.8934
  658MOL0     H88780   1.666   2.510   7.066 -1.1673  0.0195 -1.2069
  658MOL0     H88781   1.436   2.480   6.935 -1.7428  2.6012  3.1734
  658MOL0     H88782   1.233   2.592   6.777  0.1659  1.0020  0.7241
  658MOL0     H88783   1.279   2.665   6.624 -2.4679 -0.1623  2.0769
  658MOL0     H88784   1.316   2.377   6.726 -0.9741 -1.7485 -0.6444
  658MOL0     H88785   1.396   2.439   6.571 -2.7086  1.1630 -2.9305
  658MOL0     H88786   1.210   2.325   6.511 -1.1440 -0.9835  0.9415
  658MOL0     H88787   1.164   2.486   6.497 -1.1238 -2.8890 -2.5363
  658MOL0     H88788   1.099   2.305   6.720  1.7268  0.5403 -0.4191
  658MOL0     H88789   0.976   2.357   6.597 -1.3984 -2.8912  2.9051
  658MOL0     H88790   0.859   2.286   6.787  3.4540  1.2099  0.8766
  658MOL0     H88791   0.614   2.208   7.028 -2.8076  2.0215 -0.8196
  658MOL0     H88792   0.559   2.234   6.863 -0.2902  4.0574 -0.3764
  658MOL0     H88793   0.715   2.146   6.885 -2.3497 -0.3757 -2.3497
  658MOL0     H88794   0.387   2.798   7.185  0.0249  1.8804  1.4107
  658MOL0     H88795   0.217   2.829   7.372  0.9010  0.2957 -0.5418
  658MOL0     H88796   0.054   2.821   7.519  3.0372  0.0486  1.1796
  658MOL0     H88797   0.016   2.676   7.418  0.9779 -0.1997  0.5299
  658MOL0     H88798  -0.158   2.726   7.568 -0.3104  1.4085  0.8296
  658MOL0     H88799  -0.076   2.567   7.585  0.6516 -0.3590 -0.6933
  658MOL0     H88800   0.049   2.691   7.780 -0.2758  0.7301  1.7673
  658MOL0     H88801  -0.106   2.617   7.797  1.4639 -0.7752 -1.3002
  658MOL0     H88802  -0.045   2.922   7.778  1.0379 -0.7218 -3.3112
  658MOL0     H88803  -0.209   2.849   7.750  0.3298  4.7304  0.3815
  658MOL0     H88804  -0.009   2.824   7.988  0.3802  1.3331 -0.0259
  658MOL0     H88805  -0.156   2.737   7.985 -2.6099 -0.4840 -0.7456
  658MOL0     H88806  -0.288   2.931   8.017  0.1014  0.6392  1.2846
  658MOL0     H88807  -0.167   2.922   8.130 -0.4175 -0.5345  0.0487
  658MOL0     H88808  -0.182   3.148   8.071 -0.3708 -1.5732  0.9428
  658MOL0     H88809  -0.180   3.114   7.894 -0.2319  1.0222  0.7707
  658MOL0     H88810   0.070   3.052   7.910 -0.2712  0.5260 -1.1581
  658MOL0     H88811   0.060   3.073   8.093  1.4786  1.4983 -0.4343
  658MOL0     H88812   0.307   2.434   7.509 -0.1838  0.4493  0.4104
  658MOL0     H88813   0.459   2.401   7.299  0.4825  1.0457 -1.7349
  658MOL0     H88814   0.695   2.696   7.000 -2.0533 -0.2481 -1.5545
  658MOL0     H88815   0.910   2.701   6.867  0.6782 -1.2392  0.3827
  658MOL0     H88816   2.706   2.416   6.915 -0.2283 -0.1089 -1.8514
  658MOL0     H88817   2.916   2.297   6.977  0.4623  0.1124 -2.1119
  658MOL0     H88818   3.148   1.899   7.079 -2.6809  1.0247 -2.6889
  658MOL0     H88819   3.387   1.841   7.142  0.6912 -0.7722 -0.4020
  658MOL0     H88820   3.717   1.760   6.858  3.0714  0.3979  1.8468
  658MOL0     H88821   3.696   1.943   6.848  3.4267  1.2236  0.6054
  658MOL0     H88822   3.781   1.902   7.099 -0.3385  1.7812 -0.6933
  658MOL0     H88823   3.874   1.960   6.964 -0.9839  0.7270 -3.3457
  658MOL0     H88824   3.998   1.779   7.060  0.9815 -0.1525 -0.1667
  658MOL0     H88825   3.922   1.707   6.919  3.5872 -0.2423  0.9671
  658MOL0     H88826   3.757   1.611   7.067  0.8221 -0.4260 -0.8621
  658MOL0     H88827   3.832   1.699   7.205 -0.7239  2.1496 -1.1772
  658MOL0     H88828   4.083   1.352   7.146  1.7589  0.2718 -0.9341
  658MOL0     H88829   3.506   1.983   6.757 -0.8866  1.6410  0.8585
  658MOL0     H88830   3.279   2.051   6.704 -3.7239  1.3760  0.1744
  659MOL0     O88831   1.478   9.326   0.305  0.5356  0.0176 -0.2947
  659MOL0     C88832   1.512   9.205   0.322  0.4846 -0.3812 -0.0251
  659MOL0     O88833   1.432   9.094   0.313  0.3889  0.0449  0.2399
  659MOL0     C88834   1.298   9.083   0.317  0.3919 -0.4723  0.2681
  659MOL0     C88835   1.248   8.951   0.332  0.8183 -0.0818  0.4820
  659MOL0     C88836   1.114   8.919   0.337 -0.1961  0.2025  0.9090
  659MOL0     C88837   1.026   9.017   0.318  0.3031 -0.6076 -0.2295
  659MOL0     O88838   0.895   8.977   0.335 -0.8834 -0.1375  0.4075
  659MOL0     C88839   0.792   9.075   0.359 -0.3289 -0.7507 -0.1986
  659MOL0     C88840   0.660   8.998   0.372  0.0041 -0.0566 -0.0851
  659MOL0     C88841   0.622   8.909   0.257 -0.5527  0.4957 -0.0016
  659MOL0     C88842   0.479   8.881   0.259  1.1632  0.0279 -0.3142
  659MOL0     C88843   0.431   8.775   0.163 -0.7634  0.5282 -0.4172
  659MOL0     C88844   0.289   8.729   0.182 -0.4176 -0.2941 -0.1794
  659MOL0     C88845   0.192   8.839   0.137  0.8879 -0.5015 -0.1579
  659MOL0     C88846   0.056   8.778   0.158 -0.0338  0.1725 -0.4999
  659MOL0     N88847  -0.052   8.875   0.135 -0.4832  0.3479 -0.3992
  659MOL0     C88848  -0.110   8.906   0.016  0.5493 -0.3747 -0.7472
  659MOL0     C88849  -0.209   8.990   0.050  0.6049 -0.3608 -0.5069
  659MOL0     C88850  -0.303   9.040  -0.055 -0.3203 -0.6594  0.1146
  659MOL0     C88851  -0.388   8.932  -0.133  1.2600  0.1808 -0.1778
  659MOL0     C88852  -0.476   8.984  -0.250 -0.0281 -0.4362 -0.0100
  659MOL0     C88853  -0.595   8.894  -0.285  0.4749 -0.0734  0.5874
  659MOL0     O88854  -0.637   8.817  -0.167  0.2519  0.0155 -0.1511
  659MOL0     C88855  -0.731   8.719  -0.177 -0.3376  0.6902 -0.3187
  659MOL0     C88856  -0.777   8.661  -0.296 -0.1785 -0.6461 -0.2121
  659MOL0     C88857  -0.888   8.568  -0.287  0.7949  0.1842 -1.0906
  659MOL0     C88858  -0.940   8.510  -0.419  0.4957 -0.1054 -0.0373
  659MOL0     C88859  -0.944   8.526  -0.156  0.3094  0.6926 -0.4588
  659MOL0     C88860  -1.046   8.420  -0.124 -0.1114  0.0758 -0.7457
  659MOL0     O88861  -1.137   8.436  -0.026 -0.3191 -0.3960  0.7111
  659MOL0     C88862  -1.237   8.347  -0.011 -0.2869  0.1537  0.2703
  659MOL0     C88863  -1.340   8.408   0.066  0.5395 -0.6317  0.1675
  659MOL0     C88864  -1.471   8.349   0.088  0.0626 -0.2350  0.1937
  659MOL0     C88865  -1.485   8.224   0.041  0.0232 -0.5589 -0.3048
  659MOL0     O88866  -1.607   8.173   0.073 -0.0835  0.4521 -0.0833
  659MOL0     C88867  -1.700   8.119  -0.024  0.1548 -0.0405 -1.3768
  659MOL0     C88868  -1.771   8.229  -0.108  0.4702  0.6431  0.4119
  659MOL0     C88869  -1.838   8.174  -0.240  0.0297  0.7741 -0.7759
  659MOL0     C88870  -1.850   8.280  -0.345  0.6918 -0.8556  0.2372
  659MOL0     C88871  -1.945   8.235  -0.451  0.2044  0.1729  0.7526
  659MOL0     C88872  -1.976   8.352  -0.549 -0.2695 -0.8100 -0.5583
  659MOL0     C88873  -2.073   8.322  -0.662 -0.1391  0.8421 -0.4119
  659MOL0     C88874  -2.201   8.258  -0.613 -0.2951 -0.3894 -0.5429
  659MOL0    Cl88875  -2.290   8.238  -0.760  0.0340 -0.2594 -0.0927
  659MOL0     C88876  -1.386   8.157  -0.033 -0.9889  0.0269  1.2883
  659MOL0     C88877  -1.261   8.208  -0.056  0.4755 -0.8345 -1.1335
  659MOL0     O88878  -1.040   8.325  -0.200  0.2795 -0.4634 -0.4048
  659MOL0     C88879  -0.895   8.596  -0.043 -0.1721  1.5675  0.6522
  659MOL0     C88880  -0.794   8.691  -0.059 -0.3199 -0.6479  1.1627
  659MOL0     N88881  -0.197   9.013   0.191 -0.3633  0.9985  0.0435
  659MOL0     N88882  -0.097   8.959   0.238 -0.5183  0.6340 -0.0228
  659MOL0     C88883   1.070   9.152   0.295  0.4042  0.7392 -0.0706
  659MOL0     C88884   1.207   9.185   0.292  0.4401  0.0145  0.0625
  659MOL0     C88885   1.653   9.183   0.355  0.7320 -0.0496 -0.3509
  659MOL0     C88886   1.686   9.074   0.438 -0.3457 -0.5922  0.2008
  659MOL0     C88887   1.819   9.048   0.475  0.6760  0.1403 -0.7478
  659MOL0     C88888   1.922   9.134   0.448  0.3309 -0.2442 -0.0615
  659MOL0     O88889   2.046   9.089   0.491 -0.0463 -0.2533 -0.4868
  659MOL0     C88890   2.167   9.159   0.455  0.4105  0.9415 -0.0995
  659MOL0     C88891   2.193   9.272   0.550 -0.4687  0.3220  0.3027
  659MOL0     C88892   2.297   9.371   0.504  0.0531  0.4855  0.5246
  659MOL0     C88893   2.350   9.451   0.626  0.0264  0.4466 -0.3162
  659MOL0     C88894   2.442   9.373   0.717  0.5450  0.5533 -0.9066
  659MOL0     C88895   2.526   9.313   0.781 -0.8912  0.8610 -1.0909
  659MOL0     C88896   1.891   9.243   0.366  0.3644 -0.3579  0.0132
  659MOL0     C88897   1.759   9.274   0.319 -1.1006  0.2087 -0.4988
  659MOL0     H88898   1.311   8.863   0.338 -0.0875 -0.8755 -1.1304
  659MOL0     H88899   1.091   8.814   0.343  1.9451 -0.3325  0.8090
  659MOL0     H88900   0.817   9.130   0.450  2.9706  3.0432 -3.0512
  659MOL0     H88901   0.786   9.147   0.277 -1.3911  1.1150  1.4222
  659MOL0     H88902   0.678   8.928   0.454  0.6793 -0.6641 -0.7246
  659MOL0     H88903   0.584   9.073   0.395 -0.1362  0.1177 -1.0461
  659MOL0     H88904   0.655   8.965   0.169  2.6905  0.1426  0.8682
  659MOL0     H88905   0.685   8.819   0.260 -0.8218  0.1888  4.9163
  659MOL0     H88906   0.455   8.848   0.361  2.5776 -5.4918 -1.4353
  659MOL0     H88907   0.425   8.975   0.244  1.4218  0.2062 -0.1454
  659MOL0     H88908   0.445   8.816   0.063  1.2776  1.1329  0.0566
  659MOL0     H88909   0.488   8.683   0.178 -0.7888  0.4345 -0.8893
  659MOL0     H88910   0.273   8.648   0.110 -0.6542 -0.2813 -0.1423
  659MOL0     H88911   0.269   8.690   0.282 -1.3881  1.5932  0.3994
  659MOL0     H88912   0.203   8.924   0.205 -0.6751  0.3322 -0.9147
  659MOL0     H88913   0.192   8.864   0.031 -1.6500  0.3828 -0.0179
  659MOL0     H88914   0.043   8.741   0.260  0.9225 -0.8433 -0.7231
  659MOL0     H88915   0.046   8.685   0.101 -0.3957  0.5468 -1.0546
  659MOL0     H88916  -0.078   8.874  -0.083  2.2087  1.2717 -0.7920
  659MOL0     H88917  -0.370   9.106   0.001 -0.3456 -1.1897  0.7299
  659MOL0     H88918  -0.244   9.105  -0.119  1.0266 -3.2522 -1.4162
  659MOL0     H88919  -0.456   8.892  -0.057 -2.6556  3.0408 -1.8245
  659MOL0     H88920  -0.322   8.852  -0.167  0.7222 -1.1943  1.7891
  659MOL0     H88921  -0.413   8.998  -0.338  0.0249  3.2870  0.4627
  659MOL0     H88922  -0.525   9.077  -0.220  0.7106  1.2503 -3.5535
  659MOL0     H88923  -0.564   8.817  -0.357 -0.0261  0.5951 -0.3754
  659MOL0     H88924  -0.681   8.944  -0.331 -0.0523 -0.0602  1.5667
  659MOL0     H88925  -0.734   8.687  -0.392 -2.4435 -4.1114 -2.3872
  659MOL0     H88926  -0.919   8.587  -0.493 -1.4317  0.0635 -0.4806
  659MOL0     H88927  -0.880   8.423  -0.447  0.0919 -0.5163  0.3404
  659MOL0     H88928  -1.046   8.480  -0.422  0.7937 -2.7319  4.7210
  659MOL0     H88929  -1.320   8.505   0.111 -1.8143  0.8019 -1.6316
  659MOL0     H88930  -1.553   8.393   0.144 -0.6460 -0.3853 -0.6906
  659MOL0     H88931  -1.650   8.053  -0.095  0.0273  2.4463 -3.9401
  659MOL0     H88932  -1.772   8.060   0.033  1.1498  0.2759  0.2918
  659MOL0     H88933  -1.854   8.279  -0.058 -1.2674  0.1570 -1.8067
  659MOL0     H88934  -1.697   8.310  -0.109  2.4074 -1.0428 -0.2225
  659MOL0     H88935  -1.937   8.132  -0.218  0.5373 -1.4511 -2.3594
  659MOL0     H88936  -1.782   8.090  -0.282  0.7780  1.3148 -0.8660
  659MOL0     H88937  -1.900   8.365  -0.297  0.0567 -0.3445 -1.2925
  659MOL0     H88938  -1.749   8.315  -0.369  1.8197 -3.0199  1.4620
  659MOL0     H88939  -2.039   8.195  -0.411  0.9286 -0.9236  1.4164
  659MOL0     H88940  -1.897   8.160  -0.515 -0.2206 -0.4182  1.1041
  659MOL0     H88941  -2.027   8.427  -0.488  1.7866  1.3663 -1.3431
  659MOL0     H88942  -1.886   8.392  -0.598 -0.2803 -0.8372 -0.6004
  659MOL0     H88943  -2.025   8.263  -0.740  3.9134  2.9150  0.2303
  659MOL0     H88944  -2.104   8.415  -0.710 -1.3320  1.1997  0.9858
  659MOL0     H88945  -2.252   8.329  -0.546  0.8370 -0.9373  0.9372
  659MOL0     H88946  -2.180   8.166  -0.558  1.0848  0.6958  0.8236
  659MOL0     H88947  -1.408   8.067  -0.090  1.6224 -0.8068  1.4549
  659MOL0     H88948  -1.186   8.160  -0.119  1.9531 -3.1291  2.0828
  659MOL0     H88949  -0.937   8.587   0.057  2.0847 -0.9287  1.5222
  659MOL0     H88950  -0.773   8.752   0.028  1.4153 -0.1346  0.4258
  659MOL0     H88951   0.992   9.227   0.288 -2.0221 -1.5504  0.5176
  659MOL0     H88952   1.239   9.288   0.274 -0.4779  0.6419  1.7360
  659MOL0     H88953   1.610   9.012   0.484  0.3041 -0.3734  1.6274
  659MOL0     H88954   1.849   8.970   0.544 -0.5968 -0.5412 -0.9485
  659MOL0     H88955   2.249   9.091   0.475  0.9136  0.7877 -2.4384
  659MOL0     H88956   2.167   9.175   0.347  0.2051  0.8261 -0.1180
  659MOL0     H88957   2.220   9.233   0.649  2.6852 -1.5523 -1.1472
  659MOL0     H88958   2.100   9.326   0.571 -0.0055  0.7106  1.4583
  659MOL0     H88959   2.241   9.438   0.439 -0.5984  0.9326  1.5187
  659MOL0     H88960   2.377   9.322   0.448 -0.0747 -1.3795  1.8582
  659MOL0     H88961   2.267   9.492   0.685  1.1370  1.6289  0.5047
  659MOL0     H88962   2.409   9.537   0.592 -1.4913  2.3570  1.5684
  659MOL0     H88963   2.589   9.255   0.845 -1.2682  1.1481 -0.4467
  659MOL0     H88964   1.963   9.323   0.349 -0.9928  1.5377  2.5401
  659MOL0     H88965   1.737   9.364   0.263  2.3090  1.9699  0.6847
  660MOL0     O88966  10.951   5.579   0.175 -0.3617  0.0532 -0.5317
  660MOL0     C88967  11.039   5.529   0.238 -0.6948 -0.2311 -1.0944
  660MOL0     O88968  11.027   5.425   0.324 -0.2425  0.7271 -0.5746
  660MOL0     C88969  10.897   5.382   0.350 -0.0069  0.0736 -0.1738
  660MOL0     C88970  10.808   5.327   0.257  0.1180 -0.0374  1.2494
  660MOL0     C88971  10.672   5.300   0.294 -0.3087 -0.9591  1.0446
  660MOL0     C88972  10.634   5.326   0.432 -0.2439  0.7863  0.5187
  660MOL0     O88973  10.503   5.304   0.470  0.1109  0.0092 -0.0317
  660MOL0     C88974  10.401   5.372   0.387 -0.6463 -0.2383 -0.1356
  660MOL0     C88975  10.262   5.398   0.448 -0.7395 -0.1174  0.9182
  660MOL0     C88976  10.190   5.275   0.474 -0.4092  0.4285 -0.4150
  660MOL0     C88977  10.234   5.207   0.605 -1.0927 -0.2800  0.0769
  660MOL0     C88978  10.133   5.086   0.645  0.3299 -0.2668  1.1819
  660MOL0     C88979  10.179   5.010   0.767 -1.2795  1.2859 -0.6271
  660MOL0     C88980  10.096   4.879   0.807 -0.7830  0.4820 -0.5145
  660MOL0     C88981   9.945   4.905   0.804  0.1529  0.7615 -0.0267
  660MOL0     N88982   9.868   4.791   0.850  0.0960 -0.2491  0.4909
  660MOL0     C88983   9.872   4.663   0.797  0.1586 -0.2259 -0.3540
  660MOL0     C88984   9.760   4.603   0.844 -0.2075  0.2660  0.1660
  660MOL0     C88985   9.715   4.462   0.813 -0.8307  0.5374  0.3211
  660MOL0     C88986   9.571   4.442   0.853 -0.0446  0.0931  0.1423
  660MOL0     C88987   9.510   4.323   0.781 -1.3070  0.3666 -0.4414
  660MOL0     C88988   9.361   4.306   0.810  1.0232  0.5793  0.3281
  660MOL0     O88989   9.306   4.201   0.736  0.8169  1.0422  0.1145
  660MOL0     C88990   9.197   4.117   0.783 -0.2246  0.2086 -0.8588
  660MOL0     C88991   9.200   3.981   0.765 -0.3065  0.3235  0.5779
  660MOL0     C88992   9.096   3.900   0.805 -0.9664  0.2522 -0.1754
  660MOL0     C88993   9.099   3.761   0.750  1.5740 -0.9317 -1.3523
  660MOL0     C88994   8.988   3.955   0.882 -0.4470  0.6530  0.1562
  660MOL0     C88995   8.859   3.883   0.912 -0.5844 -0.0817  0.2550
  660MOL0     O88996   8.737   3.945   0.917 -0.7076  0.2334  0.4625
  660MOL0     C88997   8.620   3.891   0.936  0.7201  0.5871  0.2719
  660MOL0     C88998   8.579   3.767   0.884  0.0524 -0.6154  0.1406
  660MOL0     C88999   8.445   3.731   0.880  0.4431 -1.4569 -0.0572
  660MOL0     C89000   8.346   3.833   0.909  0.2408  0.4858  0.1732
  660MOL0     O89001   8.212   3.798   0.901  0.0834 -1.0898 -0.5471
  660MOL0     C89002   8.106   3.891   0.876  0.0328  0.5815  0.0936
  660MOL0     C89003   7.974   3.815   0.881  0.7181  0.4528  0.3111
  660MOL0     C89004   7.848   3.900   0.851 -0.4396 -0.3724 -0.0294
  660MOL0     C89005   7.726   3.819   0.853 -0.0027 -0.0474 -0.1312
  660MOL0     C89006   7.609   3.911   0.819 -0.0186 -0.5341  0.2797
  660MOL0     C89007   7.487   3.825   0.863 -0.3133 -0.3105 -0.1844
  660MOL0     C89008   7.350   3.900   0.849 -0.3399  0.2480 -0.6791
  660MOL0     C89009   7.234   3.798   0.810 -0.6238 -0.0921 -0.0011
  660MOL0    Cl89010   7.086   3.887   0.823 -0.2471  0.7205  0.4024
  660MOL0     C89011   8.386   3.952   0.964 -0.7053  0.8997  0.3973
  660MOL0     C89012   8.521   3.981   0.975 -0.4843 -0.1545  0.2766
  660MOL0     O89013   8.873   3.763   0.950  0.6747  0.5946  0.2267
  660MOL0     C89014   8.992   4.089   0.906  0.0257  0.7152 -0.4095
  660MOL0     C89015   9.096   4.171   0.856  0.0225  0.3850 -0.2844
  660MOL0     N89016   9.686   4.694   0.922 -0.6509  0.5491  0.7284
  660MOL0     N89017   9.758   4.803   0.924 -0.2443 -0.3826  0.1429
  660MOL0     C89018  10.734   5.368   0.517 -0.6081  0.1440 -0.1383
  660MOL0     C89019  10.860   5.399   0.479 -0.6388 -1.2100  0.4459
  660MOL0     C89020  11.183   5.590   0.223  0.2242  0.1530  0.4623
  660MOL0     C89021  11.211   5.693   0.132 -0.3412  0.7104  0.3054
  660MOL0     C89022  11.346   5.739   0.118 -0.3931 -0.1422  0.0926
  660MOL0     C89023  11.451   5.705   0.205 -0.0858 -0.0108 -0.0621
  660MOL0     O89024  11.579   5.745   0.195  0.2369  0.1562  0.4028
  660MOL0     C89025  11.600   5.863   0.121  0.3771 -0.9681 -0.4933
  660MOL0     C89026  11.753   5.904   0.110  0.7444  0.3129  0.6124
  660MOL0     C89027  11.829   5.892   0.237 -0.4294 -0.0389 -0.2759
  660MOL0     C89028  11.982   5.905   0.224  0.0176  0.2032  0.3374
  660MOL0     C89029  12.018   6.029   0.154 -0.3159  0.1316 -0.0001
  660MOL0     C89030  12.059   6.126   0.099 -0.9423 -0.2306  0.1831
  660MOL0     C89031  11.428   5.596   0.294  0.1047  0.6971  0.2979
  660MOL0     C89032  11.301   5.546   0.294  0.7676 -0.1989  0.6100
  660MOL0     H89033  10.847   5.306   0.158  1.5781 -2.5029  2.2512
  660MOL0     H89034  10.610   5.267   0.211 -0.5574 -0.0420  0.8587
  660MOL0     H89035  10.446   5.465   0.352 -1.1631  0.5690  1.2369
  660MOL0     H89036  10.383   5.306   0.302 -0.0409 -1.5987  0.7456
  660MOL0     H89037  10.267   5.464   0.534 -1.5093  1.5116 -0.2326
  660MOL0     H89038  10.214   5.449   0.363  1.2004  0.5353  0.1704
  660MOL0     H89039  10.084   5.295   0.495 -0.2049 -0.0777  1.2204
  660MOL0     H89040  10.205   5.199   0.396  1.3336  0.1016  0.1994
  660MOL0     H89041  10.332   5.161   0.588 -2.5266 -3.2764 -0.8683
  660MOL0     H89042  10.240   5.268   0.695 -2.2077 -0.1485  0.0755
  660MOL0     H89043  10.045   5.143   0.676  0.8091 -0.0683  2.2128
  660MOL0     H89044  10.107   5.025   0.558 -0.3480  1.0200  0.4577
  660MOL0     H89045  10.286   4.988   0.758 -1.4285  1.0055 -2.0007
  660MOL0     H89046  10.162   5.083   0.847  1.1355 -0.2582  1.4340
  660MOL0     H89047  10.129   4.804   0.735 -0.6080 -0.5429  0.6079
  660MOL0     H89048  10.127   4.838   0.904  0.0870  1.9111 -0.1523
  660MOL0     H89049   9.916   4.915   0.699  1.0786  0.9194 -0.2797
  660MOL0     H89050   9.916   4.995   0.859 -0.4135  2.4461 -2.8753
  660MOL0     H89051   9.954   4.603   0.760 -0.5109 -1.5671  0.2610
  660MOL0     H89052   9.729   4.433   0.709  0.1363 -2.1479  1.0952
  660MOL0     H89053   9.776   4.392   0.873 -2.8316  0.1625  2.0488
  660MOL0     H89054   9.514   4.528   0.815 -2.7929 -1.5768  0.1800
  660MOL0     H89055   9.562   4.424   0.960 -3.2566 -1.8467 -0.3167
  660MOL0     H89056   9.567   4.235   0.812  1.9935  2.1328 -0.9973
  660MOL0     H89057   9.512   4.330   0.672 -1.1463  1.4732 -0.3808
  660MOL0     H89058   9.314   4.399   0.779  3.0270  1.5889  0.1516
  660MOL0     H89059   9.336   4.306   0.917 -1.3493  2.8701 -0.1316
  660MOL0     H89060   9.282   3.943   0.705 -0.2872  2.5201 -0.9172
  660MOL0     H89061   9.106   3.686   0.830 -0.3819 -0.4923 -0.7164
  660MOL0     H89062   9.014   3.730   0.689 -1.1815  2.1041  0.6036
  660MOL0     H89063   9.183   3.741   0.684  0.6656 -2.9196 -1.9875
  660MOL0     H89064   8.659   3.699   0.854  0.0513 -0.5111 -0.0955
  660MOL0     H89065   8.408   3.637   0.841 -0.2172 -1.0622 -0.4159
  660MOL0     H89066   8.098   3.962   0.958  0.3862  1.9259 -0.9994
  660MOL0     H89067   8.122   3.944   0.782 -3.2666  0.4544 -0.6692
  660MOL0     H89068   7.982   3.734   0.809  5.8378  0.0660  0.9155
  660MOL0     H89069   7.963   3.778   0.983  1.0561  0.8301  0.4869
  660MOL0     H89070   7.868   3.953   0.758  0.1441  0.2763  0.4460
  660MOL0     H89071   7.840   3.967   0.937 -2.4617  2.0060 -1.9343
  660MOL0     H89072   7.736   3.737   0.781  0.5578 -1.6850  1.7370
  660MOL0     H89073   7.722   3.785   0.957 -1.5999  0.4062 -0.0225
  660MOL0     H89074   7.611   3.942   0.715 -0.3269  0.3796  0.5386
  660MOL0     H89075   7.607   4.003   0.879  1.4825  0.5987 -1.3144
  660MOL0     H89076   7.479   3.731   0.807  0.3188  1.2053 -3.0520
  660MOL0     H89077   7.512   3.800   0.966 -0.3614 -1.8801 -0.5340
  660MOL0     H89078   7.353   3.984   0.779  2.7320  2.1857  1.5183
  660MOL0     H89079   7.328   3.932   0.952 -1.4377 -2.5168  0.0444
  660MOL0     H89080   7.222   3.722   0.888  2.4695 -1.0697 -0.3453
  660MOL0     H89081   7.245   3.761   0.708  1.8140  0.8794 -0.1814
  660MOL0     H89082   8.311   4.027   0.989 -0.4700  1.6543 -1.0327
  660MOL0     H89083   8.554   4.083   0.994 -0.1598 -0.0550 -0.7336
  660MOL0     H89084   8.915   4.131   0.970  0.1999  1.0708 -0.4356
  660MOL0     H89085   9.093   4.277   0.877 -2.0712  0.3662 -0.2923
  660MOL0     H89086  10.718   5.399   0.620 -0.8194  0.3389 -0.2277
  660MOL0     H89087  10.935   5.418   0.556 -0.7631 -2.0199  0.7807
  660MOL0     H89088  11.134   5.726   0.064  1.2903  0.5607 -1.6938
  660MOL0     H89089  11.366   5.802   0.032  0.6808 -1.3104 -0.5499
  660MOL0     H89090  11.559   5.845   0.022 -1.8090  1.2084 -0.0866
  660MOL0     H89091  11.539   5.942   0.167 -1.9715 -2.2746 -1.1894
  660MOL0     H89092  11.764   6.005   0.071  2.5342  0.8170  2.2765
  660MOL0     H89093  11.799   5.833   0.040  0.0192  1.3586 -1.0006
  660MOL0     H89094  11.814   5.792   0.279 -0.0297  0.8333  2.0850
  660MOL0     H89095  11.786   5.959   0.311  3.5231  1.6467  0.7589
  660MOL0     H89096  12.011   5.814   0.169 -3.5927 -0.3909 -0.8570
  660MOL0     H89097  12.024   5.911   0.324 -2.2176  0.7070  1.2998
  660MOL0     H89098  12.087   6.220   0.056 -0.5265 -0.5726 -0.3065
  660MOL0     H89099  11.501   5.548   0.359 -0.7606 -3.4852 -1.4946
  660MOL0     H89100  11.273   5.474   0.371  2.0158 -1.0299  0.3278
  661MOL0     O89101   2.982   6.336   7.896 -0.3414  0.0132 -0.3601
  661MOL0     C89102   2.910   6.421   7.840 -0.4074  0.0586  0.2536
  661MOL0     O89103   2.772   6.430   7.838 -0.2185  0.6662 -0.2900
  661MOL0     C89104   2.699   6.345   7.919 -0.4112  0.5297 -0.2141
  661MOL0     C89105   2.726   6.210   7.966 -0.1380  0.7019  0.7994
  661MOL0     C89106   2.635   6.127   8.034 -0.1978  0.0573 -0.9006
  661MOL0     C89107   2.516   6.185   8.080  0.8386 -0.2592 -0.5976
  661MOL0     O89108   2.409   6.128   8.149 -0.1197  0.3598  0.2152
  661MOL0     C89109   2.432   5.984   8.172  0.1258 -0.2606  0.6492
  661MOL0     C89110   2.308   5.944   8.236 -0.3116 -0.0823  0.2704
  661MOL0     C89111   2.185   5.941   8.133 -0.0297 -0.3852 -0.6745
  661MOL0     C89112   2.074   5.855   8.187 -0.5129  1.4711 -0.4723
  661MOL0     C89113   2.000   5.919   8.306 -0.2238 -0.7557  0.1347
  661MOL0     C89114   1.899   5.822   8.362  0.3184 -0.0185 -0.1136
  661MOL0     C89115   1.759   5.811   8.306 -0.2789 -0.2786  0.1452
  661MOL0     C89116   1.669   5.938   8.331 -0.0207 -0.1475  0.6658
  661MOL0     N89117   1.533   5.902   8.297 -0.2373  0.4621 -0.0623
  661MOL0     C89118   1.445   5.980   8.238 -0.1958 -0.6582  0.0322
  661MOL0     C89119   1.331   5.910   8.228 -0.3034 -0.0946 -0.1523
  661MOL0     C89120   1.206   5.971   8.191 -0.6724 -0.4339  1.0204
  661MOL0     C89121   1.190   5.979   8.039 -0.0858  1.2434  0.8169
  661MOL0     C89122   1.069   6.046   7.986 -0.3531 -0.5240 -0.5069
  661MOL0     C89123   1.022   6.016   7.846 -0.4706  0.2073 -0.3457
  661MOL0     O89124   0.882   6.043   7.847 -0.2807 -0.4720 -0.1734
  661MOL0     C89125   0.793   5.977   7.765 -0.1920  0.8847 -0.6621
  661MOL0     C89126   0.671   6.043   7.735 -0.2179 -0.2074  0.8156
  661MOL0     C89127   0.567   5.975   7.668 -0.3344  0.0089  0.5563
  661MOL0     C89128   0.436   6.057   7.666  0.1812 -0.0226  0.2965
  661MOL0     C89129   0.571   5.832   7.636  0.1593 -0.8232 -0.4191
  661MOL0     C89130   0.458   5.766   7.580  0.0630  0.3140  0.6836
  661MOL0     O89131   0.463   5.639   7.605  0.8924 -0.0152  0.1348
  661MOL0     C89132   0.363   5.553   7.554 -0.0403 -0.2900  0.6228
  661MOL0     C89133   0.266   5.492   7.634 -0.3109 -0.7181  0.4448
  661MOL0     C89134   0.167   5.417   7.575 -0.0425  0.0728  0.3777
  661MOL0     C89135   0.173   5.378   7.435  0.4499  0.3410  0.2704
  661MOL0     O89136   0.090   5.293   7.360  0.3308 -0.0590  0.7718
  661MOL0     C89137  -0.027   5.227   7.411 -0.0065 -0.3418 -0.6383
  661MOL0     C89138  -0.154   5.291   7.359 -0.0842  0.3112  0.2066
  661MOL0     C89139  -0.160   5.444   7.343 -0.9716  0.4216  0.2355
  661MOL0     C89140  -0.277   5.484   7.259 -0.1372 -1.1349  0.6061
  661MOL0     C89141  -0.420   5.456   7.321  0.0447 -0.7085  0.3948
  661MOL0     C89142  -0.529   5.467   7.212 -0.1441  0.5491 -0.2797
  661MOL0     C89143  -0.657   5.465   7.296 -0.5419 -0.2806 -0.1070
  661MOL0     C89144  -0.772   5.428   7.221 -0.6525  0.2440  0.3949
  661MOL0    Cl89145  -0.806   5.550   7.092 -0.0031 -0.4730 -0.1833
  661MOL0     C89146   0.282   5.432   7.353 -0.6622 -0.3521  0.4586
  661MOL0     C89147   0.373   5.523   7.415  0.3813  0.5791  0.9347
  661MOL0     O89148   0.371   5.817   7.512 -0.3819 -0.5811 -0.4515
  661MOL0     C89149   0.698   5.771   7.665  0.5440 -0.0336  0.0389
  661MOL0     C89150   0.799   5.843   7.725 -0.5846  0.3686  0.5833
  661MOL0     N89151   1.350   5.785   8.285 -0.2182 -0.0960  0.0302
  661MOL0     N89152   1.472   5.781   8.322  0.5325 -0.4698  0.7088
  661MOL0     C89153   2.486   6.316   8.028  0.0103  0.0102 -0.4485
  661MOL0     C89154   2.573   6.388   7.948  0.4291 -0.6785  0.3028
  661MOL0     C89155   2.975   6.521   7.753  0.3891 -1.0308  0.1233
  661MOL0     C89156   2.894   6.629   7.713  0.3881 -0.0935 -0.7970
  661MOL0     C89157   2.952   6.737   7.642 -0.2691 -0.0846 -0.3123
  661MOL0     C89158   3.083   6.733   7.596  0.1652  0.2393  0.7906
  661MOL0     O89159   3.150   6.848   7.551  0.3743  0.9073  1.0526
  661MOL0     C89160   3.074   6.966   7.532 -0.1953 -0.3172  0.2836
  661MOL0     C89161   3.012   6.957   7.393  0.2530  0.3147 -0.6540
  661MOL0     C89162   2.937   7.086   7.351  0.0424  0.5355  1.0384
  661MOL0     C89163   2.845   7.132   7.467  0.1418 -0.6094  0.0265
  661MOL0     C89164   2.744   7.027   7.499 -0.3719 -0.0169 -0.3199
  661MOL0     C89165   2.677   6.930   7.527  0.4539  0.0142  0.8606
  661MOL0     C89166   3.160   6.622   7.639  0.5645  0.0390 -0.0689
  661MOL0     C89167   3.113   6.514   7.713  0.2989 -0.4537 -0.2805
  661MOL0     H89168   2.820   6.160   7.944 -1.2821 -1.2997  0.2294
  661MOL0     H89169   2.652   6.026   8.072 -2.3546 -0.4590 -1.2051
  661MOL0     H89170   2.438   5.926   8.079 -0.8977  1.5556 -0.6005
  661MOL0     H89171   2.520   5.978   8.238 -0.6047 -0.7380  1.5981
  661MOL0     H89172   2.324   5.844   8.277 -1.3183 -0.2617  0.2635
  661MOL0     H89173   2.284   6.014   8.317 -1.3321  3.1835 -2.5742
  661MOL0     H89174   2.151   6.043   8.112  0.9249  0.0980  0.0326
  661MOL0     H89175   2.221   5.903   8.037  0.0091  1.9968 -1.6827
  661MOL0     H89176   2.017   5.830   8.097  1.1663 -1.0727 -0.9309
  661MOL0     H89177   2.124   5.761   8.211  3.8507  3.5423 -0.3077
  661MOL0     H89178   2.081   5.926   8.380  0.2728 -0.1040 -0.4470
  661MOL0     H89179   1.964   6.020   8.284 -3.4392 -1.3985  1.9417
  661MOL0     H89180   1.944   5.723   8.374 -0.0467 -0.4862 -2.1606
  661MOL0     H89181   1.884   5.846   8.467  1.2485  1.4305 -0.2792
  661MOL0     H89182   1.770   5.792   8.199  0.3970 -0.8681  0.3103
  661MOL0     H89183   1.725   5.721   8.357  1.1878 -0.5369  0.7227
  661MOL0     H89184   1.712   6.025   8.281  0.5212 -0.3675  0.7428
  661MOL0     H89185   1.670   5.960   8.438  2.0518 -0.7009  0.7955
  661MOL0     H89186   1.466   6.078   8.196 -1.3374 -0.3401  0.1698
  661MOL0     H89187   1.123   5.910   8.229 -3.0157  1.8157 -0.1513
  661MOL0     H89188   1.199   6.074   8.227  1.8365 -0.4828  1.8616
  661MOL0     H89189   1.186   5.873   8.014 -0.7109  1.8288 -1.9253
  661MOL0     H89190   1.286   6.012   7.998  0.1145  2.7774  2.3975
  661MOL0     H89191   1.092   6.153   7.992  0.3255 -0.7266  1.0021
  661MOL0     H89192   0.998   6.032   8.068  0.7039 -0.8596  0.3827
  661MOL0     H89193   1.043   5.910   7.826  0.6770  0.4582 -0.5581
  661MOL0     H89194   1.075   6.070   7.768  0.1847 -1.3955 -1.0645
  661MOL0     H89195   0.661   6.147   7.762 -3.6063 -0.4970  1.0362
  661MOL0     H89196   0.388   6.042   7.568  2.0890  1.0965 -0.8753
  661MOL0     H89197   0.375   6.028   7.752 -0.9205  0.2224 -0.3795
  661MOL0     H89198   0.452   6.165   7.671 -2.5556  0.5489 -1.0968
  661MOL0     H89199   0.251   5.523   7.737  2.1716  1.8209  0.1894
  661MOL0     H89200   0.090   5.384   7.643 -1.5836 -0.1095 -1.3895
  661MOL0     H89201  -0.021   5.118   7.409  0.1480 -0.3255 -1.2127
  661MOL0     H89202  -0.033   5.262   7.514  2.4216  0.9663 -0.8745
  661MOL0     H89203  -0.180   5.243   7.264  1.7230 -0.8340  0.2473
  661MOL0     H89204  -0.233   5.275   7.433  1.0446  0.8216  1.5642
  661MOL0     H89205  -0.073   5.478   7.285  0.2223 -1.6286  0.7468
  661MOL0     H89206  -0.151   5.495   7.439  1.7660  1.8204 -0.6378
  661MOL0     H89207  -0.260   5.589   7.233  1.9003 -1.2258  1.3814
  661MOL0     H89208  -0.266   5.436   7.161 -0.8183  1.0849 -0.6251
  661MOL0     H89209  -0.430   5.524   7.406  2.1451 -3.0449  2.6732
  661MOL0     H89210  -0.420   5.355   7.362 -2.4198 -1.1826 -0.5712
  661MOL0     H89211  -0.524   5.564   7.162 -1.3849  0.3128 -0.9191
  661MOL0     H89212  -0.524   5.388   7.136 -1.7690  1.1856 -1.0799
  661MOL0     H89213  -0.669   5.564   7.339 -1.0115  0.0032 -0.8830
  661MOL0     H89214  -0.655   5.395   7.381 -3.1174 -0.9903 -0.5585
  661MOL0     H89215  -0.863   5.416   7.281 -0.0115  0.2824  1.3912
  661MOL0     H89216  -0.756   5.328   7.180  1.3519  1.0946 -1.0711
  661MOL0     H89217   0.288   5.396   7.251 -1.0693 -0.5951  0.5149
  661MOL0     H89218   0.449   5.563   7.349 -1.5826 -0.0295 -1.8785
  661MOL0     H89219   0.706   5.665   7.643  1.2488 -0.2189  1.0928
  661MOL0     H89220   0.889   5.784   7.743 -0.6442 -0.4154 -1.4338
  661MOL0     H89221   2.382   6.342   8.046  0.2907 -0.3381  2.0092
  661MOL0     H89222   2.551   6.485   7.906  1.6184 -1.4037 -2.1348
  661MOL0     H89223   2.793   6.644   7.748 -0.1271 -3.6045 -0.3457
  661MOL0     H89224   2.893   6.825   7.620 -0.4712  0.1605  1.1446
  661MOL0     H89225   2.990   6.974   7.602 -1.6119 -4.2770 -0.6844
  661MOL0     H89226   3.134   7.056   7.547 -0.0432  0.1724 -2.7667
  661MOL0     H89227   2.936   6.880   7.407 -1.4745  2.3340  2.0578
  661MOL0     H89228   3.089   6.930   7.320  1.0204  0.5759  0.0409
  661MOL0     H89229   2.871   7.078   7.264 -0.4628  1.7048  1.2988
  661MOL0     H89230   3.017   7.152   7.317  0.9995 -0.4700  1.2847
  661MOL0     H89231   2.783   7.214   7.429  0.6180  1.2139  2.8667
  661MOL0     H89232   2.901   7.183   7.547  2.8172  1.4508 -2.9101
  661MOL0     H89233   2.620   6.844   7.555  1.2353 -1.2557 -1.1778
  661MOL0     H89234   3.264   6.616   7.609  0.6685  2.6136 -0.4150
  661MOL0     H89235   3.180   6.431   7.736  1.2940  0.6240  0.8286
  662MOL0     O89236   8.536   9.151  10.222  0.2575 -0.1082 -0.5378
  662MOL0     C89237   8.575   9.207  10.120  0.5978 -0.0107  0.3751
  662MOL0     O89238   8.662   9.158  10.024  0.2492  0.2815  0.5369
  662MOL0     C89239   8.701   9.023  10.031  0.3359 -0.9916  0.2695
  662MOL0     C89240   8.839   9.007  10.056  0.7159 -0.5808 -0.7115
  662MOL0     C89241   8.894   8.888  10.073 -0.0730 -0.0647 -0.2183
  662MOL0     C89242   8.816   8.776  10.065  0.1053  0.1762  0.0973
  662MOL0     O89243   8.871   8.651  10.082  0.4492 -0.7514  0.4729
  662MOL0     C89244   8.998   8.631  10.007  0.0485  0.8782 -0.3417
  662MOL0     C89245   9.101   8.590  10.102 -0.7436  0.1560 -0.2197
  662MOL0     C89246   9.245   8.576  10.058  0.3205  0.6168 -0.5716
  662MOL0     C89247   9.254   8.448   9.980  0.7180 -0.3305  0.1760
  662MOL0     C89248   9.396   8.428   9.944 -0.0449 -0.4952  0.2344
  662MOL0     C89249   9.407   8.290   9.869  0.2054 -0.7666  0.2112
  662MOL0     C89250   9.538   8.280   9.795  0.2039  0.6710 -0.3148
  662MOL0     C89251   9.557   8.148   9.727  0.7447  0.0813 -0.3091
  662MOL0     N89252   9.441   8.102   9.649  0.1114  0.6704  0.6375
  662MOL0     C89253   9.342   8.014   9.678 -0.0554  0.2040 -0.1712
  662MOL0     C89254   9.276   7.997   9.559 -0.2374 -0.4143 -0.2911
  662MOL0     C89255   9.172   7.894   9.527 -0.5065 -0.5706  1.2810
  662MOL0     C89256   9.065   7.937   9.427  0.4164 -0.5294  0.3868
  662MOL0     C89257   8.936   7.857   9.435  0.0262 -0.6707  1.3620
  662MOL0     C89258   8.952   7.707   9.431 -0.2771  0.1581  0.0294
  662MOL0     O89259   8.831   7.637   9.400  0.4440 -0.1004  0.4979
  662MOL0     C89260   8.744   7.591   9.498 -0.9546 -0.2105  0.4664
  662MOL0     C89261   8.754   7.625   9.628 -0.3451  0.6465 -0.5848
  662MOL0     C89262   8.676   7.561   9.732  0.0917 -0.7890  0.1259
  662MOL0     C89263   8.707   7.595   9.874 -0.0465 -0.0403 -0.4240
  662MOL0     C89264   8.567   7.476   9.693 -0.6426 -0.0687  0.4577
  662MOL0     C89265   8.474   7.416   9.784  0.1543  0.4865 -1.0617
  662MOL0     O89266   8.382   7.337   9.731 -0.3349  0.0090 -0.7822
  662MOL0     C89267   8.349   7.222   9.792 -0.2195  1.2462  0.3041
  662MOL0     C89268   8.396   7.099   9.735  0.4128 -0.3082  1.0711
  662MOL0     C89269   8.348   6.973   9.773  0.3688 -0.6629  0.0192
  662MOL0     C89270   8.262   6.970   9.887 -0.6282  0.0577 -0.7583
  662MOL0     O89271   8.237   6.858   9.957 -0.0821  0.1334  0.4872
  662MOL0     C89272   8.178   6.747   9.884  0.0406  0.3722 -0.6473
  662MOL0     C89273   8.038   6.767   9.811  0.3182 -0.1037  0.0324
  662MOL0     C89274   7.969   6.642   9.754 -0.7116  0.5695  0.6908
  662MOL0     C89275   7.844   6.622   9.821  0.6518  0.1584  0.1174
  662MOL0     C89276   7.738   6.702   9.735 -0.1528 -0.0022  0.0828
  662MOL0     C89277   7.618   6.724   9.811 -0.7066  0.2258  0.4367
  662MOL0     C89278   7.515   6.792   9.725  0.1849  0.4754 -0.7485
  662MOL0     C89279   7.409   6.877   9.798  0.1643  0.6956 -0.0721
  662MOL0    Cl89280   7.351   6.809   9.954 -0.2984  0.1663 -0.0138
  662MOL0     C89281   8.221   7.087   9.952  0.0996 -0.3783 -0.4523
  662MOL0     C89282   8.262   7.214   9.902  0.2868  0.3314  0.4064
  662MOL0     O89283   8.466   7.446   9.903 -0.4285  0.1454 -0.1169
  662MOL0     C89284   8.564   7.442   9.553 -0.2043  0.0967 -0.2738
  662MOL0     C89285   8.643   7.499   9.456 -0.3922  0.4865 -0.1536
  662MOL0     N89286   9.330   8.079   9.468  0.8827 -0.8167  0.3869
  662MOL0     N89287   9.427   8.141   9.515 -0.7885  0.0217 -0.5512
  662MOL0     C89288   8.681   8.786  10.038  0.3264 -1.6885 -0.3944
  662MOL0     C89289   8.622   8.909  10.022 -0.2835  0.6889 -0.9348
  662MOL0     C89290   8.503   9.329  10.082 -0.4477 -0.0914 -0.3820
  662MOL0     C89291   8.417   9.397  10.166 -0.4203 -0.2782  0.3001
  662MOL0     C89292   8.352   9.512  10.119  0.0810 -0.5115  0.0280
  662MOL0     C89293   8.366   9.555   9.990 -0.2529 -0.9868  0.4005
  662MOL0     O89294   8.307   9.672   9.960 -0.6015  0.0365  0.7822
  662MOL0     C89295   8.277   9.709   9.831  0.5258  1.0530  0.5387
  662MOL0     C89296   8.212   9.848   9.831 -0.2595  0.4503 -0.5525
  662MOL0     C89297   8.226   9.915   9.703  0.1542 -0.2640  0.3799
  662MOL0     C89298   8.164  10.055   9.698 -0.1088 -0.5559  0.0558
  662MOL0     C89299   8.011  10.054   9.694 -1.0433 -0.0701 -0.0071
  662MOL0     C89300   7.895  10.049   9.684  0.0709  0.0855  0.2817
  662MOL0     C89301   8.452   9.488   9.903  0.1387  0.5637  0.1692
  662MOL0     C89302   8.513   9.370   9.951  0.2582  0.2279  0.7004
  662MOL0     H89303   8.908   9.090  10.068  0.0407  0.1043 -1.4467
  662MOL0     H89304   9.001   8.885  10.094 -0.0608  0.5374 -0.1621
  662MOL0     H89305   8.989   8.532   9.960  0.2500  0.8507 -0.3230
  662MOL0     H89306   9.016   8.705   9.929  0.7991  1.2378  0.1658
  662MOL0     H89307   9.104   8.673  10.173  0.8437  0.3212 -0.4400
  662MOL0     H89308   9.071   8.500  10.157 -1.1470  1.5559  1.9932
  662MOL0     H89309   9.277   8.667  10.005  0.0659  1.0091 -0.0518
  662MOL0     H89310   9.299   8.564  10.152 -1.4958 -1.1335  0.3082
  662MOL0     H89311   9.210   8.365  10.036 -1.1090  0.0281 -0.6618
  662MOL0     H89312   9.190   8.472   9.895  2.3462  2.7619 -0.3190
  662MOL0     H89313   9.435   8.504   9.876  0.6274  0.1033  1.2662
  662MOL0     H89314   9.464   8.418  10.029 -1.6414  0.8568  1.7517
  662MOL0     H89315   9.389   8.213   9.944 -1.9155  0.1539  0.7155
  662MOL0     H89316   9.324   8.282   9.798  0.9371  0.5265 -0.8436
  662MOL0     H89317   9.552   8.360   9.722 -2.3478  0.4939 -1.0859
  662MOL0     H89318   9.617   8.279   9.871 -0.8138  0.4151  0.7682
  662MOL0     H89319   9.607   8.078   9.795  1.0485  0.9703  0.4115
  662MOL0     H89320   9.641   8.164   9.659  0.5978  0.0173 -0.5057
  662MOL0     H89321   9.325   7.938   9.754  1.2693 -1.3780 -1.3904
  662MOL0     H89322   9.222   7.804   9.491  0.2027  0.4323 -0.3514
  662MOL0     H89323   9.133   7.875   9.628 -0.2978  0.0934  1.4915
  662MOL0     H89324   9.098   7.933   9.323  2.2705  2.3559  0.7365
  662MOL0     H89325   9.033   8.040   9.446 -2.3711 -1.4197  0.9075
  662MOL0     H89326   8.876   7.887   9.349  2.5763 -1.2173 -0.7165
  662MOL0     H89327   8.875   7.886   9.521 -1.0162  0.9423  0.1236
  662MOL0     H89328   8.997   7.664   9.520 -3.1922 -2.5902  0.3571
  662MOL0     H89329   9.024   7.687   9.350 -0.9967 -1.8608 -0.1734
  662MOL0     H89330   8.824   7.704   9.651  0.4012 -0.4228  0.9792
  662MOL0     H89331   8.804   7.646   9.879  0.0525 -0.3707  2.0706
  662MOL0     H89332   8.646   7.663   9.933  1.5174  0.8945  0.1857
  662MOL0     H89333   8.721   7.508   9.938 -0.2092  0.2647  0.0263
  662MOL0     H89334   8.454   7.111   9.644  0.2585  3.1184  1.2733
  662MOL0     H89335   8.363   6.895   9.700  0.2481  2.2404 -3.3835
  662MOL0     H89336   8.253   6.720   9.809  0.6785 -0.1312  0.1600
  662MOL0     H89337   8.171   6.666   9.956  1.0601  0.3032 -0.6120
  662MOL0     H89338   7.989   6.809   9.900 -1.1739  0.5466 -1.0641
  662MOL0     H89339   8.035   6.846   9.735  2.4201 -0.0742 -0.0994
  662MOL0     H89340   8.024   6.549   9.774  1.1504  0.9189 -2.1461
  662MOL0     H89341   7.953   6.645   9.646  4.4625  2.8162 -0.3248
  662MOL0     H89342   7.817   6.517   9.814  0.0663  0.3842 -1.5886
  662MOL0     H89343   7.855   6.647   9.926  0.7721 -0.0465  0.1529
  662MOL0     H89344   7.716   6.650   9.642  0.3322 -0.2636  0.1110
  662MOL0     H89345   7.786   6.796   9.707  2.9170 -1.9600 -1.7617
  662MOL0     H89346   7.569   6.635   9.850 -5.1987  2.0189 -0.4964
  662MOL0     H89347   7.642   6.786   9.898 -2.0663  0.4346  0.6860
  662MOL0     H89348   7.469   6.715   9.663  0.1091  1.5299 -2.0625
  662MOL0     H89349   7.565   6.855   9.650  1.0978  0.9621  0.2341
  662MOL0     H89350   7.329   6.896   9.727  1.2344  0.0247 -1.5179
  662MOL0     H89351   7.462   6.968   9.827  2.1954  0.3013 -2.1939
  662MOL0     H89352   8.163   7.087  10.044  0.7362  3.8056  0.1459
  662MOL0     H89353   8.219   7.305   9.945  0.3867  0.3358  0.4977
  662MOL0     H89354   8.492   7.372   9.512  3.2853 -1.1470 -5.1633
  662MOL0     H89355   8.635   7.461   9.355 -0.4722  1.0784 -0.3701
  662MOL0     H89356   8.626   8.694  10.050  0.4274 -1.7828 -0.6376
  662MOL0     H89357   8.516   8.913   9.998  0.1604  0.6638 -3.0819
  662MOL0     H89358   8.388   9.352  10.260  0.0794 -1.1709  0.0424
  662MOL0     H89359   8.283   9.574  10.176 -0.6781  0.7670 -2.1753
  662MOL0     H89360   8.365   9.700   9.767  0.5949  0.2473  0.7251
  662MOL0     H89361   8.213   9.630   9.790  1.9127 -0.7726  1.7005
  662MOL0     H89362   8.261   9.911   9.907 -1.8281  0.1500  0.7617
  662MOL0     H89363   8.110   9.837   9.868 -0.0401 -4.2723 -0.8344
  662MOL0     H89364   8.207   9.843   9.623  1.5669 -1.6974  1.2651
  662MOL0     H89365   8.335   9.928   9.695  0.7093 -3.3331  1.6585
  662MOL0     H89366   8.196  10.110   9.609  0.2412 -0.4946  0.2209
  662MOL0     H89367   8.194  10.114   9.785  0.9631  0.2334 -0.8294
  662MOL0     H89368   7.788  10.052   9.686  0.0794  0.9589  1.6237
  662MOL0     H89369   8.477   9.530   9.806 -0.1964 -1.9237 -1.0569
  662MOL0     H89370   8.569   9.325   9.870  1.8796  1.2975  1.1763
  663MOL0     O89371   5.255   9.965  10.874  0.3746  0.2928 -0.3633
  663MOL0     C89372   5.275   9.925  10.761  0.6796  0.4603  0.5911
  663MOL0     O89373   5.226   9.976  10.646 -0.4629  0.4953 -0.5287
  663MOL0     C89374   5.149  10.081  10.664  0.6925  0.5696 -0.5006
  663MOL0     C89375   5.015  10.068  10.707  0.2895  0.1712  0.1480
  663MOL0     C89376   4.939  10.185  10.720 -0.6077 -0.3618 -0.0991
  663MOL0     C89377   4.985  10.319  10.712 -0.4317  0.9568 -0.1843
  663MOL0     O89378   4.910  10.432  10.733  0.3959  0.3906 -0.0994
  663MOL0     C89379   4.777  10.422  10.790  0.4320 -0.0843 -0.2588
  663MOL0     C89380   4.713  10.546  10.751  0.1759  0.5630 -0.6574
  663MOL0     C89381   4.564  10.545  10.802  1.2068 -0.1592  0.3675
  663MOL0     C89382   4.474  10.636  10.715 -0.3517  0.7407 -0.7675
  663MOL0     C89383   4.331  10.628  10.757 -0.5683 -0.7180  0.8384
  663MOL0     C89384   4.306  10.691  10.888 -0.2594  0.4575  0.3084
  663MOL0     C89385   4.340  10.845  10.899 -0.2387  0.7474 -0.4427
  663MOL0     C89386   4.258  10.923  11.006 -0.9342  0.6754  0.3275
  663MOL0     N89387   4.289  10.879  11.140 -0.1567 -0.0270  0.4950
  663MOL0     C89388   4.393  10.906  11.221 -0.4561 -0.1724  0.4598
  663MOL0     C89389   4.395  10.820  11.320  0.3546  0.4576 -0.0038
  663MOL0     C89390   4.500  10.815  11.417 -0.0473 -0.3059  0.1917
  663MOL0     C89391   4.635  10.760  11.366 -0.0420  0.4739 -0.6793
  663MOL0     C89392   4.618  10.626  11.309  0.2069  0.1230  0.0677
  663MOL0     C89393   4.739  10.560  11.258 -0.3084 -0.3645  0.3430
  663MOL0     O89394   4.826  10.508  11.356 -0.5841 -0.4635  0.1451
  663MOL0     C89395   4.950  10.473  11.320 -0.0655 -0.3875 -1.3574
  663MOL0     C89396   5.047  10.451  11.417  0.3843  0.3673 -0.0885
  663MOL0     C89397   5.182  10.402  11.391  0.9430  0.5459  0.7996
  663MOL0     C89398   5.274  10.358  11.506 -0.5865 -0.3108  0.4355
  663MOL0     C89399   5.204  10.366  11.260 -0.0142 -1.0251  0.3622
  663MOL0     C89400   5.341  10.346  11.206 -0.3424 -0.2115  0.5029
  663MOL0     O89401   5.362  10.265  11.102  0.1192  1.3765 -0.5182
  663MOL0     C89402   5.473  10.203  11.076  0.9685 -0.4679 -1.0152
  663MOL0     C89403   5.563  10.160  11.169  0.1074 -0.3479 -0.1167
  663MOL0     C89404   5.670  10.076  11.131 -0.3994  0.2175 -0.4251
  663MOL0     C89405   5.697  10.045  10.995 -1.0014 -0.6839 -0.1493
  663MOL0     O89406   5.811   9.970  10.965  0.2120 -0.1640  0.7084
  663MOL0     C89407   5.843   9.948  10.827 -0.0381 -0.0575  0.6916
  663MOL0     C89408   5.951   9.851  10.837  0.2558  0.4822  0.5864
  663MOL0     C89409   6.080   9.913  10.906 -0.6177 -0.4498  0.2549
  663MOL0     C89410   6.134  10.022  10.810  0.7572 -0.5708 -0.9160
  663MOL0     C89411   6.292  10.034  10.830  0.3854  0.4612 -0.3716
  663MOL0     C89412   6.350  10.120  10.712 -0.3549 -1.3310 -0.0749
  663MOL0     C89413   6.507  10.092  10.731 -0.2233  0.1105  0.5060
  663MOL0     C89414   6.588  10.162  10.632 -0.2479 -0.4387  0.0942
  663MOL0    Cl89415   6.627  10.319  10.702 -0.2174  0.7726  0.0231
  663MOL0     C89416   5.610  10.095  10.905 -0.7910 -1.0173  0.2809
  663MOL0     C89417   5.493  10.167  10.942  0.3404  0.3771  0.4722
  663MOL0     O89418   5.437  10.406  11.263  0.5783 -0.6339  0.7938
  663MOL0     C89419   5.108  10.378  11.165  1.3859  0.0203  0.4187
  663MOL0     C89420   4.984  10.431  11.188  0.6574  0.0288  0.1895
  663MOL0     N89421   4.297  10.726  11.300 -0.5686  0.4320  0.1393
  663MOL0     N89422   4.235  10.765  11.192 -0.1569 -0.6098 -0.4420
  663MOL0     C89423   5.118  10.330  10.671 -0.4647  0.2003 -0.9275
  663MOL0     C89424   5.198  10.213  10.645  0.2652 -0.2762 -0.1583
  663MOL0     C89425   5.383   9.826  10.745  0.4122  0.2615  0.8988
  663MOL0     C89426   5.463   9.789  10.844 -0.0962  0.3903  0.0304
  663MOL0     C89427   5.571   9.707  10.841  0.4666  0.4334  0.5224
  663MOL0     C89428   5.611   9.657  10.715  0.6051  0.0666 -0.5122
  663MOL0     O89429   5.715   9.568  10.717  0.3495 -0.6012 -0.2410
  663MOL0     C89430   5.768   9.515  10.594 -0.3258  0.5142  0.0738
  663MOL0     C89431   5.882   9.422  10.615 -0.4078  0.5292  0.2305
  663MOL0     C89432   5.995   9.481  10.681 -0.7159 -0.0697 -0.1882
  663MOL0     C89433   5.989   9.488  10.834  0.3276 -0.0710  0.2567
  663MOL0     C89434   6.117   9.490  10.904 -0.1012  0.3407 -0.1249
  663MOL0     C89435   6.216   9.502  10.974  0.0839 -1.2285  0.0799
  663MOL0     C89436   5.538   9.695  10.600 -0.4504 -0.5826  0.0678
  663MOL0     C89437   5.421   9.770  10.618  0.0336 -0.0255  0.2244
  663MOL0     H89438   4.953   9.982  10.729 -0.4797  0.2221 -1.6267
  663MOL0     H89439   4.843  10.169  10.767 -1.3704  1.0046 -1.1326
  663MOL0     H89440   4.714  10.344  10.747  0.3459 -0.0088 -0.2675
  663MOL0     H89441   4.782  10.414  10.899 -2.1279 -1.4774 -0.1683
  663MOL0     H89442   4.764  10.632  10.795 -1.6283  0.4414  1.8773
  663MOL0     H89443   4.708  10.565  10.644  1.5846  0.3665 -0.7794
  663MOL0     H89444   4.524  10.443  10.796  1.1058 -0.0714 -0.6230
  663MOL0     H89445   4.564  10.572  10.908 -2.6239  0.3374  0.3789
  663MOL0     H89446   4.515  10.737  10.725  0.1404  0.4746 -0.0342
  663MOL0     H89447   4.474  10.595  10.614 -3.2055  0.4594 -0.7518
  663MOL0     H89448   4.274  10.679  10.679 -0.7430 -0.6080  1.0389
  663MOL0     H89449   4.292  10.528  10.735  1.0554 -0.4915 -4.7032
  663MOL0     H89450   4.200  10.678  10.910 -0.0024  0.7279  1.7899
  663MOL0     H89451   4.339  10.633  10.975 -1.2300  2.2693  1.9445
  663MOL0     H89452   4.447  10.864  10.914 -0.7145  2.4524  1.1308
  663MOL0     H89453   4.303  10.893  10.808 -1.2639  3.0733  1.1174
  663MOL0     H89454   4.154  10.899  10.983 -1.4492  2.5720  0.5420
  663MOL0     H89455   4.271  11.031  10.992 -1.4968  0.9614  1.8083
  663MOL0     H89456   4.457  10.994  11.216  1.9516 -1.5461  3.6668
  663MOL0     H89457   4.510  10.920  11.447 -0.7260 -0.3047  0.4338
  663MOL0     H89458   4.473  10.756  11.505 -0.1188 -1.1885 -0.4152
  663MOL0     H89459   4.706  10.773  11.448 -1.9159  1.3991  0.8982
  663MOL0     H89460   4.671  10.829  11.290 -2.0995 -0.6711 -2.8171
  663MOL0     H89461   4.539  10.627  11.234 -1.2255 -1.2485  1.4882
  663MOL0     H89462   4.574  10.556  11.381 -0.0026 -1.1793 -1.2779
  663MOL0     H89463   4.785  10.626  11.184  0.8525 -0.6116  0.8203
  663MOL0     H89464   4.709  10.475  11.196  1.4783  0.4318 -1.7621
  663MOL0     H89465   5.013  10.462  11.520 -3.6745 -2.2841 -0.9090
  663MOL0     H89466   5.377  10.389  11.486 -0.3446 -1.7600 -0.7460
  663MOL0     H89467   5.257  10.416  11.597  4.3079  2.1411  0.1095
  663MOL0     H89468   5.263  10.253  11.536  1.8854 -0.3315  1.4568
  663MOL0     H89469   5.563  10.183  11.275  0.0232  0.6518 -0.3166
  663MOL0     H89470   5.737  10.028  11.201 -0.2202  1.4106  0.2453
  663MOL0     H89471   5.760   9.901  10.773 -0.4941  0.2281  1.1392
  663MOL0     H89472   5.873  10.035  10.768  3.5669 -0.0735  2.2933
  663MOL0     H89473   5.928   9.767  10.903  4.1890 -0.3221  1.2007
  663MOL0     H89474   5.969   9.797  10.744 -2.3676  0.3887  0.0689
  663MOL0     H89475   6.155   9.837  10.932 -1.0706 -0.1922  2.4322
  663MOL0     H89476   6.048   9.952  11.003 -0.4235 -1.2556  0.6582
  663MOL0     H89477   6.129   9.995  10.704  0.7521 -0.3431 -0.9760
  663MOL0     H89478   6.085  10.118  10.833 -0.6997 -0.9895 -2.0992
  663MOL0     H89479   6.335   9.934  10.825  1.2955  0.7727  0.7470
  663MOL0     H89480   6.325  10.071  10.928  0.3482 -0.6887  0.0838
  663MOL0     H89481   6.306  10.081  10.620 -1.9583 -0.9831  0.5133
  663MOL0     H89482   6.330  10.227  10.723  0.2904 -1.1965 -0.1906
  663MOL0     H89483   6.523   9.989  10.699 -0.9276  0.0457  0.3330
  663MOL0     H89484   6.542  10.103  10.834  0.8393 -1.0946  0.2978
  663MOL0     H89485   6.535  10.173  10.537  0.3156  0.5415 -0.1197
  663MOL0     H89486   6.676  10.099  10.619 -0.2822 -0.5947  0.5858
  663MOL0     H89487   5.623  10.083  10.798 -0.6553  0.2816  0.1303
  663MOL0     H89488   5.417  10.196  10.871 -0.8314  2.0430  2.3134
  663MOL0     H89489   5.129  10.357  11.060  1.6936  1.3888  0.1923
  663MOL0     H89490   4.914  10.439  11.105  0.5629  1.9413  0.4112
  663MOL0     H89491   5.162  10.424  10.639 -0.8778 -0.2429 -2.9620
  663MOL0     H89492   5.305  10.215  10.626 -0.1124 -1.0019 -2.6875
  663MOL0     H89493   5.444   9.845  10.935 -2.6888  0.6523 -0.6033
  663MOL0     H89494   5.637   9.672  10.919 -1.4736 -1.2119  1.5091
  663MOL0     H89495   5.688   9.452  10.552  0.0615 -0.3397  0.5881
  663MOL0     H89496   5.794   9.601  10.532 -2.4289  0.1212 -1.4888
  663MOL0     H89497   5.922   9.382  10.522  0.9279 -1.6748  1.6814
  663MOL0     H89498   5.851   9.338  10.678  0.3586  0.8517  1.0645
  663MOL0     H89499   6.012   9.580  10.638 -1.1551  0.5378  0.9862
  663MOL0     H89500   6.085   9.422  10.662 -1.5138 -1.0699 -0.9130
  663MOL0     H89501   5.922   9.413  10.877 -3.2305  1.3437 -2.3296
  663MOL0     H89502   5.943   9.585  10.855  2.0626  0.4728  1.8613
  663MOL0     H89503   6.296   9.523  11.041 -1.4721 -0.9375  1.9358
  663MOL0     H89504   5.577   9.668  10.502  1.5589  2.0770  0.0123
  663MOL0     H89505   5.375   9.802  10.525  0.7228 -4.3676 -1.8868
  664MOL0     O89506   6.446  10.439  10.254  0.6721  0.1403 -0.3341
  664MOL0     C89507   6.496  10.335  10.208 -1.0467  0.2908  0.1189
  664MOL0     O89508   6.432  10.236  10.147  0.2580 -0.1655  0.1699
  664MOL0     C89509   6.306  10.260  10.103  0.5165  0.3972 -0.3803
  664MOL0     C89510   6.271  10.207   9.979 -0.7070  1.0260 -0.2041
  664MOL0     C89511   6.139  10.214   9.931 -0.5346  0.3945 -0.7352
  664MOL0     C89512   6.032  10.262  10.014  0.3542  0.0916 -0.0529
  664MOL0     O89513   5.903  10.287   9.977  0.3372  0.5280 -0.2133
  664MOL0     C89514   5.856  10.211   9.863 -0.1975 -0.1587 -0.0834
  664MOL0     C89515   5.714  10.173   9.884 -0.1202  0.2845  0.3616
  664MOL0     C89516   5.621  10.297   9.869 -0.1139  0.4825  0.1770
  664MOL0     C89517   5.489  10.276   9.937  0.0487  0.5560 -0.0999
  664MOL0     C89518   5.408  10.403   9.910 -0.2900  0.0638 -0.8198
  664MOL0     C89519   5.257  10.376   9.924 -0.4796  0.7447  0.3290
  664MOL0     C89520   5.154  10.494   9.884  0.8101  0.2466 -0.1243
  664MOL0     C89521   5.147  10.586  10.004 -0.1420 -0.9925 -0.0694
  664MOL0     N89522   5.120  10.726   9.971 -0.4181  0.7435 -0.2278
  664MOL0     C89523   4.990  10.783   9.960 -0.4077  0.8308 -0.0808
  664MOL0     C89524   5.007  10.913   9.944  0.6671 -0.4439 -0.6704
  664MOL0     C89525   4.908  11.022   9.944  0.2220 -1.4441  0.2188
  664MOL0     C89526   4.863  11.080  10.079 -0.4877 -0.5851  0.5954
  664MOL0     C89527   4.755  11.186  10.057 -0.6806 -0.4311 -0.3741
  664MOL0     C89528   4.751  11.275  10.184  0.3595  0.2922 -0.5194
  664MOL0     O89529   4.618  11.323  10.180 -0.6349 -0.1430  0.2883
  664MOL0     C89530   4.556  11.363  10.303  0.5147 -0.2619  1.5218
  664MOL0     C89531   4.623  11.439  10.402  0.1980 -0.6503  1.1554
  664MOL0     C89532   4.551  11.485  10.515 -0.2472  0.4206 -0.4158
  664MOL0     C89533   4.636  11.552  10.614 -0.1885  0.0049 -0.4362
  664MOL0     C89534   4.412  11.457  10.526  0.5072 -0.2550  0.5805
  664MOL0     C89535   4.328  11.512  10.644  0.2595  0.8735  0.4754
  664MOL0     O89536   4.192  11.487  10.644  0.0284 -0.4117  0.3079
  664MOL0     C89537   4.102  11.554  10.722 -0.8551  0.0897 -0.1353
  664MOL0     C89538   3.980  11.495  10.727 -0.5082 -0.4287  0.4240
  664MOL0     C89539   3.865  11.543  10.788 -1.0000  0.7481 -1.1391
  664MOL0     C89540   3.883  11.650  10.879  0.5041  0.4270 -0.0607
  664MOL0     O89541   3.781  11.697  10.965  0.5439  0.1796 -0.5794
  664MOL0     C89542   3.647  11.657  10.930 -0.5050  0.4268 -0.6206
  664MOL0     C89543   3.544  11.748  11.005 -0.3125  1.0952  0.3497
  664MOL0     C89544   3.396  11.714  10.998 -0.0301  0.0890 -0.0564
  664MOL0     C89545   3.313  11.813  11.073  0.1685 -0.0681  0.6724
  664MOL0     C89546   3.171  11.765  11.060  0.0744 -0.9626 -0.8863
  664MOL0     C89547   3.076  11.864  11.129 -0.9606  0.6327 -0.5747
  664MOL0     C89548   2.931  11.825  11.122 -0.1424  0.0114  0.3127
  664MOL0     C89549   2.836  11.947  11.139  0.2038  0.2923  0.3174
  664MOL0    Cl89550   2.665  11.880  11.149 -0.2157 -0.0337  0.4347
  664MOL0     C89551   4.011  11.714  10.883  0.2035  0.3328  0.0375
  664MOL0     C89552   4.119  11.675  10.806  0.2862  0.3253  0.0937
  664MOL0     O89553   4.393  11.557  10.739 -0.2614  0.3326 -0.2155
  664MOL0     C89554   4.349  11.391  10.420 -0.4302  0.1192  0.9362
  664MOL0     C89555   4.414  11.336  10.314 -0.3240 -0.9689  0.5356
  664MOL0     N89556   5.142  10.938   9.953  0.0911  0.1423  0.2980
  664MOL0     N89557   5.207  10.822   9.971 -0.7077 -0.7320  0.2951
  664MOL0     C89558   6.065  10.303  10.144  0.4897  0.4180 -0.8438
  664MOL0     C89559   6.192  10.302  10.187 -0.4204 -0.6190  0.6520
  664MOL0     C89560   6.643  10.316  10.228  0.7774 -0.2780  0.0584
  664MOL0     C89561   6.702  10.368  10.339  0.0277  0.0533  0.0199
  664MOL0     C89562   6.836  10.336  10.357  0.0412  0.0912 -0.6352
  664MOL0     C89563   6.909  10.258  10.266  0.2075 -0.3486 -0.3900
  664MOL0     O89564   7.040  10.237  10.288  0.8808 -0.2426  0.1963
  664MOL0     C89565   7.115  10.363  10.292  0.2981  0.5095 -0.4973
  664MOL0     C89566   7.184  10.379  10.162 -0.3505  0.2899 -0.5545
  664MOL0     C89567   7.288  10.261  10.142  0.4879 -0.5553  0.2888
  664MOL0     C89568   7.346  10.266  10.002  0.7373 -0.2130  0.7406
  664MOL0     C89569   7.267  10.175   9.917  0.1922  0.0295  0.3926
  664MOL0     C89570   7.212  10.108   9.827  0.6406 -0.2827 -0.2794
  664MOL0     C89571   6.854  10.217  10.153 -0.0310 -0.6301  0.4969
  664MOL0     C89572   6.719  10.247  10.128 -1.0005  0.3125 -0.5764
  664MOL0     H89573   6.355  10.172   9.920 -0.7248 -0.7201  0.7587
  664MOL0     H89574   6.117  10.175   9.832 -1.7162 -0.1244 -0.2814
  664MOL0     H89575   5.863  10.255   9.763  0.2778 -0.7474 -0.3193
  664MOL0     H89576   5.909  10.115   9.867  0.5881  0.2981  0.4922
  664MOL0     H89577   5.690  10.095   9.811 -1.1251 -0.6362  1.6169
  664MOL0     H89578   5.695  10.127   9.981  0.7851 -3.5249 -1.0883
  664MOL0     H89579   5.661  10.390   9.909  0.6961 -0.6657  2.1615
  664MOL0     H89580   5.600  10.301   9.761 -2.1427  1.8089  0.5729
  664MOL0     H89581   5.435  10.186   9.907 -0.5306  0.8490  0.0599
  664MOL0     H89582   5.513  10.255  10.042  1.2798 -0.1450 -0.5016
  664MOL0     H89583   5.438  10.484   9.977 -1.0812 -1.1164  1.0318
  664MOL0     H89584   5.418  10.449   9.811 -2.0693  2.8420  0.1778
  664MOL0     H89585   5.234  10.292   9.858  1.1919  2.2652 -2.3597
  664MOL0     H89586   5.249  10.334  10.025 -0.5078  1.2683  0.5487
  664MOL0     H89587   5.176  10.538   9.786  0.4134  1.9775  0.5278
  664MOL0     H89588   5.056  10.447   9.886  1.3917 -0.9970  0.4402
  664MOL0     H89589   5.247  10.586  10.047 -1.1533  1.8376  2.5990
  664MOL0     H89590   5.082  10.539  10.078 -1.1375  2.7499  1.6692
  664MOL0     H89591   4.897  10.729   9.972  0.4260 -0.3550  1.4087
  664MOL0     H89592   4.952  11.101   9.883 -1.3742 -1.5333 -1.1262
  664MOL0     H89593   4.814  10.986   9.898 -0.6557  0.7199  0.2158
  664MOL0     H89594   4.952  11.129  10.118 -0.6158  0.4541 -0.3554
  664MOL0     H89595   4.832  10.999  10.146 -4.0389  0.8850  1.0084
  664MOL0     H89596   4.658  11.137  10.045 -2.1282  2.6631 -2.8955
  664MOL0     H89597   4.783  11.230   9.960  2.5200 -1.4548 -0.0456
  664MOL0     H89598   4.813  11.365  10.188  1.4609 -0.4848  2.4351
  664MOL0     H89599   4.776  11.216  10.273 -2.5364 -1.0947 -0.4938
  664MOL0     H89600   4.728  11.464  10.388  0.0132 -1.5544 -3.3332
  664MOL0     H89601   4.741  11.552  10.581  0.1873  2.6407  0.5138
  664MOL0     H89602   4.609  11.650  10.652 -1.0251 -0.7400  0.9664
  664MOL0     H89603   4.632  11.485  10.700  1.2854 -0.2347 -0.5251
  664MOL0     H89604   3.972  11.399  10.677  3.1630 -0.1503 -1.0032
  664MOL0     H89605   3.777  11.480  10.798 -0.2030 -0.1628  0.7803
  664MOL0     H89606   3.631  11.661  10.822  0.3191 -0.6681 -0.8003
  664MOL0     H89607   3.624  11.554  10.960  3.5616 -1.0650 -2.0424
  664MOL0     H89608   3.572  11.742  11.110  1.6029 -1.8436 -0.1826
  664MOL0     H89609   3.564  11.843  10.956  1.4467  0.5548 -0.0600
  664MOL0     H89610   3.368  11.611  11.024 -0.5288  0.1347 -0.3943
  664MOL0     H89611   3.366  11.726  10.894  1.5235 -1.5363 -0.7638
  664MOL0     H89612   3.336  11.825  11.179 -2.9539 -1.9420  1.7148
  664MOL0     H89613   3.329  11.910  11.025  0.3009 -0.9257 -1.0744
  664MOL0     H89614   3.165  11.673  11.118  1.9800 -0.3769  0.3495
  664MOL0     H89615   3.140  11.747  10.957 -1.8505 -1.0682 -0.3315
  664MOL0     H89616   3.100  11.859  11.236 -2.6620  0.6526 -0.1727
  664MOL0     H89617   3.093  11.961  11.083  1.2137  0.1416 -0.9162
  664MOL0     H89618   2.914  11.757  11.206  1.6029  1.2557  1.7573
  664MOL0     H89619   2.907  11.766  11.033  1.6207 -2.0819  1.1240
  664MOL0     H89620   2.843  12.017  11.055  3.0170 -1.3005 -0.9176
  664MOL0     H89621   2.863  12.002  11.230 -0.2150  1.0592 -0.0138
  664MOL0     H89622   4.017  11.804  10.944  1.6976 -0.1766  0.6810
  664MOL0     H89623   4.206  11.740  10.804 -0.1391  0.8981 -1.5069
  664MOL0     H89624   4.240  11.387  10.418 -0.5376  0.7650  2.8208
  664MOL0     H89625   4.361  11.283  10.236  0.0854  0.3749 -0.6831
  664MOL0     H89626   5.987  10.339  10.211 -0.4540 -1.5502 -0.8035
  664MOL0     H89627   6.204  10.324  10.292  0.7474 -1.8712  0.8126
  664MOL0     H89628   6.647  10.420  10.416  0.4828 -1.1262  1.1783
  664MOL0     H89629   6.896  10.375  10.440 -0.5786 -0.0739 -0.0988
  664MOL0     H89630   7.065  10.459  10.311  3.6620  2.0272  1.7513
  664MOL0     H89631   7.201  10.355  10.360 -0.2966  0.3248  0.2353
  664MOL0     H89632   7.231  10.477  10.154 -1.8667  0.9733 -1.7750
  664MOL0     H89633   7.115  10.369  10.078 -0.0233 -5.0614 -0.5322
  664MOL0     H89634   7.232  10.169  10.162 -0.5562  0.3253  1.6157
  664MOL0     H89635   7.371  10.269  10.214  1.3480 -0.9876 -0.6332
  664MOL0     H89636   7.445  10.221  10.010  0.7420 -0.4953 -0.7489
  664MOL0     H89637   7.360  10.364   9.956 -2.1570 -1.6442 -3.8056
  664MOL0     H89638   7.163  10.063   9.743 -2.7572  1.3433  0.6843
  664MOL0     H89639   6.911  10.189  10.065 -1.0173  2.2990 -1.2094
  664MOL0     H89640   6.670  10.206  10.041 -0.9868 -2.6729  0.7111
  665MOL0     O89641   1.273  10.375   0.451  0.3617 -0.0229 -0.1980
  665MOL0     C89642   1.362  10.330   0.382 -0.2617 -0.8303  1.2778
  665MOL0     O89643   1.351  10.229   0.290 -0.8727  0.4667  0.1870
  665MOL0     C89644   1.237  10.166   0.277 -0.1440  0.4019 -0.2196
  665MOL0     C89645   1.125  10.232   0.236 -0.3771 -0.5638  0.1781
  665MOL0     C89646   1.009  10.160   0.200 -0.4300 -0.3874  0.7177
  665MOL0     C89647   1.001  10.018   0.215 -0.4255  0.2365 -0.0139
  665MOL0     O89648   0.888   9.941   0.202  0.4717  0.4454 -0.1015
  665MOL0     C89649   0.763   9.990   0.154  0.4687 -0.4180 -0.2270
  665MOL0     C89650   0.661   9.880   0.169 -0.6840  0.7527 -0.0937
  665MOL0     C89651   0.524   9.934   0.145  0.2144  0.0441  0.4660
  665MOL0     C89652   0.418   9.831   0.182 -0.3153  0.1124 -0.7745
  665MOL0     C89653   0.277   9.883   0.159  0.2799  0.2885  0.0544
  665MOL0     C89654   0.167   9.785   0.213  0.3536 -0.6825  0.1888
  665MOL0     C89655   0.025   9.818   0.153  0.6191  1.0348  1.1133
  665MOL0     C89656  -0.027   9.952   0.196 -0.2993  1.0736 -0.0293
  665MOL0     N89657  -0.153   9.969   0.135 -0.6005 -0.0841 -0.6192
  665MOL0     C89658  -0.265   9.901   0.161  0.4038  0.1455 -0.0202
  665MOL0     C89659  -0.358   9.967   0.092 -0.5553  0.2961 -0.8001
  665MOL0     C89660  -0.500   9.958   0.103  1.2031 -0.2471 -1.0348
  665MOL0     C89661  -0.567   9.833   0.047  0.2918  0.6847 -0.4738
  665MOL0     C89662  -0.521   9.808  -0.087 -0.3133  0.4396  0.0799
  665MOL0     C89663  -0.574   9.899  -0.197 -0.7577 -0.9195  1.1554
  665MOL0     O89664  -0.702   9.962  -0.163  0.1813  0.4675  0.1660
  665MOL0     C89665  -0.821   9.904  -0.205  0.3944  0.2941  0.0682
  665MOL0     C89666  -0.837   9.778  -0.255 -0.3245  0.8924  0.2770
  665MOL0     C89667  -0.951   9.725  -0.311  0.0618 -0.3973  0.6957
  665MOL0     C89668  -0.946   9.589  -0.374 -0.9568  0.6045 -0.1582
  665MOL0     C89669  -1.062   9.808  -0.325 -0.3441 -1.2041  0.1257
  665MOL0     C89670  -1.196   9.767  -0.376 -0.3039 -0.7576  0.5977
  665MOL0     O89671  -1.275   9.871  -0.405 -0.9318  0.2069  0.6045
  665MOL0     C89672  -1.378   9.856  -0.484 -0.1071  0.3558  0.1047
  665MOL0     C89673  -1.501   9.814  -0.424 -0.7325  0.6361  0.5422
  665MOL0     C89674  -1.610   9.786  -0.503 -0.1574 -0.3004 -0.0524
  665MOL0     C89675  -1.607   9.807  -0.643 -0.1287  0.0045 -0.5057
  665MOL0     O89676  -1.726   9.798  -0.712  0.0458  0.6054 -0.2335
  665MOL0     C89677  -1.731   9.840  -0.853 -0.4181  0.3665  0.2383
  665MOL0     C89678  -1.879   9.828  -0.895  1.0835  0.3819  0.8798
  665MOL0     C89679  -1.913   9.681  -0.924 -0.2386  0.6650  0.4953
  665MOL0     C89680  -2.063   9.658  -0.952  0.1959 -0.8851 -0.4732
  665MOL0     C89681  -2.105   9.519  -0.993 -0.6277 -0.2397  0.0628
  665MOL0     C89682  -2.247   9.516  -1.065 -1.3466  0.4964 -0.4320
  665MOL0     C89683  -2.300   9.369  -1.072  0.8304  0.0953  0.3939
  665MOL0     C89684  -2.454   9.370  -1.099 -0.9689  0.2787  0.0223
  665MOL0    Cl89685  -2.481   9.443  -1.262 -0.0827 -0.0787  0.3104
  665MOL0     C89686  -1.482   9.846  -0.702  0.6657  0.0855 -0.3920
  665MOL0     C89687  -1.371   9.870  -0.625 -0.7463  0.8774 -0.2782
  665MOL0     O89688  -1.233   9.652  -0.371  0.4692 -0.2558 -0.1745
  665MOL0     C89689  -1.046   9.941  -0.277  0.3175  0.2310 -0.0016
  665MOL0     C89690  -0.927   9.990  -0.220  0.0004 -0.2776 -0.2986
  665MOL0     N89691  -0.292  10.065   0.020  0.2031  0.6607 -0.4534
  665MOL0     N89692  -0.169  10.068   0.048 -0.2149  0.4318 -0.4697
  665MOL0     C89693   1.115   9.946   0.257 -0.6990 -0.3111  0.1834
  665MOL0     C89694   1.228  10.023   0.299  0.5050 -0.6290 -0.6141
  665MOL0     C89695   1.501  10.385   0.409 -0.0301 -0.9873 -0.5651
  665MOL0     C89696   1.515  10.485   0.504 -1.0733  0.1072 -0.7097
  665MOL0     C89697   1.640  10.531   0.548 -0.4056  0.2403 -0.5139
  665MOL0     C89698   1.754  10.473   0.491  0.3158 -0.2946  0.5525
  665MOL0     O89699   1.873  10.511   0.542 -0.1395  0.1057 -0.3223
  665MOL0     C89700   1.995  10.501   0.461  0.4266  0.7338 -0.4159
  665MOL0     C89701   2.053  10.638   0.441  0.2736 -0.7184 -0.2824
  665MOL0     C89702   2.180  10.640   0.366  0.3314  0.1280  0.4170
  665MOL0     C89703   2.302  10.662   0.455  0.5067 -0.9436  0.6999
  665MOL0     C89704   2.436  10.639   0.393  0.5442 -0.5826 -0.1349
  665MOL0     C89705   2.541  10.627   0.333 -0.5628 -0.1121 -0.4314
  665MOL0     C89706   1.738  10.376   0.388  0.1143 -0.3813  0.1917
  665MOL0     C89707   1.609  10.330   0.354  0.5295  0.0375  0.3023
  665MOL0     H89708   1.114  10.339   0.241 -2.6168 -0.6512 -1.2973
  665MOL0     H89709   0.921  10.222   0.184 -1.3061 -1.5516  0.8173
  665MOL0     H89710   0.726  10.078   0.208  1.2219  0.1568 -0.6329
  665MOL0     H89711   0.778  10.020   0.050 -3.2539 -1.4248 -1.2133
  665MOL0     H89712   0.687   9.800   0.099  0.6544  0.0131  1.1909
  665MOL0     H89713   0.666   9.839   0.270 -1.0727 -0.2527 -0.4710
  665MOL0     H89714   0.506  10.024   0.204 -2.4283  1.1209 -1.7407
  665MOL0     H89715   0.510   9.970   0.043 -0.9058  0.4339  0.7380
  665MOL0     H89716   0.425   9.749   0.109 -0.0638 -0.7683  0.1997
  665MOL0     H89717   0.427   9.783   0.280 -2.0283  1.3843  0.0344
  665MOL0     H89718   0.248   9.971   0.217 -0.6941 -0.5037  0.8218
  665MOL0     H89719   0.270   9.906   0.052  0.5665 -1.1172 -0.2913
  665MOL0     H89720   0.199   9.683   0.188 -0.3070 -1.3214  1.7901
  665MOL0     H89721   0.149   9.797   0.321  1.1578  1.1179  0.1592
  665MOL0     H89722   0.050   9.813   0.047  1.2647 -2.0235  1.3199
  665MOL0     H89723  -0.043   9.739   0.186  1.8110 -0.7626 -0.5237
  665MOL0     H89724   0.037  10.036   0.166  1.5065  0.7144  2.5639
  665MOL0     H89725  -0.037   9.960   0.305 -1.3415 -0.6270  0.0302
  665MOL0     H89726  -0.291   9.822   0.231 -1.6619  0.3217 -0.5307
  665MOL0     H89727  -0.534   9.958   0.207 -1.8706 -3.3552 -1.8475
  665MOL0     H89728  -0.550  10.041   0.051 -2.9300 -2.4669 -1.0387
  665MOL0     H89729  -0.676   9.838   0.047  0.0446 -1.2137  3.0922
  665MOL0     H89730  -0.532   9.744   0.100 -1.5050 -0.1683 -0.6521
  665MOL0     H89731  -0.574   9.715  -0.109  0.1998  0.3747 -0.9685
  665MOL0     H89732  -0.412   9.804  -0.097 -0.0339  2.4300  1.7278
  665MOL0     H89733  -0.572   9.847  -0.294 -3.7735 -0.3038  0.6689
  665MOL0     H89734  -0.509   9.986  -0.211 -1.6886 -0.4933 -1.0352
  665MOL0     H89735  -0.762   9.700  -0.242 -1.1051 -0.3841 -2.2107
  665MOL0     H89736  -1.013   9.522  -0.320 -0.9065  0.1908 -0.6048
  665MOL0     H89737  -0.968   9.593  -0.481  1.4140  0.1540 -0.7241
  665MOL0     H89738  -0.843   9.553  -0.366 -0.9441  0.6650 -0.0337
  665MOL0     H89739  -1.514   9.815  -0.316  0.5851  0.1458  0.7230
  665MOL0     H89740  -1.704   9.754  -0.459 -1.3421  1.3454 -1.2293
  665MOL0     H89741  -1.705   9.946  -0.861 -2.1562  0.8791  0.9283
  665MOL0     H89742  -1.661   9.776  -0.908  0.7535  0.0923  1.9398
  665MOL0     H89743  -1.940   9.869  -0.814 -0.3176 -1.8453  1.0388
  665MOL0     H89744  -1.877   9.892  -0.983  1.0275 -0.0487  0.5617
  665MOL0     H89745  -1.872   9.620  -0.843  0.7556  3.4154  2.1858
  665MOL0     H89746  -1.875   9.655  -1.024  0.2927  0.8180  0.6573
  665MOL0     H89747  -2.113   9.685  -0.858  1.7257 -1.8670  0.6661
  665MOL0     H89748  -2.102   9.716  -1.036 -1.2540 -3.4271 -1.6869
  665MOL0     H89749  -2.108   9.453  -0.906  2.5303 -2.7507 -1.5141
  665MOL0     H89750  -2.028   9.468  -1.052 -2.8566 -0.8682 -2.5114
  665MOL0     H89751  -2.313   9.586  -1.014  0.9963  1.6284  1.2647
  665MOL0     H89752  -2.244   9.564  -1.164 -1.1176  0.6808 -0.3381
  665MOL0     H89753  -2.294   9.326  -0.972  0.9512 -1.4928 -0.2605
  665MOL0     H89754  -2.251   9.304  -1.146  0.8262  0.4401  0.0828
  665MOL0     H89755  -2.507   9.416  -1.016  0.0537 -2.5265  2.4022
  665MOL0     H89756  -2.473   9.262  -1.095  1.2029 -0.1116  1.4445
  665MOL0     H89757  -1.469   9.848  -0.810 -1.7813 -1.1167 -0.7685
  665MOL0     H89758  -1.275   9.894  -0.671 -0.1069 -0.5194  0.2919
  665MOL0     H89759  -1.128  10.012  -0.286  1.6183  2.2171  2.3029
  665MOL0     H89760  -0.916  10.096  -0.198 -0.4716 -0.2136 -0.3656
  665MOL0     H89761   1.102   9.841   0.281 -0.6421 -0.2871  0.3186
  665MOL0     H89762   1.315   9.970   0.338 -0.1333 -0.1309  1.6291
  665MOL0     H89763   1.428  10.522   0.558 -0.9110  1.0708 -1.0964
  665MOL0     H89764   1.651  10.589   0.639 -1.9783 -1.1493  0.6277
  665MOL0     H89765   2.058  10.430   0.514 -0.7453  0.5060  0.7198
  665MOL0     H89766   1.982  10.458   0.361  1.8815  0.1471 -0.3701
  665MOL0     H89767   2.073  10.697   0.531 -0.2269  3.4402 -2.6233
  665MOL0     H89768   1.974  10.693   0.388 -2.0584 -4.2094 -0.7334
  665MOL0     H89769   2.176  10.725   0.297 -0.8491  0.9815  1.5085
  665MOL0     H89770   2.186  10.551   0.302 -1.0879 -0.0743  0.5460
  665MOL0     H89771   2.299  10.598   0.544  2.0299 -2.1364 -0.0597
  665MOL0     H89772   2.305  10.768   0.481  0.1507 -0.5531 -0.7485
  665MOL0     H89773   2.636  10.632   0.282  0.6378  0.5597  1.7469
  665MOL0     H89774   1.813  10.331   0.324 -0.0920 -1.2620  0.5545
  665MOL0     H89775   1.600  10.245   0.286  0.0266 -1.6989  2.4183
  666MOL0     O89776   7.580   9.357   4.157 -1.2142  0.3348 -0.1404
  666MOL0     C89777   7.476   9.324   4.216  0.1959 -0.3436 -1.0098
  666MOL0     O89778   7.436   9.193   4.229  0.6733  0.2654 -0.4591
  666MOL0     C89779   7.521   9.101   4.162  0.3114 -0.1281 -0.0094
  666MOL0     C89780   7.591   9.009   4.242  0.3044  0.0431  0.2563
  666MOL0     C89781   7.691   8.929   4.189  0.1588 -0.7524 -0.7954
  666MOL0     C89782   7.721   8.939   4.050 -0.3541 -0.3793  0.6809
  666MOL0     O89783   7.819   8.864   3.987 -0.2120  0.3634  0.0889
  666MOL0     C89784   7.927   8.820   4.071  0.5282  0.1740 -0.3347
  666MOL0     C89785   8.051   8.782   3.979 -0.1762  0.2056  0.2166
  666MOL0     C89786   8.170   8.735   4.053 -1.3665  0.2333 -0.6823
  666MOL0     C89787   8.293   8.721   3.957 -0.1217  0.5986 -0.1805
  666MOL0     C89788   8.424   8.714   4.046  0.4532  0.3506  0.6125
  666MOL0     C89789   8.541   8.667   3.962  0.6345 -0.2551 -0.1403
  666MOL0     C89790   8.664   8.653   4.047  0.2996 -1.2817  0.5783
  666MOL0     C89791   8.786   8.582   3.974  0.4125  0.7797  0.6064
  666MOL0     N89792   8.903   8.567   4.056 -0.3608 -1.6545 -0.0091
  666MOL0     C89793   9.007   8.656   4.040 -0.2869 -0.1823 -0.5083
  666MOL0     C89794   9.081   8.631   4.153  0.8180  0.6697  0.2201
  666MOL0     C89795   9.219   8.688   4.181 -0.5946 -0.1233 -0.4705
  666MOL0     C89796   9.222   8.840   4.180 -0.7421  1.1168 -1.1362
  666MOL0     C89797   9.367   8.886   4.187 -0.0544 -0.5218 -0.1837
  666MOL0     C89798   9.381   9.027   4.155  0.2003 -0.2754 -0.1377
  666MOL0     O89799   9.296   9.102   4.243 -0.5694 -0.0969  0.2185
  666MOL0     C89800   9.199   9.179   4.184  0.2353  0.6658 -0.6219
  666MOL0     C89801   9.236   9.280   4.095 -0.7425  0.4863  0.9853
  666MOL0     C89802   9.144   9.363   4.031 -0.9968 -0.9375  0.1190
  666MOL0     C89803   9.209   9.478   3.947 -0.8826  0.5996  1.0486
  666MOL0     C89804   9.000   9.347   4.055 -0.5399 -0.3544  0.8345
  666MOL0     C89805   8.891   9.425   3.989 -0.5480 -0.0780  0.3931
  666MOL0     O89806   8.762   9.400   4.026 -0.8230 -0.1896  0.4265
  666MOL0     C89807   8.663   9.465   3.969  1.0020 -0.1277  0.2073
  666MOL0     C89808   8.560   9.512   4.049 -0.4913 -0.4507  0.7409
  666MOL0     C89809   8.464   9.600   4.005  0.7984  0.6127  0.6083
  666MOL0     C89810   8.456   9.628   3.869 -0.5316  0.6906  0.3949
  666MOL0     O89811   8.370   9.732   3.842  0.3838 -0.0235  0.5818
  666MOL0     C89812   8.290   9.718   3.718 -0.6825 -0.1068 -0.4065
  666MOL0     C89813   8.179   9.820   3.691  0.0930 -0.0462 -0.2717
  666MOL0     C89814   8.076   9.833   3.800  0.8071 -0.1032  0.0200
  666MOL0     C89815   7.942   9.879   3.721 -0.5912  0.0327 -0.6856
  666MOL0     C89816   7.832   9.894   3.817  0.3210 -0.3174  0.0293
  666MOL0     C89817   7.714   9.948   3.728  1.7013  0.2507 -0.5229
  666MOL0     C89818   7.582   9.937   3.808  0.1877 -0.7480  0.2043
  666MOL0     C89819   7.543  10.062   3.887  0.4834  0.0128  0.7011
  666MOL0    Cl89820   7.410  10.004   3.984 -0.2577  0.3248 -0.1407
  666MOL0     C89821   8.549   9.570   3.779  0.1973 -0.3609  0.1575
  666MOL0     C89822   8.646   9.489   3.830 -0.6929  0.3798  0.1370
  666MOL0     O89823   8.920   9.497   3.893 -0.1721  0.0926 -0.2580
  666MOL0     C89824   8.965   9.254   4.160  0.6689 -0.1115 -0.6269
  666MOL0     C89825   9.062   9.177   4.227 -0.7778  0.1331  0.0960
  666MOL0     N89826   9.014   8.543   4.237  0.7399  1.1540 -0.2909
  666MOL0     N89827   8.912   8.500   4.169 -0.0809 -0.4083 -0.8072
  666MOL0     C89828   7.654   9.028   3.976  0.5003 -0.5694  0.2475
  666MOL0     C89829   7.547   9.101   4.022  0.3241  0.8548  0.0946
  666MOL0     C89830   7.367   9.419   4.249 -0.1334 -0.3950  0.1492
  666MOL0     C89831   7.371   9.555   4.224  0.4329 -0.3369  0.3955
  666MOL0     C89832   7.279   9.650   4.270 -0.2042  0.6348  0.0019
  666MOL0     C89833   7.175   9.608   4.354 -0.0474  0.2765 -0.1114
  666MOL0     O89834   7.096   9.691   4.425 -0.3878  0.1695  0.1738
  666MOL0     C89835   7.121   9.834   4.422  0.1494 -0.5039 -0.2883
  666MOL0     C89836   6.978   9.894   4.421 -0.2096 -1.0157  0.0826
  666MOL0     C89837   6.886   9.865   4.541  0.4929  0.7093 -0.0225
  666MOL0     C89838   6.751   9.920   4.526  0.2955 -1.1235 -0.0906
  666MOL0     C89839   6.766  10.068   4.535  0.2928 -0.1205 -0.3318
  666MOL0     C89840   6.788  10.184   4.534  0.0635 -0.6195 -0.2942
  666MOL0     C89841   7.162   9.472   4.382  0.4667  0.3387  0.3233
  666MOL0     C89842   7.253   9.378   4.332  0.5633 -0.3804  0.2929
  666MOL0     H89843   7.566   9.008   4.348 -1.3883  4.2529  0.0889
  666MOL0     H89844   7.736   8.864   4.263 -0.3416 -0.1964  0.0179
  666MOL0     H89845   7.954   8.898   4.142  0.5982 -0.0438 -0.1192
  666MOL0     H89846   7.893   8.729   4.121 -1.1086  1.4171  0.9251
  666MOL0     H89847   8.024   8.708   3.904 -0.0069 -0.4151  0.7598
  666MOL0     H89848   8.062   8.873   3.920  1.0790  0.6082  1.0302
  666MOL0     H89849   8.200   8.794   4.140 -0.1143  0.7208 -1.4018
  666MOL0     H89850   8.148   8.634   4.088  0.3590  0.1684  0.3475
  666MOL0     H89851   8.263   8.632   3.901  1.0270 -0.0250  0.1689
  666MOL0     H89852   8.295   8.803   3.884  1.0214  0.5359 -0.2513
  666MOL0     H89853   8.441   8.816   4.083  1.7936  0.0552  0.8648
  666MOL0     H89854   8.403   8.642   4.126 -3.7321 -1.4505 -1.8294
  666MOL0     H89855   8.526   8.566   3.923  2.0284 -0.8424  0.7473
  666MOL0     H89856   8.551   8.738   3.879 -0.6566 -0.9578 -0.9225
  666MOL0     H89857   8.691   8.747   4.096  1.4847 -0.2407 -1.8762
  666MOL0     H89858   8.646   8.579   4.125  0.4339 -2.1451 -0.1932
  666MOL0     H89859   8.796   8.636   3.880  1.0995  0.5684  0.5571
  666MOL0     H89860   8.752   8.482   3.944 -1.5964  1.6305 -0.1177
  666MOL0     H89861   9.046   8.693   3.946 -1.8084 -1.6795 -1.8120
  666MOL0     H89862   9.257   8.650   4.276 -0.1005  1.7040  0.0864
  666MOL0     H89863   9.292   8.643   4.113 -1.7523 -2.4296 -0.3087
  666MOL0     H89864   9.164   8.873   4.266 -0.9138 -0.0932 -0.7684
  666MOL0     H89865   9.173   8.885   4.093 -1.0837  2.2434 -0.3882
  666MOL0     H89866   9.422   8.824   4.116 -2.3278 -2.0813 -0.7154
  666MOL0     H89867   9.405   8.858   4.286 -2.9928  3.4829  2.4061
  666MOL0     H89868   9.354   9.033   4.049 -0.1653 -2.1838 -0.1866
  666MOL0     H89869   9.481   9.069   4.164 -0.5330  1.1745  1.7740
  666MOL0     H89870   9.342   9.291   4.073 -1.1926  0.4201 -1.4540
  666MOL0     H89871   9.155   9.573   3.946 -1.9436  0.0087  0.2710
  666MOL0     H89872   9.315   9.489   3.971  0.3296 -0.2064 -2.9895
  666MOL0     H89873   9.227   9.445   3.844  1.8382  1.3018  1.2349
  666MOL0     H89874   8.578   9.494   4.154  1.1271  2.6110  1.1298
  666MOL0     H89875   8.391   9.644   4.073  0.4887  0.2640  0.5048
  666MOL0     H89876   8.364   9.715   3.638  1.5229  3.1859  1.2951
  666MOL0     H89877   8.256   9.614   3.714 -1.2068 -0.0952  1.9484
  666MOL0     H89878   8.226   9.918   3.681 -5.2528  3.0810  1.2025
  666MOL0     H89879   8.150   9.798   3.588  2.3163 -0.5953 -0.8360
  666MOL0     H89880   8.119   9.904   3.871  0.3908  1.1432 -0.9451
  666MOL0     H89881   8.050   9.735   3.841  2.2577 -0.7745 -0.6159
  666MOL0     H89882   7.954   9.962   3.651  1.7362 -0.7781 -1.3374
  666MOL0     H89883   7.916   9.794   3.657 -0.4240 -1.4878  1.1719
  666MOL0     H89884   7.864   9.973   3.886  2.9238 -1.7137  0.5559
  666MOL0     H89885   7.804   9.806   3.877 -0.9291  0.1135  0.1008
  666MOL0     H89886   7.727  10.054   3.703 -1.8383  1.2796  1.3320
  666MOL0     H89887   7.707   9.886   3.639  0.3145  2.0007 -1.6898
  666MOL0     H89888   7.563   9.851   3.874 -0.1073 -2.6252 -2.2089
  666MOL0     H89889   7.509   9.924   3.727  0.2759  1.1001 -0.1995
  666MOL0     H89890   7.513  10.135   3.811 -2.2140 -0.1424  1.4994
  666MOL0     H89891   7.629  10.096   3.945  1.7866 -0.0802 -1.0806
  666MOL0     H89892   8.538   9.577   3.672 -1.9648 -1.4657  0.2414
  666MOL0     H89893   8.719   9.439   3.767  1.9412  1.7689  1.9078
  666MOL0     H89894   8.864   9.228   4.190  0.4366 -0.6207 -1.8117
  666MOL0     H89895   9.035   9.120   4.315 -0.3986  0.9110  0.7222
  666MOL0     H89896   7.695   9.042   3.877  1.9809  1.1864  1.0536
  666MOL0     H89897   7.507   9.176   3.954 -1.8302  0.3954  0.7744
  666MOL0     H89898   7.457   9.589   4.166  0.4579  2.4174  1.8954
  666MOL0     H89899   7.304   9.751   4.239  0.0416  0.4320 -0.4744
  666MOL0     H89900   7.188   9.859   4.504  0.1342 -0.9171 -0.1468
  666MOL0     H89901   7.176   9.875   4.337  0.9456  2.6994  1.6028
  666MOL0     H89902   6.932   9.870   4.325 -3.4410 -1.9036  1.7407
  666MOL0     H89903   6.999  10.002   4.421  0.6588 -1.1736 -0.1254
  666MOL0     H89904   6.927   9.904   4.634 -0.7416  0.0509  0.8129
  666MOL0     H89905   6.885   9.755   4.538  4.2131  0.5615 -1.1764
  666MOL0     H89906   6.695   9.900   4.618  1.9033  2.7634  1.9491
  666MOL0     H89907   6.693   9.890   4.439  2.9690 -2.3192 -1.6009
  666MOL0     H89908   6.804  10.290   4.546  0.5006 -0.7368  0.1969
  666MOL0     H89909   7.079   9.442   4.446 -0.8272  1.7213 -0.6466
  666MOL0     H89910   7.227   9.276   4.358 -3.1220  0.3438 -0.0617
  667MOL0     O89911   5.882  10.154   8.973 -0.9266 -0.7692  0.0904
  667MOL0     C89912   5.880  10.268   9.016 -0.6237 -0.8651  0.2948
  667MOL0     O89913   5.987  10.338   9.054  0.1965 -0.8525  0.0102
  667MOL0     C89914   6.106  10.277   9.053 -0.1265 -0.1301  0.0840
  667MOL0     C89915   6.139  10.173   9.146  0.3696  0.4421 -1.2020
  667MOL0     C89916   6.277  10.119   9.159  0.7036  0.4316 -0.0853
  667MOL0     C89917   6.374  10.160   9.070 -0.6111  0.3572  0.8891
  667MOL0     O89918   6.498  10.096   9.082  0.1019  0.5355  0.0784
  667MOL0     C89919   6.611  10.140   9.010  0.1293 -1.1205 -0.3604
  667MOL0     C89920   6.746  10.073   9.029  0.1034 -0.0065 -0.4710
  667MOL0     C89921   6.795  10.071   9.186  0.2400  0.2364 -0.6065
  667MOL0     C89922   6.936  10.018   9.193  0.1394 -0.9361  0.1908
  667MOL0     C89923   6.987  10.007   9.332 -0.2088  0.1248 -0.4612
  667MOL0     C89924   6.995  10.125   9.417  0.8560 -0.5643  0.5755
  667MOL0     C89925   7.065  10.250   9.355  1.0306  0.1149 -0.5652
  667MOL0     C89926   7.121  10.347   9.468  0.4604  0.3766  1.1316
  667MOL0     N89927   7.026  10.414   9.556 -0.6507  0.3012 -0.0314
  667MOL0     C89928   6.960  10.357   9.660 -0.8050 -0.0110  0.4276
  667MOL0     C89929   6.877  10.453   9.716  0.0793  0.7002  0.4316
  667MOL0     C89930   6.759  10.418   9.811  1.2155 -0.7524 -0.2504
  667MOL0     C89931   6.621  10.463   9.767 -0.1724  0.3021  0.0735
  667MOL0     C89932   6.531  10.473   9.888  0.6376  0.0874 -0.1889
  667MOL0     C89933   6.385  10.531   9.858  0.0365  0.7386  1.1368
  667MOL0     O89934   6.338  10.478   9.737 -0.8649  0.2284  0.5691
  667MOL0     C89935   6.204  10.505   9.702 -0.2281  0.5935 -0.3939
  667MOL0     C89936   6.162  10.468   9.572  0.6075  1.2387  0.8039
  667MOL0     C89937   6.026  10.478   9.531  0.1586  0.7250 -0.5993
  667MOL0     C89938   6.000  10.424   9.390 -0.8442  0.1899  0.5202
  667MOL0     C89939   5.930  10.527   9.623  0.5232  0.4159 -0.7641
  667MOL0     C89940   5.784  10.526   9.598  0.0428 -1.0071  1.0082
  667MOL0     O89941   5.707  10.618   9.660  0.0663  0.2466 -0.7219
  667MOL0     C89942   5.580  10.655   9.621 -0.1066 -0.3486 -0.0434
  667MOL0     C89943   5.497  10.723   9.711  0.4579  0.8275  0.4949
  667MOL0     C89944   5.370  10.772   9.674 -1.0472 -0.2563 -0.3416
  667MOL0     C89945   5.320  10.765   9.544  0.8493  0.1726  0.7334
  667MOL0     O89946   5.196  10.802   9.500  0.6305  1.3165  0.0841
  667MOL0     C89947   5.106  10.855   9.590 -0.7948 -1.1194 -0.4478
  667MOL0     C89948   4.987  10.893   9.501  1.5925 -0.2728  0.4276
  667MOL0     C89949   4.874  10.932   9.593 -0.5937  0.3315 -0.7776
  667MOL0     C89950   4.751  10.940   9.505 -0.2068  0.1418  0.3868
  667MOL0     C89951   4.627  11.011   9.587 -0.1697  0.4379  0.2147
  667MOL0     C89952   4.562  10.900   9.670 -0.3236 -0.8870 -0.4237
  667MOL0     C89953   4.446  10.977   9.751  1.0054  0.1997 -0.1816
  667MOL0     C89954   4.374  10.876   9.844  0.1475 -0.8111  0.3008
  667MOL0    Cl89955   4.235  10.957   9.928 -0.2237  0.2507  0.0652
  667MOL0     C89956   5.408  10.697   9.459  0.9514  0.7147 -0.1244
  667MOL0     C89957   5.527  10.640   9.490  0.3767 -0.0676 -0.3865
  667MOL0     O89958   5.727  10.431   9.540 -0.2814  0.7545  0.0466
  667MOL0     C89959   5.979  10.570   9.745 -1.3132 -0.7517  0.2778
  667MOL0     C89960   6.114  10.557   9.778 -0.8385  0.4647  0.0138
  667MOL0     N89961   6.904  10.573   9.647  0.0286 -0.6537 -0.4839
  667MOL0     N89962   6.989  10.541   9.550 -0.3600  0.2021 -0.0856
  667MOL0     C89963   6.342  10.271   8.989 -0.7660 -0.0355 -0.6271
  667MOL0     C89964   6.217  10.332   8.987  0.3164 -0.3800  0.4499
  667MOL0     C89965   5.746  10.333   9.043  0.0275  0.3593 -0.4463
  667MOL0     C89966   5.727  10.466   9.082 -0.0104  1.0946 -0.8693
  667MOL0     C89967   5.604  10.522   9.106 -0.3745 -0.1134  0.2023
  667MOL0     C89968   5.488  10.440   9.094  0.5889  0.8093  0.9149
  667MOL0     O89969   5.365  10.490   9.126 -0.3882 -0.1837  0.1561
  667MOL0     C89970   5.248  10.414   9.111  0.2283 -0.0344  0.1565
  667MOL0     C89971   5.145  10.504   9.169 -1.1286  0.0186 -0.0757
  667MOL0     C89972   5.027  10.424   9.217  0.4607  0.4303 -0.0471
  667MOL0     C89973   4.917  10.517   9.287 -0.9174  0.1917  0.1601
  667MOL0     C89974   4.793  10.450   9.320  0.1710  0.2911 -0.7933
  667MOL0     C89975   4.698  10.393   9.369 -0.5653  0.5896 -0.9926
  667MOL0     C89976   5.509  10.308   9.060  0.0477  0.0740  0.0303
  667MOL0     C89977   5.631  10.252   9.037 -0.7764  0.3541 -0.6137
  667MOL0     H89978   6.070  10.141   9.224  1.5668  0.7697  0.0381
  667MOL0     H89979   6.305  10.054   9.242  1.9071 -0.3129 -1.0298
  667MOL0     H89980   6.599  10.128   8.902  1.8260  0.1203 -0.7300
  667MOL0     H89981   6.608  10.248   9.028 -2.4155 -0.9100 -1.6397
  667MOL0     H89982   6.735   9.969   8.997  3.4175 -0.4500 -0.5556
  667MOL0     H89983   6.812  10.111   8.950  1.2188  1.6400  1.1818
  667MOL0     H89984   6.795  10.173   9.224 -1.5671 -0.2465  0.8733
  667MOL0     H89985   6.721  10.017   9.247  0.8269 -2.0576 -1.7902
  667MOL0     H89986   6.944   9.917   9.152  0.4584 -1.4508  1.4768
  667MOL0     H89987   7.001  10.083   9.134 -0.5460 -0.8098 -0.4344
  667MOL0     H89988   6.919   9.937   9.383 -0.9702  0.2885 -1.2360
  667MOL0     H89989   7.082   9.954   9.324 -0.4162 -0.0886 -1.7486
  667MOL0     H89990   6.894  10.162   9.435  0.6089 -0.8549 -0.1929
  667MOL0     H89991   7.039  10.094   9.513 -0.1006 -1.9529  0.5973
  667MOL0     H89992   7.152  10.214   9.299  1.1845 -1.4608  0.6205
  667MOL0     H89993   6.995  10.302   9.289 -0.3587 -0.0727  0.7044
  667MOL0     H89994   7.190  10.414   9.416  0.0599  0.4927  0.7432
  667MOL0     H89995   7.190  10.286   9.528 -0.8621  0.6770  3.0413
  667MOL0     H89996   6.969  10.252   9.684  1.1743 -0.0975 -0.5291
  667MOL0     H89997   6.764  10.309   9.825  2.1277 -1.0189 -2.2955
  667MOL0     H89998   6.780  10.465   9.907  1.2567 -0.5638 -0.3512
  667MOL0     H89999   6.575  10.384   9.707 -2.2787  0.6469  1.1615
  667MOL0     H90000   6.627  10.553   9.705  1.5211 -0.6493 -1.2465
  667MOL0     H90001   6.578  10.542   9.959  0.0302 -0.9445  1.2726
  667MOL0     H90002   6.530  10.374   9.935  4.3501  0.3078  0.7031
  667MOL0     H90003   6.384  10.640   9.855 -1.5901  0.7200 -0.6847
  667MOL0     H90004   6.322  10.494   9.940  3.7754 -2.4811  2.8812
  667MOL0     H90005   6.231  10.421   9.503 -0.6664  1.2382 -0.5077
  667MOL0     H90006   5.916  10.355   9.402 -0.3405 -0.6155 -0.5024
  667MOL0     H90007   5.959  10.501   9.325  2.2880  1.7765  0.2661
  667MOL0     H90008   6.083  10.374   9.339 -3.2329 -0.2048 -3.3286
  667MOL0     H90009   5.532  10.744   9.812 -1.7868  1.4764  1.1994
  667MOL0     H90010   5.305  10.813   9.749 -1.7442 -0.8284 -0.6176
  667MOL0     H90011   5.086  10.777   9.664 -0.9304 -0.4859  0.1959
  667MOL0     H90012   5.145  10.945   9.640  1.2376 -1.6200 -1.0331
  667MOL0     H90013   5.014  10.984   9.447 -1.7940  0.6350  0.0593
  667MOL0     H90014   4.958  10.815   9.431 -2.3362  1.5936 -0.2623
  667MOL0     H90015   4.902  11.031   9.632  1.5946 -0.5125 -0.0002
  667MOL0     H90016   4.863  10.859   9.674  3.5935 -0.3374 -0.5576
  667MOL0     H90017   4.773  10.993   9.412  0.8411  0.4026  0.7696
  667MOL0     H90018   4.724  10.837   9.478  4.2530 -1.3491  0.7934
  667MOL0     H90019   4.559  11.048   9.511 -0.0597  0.2546  0.0274
  667MOL0     H90020   4.653  11.105   9.638  0.9303  0.0162  0.4688
  667MOL0     H90021   4.524  10.808   9.627  1.7896 -3.0450  1.9622
  667MOL0     H90022   4.641  10.866   9.737 -0.5226 -2.7024 -1.0722
  667MOL0     H90023   4.369  11.028   9.692  2.2727  1.8983 -0.4787
  667MOL0     H90024   4.495  11.054   9.811 -1.3920  2.0067 -0.3842
  667MOL0     H90025   4.449  10.834   9.912 -1.2639  0.7660  2.9701
  667MOL0     H90026   4.333  10.799   9.778 -1.9055  1.6077 -1.4810
  667MOL0     H90027   5.359  10.680   9.364 -2.8507 -1.0198  1.9170
  667MOL0     H90028   5.587  10.607   9.405  0.4851  3.4910 -1.8564
  667MOL0     H90029   5.909  10.617   9.814 -1.8248 -0.3811 -0.4827
  667MOL0     H90030   6.154  10.594   9.872  1.5288  0.5423 -0.9493
  667MOL0     H90031   6.423  10.310   8.928  1.7955 -1.4431  1.5992
  667MOL0     H90032   6.195  10.422   8.930  1.9521 -0.0406  0.3166
  667MOL0     H90033   5.811  10.534   9.085  0.3962  0.5491  0.9282
  667MOL0     H90034   5.594  10.626   9.133  2.3790 -0.4438  3.1808
  667MOL0     H90035   5.211  10.382   9.014  2.9537 -0.0132 -0.9532
  667MOL0     H90036   5.251  10.326   9.177 -0.2871 -0.8168 -0.8389
  667MOL0     H90037   5.118  10.582   9.097  1.5596  1.0480 -0.0731
  667MOL0     H90038   5.181  10.562   9.254 -0.3717  0.6674 -0.8238
  667MOL0     H90039   5.050  10.347   9.291 -1.0894  0.9412  1.0011
  667MOL0     H90040   4.988  10.376   9.126 -1.0496  1.5933 -0.0446
  667MOL0     H90041   4.887  10.593   9.214 -1.4160 -0.0032  0.1593
  667MOL0     H90042   4.968  10.572   9.367  1.1481  0.0363 -0.9795
  667MOL0     H90043   4.607  10.346   9.401 -2.8916  1.8455 -5.0291
  667MOL0     H90044   5.427  10.236   9.055  1.2510 -1.4750  1.3081
  667MOL0     H90045   5.638  10.149   9.004 -0.9177  0.5572 -1.3066
  668MOL0     O90046   4.568   7.800   1.092  0.3271  0.2669  0.7463
  668MOL0     C90047   4.558   7.921   1.100  0.3983  0.3642  0.1168
  668MOL0     O90048   4.448   7.992   1.157 -0.1711  0.1149 -0.3345
  668MOL0     C90049   4.324   7.943   1.145  1.2663 -0.0459  0.2942
  668MOL0     C90050   4.221   8.015   1.213  0.4619  0.3127  0.9470
  668MOL0     C90051   4.089   7.971   1.210 -0.1416  0.1587 -0.6318
  668MOL0     C90052   4.048   7.856   1.153 -0.5343  0.3058  0.2100
  668MOL0     O90053   3.921   7.817   1.185  0.5053  0.3185  0.3540
  668MOL0     C90054   3.892   7.675   1.176  1.2241 -0.6882  0.3932
  668MOL0     C90055   3.748   7.644   1.206 -1.2796  0.5822  0.0358
  668MOL0     C90056   3.655   7.739   1.136 -0.6893 -0.6917 -0.8961
  668MOL0     C90057   3.507   7.708   1.164 -0.0470  0.7005  0.3123
  668MOL0     C90058   3.433   7.828   1.103  0.5790  0.6484  0.2542
  668MOL0     C90059   3.285   7.811   1.128 -0.1053 -0.6353  0.5113
  668MOL0     C90060   3.195   7.909   1.042 -1.1906  0.6294 -0.5961
  668MOL0     C90061   3.053   7.932   1.099 -0.2132  0.2822 -0.8403
  668MOL0     N90062   2.964   8.029   1.025 -0.3799 -1.1784  0.2233
  668MOL0     C90063   2.969   8.074   0.890  0.4786  0.3618  0.8697
  668MOL0     C90064   2.845   8.129   0.870  0.1019 -0.6446  0.0094
  668MOL0     C90065   2.786   8.200   0.755  0.2383 -0.5220  0.5548
  668MOL0     C90066   2.846   8.344   0.734 -0.4911  0.4459  0.9015
  668MOL0     C90067   2.800   8.404   0.595 -0.4963 -0.0931  0.2694
  668MOL0     C90068   2.655   8.408   0.570  0.2749 -0.3795 -0.1893
  668MOL0     O90069   2.588   8.495   0.656  0.4671 -0.0980 -0.1922
  668MOL0     C90070   2.461   8.469   0.703 -0.0430  0.0354  1.1089
  668MOL0     C90071   2.431   8.464   0.835 -0.0535 -0.1419 -0.2856
  668MOL0     C90072   2.307   8.430   0.888  0.2319 -0.2882  0.5785
  668MOL0     C90073   2.302   8.410   1.040 -0.2007  0.1291 -0.3195
  668MOL0     C90074   2.207   8.398   0.797 -0.5700  0.1479  0.0745
  668MOL0     C90075   2.070   8.365   0.838 -0.4869 -0.2231  0.0230
  668MOL0     O90076   1.989   8.322   0.736 -0.1852  0.1764 -0.5891
  668MOL0     C90077   1.853   8.294   0.756  0.0930  0.8948  0.4291
  668MOL0     C90078   1.778   8.389   0.824  0.3020  0.2435 -0.4593
  668MOL0     C90079   1.631   8.376   0.824 -0.3379 -0.2656 -0.6570
  668MOL0     C90080   1.572   8.262   0.779 -0.3196 -0.0216  0.7728
  668MOL0     O90081   1.440   8.250   0.781 -0.0807 -0.5861 -0.3949
  668MOL0     C90082   1.379   8.282   0.650 -0.0073 -0.0513  0.0454
  668MOL0     C90083   1.234   8.251   0.646  0.9843 -0.4779  0.3648
  668MOL0     C90084   1.205   8.102   0.633 -0.3699 -0.7943  0.3265
  668MOL0     C90085   1.058   8.080   0.641  0.1747  0.4788  0.2862
  668MOL0     C90086   1.025   7.924   0.641  0.6996  0.1492 -0.8521
  668MOL0     C90087   0.874   7.900   0.624  0.4252  1.3785  0.5905
  668MOL0     C90088   0.824   7.776   0.687  0.4829  0.5318  0.9948
  668MOL0     C90089   0.670   7.744   0.652 -0.0596 -0.2665  0.3248
  668MOL0    Cl90090   0.624   7.577   0.709 -0.0315 -0.1475 -0.5595
  668MOL0     C90091   1.650   8.171   0.708  0.0115 -0.0256  1.1161
  668MOL0     C90092   1.788   8.182   0.699 -0.3821 -0.6960  0.2961
  668MOL0     O90093   2.037   8.392   0.949  0.3983 -0.8382  0.0045
  668MOL0     C90094   2.236   8.412   0.658  0.4925 -0.3201  0.2623
  668MOL0     C90095   2.357   8.449   0.607 -0.2221  0.7777  0.2118
  668MOL0     N90096   2.774   8.121   0.985  0.0441 -0.2208 -0.5790
  668MOL0     N90097   2.840   8.070   1.075  0.6948  0.1955  0.1951
  668MOL0     C90098   4.143   7.781   1.081 -0.6767 -0.3951 -0.5066
  668MOL0     C90099   4.278   7.827   1.078  0.2462 -0.8885 -0.2903
  668MOL0     C90100   4.659   8.011   1.060 -1.3179  0.7877  0.3629
  668MOL0     C90101   4.751   7.966   0.966 -0.0556 -0.0839  0.3622
  668MOL0     C90102   4.843   8.054   0.915  0.3799 -0.9415  1.2636
  668MOL0     C90103   4.847   8.187   0.962 -0.2935 -0.3040 -0.2590
  668MOL0     O90104   4.943   8.271   0.917 -0.7251  0.4748 -0.1745
  668MOL0     C90105   4.927   8.407   0.960 -0.0025  0.5969 -0.2904
  668MOL0     C90106   5.011   8.508   0.886 -0.7369  0.2278  0.3641
  668MOL0     C90107   5.161   8.466   0.887  0.5502  0.3313  0.4051
  668MOL0     C90108   5.248   8.584   0.848 -0.2835  0.4296 -0.4051
  668MOL0     C90109   5.259   8.575   0.707  0.0139 -0.5004 -0.1452
  668MOL0     C90110   5.262   8.597   0.589 -0.0980  0.8697 -0.2418
  668MOL0     C90111   4.752   8.229   1.064  0.3988 -1.5564  0.3201
  668MOL0     C90112   4.666   8.135   1.117  0.4928  0.3953  0.1403
  668MOL0     H90113   4.240   8.111   1.260 -0.7764  1.2231 -0.3431
  668MOL0     H90114   4.023   8.030   1.273 -0.0268  0.8306 -1.1328
  668MOL0     H90115   3.913   7.642   1.074 -2.0408  2.8779 -1.7344
  668MOL0     H90116   3.965   7.620   1.235  2.5359 -0.2193 -0.7440
  668MOL0     H90117   3.738   7.540   1.174  1.5364 -0.4634  2.1185
  668MOL0     H90118   3.731   7.645   1.314  0.3874  4.0587  0.4162
  668MOL0     H90119   3.677   7.839   1.174  1.8470 -1.0833 -1.1821
  668MOL0     H90120   3.681   7.748   1.030  1.1271 -0.1046 -0.4339
  668MOL0     H90121   3.487   7.607   1.128  2.1511 -0.0912  1.1080
  668MOL0     H90122   3.481   7.711   1.271  2.4516 -0.8517  1.0587
  668MOL0     H90123   3.467   7.925   1.139 -0.8192  2.4002 -2.7386
  668MOL0     H90124   3.449   7.835   0.995 -1.6619  2.2133 -0.0477
  668MOL0     H90125   3.262   7.706   1.110 -0.4685 -0.2910 -1.2743
  668MOL0     H90126   3.267   7.840   1.232 -1.5152  2.3225 -0.4317
  668MOL0     H90127   3.238   8.009   1.039  1.5509 -0.4081  0.4617
  668MOL0     H90128   3.185   7.880   0.937 -2.9509  2.5363 -1.0259
  668MOL0     H90129   3.063   7.967   1.202 -0.8880  1.0897 -1.0403
  668MOL0     H90130   2.998   7.838   1.088  3.3513 -2.0267 -0.6347
  668MOL0     H90131   3.046   8.069   0.814 -1.7368  3.6948 -1.8859
  668MOL0     H90132   2.806   8.138   0.666 -0.6452  1.0313 -0.7713
  668MOL0     H90133   2.679   8.219   0.763  0.8566  3.5046  1.2440
  668MOL0     H90134   2.953   8.324   0.741 -0.9593 -3.0529  0.2077
  668MOL0     H90135   2.812   8.411   0.813  3.1791  1.4878  1.7587
  668MOL0     H90136   2.841   8.349   0.510  2.2562  2.2794 -0.1009
  668MOL0     H90137   2.847   8.502   0.590  1.2937 -0.9629 -2.6166
  668MOL0     H90138   2.600   8.314   0.579 -1.4979  0.7041  0.8659
  668MOL0     H90139   2.630   8.451   0.473 -0.5429 -0.8063 -0.1756
  668MOL0     H90140   2.508   8.472   0.910  2.1455  0.7587 -2.5115
  668MOL0     H90141   2.225   8.341   1.075  0.0697 -1.0709 -1.9843
  668MOL0     H90142   2.405   8.387   1.071  0.5259  2.8287 -0.4807
  668MOL0     H90143   2.272   8.504   1.087 -4.0036 -0.8686 -0.4246
  668MOL0     H90144   1.814   8.483   0.863  2.6883 -0.9620  0.4050
  668MOL0     H90145   1.574   8.466   0.848  1.3248  1.6151 -3.1116
  668MOL0     H90146   1.389   8.388   0.625 -0.3679 -0.2268 -0.8631
  668MOL0     H90147   1.433   8.224   0.574  2.5149  0.8809  1.0018
  668MOL0     H90148   1.177   8.302   0.724 -0.5082  1.4020 -1.8288
  668MOL0     H90149   1.194   8.298   0.556 -1.2693  2.4329  2.6879
  668MOL0     H90150   1.255   8.049   0.714 -1.2722 -0.3939  1.1746
  668MOL0     H90151   1.236   8.066   0.535 -1.1706  1.7952 -0.9721
  668MOL0     H90152   1.019   8.122   0.734 -0.0615  1.1337 -0.0986
  668MOL0     H90153   1.011   8.123   0.552  3.7892 -1.3828 -2.8330
  668MOL0     H90154   1.046   7.899   0.746 -0.1587  3.2913  0.1800
  668MOL0     H90155   1.086   7.865   0.572  1.3301 -0.1897 -0.0251
  668MOL0     H90156   0.818   7.984   0.666 -1.5231  0.8807 -0.8431
  668MOL0     H90157   0.856   7.884   0.517 -1.3834 -0.6797  1.1288
  668MOL0     H90158   0.841   7.772   0.795 -0.5673  0.8300  1.1792
  668MOL0     H90159   0.879   7.692   0.644  0.4922 -0.3498  2.6400
  668MOL0     H90160   0.668   7.752   0.543  2.4457  1.9992  0.3343
  668MOL0     H90161   0.592   7.812   0.688  0.9830  1.5093 -0.6169
  668MOL0     H90162   1.600   8.086   0.664  2.1464 -1.1807  0.7866
  668MOL0     H90163   1.854   8.119   0.641  1.5862  0.7253  0.8739
  668MOL0     H90164   2.156   8.411   0.584 -0.4485 -0.4326  1.2434
  668MOL0     H90165   2.378   8.463   0.501  1.6561 -1.0109  0.2795
  668MOL0     H90166   4.110   7.691   1.030 -1.5500  0.2370 -1.0696
  668MOL0     H90167   4.343   7.758   1.026 -2.5517 -3.5574 -0.4976
  668MOL0     H90168   4.744   7.860   0.941  0.5663 -1.1060  3.9337
  668MOL0     H90169   4.901   8.012   0.833 -2.8041 -0.2091 -1.6000
  668MOL0     H90170   4.824   8.435   0.936 -0.2062 -0.8459 -1.2405
  668MOL0     H90171   4.946   8.416   1.068  0.2727  1.2096 -0.3882
  668MOL0     H90172   5.003   8.608   0.930 -2.2511  0.9012 -1.3131
  668MOL0     H90173   4.962   8.521   0.789 -3.5061  0.2961  1.6830
  668MOL0     H90174   5.174   8.381   0.820 -1.2924  0.6285 -0.4022
  668MOL0     H90175   5.196   8.439   0.987 -2.0329 -0.1140  1.2582
  668MOL0     H90176   5.349   8.559   0.882 -0.2650 -1.5789 -1.7701
  668MOL0     H90177   5.205   8.682   0.869 -0.1933  0.2837  0.4841
  668MOL0     H90178   5.279   8.604   0.483  0.4931 -0.8072 -0.2778
  668MOL0     H90179   4.758   8.328   1.106 -2.6359 -1.3104  0.4150
  668MOL0     H90180   4.608   8.160   1.205 -1.4732 -2.2821 -0.2715
  669MOL0     O90181  10.261   1.427   7.263 -0.3057  0.0436  0.3666
  669MOL0     C90182  10.276   1.305   7.247 -0.0973 -0.5499 -0.1218
  669MOL0     O90183  10.191   1.208   7.288  0.1579  0.0810 -0.0914
  669MOL0     C90184  10.071   1.247   7.333 -0.1275  0.1899  0.4453
  669MOL0     C90185   9.972   1.261   7.239 -0.7182  0.0843 -0.3298
  669MOL0     C90186   9.852   1.305   7.280 -0.3580 -0.2941  0.1857
  669MOL0     C90187   9.810   1.311   7.411 -0.0679  0.0441 -0.2900
  669MOL0     O90188   9.682   1.347   7.427  0.1301 -0.2135 -0.1887
  669MOL0     C90189   9.622   1.305   7.551 -0.8718  0.4862  0.4905
  669MOL0     C90190   9.476   1.332   7.515  0.2575 -0.6607 -0.3082
  669MOL0     C90191   9.451   1.474   7.553  1.0487 -1.5005  0.2983
  669MOL0     C90192   9.309   1.514   7.508 -0.0136  0.6290  0.7633
  669MOL0     C90193   9.257   1.644   7.571  1.1079 -0.5897  0.2260
  669MOL0     C90194   9.107   1.649   7.514 -0.8972 -0.4454 -0.1425
  669MOL0     C90195   9.013   1.732   7.593  0.4205 -0.2819 -0.2667
  669MOL0     C90196   8.976   1.671   7.731  0.1561  0.2268  0.6902
  669MOL0     N90197   8.949   1.524   7.731 -0.5880  0.9645 -0.2031
  669MOL0     C90198   8.840   1.458   7.693  0.7482 -0.4865 -0.8585
  669MOL0     C90199   8.854   1.324   7.726  0.4401 -0.4770  0.0286
  669MOL0     C90200   8.774   1.207   7.698 -0.4120 -0.6423  0.5964
  669MOL0     C90201   8.759   1.141   7.824  0.1455  0.2756 -0.5764
  669MOL0     C90202   8.620   1.078   7.843 -0.4519 -0.1763 -0.1393
  669MOL0     C90203   8.524   1.181   7.913  0.3464 -0.8110  0.0829
  669MOL0     O90204   8.388   1.135   7.904 -0.4490 -0.0142 -0.0940
  669MOL0     C90205   8.291   1.219   7.967 -0.9203 -0.2552  0.3252
  669MOL0     C90206   8.310   1.335   8.035 -0.0921  0.9552  0.2656
  669MOL0     C90207   8.205   1.418   8.069 -0.9370  0.9586  0.5944
  669MOL0     C90208   8.235   1.535   8.155  0.6483 -0.3567  0.2543
  669MOL0     C90209   8.072   1.382   8.015 -0.5678 -0.1053 -0.5031
  669MOL0     C90210   7.953   1.468   8.028 -0.8467 -0.0498 -0.0462
  669MOL0     O90211   7.841   1.434   7.953 -0.1399 -0.1007  0.4932
  669MOL0     C90212   7.720   1.480   7.990 -0.0467 -0.4662  0.2530
  669MOL0     C90213   7.678   1.463   8.129  0.1367 -0.0991 -0.3752
  669MOL0     C90214   7.550   1.499   8.165  0.1587  1.2079 -0.1758
  669MOL0     C90215   7.465   1.565   8.076  1.5107  0.1944 -0.6929
  669MOL0     O90216   7.340   1.617   8.117 -0.3166  0.0461 -0.0737
  669MOL0     C90217   7.262   1.541   8.209  1.1061 -0.5873  0.0593
  669MOL0     C90218   7.138   1.483   8.131 -0.6689 -0.2728  0.7237
  669MOL0     C90219   7.058   1.592   8.051 -0.3128  0.1232 -1.0994
  669MOL0     C90220   6.917   1.533   8.024  0.2828 -0.4882 -0.0537
  669MOL0     C90221   6.844   1.657   7.960  0.7219  0.2878  0.2191
  669MOL0     C90222   6.692   1.624   7.952 -0.0322  0.3139  0.1959
  669MOL0     C90223   6.602   1.727   7.895  1.2121 -0.1751 -0.4300
  669MOL0     C90224   6.572   1.846   8.002  0.0177  1.1017 -0.4600
  669MOL0    Cl90225   6.454   1.954   7.920  0.3086  0.2836  0.2721
  669MOL0     C90226   7.508   1.594   7.953 -0.0407 -0.0099 -0.2388
  669MOL0     C90227   7.631   1.545   7.907 -1.0975 -0.1271 -1.1822
  669MOL0     O90228   7.964   1.566   8.094 -0.1183 -0.5744 -0.2940
  669MOL0     C90229   8.054   1.266   7.946 -0.0359  0.0310 -0.2889
  669MOL0     C90230   8.166   1.185   7.922  1.1467 -0.2717  0.3994
  669MOL0     N90231   8.992   1.312   7.759  0.5639 -0.2023 -0.8653
  669MOL0     N90232   9.045   1.430   7.769  0.3222 -0.6353  0.7213
  669MOL0     C90233   9.910   1.298   7.510 -0.5374  0.3736  0.6301
  669MOL0     C90234  10.046   1.265   7.469 -0.4832  0.3039 -0.5871
  669MOL0     C90235  10.410   1.286   7.173  0.1946  1.0157 -0.9906
  669MOL0     C90236  10.455   1.157   7.139 -0.3616 -0.4174 -0.7907
  669MOL0     C90237  10.573   1.141   7.060 -0.6192 -1.0374  0.2719
  669MOL0     C90238  10.646   1.255   7.018  0.0033 -0.4056  0.4011
  669MOL0     O90239  10.764   1.240   6.953  0.5684  0.1833 -0.5828
  669MOL0     C90240  10.835   1.358   6.902  0.5316 -0.2578  0.7794
  669MOL0     C90241  10.972   1.319   6.852  0.1584  0.3586  0.3724
  669MOL0     C90242  11.057   1.260   6.957 -0.7832  0.0182 -0.1005
  669MOL0     C90243  11.115   1.364   7.056 -0.0465 -0.5294  0.1648
  669MOL0     C90244  11.196   1.291   7.153 -0.5316 -0.4183 -0.3729
  669MOL0     C90245  11.243   1.239   7.250 -0.5700 -0.0624  0.6077
  669MOL0     C90246  10.596   1.381   7.054  0.2266  0.5591 -0.0970
  669MOL0     C90247  10.487   1.393   7.127 -0.0157  0.1408 -0.3511
  669MOL0     H90248   9.978   1.256   7.131  0.9555 -0.3013 -0.2379
  669MOL0     H90249   9.784   1.328   7.198  2.9179  1.9917 -2.1721
  669MOL0     H90250   9.627   1.196   7.550 -0.1929  0.5192  0.1510
  669MOL0     H90251   9.665   1.339   7.645 -0.0122 -0.3810  0.4240
  669MOL0     H90252   9.460   1.310   7.410  1.0254  0.5889 -0.7088
  669MOL0     H90253   9.413   1.268   7.578 -3.0980  1.4233 -1.3150
  669MOL0     H90254   9.439   1.481   7.662 -2.1962  1.3712 -0.0558
  669MOL0     H90255   9.523   1.550   7.523 -3.5421  2.9504 -0.9493
  669MOL0     H90256   9.319   1.526   7.400 -1.7123  1.8911  0.7045
  669MOL0     H90257   9.237   1.433   7.521  0.7254 -0.0474  0.7646
  669MOL0     H90258   9.250   1.639   7.680 -1.1284 -0.6237  0.1189
  669MOL0     H90259   9.316   1.733   7.549  1.3646 -0.2248  2.1874
  669MOL0     H90260   9.108   1.695   7.415 -0.3731  0.3057  0.1961
  669MOL0     H90261   9.055   1.555   7.496 -1.3918 -0.5011  1.3867
  669MOL0     H90262   9.039   1.838   7.602 -2.9522  0.5113  2.0939
  669MOL0     H90263   8.921   1.728   7.533  1.1561  1.3616 -1.6008
  669MOL0     H90264   8.894   1.729   7.776 -0.1411  0.2969  0.0642
  669MOL0     H90265   9.064   1.695   7.791  2.3272 -1.3974 -1.6887
  669MOL0     H90266   8.751   1.505   7.652 -2.4535 -2.8203  2.6945
  669MOL0     H90267   8.677   1.244   7.667  0.9641  2.1644 -0.6449
  669MOL0     H90268   8.815   1.132   7.629  4.3243 -2.5823  4.7801
  669MOL0     H90269   8.779   1.209   7.906 -1.7579  1.0154 -0.6677
  669MOL0     H90270   8.830   1.058   7.819 -0.2423 -0.0134 -3.8299
  669MOL0     H90271   8.644   0.995   7.910 -0.9576 -1.6410 -1.7017
  669MOL0     H90272   8.572   1.031   7.757 -2.0552  0.2345  0.4887
  669MOL0     H90273   8.540   1.279   7.867  0.6233  0.9075  3.5228
  669MOL0     H90274   8.552   1.190   8.019 -1.9276 -1.0014  0.7657
  669MOL0     H90275   8.408   1.349   8.079  0.5732  0.4874 -1.0245
  669MOL0     H90276   8.172   1.535   8.245  1.1994  0.5701  0.6591
  669MOL0     H90277   8.339   1.550   8.186  1.6125  0.6701 -3.0456
  669MOL0     H90278   8.213   1.627   8.099  1.1574 -0.4065 -0.0370
  669MOL0     H90279   7.747   1.414   8.197  1.9324  0.6993 -1.5599
  669MOL0     H90280   7.524   1.470   8.266 -0.1995 -1.8821 -1.0487
  669MOL0     H90281   7.318   1.466   8.266  1.5423  0.6908  1.3899
  669MOL0     H90282   7.233   1.605   8.293  0.5757 -2.9204  1.7767
  669MOL0     H90283   7.181   1.410   8.061  0.1229 -0.0248  0.9394
  669MOL0     H90284   7.074   1.434   8.204  0.7037 -2.2233  0.7237
  669MOL0     H90285   7.107   1.627   7.960 -2.8855  3.0263 -1.5025
  669MOL0     H90286   7.039   1.682   8.110 -3.5706 -0.3221 -1.2895
  669MOL0     H90287   6.932   1.450   7.953  1.7658  0.3716 -0.8089
  669MOL0     H90288   6.859   1.497   8.109  0.6247  1.1361  0.9087
  669MOL0     H90289   6.897   1.672   7.865  2.1481 -2.9729  0.3700
  669MOL0     H90290   6.867   1.745   8.021  1.4837  0.3605 -0.1555
  669MOL0     H90291   6.685   1.538   7.884  2.1993 -0.1163  0.4623
  669MOL0     H90292   6.655   1.590   8.049 -0.4423 -0.7307 -0.3097
  669MOL0     H90293   6.506   1.686   7.862  0.7493 -0.1101  0.7955
  669MOL0     H90294   6.646   1.773   7.806  2.5398  1.3520  0.9489
  669MOL0     H90295   6.660   1.900   8.037 -1.5985  1.7302  3.0142
  669MOL0     H90296   6.522   1.795   8.084  3.6337 -0.1803  1.1625
  669MOL0     H90297   7.434   1.645   7.891 -0.5422  0.5689  0.8170
  669MOL0     H90298   7.652   1.555   7.801  2.7946  2.9564 -0.3393
  669MOL0     H90299   7.957   1.240   7.905  0.8479  1.4595 -3.7183
  669MOL0     H90300   8.160   1.098   7.858  1.1645  1.0993 -1.5383
  669MOL0     H90301   9.906   1.329   7.614  2.6256  3.3009  0.0621
  669MOL0     H90302  10.131   1.246   7.534 -1.4901 -0.4147  0.5687
  669MOL0     H90303  10.404   1.072   7.183  1.0027 -1.3581 -0.9465
  669MOL0     H90304  10.614   1.046   7.029  1.5409  0.2768 -1.1465
  669MOL0     H90305  10.778   1.386   6.812  2.0966 -0.2485 -0.2470
  669MOL0     H90306  10.840   1.438   6.977  0.4188 -0.7689  1.3329
  669MOL0     H90307  11.030   1.406   6.821 -0.2188  1.3291  2.2383
  669MOL0     H90308  10.946   1.248   6.772 -1.8179  1.4261 -0.0166
  669MOL0     H90309  11.140   1.206   6.911  0.6080  3.0173 -1.4204
  669MOL0     H90310  10.990   1.191   7.010  0.6095 -2.1677 -1.0391
  669MOL0     H90311  11.040   1.424   7.108 -0.0904 -0.8154  0.4305
  669MOL0     H90312  11.171   1.443   7.005 -1.5219 -0.4382 -1.4102
  669MOL0     H90313  11.275   1.199   7.344 -2.3353 -0.2053  1.1913
  669MOL0     H90314  10.639   1.477   7.026  0.1781  1.6416  3.1101
  669MOL0     H90315  10.438   1.488   7.142 -0.8867  0.0369 -2.2090
  670MOL0     O90316   0.951   3.239   5.918  0.2723 -0.1533 -0.3655
  670MOL0     C90317   0.995   3.266   6.030 -0.3304  0.0232 -0.2357
  670MOL0     O90318   0.933   3.256   6.145 -0.2928  0.6105 -0.1548
  670MOL0     C90319   0.796   3.249   6.164 -0.9392  0.1051  0.7801
  670MOL0     C90320   0.695   3.249   6.063 -0.1278  0.6150 -1.2801
  670MOL0     C90321   0.570   3.201   6.100 -0.1544  1.0605  0.4498
  670MOL0     C90322   0.536   3.180   6.231 -0.1961 -0.1559 -1.0414
  670MOL0     O90323   0.403   3.149   6.251 -0.5841  0.9142 -0.0095
  670MOL0     C90324   0.359   3.122   6.382 -1.0401  0.2900 -0.0445
  670MOL0     C90325   0.210   3.094   6.388 -0.2197  0.4484  0.2224
  670MOL0     C90326   0.175   3.057   6.528 -0.8697 -1.1161 -0.0024
  670MOL0     C90327   0.038   3.005   6.543  0.0790  0.9260  0.3535
  670MOL0     C90328  -0.011   2.995   6.683  0.0348 -0.4270  0.7056
  670MOL0     C90329  -0.166   2.990   6.683  0.3712  0.9977  0.6390
  670MOL0     C90330  -0.213   2.849   6.652 -0.1016  0.0343  0.2274
  670MOL0     C90331  -0.281   2.770   6.775 -0.4849 -0.8541  0.8499
  670MOL0     N90332  -0.382   2.858   6.834 -0.0924  0.2693 -0.3271
  670MOL0     C90333  -0.361   2.941   6.942 -0.0270  0.2031 -0.4745
  670MOL0     C90334  -0.480   3.001   6.950  0.4296 -0.7478 -0.4202
  670MOL0     C90335  -0.515   3.089   7.067  0.3189 -0.1125 -0.2011
  670MOL0     C90336  -0.674   3.090   7.082 -1.0696 -0.3112 -0.1978
  670MOL0     C90337  -0.717   3.136   7.221 -0.9381  0.7028  0.5266
  670MOL0     C90338  -0.871   3.115   7.245 -0.5575  0.0538 -0.3219
  670MOL0     O90339  -0.893   3.131   7.384 -0.1658 -0.5164  0.0597
  670MOL0     C90340  -0.875   3.254   7.427 -0.1900 -0.8031 -0.5171
  670MOL0     C90341  -0.848   3.269   7.560  0.2363 -0.2041 -0.5197
  670MOL0     C90342  -0.829   3.394   7.628  0.2501 -0.3247 -0.0429
  670MOL0     C90343  -0.779   3.391   7.771 -1.2085  0.5960 -0.3768
  670MOL0     C90344  -0.864   3.511   7.556 -0.2971  0.2722  0.4214
  670MOL0     C90345  -0.851   3.645   7.613  0.1712  0.1011 -0.1143
  670MOL0     O90346  -0.852   3.662   7.746 -0.0348  0.3466  0.2663
  670MOL0     C90347  -0.797   3.781   7.793 -0.2492  0.2500  0.6890
  670MOL0     C90348  -0.864   3.897   7.778 -0.5100 -0.4272 -0.2377
  670MOL0     C90349  -0.821   4.020   7.820 -0.6647 -0.7657  0.2996
  670MOL0     C90350  -0.688   4.037   7.876  0.0527  0.6805 -0.5415
  670MOL0     O90351  -0.639   4.155   7.917  0.2525 -0.5724  0.4525
  670MOL0     C90352  -0.632   4.259   7.810  0.4991 -0.2299  0.0910
  670MOL0     C90353  -0.570   4.388   7.855  0.1405 -0.5737  0.4557
  670MOL0     C90354  -0.669   4.478   7.927  0.2499 -0.3534 -0.3486
  670MOL0     C90355  -0.607   4.577   8.023  0.2042 -0.2135 -0.2225
  670MOL0     C90356  -0.588   4.523   8.160 -0.4203 -0.7285  0.3825
  670MOL0     C90357  -0.693   4.418   8.211 -0.4990 -0.3606  0.3794
  670MOL0     C90358  -0.685   4.417   8.369  0.4714 -0.0266  0.5628
  670MOL0     C90359  -0.749   4.285   8.412  0.0255  0.0180 -0.8311
  670MOL0    Cl90360  -0.822   4.335   8.573  0.4416  0.6321 -0.2506
  670MOL0     C90361  -0.619   3.920   7.893  0.0978 -0.7137  0.4193
  670MOL0     C90362  -0.674   3.796   7.847 -0.0417 -0.5549 -0.3824
  670MOL0     O90363  -0.817   3.736   7.532  0.2586  0.0621  0.4543
  670MOL0     C90364  -0.896   3.495   7.425 -0.5800 -0.1805 -0.5556
  670MOL0     C90365  -0.904   3.370   7.361 -0.2617 -0.9817  0.9951
  670MOL0     N90366  -0.566   2.953   6.863  1.3055  0.0325  0.6680
  670MOL0     N90367  -0.504   2.873   6.786 -0.6156  0.7037 -0.4354
  670MOL0     C90368   0.637   3.194   6.332  0.3082  0.3849 -0.6427
  670MOL0     C90369   0.766   3.222   6.296  0.2451 -0.0321  0.8371
  670MOL0     C90370   1.140   3.295   6.050  0.1587  0.1565 -0.1682
  670MOL0     C90371   1.226   3.278   5.944  0.0818 -0.0511  0.6244
  670MOL0     C90372   1.362   3.303   5.958  0.2020  0.2546 -0.4174
  670MOL0     C90373   1.414   3.356   6.076 -0.8121 -0.5810 -0.2362
  670MOL0     O90374   1.547   3.388   6.098  0.4161 -0.2274  0.7954
  670MOL0     C90375   1.646   3.362   5.996  0.3704 -0.2075 -0.6040
  670MOL0     C90376   1.657   3.486   5.901  0.1124  0.6353  0.5765
  670MOL0     C90377   1.712   3.611   5.975 -0.4272 -0.0657 -0.3052
  670MOL0     C90378   1.738   3.722   5.878  0.4139  0.2367 -0.4317
  670MOL0     C90379   1.611   3.770   5.833  0.3427 -1.0316 -0.3450
  670MOL0     C90380   1.505   3.805   5.782  0.5208 -0.5907  0.4167
  670MOL0     C90381   1.331   3.375   6.190  0.7862  0.1569 -0.5867
  670MOL0     C90382   1.195   3.345   6.171 -0.0459  0.7153 -0.1355
  670MOL0     H90383   0.715   3.275   5.960 -1.7510  4.1059 -0.8512
  670MOL0     H90384   0.493   3.183   6.026 -0.7238  0.8882  1.0770
  670MOL0     H90385   0.404   3.040   6.439 -0.1747  0.3503 -0.6083
  670MOL0     H90386   0.383   3.213   6.437  4.2409 -0.5640 -0.3903
  670MOL0     H90387   0.161   3.185   6.352 -1.1608 -0.8700 -2.0507
  670MOL0     H90388   0.187   3.009   6.324 -1.7774 -1.9459  3.6199
  670MOL0     H90389   0.247   2.984   6.566  0.6854  0.9809  1.3009
  670MOL0     H90390   0.185   3.144   6.594  0.1953 -0.8099 -0.5416
  670MOL0     H90391  -0.027   3.067   6.481 -0.6723  1.7287  1.8885
  670MOL0     H90392   0.040   2.903   6.502  2.5349  0.5437  1.2209
  670MOL0     H90393   0.027   2.906   6.734 -2.1309 -1.5793  0.4164
  670MOL0     H90394   0.020   3.086   6.735  0.8711  0.3977 -1.1501
  670MOL0     H90395  -0.198   3.018   6.784  2.1609 -1.7224  2.0946
  670MOL0     H90396  -0.203   3.059   6.607  1.8834 -0.3195 -1.4165
  670MOL0     H90397  -0.289   2.875   6.577  0.1613 -0.5579 -0.2460
  670MOL0     H90398  -0.138   2.792   6.597 -1.8388 -1.0226 -1.1726
  670MOL0     H90399  -0.211   2.742   6.855 -1.2529 -0.5354  1.6606
  670MOL0     H90400  -0.325   2.678   6.737  0.7911 -0.3022 -2.2129
  670MOL0     H90401  -0.274   2.964   7.002 -0.1780 -0.4246 -0.0054
  670MOL0     H90402  -0.456   3.068   7.156 -2.6515  0.0455  1.9771
  670MOL0     H90403  -0.481   3.190   7.041  1.6751 -0.8486 -1.4080
  670MOL0     H90404  -0.711   2.989   7.065  0.8802 -1.0503 -0.2467
  670MOL0     H90405  -0.722   3.153   7.006 -0.9842  0.9393  0.7462
  670MOL0     H90406  -0.689   3.240   7.237  3.1024  0.0553 -1.1523
  670MOL0     H90407  -0.662   3.075   7.293  2.0444  0.8821 -1.4517
  670MOL0     H90408  -0.910   3.014   7.228  0.0345 -0.1062 -0.8073
  670MOL0     H90409  -0.920   3.187   7.179 -1.7169  0.0011  0.4656
  670MOL0     H90410  -0.842   3.179   7.619  0.4491  0.2366  0.1400
  670MOL0     H90411  -0.712   3.472   7.800 -3.3602  2.3503 -0.0291
  670MOL0     H90412  -0.853   3.372   7.850 -0.2781  0.0049  0.3837
  670MOL0     H90413  -0.719   3.300   7.781  0.5838  1.6654 -1.0518
  670MOL0     H90414  -0.962   3.889   7.731 -1.6339 -0.7791  2.0290
  670MOL0     H90415  -0.878   4.111   7.800  2.2664  0.8130 -1.6951
  670MOL0     H90416  -0.588   4.213   7.721 -0.8540 -1.0004 -0.2128
  670MOL0     H90417  -0.734   4.285   7.780  1.1850  0.8550 -1.4317
  670MOL0     H90418  -0.483   4.355   7.912  0.5251 -1.3832 -0.5648
  670MOL0     H90419  -0.544   4.450   7.768 -0.2641  0.0558  0.7739
  670MOL0     H90420  -0.751   4.417   7.966  0.4796 -1.9740 -2.2955
  670MOL0     H90421  -0.720   4.540   7.852 -1.1320  1.6123  2.0476
  670MOL0     H90422  -0.515   4.618   7.981 -1.3836  1.9719 -1.8141
  670MOL0     H90423  -0.677   4.661   8.028  0.2682 -0.2308  1.6646
  670MOL0     H90424  -0.587   4.606   8.231 -3.3076  2.0214 -2.4910
  670MOL0     H90425  -0.490   4.474   8.167  0.2906  0.3227 -1.6281
  670MOL0     H90426  -0.794   4.451   8.182 -0.7228  0.8693  2.3688
  670MOL0     H90427  -0.657   4.324   8.168  3.9374  1.0858  0.4525
  670MOL0     H90428  -0.744   4.497   8.416  1.9349  1.6009 -0.2696
  670MOL0     H90429  -0.582   4.422   8.405  0.9309  0.9171 -0.8032
  670MOL0     H90430  -0.677   4.206   8.435  0.2823 -0.6406 -3.5412
  670MOL0     H90431  -0.827   4.257   8.340  1.2907  2.2173 -3.2240
  670MOL0     H90432  -0.523   3.920   7.945 -0.7066 -2.0776  2.0323
  670MOL0     H90433  -0.614   3.710   7.873  0.4053  0.0109  0.5426
  670MOL0     H90434  -0.912   3.587   7.369 -0.4879 -0.3226 -0.8167
  670MOL0     H90435  -0.931   3.367   7.256  4.4815 -5.3229 -0.5417
  670MOL0     H90436   0.594   3.173   6.429 -1.1640 -0.2614 -1.3978
  670MOL0     H90437   0.843   3.223   6.373  0.7290  0.7382  0.3544
  670MOL0     H90438   1.180   3.242   5.852 -0.8550  1.6740  0.3770
  670MOL0     H90439   1.427   3.273   5.876  0.0852 -0.8660 -0.1139
  670MOL0     H90440   1.734   3.356   6.061 -2.3384 -2.8900  3.2557
  670MOL0     H90441   1.633   3.269   5.940 -2.5635 -0.3014  0.1108
  670MOL0     H90442   1.563   3.512   5.852 -1.3455  0.1979  2.9764
  670MOL0     H90443   1.722   3.464   5.816  0.8269 -3.0152  1.9007
  670MOL0     H90444   1.805   3.580   6.026 -0.3200  0.6753 -0.0403
  670MOL0     H90445   1.633   3.639   6.044 -0.3127 -2.6155  0.9857
  670MOL0     H90446   1.803   3.687   5.798 -0.6592  1.2468 -1.8068
  670MOL0     H90447   1.795   3.801   5.928  2.9918  0.8579 -4.0114
  670MOL0     H90448   1.416   3.820   5.724  1.8660  0.7856 -1.3745
  670MOL0     H90449   1.369   3.405   6.287  1.5405 -2.7257  0.1163
  670MOL0     H90450   1.130   3.353   6.257  0.8838  2.4370  0.4649
  671MOL0     O90451   1.568   7.662   8.049  0.7978 -0.5391 -0.0462
  671MOL0     C90452   1.569   7.567   7.974  0.2373  0.3501 -0.7286
  671MOL0     O90453   1.464   7.481   7.950 -0.4143  0.7505  0.1662
  671MOL0     C90454   1.342   7.527   7.986  1.5186 -0.0423 -0.2672
  671MOL0     C90455   1.254   7.584   7.891 -0.0842  0.2097  0.2450
  671MOL0     C90456   1.115   7.593   7.916 -0.3260 -0.0803 -0.6044
  671MOL0     C90457   1.069   7.565   8.048 -0.5743 -0.1251 -0.5307
  671MOL0     O90458   0.934   7.553   8.075 -0.2842  0.8596  0.4069
  671MOL0     C90459   0.874   7.689   8.065 -0.1781 -0.9841  0.5789
  671MOL0     C90460   0.721   7.671   8.073 -0.2794  0.2510  0.9043
  671MOL0     C90461   0.650   7.756   7.966  0.3672 -0.4651 -0.3984
  671MOL0     C90462   0.502   7.737   7.984 -0.0650 -0.4961  0.7603
  671MOL0     C90463   0.434   7.811   7.866  0.5455 -0.3470 -0.3393
  671MOL0     C90464   0.408   7.714   7.756 -0.0562 -0.6720  0.4663
  671MOL0     C90465   0.321   7.773   7.642 -0.4576  0.6005  0.0696
  671MOL0     C90466   0.173   7.780   7.687  0.4383 -0.3151  0.7144
  671MOL0     N90467   0.091   7.707   7.600  0.3034  0.6808  0.1597
  671MOL0     C90468   0.089   7.572   7.585 -0.2809 -0.0682  0.2748
  671MOL0     C90469  -0.000   7.555   7.486  0.0738 -0.1378  0.2168
  671MOL0     C90470  -0.041   7.419   7.445 -0.0640  0.1697  0.0892
  671MOL0     C90471  -0.055   7.407   7.298 -0.7993 -0.0978  0.5158
  671MOL0     C90472  -0.066   7.257   7.249 -0.4050  0.7634 -0.5479
  671MOL0     C90473  -0.048   7.246   7.097 -0.8511  0.0721  0.3434
  671MOL0     O90474   0.082   7.299   7.072 -1.0724  0.4024  0.3756
  671MOL0     C90475   0.192   7.209   7.075 -0.7003 -0.6880 -0.3926
  671MOL0     C90476   0.314   7.272   7.059  0.5384 -0.0535  0.4514
  671MOL0     C90477   0.439   7.206   7.089 -0.7462  0.0716  0.3238
  671MOL0     C90478   0.557   7.295   7.093  0.0002 -0.1428 -0.1174
  671MOL0     C90479   0.433   7.077   7.131 -0.7165  0.7209 -0.9470
  671MOL0     C90480   0.561   6.993   7.153  0.0046 -0.0167 -0.6280
  671MOL0     O90481   0.683   7.010   7.087 -0.7563  0.2142 -0.1101
  671MOL0     C90482   0.793   6.943   7.135 -0.9035  0.1515  0.5075
  671MOL0     C90483   0.819   6.801   7.116  0.4111 -0.1334 -0.6197
  671MOL0     C90484   0.933   6.744   7.185 -0.1794 -0.8565  0.6018
  671MOL0     C90485   1.030   6.821   7.250 -0.4185  0.2962  0.9167
  671MOL0     O90486   1.139   6.772   7.317  0.0074 -0.3583  0.7311
  671MOL0     C90487   1.234   6.682   7.251 -0.0454 -0.1052  0.3708
  671MOL0     C90488   1.357   6.676   7.339 -0.1289  0.5071  0.1633
  671MOL0     C90489   1.490   6.680   7.262 -0.3271 -0.6475  0.0228
  671MOL0     C90490   1.613   6.628   7.336 -0.1835  0.8037 -0.4930
  671MOL0     C90491   1.744   6.626   7.251  0.9349 -0.2822  0.4578
  671MOL0     C90492   1.860   6.595   7.339 -0.3077  0.2481 -0.1178
  671MOL0     C90493   1.991   6.614   7.256  0.4578  0.4763 -0.8461
  671MOL0     C90494   2.110   6.602   7.348 -0.4360  0.3348  0.1125
  671MOL0    Cl90495   2.252   6.575   7.251 -0.5258 -0.2312 -0.3469
  671MOL0     C90496   1.010   6.962   7.245  0.8017 -0.4021 -0.7634
  671MOL0     C90497   0.892   7.023   7.198 -0.6101  0.1805 -0.2998
  671MOL0     O90498   0.547   6.911   7.244  0.2959  1.0469  0.3324
  671MOL0     C90499   0.309   7.004   7.144 -0.1267  0.4441  0.8134
  671MOL0     C90500   0.194   7.072   7.112  0.3407  1.1240 -1.0483
  671MOL0     N90501  -0.049   7.677   7.439  0.0228 -0.4384  0.1315
  671MOL0     N90502   0.012   7.768   7.508  0.5817 -0.3370  0.5040
  671MOL0     C90503   1.156   7.520   8.145 -0.3288  0.7675 -0.5582
  671MOL0     C90504   1.289   7.487   8.112  0.2920  0.2713  0.3068
  671MOL0     C90505   1.696   7.532   7.912 -0.0367  0.0786  0.4860
  671MOL0     C90506   1.696   7.453   7.797 -0.1845  0.1371  0.4217
  671MOL0     C90507   1.817   7.415   7.734 -0.5837  0.7102 -0.0888
  671MOL0     C90508   1.941   7.460   7.778 -0.1506  0.4076  0.1778
  671MOL0     O90509   2.061   7.440   7.713 -0.3772  0.3950 -0.9859
  671MOL0     C90510   2.066   7.390   7.582 -0.8800  0.5271 -0.3688
  671MOL0     C90511   2.178   7.457   7.496 -0.3635  0.5238  0.5971
  671MOL0     C90512   2.180   7.425   7.343  0.5554  0.3399  0.2035
  671MOL0     C90513   2.317   7.455   7.271  0.3415  0.3657  0.2034
  671MOL0     C90514   2.408   7.341   7.294 -0.1182  0.2217  0.0467
  671MOL0     C90515   2.505   7.261   7.312  0.9841  0.3784  0.2006
  671MOL0     C90516   1.939   7.556   7.885  0.0750 -0.5173 -0.5696
  671MOL0     C90517   1.820   7.591   7.953 -0.2671  0.1426  0.4720
  671MOL0     H90518   1.284   7.585   7.787 -1.1912 -3.9308 -0.2915
  671MOL0     H90519   1.045   7.630   7.842  1.7422  5.2499 -0.3645
  671MOL0     H90520   0.900   7.748   8.154 -2.0310 -1.1922  1.2967
  671MOL0     H90521   0.910   7.750   7.981 -0.8498 -1.0955  0.2075
  671MOL0     H90522   0.710   7.564   8.056  0.4518  0.2537  0.3510
  671MOL0     H90523   0.685   7.693   8.174  0.4373  0.4787  1.1159
  671MOL0     H90524   0.685   7.856   7.992  0.9050 -1.1770  1.7680
  671MOL0     H90525   0.695   7.747   7.867  1.2921  1.1427 -0.1657
  671MOL0     H90526   0.471   7.632   7.982 -0.5881 -0.3459 -0.5408
  671MOL0     H90527   0.464   7.777   8.078 -0.9121  0.0303  0.2121
  671MOL0     H90528   0.340   7.849   7.906  0.4733 -0.1388 -0.6949
  671MOL0     H90529   0.492   7.893   7.823  3.1325 -2.3691 -1.0189
  671MOL0     H90530   0.511   7.684   7.731 -0.0152 -0.1017 -0.0569
  671MOL0     H90531   0.344   7.629   7.782 -0.6514 -0.9227 -1.6258
  671MOL0     H90532   0.353   7.873   7.611 -1.8813  1.4059  1.0679
  671MOL0     H90533   0.331   7.701   7.560  1.2461  0.0528  0.6984
  671MOL0     H90534   0.136   7.883   7.687 -1.4770 -0.8718 -2.4957
  671MOL0     H90535   0.158   7.730   7.783 -2.3163  0.2777  0.6854
  671MOL0     H90536   0.147   7.507   7.650 -0.4687 -0.1064  0.4064
  671MOL0     H90537   0.036   7.351   7.481  0.0806 -0.1746 -0.8296
  671MOL0     H90538  -0.135   7.388   7.491  0.5879  0.2498  1.5005
  671MOL0     H90539   0.037   7.442   7.251 -0.2066 -1.7235  0.3828
  671MOL0     H90540  -0.146   7.460   7.267 -1.4715 -0.6482  1.5105
  671MOL0     H90541  -0.166   7.223   7.277 -0.4737 -0.3347 -2.0129
  671MOL0     H90542   0.012   7.193   7.290 -1.0539  0.3908  0.1206
  671MOL0     H90543  -0.119   7.305   7.039  0.9155  0.1970 -1.8484
  671MOL0     H90544  -0.055   7.142   7.063  0.1717  0.4739 -1.1799
  671MOL0     H90545   0.308   7.377   7.032 -1.1196 -0.3746 -0.6072
  671MOL0     H90546   0.634   7.249   7.030 -1.2746  0.4241 -2.1890
  671MOL0     H90547   0.531   7.396   7.059 -1.7839 -0.3484  0.5439
  671MOL0     H90548   0.593   7.304   7.196  0.3529 -5.3733  0.4600
  671MOL0     H90549   0.743   6.736   7.073  1.4942 -1.5316 -0.5190
  671MOL0     H90550   0.944   6.638   7.202 -0.9193 -1.1358 -0.5873
  671MOL0     H90551   1.202   6.578   7.236 -1.8194  0.3876  0.5796
  671MOL0     H90552   1.273   6.711   7.152  0.4825  1.1811  0.9373
  671MOL0     H90553   1.364   6.767   7.400  1.9542  2.1455 -2.3330
  671MOL0     H90554   1.362   6.585   7.399 -0.9861  0.5345  0.2903
  671MOL0     H90555   1.506   6.787   7.250  2.6492 -1.0786 -0.7166
  671MOL0     H90556   1.475   6.621   7.171 -1.5802  0.5110 -0.5452
  671MOL0     H90557   1.631   6.705   7.412  3.5864  1.1926 -1.5662
  671MOL0     H90558   1.593   6.531   7.382  0.2401  1.2605  0.7063
  671MOL0     H90559   1.758   6.719   7.196 -0.3263  0.8533  1.9737
  671MOL0     H90560   1.745   6.550   7.173 -0.5148 -1.4631  1.5305
  671MOL0     H90561   1.862   6.665   7.422  3.4826  1.3945 -0.9670
  671MOL0     H90562   1.865   6.496   7.387  0.5267  0.2576 -0.1582
  671MOL0     H90563   1.982   6.701   7.191  0.1042  0.2951 -1.0416
  671MOL0     H90564   2.004   6.528   7.189 -1.1995 -0.0308 -0.5827
  671MOL0     H90565   2.099   6.514   7.413  3.0962  0.3104  0.8576
  671MOL0     H90566   2.127   6.697   7.400 -0.4100 -0.2171  1.1331
  671MOL0     H90567   1.078   7.029   7.295 -0.5906 -0.3165  1.1144
  671MOL0     H90568   0.889   7.130   7.212 -0.7473 -0.0187  1.3411
  671MOL0     H90569   0.305   6.904   7.184 -0.1491 -0.5166 -1.4474
  671MOL0     H90570   0.100   7.018   7.118  0.6443  0.7252  0.3539
  671MOL0     H90571   1.115   7.496   8.243 -0.0949  0.4109 -0.5476
  671MOL0     H90572   1.346   7.441   8.192  0.6109  0.7054  0.3352
  671MOL0     H90573   1.605   7.407   7.759  0.3999 -0.6307 -0.0839
  671MOL0     H90574   1.818   7.350   7.648  4.0633 -0.9264  0.9120
  671MOL0     H90575   2.068   7.281   7.590 -4.2214  0.4165  0.6041
  671MOL0     H90576   1.971   7.408   7.531 -1.6632 -2.1237 -0.0041
  671MOL0     H90577   2.273   7.430   7.544 -0.5260 -2.6402 -0.6574
  671MOL0     H90578   2.167   7.566   7.504 -1.3447  0.3151  3.0511
  671MOL0     H90579   2.105   7.489   7.296  1.0782 -1.1842 -3.0223
  671MOL0     H90580   2.158   7.318   7.334 -0.3584  0.4579  0.8912
  671MOL0     H90581   2.350   7.554   7.305  1.0896 -0.5022  2.1355
  671MOL0     H90582   2.301   7.468   7.163 -3.7245 -1.6138  0.3728
  671MOL0     H90583   2.570   7.194   7.364  0.3959 -1.2210 -1.0411
  671MOL0     H90584   2.033   7.609   7.898 -1.5869  2.2722  1.3376
  671MOL0     H90585   1.819   7.666   8.031 -1.1025  1.0931 -0.4229
  672MOL0     O90586   9.583   7.373  10.150 -0.1600  0.0853 -0.2025
  672MOL0     C90587   9.518   7.480  10.139  0.6324  0.2912 -0.5024
  672MOL0     O90588   9.409   7.521  10.221 -0.9079 -0.5327  0.4343
  672MOL0     C90589   9.329   7.430  10.281 -0.6116 -0.8437  0.0294
  672MOL0     C90590   9.335   7.292  10.250  0.0182 -0.0252 -0.4049
  672MOL0     C90591   9.241   7.199  10.313  0.2220 -0.7167 -0.6904
  672MOL0     C90592   9.142   7.254  10.398 -0.8368  0.3128 -0.2452
  672MOL0     O90593   9.047   7.181  10.464 -0.2193  0.2993 -0.2923
  672MOL0     C90594   9.028   7.043  10.428  0.4653  0.1677 -0.2568
  672MOL0     C90595   8.902   6.985  10.470  0.9182 -0.5979  0.7220
  672MOL0     C90596   8.883   6.990  10.617 -0.4613 -0.6233  0.6709
  672MOL0     C90597   8.819   6.869  10.692  0.3154 -0.1232 -0.3896
  672MOL0     C90598   8.827   6.884  10.850 -1.2550 -0.9009 -0.4619
  672MOL0     C90599   8.796   6.753  10.916  0.2938  0.2937 -0.2834
  672MOL0     C90600   8.646   6.708  10.899 -0.2014 -0.2264  0.2312
  672MOL0     C90601   8.612   6.588  10.994  0.7592 -0.8124 -0.0574
  672MOL0     N90602   8.650   6.457  10.934  0.1378  1.1120 -0.1730
  672MOL0     C90603   8.568   6.347  10.897 -0.1586  0.5599  0.1464
  672MOL0     C90604   8.655   6.249  10.866 -0.3505 -0.7048 -0.1820
  672MOL0     C90605   8.619   6.110  10.817  0.3599 -0.3962  0.2942
  672MOL0     C90606   8.704   6.093  10.688  0.2079  0.5569 -0.0994
  672MOL0     C90607   8.695   5.948  10.632  0.8420  0.8884  0.3956
  672MOL0     C90608   8.554   5.909  10.586 -0.3805  0.9017 -0.2134
  672MOL0     O90609   8.471   5.867  10.699 -0.1452 -0.3471 -0.4405
  672MOL0     C90610   8.334   5.862  10.679  0.4992 -0.9753  0.0482
  672MOL0     C90611   8.256   5.823  10.791  0.3259  0.8084  0.8054
  672MOL0     C90612   8.115   5.803  10.779 -0.4596  0.3526  0.3745
  672MOL0     C90613   8.039   5.744  10.899  0.2190 -0.6308 -0.0497
  672MOL0     C90614   8.048   5.825  10.655  0.4380  0.8208 -0.0987
  672MOL0     C90615   7.905   5.817  10.649 -0.1473 -0.0105  0.6800
  672MOL0     O90616   7.829   5.884  10.742  0.3643  0.1542 -0.3718
  672MOL0     C90617   7.693   5.876  10.728  0.2932  0.6965  0.3191
  672MOL0     C90618   7.632   5.750  10.736  0.2359 -0.3830  0.9120
  672MOL0     C90619   7.492   5.731  10.728 -1.0842 -0.4007  0.6393
  672MOL0     C90620   7.411   5.840  10.718  0.2471 -0.0208 -0.1367
  672MOL0     O90621   7.274   5.836  10.706 -0.4690 -0.6900  0.0467
  672MOL0     C90622   7.205   5.707  10.752 -0.6591 -0.2170  1.0022
  672MOL0     C90623   7.061   5.732  10.720 -0.0507  0.7712 -0.1118
  672MOL0     C90624   6.974   5.611  10.765  0.3415 -0.0936  0.5993
  672MOL0     C90625   6.820   5.644  10.754 -0.6762  0.3855 -0.0208
  672MOL0     C90626   6.735   5.540  10.832  0.1757  0.2824 -0.0749
  672MOL0     C90627   6.709   5.605  10.971  0.0145  0.0422  0.6607
  672MOL0     C90628   6.630   5.508  11.062  0.4315  0.0206 -0.1027
  672MOL0     C90629   6.493   5.492  11.008  0.5151 -0.6792 -0.0009
  672MOL0    Cl90630   6.404   5.654  11.022  0.2485  0.0861  0.2476
  672MOL0     C90631   7.462   5.968  10.713  0.0634 -0.2962  0.0874
  672MOL0     C90632   7.605   5.986  10.713 -0.0366 -0.2018 -0.0601
  672MOL0     O90633   7.862   5.768  10.541  0.1416  0.5326 -0.7947
  672MOL0     C90634   8.122   5.856  10.543  0.4843 -0.4600 -0.1152
  672MOL0     C90635   8.264   5.875  10.553 -0.2607 -0.1227  0.4560
  672MOL0     N90636   8.782   6.298  10.888 -0.9026 -0.8902 -0.6177
  672MOL0     N90637   8.779   6.417  10.929  0.2329  0.5136 -0.1453
  672MOL0     C90638   9.150   7.387  10.428 -0.7100 -0.3005 -0.1025
  672MOL0     C90639   9.236   7.477  10.373 -0.4479  0.3661  0.3259
  672MOL0     C90640   9.552   7.561  10.029 -0.3273  0.4556 -0.4922
  672MOL0     C90641   9.595   7.496   9.916 -0.6405 -0.1185  0.0496
  672MOL0     C90642   9.639   7.574   9.807 -0.6633  0.3647  0.0335
  672MOL0     C90643   9.596   7.707   9.799 -0.2384 -0.7046 -0.1975
  672MOL0     O90644   9.590   7.778   9.684  0.1333  0.4874 -0.2119
  672MOL0     C90645   9.642   7.730   9.561 -0.2620 -0.1103 -0.6529
  672MOL0     C90646   9.565   7.801   9.448 -0.4346  0.9505  0.0892
  672MOL0     C90647   9.628   7.768   9.305 -0.1492  0.9983 -0.2556
  672MOL0     C90648   9.591   7.629   9.247  0.4998 -0.4662  0.3738
  672MOL0     C90649   9.444   7.614   9.240  0.2694  0.9674 -0.4507
  672MOL0     C90650   9.328   7.591   9.210  0.6533  0.0045  0.0905
  672MOL0     C90651   9.549   7.774   9.914 -0.1852  0.3837  0.0267
  672MOL0     C90652   9.532   7.695  10.028 -0.5558 -0.9240  0.1541
  672MOL0     H90653   9.402   7.235  10.188 -2.8840 -2.1216 -1.8688
  672MOL0     H90654   9.244   7.097  10.278  1.5249 -1.0517  0.3209
  672MOL0     H90655   9.023   7.035  10.319  1.0023  0.3306 -0.2964
  672MOL0     H90656   9.107   6.979  10.468 -0.1578 -0.4415  0.0033
  672MOL0     H90657   8.822   7.043  10.423 -0.3448 -1.2319  2.0126
  672MOL0     H90658   8.893   6.879  10.444 -0.9533 -0.8554  2.1668
  672MOL0     H90659   8.985   6.992  10.659  0.3057 -2.7538 -0.9274
  672MOL0     H90660   8.831   7.084  10.639  0.3792  0.5588 -1.9812
  672MOL0     H90661   8.713   6.872  10.665  0.4888  1.0336 -0.9922
  672MOL0     H90662   8.856   6.772  10.658  1.0038  0.2468 -0.7213
  672MOL0     H90663   8.924   6.925  10.880 -2.0658 -0.5059  1.8656
  672MOL0     H90664   8.751   6.955  10.884 -0.8096 -1.4175  1.8092
  672MOL0     H90665   8.868   6.681  10.876  1.7844  2.8192 -2.5072
  672MOL0     H90666   8.822   6.753  11.022 -0.4400 -0.7026 -0.0902
  672MOL0     H90667   8.580   6.792  10.921 -1.7435 -1.2707 -0.2560
  672MOL0     H90668   8.626   6.681  10.795 -4.2375 -2.8061  1.4250
  672MOL0     H90669   8.507   6.586  11.022  0.3979  1.9784 -0.8314
  672MOL0     H90670   8.657   6.607  11.092 -0.1932 -1.9601  0.6181
  672MOL0     H90671   8.460   6.340  10.885 -0.2607  2.3143 -0.2446
  672MOL0     H90672   8.653   6.034  10.887 -0.8476  0.0835  1.4309
  672MOL0     H90673   8.515   6.100  10.783  0.5724 -3.2894  0.1926
  672MOL0     H90674   8.811   6.108  10.703  0.1822  2.0740 -1.1976
  672MOL0     H90675   8.686   6.161  10.604  1.0627 -1.0466 -1.6442
  672MOL0     H90676   8.734   5.881  10.710 -2.6318 -1.9697 -0.0676
  672MOL0     H90677   8.764   5.935  10.548 -1.9987 -0.5815 -1.8784
  672MOL0     H90678   8.562   5.826  10.515 -0.2399  0.2773  0.5181
  672MOL0     H90679   8.511   5.996  10.536 -1.5790 -0.6782 -2.1044
  672MOL0     H90680   8.307   5.805  10.885 -0.9775 -0.8588  1.2484
  672MOL0     H90681   7.944   5.695  10.876 -1.0845  1.9840 -0.5028
  672MOL0     H90682   8.105   5.680  10.959 -1.3103 -2.7990 -0.5417
  672MOL0     H90683   8.015   5.833  10.957 -1.8192  0.0472 -1.7948
  672MOL0     H90684   7.697   5.665  10.753  0.9549  0.4811  2.7472
  672MOL0     H90685   7.461   5.627  10.733  1.2860 -1.3270 -1.3305
  672MOL0     H90686   7.221   5.625  10.681 -0.7555  0.3616  0.2951
  672MOL0     H90687   7.214   5.681  10.858 -2.2277  2.1615  1.7992
  672MOL0     H90688   7.027   5.823  10.771 -1.1279  0.6140 -0.5214
  672MOL0     H90689   7.045   5.745  10.613 -2.3037 -1.8202 -0.2166
  672MOL0     H90690   6.988   5.590  10.872 -2.0095  1.6746  1.3355
  672MOL0     H90691   6.989   5.518  10.708 -1.8256 -1.1247  1.6010
  672MOL0     H90692   6.795   5.741  10.797 -0.3193 -0.7598  3.0176
  672MOL0     H90693   6.782   5.652  10.652  0.4561  0.0288 -0.4920
  672MOL0     H90694   6.791   5.446  10.829 -0.8304 -0.3615  0.8171
  672MOL0     H90695   6.639   5.520  10.783 -2.3157  2.4623  3.4417
  672MOL0     H90696   6.805   5.638  11.012 -0.8516  3.2574  0.3921
  672MOL0     H90697   6.659   5.701  10.952  1.9212  0.6043 -2.2412
  672MOL0     H90698   6.618   5.565  11.155 -2.4235 -0.1180 -0.3215
  672MOL0     H90699   6.678   5.410  11.071 -0.0187 -0.1078  1.1606
  672MOL0     H90700   6.434   5.422  11.068  0.3869 -2.7936 -2.4395
  672MOL0     H90701   6.490   5.465  10.902  2.0638 -0.8468 -0.0253
  672MOL0     H90702   7.399   6.056  10.713 -1.3039 -1.2401  0.6164
  672MOL0     H90703   7.647   6.084  10.698 -1.3441  0.3353 -0.3032
  672MOL0     H90704   8.085   5.878  10.443 -1.0498 -0.4719  0.4303
  672MOL0     H90705   8.322   5.905  10.467  1.5973  3.0140  2.5963
  672MOL0     H90706   9.078   7.425  10.500 -0.9604  1.1055 -1.0637
  672MOL0     H90707   9.236   7.582  10.400  0.4368 -0.1524  2.5584
  672MOL0     H90708   9.631   7.394   9.914  1.0328  0.4277 -0.1436
  672MOL0     H90709   9.685   7.516   9.727  0.1018  1.3845 -0.2840
  672MOL0     H90710   9.751   7.735   9.554 -0.3362  1.2147 -0.9989
  672MOL0     H90711   9.607   7.628   9.542 -1.1388  0.4138 -1.9340
  672MOL0     H90712   9.571   7.909   9.464  1.3662  0.6558  1.7940
  672MOL0     H90713   9.456   7.798   9.461 -0.2427  1.0078  1.9788
  672MOL0     H90714   9.736   7.781   9.311  0.0639 -0.9580  0.6966
  672MOL0     H90715   9.600   7.850   9.237 -0.0910  1.8887  0.7581
  672MOL0     H90716   9.637   7.543   9.297  0.8932 -1.9855 -2.4341
  672MOL0     H90717   9.625   7.625   9.144  1.2573 -1.6891  0.6575
  672MOL0     H90718   9.228   7.590   9.172  0.8012  1.4730 -0.4168
  672MOL0     H90719   9.531   7.881   9.905  4.0398  1.2316 -0.6823
  672MOL0     H90720   9.485   7.740  10.115  0.8672  0.3454  0.3011
  673MOL0     O90721   0.911   9.754   1.606  0.2289 -0.8628  0.4627
  673MOL0     C90722   0.852   9.742   1.500  0.6815 -0.5124 -0.3626
  673MOL0     O90723   0.734   9.674   1.480 -0.0350 -0.5104  0.3362
  673MOL0     C90724   0.643   9.643   1.580 -0.0985 -0.7597  0.1533
  673MOL0     C90725   0.588   9.512   1.574 -0.6688  0.0301 -1.1589
  673MOL0     C90726   0.489   9.474   1.664  0.9964  0.5160 -0.7621
  673MOL0     C90727   0.436   9.573   1.756  0.5402 -0.3649  0.0438
  673MOL0     O90728   0.340   9.520   1.842  1.0958 -0.6220 -0.0006
  673MOL0     C90729   0.250   9.627   1.895  0.7726 -0.4635  0.5216
  673MOL0     C90730   0.133   9.556   1.958  0.0984 -0.1910 -0.1253
  673MOL0     C90731   0.032   9.669   1.986  0.6592  0.7227  0.0519
  673MOL0     C90732  -0.098   9.619   2.046 -0.5071  0.3743  0.3951
  673MOL0     C90733  -0.155   9.722   2.146  0.2667 -0.3514 -0.1636
  673MOL0     C90734  -0.264   9.663   2.235  0.7209 -1.0152 -0.1624
  673MOL0     C90735  -0.366   9.768   2.288 -0.7225  0.2758 -0.6178
  673MOL0     C90736  -0.495   9.794   2.205  0.7361 -0.2714 -0.4223
  673MOL0     N90737  -0.595   9.690   2.230  0.5085 -0.3858  0.2989
  673MOL0     C90738  -0.590   9.553   2.188 -0.3211  0.1825 -0.7187
  673MOL0     C90739  -0.714   9.515   2.225 -0.2880  0.7153  0.9079
  673MOL0     C90740  -0.767   9.373   2.227 -0.1580 -0.0931 -0.8817
  673MOL0     C90741  -0.851   9.345   2.101  0.0794 -0.7234  0.3198
  673MOL0     C90742  -0.980   9.429   2.057 -0.4519 -1.0303  0.3399
  673MOL0     C90743  -1.075   9.436   2.180 -0.4579  0.2431  0.4797
  673MOL0     O90744  -1.109   9.304   2.227  0.4967  0.1161 -0.0325
  673MOL0     C90745  -1.200   9.231   2.154 -0.0019 -0.1717  0.5555
  673MOL0     C90746  -1.193   9.094   2.167  0.4111 -0.0893  0.0229
  673MOL0     C90747  -1.278   9.002   2.114  0.0686  0.1294  0.2424
  673MOL0     C90748  -1.242   8.853   2.135 -0.2013 -0.1786  1.0588
  673MOL0     C90749  -1.384   9.058   2.041  0.3240  0.3768  0.3993
  673MOL0     C90750  -1.499   8.968   2.000 -1.0135 -0.0645 -0.1599
  673MOL0     O90751  -1.470   8.847   1.951 -0.2249  0.6346  0.0858
  673MOL0     C90752  -1.575   8.760   1.935  0.2554 -0.3080  0.0748
  673MOL0     C90753  -1.598   8.666   2.037  0.3728  0.7752 -0.3368
  673MOL0     C90754  -1.715   8.583   2.005 -1.1793 -0.3892  1.2385
  673MOL0     C90755  -1.799   8.587   1.893 -0.3159 -0.4854 -0.1399
  673MOL0     O90756  -1.909   8.507   1.896  0.5086  1.0668  1.1199
  673MOL0     C90757  -1.966   8.457   1.772 -0.4310  0.4923  0.4586
  673MOL0     C90758  -2.079   8.346   1.798  0.2960 -0.5579 -0.0082
  673MOL0     C90759  -2.188   8.387   1.891 -0.6143  0.0589  0.2629
  673MOL0     C90760  -2.284   8.270   1.917 -0.0960  0.3045 -0.0790
  673MOL0     C90761  -2.422   8.330   1.954 -0.0736 -0.0719  0.4690
  673MOL0     C90762  -2.517   8.225   2.012  0.4834  0.5210 -0.1751
  673MOL0     C90763  -2.583   8.127   1.906 -0.0949  0.5676 -0.7707
  673MOL0     C90764  -2.689   8.169   1.808  0.4061  0.4582 -0.3008
  673MOL0    Cl90765  -2.816   8.265   1.895 -0.2159 -0.3932  0.0696
  673MOL0     C90766  -1.769   8.687   1.799  0.2873  0.2661  0.3301
  673MOL0     C90767  -1.656   8.772   1.825  1.2620  0.1050 -1.3644
  673MOL0     O90768  -1.610   9.018   2.027 -0.9949 -0.2116 -0.1534
  673MOL0     C90769  -1.397   9.192   2.028  0.1474 -0.1909  0.2472
  673MOL0     C90770  -1.304   9.285   2.080 -0.2244 -0.6243  0.2282
  673MOL0     N90771  -0.778   9.608   2.299  0.2227  0.3946 -0.4466
  673MOL0     N90772  -0.707   9.715   2.309 -0.3309  0.7917 -0.0203
  673MOL0     C90773   0.506   9.694   1.767 -0.2142  0.6980 -1.2326
  673MOL0     C90774   0.600   9.734   1.678 -0.9307  0.7015 -0.1280
  673MOL0     C90775   0.917   9.813   1.391 -0.0726  1.0654 -0.3180
  673MOL0     C90776   0.859   9.814   1.260 -0.6092 -0.6703 -0.0580
  673MOL0     C90777   0.913   9.880   1.157  0.0057  1.1988  0.3554
  673MOL0     C90778   1.034   9.942   1.176  0.5270  0.4131  1.0801
  673MOL0     O90779   1.079  10.009   1.061  0.4312  0.7760 -0.0986
  673MOL0     C90780   1.176  10.113   1.076  0.1356  0.4192  0.0043
  673MOL0     C90781   1.319  10.053   1.065 -0.0858 -0.3137 -0.0178
  673MOL0     C90782   1.433  10.159   1.083 -0.2824 -0.1504  1.0363
  673MOL0     C90783   1.437  10.211   1.222 -0.1003  0.2818 -0.8695
  673MOL0     C90784   1.512  10.116   1.312  0.2211 -0.7460  0.5234
  673MOL0     C90785   1.565  10.039   1.398  1.1065 -1.0100  0.6429
  673MOL0     C90786   1.103   9.934   1.296 -0.3885  0.9444  0.4244
  673MOL0     C90787   1.052   9.864   1.403  1.0375 -0.3681  1.0062
  673MOL0     H90788   0.629   9.443   1.501 -2.1482 -0.3931 -1.6175
  673MOL0     H90789   0.450   9.373   1.674  2.1193  0.3428  3.6630
  673MOL0     H90790   0.300   9.688   1.970  1.6482 -4.3493  3.4431
  673MOL0     H90791   0.219   9.693   1.813 -1.7164 -1.8508  0.2494
  673MOL0     H90792   0.094   9.482   1.889  1.1109 -0.1111 -0.7863
  673MOL0     H90793   0.175   9.510   2.048  0.6315 -0.4116 -0.4884
  673MOL0     H90794   0.083   9.745   2.046  3.5433  3.2176 -4.8935
  673MOL0     H90795   0.018   9.720   1.891 -1.3410 -3.1415 -1.9542
  673MOL0     H90796  -0.157   9.606   1.956  0.7162  1.8595 -0.6700
  673MOL0     H90797  -0.087   9.528   2.107 -2.6011  2.2930  3.9814
  673MOL0     H90798  -0.080   9.742   2.224 -0.5564 -0.3438  0.6396
  673MOL0     H90799  -0.182   9.814   2.094 -1.3840  1.4661  3.4906
  673MOL0     H90800  -0.320   9.589   2.177  0.2431  0.7206 -2.0321
  673MOL0     H90801  -0.213   9.620   2.321 -0.7311  0.6026  1.6305
  673MOL0     H90802  -0.389   9.736   2.390 -0.1476  0.8964 -0.2828
  673MOL0     H90803  -0.313   9.863   2.302 -0.4560 -0.1627  1.6992
  673MOL0     H90804  -0.480   9.807   2.097  2.8899  1.7156  0.0252
  673MOL0     H90805  -0.533   9.890   2.240  1.5485 -0.5280  1.2378
  673MOL0     H90806  -0.505   9.499   2.147 -0.9420 -1.8027  0.4418
  673MOL0     H90807  -0.691   9.295   2.217  1.5790  1.3653  0.3763
  673MOL0     H90808  -0.819   9.353   2.321 -3.1010 -0.3003 -2.4470
  673MOL0     H90809  -0.885   9.241   2.113 -1.8483 -0.1406  0.1911
  673MOL0     H90810  -0.784   9.355   2.015 -2.3689 -2.0501 -1.8786
  673MOL0     H90811  -1.028   9.378   1.973  0.0782  1.2594 -1.4273
  673MOL0     H90812  -0.963   9.524   2.007 -2.6645 -1.8778 -2.2709
  673MOL0     H90813  -1.167   9.489   2.155 -0.2225 -0.2417 -1.5641
  673MOL0     H90814  -1.026   9.490   2.261  0.3274  1.6015 -0.8602
  673MOL0     H90815  -1.111   9.061   2.230  0.8047 -1.7709 -1.2883
  673MOL0     H90816  -1.158   8.839   2.204  0.5630 -1.6008 -0.1095
  673MOL0     H90817  -1.332   8.813   2.181 -0.1420  0.9805  2.2541
  673MOL0     H90818  -1.223   8.800   2.041 -1.0173 -0.1657  0.8844
  673MOL0     H90819  -1.538   8.673   2.127  1.7087  1.2426 -1.2409
  673MOL0     H90820  -1.740   8.508   2.079 -3.4601 -0.1005  0.8316
  673MOL0     H90821  -2.016   8.548   1.738 -1.3803  0.6106  2.0963
  673MOL0     H90822  -1.896   8.412   1.701 -0.0831  0.7740  0.6181
  673MOL0     H90823  -2.124   8.311   1.704 -0.1609 -3.4544  1.1865
  673MOL0     H90824  -2.028   8.255   1.829  0.6144 -0.0761  0.9143
  673MOL0     H90825  -2.233   8.471   1.838 -1.7449 -0.1818  0.7989
  673MOL0     H90826  -2.142   8.420   1.984  2.1873 -2.0261 -0.2488
  673MOL0     H90827  -2.286   8.200   1.832  2.9999 -0.7351  0.5661
  673MOL0     H90828  -2.242   8.209   1.997 -0.6309  3.0578  2.4564
  673MOL0     H90829  -2.472   8.379   1.871 -1.1213  0.2686  1.2788
  673MOL0     H90830  -2.400   8.400   2.035  1.8862  0.7647 -0.7324
  673MOL0     H90831  -2.467   8.168   2.091  0.3200 -0.3463 -0.6906
  673MOL0     H90832  -2.588   8.283   2.071  1.0238  0.7665  0.2479
  673MOL0     H90833  -2.619   8.041   1.963 -1.4213  0.9584 -0.9827
  673MOL0     H90834  -2.501   8.092   1.843  1.5069  0.7089  1.1508
  673MOL0     H90835  -2.737   8.081   1.765  2.6031 -1.8120  1.6032
  673MOL0     H90836  -2.655   8.231   1.725 -1.7116  1.5331 -0.4423
  673MOL0     H90837  -1.826   8.696   1.707 -2.3837 -0.2588  1.8281
  673MOL0     H90838  -1.646   8.857   1.758  0.3448 -0.6243 -2.4689
  673MOL0     H90839  -1.483   9.242   1.984 -1.9311 -2.3192  1.6857
  673MOL0     H90840  -1.318   9.392   2.083 -1.8405 -0.8376  1.8739
  673MOL0     H90841   0.472   9.763   1.845  3.1218  0.6677  0.4241
  673MOL0     H90842   0.633   9.838   1.680 -1.6560  0.9348  1.8409
  673MOL0     H90843   0.767   9.757   1.245 -1.1841 -0.1148  1.1945
  673MOL0     H90844   0.860   9.884   1.062  0.8225  3.2553 -0.0573
  673MOL0     H90845   1.170  10.175   0.986  0.4749 -1.0489 -1.0663
  673MOL0     H90846   1.163  10.169   1.169  0.8069 -0.5029  0.6707
  673MOL0     H90847   1.328   9.994   0.973 -2.8876 -0.8418 -0.0616
  673MOL0     H90848   1.327   9.974   1.141 -0.4140  0.0309  0.3809
  673MOL0     H90849   1.423  10.246   1.017 -2.7673 -0.8137  0.4625
  673MOL0     H90850   1.529  10.116   1.052 -0.5153  1.3913 -2.2976
  673MOL0     H90851   1.341  10.221   1.272  0.6871  1.5675  0.4773
  673MOL0     H90852   1.498  10.302   1.229  0.8552 -0.4396  0.5625
  673MOL0     H90853   1.616   9.981   1.473  0.8801 -2.2677 -0.1382
  673MOL0     H90854   1.195   9.989   1.313  0.7378 -0.2672 -1.4520
  673MOL0     H90855   1.098   9.879   1.501 -1.7745  2.4926  2.0554
  674MOL0     O90856   2.781   5.193   1.329  0.4244 -0.2844  0.3723
  674MOL0     C90857   2.790   5.092   1.260  0.0689 -0.1123 -0.9091
  674MOL0     O90858   2.689   5.023   1.198  0.6721 -0.2310 -0.2423
  674MOL0     C90859   2.557   5.058   1.205  0.0012  0.1282 -0.1206
  674MOL0     C90860   2.493   5.092   1.322 -0.3487 -0.6903  0.0589
  674MOL0     C90861   2.355   5.120   1.338  0.1173 -0.2158 -0.4188
  674MOL0     C90862   2.278   5.120   1.217 -0.3741  0.0844 -0.2830
  674MOL0     O90863   2.145   5.152   1.204  0.2555 -0.2925 -0.0075
  674MOL0     C90864   2.086   5.218   1.307 -0.6171  0.8874 -0.5660
  674MOL0     C90865   1.948   5.265   1.254  0.2107 -1.6893  0.4603
  674MOL0     C90866   1.864   5.328   1.360  0.5056 -0.0180  0.0322
  674MOL0     C90867   1.907   5.467   1.402 -0.9777  0.0318  0.3649
  674MOL0     C90868   1.817   5.555   1.502 -0.2410 -0.3610 -0.4773
  674MOL0     C90869   1.857   5.711   1.506  0.2527  0.7957 -0.0538
  674MOL0     C90870   1.752   5.779   1.577 -0.3510 -1.0686  0.1863
  674MOL0     C90871   1.769   5.937   1.581 -1.5117  0.0555 -0.9775
  674MOL0     N90872   1.703   6.008   1.469  0.3046  0.1526 -0.2657
  674MOL0     C90873   1.723   5.988   1.341  1.3605  0.6352 -0.0591
  674MOL0     C90874   1.627   6.058   1.276  0.2644  0.1564  0.2964
  674MOL0     C90875   1.630   6.064   1.128 -0.0937 -0.3191 -0.0274
  674MOL0     C90876   1.661   6.207   1.070  0.1327 -0.4621 -0.4556
  674MOL0     C90877   1.615   6.210   0.920  0.4128  1.1135 -0.2123
  674MOL0     C90878   1.702   6.301   0.848 -0.0204 -0.0668  0.0881
  674MOL0     O90879   1.832   6.246   0.824 -0.9182 -0.5891 -0.0310
  674MOL0     C90880   1.919   6.313   0.739  0.6277  0.1720  0.2263
  674MOL0     C90881   2.058   6.272   0.735 -0.3850  0.5776  0.1365
  674MOL0     C90882   2.156   6.335   0.655  0.9883 -0.2524 -0.3391
  674MOL0     C90883   2.296   6.288   0.666  0.2621  0.3373 -0.8839
  674MOL0     C90884   2.115   6.435   0.557  0.3744 -0.0838 -0.3221
  674MOL0     C90885   2.200   6.509   0.469 -0.2478 -0.6236  0.5382
  674MOL0     O90886   2.162   6.529   0.333  0.6040 -0.2382  0.3799
  674MOL0     C90887   2.237   6.601   0.246  0.0354 -0.3333  0.2741
  674MOL0     C90888   2.376   6.584   0.236 -0.2598  0.5124 -0.1827
  674MOL0     C90889   2.457   6.660   0.151  0.9283  0.1095 -0.5678
  674MOL0     C90890   2.394   6.749   0.068  0.1386  0.9767 -0.2962
  674MOL0     O90891   2.456   6.836  -0.015 -0.5697  0.0437  0.0269
  674MOL0     C90892   2.578   6.898   0.036 -0.1464 -0.7235  0.1461
  674MOL0     C90893   2.614   7.016  -0.056  0.2296 -1.0606  0.1129
  674MOL0     C90894   2.495   7.101  -0.102  0.0597  0.6224 -0.0003
  674MOL0     C90895   2.543   7.240  -0.149  0.2704 -0.1285  0.3585
  674MOL0     C90896   2.439   7.351  -0.154 -0.4937 -0.2942 -0.8184
  674MOL0     C90897   2.313   7.306  -0.215  0.1995 -0.1692 -0.1202
  674MOL0     C90898   2.317   7.287  -0.365  0.0280  0.1236  0.5759
  674MOL0     C90899   2.362   7.412  -0.440  0.3210 -0.6418  0.0585
  674MOL0    Cl90900   2.347   7.387  -0.618  0.3678  0.0390 -0.1306
  674MOL0     C90901   2.253   6.758   0.060 -0.2744 -0.3645 -0.7018
  674MOL0     C90902   2.177   6.687   0.148 -0.1037  0.5936  0.1119
  674MOL0     O90903   2.307   6.545   0.515  0.3268 -0.1058  0.0825
  674MOL0     C90904   1.975   6.461   0.548  0.8873 -0.4168  0.6559
  674MOL0     C90905   1.882   6.408   0.640  0.6880 -0.1115  0.4010
  674MOL0     N90906   1.544   6.115   1.373 -0.5209  0.3329  0.2539
  674MOL0     N90907   1.588   6.083   1.484 -0.0417  0.1256  0.1987
  674MOL0     C90908   2.343   5.089   1.094  0.7374 -0.0778 -1.0360
  674MOL0     C90909   2.478   5.056   1.087 -0.6917 -0.3402  0.5478
  674MOL0     C90910   2.928   5.025   1.238  0.2701 -0.4504 -0.4044
  674MOL0     C90911   2.956   4.898   1.165 -0.0349  0.0300 -0.2878
  674MOL0     C90912   3.089   4.862   1.135 -0.0483 -0.0655 -0.6503
  674MOL0     C90913   3.193   4.944   1.164  0.2011  0.5664 -0.6211
  674MOL0     O90914   3.314   4.912   1.103  0.2691 -0.6249  0.1224
  674MOL0     C90915   3.420   5.010   1.118  0.2678  0.3589  0.0370
  674MOL0     C90916   3.442   5.095   0.998  0.4709  0.3277  0.2199
  674MOL0     C90917   3.326   5.203   0.981  0.0330  0.7288  1.3506
  674MOL0     C90918   3.331   5.264   0.840  0.0934 -0.2863  0.2105
  674MOL0     C90919   3.464   5.320   0.808 -0.3397 -0.2653  0.0200
  674MOL0     C90920   3.576   5.371   0.788 -0.0313 -0.2207  0.6975
  674MOL0     C90921   3.172   5.054   1.245 -0.1729 -0.1323  0.2189
  674MOL0     C90922   3.044   5.098   1.280 -0.4053  0.2404  0.1126
  674MOL0     H90923   2.552   5.091   1.413  2.2354  1.5148 -1.4771
  674MOL0     H90924   2.310   5.150   1.432 -1.0406 -0.6362 -0.8256
  674MOL0     H90925   2.056   5.145   1.383 -1.1326  1.1560 -0.5028
  674MOL0     H90926   2.159   5.294   1.336  0.3063 -0.3514  0.5116
  674MOL0     H90927   1.974   5.340   1.178 -0.0550 -1.2325  0.8229
  674MOL0     H90928   1.889   5.183   1.211 -1.0169 -1.4700  1.6799
  674MOL0     H90929   1.764   5.347   1.318 -0.4946  4.7072  3.6896
  674MOL0     H90930   1.844   5.270   1.451  0.3866  0.9133  0.6135
  674MOL0     H90931   2.009   5.465   1.440 -1.0142  1.3885  0.6009
  674MOL0     H90932   1.908   5.531   1.313  1.9955  0.7011  0.7717
  674MOL0     H90933   1.713   5.550   1.468 -0.3330 -0.7701 -0.1477
  674MOL0     H90934   1.831   5.504   1.597  4.2675  0.7000 -0.3219
  674MOL0     H90935   1.947   5.719   1.567  0.8648 -0.5988 -0.7282
  674MOL0     H90936   1.867   5.745   1.402 -0.2766  2.1524  0.3250
  674MOL0     H90937   1.655   5.757   1.532  0.7717 -3.8587 -1.0985
  674MOL0     H90938   1.750   5.733   1.677 -1.7998 -0.8910  0.2667
  674MOL0     H90939   1.878   5.953   1.587 -1.7601  1.4851  0.4905
  674MOL0     H90940   1.719   5.985   1.665 -0.4874 -2.0544  0.9383
  674MOL0     H90941   1.805   5.931   1.298  1.3063  0.5188 -0.0099
  674MOL0     H90942   1.719   6.018   1.086  0.3625  0.5230 -0.0121
  674MOL0     H90943   1.536   6.018   1.096 -0.1066 -0.3728  0.0868
  674MOL0     H90944   1.768   6.228   1.074  0.2627 -0.8441 -1.6710
  674MOL0     H90945   1.604   6.280   1.130 -4.0791 -1.0412 -3.3317
  674MOL0     H90946   1.511   6.245   0.914 -0.2045 -0.2039  1.8082
  674MOL0     H90947   1.613   6.106   0.886  0.1195  0.4696  1.6454
  674MOL0     H90948   1.724   6.395   0.900 -1.2933  2.5741 -3.6832
  674MOL0     H90949   1.650   6.329   0.756 -0.2770 -0.2615  0.1749
  674MOL0     H90950   2.085   6.192   0.803 -2.8904 -1.0680 -0.6886
  674MOL0     H90951   2.294   6.186   0.707  0.8068 -0.1907 -2.1156
  674MOL0     H90952   2.328   6.262   0.565 -2.9239 -2.0670 -1.4382
  674MOL0     H90953   2.356   6.360   0.723 -0.8981  0.7274 -0.1301
  674MOL0     H90954   2.438   6.515   0.293 -0.5091 -1.1988 -1.9195
  674MOL0     H90955   2.565   6.647   0.154  0.8584 -0.3756  0.3072
  674MOL0     H90956   2.568   6.926   0.141 -2.6379  1.6680 -0.6099
  674MOL0     H90957   2.662   6.828   0.031 -0.3792 -1.1537  1.7182
  674MOL0     H90958   2.677   7.083   0.004 -0.2716  0.8838 -1.4374
  674MOL0     H90959   2.667   6.977  -0.143  2.0116  2.1171 -0.3557
  674MOL0     H90960   2.430   7.135  -0.021 -0.7564 -1.5920  0.3178
  674MOL0     H90961   2.435   7.058  -0.183 -2.5061  0.3972  1.9284
  674MOL0     H90962   2.630   7.277  -0.095  0.5844  1.5661 -1.1879
  674MOL0     H90963   2.590   7.217  -0.246 -1.2139 -0.8092 -0.2380
  674MOL0     H90964   2.477   7.446  -0.192  0.5022  0.2486  1.3646
  674MOL0     H90965   2.424   7.372  -0.048  0.4659 -5.1920  0.5176
  674MOL0     H90966   2.281   7.213  -0.166 -3.4014  0.1966 -1.5004
  674MOL0     H90967   2.250   7.383  -0.171  3.5498  1.7352  1.7529
  674MOL0     H90968   2.214   7.267  -0.396  0.4447 -0.8977 -0.2065
  674MOL0     H90969   2.369   7.196  -0.398 -0.6663  0.2303 -0.9046
  674MOL0     H90970   2.466   7.434  -0.412 -0.3893  3.0295  0.4015
  674MOL0     H90971   2.301   7.500  -0.416  3.7782  2.4170 -1.2287
  674MOL0     H90972   2.197   6.819  -0.010 -4.5290 -1.6319  1.2807
  674MOL0     H90973   2.069   6.697   0.154 -0.2008 -0.5602  0.4199
  674MOL0     H90974   1.937   6.514   0.461 -1.2095  0.0659  1.7940
  674MOL0     H90975   1.777   6.433   0.629  0.3324 -1.0426  1.4446
  674MOL0     H90976   2.290   5.080   1.000 -0.8428 -2.9813  0.0110
  674MOL0     H90977   2.521   5.031   0.991 -0.4080 -1.1613  0.8864
  674MOL0     H90978   2.875   4.846   1.116 -0.8782  0.5967  0.4698
  674MOL0     H90979   3.108   4.776   1.073  3.5308 -0.4651  0.7462
  674MOL0     H90980   3.435   5.052   1.218  0.6847 -1.0608  0.5967
  674MOL0     H90981   3.504   4.940   1.106 -0.5373 -0.7906  0.8657
  674MOL0     H90982   3.455   5.029   0.913 -0.0456 -0.7457  0.9589
  674MOL0     H90983   3.538   5.146   1.012  1.1794 -1.1807  1.1521
  674MOL0     H90984   3.308   5.277   1.059 -1.1885  2.7925 -0.7536
  674MOL0     H90985   3.230   5.151   0.973  1.4776 -1.9581 -0.0746
  674MOL0     H90986   3.246   5.331   0.823 -0.0716 -0.2872  1.0054
  674MOL0     H90987   3.331   5.186   0.763  2.7436  0.2250 -0.4110
  674MOL0     H90988   3.666   5.425   0.765  0.3853 -1.9405 -2.0004
  674MOL0     H90989   3.255   5.117   1.278  2.5028 -3.9551  1.5287
  674MOL0     H90990   3.038   5.190   1.338  2.3422 -0.3070  1.4216
  675MOL0     O90991  10.938   3.163   5.376 -0.0378  0.6107  0.2865
  675MOL0     C90992  10.990   3.076   5.299 -0.2713 -0.1368  0.5967
  675MOL0     O90993  10.930   2.963   5.256 -0.2754 -0.3097  0.6962
  675MOL0     C90994  10.802   2.938   5.302  0.6219 -0.3765 -0.3395
  675MOL0     C90995  10.689   3.024   5.284  0.0625 -0.1830 -0.2963
  675MOL0     C90996  10.564   2.989   5.332  0.1930  0.6812 -0.0282
  675MOL0     C90997  10.543   2.868   5.400 -0.1292 -0.2408  0.8658
  675MOL0     O90998  10.412   2.831   5.437  0.3798 -0.4143 -0.8356
  675MOL0     C90999  10.383   2.696   5.482 -0.0132  0.5426 -0.5015
  675MOL0     C91000  10.369   2.613   5.351 -0.0679  0.8953 -0.1864
  675MOL0     C91001  10.247   2.652   5.262 -0.4619  0.0438 -0.2294
  675MOL0     C91002  10.107   2.629   5.325  0.2668 -0.5593 -0.0116
  675MOL0     C91003   9.994   2.609   5.222 -0.2477  0.1985 -0.2910
  675MOL0     C91004   9.859   2.613   5.303 -0.3448  0.3262  0.0502
  675MOL0     C91005   9.745   2.590   5.208  0.0979 -0.0499  0.0548
  675MOL0     C91006   9.740   2.676   5.094 -0.3070 -1.0896  0.5221
  675MOL0     N91007   9.601   2.687   5.029 -0.4645  0.0251 -0.2799
  675MOL0     C91008   9.505   2.584   5.022 -0.4617  0.0659  0.3324
  675MOL0     C91009   9.401   2.634   4.953  0.2472  0.3375  1.1600
  675MOL0     C91010   9.282   2.541   4.899 -0.1114  0.5175  1.3425
  675MOL0     C91011   9.151   2.543   4.977 -0.8359  0.3802 -0.3737
  675MOL0     C91012   9.051   2.462   4.889 -0.0733 -0.0989  0.3059
  675MOL0     C91013   8.929   2.421   4.977 -0.7492  1.4307 -0.3925
  675MOL0     O91014   8.822   2.518   4.970  0.0774 -0.2469  0.1962
  675MOL0     C91015   8.703   2.489   5.048 -0.7883 -0.4167 -0.6907
  675MOL0     C91016   8.684   2.386   5.139  0.4911 -0.3198 -0.3495
  675MOL0     C91017   8.566   2.365   5.212  0.4264  0.0527 -0.4385
  675MOL0     C91018   8.562   2.229   5.292  1.0069 -0.3818 -0.1618
  675MOL0     C91019   8.470   2.467   5.213  0.6228  0.2074 -0.2194
  675MOL0     C91020   8.345   2.451   5.288 -0.0818 -0.3417  0.0717
  675MOL0     O91021   8.277   2.569   5.308  0.9927  0.3895 -0.7433
  675MOL0     C91022   8.175   2.569   5.403 -0.3133 -0.1629  0.6292
  675MOL0     C91023   8.060   2.645   5.368 -0.2473 -0.9872 -0.0072
  675MOL0     C91024   7.941   2.638   5.445 -0.2666  0.0528 -0.3191
  675MOL0     C91025   7.940   2.564   5.561 -0.6131 -0.3891  0.4642
  675MOL0     O91026   7.839   2.563   5.654 -0.5091 -0.5382  0.2191
  675MOL0     C91027   7.732   2.662   5.645  0.1686  0.2971 -0.1748
  675MOL0     C91028   7.610   2.616   5.564 -0.4805  0.2761  1.5207
  675MOL0     C91029   7.493   2.679   5.619 -0.2310 -0.3227  0.2288
  675MOL0     C91030   7.474   2.827   5.578  0.4484  0.3581 -0.5361
  675MOL0     C91031   7.326   2.880   5.590  0.1576  0.1389  0.2059
  675MOL0     C91032   7.326   3.029   5.554 -0.9977 -0.4323 -0.8809
  675MOL0     C91033   7.189   3.102   5.543  0.3622  0.2659 -0.1978
  675MOL0     C91034   7.109   3.089   5.678  0.5088  0.0021 -0.1975
  675MOL0    Cl91035   6.977   3.211   5.691 -0.4118  0.2989 -0.0428
  675MOL0     C91036   8.049   2.483   5.592  0.1441 -0.2536  0.0194
  675MOL0     C91037   8.166   2.487   5.519 -0.2346 -0.0039 -0.0002
  675MOL0     O91038   8.300   2.342   5.316  0.3443  0.1934  0.6435
  675MOL0     C91039   8.484   2.577   5.125 -0.0409  0.1318  0.1263
  675MOL0     C91040   8.604   2.589   5.056 -0.7247  0.1414  0.0085
  675MOL0     N91041   9.428   2.761   4.917 -0.4931 -0.3619 -0.1467
  675MOL0     N91042   9.547   2.786   4.956 -0.6503  0.2835 -0.0914
  675MOL0     C91043  10.653   2.783   5.408  0.5183  0.5979  1.4678
  675MOL0     C91044  10.781   2.819   5.371  0.4908  0.3115  0.3635
  675MOL0     C91045  11.133   3.082   5.260 -1.0732 -0.0091 -0.8693
  675MOL0     C91046  11.207   3.175   5.329 -0.8109 -0.0111 -0.6529
  675MOL0     C91047  11.345   3.197   5.301 -0.1904  0.0985  0.2180
  675MOL0     C91048  11.412   3.122   5.205 -0.0548  0.3010 -0.7132
  675MOL0     O91049  11.538   3.163   5.178  0.0557 -0.0770  0.1708
  675MOL0     C91050  11.639   3.052   5.145  0.2855 -0.9756 -0.7588
  675MOL0     C91051  11.699   3.001   5.275 -0.1765  0.6528  0.2168
  675MOL0     C91052  11.812   2.900   5.236 -0.0318  0.0671 -0.1709
  675MOL0     C91053  11.775   2.759   5.198  1.4255 -0.2814  0.2679
  675MOL0     C91054  11.706   2.679   5.296  0.6649 -0.5737  0.1041
  675MOL0     C91055  11.639   2.628   5.383 -0.8722 -0.2722 -0.9852
  675MOL0     C91056  11.334   3.030   5.130 -0.2763 -0.4969 -0.8267
  675MOL0     C91057  11.193   3.014   5.158 -0.1436  0.2944  0.2785
  675MOL0     H91058  10.699   3.115   5.226  1.8944  0.1231  0.4459
  675MOL0     H91059  10.480   3.056   5.319  1.9956  3.6205  2.1413
  675MOL0     H91060  10.457   2.658   5.554 -0.6616  0.5631  0.1910
  675MOL0     H91061  10.292   2.698   5.544  0.1743 -0.5746 -0.1573
  675MOL0     H91062  10.460   2.615   5.291 -0.3496  0.4293 -0.6402
  675MOL0     H91063  10.348   2.515   5.395 -0.3964  0.9833 -0.1380
  675MOL0     H91064  10.258   2.758   5.238  0.7752 -0.1305 -0.4871
  675MOL0     H91065  10.248   2.597   5.168  0.7254 -0.0819 -0.1579
  675MOL0     H91066  10.105   2.536   5.382 -1.8517  0.4787  1.7607
  675MOL0     H91067  10.074   2.714   5.386 -1.9839 -1.6540  0.3909
  675MOL0     H91068  10.001   2.697   5.158  0.8591  1.0124  0.9073
  675MOL0     H91069  10.005   2.511   5.175  2.4455 -0.2432  1.0181
  675MOL0     H91070   9.863   2.530   5.374  2.3947 -0.4645 -0.9253
  675MOL0     H91071   9.847   2.714   5.344 -0.9388  0.3194 -0.0991
  675MOL0     H91072   9.754   2.489   5.165 -2.6389  0.4443 -1.9645
  675MOL0     H91073   9.655   2.600   5.269  0.2700  3.8209 -0.0844
  675MOL0     H91074   9.824   2.657   5.027 -0.7365  0.5732 -0.5574
  675MOL0     H91075   9.758   2.773   5.141 -3.7560 -0.2961  0.4773
  675MOL0     H91076   9.526   2.489   5.069  1.7169 -0.1749 -0.9858
  675MOL0     H91077   9.269   2.562   4.792  0.7545 -2.4173  0.5646
  675MOL0     H91078   9.327   2.441   4.899 -0.4013  0.3468 -0.5847
  675MOL0     H91079   9.105   2.636   5.008 -0.6968  0.4472 -0.3653
  675MOL0     H91080   9.175   2.489   5.069  2.4208  1.2545 -0.5759
  675MOL0     H91081   9.094   2.376   4.836  0.3686 -0.1637  0.7538
  675MOL0     H91082   9.021   2.523   4.803  0.6274 -0.2291 -0.0418
  675MOL0     H91083   8.961   2.402   5.080 -1.0057 -2.1008 -0.8594
  675MOL0     H91084   8.908   2.325   4.930  0.7284  0.6723  0.4442
  675MOL0     H91085   8.755   2.304   5.128  0.3510 -0.3953 -0.7308
  675MOL0     H91086   8.650   2.166   5.300  0.4843 -1.0798  0.1859
  675MOL0     H91087   8.543   2.252   5.398 -0.5413  0.8261 -0.6632
  675MOL0     H91088   8.474   2.172   5.259  0.4345 -1.1682  2.4753
  675MOL0     H91089   8.066   2.710   5.281  1.3397 -1.3761 -0.2206
  675MOL0     H91090   7.856   2.700   5.419  1.9831  3.4598 -0.1998
  675MOL0     H91091   7.699   2.673   5.749  0.0076  3.9847 -0.4724
  675MOL0     H91092   7.767   2.763   5.621 -3.2208  1.6491  0.0464
  675MOL0     H91093   7.616   2.631   5.456 -1.9239 -2.5245  0.9739
  675MOL0     H91094   7.606   2.507   5.577 -0.5902 -0.3843 -2.5524
  675MOL0     H91095   7.489   2.676   5.728 -1.7364  1.2045  0.2631
  675MOL0     H91096   7.414   2.607   5.596 -0.7957  0.2405  0.3687
  675MOL0     H91097   7.548   2.884   5.635  3.3316 -3.4888 -0.0098
  675MOL0     H91098   7.506   2.835   5.474 -0.5373  4.1772 -0.6883
  675MOL0     H91099   7.294   2.875   5.695  0.9592  2.8612  0.6605
  675MOL0     H91100   7.251   2.818   5.539 -1.6151  1.2653  1.3377
  675MOL0     H91101   7.386   3.082   5.629 -1.7043  0.3033 -0.8162
  675MOL0     H91102   7.372   3.040   5.455  0.3881 -1.0277 -0.3392
  675MOL0     H91103   7.133   3.047   5.467  1.9805 -0.4328 -0.9210
  675MOL0     H91104   7.198   3.206   5.511 -1.1479  1.0409  1.7031
  675MOL0     H91105   7.181   3.112   5.756 -0.0529 -0.7266  0.5532
  675MOL0     H91106   7.073   2.986   5.687 -1.2992  0.7626  2.2746
  675MOL0     H91107   8.041   2.430   5.686 -0.2891  0.5205  0.4238
  675MOL0     H91108   8.248   2.426   5.556  2.5323  2.3218 -1.8835
  675MOL0     H91109   8.415   2.661   5.131  2.4400  2.3510 -0.3101
  675MOL0     H91110   8.633   2.676   4.999  0.7633  0.0801  0.6319
  675MOL0     H91111  10.658   2.686   5.455  0.6424 -0.0895  0.0738
  675MOL0     H91112  10.853   2.741   5.393  2.3016  1.5242 -0.9653
  675MOL0     H91113  11.158   3.241   5.401 -0.1677 -0.4070  0.1507
  675MOL0     H91114  11.394   3.264   5.371 -0.9460  0.9507 -0.0653
  675MOL0     H91115  11.587   2.982   5.078 -2.5891  1.0640 -0.8446
  675MOL0     H91116  11.724   3.094   5.091  1.2959  4.7379  4.1756
  675MOL0     H91117  11.617   2.962   5.336 -0.7883  0.6587 -0.5871
  675MOL0     H91118  11.748   3.081   5.331 -1.5823  1.6979  0.0034
  675MOL0     H91119  11.875   2.877   5.322  1.8882 -2.5254 -2.0853
  675MOL0     H91120  11.884   2.937   5.162  1.4680  0.1178  1.2654
  675MOL0     H91121  11.868   2.710   5.168  0.6235 -0.9825 -1.1709
  675MOL0     H91122  11.713   2.757   5.107  2.0666 -1.1214 -0.1726
  675MOL0     H91123  11.576   2.598   5.464  1.8065  0.2163  1.4420
  675MOL0     H91124  11.371   2.977   5.043  0.8104 -2.1126  0.5617
  675MOL0     H91125  11.126   2.951   5.100 -1.8535  1.8629  0.4689
  676MOL0     O91126   7.909   3.926   5.795 -0.4099  0.1622  0.2872
  676MOL0     C91127   7.894   4.021   5.872  0.1911 -0.3703 -0.6759
  676MOL0     O91128   7.775   4.090   5.901 -0.9021 -0.5612 -0.6051
  676MOL0     C91129   7.660   4.090   5.823 -0.0204 -0.1219  0.2201
  676MOL0     C91130   7.581   4.209   5.811  0.8362 -0.5208  0.0358
  676MOL0     C91131   7.454   4.202   5.752 -0.7337  0.3805  0.8150
  676MOL0     C91132   7.405   4.071   5.709 -0.1672  0.2958 -0.1792
  676MOL0     O91133   7.261   4.073   5.674 -0.1274 -0.7851 -0.0374
  676MOL0     C91134   7.203   3.968   5.611 -0.2198  0.8285 -0.5614
  676MOL0     C91135   7.062   3.985   5.584 -0.0942  0.0816  0.3622
  676MOL0     C91136   7.050   4.115   5.504 -0.0699 -0.1690  0.7060
  676MOL0     C91137   6.905   4.156   5.478 -0.4003  0.0313 -0.0037
  676MOL0     C91138   6.895   4.286   5.407  0.8776  0.0760  0.4231
  676MOL0     C91139   6.754   4.347   5.412  0.3446 -0.3291 -0.6281
  676MOL0     C91140   6.662   4.256   5.317  0.6809  0.5130 -0.2055
  676MOL0     C91141   6.519   4.313   5.299  0.3692 -0.2372 -0.9290
  676MOL0     N91142   6.443   4.340   5.422  0.5550 -0.4162 -0.2499
  676MOL0     C91143   6.443   4.456   5.495 -0.1600 -0.6379  0.1017
  676MOL0     C91144   6.371   4.434   5.603 -0.3857 -0.0698  0.0812
  676MOL0     C91145   6.343   4.542   5.705 -0.4544  0.3230 -0.3504
  676MOL0     C91146   6.297   4.676   5.649 -0.1903 -0.3294  0.4655
  676MOL0     C91147   6.171   4.660   5.574  0.0060  0.4573  0.1286
  676MOL0     C91148   6.087   4.786   5.553  0.3515 -0.9322 -0.2229
  676MOL0     O91149   6.046   4.844   5.673  0.3763 -0.7501 -1.2494
  676MOL0     C91150   5.932   4.783   5.729 -0.4387 -0.3335 -0.0396
  676MOL0     C91151   5.892   4.823   5.850  0.8265 -0.6166  0.2509
  676MOL0     C91152   5.792   4.760   5.927 -0.1205  0.6754 -0.6310
  676MOL0     C91153   5.765   4.811   6.065  0.5080 -0.3715 -0.3084
  676MOL0     C91154   5.726   4.649   5.869 -0.5981 -0.4950  0.6863
  676MOL0     C91155   5.621   4.575   5.937 -0.2996  0.4643  0.1270
  676MOL0     O91156   5.517   4.543   5.851  0.0038  0.3210 -0.1468
  676MOL0     C91157   5.431   4.449   5.900 -0.2008 -0.3176 -0.3143
  676MOL0     C91158   5.460   4.313   5.881  0.1363  0.1013 -0.2747
  676MOL0     C91159   5.367   4.220   5.927  0.3297  0.4675 -0.5883
  676MOL0     C91160   5.236   4.260   5.974 -0.0084  0.4655 -0.7594
  676MOL0     O91161   5.144   4.156   5.988 -0.1851 -0.3282  0.1595
  676MOL0     C91162   5.008   4.196   6.011  0.0394 -0.0433 -0.7077
  676MOL0     C91163   4.932   4.071   6.034 -0.5924  0.0618 -0.2598
  676MOL0     C91164   4.807   4.092   6.114  0.0799 -0.5991 -0.6418
  676MOL0     C91165   4.703   4.178   6.022  0.6336 -0.1589  0.1225
  676MOL0     C91166   4.571   4.185   6.101 -0.8173 -1.2052  1.0162
  676MOL0     C91167   4.449   4.221   6.003 -0.6443 -0.0339 -1.0205
  676MOL0     C91168   4.321   4.205   6.064  0.6888  0.9333  0.7488
  676MOL0     C91169   4.218   4.257   5.964  0.4475  0.5034 -0.7330
  676MOL0    Cl91170   4.049   4.211   6.009 -0.4549 -0.4893  0.1280
  676MOL0     C91171   5.212   4.396   5.990  0.5317  0.7474 -0.1470
  676MOL0     C91172   5.314   4.492   5.953 -0.5914  0.7595 -0.1591
  676MOL0     O91173   5.639   4.538   6.053  0.4414 -0.5887  0.5048
  676MOL0     C91174   5.759   4.607   5.745  0.3888 -0.3733  1.1843
  676MOL0     C91175   5.858   4.671   5.677 -0.4558 -0.6552  0.5926
  676MOL0     N91176   6.306   4.305   5.592  0.0638  0.5402 -0.2420
  676MOL0     N91177   6.360   4.249   5.485  0.7212  0.2337  0.8752
  676MOL0     C91178   7.485   3.964   5.706 -0.3641 -0.2645  0.1471
  676MOL0     C91179   7.613   3.973   5.761 -1.2374  0.0199 -0.4744
  676MOL0     C91180   8.020   4.050   5.945 -0.1977 -0.6336  0.8677
  676MOL0     C91181   8.138   3.980   5.937 -1.2240  0.1918 -0.1406
  676MOL0     C91182   8.247   4.022   6.005  0.6331  0.6429 -0.3425
  676MOL0     C91183   8.249   4.134   6.096 -0.4326 -0.1254 -0.2948
  676MOL0     O91184   8.353   4.166   6.173  0.0122  0.5080 -0.0407
  676MOL0     C91185   8.480   4.132   6.116 -0.4089 -0.2267 -0.2225
  676MOL0     C91186   8.584   4.218   6.183 -0.5408  0.3032  1.5588
  676MOL0     C91187   8.611   4.202   6.339 -0.1436 -0.0257 -0.1411
  676MOL0     C91188   8.700   4.319   6.394 -0.5535  0.4707  0.1160
  676MOL0     C91189   8.710   4.318   6.543  0.3464  0.0914  0.2283
  676MOL0     C91190   8.707   4.298   6.662 -0.0293 -1.1323  0.1115
  676MOL0     C91191   8.130   4.200   6.101  0.1958  1.1968  0.0805
  676MOL0     C91192   8.016   4.158   6.032 -0.1228  0.3137 -0.6725
  676MOL0     H91193   7.615   4.300   5.859 -0.4502  0.4369 -0.7939
  676MOL0     H91194   7.388   4.285   5.727  1.0786  1.1160 -1.9384
  676MOL0     H91195   7.252   3.946   5.516 -1.0859  0.8825 -1.0308
  676MOL0     H91196   7.215   3.879   5.673  0.8855 -0.1678 -2.1279
  676MOL0     H91197   7.035   3.899   5.522 -0.5881  0.3063  0.2531
  676MOL0     H91198   6.991   3.998   5.667 -0.1773  0.0937  0.2894
  676MOL0     H91199   7.095   4.205   5.547 -2.3418  2.5546 -2.1912
  676MOL0     H91200   7.090   4.097   5.404  0.3195  0.1571  0.8028
  676MOL0     H91201   6.852   4.068   5.440 -3.0287  1.5735 -0.1063
  676MOL0     H91202   6.859   4.169   5.577  4.0386 -2.4116  2.7618
  676MOL0     H91203   6.958   4.366   5.446  1.5443  0.6405 -1.6703
  676MOL0     H91204   6.932   4.267   5.306 -1.0382 -0.3651 -0.2362
  676MOL0     H91205   6.716   4.347   5.515 -1.2620  0.3008 -1.1823
  676MOL0     H91206   6.757   4.451   5.378  1.4853 -0.3329 -0.5845
  676MOL0     H91207   6.707   4.263   5.218 -2.0973 -3.1010 -1.9502
  676MOL0     H91208   6.660   4.151   5.347 -0.5243  0.5304 -0.1755
  676MOL0     H91209   6.459   4.250   5.233 -1.2047 -1.9474  1.9522
  676MOL0     H91210   6.544   4.404   5.243 -2.2228  1.3508  0.3402
  676MOL0     H91211   6.494   4.549   5.475 -1.2903 -0.3157 -1.4203
  676MOL0     H91212   6.262   4.513   5.772 -0.1708 -1.0626 -0.5759
  676MOL0     H91213   6.432   4.557   5.767 -0.7006  1.1302 -0.1780
  676MOL0     H91214   6.374   4.721   5.585 -1.8430  1.6027 -0.2629
  676MOL0     H91215   6.280   4.743   5.734 -2.8903  0.8536 -0.8981
  676MOL0     H91216   6.109   4.595   5.637  2.9785 -1.2137  1.5612
  676MOL0     H91217   6.196   4.628   5.473 -2.0003  0.9701 -0.5785
  676MOL0     H91218   6.001   4.768   5.488  0.4572  1.1594 -1.0099
  676MOL0     H91219   6.149   4.860   5.502  2.2808 -2.3925 -0.0765
  676MOL0     H91220   5.936   4.906   5.903 -1.3271  1.2573 -0.7468
  676MOL0     H91221   5.852   4.783   6.126  2.2645  0.3023 -2.3986
  676MOL0     H91222   5.738   4.917   6.067 -1.9602 -0.9485 -0.2732
  676MOL0     H91223   5.678   4.764   6.110  1.3911 -0.7298  1.0948
  676MOL0     H91224   5.553   4.284   5.833  0.7409  2.8122 -0.8929
  676MOL0     H91225   5.391   4.116   5.904  1.3065  0.5725 -0.0948
  676MOL0     H91226   5.018   4.260   6.100  1.0282 -2.2281  0.8379
  676MOL0     H91227   4.972   4.257   5.928 -2.6528  0.2379  0.5726
  676MOL0     H91228   4.906   4.017   5.942 -0.8933 -4.2726  2.1013
  676MOL0     H91229   5.002   4.008   6.090  0.7670  0.4921 -1.3854
  676MOL0     H91230   4.825   4.147   6.207 -0.6755  1.0042 -1.4029
  676MOL0     H91231   4.769   3.992   6.139  1.6177 -1.0893 -0.1697
  676MOL0     H91232   4.743   4.279   6.008  0.4966  0.0676  1.2620
  676MOL0     H91233   4.693   4.132   5.924 -0.0980  1.3373 -0.5362
  676MOL0     H91234   4.587   4.263   6.176  0.7596 -1.2252  0.7329
  676MOL0     H91235   4.547   4.091   6.152 -0.0708 -0.9718  1.8111
  676MOL0     H91236   4.475   4.325   5.978  0.6423  0.6356  2.5530
  676MOL0     H91237   4.466   4.151   5.921  1.7968  0.9259 -1.4347
  676MOL0     H91238   4.307   4.249   6.163  0.8111 -0.2651  1.3141
  676MOL0     H91239   4.315   4.097   6.079  0.5377  0.8697  0.2442
  676MOL0     H91240   4.237   4.228   5.860  1.3280 -0.3544 -0.3410
  676MOL0     H91241   4.232   4.363   5.984  1.1713  0.0837  1.1724
  676MOL0     H91242   5.112   4.420   6.024  0.6683 -1.7634  2.3612
  676MOL0     H91243   5.286   4.597   5.960 -0.7266  0.6765  0.7635
  676MOL0     H91244   5.710   4.526   5.692 -0.3540 -0.5966  2.1773
  676MOL0     H91245   5.870   4.622   5.581 -0.8370 -0.1576  0.2841
  676MOL0     H91246   7.459   3.869   5.659 -0.6984  0.2292 -0.7009
  676MOL0     H91247   7.669   3.880   5.772  0.3774  0.9190 -0.7973
  676MOL0     H91248   8.162   3.886   5.888  3.1387  1.1028 -0.1448
  676MOL0     H91249   8.327   3.949   6.011  1.6785  1.1008 -4.9008
  676MOL0     H91250   8.498   4.024   6.127  1.1458 -0.0880 -1.2006
  676MOL0     H91251   8.494   4.155   6.010 -1.2333 -1.2083 -0.5694
  676MOL0     H91252   8.559   4.322   6.163  1.6088  0.5453 -0.3280
  676MOL0     H91253   8.679   4.193   6.133 -0.6679  0.5877  1.1665
  676MOL0     H91254   8.663   4.108   6.360 -0.5842 -0.5504 -1.3102
  676MOL0     H91255   8.519   4.199   6.399 -0.7887 -1.9495 -1.1615
  676MOL0     H91256   8.673   4.416   6.351  1.9254  0.6612 -1.1653
  676MOL0     H91257   8.797   4.309   6.343  0.3950  1.5569  1.6166
  676MOL0     H91258   8.707   4.280   6.768  2.1813  0.1576  0.4054
  676MOL0     H91259   8.114   4.290   6.159 -1.9800  1.4501 -0.8156
  676MOL0     H91260   7.925   4.214   6.050 -0.6819 -0.8768  0.3112
  677MOL0     O91261   9.141   9.242   0.532 -0.4989  0.1849 -0.0031
  677MOL0     C91262   9.141   9.247   0.651 -0.6038 -0.1442  0.0953
  677MOL0     O91263   9.078   9.156   0.732 -0.0834  0.7082 -0.3704
  677MOL0     C91264   8.996   9.063   0.672 -0.3819 -0.2290 -0.8073
  677MOL0     C91265   8.857   9.066   0.694 -0.2916  0.1021  0.0070
  677MOL0     C91266   8.778   8.967   0.636  0.2710 -0.1495  0.1619
  677MOL0     C91267   8.827   8.859   0.567 -0.1727  0.3778  0.1494
  677MOL0     O91268   8.736   8.768   0.525 -0.5012  0.9449 -0.1974
  677MOL0     C91269   8.761   8.626   0.528 -0.4949  0.1529  0.2141
  677MOL0     C91270   8.634   8.556   0.555 -0.2633 -0.0925 -0.9162
  677MOL0     C91271   8.533   8.582   0.442 -1.0261 -0.3848 -0.1370
  677MOL0     C91272   8.387   8.515   0.470 -0.2212 -0.4500  0.2350
  677MOL0     C91273   8.288   8.546   0.361 -0.5079 -0.6741  0.3334
  677MOL0     C91274   8.208   8.684   0.388 -0.2762  0.2810 -1.0387
  677MOL0     C91275   8.084   8.711   0.308  0.3775  0.5993  0.1402
  677MOL0     C91276   8.000   8.578   0.276 -0.0606 -0.6826 -0.3641
  677MOL0     N91277   7.867   8.603   0.236 -0.4837 -0.8933  0.0016
  677MOL0     C91278   7.755   8.583   0.316 -0.3679  0.2483  0.1211
  677MOL0     C91279   7.649   8.607   0.228 -0.6852  0.5573  0.3355
  677MOL0     C91280   7.499   8.606   0.250 -0.5321 -0.2633 -0.1386
  677MOL0     C91281   7.432   8.737   0.203 -0.9166  0.1559  0.5622
  677MOL0     C91282   7.280   8.758   0.240 -0.9383  0.2675  1.5514
  677MOL0     C91283   7.253   8.905   0.218 -0.0594 -0.3918  0.6721
  677MOL0     O91284   7.109   8.927   0.203 -0.1001 -0.3149 -0.1386
  677MOL0     C91285   7.039   8.885   0.086  1.2056  0.2089 -0.6797
  677MOL0     C91286   7.104   8.840  -0.028 -0.2035 -0.4006  0.5958
  677MOL0     C91287   7.046   8.772  -0.137 -0.8430 -1.0137  0.7802
  677MOL0     C91288   7.133   8.723  -0.255  0.5921 -0.6731  0.7032
  677MOL0     C91289   6.913   8.747  -0.135  0.0155  0.5993  0.2228
  677MOL0     C91290   6.848   8.648  -0.220 -0.2540 -0.8017 -0.2956
  677MOL0     O91291   6.719   8.661  -0.256 -0.5681 -0.2611  0.9213
  677MOL0     C91292   6.660   8.545  -0.302 -0.2708 -0.4784 -0.5058
  677MOL0     C91293   6.645   8.430  -0.226 -0.0240  0.1741  0.2302
  677MOL0     C91294   6.590   8.307  -0.268  0.5997  0.4894 -0.1601
  677MOL0     C91295   6.523   8.302  -0.396 -0.3324 -0.0782 -0.7610
  677MOL0     O91296   6.471   8.180  -0.436  0.6041 -0.3052 -0.5774
  677MOL0     C91297   6.395   8.187  -0.557  0.6021  0.1556 -0.4599
  677MOL0     C91298   6.333   8.046  -0.586  0.1634  0.2413  0.3639
  677MOL0     C91299   6.292   8.052  -0.733  0.2691  0.0048  0.0490
  677MOL0     C91300   6.227   7.924  -0.787  0.0021  0.8178  0.8835
  677MOL0     C91301   6.185   7.933  -0.926  0.0916  0.4202  1.3247
  677MOL0     C91302   6.112   7.808  -0.972 -0.1800 -0.3876  0.3764
  677MOL0     C91303   6.118   7.787  -1.125 -0.2275 -1.6361 -0.4235
  677MOL0     C91304   6.060   7.910  -1.202 -0.0889  0.4042  0.0882
  677MOL0    Cl91305   5.896   7.959  -1.155 -0.0098 -0.3003 -0.2574
  677MOL0     C91306   6.533   8.422  -0.478 -0.5525 -0.0190  0.6732
  677MOL0     C91307   6.606   8.537  -0.439  0.4996  0.8015 -0.1870
  677MOL0     O91308   6.918   8.552  -0.245  0.3335 -0.4798  0.9110
  677MOL0     C91309   6.836   8.805  -0.036  0.3574  0.3005 -0.6337
  677MOL0     C91310   6.901   8.864   0.078 -0.0172 -0.4158  0.1073
  677MOL0     N91311   7.697   8.626   0.097 -0.0044  0.3709 -0.1246
  677MOL0     N91312   7.827   8.620   0.105 -0.2231 -0.4399  0.1296
  677MOL0     C91313   8.965   8.854   0.541  0.2881  0.8576 -0.0688
  677MOL0     C91314   9.045   8.958   0.595 -0.7128  0.6250  0.1334
  677MOL0     C91315   9.238   9.351   0.715 -0.0720  0.5480  0.1454
  677MOL0     C91316   9.237   9.398   0.851  0.2538 -0.3738  0.6450
  677MOL0     C91317   9.336   9.500   0.895  0.6410 -0.0205  0.1416
  677MOL0     C91318   9.438   9.549   0.813 -0.1571 -0.4252  0.3050
  677MOL0     O91319   9.523   9.637   0.861 -0.3498 -0.3463  0.2261
  677MOL0     C91320   9.601   9.715   0.770 -0.8123  0.4650 -1.1814
  677MOL0     C91321   9.519   9.824   0.702 -0.3827  0.6839 -0.1021
  677MOL0     C91322   9.467   9.927   0.793 -0.6028 -0.0405 -0.7106
  677MOL0     C91323   9.580  10.015   0.845 -0.1615 -0.2762 -0.2223
  677MOL0     C91324   9.528  10.119   0.935 -0.4039  0.5554 -0.2153
  677MOL0     C91325   9.454  10.192   1.004  0.6081  1.0380  0.4150
  677MOL0     C91326   9.442   9.494   0.679 -0.5148 -0.0519 -0.6605
  677MOL0     C91327   9.345   9.399   0.638  0.5276 -1.0413  0.0528
  677MOL0     H91328   8.811   9.145   0.752  0.5058  2.3942 -2.2704
  677MOL0     H91329   8.672   8.972   0.661  0.1046  1.8212 -0.7618
  677MOL0     H91330   8.807   8.590   0.436  5.3088  1.0650  2.3244
  677MOL0     H91331   8.823   8.604   0.616 -1.1957 -0.0453  0.6717
  677MOL0     H91332   8.658   8.449   0.553  3.4007  0.5998 -2.2324
  677MOL0     H91333   8.602   8.598   0.651  0.8871 -0.6636 -0.2548
  677MOL0     H91334   8.518   8.691   0.436  0.9477 -0.0959 -0.5234
  677MOL0     H91335   8.565   8.552   0.342 -1.8556 -1.1743 -0.1798
  677MOL0     H91336   8.390   8.406   0.478  1.7536 -0.6417 -2.1057
  677MOL0     H91337   8.354   8.560   0.565  0.3358 -0.4787  0.4450
  677MOL0     H91338   8.329   8.565   0.262 -0.1422  0.2272  0.6446
  677MOL0     H91339   8.217   8.465   0.343 -2.4872  1.2587 -1.0851
  677MOL0     H91340   8.187   8.690   0.495 -2.2292 -0.1575 -1.3535
  677MOL0     H91341   8.280   8.762   0.362  0.2263 -0.0643 -0.7067
  677MOL0     H91342   8.016   8.785   0.352 -1.6632 -0.0772 -1.7249
  677MOL0     H91343   8.112   8.754   0.211  3.7538 -1.9687 -0.2050
  677MOL0     H91344   7.991   8.522   0.369  0.3934  0.4139  0.3599
  677MOL0     H91345   8.058   8.521   0.202  3.5426  0.4017  1.3625
  677MOL0     H91346   7.735   8.571   0.422  2.1083  2.3493  0.9354
  677MOL0     H91347   7.455   8.518   0.203 -1.6496 -0.5452  1.3568
  677MOL0     H91348   7.480   8.601   0.357  1.9867  0.7995  0.4328
  677MOL0     H91349   7.428   8.728   0.095 -1.3980 -0.8193  0.6503
  677MOL0     H91350   7.491   8.824   0.233  1.2212 -0.6016 -1.1485
  677MOL0     H91351   7.258   8.740   0.346  1.5053 -2.5591  1.7131
  677MOL0     H91352   7.221   8.691   0.178 -0.0777 -1.2540  2.3265
  677MOL0     H91353   7.297   8.943   0.125 -2.6345 -1.3087 -1.0269
  677MOL0     H91354   7.290   8.968   0.299 -2.2893  2.8911 -0.6736
  677MOL0     H91355   7.211   8.836  -0.041 -0.2560 -0.5168  0.2075
  677MOL0     H91356   7.072   8.728  -0.346  0.8831 -0.9996  0.4871
  677MOL0     H91357   7.218   8.786  -0.283  0.9800 -0.4775  2.2371
  677MOL0     H91358   7.164   8.619  -0.236  0.4013 -0.8276  0.1868
  677MOL0     H91359   6.688   8.431  -0.127 -2.0998 -0.1500  1.2023
  677MOL0     H91360   6.582   8.211  -0.217 -0.3855  0.2826 -0.6951
  677MOL0     H91361   6.316   8.262  -0.557  0.7473  0.3650  1.5965
  677MOL0     H91362   6.456   8.205  -0.645  0.3451 -3.3643 -1.5409
  677MOL0     H91363   6.407   7.967  -0.570 -0.8084 -0.6084  0.7913
  677MOL0     H91364   6.244   8.020  -0.528  1.6437 -1.6970  1.9313
  677MOL0     H91365   6.381   8.076  -0.791  2.4424  2.0909  3.8343
  677MOL0     H91366   6.225   8.137  -0.746  1.5112  0.9908 -0.0144
  677MOL0     H91367   6.305   7.846  -0.781 -0.3576  0.4633  0.9961
  677MOL0     H91368   6.145   7.889  -0.724 -1.0949 -0.1846 -1.0182
  677MOL0     H91369   6.277   7.939  -0.985  0.0940 -2.8700  0.7959
  677MOL0     H91370   6.114   8.015  -0.943 -1.8852 -1.1147  1.6792
  677MOL0     H91371   6.152   7.715  -0.932  0.0975  0.6749  2.7127
  677MOL0     H91372   6.007   7.820  -0.945 -0.0575  3.4324 -0.2640
  677MOL0     H91373   6.069   7.696  -1.160 -0.8678 -1.5962  0.3522
  677MOL0     H91374   6.226   7.778  -1.144  0.5889  0.7199  2.3930
  677MOL0     H91375   6.057   7.880  -1.307  0.5940  0.9300 -0.0888
  677MOL0     H91376   6.133   7.991  -1.202 -1.1476  1.3948 -1.3170
  677MOL0     H91377   6.490   8.417  -0.578  2.2289  2.5431 -0.8137
  677MOL0     H91378   6.617   8.618  -0.511 -1.5254  2.0851  0.8493
  677MOL0     H91379   6.728   8.797  -0.025  0.6014 -0.1553  2.4963
  677MOL0     H91380   6.852   8.879   0.174  0.6474 -5.4159  1.4537
  677MOL0     H91381   9.005   8.775   0.478 -2.0326  0.0061 -0.5594
  677MOL0     H91382   9.151   8.963   0.572 -0.1575  2.7074  2.7243
  677MOL0     H91383   9.162   9.359   0.919 -0.6725  0.4127  0.1020
  677MOL0     H91384   9.321   9.551   0.989  1.3213 -1.2147  0.9345
  677MOL0     H91385   9.691   9.752   0.819 -1.0466  0.0908 -0.4475
  677MOL0     H91386   9.637   9.651   0.689 -2.7071 -1.1878 -0.8126
  677MOL0     H91387   9.430   9.778   0.657 -1.0598  0.7396  1.1437
  677MOL0     H91388   9.580   9.866   0.621 -0.2123 -0.2240 -0.4556
  677MOL0     H91389   9.410   9.875   0.871  2.8015 -3.3284 -0.0957
  677MOL0     H91390   9.410  10.004   0.741 -1.2048  0.8260  1.1479
  677MOL0     H91391   9.636  10.061   0.763  0.5465 -1.0479 -0.1772
  677MOL0     H91392   9.655   9.959   0.901 -1.9362 -2.3240  0.2860
  677MOL0     H91393   9.392  10.262   1.056 -0.5927  0.7293 -0.5647
  677MOL0     H91394   9.525   9.507   0.611  0.0562  0.4595  0.1165
  677MOL0     H91395   9.373   9.351   0.546 -0.2126  1.7207 -1.7361
  678MOL0     O91396   1.538   3.876   9.651 -0.9665 -0.3003 -0.2987
  678MOL0     C91397   1.578   3.772   9.606  0.8675 -0.5187 -0.1269
  678MOL0     O91398   1.532   3.709   9.494 -0.0252  0.3496  0.4270
  678MOL0     C91399   1.440   3.767   9.425  0.3873  0.1147  0.8401
  678MOL0     C91400   1.325   3.696   9.404  0.2261  0.0100  0.7223
  678MOL0     C91401   1.214   3.762   9.336 -0.2956  0.3130 -0.7361
  678MOL0     C91402   1.236   3.887   9.275 -0.0047  0.4308  0.9165
  678MOL0     O91403   1.145   3.962   9.197 -0.3949 -0.2686  0.9190
  678MOL0     C91404   0.998   3.933   9.184 -1.0148 -0.8995 -1.0545
  678MOL0     C91405   0.944   3.931   9.039  0.3554  0.0383  1.1191
  678MOL0     C91406   0.797   3.910   9.027 -0.8573  0.3992 -0.0132
  678MOL0     C91407   0.730   3.789   9.082 -0.1840  0.7718 -0.0352
  678MOL0     C91408   0.576   3.801   9.084  0.3050 -0.9807  0.4558
  678MOL0     C91409   0.515   3.812   8.945 -0.7246 -0.7475 -0.3183
  678MOL0     C91410   0.358   3.813   8.944  0.1688 -1.0979  1.5540
  678MOL0     C91411   0.298   3.933   9.022 -0.0242 -0.0973  0.7062
  678MOL0     N91412   0.149   3.924   9.011  0.5283 -0.1362  0.2521
  678MOL0     C91413   0.067   3.936   9.123  0.9937 -0.5169  0.5113
  678MOL0     C91414  -0.054   3.973   9.072  1.0573  0.8397  0.2097
  678MOL0     C91415  -0.177   3.996   9.156  0.4294  0.4264  0.3263
  678MOL0     C91416  -0.294   3.897   9.125 -0.5141 -0.3519 -0.1079
  678MOL0     C91417  -0.412   3.905   9.227 -0.8563 -0.0461  0.6354
  678MOL0     C91418  -0.547   3.863   9.171  0.3019  0.2636 -0.1490
  678MOL0     O91419  -0.531   3.739   9.093  0.5382  0.8127  0.0616
  678MOL0     C91420  -0.643   3.665   9.065 -0.4847  0.3529 -0.5482
  678MOL0     C91421  -0.773   3.699   9.094 -0.0359  0.5902  0.6102
  678MOL0     C91422  -0.886   3.615   9.059 -0.1193  0.0859 -0.4301
  678MOL0     C91423  -1.025   3.672   9.071  0.6547  0.8720  0.0346
  678MOL0     C91424  -0.856   3.479   9.015  0.3219 -0.4113 -0.1619
  678MOL0     C91425  -0.948   3.380   8.998  1.0134  0.7193  0.6196
  678MOL0     O91426  -0.916   3.287   8.905 -0.0599 -0.1207  0.1088
  678MOL0     C91427  -1.005   3.190   8.872 -0.2026 -0.3369 -0.5023
  678MOL0     C91428  -1.128   3.209   8.806 -0.2469 -0.3671  0.0062
  678MOL0     C91429  -1.207   3.094   8.776 -0.7583  0.2260 -0.5507
  678MOL0     C91430  -1.172   2.962   8.813 -0.5388 -0.0691 -0.3542
  678MOL0     O91431  -1.253   2.850   8.797  0.2811 -0.1576  0.6370
  678MOL0     C91432  -1.284   2.774   8.911 -0.2699  0.3047 -0.3315
  678MOL0     C91433  -1.422   2.701   8.892  0.3521  0.0920  0.2214
  678MOL0     C91434  -1.543   2.780   8.935  0.2622  0.1903 -0.4760
  678MOL0     C91435  -1.545   2.917   8.864 -0.6079  0.5250 -0.6682
  678MOL0     C91436  -1.681   2.986   8.870  0.3559  0.1945 -0.5897
  678MOL0     C91437  -1.690   3.103   8.773 -0.3384  0.5236  0.1762
  678MOL0     C91438  -1.827   3.140   8.734  0.5650 -0.2080  0.1394
  678MOL0     C91439  -1.827   3.267   8.653  0.8635  0.3570 -0.2815
  678MOL0    Cl91440  -1.984   3.284   8.557  0.2610 -0.2632 -0.1103
  678MOL0     C91441  -1.047   2.953   8.881  0.0239 -0.4942 -0.5849
  678MOL0     C91442  -0.961   3.063   8.898  0.0478  0.3945 -0.8517
  678MOL0     O91443  -1.054   3.367   9.076  0.2497  0.3093 -0.4377
  678MOL0     C91444  -0.725   3.450   8.996 -0.0593  0.1245  0.1405
  678MOL0     C91445  -0.621   3.544   9.007 -0.1363 -0.2236 -0.8192
  678MOL0     N91446  -0.050   3.967   8.929  0.6849  0.4421  0.2694
  678MOL0     N91447   0.071   3.928   8.899 -0.1069 -0.2155  1.0416
  678MOL0     C91448   1.365   3.947   9.291 -0.7362  1.4026  0.0613
  678MOL0     C91449   1.468   3.883   9.361  0.4052  0.7239 -0.6529
  678MOL0     C91450   1.701   3.717   9.657 -0.1173  0.2861 -0.0660
  678MOL0     C91451   1.795   3.780   9.748  1.1349  0.2311  0.1362
  678MOL0     C91452   1.909   3.723   9.791  0.6650  0.2929  0.5592
  678MOL0     C91453   1.944   3.599   9.746 -0.7251 -0.0071  0.2615
  678MOL0     O91454   2.063   3.540   9.777 -0.8132 -0.2131 -0.1094
  678MOL0     C91455   2.097   3.531   9.915 -0.0861  0.2667 -0.4384
  678MOL0     C91456   2.099   3.378   9.956  0.0233 -0.2618  0.5609
  678MOL0     C91457   1.966   3.317   9.972 -0.5827 -0.8463 -0.2553
  678MOL0     C91458   1.959   3.250  10.110  0.0638 -0.1158 -0.0081
  678MOL0     C91459   1.982   3.331  10.237 -0.3522  0.3648  0.0317
  678MOL0     C91460   2.029   3.385  10.335  0.5697 -0.3101 -1.5914
  678MOL0     C91461   1.856   3.526   9.663  0.5060  0.7618 -0.7743
  678MOL0     C91462   1.738   3.582   9.619  0.1836 -0.0425  0.4749
  678MOL0     H91463   1.293   3.604   9.454  0.1481  0.0479  0.7429
  678MOL0     H91464   1.125   3.699   9.336  1.2267 -2.1758  2.7561
  678MOL0     H91465   0.965   3.841   9.233 -0.3287 -0.5174  0.1521
  678MOL0     H91466   0.971   4.015   9.251  0.4171 -1.5749  0.4271
  678MOL0     H91467   0.983   4.017   8.985 -0.3569  0.5054  1.3298
  678MOL0     H91468   0.989   3.842   8.994 -0.4680  1.0858 -2.0123
  678MOL0     H91469   0.749   3.991   9.084 -3.1795 -2.2752  2.1214
  678MOL0     H91470   0.770   3.921   8.922 -0.7076  2.2328  0.0956
  678MOL0     H91471   0.764   3.701   9.025  1.4096  0.3951  1.4017
  678MOL0     H91472   0.773   3.768   9.180  1.4005  0.4471 -0.7590
  678MOL0     H91473   0.528   3.712   9.126 -1.0135  0.0458  1.1810
  678MOL0     H91474   0.548   3.891   9.140 -1.6693 -1.4159  0.2140
  678MOL0     H91475   0.555   3.898   8.890 -1.8347  0.4853  0.7280
  678MOL0     H91476   0.547   3.725   8.886  3.0852 -1.0467  1.8922
  678MOL0     H91477   0.327   3.819   8.840  2.6230  0.1905  0.8126
  678MOL0     H91478   0.331   3.713   8.978  3.3041 -3.2514 -1.5512
  678MOL0     H91479   0.334   4.022   8.969  1.1234 -1.8787 -1.6996
  678MOL0     H91480   0.325   3.940   9.128  0.7823  2.4160  0.4206
  678MOL0     H91481   0.094   3.920   9.227 -0.3393  0.4940  1.0396
  678MOL0     H91482  -0.154   3.987   9.263  1.3251  2.1992  0.3134
  678MOL0     H91483  -0.206   4.101   9.148 -5.1870 -0.8749 -0.8292
  678MOL0     H91484  -0.254   3.795   9.116 -0.5924 -0.4473  0.5868
  678MOL0     H91485  -0.328   3.921   9.024  1.5363  1.0284 -0.5331
  678MOL0     H91486  -0.422   4.011   9.255 -2.3026  0.3038 -0.9950
  678MOL0     H91487  -0.398   3.843   9.316 -4.3772  1.6622  2.6059
  678MOL0     H91488  -0.586   3.931   9.094  2.0084  0.6737 -0.6956
  678MOL0     H91489  -0.619   3.854   9.253  1.2907  0.7441  0.7983
  678MOL0     H91490  -0.793   3.800   9.127 -0.0443  1.5471 -2.0323
  678MOL0     H91491  -1.072   3.648   9.167  3.1727 -1.2849  0.8562
  678MOL0     H91492  -1.019   3.780   9.057 -0.1289  1.2316  2.0221
  678MOL0     H91493  -1.085   3.624   8.993  0.6396 -2.0389  1.6668
  678MOL0     H91494  -1.153   3.312   8.781  0.0964 -0.3028 -0.0793
  678MOL0     H91495  -1.299   3.099   8.719 -1.1739  3.1461  0.2355
  678MOL0     H91496  -1.199   2.712   8.942  1.3993  0.9366 -3.2880
  678MOL0     H91497  -1.290   2.842   8.996  3.0087 -1.0221  1.1532
  678MOL0     H91498  -1.432   2.681   8.785  0.1561  1.2932  0.0036
  678MOL0     H91499  -1.430   2.605   8.944  2.3946  0.1121  0.6635
  678MOL0     H91500  -1.534   2.796   9.043  0.3203 -0.9142 -0.3026
  678MOL0     H91501  -1.635   2.725   8.913  1.2451 -0.8119 -2.3591
  678MOL0     H91502  -1.469   2.981   8.911  2.3008 -3.6253  0.9254
  678MOL0     H91503  -1.512   2.898   8.761  3.6839 -1.6662  0.8263
  678MOL0     H91504  -1.703   3.017   8.972  2.5856  1.4945 -0.4575
  678MOL0     H91505  -1.748   2.901   8.852  3.8582 -3.2853  1.2720
  678MOL0     H91506  -1.644   3.191   8.820  0.9054  0.7162 -1.3097
  678MOL0     H91507  -1.637   3.081   8.680 -1.9198  2.4226 -1.2799
  678MOL0     H91508  -1.891   3.156   8.821 -1.0835 -2.5871 -0.5526
  678MOL0     H91509  -1.871   3.061   8.672 -2.3803  1.4338 -0.0313
  678MOL0     H91510  -1.747   3.257   8.580  0.0966 -0.8975 -0.9924
  678MOL0     H91511  -1.818   3.346   8.728 -3.1003  0.9527 -0.2097
  678MOL0     H91512  -1.025   2.853   8.915 -2.2430 -1.1930 -0.9923
  678MOL0     H91513  -0.864   3.032   8.934 -0.5224 -0.1874  0.2597
  678MOL0     H91514  -0.705   3.349   8.959 -1.2408  0.3447 -1.1919
  678MOL0     H91515  -0.524   3.498   8.992  0.6153  0.9631  0.1929
  678MOL0     H91516   1.392   4.040   9.242 -2.6042  0.9653 -1.9654
  678MOL0     H91517   1.567   3.925   9.373  1.0119 -1.3002  2.5854
  678MOL0     H91518   1.756   3.879   9.770 -0.3264 -0.2430 -0.1869
  678MOL0     H91519   1.988   3.771   9.848  1.4591 -0.8958  0.4815
  678MOL0     H91520   2.197   3.575   9.921  0.1208  0.3584 -3.2935
  678MOL0     H91521   2.032   3.591   9.979 -0.0213  0.4451 -0.5400
  678MOL0     H91522   2.164   3.365  10.043  1.0101 -3.2631 -0.4861
  678MOL0     H91523   2.151   3.327   9.874 -0.6234 -0.7059  0.4158
  678MOL0     H91524   1.957   3.233   9.903 -0.3355  1.1365 -2.8727
  678MOL0     H91525   1.883   3.382   9.943  2.2712  3.4875  0.3926
  678MOL0     H91526   2.041   3.177  10.109 -0.8838 -1.4565  3.4987
  678MOL0     H91527   1.865   3.196  10.129  2.3059 -3.8636  1.5723
  678MOL0     H91528   2.064   3.434  10.424 -1.6661 -2.2589  0.4813
  678MOL0     H91529   1.897   3.431   9.631  0.5706  0.3965  0.3511
  678MOL0     H91530   1.670   3.522   9.559  0.4895 -0.3712  0.4547
  679MOL0     O91531   2.282   7.615   0.956 -0.0645  0.4936  0.2182
  679MOL0     C91532   2.384   7.544   0.985 -0.1287  0.6980  0.7446
  679MOL0     O91533   2.402   7.414   0.951  0.6520 -0.9169 -0.5418
  679MOL0     C91534   2.306   7.342   0.892 -0.4159 -0.0316  0.4826
  679MOL0     C91535   2.329   7.282   0.771 -0.2465 -0.2772  0.3140
  679MOL0     C91536   2.226   7.228   0.695 -0.2807  0.3886 -0.5493
  679MOL0     C91537   2.088   7.225   0.742  0.2906  0.0476  0.0175
  679MOL0     O91538   1.997   7.171   0.664  0.1557 -0.0309  0.0549
  679MOL0     C91539   1.863   7.206   0.690 -0.2551  0.4003  0.2312
  679MOL0     C91540   1.785   7.191   0.559  0.2207  0.3226 -0.4942
  679MOL0     C91541   1.643   7.198   0.596 -0.4034 -0.1018  0.2534
  679MOL0     C91542   1.562   7.066   0.600  0.3924  0.3062  0.0240
  679MOL0     C91543   1.411   7.093   0.635  1.0397  0.4659  0.0535
  679MOL0     C91544   1.334   6.965   0.637 -0.5592  0.1554  0.0659
  679MOL0     C91545   1.306   6.889   0.501 -1.1128 -1.3340  0.7166
  679MOL0     C91546   1.251   6.975   0.388  1.0093  0.0259 -0.0684
  679MOL0     N91547   1.120   7.039   0.421  0.6834  0.1128 -0.1566
  679MOL0     C91548   0.991   6.990   0.396 -0.0071 -0.6220 -0.6609
  679MOL0     C91549   0.897   7.053   0.479  0.6581  0.0575 -0.6945
  679MOL0     C91550   0.747   7.007   0.480  0.0392 -0.5331 -0.3715
  679MOL0     C91551   0.734   6.856   0.492 -0.1125  0.7669  0.1297
  679MOL0     C91552   0.588   6.826   0.532  0.1131  1.0551  0.1567
  679MOL0     C91553   0.578   6.676   0.557 -0.0407 -0.3081  0.7501
  679MOL0     O91554   0.576   6.607   0.430  0.3538 -0.4350  0.4877
  679MOL0     C91555   0.644   6.483   0.440 -0.5308 -0.0227  1.0603
  679MOL0     C91556   0.616   6.393   0.540  0.6871  0.6837  0.1655
  679MOL0     C91557   0.675   6.261   0.541  0.0287  0.0963  0.1939
  679MOL0     C91558   0.628   6.165   0.643  0.4628  0.3323 -0.2270
  679MOL0     C91559   0.770   6.234   0.437 -0.4810  0.1936  0.4107
  679MOL0     C91560   0.852   6.108   0.425 -0.5398 -0.1421 -0.9132
  679MOL0     O91561   0.957   6.109   0.338  0.2742  0.3413 -0.2230
  679MOL0     C91562   1.023   5.982   0.338  0.5058 -0.3204 -0.5374
  679MOL0     C91563   1.134   5.952   0.422 -0.2437 -0.8298  0.0107
  679MOL0     C91564   1.198   5.825   0.416  0.7476 -0.5948 -0.0357
  679MOL0     C91565   1.147   5.726   0.321 -0.5017  0.0755  0.9484
  679MOL0     O91566   1.195   5.595   0.302  0.7493  0.2121 -0.7615
  679MOL0     C91567   1.288   5.547   0.412 -0.3971  0.5306 -0.4685
  679MOL0     C91568   1.346   5.404   0.385  0.4016 -0.2325 -0.5167
  679MOL0     C91569   1.238   5.317   0.321  0.3940  0.0942 -0.1263
  679MOL0     C91570   1.130   5.280   0.419  0.2853 -0.2238  0.1581
  679MOL0     C91571   1.054   5.157   0.361 -0.6285  0.6943  0.8096
  679MOL0     C91572   0.948   5.119   0.458 -0.4677  0.3403 -0.3445
  679MOL0     C91573   0.897   4.973   0.426 -0.5092  0.4830  0.2198
  679MOL0     C91574   0.937   4.868   0.532  0.3542  0.1719  0.6922
  679MOL0    Cl91575   0.933   4.922   0.708 -0.5279 -0.2555 -0.0373
  679MOL0     C91576   1.040   5.766   0.241  0.7101  0.7635  0.9504
  679MOL0     C91577   0.976   5.888   0.249 -0.1232 -0.3993  0.2808
  679MOL0     O91578   0.824   6.023   0.505 -0.2297  0.0677 -0.7192
  679MOL0     C91579   0.788   6.328   0.338 -0.0393  0.7331 -0.0652
  679MOL0     C91580   0.734   6.447   0.334  0.6618 -0.3856 -0.0572
  679MOL0     N91581   0.965   7.146   0.552 -0.8436  0.4799  0.1525
  679MOL0     N91582   1.092   7.135   0.519 -0.1980  0.1203  0.1115
  679MOL0     C91583   2.069   7.284   0.872  0.0425 -0.2311  0.1654
  679MOL0     C91584   2.181   7.331   0.942  0.6785 -0.3460  0.5227
  679MOL0     C91585   2.493   7.614   1.052  0.0265  0.1551  0.4015
  679MOL0     C91586   2.624   7.558   1.066 -0.8760  0.2521  0.4808
  679MOL0     C91587   2.732   7.616   1.143  0.9048 -0.1330  0.1391
  679MOL0     C91588   2.716   7.752   1.201 -0.6586 -0.1443  0.2175
  679MOL0     O91589   2.824   7.807   1.277  0.3424  0.9161  0.9249
  679MOL0     C91590   2.795   7.905   1.371 -0.7160 -0.3901 -1.0044
  679MOL0     C91591   2.926   7.942   1.460  0.7165 -1.2134  0.6793
  679MOL0     C91592   2.997   7.833   1.524  0.0245 -0.3309 -0.1033
  679MOL0     C91593   3.119   7.865   1.605  0.0446 -0.2731  0.2295
  679MOL0     C91594   3.223   7.943   1.528 -0.4611  0.2910  0.8800
  679MOL0     C91595   3.313   7.987   1.453  0.5997  0.0077  0.4573
  679MOL0     C91596   2.599   7.815   1.167  0.3049 -0.4855  0.3061
  679MOL0     C91597   2.486   7.743   1.101 -1.1106  0.3899 -0.3160
  679MOL0     H91598   2.429   7.276   0.730  0.1692 -0.4581  1.3078
  679MOL0     H91599   2.249   7.187   0.597 -1.5913 -1.7810 -0.0195
  679MOL0     H91600   1.832   7.139   0.771  2.6254 -1.4426 -0.0325
  679MOL0     H91601   1.844   7.310   0.717 -0.3793  0.2599  0.7029
  679MOL0     H91602   1.816   7.270   0.491  1.3413  0.8055  0.5464
  679MOL0     H91603   1.821   7.109   0.496  1.8014  1.2525 -0.8580
  679MOL0     H91604   1.622   7.238   0.695  1.3524 -0.2637  0.7301
  679MOL0     H91605   1.595   7.271   0.530 -1.5742 -1.3502 -0.3360
  679MOL0     H91606   1.570   7.011   0.505 -2.4124  0.9076 -0.6782
  679MOL0     H91607   1.591   6.999   0.681 -0.9070 -0.3211  0.0094
  679MOL0     H91608   1.402   7.142   0.732  1.1409  4.5475 -1.7900
  679MOL0     H91609   1.365   7.161   0.562 -1.8095 -0.9957  0.3675
  679MOL0     H91610   1.391   6.904   0.708 -1.1720  0.8699  1.2058
  679MOL0     H91611   1.244   6.985   0.696  0.3756 -2.6400  2.7212
  679MOL0     H91612   1.404   6.855   0.467  0.6040  1.9497  1.9674
  679MOL0     H91613   1.238   6.804   0.511 -3.7132  0.7825  2.1213
  679MOL0     H91614   1.227   6.907   0.306  1.0580 -1.2101  0.9092
  679MOL0     H91615   1.312   7.062   0.365  0.7490 -0.0534 -1.0890
  679MOL0     H91616   0.970   6.905   0.332 -0.7682 -1.9628  1.2659
  679MOL0     H91617   0.692   7.061   0.557  1.6601 -0.7028  0.9585
  679MOL0     H91618   0.713   7.042   0.382 -0.0199  1.2622  0.2415
  679MOL0     H91619   0.802   6.811   0.564  1.1532 -1.0662 -2.0801
  679MOL0     H91620   0.751   6.821   0.390  0.2507  0.9130  0.1401
  679MOL0     H91621   0.522   6.854   0.449  1.9586 -0.1936 -1.8088
  679MOL0     H91622   0.560   6.884   0.621 -0.4351  0.8330  0.1348
  679MOL0     H91623   0.484   6.652   0.608 -0.3401  1.4639  1.0998
  679MOL0     H91624   0.663   6.645   0.618  1.9067 -0.8748 -2.0704
  679MOL0     H91625   0.537   6.422   0.608 -1.1253  0.4621 -1.7580
  679MOL0     H91626   0.704   6.104   0.693 -2.0861 -2.3652  0.6768
  679MOL0     H91627   0.576   6.209   0.729  1.5885  0.5637  0.3595
  679MOL0     H91628   0.556   6.096   0.598  1.6608 -0.4922 -0.9533
  679MOL0     H91629   1.145   6.024   0.502 -2.5742  1.1941 -1.3369
  679MOL0     H91630   1.280   5.794   0.480 -0.7458  0.5720  2.5931
  679MOL0     H91631   1.382   5.603   0.409  0.5094 -0.9473 -3.3488
  679MOL0     H91632   1.237   5.553   0.509  1.5068 -0.5715  0.6624
  679MOL0     H91633   1.430   5.413   0.316  0.6148  0.3217 -0.1805
  679MOL0     H91634   1.395   5.367   0.475  0.2351  0.1728 -0.2570
  679MOL0     H91635   1.294   5.227   0.295  1.1986  0.8833 -1.2112
  679MOL0     H91636   1.200   5.349   0.223 -3.3996 -1.7919  0.5392
  679MOL0     H91637   1.172   5.254   0.516  0.2864 -0.9390 -0.0270
  679MOL0     H91638   1.067   5.367   0.440 -1.3526 -0.5808 -2.6760
  679MOL0     H91639   1.123   5.072   0.352 -0.2368  0.7362  3.0116
  679MOL0     H91640   1.008   5.174   0.263  1.7046 -0.3093 -0.5616
  679MOL0     H91641   0.987   5.125   0.560 -2.1224  0.6953  0.2982
  679MOL0     H91642   0.870   5.197   0.459  0.2796  1.1055  0.0554
  679MOL0     H91643   0.947   4.934   0.337  0.5593  1.5140  0.3492
  679MOL0     H91644   0.788   4.965   0.417 -0.4243  0.8544 -1.6092
  679MOL0     H91645   1.038   4.828   0.525 -1.2741 -4.3523 -0.6350
  679MOL0     H91646   0.874   4.780   0.519 -0.0889  0.6096 -0.2158
  679MOL0     H91647   0.985   5.697   0.178  1.7435 -1.3431  2.2512
  679MOL0     H91648   0.888   5.906   0.188  0.1285  3.4154  0.8161
  679MOL0     H91649   0.854   6.303   0.256  0.6432  1.7994  0.1457
  679MOL0     H91650   0.767   6.505   0.249  2.5727 -1.2425  0.0478
  679MOL0     H91651   1.964   7.284   0.900 -0.3033 -0.1987 -1.0919
  679MOL0     H91652   2.157   7.394   1.028  4.4533  0.0542  1.4722
  679MOL0     H91653   2.632   7.461   1.018 -1.5468  1.2336 -1.7407
  679MOL0     H91654   2.827   7.563   1.152  1.0124  0.2581  1.5625
  679MOL0     H91655   2.756   7.994   1.322 -0.7233 -1.3120 -2.7425
  679MOL0     H91656   2.722   7.868   1.444 -0.7665  0.1572 -0.7772
  679MOL0     H91657   2.887   8.005   1.541  0.3690 -1.6509  0.8508
  679MOL0     H91658   3.000   7.996   1.400  1.6107 -2.1405  0.9191
  679MOL0     H91659   3.010   7.760   1.444 -0.3175  1.7450 -2.1743
  679MOL0     H91660   2.927   7.780   1.588 -1.6835  0.1377 -1.5155
  679MOL0     H91661   3.171   7.776   1.642  1.2541  0.2084 -0.2823
  679MOL0     H91662   3.086   7.938   1.680 -0.1170  0.2967 -0.3882
  679MOL0     H91663   3.390   8.037   1.397 -1.8966  4.2571  0.3246
  679MOL0     H91664   2.583   7.918   1.196  2.8820  0.3298 -0.8548
  679MOL0     H91665   2.396   7.803   1.100 -0.0088  2.2964  2.2836
  680MOL0     O91666   3.371   0.376   9.484 -0.4402 -0.9279  0.2078
  680MOL0     C91667   3.416   0.490   9.524 -0.1057 -0.2032  0.2512
  680MOL0     O91668   3.345   0.599   9.575  0.0532 -0.2739 -0.1327
  680MOL0     C91669   3.208   0.579   9.571  0.2424  0.3221 -0.4696
  680MOL0     C91670   3.142   0.491   9.667  0.6698  0.0363  0.9134
  680MOL0     C91671   3.006   0.492   9.668  0.2199 -0.7433  0.4442
  680MOL0     C91672   2.928   0.568   9.578 -0.7780  0.1161  0.5363
  680MOL0     O91673   2.793   0.559   9.560  0.7748  0.3847  0.0415
  680MOL0     C91674   2.701   0.517   9.658 -0.2960 -0.0072  0.0997
  680MOL0     C91675   2.564   0.537   9.593  0.1696  0.7320  0.1006
  680MOL0     C91676   2.452   0.503   9.693  1.6550 -0.2794  0.7035
  680MOL0     C91677   2.416   0.598   9.806  0.0392  0.3440 -0.8338
  680MOL0     C91678   2.264   0.598   9.839 -0.0155 -0.5547  0.4706
  680MOL0     C91679   2.225   0.681   9.959  0.2295  0.2301  0.4402
  680MOL0     C91680   2.081   0.661   9.990  0.6899 -0.3153  0.6096
  680MOL0     C91681   2.035   0.762  10.095  0.1064 -0.3244 -0.6643
  680MOL0     N91682   1.894   0.779  10.112 -0.2197  0.0773 -0.0909
  680MOL0     C91683   1.797   0.708  10.178 -0.5931  0.2091 -0.0729
  680MOL0     C91684   1.687   0.785  10.196  0.0183 -0.3431  0.3793
  680MOL0     C91685   1.559   0.744  10.269 -1.0006  0.4116 -0.1311
  680MOL0     C91686   1.590   0.726  10.418  0.2840  0.4800 -0.0799
  680MOL0     C91687   1.512   0.815  10.512  0.0290 -0.6711  0.1749
  680MOL0     C91688   1.364   0.788  10.519  0.0786  0.7932  1.2548
  680MOL0     O91689   1.300   0.893  10.576 -0.2205  0.1102 -1.1218
  680MOL0     C91690   1.297   0.885  10.716  0.8874  0.5259 -0.6548
  680MOL0     C91691   1.393   0.939  10.806 -0.5452  1.0758  0.2772
  680MOL0     C91692   1.374   0.920  10.941 -0.9700 -0.3154  0.7592
  680MOL0     C91693   1.485   0.994  11.019  0.3617  0.3600  0.0564
  680MOL0     C91694   1.271   0.837  10.996  0.5574  0.3935  0.7910
  680MOL0     C91695   1.275   0.798  11.141 -0.5696  0.0904  0.3097
  680MOL0     O91696   1.152   0.756  11.196 -0.0410  0.2293  0.4806
  680MOL0     C91697   1.141   0.702  11.325 -0.2509  0.2394  0.5013
  680MOL0     C91698   1.033   0.748  11.402  0.2010 -0.1423  1.2041
  680MOL0     C91699   1.028   0.721  11.535 -0.2873  1.5723 -0.2447
  680MOL0     C91700   1.119   0.626  11.591  0.0490  0.6277  0.3214
  680MOL0     O91701   1.088   0.585  11.713 -0.4419 -0.3122 -1.1239
  680MOL0     C91702   1.164   0.481  11.779 -0.6512 -0.9421 -0.3047
  680MOL0     C91703   1.151   0.336  11.746  0.2338  0.2784  0.2909
  680MOL0     C91704   1.015   0.294  11.724  0.2121 -0.1787 -0.2333
  680MOL0     C91705   0.990   0.136  11.718  0.4090 -0.1948 -0.1375
  680MOL0     C91706   0.844   0.091  11.700 -0.0231 -0.9202  0.3849
  680MOL0     C91707   0.734   0.157  11.781  0.0007  0.3010 -0.9225
  680MOL0     C91708   0.595   0.094  11.750 -0.4713 -0.4243 -0.4459
  680MOL0     C91709   0.492   0.116  11.856  1.3301  0.0681  0.4539
  680MOL0    Cl91710   0.336   0.124  11.785  0.4803 -0.0366  0.1843
  680MOL0     C91711   1.229   0.578  11.516 -1.1182 -0.2089 -0.5102
  680MOL0     C91712   1.241   0.616  11.383  0.3509 -0.6083  0.2461
  680MOL0     O91713   1.384   0.798  11.199  0.5405 -0.6463 -0.2584
  680MOL0     C91714   1.171   0.789  10.908  0.3908  0.4465 -0.2540
  680MOL0     C91715   1.187   0.813  10.766 -0.4851 -0.5855 -0.8340
  680MOL0     N91716   1.702   0.898  10.124 -0.6380  0.0707 -0.1973
  680MOL0     N91717   1.830   0.897  10.084  0.0703 -0.5408 -0.0643
  680MOL0     C91718   2.985   0.650   9.484  0.1639 -0.1590  0.0800
  680MOL0     C91719   3.122   0.660   9.483  0.0446  0.1102 -0.6233
  680MOL0     C91720   3.560   0.521   9.521  0.2113  0.4042 -0.3576
  680MOL0     C91721   3.619   0.631   9.577 -0.5962  0.0265 -0.5734
  680MOL0     C91722   3.756   0.662   9.563 -0.7171 -0.4240  0.2953
  680MOL0     C91723   3.833   0.579   9.477 -0.0669  0.9226 -0.6060
  680MOL0     O91724   3.966   0.598   9.463 -0.1253  0.2956 -0.1020
  680MOL0     C91725   4.010   0.742   9.486 -0.8970  1.2691  0.5628
  680MOL0     C91726   4.135   0.747   9.394  0.2462  0.4847  0.2528
  680MOL0     C91727   4.252   0.658   9.436 -0.1394  0.7526 -0.5980
  680MOL0     C91728   4.368   0.653   9.338 -1.0187 -0.3758  0.1247
  680MOL0     C91729   4.445   0.782   9.329  0.0732  1.4028 -0.4884
  680MOL0     C91730   4.496   0.888   9.347 -0.1098 -0.7585 -0.0551
  680MOL0     C91731   3.772   0.474   9.416  0.5990 -0.8989 -0.1062
  680MOL0     C91732   3.639   0.443   9.440  0.7004 -0.2502 -0.3938
  680MOL0     H91733   3.197   0.428   9.736  0.9102 -1.4012 -0.5538
  680MOL0     H91734   2.954   0.427   9.737 -1.5350  3.1791  3.1081
  680MOL0     H91735   2.717   0.412   9.684  1.5274  0.0148 -0.7571
  680MOL0     H91736   2.701   0.577   9.749 -2.6185 -0.3183  0.3778
  680MOL0     H91737   2.553   0.642   9.564 -0.9206  0.7342  0.5130
  680MOL0     H91738   2.567   0.480   9.500  1.5008  1.1501 -0.1451
  680MOL0     H91739   2.365   0.484   9.630  1.7044  0.5989  0.3625
  680MOL0     H91740   2.470   0.403   9.736 -3.6227 -1.4060  0.9166
  680MOL0     H91741   2.480   0.569   9.890  2.1233 -0.3357 -2.5669
  680MOL0     H91742   2.438   0.704   9.790 -2.3739  1.5793  2.7176
  680MOL0     H91743   2.210   0.638   9.752 -0.3034 -1.6204  0.1521
  680MOL0     H91744   2.233   0.495   9.858  0.4441 -0.8672 -0.4020
  680MOL0     H91745   2.286   0.651  10.045  1.6785 -0.9238 -0.9335
  680MOL0     H91746   2.256   0.785   9.943  2.0224  0.0655  2.4133
  680MOL0     H91747   2.015   0.658   9.902  0.6482  0.6701  0.5900
  680MOL0     H91748   2.071   0.568  10.046  0.5828 -0.4048  0.4427
  680MOL0     H91749   2.080   0.859  10.071  0.4526 -0.3797 -0.2580
  680MOL0     H91750   2.078   0.740  10.193 -0.1040  1.5717 -0.1145
  680MOL0     H91751   1.800   0.608  10.219  0.8563 -1.2961 -3.4420
  680MOL0     H91752   1.472   0.805  10.242 -1.0852 -0.5676 -2.3017
  680MOL0     H91753   1.523   0.651  10.225 -1.4444  0.2951  0.4860
  680MOL0     H91754   1.699   0.726  10.424  0.4149  1.1882 -1.8643
  680MOL0     H91755   1.563   0.621  10.434  0.7624  0.3989  0.2162
  680MOL0     H91756   1.540   0.916  10.481 -4.5302  0.7821 -0.0191
  680MOL0     H91757   1.558   0.811  10.611  0.5420  2.3028  0.1334
  680MOL0     H91758   1.341   0.694  10.569  1.6516  0.4673  1.3962
  680MOL0     H91759   1.320   0.787  10.419 -1.0327 -0.4835  1.7213
  680MOL0     H91760   1.493   0.972  10.779  0.5894 -0.6303  2.1021
  680MOL0     H91761   1.447   1.050  11.106  1.2148  1.0564 -0.0071
  680MOL0     H91762   1.555   0.923  11.062 -0.4678  0.4391  1.6411
  680MOL0     H91763   1.550   1.055  10.956 -0.2025  1.4171  0.4696
  680MOL0     H91764   0.959   0.807  11.350  1.6974  0.7725  0.0407
  680MOL0     H91765   0.943   0.750  11.595  0.2097  0.3474  1.1070
  680MOL0     H91766   1.271   0.503  11.769  0.0974 -4.2158 -0.6485
  680MOL0     H91767   1.150   0.490  11.887 -0.3666 -2.9079 -0.0706
  680MOL0     H91768   1.200   0.315  11.650 -0.5913 -0.1708 -0.0464
  680MOL0     H91769   1.193   0.279  11.830 -1.4156 -0.3440  0.7319
  680MOL0     H91770   0.988   0.342  11.630 -0.2261 -0.0255 -0.0335
  680MOL0     H91771   0.947   0.324  11.805  1.8411  0.3660  0.9898
  680MOL0     H91772   1.056   0.085  11.647 -0.2486 -0.2789 -0.7022
  680MOL0     H91773   1.026   0.099  11.814 -1.6387 -1.1066  0.3255
  680MOL0     H91774   0.842  -0.016  11.724 -1.3431 -1.7216 -2.8558
  680MOL0     H91775   0.821   0.116  11.597 -0.6405 -1.0497  0.4915
  680MOL0     H91776   0.751   0.126  11.885 -0.9131  0.3880 -0.7398
  680MOL0     H91777   0.730   0.266  11.770  0.7718  0.1880 -2.5872
  680MOL0     H91778   0.610  -0.011  11.724  2.3189 -0.4477  0.8310
  680MOL0     H91779   0.562   0.157  11.667 -0.1742  2.8736  1.7488
  680MOL0     H91780   0.507   0.207  11.915  0.5018  1.4200 -1.3217
  680MOL0     H91781   0.495   0.029  11.922 -4.2442 -1.4995 -0.8131
  680MOL0     H91782   1.310   0.521  11.559 -2.1279 -0.1288  1.6377
  680MOL0     H91783   1.328   0.589  11.325  0.1659 -1.6691  0.4530
  680MOL0     H91784   1.088   0.727  10.940 -0.8881  0.0872 -3.7960
  680MOL0     H91785   1.105   0.780  10.703 -1.1949 -1.4650  0.4982
  680MOL0     H91786   2.925   0.710   9.417 -0.4798 -0.5017  0.3339
  680MOL0     H91787   3.174   0.728   9.417  1.6588 -1.5660 -1.1700
  680MOL0     H91788   3.560   0.696   9.641  0.2295 -1.7105  2.1232
  680MOL0     H91789   3.791   0.754   9.608  1.1436  1.2760 -4.0749
  680MOL0     H91790   3.943   0.825   9.465  1.0460  2.5441 -0.9405
  680MOL0     H91791   4.029   0.751   9.594  0.0828 -0.8467  0.6170
  680MOL0     H91792   4.170   0.850   9.401 -1.2243  0.9381  1.7718
  680MOL0     H91793   4.113   0.719   9.291 -2.6773 -2.6180  1.5201
  680MOL0     H91794   4.217   0.555   9.452  3.1782 -0.5023 -0.5761
  680MOL0     H91795   4.296   0.696   9.529 -1.0955  0.9548 -0.2188
  680MOL0     H91796   4.333   0.622   9.239  0.3961 -0.2725 -0.4235
  680MOL0     H91797   4.435   0.580   9.385  1.1251  2.3973  1.6733
  680MOL0     H91798   4.537   0.986   9.362 -1.9564  0.0731 -0.1789
  680MOL0     H91799   3.831   0.411   9.351 -0.4955 -2.0441 -0.0262
  680MOL0     H91800   3.590   0.356   9.398 -0.6218 -0.2164  1.0033
  681MOL0     O91801   1.879   3.392   4.712 -0.8681  0.7496 -0.2022
  681MOL0     C91802   1.843   3.287   4.770  0.6994  0.0499  0.6083
  681MOL0     O91803   1.744   3.280   4.871 -0.4060 -0.2268 -0.1167
  681MOL0     C91804   1.670   3.399   4.893 -0.0391  0.8097  0.6425
  681MOL0     C91805   1.557   3.399   4.816  0.8844  0.0568 -0.4751
  681MOL0     C91806   1.470   3.506   4.835  0.3071  0.0711 -0.7383
  681MOL0     C91807   1.508   3.604   4.924  0.1586 -0.3974 -0.2717
  681MOL0     O91808   1.420   3.703   4.929 -0.7963 -0.1371 -0.7475
  681MOL0     C91809   1.378   3.753   5.057  0.4779  0.1413 -1.0018
  681MOL0     C91810   1.239   3.819   5.052 -0.2142  0.3715  0.6930
  681MOL0     C91811   1.126   3.725   4.999  0.0462 -0.1323  0.1432
  681MOL0     C91812   1.006   3.808   4.981 -0.0602  0.2834 -0.3112
  681MOL0     C91813   0.892   3.729   4.919 -0.0019  0.0232 -0.4847
  681MOL0     C91814   0.769   3.823   4.908  0.9701 -0.1962 -0.1054
  681MOL0     C91815   0.659   3.765   4.819 -0.6162  0.0342  0.1694
  681MOL0     C91816   0.522   3.826   4.851 -0.2329 -0.0891 -0.1419
  681MOL0     N91817   0.522   3.974   4.850  0.5828  0.3085  0.1043
  681MOL0     C91818   0.493   4.044   4.743 -0.1338  0.8115  0.2943
  681MOL0     C91819   0.486   4.170   4.785  0.6690  0.1969 -0.2136
  681MOL0     C91820   0.443   4.282   4.708 -0.1420  0.3505  1.1142
  681MOL0     C91821   0.301   4.333   4.750 -0.3292 -0.4863 -0.2826
  681MOL0     C91822   0.282   4.473   4.692  0.4398 -0.4340  0.1374
  681MOL0     C91823   0.152   4.534   4.758 -0.6867  0.0656 -0.1685
  681MOL0     O91824   0.045   4.442   4.730  0.6388  0.5102 -0.3836
  681MOL0     C91825  -0.084   4.454   4.787  0.4927  0.2853  0.1752
  681MOL0     C91826  -0.135   4.559   4.855 -0.2054 -0.8238 -0.3608
  681MOL0     C91827  -0.267   4.563   4.908  0.0681  1.6030 -0.7135
  681MOL0     C91828  -0.298   4.688   4.980  0.2017 -0.5916 -0.1389
  681MOL0     C91829  -0.357   4.458   4.879 -0.0574  0.0859  0.4662
  681MOL0     C91830  -0.501   4.440   4.925  0.4158 -0.9793 -0.1261
  681MOL0     O91831  -0.559   4.322   4.892  0.8173  0.5407 -0.2863
  681MOL0     C91832  -0.695   4.297   4.917  0.3524  0.8734  0.1875
  681MOL0     C91833  -0.721   4.194   5.012 -0.3849 -0.3937  0.3800
  681MOL0     C91834  -0.862   4.167   5.022  0.5130 -0.2383 -0.3123
  681MOL0     C91835  -0.967   4.238   4.947 -0.5917 -0.4752  0.4000
  681MOL0     O91836  -1.102   4.213   4.956 -0.7479  0.3362 -0.2228
  681MOL0     C91837  -1.133   4.075   4.971  0.3869 -0.6038  0.1383
  681MOL0     C91838  -1.282   4.047   4.988  0.1014 -0.5773 -0.3860
  681MOL0     C91839  -1.353   4.082   4.862  0.9046  0.0906 -0.8335
  681MOL0     C91840  -1.504   4.072   4.892 -0.2157 -0.7824 -0.4860
  681MOL0     C91841  -1.586   4.081   4.771  0.2224 -1.4488 -0.5012
  681MOL0     C91842  -1.737   4.099   4.808 -0.8243 -0.1088  0.0332
  681MOL0     C91843  -1.810   4.156   4.679  0.0465 -0.4755 -0.3728
  681MOL0     C91844  -1.825   4.032   4.598 -0.6000 -0.6917  0.2511
  681MOL0    Cl91845  -1.921   4.072   4.464  0.3440 -0.3681  0.1521
  681MOL0     C91846  -0.919   4.354   4.883  0.4338 -0.1175  0.3954
  681MOL0     C91847  -0.788   4.382   4.852  0.1189  0.2297 -0.3062
  681MOL0     O91848  -0.555   4.527   4.993 -0.2145  0.5590 -0.4298
  681MOL0     C91849  -0.305   4.347   4.801 -0.1185 -0.7058 -0.9686
  681MOL0     C91850  -0.180   4.349   4.754 -0.5151 -0.2302 -0.1338
  681MOL0     N91851   0.527   4.176   4.921 -0.1553  0.8333 -1.0691
  681MOL0     N91852   0.531   4.053   4.962 -0.1390  0.6178 -0.0420
  681MOL0     C91853   1.615   3.592   5.009  0.2034 -0.6506 -0.3446
  681MOL0     C91854   1.700   3.481   5.005  0.1052  0.7599 -0.9070
  681MOL0     C91855   1.897   3.158   4.725 -0.5756  0.0096  0.1426
  681MOL0     C91856   2.025   3.149   4.666 -0.8886 -0.4706  0.7513
  681MOL0     C91857   2.078   3.028   4.627 -0.1662 -0.1399 -0.6904
  681MOL0     C91858   2.012   2.902   4.659 -1.1048  0.4450  0.3088
  681MOL0     O91859   2.083   2.794   4.622 -0.5320  0.4064 -0.4315
  681MOL0     C91860   2.024   2.670   4.669  0.0751 -0.3157 -0.4545
  681MOL0     C91861   2.126   2.561   4.647 -0.7589 -1.1755 -0.8387
  681MOL0     C91862   2.261   2.598   4.718 -0.8801 -0.0567  0.2810
  681MOL0     C91863   2.365   2.482   4.682  0.2299 -0.1291  0.1258
  681MOL0     C91864   2.414   2.492   4.542  0.0648 -0.8668 -0.0975
  681MOL0     C91865   2.450   2.523   4.430  0.1204  0.4958  0.6542
  681MOL0     C91866   1.880   2.908   4.713 -1.0047 -0.1655  0.3183
  681MOL0     C91867   1.835   3.035   4.752  0.7585  0.3856 -0.0003
  681MOL0     H91868   1.534   3.326   4.739 -1.3483  0.2937 -0.1002
  681MOL0     H91869   1.380   3.518   4.775 -0.9269 -2.3052  0.4662
  681MOL0     H91870   1.373   3.671   5.130 -0.5504  0.5854 -0.5587
  681MOL0     H91871   1.449   3.828   5.094  0.6223 -1.2570  1.9027
  681MOL0     H91872   1.211   3.852   5.152 -1.0001 -1.6023  1.1864
  681MOL0     H91873   1.242   3.903   4.983  1.2691  0.5138  0.8934
  681MOL0     H91874   1.163   3.670   4.912 -0.2949 -0.3002  0.1045
  681MOL0     H91875   1.100   3.642   5.066  1.3209  0.0748  0.9374
  681MOL0     H91876   0.987   3.845   5.082  2.7718  3.6218 -0.8070
  681MOL0     H91877   1.034   3.886   4.909 -0.5240  2.0916  1.3837
  681MOL0     H91878   0.922   3.691   4.821 -2.5597 -0.5064 -1.1191
  681MOL0     H91879   0.871   3.645   4.985  1.9962 -0.3102 -0.1980
  681MOL0     H91880   0.724   3.816   5.008 -1.4859  1.4277 -1.0074
  681MOL0     H91881   0.805   3.917   4.865 -1.0837  0.5948 -0.1886
  681MOL0     H91882   0.676   3.786   4.713 -3.2156  0.0465 -0.3083
  681MOL0     H91883   0.649   3.659   4.844 -1.4013 -0.5906 -2.4161
  681MOL0     H91884   0.498   3.798   4.954  2.9518 -3.4693 -0.1020
  681MOL0     H91885   0.445   3.792   4.782 -0.4860  1.1563 -0.4940
  681MOL0     H91886   0.455   4.005   4.650 -2.3472  1.1976  0.9788
  681MOL0     H91887   0.506   4.369   4.725 -1.0035  1.6476 -1.7656
  681MOL0     H91888   0.441   4.252   4.603  2.1173 -3.0354  1.8690
  681MOL0     H91889   0.298   4.336   4.860 -1.6639 -0.0140 -0.3227
  681MOL0     H91890   0.229   4.262   4.709  1.4396 -0.5859 -3.5117
  681MOL0     H91891   0.263   4.458   4.586 -1.3729  2.4834 -0.0590
  681MOL0     H91892   0.369   4.538   4.701 -1.1592  1.7424  0.9032
  681MOL0     H91893   0.120   4.627   4.711  0.8019  0.4201 -0.5028
  681MOL0     H91894   0.165   4.555   4.864 -1.0830 -0.4048 -0.0187
  681MOL0     H91895  -0.057   4.631   4.872 -1.2235  0.5708 -1.3694
  681MOL0     H91896  -0.208   4.746   5.003  0.0301  0.1479 -1.2861
  681MOL0     H91897  -0.352   4.756   4.914  0.8285 -0.4702 -0.5316
  681MOL0     H91898  -0.363   4.667   5.066 -2.2389  1.6515 -1.2818
  681MOL0     H91899  -0.643   4.139   5.063 -2.6453 -1.3622  3.0286
  681MOL0     H91900  -0.892   4.094   5.096  0.0065  0.0030 -0.2763
  681MOL0     H91901  -1.094   4.021   4.885  0.3250 -0.2854 -0.0925
  681MOL0     H91902  -1.088   4.048   5.067 -1.3730  2.7175  2.0695
  681MOL0     H91903  -1.295   3.940   5.011 -1.2235 -0.1386  1.0794
  681MOL0     H91904  -1.320   4.102   5.074  2.2429  0.5264 -0.0862
  681MOL0     H91905  -1.320   4.010   4.787 -0.0096  2.1827 -3.3809
  681MOL0     H91906  -1.332   4.182   4.824  1.6853  1.5380  2.9807
  681MOL0     H91907  -1.523   3.978   4.945  3.2283 -1.0945  0.4530
  681MOL0     H91908  -1.534   4.154   4.958  1.7385 -2.1385  2.3085
  681MOL0     H91909  -1.574   3.994   4.705 -1.7493 -0.7142 -1.9544
  681MOL0     H91910  -1.562   4.169   4.710  0.1823 -0.5745  0.7240
  681MOL0     H91911  -1.779   4.002   4.835 -0.6590 -0.8031 -1.9874
  681MOL0     H91912  -1.749   4.168   4.892 -1.3087  1.2455 -1.1045
  681MOL0     H91913  -1.751   4.240   4.640  0.2723  0.3017  1.5605
  681MOL0     H91914  -1.900   4.202   4.721 -0.8114 -0.4854 -2.0721
  681MOL0     H91915  -1.865   3.946   4.652 -0.5799 -0.6768  0.2890
  681MOL0     H91916  -1.728   4.001   4.560  0.8717  0.5190  2.7909
  681MOL0     H91917  -0.990   4.423   4.838  1.0570  0.2169 -0.0971
  681MOL0     H91918  -0.760   4.473   4.800 -1.0203  1.9273  1.8641
  681MOL0     H91919  -0.349   4.249   4.790 -0.8685 -0.6020  0.7317
  681MOL0     H91920  -0.151   4.259   4.700 -0.8524 -1.9841  2.4502
  681MOL0     H91921   1.646   3.661   5.087  3.4531 -1.1118 -1.0930
  681MOL0     H91922   1.790   3.469   5.066 -1.2611 -2.9139  0.6976
  681MOL0     H91923   2.069   3.240   4.628  1.6218 -0.8803  2.5009
  681MOL0     H91924   2.176   3.045   4.583  1.2626  3.7141  3.2678
  681MOL0     H91925   1.991   2.676   4.773 -2.2163  1.5435 -1.2123
  681MOL0     H91926   1.938   2.648   4.606  2.2266 -2.3170 -2.9074
  681MOL0     H91927   2.135   2.537   4.540 -1.4399 -0.6895 -1.0131
  681MOL0     H91928   2.087   2.473   4.699  1.4988 -1.2865  0.8145
  681MOL0     H91929   2.253   2.602   4.827 -2.1917 -1.8364  0.2916
  681MOL0     H91930   2.300   2.699   4.700  1.2024 -0.7091  0.8131
  681MOL0     H91931   2.311   2.388   4.696 -0.1254 -0.1188 -1.0781
  681MOL0     H91932   2.448   2.480   4.753 -0.0728  0.5369  0.5114
  681MOL0     H91933   2.488   2.554   4.335  1.6700 -0.0230  1.0776
  681MOL0     H91934   1.818   2.824   4.740  0.8467 -1.5954  0.3187
  681MOL0     H91935   1.744   3.045   4.810  1.4297  2.5922  0.7820
  682MOL0     O91936  10.393   8.582   2.221  0.4978 -0.0892 -0.2979
  682MOL0     C91937  10.362   8.483   2.295  0.1750 -0.8288 -0.4782
  682MOL0     O91938  10.262   8.394   2.275 -0.5546 -0.5171  0.5097
  682MOL0     C91939  10.175   8.402   2.175  0.2913 -0.6544  0.0146
  682MOL0     C91940  10.053   8.335   2.194 -0.2857 -0.3172 -0.1069
  682MOL0     C91941   9.953   8.341   2.088  0.1574  0.1286  0.2935
  682MOL0     C91942   9.986   8.409   1.971  0.1360  0.2684  0.1144
  682MOL0     O91943   9.881   8.411   1.886 -0.5093  0.1579 -0.1808
  682MOL0     C91944   9.893   8.384   1.748 -0.0691  0.5584  0.4479
  682MOL0     C91945   9.775   8.310   1.687 -1.4198 -0.0172 -0.3347
  682MOL0     C91946   9.769   8.156   1.696 -0.7069  0.5177  1.1270
  682MOL0     C91947   9.769   8.087   1.837  0.3693 -0.4669  0.8568
  682MOL0     C91948   9.662   7.968   1.830  0.0820 -0.4897 -0.8457
  682MOL0     C91949   9.525   8.021   1.851  0.8553  0.0461 -0.7636
  682MOL0     C91950   9.427   7.917   1.897 -0.1091 -0.3540 -0.2584
  682MOL0     C91951   9.292   7.960   1.949 -0.0393  0.4149  0.1083
  682MOL0     N91952   9.203   7.853   1.991  0.3503  0.2546  0.2415
  682MOL0     C91953   9.172   7.812   2.122  0.1902 -0.4663 -0.2240
  682MOL0     C91954   9.096   7.703   2.102 -0.4989 -1.0701 -0.6483
  682MOL0     C91955   9.032   7.613   2.200 -0.0412 -0.1054 -0.5809
  682MOL0     C91956   9.134   7.501   2.232  0.1116  0.3325 -0.6251
  682MOL0     C91957   9.069   7.382   2.300 -0.1790 -0.1097  1.4706
  682MOL0     C91958   9.166   7.272   2.329  0.8246  0.3047 -0.5830
  682MOL0     O91959   9.281   7.306   2.399  0.5789  0.2246 -1.0478
  682MOL0     C91960   9.276   7.317   2.537  0.4219 -0.6110  0.2046
  682MOL0     C91961   9.399   7.358   2.594 -0.4531 -0.3654 -0.4710
  682MOL0     C91962   9.416   7.392   2.724  0.4359  0.1673 -0.3907
  682MOL0     C91963   9.555   7.440   2.764 -0.1169 -0.1291  0.7065
  682MOL0     C91964   9.301   7.382   2.814 -0.3158 -0.5686  0.5371
  682MOL0     C91965   9.307   7.439   2.945  0.0035 -0.3647 -0.3699
  682MOL0     O91966   9.419   7.435   3.029  0.0551  0.2444 -0.8849
  682MOL0     C91967   9.410   7.516   3.140 -0.3933  1.0175 -0.8552
  682MOL0     C91968   9.465   7.643   3.138 -0.3515  0.1338  0.0727
  682MOL0     C91969   9.420   7.738   3.225  0.5765  0.0585  0.2653
  682MOL0     C91970   9.342   7.707   3.337  0.3025 -0.7597 -0.2932
  682MOL0     O91971   9.299   7.805   3.431  0.1510 -0.4708  0.2185
  682MOL0     C91972   9.266   7.773   3.571 -0.2753 -0.0611  0.7505
  682MOL0     C91973   9.378   7.721   3.647 -0.1512  0.7067  0.7623
  682MOL0     C91974   9.340   7.669   3.783 -0.3667  0.1580  0.4445
  682MOL0     C91975   9.465   7.601   3.847  0.6371 -0.7051  0.1020
  682MOL0     C91976   9.452   7.617   3.998  0.0692  0.3876  0.1478
  682MOL0     C91977   9.446   7.485   4.077 -0.4370  0.2953 -0.0822
  682MOL0     C91978   9.577   7.399   4.058 -0.3972  0.1416 -0.0019
  682MOL0     C91979   9.574   7.266   4.129 -0.4474  0.6823 -0.1953
  682MOL0    Cl91980   9.618   7.301   4.300  0.2713 -0.1847  0.1177
  682MOL0     C91981   9.300   7.572   3.345  0.7369  0.3653  0.0792
  682MOL0     C91982   9.328   7.472   3.255 -0.3686  1.0098 -0.1648
  682MOL0     O91983   9.202   7.494   2.981  0.3148 -0.1787  0.4711
  682MOL0     C91984   9.176   7.322   2.763 -0.7881 -0.3465  0.2344
  682MOL0     C91985   9.168   7.301   2.624  0.2643  0.1748 -0.3393
  682MOL0     N91986   9.071   7.692   1.967  0.6636  0.0901  0.1685
  682MOL0     N91987   9.133   7.781   1.899  0.7327 -0.8438 -0.1862
  682MOL0     C91988  10.115   8.462   1.946  0.4430 -0.6233  0.0219
  682MOL0     C91989  10.204   8.459   2.050  0.5172 -0.4444 -0.8732
  682MOL0     C91990  10.466   8.451   2.395  0.8942  0.1570  0.0464
  682MOL0     C91991  10.452   8.345   2.490  0.3242  0.9418  0.9427
  682MOL0     C91992  10.542   8.324   2.586 -0.1823  0.4307  0.1948
  682MOL0     C91993  10.669   8.379   2.575  0.5629  0.2418 -0.2614
  682MOL0     O91994  10.769   8.324   2.649 -0.0608 -0.1605 -0.4862
  682MOL0     C91995  10.892   8.402   2.655  0.3133 -0.3301 -1.2305
  682MOL0     C91996  10.975   8.341   2.767  0.0805  0.4132 -0.6736
  682MOL0     C91997  10.930   8.397   2.902  0.9089 -0.2840 -0.4783
  682MOL0     C91998  10.987   8.315   3.024  0.9226  0.1158  0.0062
  682MOL0     C91999  11.125   8.278   3.015  0.1295  0.6730  0.1186
  682MOL0     C92000  11.243   8.269   3.004 -0.2327 -0.0324  0.0879
  682MOL0     C92001  10.698   8.486   2.485 -0.4537  0.6140  0.2861
  682MOL0     C92002  10.586   8.532   2.403 -0.6465 -0.1040  0.0511
  682MOL0     H92003  10.028   8.280   2.284  1.1159 -1.2991 -0.2811
  682MOL0     H92004   9.860   8.288   2.108 -0.9330  2.1061  0.7185
  682MOL0     H92005   9.902   8.483   1.703  0.0492  0.1738 -0.3782
  682MOL0     H92006   9.985   8.327   1.733 -1.3271 -0.8718 -2.5295
  682MOL0     H92007   9.677   8.350   1.712 -1.9876 -0.6017 -1.5291
  682MOL0     H92008   9.787   8.325   1.579  2.8523 -0.2853 -0.0563
  682MOL0     H92009   9.681   8.121   1.640 -1.5457  1.0450  2.0897
  682MOL0     H92010   9.848   8.104   1.641  1.6428  4.2548  0.6446
  682MOL0     H92011   9.866   8.044   1.863 -0.1083 -2.4822 -0.4523
  682MOL0     H92012   9.743   8.167   1.908  0.9880 -0.3194  0.9200
  682MOL0     H92013   9.672   7.915   1.735 -1.7305  0.5491 -1.6811
  682MOL0     H92014   9.689   7.898   1.909  3.0636 -0.2562 -1.5524
  682MOL0     H92015   9.530   8.095   1.931  0.8674 -0.7962  0.0269
  682MOL0     H92016   9.491   8.055   1.752 -0.3572 -0.9949 -0.7280
  682MOL0     H92017   9.410   7.858   1.806  0.6797  1.1688 -1.4406
  682MOL0     H92018   9.476   7.853   1.970  0.9382 -1.7904 -2.1403
  682MOL0     H92019   9.232   8.013   1.874 -0.2062  0.4782  0.2878
  682MOL0     H92020   9.305   8.021   2.039 -3.3203 -1.3646  2.0009
  682MOL0     H92021   9.211   7.846   2.218 -1.3763 -1.3979  0.7773
  682MOL0     H92022   9.009   7.658   2.297 -3.1052  0.4549 -1.4576
  682MOL0     H92023   8.943   7.568   2.156 -0.5767  0.6673 -0.3106
  682MOL0     H92024   9.213   7.539   2.297 -0.0047 -0.7255  0.1707
  682MOL0     H92025   9.173   7.467   2.135  0.2100  1.1690 -0.8796
  682MOL0     H92026   8.993   7.339   2.235 -2.3813  2.4164  2.2168
  682MOL0     H92027   9.020   7.422   2.389  0.0652 -0.5582  1.8151
  682MOL0     H92028   9.183   7.218   2.235 -0.0031 -1.1114  0.0425
  682MOL0     H92029   9.111   7.197   2.386 -0.9436  1.4523 -0.6986
  682MOL0     H92030   9.486   7.361   2.528 -0.3646  3.5202 -0.3676
  682MOL0     H92031   9.543   7.521   2.837 -3.5332 -0.7067  0.9479
  682MOL0     H92032   9.606   7.358   2.816  0.6173 -0.2348 -0.1537
  682MOL0     H92033   9.612   7.467   2.675 -3.0138  0.4655 -1.1144
  682MOL0     H92034   9.523   7.670   3.050  0.7482  0.7332  0.9578
  682MOL0     H92035   9.465   7.836   3.211 -1.9206  0.9910 -2.0775
  682MOL0     H92036   9.237   7.866   3.619 -1.0121 -0.9755  2.1402
  682MOL0     H92037   9.178   7.709   3.568 -0.3772  0.0845 -2.1289
  682MOL0     H92038   9.425   7.640   3.591 -1.2915  1.4911 -1.5064
  682MOL0     H92039   9.453   7.800   3.651 -0.1042  0.7413 -0.4123
  682MOL0     H92040   9.264   7.591   3.778  0.6629 -0.8095 -0.5591
  682MOL0     H92041   9.307   7.759   3.837  2.6238  0.5232  1.8589
  682MOL0     H92042   9.475   7.495   3.821  2.4356 -0.1043 -1.8907
  682MOL0     H92043   9.564   7.638   3.819 -0.1718  2.4360  0.9691
  682MOL0     H92044   9.361   7.671   4.026 -0.7194 -1.1245  0.6217
  682MOL0     H92045   9.538   7.670   4.040 -0.0663  0.4437  0.3587
  682MOL0     H92046   9.424   7.502   4.183 -0.0510 -0.9042  0.2049
  682MOL0     H92047   9.364   7.424   4.039 -0.9387 -1.2010  3.1071
  682MOL0     H92048   9.667   7.453   4.088 -0.9440  2.3491 -2.0937
  682MOL0     H92049   9.572   7.378   3.951  5.4247 -0.4093 -0.4613
  682MOL0     H92050   9.641   7.197   4.076 -0.3122  3.4164 -4.0400
  682MOL0     H92051   9.475   7.222   4.113 -0.2442  0.5949 -1.3282
  682MOL0     H92052   9.235   7.531   3.422  0.9865 -3.3333 -1.4615
  682MOL0     H92053   9.290   7.372   3.273  1.8995  0.2844  0.9714
  682MOL0     H92054   9.085   7.304   2.819  1.4217 -0.4902  4.1601
  682MOL0     H92055   9.067   7.273   2.598 -0.7554 -0.0941  3.3300
  682MOL0     H92056  10.130   8.521   1.856 -2.5493 -1.1600 -0.9194
  682MOL0     H92057  10.296   8.510   2.023  1.2350 -1.6120 -0.7257
  682MOL0     H92058  10.356   8.295   2.485  1.7044 -2.1694  2.4059
  682MOL0     H92059  10.511   8.262   2.669 -0.2750  1.1241  0.6816
  682MOL0     H92060  10.946   8.404   2.560 -0.7751  2.7500 -1.9052
  682MOL0     H92061  10.865   8.503   2.687 -0.4197 -0.6537 -0.8191
  682MOL0     H92062  11.079   8.370   2.751  0.6166 -1.2771 -0.4122
  682MOL0     H92063  10.968   8.232   2.761  1.0498  0.2228  0.9604
  682MOL0     H92064  10.821   8.390   2.908  0.8719 -2.5568 -2.3471
  682MOL0     H92065  10.948   8.505   2.901 -0.2584 -0.0472 -2.6534
  682MOL0     H92066  10.921   8.229   3.035 -1.1878  1.5847 -0.5956
  682MOL0     H92067  10.980   8.381   3.111 -3.4274 -2.2555  1.7375
  682MOL0     H92068  11.349   8.257   2.987 -0.1634  0.2275  0.3301
  682MOL0     H92069  10.790   8.543   2.483  1.7118 -2.5973  1.5256
  682MOL0     H92070  10.585   8.611   2.328 -3.4674 -0.0628  0.0141
  683MOL0     O92071   9.455   1.581   2.706  0.0013  1.0237  1.0043
  683MOL0     C92072   9.511   1.480   2.643  0.0417 -0.6254  0.6369
  683MOL0     O92073   9.471   1.424   2.529 -0.2534 -0.4018 -1.0500
  683MOL0     C92074   9.342   1.445   2.479  0.5332  0.3650 -0.4985
  683MOL0     C92075   9.233   1.461   2.559 -0.0527 -0.2774  0.7799
  683MOL0     C92076   9.106   1.454   2.508  0.3066  0.2135 -0.1064
  683MOL0     C92077   9.079   1.419   2.372 -0.2674 -0.6015 -0.1289
  683MOL0     O92078   8.955   1.416   2.313  0.4018  0.0030  0.2822
  683MOL0     C92079   8.852   1.487   2.377  0.1115 -0.2658 -0.3575
  683MOL0     C92080   8.727   1.495   2.287 -0.9659 -0.2096  0.5007
  683MOL0     C92081   8.612   1.580   2.343  0.0992 -0.0338 -0.8110
  683MOL0     C92082   8.547   1.517   2.473  0.6536 -0.1104 -0.3211
  683MOL0     C92083   8.417   1.585   2.533  0.1197 -0.1070  0.3893
  683MOL0     C92084   8.368   1.515   2.658  0.5440 -0.1368  0.5541
  683MOL0     C92085   8.277   1.406   2.611  0.1604  0.1877 -0.1715
  683MOL0     C92086   8.240   1.317   2.723  0.1263  0.1282 -0.8070
  683MOL0     N92087   8.132   1.226   2.683  0.0226 -0.0137  0.0609
  683MOL0     C92088   8.012   1.222   2.745 -0.2573  0.2543  0.4982
  683MOL0     C92089   7.958   1.107   2.688  0.2169 -0.9019 -0.2724
  683MOL0     C92090   7.824   1.052   2.731  1.0221  0.2730 -0.1183
  683MOL0     C92091   7.712   1.112   2.641  0.8711 -0.5859  0.4672
  683MOL0     C92092   7.592   1.171   2.723 -0.3919 -0.0484  0.7243
  683MOL0     C92093   7.482   1.217   2.619 -1.1622  0.0260 -0.3755
  683MOL0     O92094   7.363   1.262   2.686 -0.1970 -0.6091  0.2824
  683MOL0     C92095   7.253   1.304   2.603 -0.5218 -0.1077 -1.1282
  683MOL0     C92096   7.237   1.282   2.468 -0.7499 -0.2062 -0.5973
  683MOL0     C92097   7.124   1.329   2.406  0.0810 -0.1040 -0.0790
  683MOL0     C92098   7.115   1.300   2.259 -0.3770 -0.2558  0.5980
  683MOL0     C92099   7.016   1.386   2.477  0.0470  0.5511 -0.4389
  683MOL0     C92100   6.892   1.431   2.421 -0.0255 -0.2446 -0.1256
  683MOL0     O92101   6.775   1.397   2.486 -0.6602  0.6535 -0.3610
  683MOL0     C92102   6.653   1.434   2.442  0.8037 -0.4378  0.0969
  683MOL0     C92103   6.617   1.490   2.318 -0.6251 -0.3592 -0.1552
  683MOL0     C92104   6.487   1.517   2.287  0.4533 -0.9394 -0.8855
  683MOL0     C92105   6.385   1.481   2.374  0.5739  0.2575 -0.7824
  683MOL0     O92106   6.253   1.508   2.336  1.1694 -0.3399 -0.0917
  683MOL0     C92107   6.165   1.547   2.453  0.1542 -0.4514  0.7519
  683MOL0     C92108   6.018   1.577   2.409  0.4597  0.4053  0.9065
  683MOL0     C92109   5.947   1.601   2.534  0.5282  0.1835 -0.4150
  683MOL0     C92110   5.801   1.645   2.515  0.0295 -0.7817  0.0577
  683MOL0     C92111   5.713   1.643   2.645 -0.2581 -0.0317 -0.0176
  683MOL0     C92112   5.572   1.688   2.630 -1.0195  0.3321 -0.2519
  683MOL0     C92113   5.556   1.838   2.638 -0.2229 -0.4440  0.1693
  683MOL0     C92114   5.414   1.888   2.605 -0.3093  0.0407  0.2493
  683MOL0    Cl92115   5.388   1.904   2.435 -0.0754  0.2199  0.1870
  683MOL0     C92116   6.415   1.420   2.498 -0.1428  0.0292  0.2107
  683MOL0     C92117   6.552   1.397   2.522  0.6028  0.6976 -0.6541
  683MOL0     O92118   6.902   1.496   2.321 -1.0566  0.0936  0.4398
  683MOL0     C92119   7.036   1.400   2.614  0.2343 -0.4058 -0.5655
  683MOL0     C92120   7.148   1.353   2.681 -0.1607 -0.4798 -0.0243
  683MOL0     N92121   8.038   1.044   2.594 -0.5839 -0.5214 -0.0028
  683MOL0     N92122   8.143   1.124   2.594 -0.3040  0.1747  0.0660
  683MOL0     C92123   9.195   1.403   2.291  0.3017 -0.2864  0.5984
  683MOL0     C92124   9.326   1.420   2.343  0.5926  0.7265  0.5355
  683MOL0     C92125   9.639   1.431   2.695 -0.1449  0.2411 -0.3121
  683MOL0     C92126   9.688   1.490   2.810 -0.5152 -0.1861 -0.9459
  683MOL0     C92127   9.804   1.455   2.871 -0.7598 -0.7816 -0.2871
  683MOL0     C92128   9.889   1.373   2.801 -0.6747  0.4749 -0.2622
  683MOL0     O92129  10.000   1.339   2.875  0.5031 -0.3991  0.2249
  683MOL0     C92130  10.105   1.252   2.832 -0.3768  0.1514 -0.1206
  683MOL0     C92131  10.179   1.343   2.733 -0.7398 -0.7386  0.1210
  683MOL0     C92132  10.297   1.273   2.677  0.4513 -0.2349  0.4829
  683MOL0     C92133  10.383   1.377   2.597 -0.0316  0.0269  0.1599
  683MOL0     C92134  10.467   1.334   2.480  0.7448  0.0161  0.1398
  683MOL0     C92135  10.554   1.306   2.404  0.4459  0.2146 -0.4810
  683MOL0     C92136   9.844   1.313   2.684 -0.3609  0.1297 -1.0190
  683MOL0     C92137   9.724   1.344   2.629  0.2732 -0.1500  0.4297
  683MOL0     H92138   9.245   1.492   2.663  3.1655  0.7620  0.2281
  683MOL0     H92139   9.023   1.474   2.575  0.9644  0.1664  0.7401
  683MOL0     H92140   8.822   1.451   2.476 -1.7304  1.4741 -0.2198
  683MOL0     H92141   8.886   1.587   2.403  1.2322 -1.3105  2.6046
  683MOL0     H92142   8.766   1.538   2.194  5.9691 -2.9788  1.5425
  683MOL0     H92143   8.695   1.395   2.258 -3.7134 -0.1294  2.7791
  683MOL0     H92144   8.642   1.685   2.351  1.9520 -0.2675 -3.5955
  683MOL0     H92145   8.542   1.584   2.259 -0.0286  0.7951 -0.6805
  683MOL0     H92146   8.517   1.414   2.452  1.5514 -0.7838  1.5264
  683MOL0     H92147   8.628   1.522   2.545 -1.1043 -0.5786  1.7818
  683MOL0     H92148   8.428   1.689   2.565 -1.3034  0.5448 -1.1049
  683MOL0     H92149   8.344   1.581   2.452 -0.3475  0.4332  0.7714
  683MOL0     H92150   8.446   1.482   2.727 -0.5687 -0.5301  1.6758
  683MOL0     H92151   8.298   1.577   2.715 -0.2162  0.1554 -0.6652
  683MOL0     H92152   8.186   1.453   2.571  0.5862 -0.0327 -1.4403
  683MOL0     H92153   8.322   1.354   2.527 -0.0496 -1.4659  0.6997
  683MOL0     H92154   8.208   1.371   2.813  0.9163 -1.7007  0.6324
  683MOL0     H92155   8.324   1.252   2.746  0.6687  0.9324 -0.4599
  683MOL0     H92156   7.966   1.282   2.823 -1.0969 -1.2209  1.1666
  683MOL0     H92157   7.825   0.943   2.730 -0.7876  0.1941 -2.3821
  683MOL0     H92158   7.797   1.075   2.834  0.9744 -2.4576  0.5574
  683MOL0     H92159   7.675   1.028   2.582  0.1464  0.2740 -0.3270
  683MOL0     H92160   7.743   1.184   2.565 -3.5890  1.0619 -0.0859
  683MOL0     H92161   7.632   1.259   2.775  1.4389  0.2256 -1.0283
  683MOL0     H92162   7.553   1.093   2.788 -1.9247 -0.2773 -0.4212
  683MOL0     H92163   7.462   1.133   2.553 -1.1535  0.9995 -1.6645
  683MOL0     H92164   7.517   1.299   2.555 -0.7556 -1.1585 -1.7075
  683MOL0     H92165   7.321   1.244   2.410  0.4415  0.2508  0.7805
  683MOL0     H92166   7.156   1.384   2.201 -1.0835 -1.5019 -1.8462
  683MOL0     H92167   7.188   1.220   2.243 -0.8851 -0.6202  0.0491
  683MOL0     H92168   7.017   1.286   2.212 -0.6253 -1.6810  1.4867
  683MOL0     H92169   6.689   1.523   2.243 -1.8493  3.8056  0.2607
  683MOL0     H92170   6.467   1.563   2.191  0.4076  0.4875 -0.2236
  683MOL0     H92171   6.160   1.462   2.521 -1.1499 -0.7931  0.2411
  683MOL0     H92172   6.206   1.637   2.500 -0.2429 -0.2003  0.6219
  683MOL0     H92173   6.002   1.666   2.347 -1.0088 -1.5264 -1.7157
  683MOL0     H92174   5.970   1.490   2.362 -0.3174  0.2505  1.9685
  683MOL0     H92175   5.995   1.666   2.608 -0.6629 -1.1295  1.6410
  683MOL0     H92176   5.933   1.503   2.581  1.2449 -1.1672 -2.8496
  683MOL0     H92177   5.802   1.747   2.476  0.6655  0.0752  2.1740
  683MOL0     H92178   5.764   1.591   2.428 -0.1252  2.3863 -2.0000
  683MOL0     H92179   5.755   1.706   2.724 -0.2805  0.3148 -0.2737
  683MOL0     H92180   5.723   1.545   2.691  3.7781  0.8549  1.4035
  683MOL0     H92181   5.528   1.651   2.536  0.7285  0.7466 -1.2879
  683MOL0     H92182   5.512   1.640   2.708  2.7852 -2.4298  1.2920
  683MOL0     H92183   5.632   1.882   2.572 -0.7235 -0.3255 -0.3407
  683MOL0     H92184   5.578   1.852   2.744  0.5045 -1.7803  0.2212
  683MOL0     H92185   5.401   1.981   2.662 -0.8704 -0.5264  1.0663
  683MOL0     H92186   5.343   1.817   2.648 -1.4282  0.3796 -0.9778
  683MOL0     H92187   6.338   1.386   2.567 -0.3377  0.4056  0.1810
  683MOL0     H92188   6.575   1.355   2.620 -0.6191 -0.7234 -0.9431
  683MOL0     H92189   6.959   1.440   2.679  0.1661  0.6137 -1.2440
  683MOL0     H92190   7.150   1.359   2.790 -0.4157  2.9691 -0.0829
  683MOL0     H92191   9.180   1.380   2.186  1.5172 -0.5014  0.4635
  683MOL0     H92192   9.406   1.403   2.272 -1.7151 -0.9310 -1.8613
  683MOL0     H92193   9.636   1.573   2.857  0.2423  1.1834 -2.4284
  683MOL0     H92194   9.836   1.500   2.964 -1.9872  2.3123 -1.2443
  683MOL0     H92195  10.168   1.221   2.916 -0.1342 -2.7710 -1.2748
  683MOL0     H92196  10.079   1.161   2.778 -2.9165 -0.2911  1.6492
  683MOL0     H92197  10.219   1.430   2.784  5.4301 -1.9605 -1.8430
  683MOL0     H92198  10.113   1.376   2.652  1.2759 -3.0757 -2.6763
  683MOL0     H92199  10.260   1.197   2.607  1.4541  0.5484 -0.9321
  683MOL0     H92200  10.364   1.235   2.755  3.5500 -0.1622 -1.9472
  683MOL0     H92201  10.452   1.422   2.668 -0.4292 -0.1582  0.6648
  683MOL0     H92202  10.327   1.460   2.553  0.1483  1.3943  2.3799
  683MOL0     H92203  10.650   1.290   2.358 -0.1602  1.3270 -2.1843
  683MOL0     H92204   9.909   1.239   2.639  0.7274  1.0334 -0.9730
  683MOL0     H92205   9.689   1.300   2.536 -1.1190 -2.2478  1.8752
  684MOL0     O92206   7.990   2.738   7.594 -0.7997 -0.4338 -0.7148
  684MOL0     C92207   7.961   2.660   7.507  1.2074  0.6608  0.4854
  684MOL0     O92208   7.835   2.610   7.485  0.1612  0.8405  0.1150
  684MOL0     C92209   7.720   2.642   7.557  0.8474  0.1659 -0.4292
  684MOL0     C92210   7.597   2.637   7.489 -0.3105 -0.5141 -0.4625
  684MOL0     C92211   7.471   2.660   7.548 -0.0391  0.2109 -0.5372
  684MOL0     C92212   7.473   2.686   7.682 -0.5084 -1.3558  1.0510
  684MOL0     O92213   7.359   2.704   7.753  0.3344 -0.8099 -0.5330
  684MOL0     C92214   7.249   2.615   7.718 -0.5897  1.1493 -0.8911
  684MOL0     C92215   7.277   2.457   7.725 -0.4859  0.0653 -0.1309
  684MOL0     C92216   7.154   2.377   7.701 -0.4658  0.2464 -0.0683
  684MOL0     C92217   7.183   2.227   7.712  0.0242 -0.2109  0.1805
  684MOL0     C92218   7.116   2.154   7.839  0.1050 -0.3514  1.0996
  684MOL0     C92219   6.965   2.179   7.860  0.2333  0.4392 -0.7443
  684MOL0     C92220   6.879   2.086   7.777  0.2140 -0.1501  0.3333
  684MOL0     C92221   6.877   2.101   7.625 -0.6152 -0.8868 -0.2780
  684MOL0     N92222   6.752   2.039   7.577 -0.0577 -0.4067 -0.5074
  684MOL0     C92223   6.744   1.908   7.546 -0.7957  0.1260 -0.7124
  684MOL0     C92224   6.612   1.877   7.548 -0.3599 -0.6301 -0.6135
  684MOL0     C92225   6.558   1.740   7.522  0.3145 -0.1122 -0.3451
  684MOL0     C92226   6.540   1.723   7.372 -0.1979 -0.3638 -1.0821
  684MOL0     C92227   6.447   1.613   7.323 -0.7411  0.2965 -0.4812
  684MOL0     C92228   6.299   1.650   7.335 -0.5999 -0.3200  0.8458
  684MOL0     O92229   6.218   1.550   7.266 -0.1426 -0.1602  0.5959
  684MOL0     C92230   6.085   1.573   7.237 -0.0541 -0.0690  0.0498
  684MOL0     C92231   6.003   1.634   7.332  0.3955 -0.1790 -0.3252
  684MOL0     C92232   5.864   1.645   7.311 -0.1415 -0.2979 -0.2743
  684MOL0     C92233   5.782   1.733   7.409  0.0977  0.3449 -0.6263
  684MOL0     C92234   5.806   1.582   7.190 -0.1116 -0.0034  1.0018
  684MOL0     C92235   5.668   1.588   7.154  1.1285 -0.3658 -0.7446
  684MOL0     O92236   5.633   1.523   7.032 -0.7092 -0.6614  0.2329
  684MOL0     C92237   5.528   1.581   6.969 -0.3435  1.1762 -0.3810
  684MOL0     C92238   5.396   1.551   7.012  0.4275 -0.3890  1.0944
  684MOL0     C92239   5.284   1.582   6.939 -0.1219  0.6132  0.9124
  684MOL0     C92240   5.299   1.655   6.816 -0.7575 -0.3925  0.3139
  684MOL0     O92241   5.186   1.661   6.732  0.1034 -0.6953  0.7179
  684MOL0     C92242   5.192   1.774   6.643 -0.3610  0.7931  0.2961
  684MOL0     C92243   5.050   1.786   6.576 -0.1551  0.3657  0.8949
  684MOL0     C92244   4.936   1.755   6.683 -0.0926 -0.8564 -0.5412
  684MOL0     C92245   4.805   1.808   6.624  0.5096 -0.2199 -0.0304
  684MOL0     C92246   4.690   1.766   6.722  0.6100 -0.1258  0.0619
  684MOL0     C92247   4.689   1.619   6.764 -0.0240 -0.0271 -0.4564
  684MOL0     C92248   4.554   1.581   6.814  0.8127 -0.6315 -0.1941
  684MOL0     C92249   4.555   1.458   6.904  0.3017  0.4362  0.2383
  684MOL0    Cl92250   4.390   1.465   6.967 -0.1114 -0.0387 -0.0710
  684MOL0     C92251   5.433   1.700   6.781  0.0347  0.5631 -0.0312
  684MOL0     C92252   5.544   1.658   6.855  0.6386 -0.1207 -0.8200
  684MOL0     O92253   5.586   1.651   7.219 -0.3151  0.7696  0.3445
  684MOL0     C92254   5.893   1.524   7.100 -0.3963  1.0958 -0.0777
  684MOL0     C92255   6.032   1.514   7.126 -0.0511 -0.2475  0.3175
  684MOL0     N92256   6.537   1.992   7.578 -0.9921  0.0627 -0.3530
  684MOL0     N92257   6.625   2.088   7.600 -0.2300 -0.6769  0.7342
  684MOL0     C92258   7.592   2.699   7.749  0.2101  0.0042  0.3467
  684MOL0     C92259   7.717   2.669   7.696 -0.3535  0.2374 -0.2872
  684MOL0     C92260   8.069   2.613   7.422  0.1526 -0.7712  0.0548
  684MOL0     C92261   8.040   2.527   7.307 -0.2055 -0.5374  0.0278
  684MOL0     C92262   8.147   2.489   7.227  1.0269 -0.7255  0.2822
  684MOL0     C92263   8.279   2.518   7.259  0.1983 -0.7415 -0.7209
  684MOL0     O92264   8.374   2.456   7.187  0.0011  0.2840  0.9465
  684MOL0     C92265   8.504   2.434   7.258  0.9232  0.4990 -0.0190
  684MOL0     C92266   8.591   2.355   7.161 -0.0388  0.1337 -0.9284
  684MOL0     C92267   8.657   2.453   7.066  0.0930 -0.0225 -0.2412
  684MOL0     C92268   8.691   2.385   6.938 -0.1815  0.8751  0.6879
  684MOL0     C92269   8.776   2.260   6.950  0.4662 -0.0234 -0.2836
  684MOL0     C92270   8.848   2.162   6.956  0.1100  0.0927 -0.7837
  684MOL0     C92271   8.303   2.616   7.368  0.2192  0.1612  0.6059
  684MOL0     C92272   8.195   2.661   7.445 -0.6915 -0.0968  0.3700
  684MOL0     H92273   7.609   2.613   7.383  2.7663 -0.9985 -0.0921
  684MOL0     H92274   7.384   2.658   7.483 -0.1986 -0.1859 -0.3147
  684MOL0     H92275   7.166   2.635   7.786 -2.3904 -3.5724 -1.3216
  684MOL0     H92276   7.218   2.647   7.619  0.7943  0.5110 -1.5628
  684MOL0     H92277   7.361   2.428   7.661  0.2439  1.7441  0.0131
  684MOL0     H92278   7.310   2.427   7.824 -0.7558  1.6861  0.4928
  684MOL0     H92279   7.081   2.419   7.771  0.4875  2.7738 -0.4811
  684MOL0     H92280   7.114   2.404   7.603 -3.1099  1.0908  1.1504
  684MOL0     H92281   7.142   2.192   7.616 -1.3714 -0.2445  0.7673
  684MOL0     H92282   7.291   2.208   7.710  0.0924  0.1940 -1.9700
  684MOL0     H92283   7.137   2.047   7.828  0.8293 -0.0920 -0.3285
  684MOL0     H92284   7.167   2.199   7.926  0.7874  1.1974 -0.0506
  684MOL0     H92285   6.938   2.151   7.962 -3.9205  0.3214 -1.7371
  684MOL0     H92286   6.938   2.284   7.844 -0.7087  0.4062  0.5271
  684MOL0     H92287   6.891   1.983   7.812 -1.8150  0.1608  2.2382
  684MOL0     H92288   6.777   2.107   7.811 -0.0005 -1.4780  0.5770
  684MOL0     H92289   6.962   2.053   7.576 -0.6307 -1.0748 -0.1239
  684MOL0     H92290   6.893   2.208   7.609  0.7236 -0.2082  4.2190
  684MOL0     H92291   6.831   1.844   7.542 -2.1765 -1.8235 -1.0435
  684MOL0     H92292   6.633   1.666   7.550 -0.5223 -0.4047  1.2241
  684MOL0     H92293   6.475   1.720   7.590  1.4339  2.6436  2.0012
  684MOL0     H92294   6.641   1.696   7.339 -0.5430 -0.8392 -1.7645
  684MOL0     H92295   6.526   1.817   7.318  4.5960  1.6014  0.5719
  684MOL0     H92296   6.462   1.520   7.377  0.6899 -1.3439 -3.4796
  684MOL0     H92297   6.474   1.590   7.220  3.1275  0.3817  0.3706
  684MOL0     H92298   6.290   1.746   7.283 -3.1091 -0.2115  1.3563
  684MOL0     H92299   6.257   1.675   7.433 -2.0138  3.6987 -0.5909
  684MOL0     H92300   6.046   1.683   7.420 -0.2368 -0.3536  0.0882
  684MOL0     H92301   5.703   1.672   7.455  1.2971 -1.0947 -0.3736
  684MOL0     H92302   5.834   1.773   7.496  0.9322 -0.9719 -0.4778
  684MOL0     H92303   5.734   1.814   7.353 -1.8362 -0.2236  0.1149
  684MOL0     H92304   5.389   1.486   7.099  0.8280 -0.0151  1.4079
  684MOL0     H92305   5.187   1.555   6.979 -1.6562  0.5512 -2.5273
  684MOL0     H92306   5.230   1.861   6.698  1.5500 -1.0777  2.0875
  684MOL0     H92307   5.263   1.740   6.568 -2.1044  2.2152 -2.1736
  684MOL0     H92308   5.037   1.891   6.547  0.1745 -0.0792 -1.0411
  684MOL0     H92309   5.037   1.723   6.488 -4.1903  1.1674  0.7045
  684MOL0     H92310   4.952   1.804   6.779 -1.4009 -3.0066  0.8387
  684MOL0     H92311   4.929   1.649   6.706  0.1289 -1.3033 -2.3707
  684MOL0     H92312   4.792   1.915   6.603 -1.2435  0.1069  2.2611
  684MOL0     H92313   4.795   1.747   6.535  2.3981 -2.9443  1.4672
  684MOL0     H92314   4.598   1.803   6.676  1.0684  2.6391  1.1361
  684MOL0     H92315   4.703   1.827   6.812 -0.3212 -1.3693  1.0647
  684MOL0     H92316   4.696   1.564   6.670 -1.1488 -0.4406 -0.3088
  684MOL0     H92317   4.772   1.593   6.830 -0.7520 -1.3085 -0.0107
  684MOL0     H92318   4.498   1.562   6.722  2.2740 -0.2905 -1.1794
  684MOL0     H92319   4.513   1.669   6.864  0.5345 -0.5462 -0.5712
  684MOL0     H92320   4.638   1.468   6.976  2.0057 -2.6599 -1.1012
  684MOL0     H92321   4.575   1.365   6.851  0.8000  0.7220 -0.0798
  684MOL0     H92322   5.449   1.752   6.687  0.6123 -0.8713 -0.7600
  684MOL0     H92323   5.639   1.695   6.820  1.2860 -0.1888  0.7544
  684MOL0     H92324   5.868   1.476   7.006  1.6938  1.6596 -0.9855
  684MOL0     H92325   6.104   1.472   7.055  0.3696 -2.4296  1.9140
  684MOL0     H92326   7.571   2.715   7.855 -3.4111 -1.7506  0.0605
  684MOL0     H92327   7.810   2.678   7.753 -1.1738  1.5474  0.9099
  684MOL0     H92328   7.937   2.493   7.300 -0.7478  1.0801 -0.1692
  684MOL0     H92329   8.133   2.429   7.137  0.1770  0.2274 -0.2324
  684MOL0     H92330   8.548   2.531   7.283  2.0629  0.1422 -0.5775
  684MOL0     H92331   8.484   2.373   7.346 -1.6438 -1.8409 -2.0665
  684MOL0     H92332   8.541   2.277   7.103 -0.3428 -0.0759 -0.4022
  684MOL0     H92333   8.676   2.316   7.218  0.8160  2.0652 -0.8078
  684MOL0     H92334   8.751   2.497   7.101  0.4753  0.5970 -1.9401
  684MOL0     H92335   8.586   2.536   7.056 -0.7564 -0.4840  1.5235
  684MOL0     H92336   8.750   2.461   6.886  1.4912 -0.6502  0.2554
  684MOL0     H92337   8.601   2.368   6.879  0.9160 -0.3779 -0.7017
  684MOL0     H92338   8.919   2.082   6.955 -0.3967 -0.3543 -1.0637
  684MOL0     H92339   8.403   2.646   7.399  0.7658 -1.0199  0.0258
  684MOL0     H92340   8.220   2.724   7.530  0.1101  0.1062 -0.0103
  685MOL0     O92341   5.638   0.395   0.129  0.2953  0.4298  0.6916
  685MOL0     C92342   5.676   0.339   0.232  0.0015 -0.4748 -0.0275
  685MOL0     O92343   5.616   0.352   0.350 -0.4140 -0.1936 -0.8880
  685MOL0     C92344   5.479   0.358   0.375 -0.1944  0.3168  0.3476
  685MOL0     C92345   5.424   0.323   0.501 -0.4770  0.5370  0.4171
  685MOL0     C92346   5.289   0.312   0.534  0.4242 -0.2869 -0.0613
  685MOL0     C92347   5.203   0.336   0.424 -0.3207  0.1543 -0.2174
  685MOL0     O92348   5.067   0.309   0.440 -0.6125 -0.0571  0.2251
  685MOL0     C92349   4.971   0.391   0.375 -0.5801 -0.8211  0.9606
  685MOL0     C92350   4.864   0.435   0.485  0.1662 -0.5022 -0.2931
  685MOL0     C92351   4.774   0.317   0.510 -0.3566  0.6180 -0.3252
  685MOL0     C92352   4.699   0.333   0.639 -0.0956 -0.4451  0.5255
  685MOL0     C92353   4.583   0.236   0.663 -0.5459 -0.4491  0.8820
  685MOL0     C92354   4.519   0.239   0.804 -0.4265 -0.4910 -0.3291
  685MOL0     C92355   4.401   0.147   0.813  0.3259  0.7082 -0.5478
  685MOL0     C92356   4.272   0.232   0.779  0.6654 -0.1633 -0.2667
  685MOL0     N92357   4.152   0.151   0.765 -0.0017  0.8197 -0.6010
  685MOL0     C92358   4.142   0.009   0.783  0.3865 -0.0095  0.5139
  685MOL0     C92359   4.016  -0.016   0.755  0.2649 -0.1106  0.4641
  685MOL0     C92360   3.948  -0.151   0.746 -0.2270  0.0182 -0.0798
  685MOL0     C92361   3.792  -0.163   0.743 -0.3863 -0.1868  0.8550
  685MOL0     C92362   3.742  -0.150   0.601  0.0597 -0.5305  0.4729
  685MOL0     C92363   3.598  -0.123   0.603 -0.4263 -1.0609  0.2300
  685MOL0     O92364   3.517  -0.229   0.653  0.2100 -0.0250 -0.5216
  685MOL0     C92365   3.372  -0.222   0.649 -0.6841  0.0402 -0.2079
  685MOL0     C92366   3.294  -0.334   0.679 -0.9010  0.8766  0.8212
  685MOL0     C92367   3.157  -0.335   0.677 -0.1651  0.2636  0.1656
  685MOL0     C92368   3.088  -0.472   0.689  1.0394 -0.3311  0.4787
  685MOL0     C92369   3.089  -0.215   0.648  0.9022  0.3287 -0.5941
  685MOL0     C92370   2.939  -0.199   0.631  0.0302  0.4276 -0.1600
  685MOL0     O92371   2.872  -0.311   0.633  0.6976  0.1928  0.0562
  685MOL0     C92372   2.740  -0.330   0.667 -0.0479 -0.3954  0.0673
  685MOL0     C92373   2.670  -0.424   0.601 -0.9783 -0.0415  0.1205
  685MOL0     C92374   2.537  -0.441   0.622  0.5033 -0.4079  0.1893
  685MOL0     C92375   2.470  -0.373   0.731 -0.4574 -0.6852  0.3297
  685MOL0     O92376   2.335  -0.419   0.758 -0.1430 -0.3879  0.5278
  685MOL0     C92377   2.299  -0.402   0.891 -0.5253 -0.0725 -1.0102
  685MOL0     C92378   2.204  -0.278   0.908  0.2751  0.3960  0.1000
  685MOL0     C92379   2.073  -0.302   0.839 -0.0801 -0.1672 -0.9212
  685MOL0     C92380   1.985  -0.394   0.918  0.9259  0.6011 -0.0035
  685MOL0     C92381   1.859  -0.444   0.834 -0.6712  0.1837 -0.4030
  685MOL0     C92382   1.737  -0.437   0.926  0.1219 -0.6614  0.2384
  685MOL0     C92383   1.604  -0.461   0.858 -0.1177 -0.1815  0.0761
  685MOL0     C92384   1.496  -0.466   0.968 -0.5602  0.0484  0.4799
  685MOL0    Cl92385   1.342  -0.421   0.901  0.0547  0.4281  0.0257
  685MOL0     C92386   2.543  -0.274   0.802  0.5334  0.2111 -0.0931
  685MOL0     C92387   2.675  -0.252   0.768  0.5005 -0.2517  1.0459
  685MOL0     O92388   2.891  -0.087   0.631 -0.5617 -0.6641  0.2354
  685MOL0     C92389   3.158  -0.092   0.623 -1.1564  0.4159 -0.4807
  685MOL0     C92390   3.298  -0.100   0.618 -0.4127  0.1915 -0.0289
  685MOL0     N92391   3.944   0.104   0.728  1.0324 -0.2483  0.6792
  685MOL0     N92392   4.025   0.200   0.737  0.2358  0.8419 -0.7102
  685MOL0     C92393   5.244   0.359   0.294  0.0738  0.3609  0.6971
  685MOL0     C92394   5.381   0.368   0.269 -0.1465  0.1400  0.2813
  685MOL0     C92395   5.805   0.264   0.215 -0.2657 -0.3329 -0.5276
  685MOL0     C92396   5.871   0.260   0.087  0.0318 -0.3329 -0.4739
  685MOL0     C92397   5.992   0.190   0.078  0.3780  0.4897 -0.5357
  685MOL0     C92398   6.052   0.125   0.194 -0.2707 -0.5492  0.6498
  685MOL0     O92399   6.168   0.063   0.176  0.2622  0.4854  0.4723
  685MOL0     C92400   6.282   0.146   0.193 -0.3318  0.4700 -0.9190
  685MOL0     C92401   6.340   0.134   0.337 -0.8301  0.9267  0.3270
  685MOL0     C92402   6.488   0.189   0.335  0.4857  0.3392  0.3361
  685MOL0     C92403   6.604   0.095   0.308  0.0326 -0.2020  0.2509
  685MOL0     C92404   6.730   0.166   0.274  0.2621  0.2977 -0.7587
  685MOL0     C92405   6.818   0.244   0.259 -0.5899 -0.5586  0.0731
  685MOL0     C92406   5.984   0.119   0.312 -0.4834 -0.3790  0.3441
  685MOL0     C92407   5.861   0.190   0.324 -0.3777  0.3422  0.8843
  685MOL0     H92408   5.501   0.313   0.577  0.2034 -0.6820 -0.4076
  685MOL0     H92409   5.261   0.275   0.632 -0.6861  2.7433  0.8970
  685MOL0     H92410   5.013   0.474   0.319 -1.6241  0.0728  1.4687
  685MOL0     H92411   4.932   0.329   0.295  0.1951  2.2828 -2.0518
  685MOL0     H92412   4.919   0.453   0.578  0.9056 -2.8527 -0.2052
  685MOL0     H92413   4.810   0.530   0.475 -2.2274 -1.5569  1.4046
  685MOL0     H92414   4.704   0.306   0.426  0.7054 -1.5920 -1.0241
  685MOL0     H92415   4.834   0.226   0.526 -1.1815 -0.0689 -1.0072
  685MOL0     H92416   4.775   0.309   0.714 -0.5221 -0.1771  1.0457
  685MOL0     H92417   4.671   0.436   0.659  1.3036  0.7314 -2.8652
  685MOL0     H92418   4.518   0.255   0.577  1.5197 -0.1115 -0.6715
  685MOL0     H92419   4.616   0.135   0.639  1.3406 -0.4446  3.1075
  685MOL0     H92420   4.582   0.204   0.886 -0.3750 -2.5872 -1.1955
  685MOL0     H92421   4.503   0.345   0.823  2.0860 -0.0951 -0.0137
  685MOL0     H92422   4.413   0.069   0.737  0.6867 -1.4048  1.5856
  685MOL0     H92423   4.387   0.106   0.913 -1.1303  1.4058 -0.4446
  685MOL0     H92424   4.279   0.293   0.688 -0.3353  1.7406  0.8676
  685MOL0     H92425   4.250   0.301   0.861 -2.2138 -2.2166  0.8461
  685MOL0     H92426   4.219  -0.050   0.832  0.7792  0.1517  0.0984
  685MOL0     H92427   3.984  -0.205   0.659  0.5749  0.1762  0.1462
  685MOL0     H92428   3.986  -0.203   0.834 -2.5225 -1.3770  0.1785
  685MOL0     H92429   3.752  -0.088   0.812  0.1975  2.6089 -1.6824
  685MOL0     H92430   3.769  -0.268   0.768  1.3296 -0.6712  0.4882
  685MOL0     H92431   3.776  -0.231   0.536  2.2521  1.9829 -1.7508
  685MOL0     H92432   3.791  -0.060   0.563  0.8949 -1.1787 -0.0192
  685MOL0     H92433   3.557  -0.089   0.508 -0.6602  0.8506  0.9750
  685MOL0     H92434   3.585  -0.040   0.673 -1.6855 -1.1213  0.0831
  685MOL0     H92435   3.353  -0.424   0.693  0.6536  1.4304 -1.4929
  685MOL0     H92436   3.160  -0.544   0.729  1.3855  0.1695  0.7811
  685MOL0     H92437   2.993  -0.474   0.744 -0.5185 -3.4103 -2.0514
  685MOL0     H92438   3.059  -0.510   0.591 -2.0728  1.8453  0.3935
  685MOL0     H92439   2.727  -0.476   0.524  1.3825 -0.9247  2.3013
  685MOL0     H92440   2.478  -0.519   0.574 -0.2982  1.2189 -1.5655
  685MOL0     H92441   2.246  -0.492   0.924 -1.1142 -0.0712 -1.9189
  685MOL0     H92442   2.384  -0.388   0.959 -0.8494  1.9351 -0.9502
  685MOL0     H92443   2.191  -0.252   1.013  4.4646 -1.2858  1.2524
  685MOL0     H92444   2.243  -0.193   0.850  0.6678  0.4225  0.3965
  685MOL0     H92445   2.081  -0.323   0.732  1.2928 -0.6679 -0.7449
  685MOL0     H92446   2.017  -0.208   0.844 -1.2203 -0.8141 -1.1053
  685MOL0     H92447   2.046  -0.479   0.950  3.1118  2.0054 -0.2813
  685MOL0     H92448   1.946  -0.351   1.010 -0.2053  1.7719 -0.9925
  685MOL0     H92449   1.880  -0.547   0.806 -0.8819  0.6808 -2.6475
  685MOL0     H92450   1.847  -0.380   0.745  1.6947 -0.9371 -1.6133
  685MOL0     H92451   1.741  -0.507   1.010  0.6096 -1.6487 -0.5891
  685MOL0     H92452   1.732  -0.333   0.962  0.7040  1.0387 -3.9909
  685MOL0     H92453   1.615  -0.555   0.803  1.3015 -1.0493  1.7398
  685MOL0     H92454   1.579  -0.380   0.789 -0.4596 -1.4591 -1.3473
  685MOL0     H92455   1.516  -0.398   1.051  2.6450 -1.1112  0.8198
  685MOL0     H92456   1.490  -0.563   1.019  0.4475 -0.0758  0.3943
  685MOL0     H92457   2.518  -0.221   0.894 -2.3228  1.2573 -1.3772
  685MOL0     H92458   2.738  -0.189   0.830  1.5392 -2.1604  2.0289
  685MOL0     H92459   3.122   0.008   0.601 -2.7742 -0.2740 -1.1456
  685MOL0     H92460   3.344  -0.004   0.597 -1.9596  1.2090  0.9728
  685MOL0     H92461   5.176   0.358   0.209  1.4103  3.1373 -0.5110
  685MOL0     H92462   5.414   0.373   0.166  0.3052 -2.2367  0.2518
  685MOL0     H92463   5.829   0.318   0.005  0.5671 -1.3129 -1.4620
  685MOL0     H92464   6.037   0.173  -0.019  3.3169 -0.3996  0.8647
  685MOL0     H92465   6.351   0.111   0.115 -0.3262 -1.5018 -0.0706
  685MOL0     H92466   6.261   0.253   0.185 -1.2047  0.3851  0.0825
  685MOL0     H92467   6.347   0.031   0.373  0.0559  0.9775  0.3404
  685MOL0     H92468   6.269   0.179   0.406 -1.0157 -1.1940  1.6056
  685MOL0     H92469   6.512   0.232   0.432 -2.1237 -0.7931  1.5796
  685MOL0     H92470   6.498   0.274   0.267  1.9389  0.5482  0.7919
  685MOL0     H92471   6.584   0.017   0.233  1.5961 -0.8497  0.4552
  685MOL0     H92472   6.617   0.047   0.405 -1.0125  1.0367  1.0242
  685MOL0     H92473   6.907   0.303   0.255 -1.3520  1.1751  4.0435
  685MOL0     H92474   6.022   0.059   0.394  2.8217 -1.4358 -1.8109
  685MOL0     H92475   5.820   0.179   0.424 -0.0591  0.5104  1.0362
  686MOL0     O92476   9.740   9.285   7.520 -0.6478 -0.2305 -0.1316
  686MOL0     C92477   9.755   9.408   7.507 -0.4467  0.6345 -0.9634
  686MOL0     O92478   9.674   9.488   7.436  0.0913 -0.4376 -0.1417
  686MOL0     C92479   9.552   9.437   7.396 -0.3862  0.1402 -0.8651
  686MOL0     C92480   9.434   9.478   7.467  0.3394  0.3463  0.1326
  686MOL0     C92481   9.317   9.444   7.401  1.3714 -0.6012  0.4890
  686MOL0     C92482   9.308   9.351   7.293 -0.0463  0.4375 -0.2711
  686MOL0     O92483   9.187   9.310   7.244 -0.6788 -0.2136 -0.0759
  686MOL0     C92484   9.180   9.188   7.177  0.2685  0.3410  1.1458
  686MOL0     C92485   9.027   9.147   7.177  0.0715 -0.0197  0.3635
  686MOL0     C92486   8.942   9.226   7.074  0.2412 -0.0059 -0.1955
  686MOL0     C92487   8.813   9.160   7.045 -0.3217  0.7372  0.1456
  686MOL0     C92488   8.720   9.252   6.958 -0.3297  0.4178  0.2372
  686MOL0     C92489   8.567   9.221   6.965  0.9365 -0.8478  0.0467
  686MOL0     C92490   8.545   9.097   6.894 -0.1274  0.8921  0.2820
  686MOL0     C92491   8.392   9.063   6.897 -0.1620  0.3177 -0.1873
  686MOL0     N92492   8.320   9.157   6.806  0.2153  0.6188  0.1923
  686MOL0     C92493   8.285   9.118   6.682 -0.1967  0.0136 -0.1717
  686MOL0     C92494   8.195   9.206   6.642  0.0120 -1.0484 -0.1612
  686MOL0     C92495   8.118   9.211   6.510  0.2327 -1.3231 -1.0596
  686MOL0     C92496   8.040   9.083   6.501  0.0496 -0.2631 -0.8076
  686MOL0     C92497   8.002   9.030   6.361 -0.4039 -0.0342 -1.4640
  686MOL0     C92498   7.871   8.947   6.368  1.0899  0.0879 -0.3304
  686MOL0     O92499   7.762   9.038   6.386 -0.2110  0.4142 -0.1090
  686MOL0     C92500   7.637   8.998   6.355 -0.2833 -0.0080 -0.5378
  686MOL0     C92501   7.602   8.865   6.336  0.4581 -0.2277  0.8152
  686MOL0     C92502   7.478   8.823   6.289 -0.3298  0.4709 -0.2742
  686MOL0     C92503   7.476   8.673   6.244 -0.0224 -0.7110 -0.9699
  686MOL0     C92504   7.379   8.917   6.273 -0.3944  0.2765 -0.3189
  686MOL0     C92505   7.238   8.889   6.215 -1.0370 -0.8168 -0.3373
  686MOL0     O92506   7.161   9.002   6.185  0.1045  0.0266  0.1380
  686MOL0     C92507   7.033   8.987   6.143  0.4942 -0.3290 -0.0527
  686MOL0     C92508   6.927   9.001   6.232  0.8154 -0.4712  0.3670
  686MOL0     C92509   6.794   8.979   6.185  0.1954 -0.1889 -1.2096
  686MOL0     C92510   6.765   8.957   6.058  0.1441 -0.7563  0.0794
  686MOL0     O92511   6.630   8.952   6.029  0.6900  0.0817 -0.1585
  686MOL0     C92512   6.583   8.846   5.945  0.2700  1.3467  0.0151
  686MOL0     C92513   6.447   8.795   5.987 -0.3007  0.2783 -1.0711
  686MOL0     C92514   6.388   8.672   5.914  0.4357  1.2706 -0.1065
  686MOL0     C92515   6.246   8.640   5.971  0.5986 -0.1318  0.2521
  686MOL0     C92516   6.190   8.516   5.908 -0.3034  0.0650 -0.0431
  686MOL0     C92517   6.041   8.496   5.941  0.7626  0.7892  0.7575
  686MOL0     C92518   6.001   8.353   5.898 -0.5254 -0.2375 -0.3114
  686MOL0     C92519   5.860   8.325   5.952  0.8861  0.9113  0.3650
  686MOL0    Cl92520   5.816   8.157   5.881  0.2014  0.0193 -0.0974
  686MOL0     C92521   6.870   8.940   5.972  0.3346 -0.5722  0.3016
  686MOL0     C92522   6.996   8.961   6.007 -0.0132 -0.0686  0.1101
  686MOL0     O92523   7.196   8.773   6.198 -0.1684 -0.0114 -0.1024
  686MOL0     C92524   7.417   9.050   6.292 -0.4070  0.0908  0.3144
  686MOL0     C92525   7.541   9.086   6.336 -0.6554 -0.2390  0.5086
  686MOL0     N92526   8.167   9.289   6.748  0.4201  0.9379 -0.0498
  686MOL0     N92527   8.238   9.259   6.853  0.4174  0.0361  0.1504
  686MOL0     C92528   9.423   9.302   7.235  0.2131 -0.5478  0.3276
  686MOL0     C92529   9.544   9.357   7.284  0.5754 -0.5832  0.1172
  686MOL0     C92530   9.881   9.472   7.563  0.0501 -0.2129  0.1161
  686MOL0     C92531   9.953   9.437   7.675 -0.1580  0.5344  0.6754
  686MOL0     C92532  10.059   9.512   7.722  0.1857  0.6842  0.5460
  686MOL0     C92533  10.104   9.626   7.654 -0.1931 -0.1990  0.2192
  686MOL0     O92534  10.212   9.696   7.697  0.3210  1.0868  0.5766
  686MOL0     C92535  10.306   9.642   7.792 -0.6134 -0.6548  0.3105
  686MOL0     C92536  10.379   9.508   7.752  0.3061  0.6306 -0.2903
  686MOL0     C92537  10.490   9.529   7.649 -0.9367  0.6419  0.6898
  686MOL0     C92538  10.626   9.554   7.708 -0.0698 -0.5054  0.7321
  686MOL0     C92539  10.638   9.678   7.778  0.9327 -0.4365 -1.4615
  686MOL0     C92540  10.637   9.775   7.848 -0.0638  1.4891  0.2074
  686MOL0     C92541  10.041   9.662   7.542  0.5102 -0.1899 -0.4347
  686MOL0     C92542   9.934   9.584   7.491  0.0171  0.1833 -0.1724
  686MOL0     H92543   9.447   9.526   7.563 -2.8987  2.0043 -0.1263
  686MOL0     H92544   9.221   9.463   7.449  1.8999 -1.8318  2.1069
  686MOL0     H92545   9.221   9.197   7.076  0.3001 -2.0974  0.8786
  686MOL0     H92546   9.234   9.104   7.220  3.0647 -0.6149 -3.4786
  686MOL0     H92547   9.022   9.046   7.134 -0.6100  1.9135 -4.7867
  686MOL0     H92548   8.980   9.149   7.275 -0.4999 -3.9054  0.3330
  686MOL0     H92549   8.920   9.318   7.129 -1.1357 -0.5772  0.2471
  686MOL0     H92550   8.997   9.237   6.980 -2.2322 -0.4251 -1.7858
  686MOL0     H92551   8.831   9.070   6.986  2.8360  1.8184 -0.7471
  686MOL0     H92552   8.762   9.127   7.136  0.7556 -1.8148 -0.0747
  686MOL0     H92553   8.726   9.352   7.002  1.3556  0.5547 -0.2463
  686MOL0     H92554   8.756   9.264   6.856 -1.5765  2.5193 -0.0168
  686MOL0     H92555   8.547   9.207   7.072 -1.2829  1.1176 -0.0236
  686MOL0     H92556   8.509   9.309   6.933 -0.1800  0.1662  4.2398
  686MOL0     H92557   8.575   9.098   6.789  3.4240  0.1463  1.1666
  686MOL0     H92558   8.596   9.019   6.952 -1.4873  0.7975  1.4115
  686MOL0     H92559   8.356   9.062   7.000 -0.9672 -0.1175 -0.4640
  686MOL0     H92560   8.373   8.958   6.872 -3.2102 -0.0683  2.9312
  686MOL0     H92561   8.330   9.031   6.635 -0.7444 -1.8349  2.5408
  686MOL0     H92562   8.046   9.294   6.514  0.0778 -1.5121  1.3145
  686MOL0     H92563   8.180   9.232   6.422  0.7963 -1.7205 -0.7651
  686MOL0     H92564   7.949   9.119   6.548  1.9445  2.2465  1.2164
  686MOL0     H92565   8.087   9.001   6.556 -0.3582  2.0174  3.3122
  686MOL0     H92566   8.089   8.978   6.319  1.4036  0.5279  1.2557
  686MOL0     H92567   7.987   9.117   6.297 -3.1433  0.5248 -0.1779
  686MOL0     H92568   7.880   8.885   6.458  3.0231  1.4288  0.4886
  686MOL0     H92569   7.861   8.879   6.284 -1.2777 -1.4881  1.1154
  686MOL0     H92570   7.678   8.788   6.342 -0.6750 -1.4318  0.0489
  686MOL0     H92571   7.577   8.634   6.261  0.5001  0.7410 -0.5463
  686MOL0     H92572   7.411   8.606   6.301  0.4797  0.5162  1.1494
  686MOL0     H92573   7.438   8.662   6.142 -0.8384 -0.3614 -0.7101
  686MOL0     H92574   6.939   9.017   6.339 -1.3227 -0.0352  0.5859
  686MOL0     H92575   6.713   8.978   6.257 -0.0382  1.0875 -1.4318
  686MOL0     H92576   6.572   8.872   5.840  2.2516 -0.9661 -0.8725
  686MOL0     H92577   6.650   8.759   5.943  1.8303  2.4975 -0.5555
  686MOL0     H92578   6.450   8.780   6.095 -1.3241 -0.2764 -1.1028
  686MOL0     H92579   6.378   8.876   5.963  0.1022  0.9341 -0.0856
  686MOL0     H92580   6.454   8.585   5.924 -0.6046  0.6985  3.4077
  686MOL0     H92581   6.374   8.698   5.809 -1.3759  2.0005  0.2707
  686MOL0     H92582   6.262   8.631   6.079 -0.6436  0.4962  0.4962
  686MOL0     H92583   6.179   8.724   5.950  1.1819  0.1248 -0.6235
  686MOL0     H92584   6.264   8.436   5.926  0.1623  0.5009  0.0093
  686MOL0     H92585   6.196   8.524   5.799 -2.0098 -0.4209 -0.1929
  686MOL0     H92586   6.023   8.501   6.049 -0.3942 -4.2703  1.0414
  686MOL0     H92587   5.985   8.566   5.879  0.0424  0.9952  1.6080
  686MOL0     H92588   6.073   8.279   5.935 -0.3324  0.4055  0.6378
  686MOL0     H92589   6.009   8.351   5.789  0.5370  4.1255 -0.4976
  686MOL0     H92590   5.800   8.399   5.899  2.7917  0.1785 -3.1365
  686MOL0     H92591   5.864   8.318   6.062  0.1174  2.9329  0.5621
  686MOL0     H92592   6.832   8.922   5.872  3.0918 -0.3675 -0.8675
  686MOL0     H92593   7.073   8.947   5.931 -0.8129  0.3382 -0.8091
  686MOL0     H92594   7.349   9.130   6.264  1.4435  2.0608  1.1579
  686MOL0     H92595   7.567   9.191   6.336  2.0126 -0.8192  1.0991
  686MOL0     H92596   9.449   9.244   7.148  1.2821  0.3627  0.0223
  686MOL0     H92597   9.632   9.330   7.227 -0.9549  1.1615 -3.4177
  686MOL0     H92598   9.919   9.354   7.736 -1.5923  1.4234  1.1110
  686MOL0     H92599  10.098   9.469   7.813 -0.2225 -1.9138 -0.4246
  686MOL0     H92600  10.382   9.719   7.812 -0.5539 -0.1803 -1.5716
  686MOL0     H92601  10.255   9.625   7.887 -0.6318 -3.2234 -0.0836
  686MOL0     H92602  10.312   9.430   7.714  0.4451  0.7312 -0.7467
  686MOL0     H92603  10.427   9.465   7.841 -2.3685  2.3081  2.1869
  686MOL0     H92604  10.470   9.614   7.584  2.1455  1.0966  0.1681
  686MOL0     H92605  10.491   9.438   7.588  1.4561  1.0217  0.0381
  686MOL0     H92606  10.698   9.562   7.625 -1.9407 -2.9447 -1.2806
  686MOL0     H92607  10.661   9.473   7.772 -2.0346 -0.7063  1.6175
  686MOL0     H92608  10.640   9.870   7.898 -2.2370  2.3868 -1.2324
  686MOL0     H92609  10.065   9.742   7.474 -2.3861  0.5759 -0.7032
  686MOL0     H92610   9.888   9.603   7.394  1.2537 -0.2440 -0.8760
  687MOL0     O92611   5.972   6.044   4.033 -0.6096  0.0354 -0.1408
  687MOL0     C92612   6.010   6.002   3.923  0.5259 -0.1502 -0.2577
  687MOL0     O92613   5.928   5.932   3.836  0.1784 -0.1129 -0.3676
  687MOL0     C92614   5.795   5.925   3.862 -0.5325  0.3856  0.1217
  687MOL0     C92615   5.714   6.029   3.909  0.3705  1.3827 -0.9301
  687MOL0     C92616   5.574   6.010   3.931  0.2982  0.3305 -0.0695
  687MOL0     C92617   5.503   5.890   3.906 -0.5823  0.4461 -0.8142
  687MOL0     O92618   5.373   5.869   3.933  0.1352 -0.2864  0.0361
  687MOL0     C92619   5.286   5.985   3.917 -0.4729  0.1066  0.0756
  687MOL0     C92620   5.148   5.937   3.881  1.6881  0.3533 -0.3888
  687MOL0     C92621   5.025   6.032   3.889  0.1587 -0.7850 -0.7953
  687MOL0     C92622   4.895   5.961   3.858 -0.7414  0.3427  0.1059
  687MOL0     C92623   4.782   6.063   3.844 -0.8168 -0.3411 -0.4778
  687MOL0     C92624   4.635   6.020   3.813 -0.0185 -0.5705 -0.9465
  687MOL0     C92625   4.533   6.123   3.772  0.8876  0.1402 -0.2610
  687MOL0     C92626   4.524   6.248   3.867  0.6654 -0.0112  0.6668
  687MOL0     N92627   4.409   6.334   3.846  0.2813 -0.0402  0.3435
  687MOL0     C92628   4.392   6.461   3.897 -0.3670  0.5005 -0.0116
  687MOL0     C92629   4.296   6.523   3.817 -0.0426  0.4508  0.6357
  687MOL0     C92630   4.236   6.661   3.842 -0.3818  0.7883 -0.0239
  687MOL0     C92631   4.094   6.675   3.791  0.1930  0.0843 -1.0456
  687MOL0     C92632   4.000   6.593   3.875 -0.1157 -0.2303  0.1227
  687MOL0     C92633   3.858   6.577   3.812  0.5611  0.7588 -0.5543
  687MOL0     O92634   3.791   6.708   3.799 -0.0612  0.6824 -0.3380
  687MOL0     C92635   3.661   6.719   3.849 -0.0098  0.1537  0.0331
  687MOL0     C92636   3.635   6.830   3.923  1.3266  0.7227 -0.1452
  687MOL0     C92637   3.501   6.854   3.976  0.0590 -0.1722 -0.6226
  687MOL0     C92638   3.487   6.995   4.040 -0.8987 -0.0265 -0.2050
  687MOL0     C92639   3.407   6.747   3.979  0.3703  0.4134  0.1633
  687MOL0     C92640   3.270   6.756   4.034 -0.3823  0.3682  0.5964
  687MOL0     O92641   3.186   6.647   4.005 -0.1621  0.4493 -0.2442
  687MOL0     C92642   3.053   6.657   4.023  0.4596  0.2268  0.2941
  687MOL0     C92643   2.984   6.676   4.141 -0.1401 -0.2200 -0.2222
  687MOL0     C92644   2.844   6.679   4.137  0.8319  0.1562 -0.0298
  687MOL0     C92645   2.767   6.661   4.023 -0.1411 -0.4012  0.2182
  687MOL0     O92646   2.634   6.678   4.019  0.0235  0.2776 -0.1002
  687MOL0     C92647   2.568   6.692   3.889  0.0033 -0.1832 -0.1102
  687MOL0     C92648   2.417   6.706   3.894  0.0270  0.7870 -0.4705
  687MOL0     C92649   2.354   6.605   3.989  0.3733  0.3498  0.1344
  687MOL0     C92650   2.198   6.602   3.981 -0.4543 -0.2611 -0.0671
  687MOL0     C92651   2.149   6.467   4.033  0.7256 -0.2146 -0.2220
  687MOL0     C92652   1.989   6.463   4.004  0.0663  0.6204  0.4375
  687MOL0     C92653   1.925   6.360   4.098  0.4307 -0.4393 -0.4440
  687MOL0     C92654   1.778   6.350   4.062 -0.1169 -0.4124 -0.4032
  687MOL0    Cl92655   1.690   6.229   4.164 -0.0103  0.3218 -0.0335
  687MOL0     C92656   2.840   6.634   3.906  0.2323 -0.8053 -0.1787
  687MOL0     C92657   2.983   6.633   3.904  0.2016 -0.0780  0.0478
  687MOL0     O92658   3.245   6.856   4.093  0.6809 -0.2120  0.6135
  687MOL0     C92659   3.436   6.630   3.900 -0.0176  0.9513 -0.3737
  687MOL0     C92660   3.561   6.618   3.837 -0.1772 -0.5250  0.4022
  687MOL0     N92661   4.265   6.435   3.716  0.3796  0.3078  0.1195
  687MOL0     N92662   4.336   6.329   3.728 -0.5260 -0.4081 -0.2262
  687MOL0     C92663   5.595   5.788   3.863 -0.2850  0.5026  0.0363
  687MOL0     C92664   5.733   5.807   3.829 -0.2034  0.3484  0.0368
  687MOL0     C92665   6.151   6.027   3.889 -0.1248  0.0880 -0.3459
  687MOL0     C92666   6.216   6.136   3.954  0.0712  0.0866  0.0549
  687MOL0     C92667   6.352   6.147   3.950  0.0754 -0.3808  0.0733
  687MOL0     C92668   6.430   6.063   3.877 -0.1586  0.1849 -0.2536
  687MOL0     O92669   6.559   6.092   3.865 -0.3477 -0.0115  0.5045
  687MOL0     C92670   6.658   5.987   3.852  0.5444 -0.5682  0.1508
  687MOL0     C92671   6.800   6.034   3.877 -0.1943  0.1049 -0.4851
  687MOL0     C92672   6.898   5.914   3.885  0.1604  0.2428  0.1468
  687MOL0     C92673   7.048   5.965   3.888 -0.0962  0.4710  0.5713
  687MOL0     C92674   7.134   5.842   3.915  0.8364 -0.4802  0.0885
  687MOL0     C92675   7.225   5.773   3.949  0.9173 -0.1493  0.7146
  687MOL0     C92676   6.365   5.961   3.803 -0.3338  0.1598 -0.0132
  687MOL0     C92677   6.229   5.951   3.810 -0.0892  1.0252 -0.4533
  687MOL0     H92678   5.753   6.127   3.935  1.9473  0.1973  1.5608
  687MOL0     H92679   5.520   6.097   3.965 -1.9532 -0.3777 -1.5661
  687MOL0     H92680   5.284   6.041   4.010 -2.0727 -0.4986  0.4386
  687MOL0     H92681   5.325   6.049   3.837  1.7189  1.5091  2.1466
  687MOL0     H92682   5.158   5.897   3.780  2.6982  2.6189 -1.2392
  687MOL0     H92683   5.119   5.849   3.940 -1.2113  0.7059 -1.1014
  687MOL0     H92684   5.014   6.082   3.985 -0.6927 -3.6699  0.7190
  687MOL0     H92685   5.043   6.109   3.813 -0.9034 -0.1482 -0.4244
  687MOL0     H92686   4.915   5.905   3.766 -1.2188  0.0184  0.1990
  687MOL0     H92687   4.877   5.898   3.945 -2.8553 -1.6232 -1.6115
  687MOL0     H92688   4.791   6.139   3.923  0.9333 -0.1495 -0.8317
  687MOL0     H92689   4.812   6.114   3.752 -1.7629 -2.9033 -2.2984
  687MOL0     H92690   4.641   5.946   3.732 -0.6899 -1.0895 -0.5330
  687MOL0     H92691   4.602   5.966   3.902 -1.4739  2.1910  0.2879
  687MOL0     H92692   4.539   6.158   3.669 -1.6733  0.5714 -0.3257
  687MOL0     H92693   4.444   6.061   3.783  0.3489  0.9335 -0.0807
  687MOL0     H92694   4.619   6.301   3.853  0.2270  0.8788  1.0353
  687MOL0     H92695   4.516   6.211   3.970 -0.0608 -1.4120  0.1415
  687MOL0     H92696   4.440   6.496   3.988 -0.2824 -1.2302  0.6613
  687MOL0     H92697   4.235   6.683   3.949 -1.8188 -1.3289  0.4778
  687MOL0     H92698   4.309   6.730   3.800  1.1721 -0.4522  0.5429
  687MOL0     H92699   4.080   6.628   3.694  0.0277 -1.1088 -0.4599
  687MOL0     H92700   4.078   6.783   3.793 -0.2380  0.0198 -0.8475
  687MOL0     H92701   3.978   6.643   3.970 -0.9551  0.4815 -0.4252
  687MOL0     H92702   4.046   6.495   3.893  3.3212  0.2445 -4.2359
  687MOL0     H92703   3.794   6.517   3.877 -1.1760  1.5346 -1.5075
  687MOL0     H92704   3.858   6.537   3.711 -2.8672 -2.7640  0.6147
  687MOL0     H92705   3.722   6.895   3.933  3.8672 -2.1334 -1.7590
  687MOL0     H92706   3.579   7.050   4.060 -2.7536  2.6799  1.4800
  687MOL0     H92707   3.434   7.058   3.968  0.2734  2.4184  0.9726
  687MOL0     H92708   3.423   6.995   4.128 -3.3688 -1.4372 -1.8722
  687MOL0     H92709   3.042   6.693   4.231  0.3727  1.9281 -0.8742
  687MOL0     H92710   2.784   6.686   4.227 -2.1577  4.0070 -2.0544
  687MOL0     H92711   2.615   6.769   3.828  2.2764 -0.8384  0.7201
  687MOL0     H92712   2.587   6.598   3.836 -0.0827  0.4664 -1.3237
  687MOL0     H92713   2.390   6.804   3.933  0.3402 -0.0462  1.9733
  687MOL0     H92714   2.378   6.699   3.792 -1.0781  2.3210 -0.1908
  687MOL0     H92715   2.398   6.611   4.089  2.6183 -0.9757 -0.6942
  687MOL0     H92716   2.382   6.505   3.954 -1.0986 -0.2457  0.5555
  687MOL0     H92717   2.152   6.675   4.048 -0.5579  0.2422 -0.6790
  687MOL0     H92718   2.152   6.622   3.884 -1.8976 -0.8650  0.4566
  687MOL0     H92719   2.175   6.463   4.139 -0.3935  3.9640  0.3780
  687MOL0     H92720   2.204   6.384   3.987  1.8494 -0.0789  0.8440
  687MOL0     H92721   1.947   6.560   4.030  0.5975  1.3051 -1.1467
  687MOL0     H92722   1.946   6.443   3.906 -1.4788 -0.8754  1.3569
  687MOL0     H92723   1.937   6.381   4.205 -0.7944 -3.7841  0.4824
  687MOL0     H92724   1.970   6.260   4.086  0.9790 -0.2679  0.1124
  687MOL0     H92725   1.764   6.335   3.954  1.5103  0.4222 -0.7769
  687MOL0     H92726   1.725   6.444   4.077  3.3013  1.8928 -1.3651
  687MOL0     H92727   2.790   6.625   3.810 -1.9774  4.3653  0.1707
  687MOL0     H92728   3.039   6.613   3.813 -2.9256 -1.2918 -1.7428
  687MOL0     H92729   3.369   6.547   3.884  0.2205  0.3717  1.3762
  687MOL0     H92730   3.578   6.532   3.774 -1.1025  0.1712 -0.8406
  687MOL0     H92731   5.540   5.697   3.839 -0.4696  0.4820  0.5314
  687MOL0     H92732   5.787   5.726   3.783  0.9425  0.6033  0.8803
  687MOL0     H92733   6.166   6.201   4.025  1.2933  1.2363 -0.1107
  687MOL0     H92734   6.403   6.224   4.007 -0.7332 -1.4131  2.3129
  687MOL0     H92735   6.623   5.916   3.928 -2.2460 -1.2580 -1.6265
  687MOL0     H92736   6.644   5.935   3.756  0.5302 -2.4788  1.1327
  687MOL0     H92737   6.803   6.097   3.966  0.9111  1.3637 -1.3786
  687MOL0     H92738   6.832   6.097   3.793  2.9035 -1.2866 -0.4853
  687MOL0     H92739   6.871   5.847   3.802 -0.8797  2.1918 -1.1676
  687MOL0     H92740   6.891   5.844   3.969  1.2899  0.8295  0.7431
  687MOL0     H92741   7.059   6.039   3.968 -0.3065  1.7593 -0.5623
  687MOL0     H92742   7.072   6.020   3.796 -0.8270  4.2504  2.4381
  687MOL0     H92743   7.313   5.725   3.988  1.4855 -0.4717 -0.9044
  687MOL0     H92744   6.433   5.901   3.742 -0.0028  0.4009  0.1148
  687MOL0     H92745   6.193   5.870   3.747  0.7910  0.8945 -0.8099
  688MOL0     O92746   4.513   8.379   3.058 -0.3523  0.4148  0.2907
  688MOL0     C92747   4.413   8.436   3.022 -0.7370  0.0414  0.3544
  688MOL0     O92748   4.398   8.574   3.018  0.6334 -0.8515  0.2707
  688MOL0     C92749   4.505   8.655   3.044 -1.0870 -0.6799 -0.5491
  688MOL0     C92750   4.527   8.695   3.179  0.5334 -0.0078 -0.6580
  688MOL0     C92751   4.634   8.782   3.212  0.0937 -0.7968 -0.0149
  688MOL0     C92752   4.729   8.821   3.110  0.0114  0.5240 -0.2116
  688MOL0     O92753   4.834   8.902   3.125  0.1453  0.1303  0.4266
  688MOL0     C92754   4.846   9.003   3.230  1.3319 -0.5120 -0.5303
  688MOL0     C92755   4.978   9.066   3.236 -0.7625  0.7632  1.1908
  688MOL0     C92756   4.993   9.150   3.365  0.0648 -0.9870 -0.0971
  688MOL0     C92757   5.135   9.211   3.348  0.0509 -0.6669  0.1992
  688MOL0     C92758   5.166   9.320   3.462  0.4949  0.6787 -0.1242
  688MOL0     C92759   5.312   9.368   3.456  0.3209  0.1035 -0.7777
  688MOL0     C92760   5.356   9.432   3.586  0.4342  0.2662 -0.2405
  688MOL0     C92761   5.281   9.560   3.617 -0.6018  0.0113  0.2942
  688MOL0     N92762   5.324   9.681   3.542  0.2436  0.1891  0.4772
  688MOL0     C92763   5.450   9.736   3.553  0.5720  0.2567  0.2469
  688MOL0     C92764   5.443   9.854   3.480  0.0433 -0.1607 -0.1565
  688MOL0     C92765   5.556   9.949   3.461 -0.2775  0.4330  0.1021
  688MOL0     C92766   5.554  10.008   3.321  0.2814  0.1101 -0.5355
  688MOL0     C92767   5.675  10.105   3.300 -0.8648  1.0239  0.6119
  688MOL0     C92768   5.799  10.038   3.248  0.1402  0.5341 -0.1992
  688MOL0     O92769   5.852   9.933   3.335 -0.1915  0.1635  0.3269
  688MOL0     C92770   5.979   9.880   3.317  0.7240  0.7729  0.1236
  688MOL0     C92771   6.068   9.915   3.219  1.0184 -0.4161  0.6573
  688MOL0     C92772   6.191   9.857   3.197  0.3060 -0.3052 -0.6016
  688MOL0     C92773   6.273   9.901   3.077  0.7693  0.1162 -0.6600
  688MOL0     C92774   6.237   9.764   3.289  0.4672 -0.1854  0.5808
  688MOL0     C92775   6.373   9.702   3.274  0.5772 -0.0365 -0.3956
  688MOL0     O92776   6.428   9.686   3.144  0.5370  0.1676 -0.3262
  688MOL0     C92777   6.551   9.630   3.132  0.5780  1.2554 -0.2907
  688MOL0     C92778   6.656   9.715   3.135 -0.3416 -0.1930  0.8245
  688MOL0     C92779   6.791   9.674   3.120 -0.0809  0.4118 -0.3102
  688MOL0     C92780   6.809   9.532   3.091  0.4212  0.1229  0.2772
  688MOL0     O92781   6.937   9.498   3.053  0.3819  0.3562  0.2192
  688MOL0     C92782   6.950   9.362   3.002 -0.3670 -0.3938 -0.1200
  688MOL0     C92783   7.092   9.327   2.980  0.5775  0.3960 -0.0339
  688MOL0     C92784   7.110   9.181   2.955  0.0921  0.5061  0.5939
  688MOL0     C92785   7.244   9.130   2.902 -0.4933 -1.3118 -1.0631
  688MOL0     C92786   7.247   8.999   2.838  0.5026 -0.0568  0.2549
  688MOL0     C92787   7.387   8.948   2.801  0.2322  0.1162 -0.5917
  688MOL0     C92788   7.387   8.809   2.749  0.4132 -0.3860 -0.5070
  688MOL0     C92789   7.334   8.801   2.609  0.2131  0.4064  0.3021
  688MOL0    Cl92790   7.291   8.626   2.587  0.2978  0.1245  0.2188
  688MOL0     C92791   6.695   9.442   3.084  0.7463 -0.1600 -0.2721
  688MOL0     C92792   6.570   9.492   3.115 -0.2546  0.2559 -0.1946
  688MOL0     O92793   6.430   9.678   3.381  0.0500 -0.3838  0.0683
  688MOL0     C92794   6.162   9.742   3.401 -0.2192  0.3806 -0.3543
  688MOL0     C92795   6.030   9.791   3.421 -0.1438 -0.1846  0.5391
  688MOL0     N92796   5.313   9.872   3.426  0.4713 -0.2102 -0.6391
  688MOL0     N92797   5.246   9.769   3.473  0.9852  0.3987 -0.7244
  688MOL0     C92798   4.712   8.768   2.983 -0.4441  0.6096 -0.2196
  688MOL0     C92799   4.597   8.692   2.950 -0.5396  0.2274  0.1755
  688MOL0     C92800   4.297   8.344   3.002  0.0363  0.7216 -0.1625
  688MOL0     C92801   4.302   8.208   3.052 -1.3147 -1.0136 -0.0191
  688MOL0     C92802   4.190   8.131   3.046  0.0127  0.9172 -0.0953
  688MOL0     C92803   4.069   8.186   2.984  0.1602  1.0501 -0.3721
  688MOL0     O92804   3.953   8.111   2.962  0.5168  0.7561 -0.1921
  688MOL0     C92805   3.956   7.977   3.003 -0.8534  0.6850 -0.3611
  688MOL0     C92806   3.819   7.913   2.985 -0.5377 -0.3708  0.6676
  688MOL0     C92807   3.700   7.999   3.040 -0.5346  0.2233 -0.0441
  688MOL0     C92808   3.577   7.915   3.043  0.0184 -0.6267  0.4598
  688MOL0     C92809   3.523   7.903   2.907  0.8312  0.3777  0.6929
  688MOL0     C92810   3.470   7.888   2.795 -0.4309  0.2568  0.0423
  688MOL0     C92811   4.067   8.316   2.934 -0.0101  0.0648  0.6592
  688MOL0     C92812   4.179   8.397   2.944 -0.5807  0.8605  0.1041
  688MOL0     H92813   4.463   8.650   3.254  0.8414 -0.1813 -0.4962
  688MOL0     H92814   4.644   8.814   3.315  0.0353 -2.2299  0.4523
  688MOL0     H92815   4.769   9.079   3.215  0.3064 -0.5766  3.3897
  688MOL0     H92816   4.832   8.950   3.325 -0.5075 -0.8567 -0.9522
  688MOL0     H92817   5.062   8.997   3.233 -0.3683  1.1740 -3.0937
  688MOL0     H92818   4.981   9.135   3.151  2.2011 -0.0636  0.5053
  688MOL0     H92819   4.916   9.226   3.377 -0.5746 -1.9658  2.8692
  688MOL0     H92820   4.986   9.075   3.444  1.0325 -0.5079  0.4609
  688MOL0     H92821   5.215   9.137   3.362 -0.5949 -1.6319 -1.0162
  688MOL0     H92822   5.148   9.255   3.249 -1.7466  0.2352  0.3224
  688MOL0     H92823   5.101   9.407   3.453 -1.8107 -1.0257 -0.6856
  688MOL0     H92824   5.151   9.280   3.562 -0.4739  0.8258 -0.2082
  688MOL0     H92825   5.373   9.281   3.431 -0.1296 -0.4684  0.0678
  688MOL0     H92826   5.335   9.435   3.373 -0.3198 -0.6388 -1.5662
  688MOL0     H92827   5.324   9.364   3.666 -0.1435  2.4403  1.4951
  688MOL0     H92828   5.462   9.450   3.568  0.0724  1.8952 -0.9416
  688MOL0     H92829   5.300   9.584   3.722 -1.7177 -0.7020  0.6837
  688MOL0     H92830   5.175   9.544   3.597 -0.4454 -1.5886  0.5867
  688MOL0     H92831   5.540   9.694   3.596  0.4544 -1.1986 -0.8479
  688MOL0     H92832   5.550  10.032   3.531  3.0191  1.1379 -0.2893
  688MOL0     H92833   5.653   9.901   3.478 -0.5103  0.0948  0.4947
  688MOL0     H92834   5.462  10.064   3.302  0.2148  1.3235  2.6497
  688MOL0     H92835   5.547   9.922   3.254 -0.1259  1.3594 -2.1497
  688MOL0     H92836   5.688  10.171   3.386 -1.1538  2.6174 -0.5143
  688MOL0     H92837   5.645  10.164   3.212 -2.0404  0.6619  0.7455
  688MOL0     H92838   5.882  10.105   3.227  1.6439 -0.5358  1.9151
  688MOL0     H92839   5.780   9.991   3.152 -0.9729  1.7473 -0.6125
  688MOL0     H92840   6.043   9.996   3.152 -0.1138 -0.3097  1.1982
  688MOL0     H92841   6.219   9.982   3.027  2.0630  0.1348 -2.1112
  688MOL0     H92842   6.368   9.940   3.114  1.1777 -1.0442 -0.4514
  688MOL0     H92843   6.287   9.821   3.004 -1.6358  0.2559 -1.3667
  688MOL0     H92844   6.633   9.819   3.154  1.0425  0.5751 -1.3645
  688MOL0     H92845   6.875   9.742   3.118 -0.5220  0.9815  0.3565
  688MOL0     H92846   6.904   9.290   3.070 -2.2561 -0.8067 -1.7419
  688MOL0     H92847   6.898   9.356   2.906 -1.5108 -0.0110  0.4487
  688MOL0     H92848   7.127   9.386   2.894  0.2948 -1.6413 -1.6121
  688MOL0     H92849   7.146   9.359   3.070 -2.5604  1.4689  1.6097
  688MOL0     H92850   7.034   9.157   2.880  0.0801 -2.3254  1.3848
  688MOL0     H92851   7.095   9.116   3.042  0.2013 -0.4830 -0.1132
  688MOL0     H92852   7.278   9.210   2.835 -1.7208  1.1695  1.0803
  688MOL0     H92853   7.322   9.135   2.978 -1.3865  0.8930 -0.2257
  688MOL0     H92854   7.180   9.012   2.753  0.4688  1.3374  0.4687
  688MOL0     H92855   7.195   8.916   2.886 -0.2195 -0.1106 -0.6054
  688MOL0     H92856   7.433   9.014   2.727  0.5878  0.3777 -0.1455
  688MOL0     H92857   7.444   8.948   2.895 -2.3389  1.9968  1.1458
  688MOL0     H92858   7.329   8.739   2.809  0.0745 -0.7553 -1.2546
  688MOL0     H92859   7.490   8.774   2.756  0.5273  0.0272 -0.0540
  688MOL0     H92860   7.409   8.836   2.538 -0.7305 -0.3282 -1.1048
  688MOL0     H92861   7.241   8.857   2.599  0.0461  0.2956  1.1296
  688MOL0     H92862   6.694   9.339   3.050  0.7114  0.3786 -2.0128
  688MOL0     H92863   6.478   9.435   3.124 -0.4320  0.8538  2.7591
  688MOL0     H92864   6.200   9.680   3.481 -0.8859  0.0511 -0.2903
  688MOL0     H92865   5.962   9.763   3.501 -2.1659  3.3964  0.2916
  688MOL0     H92866   4.780   8.793   2.902  1.0536 -1.7841  0.1852
  688MOL0     H92867   4.582   8.670   2.845 -3.6942  0.7186  0.4356
  688MOL0     H92868   4.396   8.170   3.090 -0.2353 -0.6387 -2.1639
  688MOL0     H92869   4.186   8.030   3.086 -0.7231  0.3960 -1.3786
  688MOL0     H92870   4.036   7.926   2.947  0.7611  1.0994  1.4702
  688MOL0     H92871   3.976   7.966   3.110 -0.8821 -2.3651 -0.5653
  688MOL0     H92872   3.825   7.812   3.027 -0.2771 -1.2554 -1.3510
  688MOL0     H92873   3.814   7.910   2.876  1.7335  0.7467  0.4664
  688MOL0     H92874   3.681   8.095   2.990  0.3487  1.1087  1.2335
  688MOL0     H92875   3.710   8.028   3.145 -0.3819 -1.4610  0.4277
  688MOL0     H92876   3.503   7.956   3.112  0.3481  1.7509 -0.4944
  688MOL0     H92877   3.605   7.816   3.081 -0.8637 -0.2833  2.1030
  688MOL0     H92878   3.430   7.878   2.696 -1.2246 -0.9803  0.4757
  688MOL0     H92879   3.974   8.357   2.894 -1.5411  0.1727  3.9731
  688MOL0     H92880   4.168   8.492   2.893 -1.8628  0.6562 -0.0375
  689MOL0     O92881   6.280  10.529   8.519 -0.5241  0.1164 -0.1488
  689MOL0     C92882   6.285  10.588   8.627 -0.9783 -0.2750 -0.6989
  689MOL0     O92883   6.181  10.645   8.707  0.9032 -0.5490 -0.2652
  689MOL0     C92884   6.051  10.598   8.691 -0.1167 -0.2859 -0.1477
  689MOL0     C92885   6.008  10.473   8.641 -0.1276  0.8223  1.0860
  689MOL0     C92886   5.869  10.440   8.641  0.0877  0.4081  0.0778
  689MOL0     C92887   5.773  10.526   8.700 -0.5980 -0.7879  0.4009
  689MOL0     O92888   5.639  10.494   8.700 -0.1840  0.0951  0.3861
  689MOL0     C92889   5.538  10.600   8.684 -0.1639 -0.8831 -0.2361
  689MOL0     C92890   5.403  10.552   8.711  0.3504  1.0878 -0.6536
  689MOL0     C92891   5.300  10.663   8.689 -0.4776 -0.3376 -0.1136
  689MOL0     C92892   5.155  10.625   8.690 -0.3232 -0.0047 -0.4145
  689MOL0     C92893   5.077  10.749   8.653  0.8182  0.2014 -0.0491
  689MOL0     C92894   4.932  10.717   8.631 -1.1036 -0.1430  0.4263
  689MOL0     C92895   4.827  10.821   8.572  1.2613  0.9640  0.8692
  689MOL0     C92896   4.690  10.760   8.556 -0.1840  0.0179 -0.2852
  689MOL0     N92897   4.582  10.861   8.527  0.0576 -0.5440 -0.3274
  689MOL0     C92898   4.589  10.973   8.446  0.1446 -0.4475  0.1174
  689MOL0     C92899   4.468  11.033   8.449 -0.7792  0.2950 -1.9056
  689MOL0     C92900   4.420  11.147   8.375  0.2040 -0.5253  0.1532
  689MOL0     C92901   4.398  11.276   8.463 -0.3852  0.2817  0.6125
  689MOL0     C92902   4.296  11.253   8.583 -0.1640 -0.1633 -0.8417
  689MOL0     C92903   4.148  11.251   8.547 -0.1708 -0.1270  0.0360
  689MOL0     O92904   4.062  11.269   8.667 -0.5307  0.0345  0.3443
  689MOL0     C92905   3.922  11.265   8.646  0.3080  0.0330  0.1280
  689MOL0     C92906   3.857  11.229   8.528  0.2188 -0.1865  0.1872
  689MOL0     C92907   3.717  11.217   8.523  0.7896  0.7333 -1.0444
  689MOL0     C92908   3.665  11.182   8.384 -0.0664  0.2848 -0.9992
  689MOL0     C92909   3.633  11.252   8.629  0.6675  0.4580  0.1482
  689MOL0     C92910   3.483  11.244   8.629 -1.0027  0.7524 -0.0869
  689MOL0     O92911   3.428  11.291   8.750  0.2829 -0.4321  0.6454
  689MOL0     C92912   3.286  11.297   8.761  0.5618  0.2121  0.7618
  689MOL0     C92913   3.237  11.425   8.773 -0.2504  0.6885 -0.4950
  689MOL0     C92914   3.099  11.445   8.787 -0.1141  0.2380  0.3687
  689MOL0     C92915   3.013  11.350   8.771  0.0853  0.2691  0.2264
  689MOL0     O92916   2.877  11.386   8.779 -0.0052  0.3570 -0.0505
  689MOL0     C92917   2.788  11.322   8.679  0.2932 -0.0155 -0.2500
  689MOL0     C92918   2.641  11.383   8.676  1.3822 -0.1016  0.4141
  689MOL0     C92919   2.550  11.312   8.573 -0.1626  0.2083  0.3655
  689MOL0     C92920   2.407  11.348   8.583 -0.0580 -0.0279  0.2765
  689MOL0     C92921   2.315  11.281   8.483  0.0415  0.3578  0.0799
  689MOL0     C92922   2.173  11.331   8.503  0.3214 -0.2162 -0.6470
  689MOL0     C92923   2.118  11.297   8.642  0.3383 -0.0080  0.0259
  689MOL0     C92924   1.969  11.306   8.645  0.0690  0.1324  0.1154
  689MOL0    Cl92925   1.894  11.408   8.517  0.5856  0.4010 -0.0866
  689MOL0     C92926   3.059  11.221   8.758  0.1944  0.4189  0.2991
  689MOL0     C92927   3.192  11.192   8.753  0.4021  0.2413  0.0690
  689MOL0     O92928   3.420  11.189   8.538 -0.4609  0.3264 -0.6679
  689MOL0     C92929   3.696  11.294   8.753 -1.2568 -1.1689  0.2052
  689MOL0     C92930   3.837  11.297   8.760 -0.3900 -0.4400 -0.1688
  689MOL0     N92931   4.390  10.946   8.533  0.0477  0.9637 -0.3708
  689MOL0     N92932   4.455  10.850   8.578 -0.7201  0.6242  0.4237
  689MOL0     C92933   5.820  10.652   8.753  0.0081  0.1336 -0.6515
  689MOL0     C92934   5.955  10.685   8.751 -0.3759 -0.0815  1.0986
  689MOL0     C92935   6.411  10.582   8.704  0.1242 -0.1100 -0.2191
  689MOL0     C92936   6.428  10.667   8.811 -0.0451 -0.3721 -1.2326
  689MOL0     C92937   6.553  10.669   8.874 -0.0843 -1.3047 -0.8102
  689MOL0     C92938   6.651  10.573   8.841 -0.1285  0.8392  1.3042
  689MOL0     O92939   6.778  10.561   8.894  0.1265 -0.3461 -0.2144
  689MOL0     C92940   6.809  10.602   9.032  0.6590  0.4940  1.3936
  689MOL0     C92941   6.732  10.513   9.132  0.1506  0.2656 -0.1244
  689MOL0     C92942   6.753  10.556   9.279  0.7341 -0.5912  0.3991
  689MOL0     C92943   6.681  10.469   9.378  0.4980  0.3217 -0.2963
  689MOL0     C92944   6.539  10.469   9.356  0.6005 -0.9853 -0.0905
  689MOL0     C92945   6.419  10.474   9.342  0.2800  0.3506 -0.3040
  689MOL0     C92946   6.623  10.482   8.737  0.1248 -0.3923 -0.2693
  689MOL0     C92947   6.505  10.488   8.659 -0.2338 -0.2349 -0.1579
  689MOL0     H92948   6.073  10.404   8.589 -0.3349  2.5708 -1.7161
  689MOL0     H92949   5.833  10.348   8.595 -1.6104  0.3899  1.3486
  689MOL0     H92950   5.574  10.682   8.746 -0.7732  1.3097 -2.6177
  689MOL0     H92951   5.554  10.642   8.584  2.7569 -0.7659  0.1924
  689MOL0     H92952   5.372  10.480   8.635  3.9901  3.8072 -5.1930
  689MOL0     H92953   5.388  10.514   8.813 -0.2959  0.9555 -0.7900
  689MOL0     H92954   5.308  10.711   8.786  1.8711 -4.5573  2.0807
  689MOL0     H92955   5.322  10.728   8.604  0.2855  0.3739  0.6283
  689MOL0     H92956   5.132  10.542   8.622 -3.6863 -0.7948  1.4013
  689MOL0     H92957   5.133  10.593   8.793  4.2035  0.0261  0.7527
  689MOL0     H92958   5.084  10.815   8.740  0.7508 -2.2493  1.9538
  689MOL0     H92959   5.113  10.795   8.561  1.7269  0.5976  0.4981
  689MOL0     H92960   4.921  10.626   8.572 -1.1662 -0.7917  1.4300
  689MOL0     H92961   4.885  10.705   8.728 -0.4871 -2.3811  0.5002
  689MOL0     H92962   4.822  10.909   8.637 -1.1024  2.2362 -0.8592
  689MOL0     H92963   4.865  10.864   8.478 -0.5637  1.5384  0.3575
  689MOL0     H92964   4.675  10.719   8.656  0.3042  0.7281  0.0825
  689MOL0     H92965   4.699  10.685   8.477  1.5412  0.7072 -0.7884
  689MOL0     H92966   4.667  11.010   8.380  0.6102 -0.6643  0.5397
  689MOL0     H92967   4.482  11.173   8.288  2.5520  1.9525  2.3483
  689MOL0     H92968   4.323  11.120   8.332 -0.1135  0.6375  0.1019
  689MOL0     H92969   4.348  11.344   8.393  0.9018  1.0084  0.3667
  689MOL0     H92970   4.492  11.319   8.497  1.7479 -2.7340 -1.0233
  689MOL0     H92971   4.315  11.340   8.647  1.0889 -2.1967  1.7508
  689MOL0     H92972   4.322  11.159   8.632 -1.2896 -0.4747 -0.8105
  689MOL0     H92973   4.131  11.155   8.496  0.1237 -0.9799  1.4895
  689MOL0     H92974   4.118  11.336   8.485 -1.6088  0.5430  1.5734
  689MOL0     H92975   3.918  11.211   8.440  1.9025  0.7434  1.0951
  689MOL0     H92976   3.573  11.240   8.367 -2.6173 -3.2470 -0.3909
  689MOL0     H92977   3.739  11.211   8.309 -1.8587 -0.3083 -3.1155
  689MOL0     H92978   3.630  11.079   8.375  1.1224 -0.5616  2.4736
  689MOL0     H92979   3.313  11.501   8.786 -0.7290  0.5697  5.5257
  689MOL0     H92980   3.074  11.546   8.818  2.8546  1.4008 -0.6133
  689MOL0     H92981   2.827  11.352   8.581 -1.0105  1.5327 -0.3476
  689MOL0     H92982   2.778  11.214   8.682  1.5092 -0.1264  0.0881
  689MOL0     H92983   2.599  11.368   8.777  1.0690  2.2058  0.6643
  689MOL0     H92984   2.633  11.489   8.652 -0.0967 -0.4796 -0.9307
  689MOL0     H92985   2.552  11.202   8.581 -2.0334  0.2664  3.1966
  689MOL0     H92986   2.586  11.339   8.474  0.3545  3.0357  1.2400
  689MOL0     H92987   2.377  11.316   8.683  1.7146  0.1676  0.9025
  689MOL0     H92988   2.388  11.456   8.579 -4.4116 -0.6757 -2.4892
  689MOL0     H92989   2.313  11.172   8.495  0.6975  0.0615 -2.1306
  689MOL0     H92990   2.356  11.292   8.382 -0.5485 -2.5136 -0.5725
  689MOL0     H92991   2.169  11.440   8.491 -2.1513 -0.3736 -1.7293
  689MOL0     H92992   2.118  11.285   8.420  0.0778  1.1960 -1.2933
  689MOL0     H92993   2.160  11.367   8.714  1.9050 -1.5720  0.6846
  689MOL0     H92994   2.157  11.200   8.672  0.9708 -0.1418 -1.1416
  689MOL0     H92995   1.934  11.320   8.748  0.8431 -0.0741  0.4078
  689MOL0     H92996   1.937  11.202   8.634 -1.4682  0.0660  3.7848
  689MOL0     H92997   2.991  11.138   8.740  2.4959 -1.0057 -2.8385
  689MOL0     H92998   3.220  11.088   8.739 -1.6865 -0.2728 -0.6021
  689MOL0     H92999   3.655  11.343   8.841 -0.9771 -1.1631  0.3319
  689MOL0     H93000   3.876  11.324   8.858  1.7258  0.1683 -1.1101
  689MOL0     H93001   5.754  10.716   8.810 -1.0943 -0.9524 -0.6800
  689MOL0     H93002   5.996  10.781   8.781 -0.8524  0.4449  0.1388
  689MOL0     H93003   6.353  10.739   8.840 -0.1296 -0.0078 -2.3221
  689MOL0     H93004   6.570  10.744   8.951 -3.3335 -1.8984  0.6725
  689MOL0     H93005   6.916  10.595   9.053  1.4181  3.3701 -0.9218
  689MOL0     H93006   6.785  10.708   9.047 -0.2602  0.6027 -0.5696
  689MOL0     H93007   6.759  10.407   9.129  0.2826  0.2435  1.2142
  689MOL0     H93008   6.629  10.514   9.095  0.7297 -2.6299 -2.1424
  689MOL0     H93009   6.719  10.659   9.292 -0.3453 -1.1342  2.2633
  689MOL0     H93010   6.861  10.549   9.293  1.1764  0.1537 -2.2340
  689MOL0     H93011   6.702  10.510   9.477  0.8590 -1.9555  0.6375
  689MOL0     H93012   6.728  10.371   9.377  2.1793  1.0648  1.4454
  689MOL0     H93013   6.315  10.466   9.316 -0.5008  3.0954  1.5514
  689MOL0     H93014   6.697  10.409   8.709  0.4775  1.4026 -4.9530
  689MOL0     H93015   6.488  10.407   8.589  0.0109 -1.7115  1.4160
  690MOL0     O93016  10.876  10.158   3.682 -0.8126 -0.5146  0.3434
  690MOL0     C93017  10.882  10.037   3.697  0.7673  0.0231 -0.5217
  690MOL0     O93018  10.768   9.953   3.691  0.8324  0.1395 -0.7500
  690MOL0     C93019  10.647  10.022   3.673  0.4237  0.1695  0.1342
  690MOL0     C93020  10.578   9.975   3.556  0.8298 -0.0826 -0.0567
  690MOL0     C93021  10.464  10.048   3.512 -0.4350 -0.0591  0.9234
  690MOL0     C93022  10.412  10.158   3.582 -0.0419 -0.2080  0.9549
  690MOL0     O93023  10.324  10.247   3.531 -0.0593 -0.2855  0.2026
  690MOL0     C93024  10.193  10.191   3.527 -0.0391  0.7776 -0.9553
  690MOL0     C93025  10.083  10.285   3.491  0.2972 -0.2950 -0.6061
  690MOL0     C93026  10.089  10.411   3.576 -0.2684  0.7167  1.0336
  690MOL0     C93027  10.000  10.518   3.506 -0.2585 -0.4666 -1.3571
  690MOL0     C93028   9.980  10.644   3.594 -0.6050  0.1553  0.4892
  690MOL0     C93029   9.897  10.747   3.513 -0.2216 -0.1916  0.4166
  690MOL0     C93030   9.901  10.874   3.591  0.0914 -0.5072 -0.6322
  690MOL0     C93031   9.796  10.972   3.545 -0.4306 -0.1429 -0.2027
  690MOL0     N93032   9.825  11.026   3.412  0.0643 -0.5529 -0.3326
  690MOL0     C93033   9.834  11.162   3.386  0.7991 -0.4868  0.4378
  690MOL0     C93034   9.835  11.168   3.249 -0.3520  0.8860  0.2191
  690MOL0     C93035   9.841  11.289   3.156  0.2783 -0.3200 -0.8621
  690MOL0     C93036   9.706  11.350   3.108  0.2173 -0.2470 -0.2331
  690MOL0     C93037   9.616  11.392   3.216 -0.0637 -0.0006  0.1986
  690MOL0     C93038   9.478  11.451   3.170  0.2187  0.0519  0.3401
  690MOL0     O93039   9.425  11.362   3.067  0.0198  0.1224  0.9396
  690MOL0     C93040   9.311  11.411   3.012 -0.6623  0.0891 -0.3303
  690MOL0     C93041   9.186  11.348   3.040 -0.4893  0.1510  0.2359
  690MOL0     C93042   9.065  11.411   3.011 -0.3347 -0.0048  0.0119
  690MOL0     C93043   8.951  11.324   3.043  0.8111 -0.1320  0.6142
  690MOL0     C93044   9.069  11.545   2.962 -1.0602 -0.1296  0.3446
  690MOL0     C93045   8.949  11.623   2.944  0.1297  0.0843 -0.3208
  690MOL0     O93046   8.846  11.620   3.039 -0.6892 -0.0450 -0.3291
  690MOL0     C93047   8.725  11.685   3.018 -0.3858 -0.2259  0.2990
  690MOL0     C93048   8.605  11.614   3.052 -1.0513 -0.0947  0.1374
  690MOL0     C93049   8.478  11.656   3.009 -0.3077  0.1623  0.8397
  690MOL0     C93050   8.462  11.777   2.936  0.1849  0.3075  0.6266
  690MOL0     O93051   8.334  11.809   2.901  0.3448  0.3043  0.5155
  690MOL0     C93052   8.289  11.938   2.930  0.5903 -0.1706 -0.0616
  690MOL0     C93053   8.149  11.968   2.868  0.6239 -0.2781  0.1861
  690MOL0     C93054   8.113  12.116   2.890 -0.3968  0.8310 -0.2386
  690MOL0     C93055   8.052  12.135   3.031  0.2847 -0.8544 -0.4594
  690MOL0     C93056   8.027  12.280   3.067  0.3892  0.8801 -0.3853
  690MOL0     C93057   7.973  12.299   3.207 -0.0589  0.3112 -0.5218
  690MOL0     C93058   7.953  12.448   3.244 -0.8971  0.3821  0.7825
  690MOL0     C93059   7.942  12.462   3.382  0.0865  0.5379 -0.0435
  690MOL0    Cl93060   7.944  12.629   3.443 -0.0095  0.5562  0.0514
  690MOL0     C93061   8.573  11.860   2.918  0.2115  0.0787 -0.1685
  690MOL0     C93062   8.701  11.809   2.963  0.2425 -1.0082 -0.0924
  690MOL0     O93063   8.945  11.696   2.844 -0.3060  0.5649 -0.1338
  690MOL0     C93064   9.196  11.602   2.927  0.9873  0.1482 -0.1026
  690MOL0     C93065   9.315  11.531   2.949  0.1111 -0.1402  0.7459
  690MOL0     N93066   9.816  11.038   3.201  0.1320 -0.6885 -0.8419
  690MOL0     N93067   9.817  10.953   3.300 -0.0727 -0.3024  0.1510
  690MOL0     C93068  10.475  10.192   3.705  0.0499 -0.3066 -0.0879
  690MOL0     C93069  10.590  10.121   3.751 -0.3394  0.7182  0.0674
  690MOL0     C93070  11.004   9.960   3.690  0.3415 -0.4100  0.6944
  690MOL0     C93071  11.118  10.019   3.621  0.2151 -0.6482  0.5172
  690MOL0     C93072  11.237   9.954   3.600  0.1527  0.1689 -0.7417
  690MOL0     C93073  11.255   9.819   3.633 -0.0612 -0.2467  0.0707
  690MOL0     O93074  11.366   9.744   3.617 -0.0879 -0.1799 -0.6377
  690MOL0     C93075  11.485   9.812   3.566 -0.0754 -0.7622 -1.2223
  690MOL0     C93076  11.482   9.812   3.414  0.4818  0.7006  0.1050
  690MOL0     C93077  11.596   9.888   3.354  0.1885  0.0018 -0.9985
  690MOL0     C93078  11.737   9.848   3.406  0.5929  0.5326  1.1276
  690MOL0     C93079  11.745   9.702   3.385  0.4624 -0.4421 -0.9511
  690MOL0     C93080  11.767   9.582   3.361  0.7465 -0.2007 -0.2539
  690MOL0     C93081  11.146   9.756   3.696  0.4480  0.2385 -0.3058
  690MOL0     C93082  11.018   9.822   3.716 -0.0790 -0.3870 -0.4993
  690MOL0     H93083  10.630   9.909   3.487 -1.4772 -0.3542 -1.6590
  690MOL0     H93084  10.416  10.036   3.416  0.9941  0.8562  0.0552
  690MOL0     H93085  10.200  10.124   3.440  2.5799  1.2840 -1.2320
  690MOL0     H93086  10.167  10.130   3.614 -1.4420  0.8899 -1.2785
  690MOL0     H93087  10.100  10.315   3.387 -0.7133 -0.0005 -0.6986
  690MOL0     H93088   9.993  10.225   3.509  0.4073  0.3658  2.7033
  690MOL0     H93089  10.063  10.384   3.678 -1.2962 -2.3039  0.0914
  690MOL0     H93090  10.192  10.446   3.575 -0.0871  0.3328 -1.3501
  690MOL0     H93091  10.070  10.544   3.426  0.6191 -0.7655 -0.6991
  690MOL0     H93092   9.901  10.486   3.472 -1.7683 -0.3738  2.5147
  690MOL0     H93093   9.914  10.625   3.680 -0.0700  0.1506  0.9088
  690MOL0     H93094  10.078  10.683   3.624 -0.2428 -0.5185  0.1935
  690MOL0     H93095   9.952  10.750   3.418  1.9170 -0.9935  1.5665
  690MOL0     H93096   9.796  10.710   3.496  0.3674 -2.8289  2.1340
  690MOL0     H93097   9.878  10.852   3.695 -0.6573 -0.3070 -0.7523
  690MOL0     H93098   9.999  10.922   3.584  0.5166 -0.7814  2.2497
  690MOL0     H93099   9.799  11.057   3.613  0.8845 -0.7943  0.6064
  690MOL0     H93100   9.698  10.924   3.548  0.3358 -1.8959  3.7217
  690MOL0     H93101   9.830  11.242   3.459 -1.9066  0.2811 -0.4562
  690MOL0     H93102   9.905  11.367   3.199 -0.1794 -1.0668  1.3092
  690MOL0     H93103   9.887  11.248   3.066 -0.0094 -1.7759 -0.3635
  690MOL0     H93104   9.663  11.276   3.039  1.2788 -0.7567 -0.3651
  690MOL0     H93105   9.715  11.440   3.047  1.2170 -0.9605 -1.1886
  690MOL0     H93106   9.665  11.461   3.285  0.3227 -0.9107  0.8592
  690MOL0     H93107   9.596  11.309   3.286 -0.2059  0.6636  0.9608
  690MOL0     H93108   9.496  11.550   3.127  3.9429  0.0692  1.5409
  690MOL0     H93109   9.406  11.471   3.249 -2.1469  3.0798 -2.3306
  690MOL0     H93110   9.178  11.253   3.092 -1.0044  0.6863  1.1745
  690MOL0     H93111   8.971  11.219   3.068 -2.0484 -1.6439 -2.5795
  690MOL0     H93112   8.895  11.352   3.133 -0.3812  0.3673 -0.2524
  690MOL0     H93113   8.877  11.314   2.963  3.6013 -2.0997 -1.9574
  690MOL0     H93114   8.613  11.517   3.100  0.9375  0.1447  0.3949
  690MOL0     H93115   8.383  11.613   3.041 -2.7211  4.1359 -0.3269
  690MOL0     H93116   8.280  11.960   3.036 -1.9050  0.0875 -0.2692
  690MOL0     H93117   8.362  12.005   2.884 -2.6805  1.3970 -3.5961
  690MOL0     H93118   8.157  11.950   2.760 -1.1273 -1.1367  0.1616
  690MOL0     H93119   8.068  11.908   2.911 -0.3711  0.6381 -0.3479
  690MOL0     H93120   8.040  12.142   2.812 -2.1702 -0.4475  0.9296
  690MOL0     H93121   8.209  12.168   2.882  1.1928 -1.2754  3.0715
  690MOL0     H93122   7.955  12.084   3.026 -0.5054  0.6514 -0.8988
  690MOL0     H93123   8.118  12.093   3.107 -0.8319 -0.9055  0.5196
  690MOL0     H93124   7.956  12.325   2.997 -1.8270  1.6229  2.1472
  690MOL0     H93125   8.119  12.338   3.059  0.0788  1.4643  0.1667
  690MOL0     H93126   7.875  12.254   3.225  1.3451 -2.7939  0.1165
  690MOL0     H93127   8.044  12.257   3.279 -1.4474  0.2791  0.8933
  690MOL0     H93128   7.868  12.498   3.198 -0.2366  2.4408  1.6749
  690MOL0     H93129   8.039  12.500   3.201 -0.6823  0.7418  1.6309
  690MOL0     H93130   8.017  12.400   3.432 -0.3933 -3.0795 -3.3923
  690MOL0     H93131   7.844  12.423   3.408 -0.2095  1.5618  0.4570
  690MOL0     H93132   8.566  11.958   2.872  1.0440 -0.3094 -1.1684
  690MOL0     H93133   8.786  11.873   2.946  0.3524 -1.2675 -0.5477
  690MOL0     H93134   9.188  11.700   2.883 -0.4701  0.4068  0.6875
  690MOL0     H93135   9.411  11.578   2.929  0.2206 -1.2512 -1.7530
  690MOL0     H93136  10.432  10.270   3.766 -1.0370 -2.0825  1.5301
  690MOL0     H93137  10.650  10.164   3.831 -0.5622  2.2756 -0.5648
  690MOL0     H93138  11.105  10.117   3.578  1.9919 -0.9920 -0.9193
  690MOL0     H93139  11.313  10.006   3.544  0.3012  1.2606  0.4283
  690MOL0     H93140  11.491   9.920   3.586 -1.9700 -0.6901 -0.8958
  690MOL0     H93141  11.566   9.757   3.614 -0.9138  0.5205  1.8730
  690MOL0     H93142  11.387   9.854   3.380 -0.0867  0.5629  1.4573
  690MOL0     H93143  11.488   9.710   3.376  0.8048  0.7355  0.0576
  690MOL0     H93144  11.580   9.993   3.382  2.2710 -0.2839  1.7856
  690MOL0     H93145  11.592   9.876   3.246 -4.0143  0.1058 -1.0132
  690MOL0     H93146  11.740   9.863   3.514 -1.0443  0.1113  1.2498
  690MOL0     H93147  11.816   9.907   3.359 -1.1525  1.6075 -0.6027
  690MOL0     H93148  11.782   9.479   3.337 -2.9428 -1.1454  0.8774
  690MOL0     H93149  11.153   9.652   3.725  0.4050  0.1634 -0.5652
  690MOL0     H93150  10.937   9.764   3.760  0.4282  0.2325  1.3752
  691MOL0     O93151   7.498   5.456   7.309  0.8085 -0.0105 -0.2511
  691MOL0     C93152   7.565   5.389   7.393 -0.1271  0.5917 -1.5656
  691MOL0     O93153   7.517   5.278   7.458 -0.0468 -0.1095 -0.1701
  691MOL0     C93154   7.396   5.235   7.425  0.6849 -0.4494 -0.6093
  691MOL0     C93155   7.384   5.117   7.356  0.3323  0.6437  0.9706
  691MOL0     C93156   7.267   5.059   7.328  0.3044  0.2015 -0.2232
  691MOL0     C93157   7.147   5.119   7.362  0.1475  0.7095  0.1312
  691MOL0     O93158   7.017   5.058   7.351  0.0799 -0.2610  0.8777
  691MOL0     C93159   6.999   4.929   7.292  0.5777 -0.1975  0.3345
  691MOL0     C93160   6.857   4.884   7.306  0.2249 -0.1500  0.3779
  691MOL0     C93161   6.798   4.889   7.448 -0.2375  0.1376 -0.6756
  691MOL0     C93162   6.653   4.851   7.441  0.3524  0.6887 -0.4767
  691MOL0     C93163   6.592   4.850   7.582 -0.7817 -0.7023  0.7621
  691MOL0     C93164   6.442   4.827   7.576  0.0511  0.5107  0.4700
  691MOL0     C93165   6.381   4.788   7.710  0.2875  0.2954  0.4507
  691MOL0     C93166   6.380   4.906   7.815 -0.4068  0.7561  0.1079
  691MOL0     N93167   6.488   4.879   7.911  0.4495 -0.5359  0.1811
  691MOL0     C93168   6.610   4.938   7.901 -0.1149  0.0357  0.9944
  691MOL0     C93169   6.685   4.885   7.996  0.1387 -0.2503  0.4104
  691MOL0     C93170   6.825   4.930   8.027  0.5583  0.2480  0.3649
  691MOL0     C93171   6.876   4.890   8.161 -0.9052  0.4879  0.1442
  691MOL0     C93172   7.015   4.949   8.191  0.2830 -0.4836 -0.0102
  691MOL0     C93173   7.071   4.928   8.328  0.7052 -0.0764 -0.4276
  691MOL0     O93174   7.204   4.976   8.334  0.1629  0.1273  0.3639
  691MOL0     C93175   7.287   4.953   8.443  0.0022  0.9157  0.6055
  691MOL0     C93176   7.229   4.951   8.575  0.4161  0.3171  0.1518
  691MOL0     C93177   7.305   4.906   8.685 -0.1835 -0.4107 -0.7035
  691MOL0     C93178   7.254   4.919   8.818 -0.2114 -0.2866  0.7529
  691MOL0     C93179   7.442   4.882   8.664  0.4470 -0.2789 -0.9466
  691MOL0     C93180   7.538   4.855   8.783 -0.1072 -0.2688 -0.3696
  691MOL0     O93181   7.660   4.924   8.788  0.3340 -0.1858 -0.2055
  691MOL0     C93182   7.739   4.920   8.899 -0.3483 -0.5380  0.3133
  691MOL0     C93183   7.879   4.931   8.872  0.3960 -0.8264  0.4915
  691MOL0     C93184   7.965   4.957   8.980 -0.1634  0.1863 -0.3931
  691MOL0     C93185   7.923   4.968   9.110 -0.1984  0.2374  0.0115
  691MOL0     O93186   7.989   5.007   9.225  0.6390  0.2093  0.6171
  691MOL0     C93187   8.132   4.994   9.226  0.8547  0.0224 -0.0717
  691MOL0     C93188   8.209   5.006   9.359  0.4389  0.7162  0.1115
  691MOL0     C93189   8.262   5.151   9.384  0.0721  0.5012 -0.6733
  691MOL0     C93190   8.375   5.199   9.290  0.0174 -0.6871 -0.4184
  691MOL0     C93191   8.456   5.324   9.329 -0.2203  0.4741 -0.7186
  691MOL0     C93192   8.526   5.374   9.206  0.7927  0.2587  0.1126
  691MOL0     C93193   8.624   5.489   9.238  0.6554  0.6828  0.0712
  691MOL0     C93194   8.728   5.524   9.139 -0.4759  0.2337  0.5918
  691MOL0    Cl93195   8.853   5.638   9.216  0.0204  0.3715 -0.0508
  691MOL0     C93196   7.793   4.934   9.137 -0.3681  0.1942 -0.5231
  691MOL0     C93197   7.696   4.915   9.031 -0.0626 -0.1851 -0.4963
  691MOL0     O93198   7.500   4.783   8.874 -0.4254  0.2701 -0.1947
  691MOL0     C93199   7.500   4.895   8.539  0.6948  0.5111  0.8348
  691MOL0     C93200   7.422   4.929   8.427  0.0197  0.0421 -0.3063
  691MOL0     N93201   6.625   4.774   8.052  0.6478 -0.0648  0.1471
  691MOL0     N93202   6.507   4.775   8.002  0.1523  0.6906  0.7582
  691MOL0     C93203   7.145   5.246   7.412 -0.7720  0.2833  0.4300
  691MOL0     C93204   7.273   5.306   7.450  0.4831 -0.5420  0.7245
  691MOL0     C93205   7.710   5.414   7.415  0.3444 -0.7065  0.6736
  691MOL0     C93206   7.767   5.536   7.357  0.0078  0.5439  0.5630
  691MOL0     C93207   7.914   5.555   7.368 -0.3431  0.2270  0.2779
  691MOL0     C93208   7.986   5.468   7.450 -0.0736 -0.4206 -0.2554
  691MOL0     O93209   8.121   5.491   7.476 -0.5886  0.2361  0.7423
  691MOL0     C93210   8.200   5.568   7.382  0.3300 -0.6188  1.1082
  691MOL0     C93211   8.345   5.541   7.413  0.7231  0.0899  0.0877
  691MOL0     C93212   8.431   5.641   7.335  0.3627 -1.0664  0.1062
  691MOL0     C93213   8.563   5.684   7.403 -0.1397  0.2952 -0.5051
  691MOL0     C93214   8.657   5.577   7.364  0.5056 -0.2864  0.2338
  691MOL0     C93215   8.722   5.484   7.330  0.5123  0.1897  0.1085
  691MOL0     C93216   7.927   5.358   7.510  0.6414  0.1776 -0.2455
  691MOL0     C93217   7.791   5.332   7.500 -0.1851 -0.1816 -0.0594
  691MOL0     H93218   7.476   5.063   7.336 -1.5364 -1.3125 -3.6465
  691MOL0     H93219   7.275   4.963   7.278  0.3933  0.1937 -0.1950
  691MOL0     H93220   7.033   4.926   7.188 -1.9131 -1.1888 -0.5561
  691MOL0     H93221   7.057   4.860   7.354  0.4822  0.0913  0.7464
  691MOL0     H93222   6.796   4.945   7.238 -0.5352 -1.5267 -0.2064
  691MOL0     H93223   6.852   4.781   7.269  0.5249 -0.6574  1.7054
  691MOL0     H93224   6.847   4.812   7.509 -0.1854 -1.5649 -2.7655
  691MOL0     H93225   6.809   4.991   7.488 -0.4522  0.0239 -0.3248
  691MOL0     H93226   6.594   4.918   7.378  2.5734  0.4411 -2.9847
  691MOL0     H93227   6.651   4.747   7.409  2.3481  0.4604  0.0007
  691MOL0     H93228   6.646   4.777   7.642 -0.1709 -0.5305  0.4288
  691MOL0     H93229   6.608   4.946   7.634  0.2408  0.4169 -1.4877
  691MOL0     H93230   6.389   4.911   7.531  1.1931  1.4686  0.8602
  691MOL0     H93231   6.417   4.747   7.505 -0.9579  1.2598 -0.0537
  691MOL0     H93232   6.282   4.745   7.692  0.4529 -0.2274  0.7585
  691MOL0     H93233   6.441   4.705   7.747 -0.3853 -0.4911 -0.1845
  691MOL0     H93234   6.295   4.898   7.882 -1.3145 -0.5485 -1.1311
  691MOL0     H93235   6.384   5.010   7.779 -1.0296  1.4211  1.8484
  691MOL0     H93236   6.631   5.010   7.823 -0.2057  1.6651  2.4074
  691MOL0     H93237   6.883   4.893   7.942 -0.1599  2.0541 -0.9603
  691MOL0     H93238   6.839   5.038   8.020  2.8922 -0.0576 -0.8362
  691MOL0     H93239   6.895   4.783   8.165  0.6543  0.7596  1.0290
  691MOL0     H93240   6.807   4.905   8.246 -0.8238 -0.6929  0.4325
  691MOL0     H93241   7.020   5.055   8.164  0.6263  0.6384  3.8540
  691MOL0     H93242   7.086   4.903   8.122 -0.9580 -1.5734 -0.5986
  691MOL0     H93243   7.074   4.821   8.350 -1.9223  0.2850  2.3822
  691MOL0     H93244   7.005   4.976   8.402 -0.0909  0.1916 -1.2908
  691MOL0     H93245   7.126   4.980   8.593 -0.7370 -2.2547 -1.7598
  691MOL0     H93246   7.327   4.970   8.882 -0.3241 -0.2028  0.8157
  691MOL0     H93247   7.161   4.976   8.823 -3.5007 -4.8442 -1.2730
  691MOL0     H93248   7.244   4.819   8.861  2.4141 -1.5657 -1.2883
  691MOL0     H93249   7.929   4.936   8.776  2.8664  0.0411  1.7082
  691MOL0     H93250   8.073   4.960   8.965 -0.1751  0.1820 -0.4728
  691MOL0     H93251   8.149   4.900   9.174 -1.7266 -0.1586 -0.6984
  691MOL0     H93252   8.178   5.075   9.168  0.3689  2.0569  2.2170
  691MOL0     H93253   8.133   4.993   9.437  0.8777  1.4173  0.6635
  691MOL0     H93254   8.289   4.932   9.352  0.5133  0.9562 -3.6821
  691MOL0     H93255   8.296   5.166   9.487 -1.1258  1.3349 -0.3746
  691MOL0     H93256   8.177   5.219   9.376 -0.6414 -0.1175  1.0569
  691MOL0     H93257   8.447   5.117   9.278  1.0871  0.2194 -0.4032
  691MOL0     H93258   8.330   5.214   9.192 -0.3643 -2.1186 -0.4854
  691MOL0     H93259   8.534   5.294   9.400  1.4764 -1.2813 -3.1504
  691MOL0     H93260   8.387   5.396   9.373  2.7665  1.0900  3.6783
  691MOL0     H93261   8.585   5.286   9.181  1.1564 -0.2093  2.4171
  691MOL0     H93262   8.451   5.399   9.130 -0.0758 -3.9970 -0.7047
  691MOL0     H93263   8.687   5.458   9.323 -1.5337 -0.9755  1.1813
  691MOL0     H93264   8.567   5.577   9.268  0.4665 -0.0573  2.1081
  691MOL0     H93265   8.680   5.584   9.061 -3.2740  0.8919  2.6181
  691MOL0     H93266   8.778   5.442   9.088 -2.2710  0.2882 -1.3988
  691MOL0     H93267   7.760   4.946   9.239 -0.9987 -0.6950 -0.6118
  691MOL0     H93268   7.591   4.916   9.059  0.2159 -0.9151  0.6255
  691MOL0     H93269   7.606   4.891   8.518  1.1457  0.7119  2.8170
  691MOL0     H93270   7.470   4.921   8.330  1.9059  1.4462  0.4469
  691MOL0     H93271   7.057   5.295   7.450  0.0893  0.6964  1.9794
  691MOL0     H93272   7.268   5.407   7.489 -0.5862  0.0265 -0.8097
  691MOL0     H93273   7.711   5.602   7.292 -1.6453  0.1219  1.5079
  691MOL0     H93274   7.968   5.641   7.329  1.5726 -0.9734  0.1407
  691MOL0     H93275   8.179   5.543   7.278  1.1655  3.1623 -0.1273
  691MOL0     H93276   8.180   5.675   7.387  0.1257 -0.2063 -3.8762
  691MOL0     H93277   8.363   5.436   7.385 -0.3001  0.0531 -0.5024
  691MOL0     H93278   8.366   5.553   7.519  0.0022  1.7838  0.0621
  691MOL0     H93279   8.382   5.733   7.302 -0.6749 -1.1735  1.2685
  691MOL0     H93280   8.458   5.599   7.237 -0.3571 -1.2890 -0.0019
  691MOL0     H93281   8.557   5.718   7.506  0.7793  0.8215 -0.6119
  691MOL0     H93282   8.596   5.769   7.343 -0.0033 -2.3712 -4.6823
  691MOL0     H93283   8.785   5.398   7.324 -0.5584 -0.5777 -0.4055
  691MOL0     H93284   7.973   5.288   7.579  0.3334  1.7886  1.6815
  691MOL0     H93285   7.744   5.256   7.561  0.4386 -2.2005 -1.9630
  692MOL0     O93286  10.588   3.850   2.689  0.2423  0.1335  0.0563
  692MOL0     C93287  10.494   3.934   2.673  0.8242  0.4596 -0.1778
  692MOL0     O93288  10.372   3.909   2.612  0.1305  0.2613  0.1574
  692MOL0     C93289  10.356   3.779   2.566 -0.0933  0.6153 -0.8038
  692MOL0     C93290  10.351   3.659   2.647 -0.0158  0.3394  0.5740
  692MOL0     C93291  10.348   3.529   2.594 -0.4814  0.3054 -0.4652
  692MOL0     C93292  10.350   3.513   2.458  0.2228  0.4241 -0.1989
  692MOL0     O93293  10.347   3.381   2.415  0.1411  0.8379  0.4917
  692MOL0     C93294  10.326   3.350   2.278  1.1480  0.4224 -0.6333
  692MOL0     C93295  10.172   3.360   2.245  0.1124 -0.1513  0.7927
  692MOL0     C93296  10.088   3.248   2.326 -0.2141 -0.9557  0.1157
  692MOL0     C93297  10.057   3.288   2.474  0.3209  0.4774  0.2947
  692MOL0     C93298   9.919   3.367   2.465 -0.2979  0.5008 -0.0346
  692MOL0     C93299   9.854   3.404   2.609  0.3304  0.1827 -0.2671
  692MOL0     C93300   9.943   3.506   2.690 -0.1178  0.3382 -0.0158
  692MOL0     C93301   9.933   3.464   2.840 -0.5655 -0.0843  0.0045
  692MOL0     N93302  10.042   3.541   2.904  0.0401  0.1988  0.4033
  692MOL0     C93303  10.058   3.674   2.898 -0.5650 -0.6215  0.7591
  692MOL0     C93304  10.152   3.702   2.985  0.4497 -0.0991  1.1951
  692MOL0     C93305  10.190   3.843   3.000  0.2516  0.1698 -0.1441
  692MOL0     C93306  10.346   3.860   2.985 -0.8659 -0.1704 -0.0633
  692MOL0     C93307  10.414   3.789   3.101  0.2663  1.0121 -0.4899
  692MOL0     C93308  10.568   3.819   3.090 -0.0136  0.3547  0.0444
  692MOL0     O93309  10.593   3.959   3.076 -0.2561 -0.4194  0.7681
  692MOL0     C93310  10.711   4.013   3.036  0.2849  0.6042 -0.1986
  692MOL0     C93311  10.811   3.931   2.976  0.0730 -0.9575  0.2399
  692MOL0     C93312  10.936   3.987   2.950  0.1637  0.3227  0.5797
  692MOL0     C93313  11.038   3.879   2.914 -0.3266  0.2414  0.5039
  692MOL0     C93314  10.947   4.129   2.968 -0.5780 -0.1299 -0.5502
  692MOL0     C93315  11.083   4.198   2.960  0.2219 -0.2518  0.2704
  692MOL0     O93316  11.078   4.335   2.997  0.1801  0.6115 -0.0783
  692MOL0     C93317  11.192   4.405   2.959 -0.2318 -0.1956  0.7601
  692MOL0     C93318  11.175   4.516   2.881  0.5460 -0.3465 -0.2675
  692MOL0     C93319  11.279   4.608   2.853 -0.0495 -0.4348 -0.1448
  692MOL0     C93320  11.412   4.581   2.901 -0.5997  0.0096 -0.1909
  692MOL0     O93321  11.513   4.667   2.872 -0.0307  0.0494  0.1006
  692MOL0     C93322  11.641   4.610   2.909 -0.6111  0.0279  0.3892
  692MOL0     C93323  11.757   4.705   2.863 -0.2561  1.2979  0.1118
  692MOL0     C93324  11.789   4.805   2.971 -0.0884 -0.0070  0.0424
  692MOL0     C93325  11.907   4.908   2.920  0.0058  0.2733  0.1631
  692MOL0     C93326  11.985   4.975   3.037  0.4441 -1.9612  0.3911
  692MOL0     C93327  11.897   5.079   3.102  0.9961 -0.9204 -0.0045
  692MOL0     C93328  11.900   5.219   3.046 -0.0294  0.2928  0.2574
  692MOL0     C93329  12.033   5.289   3.090  0.3635 -0.0590  0.2986
  692MOL0    Cl93330  12.031   5.324   3.258  0.0458 -0.2148 -0.1590
  692MOL0     C93331  11.430   4.456   2.974 -0.1656 -0.1597  0.0772
  692MOL0     C93332  11.326   4.374   3.010  0.5668 -0.4523 -0.2965
  692MOL0     O93333  11.188   4.146   2.913 -0.6201 -0.5318 -0.6084
  692MOL0     C93334  10.836   4.214   3.007  0.0438  0.7010  0.5734
  692MOL0     C93335  10.722   4.149   3.047  0.3776 -0.5084  0.7687
  692MOL0     N93336  10.179   3.590   3.061  0.7857 -0.0673 -0.4823
  692MOL0     N93337  10.115   3.490   3.011  0.0137  0.1099 -0.1145
  692MOL0     C93338  10.357   3.619   2.370 -0.6422 -0.8070  0.1255
  692MOL0     C93339  10.350   3.752   2.422 -0.5108 -0.2041  0.1961
  692MOL0     C93340  10.496   4.077   2.712  0.0060  0.1873 -0.2073
  692MOL0     C93341  10.386   4.157   2.726  0.7316  0.1477 -0.6418
  692MOL0     C93342  10.388   4.293   2.759  0.6864  0.6815  0.6413
  692MOL0     C93343  10.513   4.351   2.775 -0.2480  0.3087 -0.2963
  692MOL0     O93344  10.540   4.475   2.796 -0.0512 -0.7131 -0.5445
  692MOL0     C93345  10.456   4.561   2.869  0.8441 -0.0796 -1.1141
  692MOL0     C93346  10.539   4.626   2.973  0.4701  0.0980 -0.0919
  692MOL0     C93347  10.549   4.564   3.111  0.3320 -0.3325  0.0315
  692MOL0     C93348  10.645   4.632   3.203  0.8807 -0.7235  0.3042
  692MOL0     C93349  10.779   4.613   3.146  0.5073  0.1515 -0.2329
  692MOL0     C93350  10.881   4.621   3.094  0.7135  0.5120 -0.3057
  692MOL0     C93351  10.624   4.270   2.762  0.2077  0.0826 -0.7153
  692MOL0     C93352  10.622   4.136   2.738  0.3715 -0.3962 -0.2771
  692MOL0     H93353  10.354   3.670   2.755 -4.9057 -3.3625  1.4471
  692MOL0     H93354  10.351   3.445   2.663  1.3828 -0.6962 -1.6698
  692MOL0     H93355  10.389   3.410   2.211 -0.8250  1.4756 -1.6283
  692MOL0     H93356  10.359   3.246   2.275  2.1035  0.5800  1.8759
  692MOL0     H93357  10.142   3.465   2.259  1.9293  0.6641 -0.8920
  692MOL0     H93358  10.166   3.350   2.136  0.0132  0.9659  0.6800
  692MOL0     H93359   9.993   3.232   2.275  0.1813  1.7094 -1.6769
  692MOL0     H93360  10.147   3.156   2.332  4.6568  1.8119 -0.3636
  692MOL0     H93361  10.028   3.197   2.526 -2.1696  0.4181 -1.0376
  692MOL0     H93362  10.137   3.342   2.525  0.5360  1.6732 -1.2155
  692MOL0     H93363   9.926   3.456   2.401  1.3576  1.7666  1.7826
  692MOL0     H93364   9.849   3.304   2.409  0.2953  1.6021 -2.1681
  692MOL0     H93365   9.757   3.455   2.606  0.1966  0.0154  0.9041
  692MOL0     H93366   9.832   3.318   2.673 -0.3450  3.1611  3.9154
  692MOL0     H93367  10.050   3.503   2.670  0.6583 -3.3462  3.3483
  692MOL0     H93368   9.899   3.605   2.680 -5.7595 -1.6588  1.0820
  692MOL0     H93369   9.950   3.357   2.853 -1.5326 -0.1841  0.5395
  692MOL0     H93370   9.840   3.499   2.886 -0.2525  0.4012  0.2802
  692MOL0     H93371  10.000   3.742   2.836  1.1148 -0.9500 -1.3096
  692MOL0     H93372  10.147   3.900   2.917 -1.3855 -3.0954 -1.6992
  692MOL0     H93373  10.150   3.871   3.097 -1.4015 -0.4403 -0.6282
  692MOL0     H93374  10.372   3.966   2.982  1.9367 -0.8051 -0.2743
  692MOL0     H93375  10.372   3.804   2.894 -2.8461 -1.1666 -0.0788
  692MOL0     H93376  10.413   3.680   3.111 -0.8069  0.9144 -1.4278
  692MOL0     H93377  10.379   3.819   3.200 -0.8090 -3.2862  0.6424
  692MOL0     H93378  10.616   3.762   3.009 -0.5475  0.1606 -0.1404
  692MOL0     H93379  10.627   3.790   3.178  0.4941  1.2575  0.0045
  692MOL0     H93380  10.801   3.823   2.971 -1.7084 -0.8379  0.4388
  692MOL0     H93381  11.114   3.916   2.844  1.8557 -0.8274  2.1900
  692MOL0     H93382  11.096   3.855   3.003  1.0885 -0.6820 -0.6143
  692MOL0     H93383  11.000   3.783   2.877  2.3508 -0.5288 -0.5434
  692MOL0     H93384  11.075   4.524   2.839  1.3420  0.6371 -2.1137
  692MOL0     H93385  11.240   4.695   2.801 -1.8191 -0.3537  1.2035
  692MOL0     H93386  11.648   4.582   3.014 -4.6765  1.1241  1.0977
  692MOL0     H93387  11.655   4.515   2.856 -0.3959  0.3864 -0.2170
  692MOL0     H93388  11.847   4.644   2.858  1.1012  3.2205 -0.0662
  692MOL0     H93389  11.743   4.756   2.767  0.5055 -0.3396 -0.9245
  692MOL0     H93390  11.806   4.756   3.067  0.6228 -0.6278 -0.3948
  692MOL0     H93391  11.700   4.868   2.985 -0.7646  0.0580 -3.6785
  692MOL0     H93392  11.982   4.866   2.852 -1.7160 -2.2484 -0.3233
  692MOL0     H93393  11.861   4.984   2.856  1.2345  1.3208  0.4839
  692MOL0     H93394  12.082   5.008   2.999 -0.6303  0.2922 -0.6078
  692MOL0     H93395  12.012   4.894   3.104  2.6203 -2.0894 -0.5431
  692MOL0     H93396  11.791   5.053   3.099  0.4286  1.1851  0.1292
  692MOL0     H93397  11.926   5.092   3.207  0.8132 -0.9349  0.0478
  692MOL0     H93398  11.821   5.277   3.096  0.3581 -0.9580  2.4839
  692MOL0     H93399  11.889   5.222   2.938  1.5699 -0.3669  0.0461
  692MOL0     H93400  12.049   5.383   3.037 -1.4335 -1.5901 -3.2568
  692MOL0     H93401  12.118   5.225   3.067 -0.7031 -0.4959 -2.9724
  692MOL0     H93402  11.523   4.438   3.026  1.6649  1.5233 -2.3671
  692MOL0     H93403  11.321   4.287   3.075 -0.9516 -1.5142 -1.7611
  692MOL0     H93404  10.855   4.321   3.015  0.3160  0.6335  0.8558
  692MOL0     H93405  10.646   4.210   3.093 -0.9721 -0.5243 -1.3205
  692MOL0     H93406  10.343   3.605   2.263 -0.3915 -2.8646  0.3246
  692MOL0     H93407  10.344   3.836   2.353  0.4638 -0.4021 -0.1559
  692MOL0     H93408  10.286   4.122   2.704  0.9940 -0.4674 -0.8876
  692MOL0     H93409  10.297   4.352   2.763 -0.3284 -0.8093  0.6455
  692MOL0     H93410  10.436   4.650   2.808  0.4233  1.1136  0.6742
  692MOL0     H93411  10.359   4.516   2.894  0.3548  2.7369  3.1237
  692MOL0     H93412  10.513   4.732   2.978  0.5295  0.0714  1.2186
  692MOL0     H93413  10.639   4.622   2.930 -0.3387  0.5328 -2.1309
  692MOL0     H93414  10.575   4.457   3.110  0.1200 -0.3909  0.7059
  692MOL0     H93415  10.447   4.558   3.151  0.1487 -3.1842 -0.6338
  692MOL0     H93416  10.632   4.581   3.299 -0.7013  0.1791  0.6081
  692MOL0     H93417  10.625   4.738   3.216  1.2535 -0.4920 -0.8691
  692MOL0     H93418  10.969   4.632   3.034 -1.0839 -2.1197 -3.7280
  692MOL0     H93419  10.716   4.326   2.779 -0.0676 -0.3539  3.1397
  692MOL0     H93420  10.715   4.080   2.738  0.8536  0.3333  1.7253
  693MOL0     O93421   5.373   9.078   9.437 -0.8453  0.0930  0.8571
  693MOL0     C93422   5.412   9.014   9.333 -0.2316 -0.3805  0.3307
  693MOL0     O93423   5.325   8.960   9.229 -0.0205 -0.3284 -0.5094
  693MOL0     C93424   5.188   8.968   9.255 -0.0040 -0.1342  0.1576
  693MOL0     C93425   5.128   8.880   9.341 -0.1023  0.2042  0.3928
  693MOL0     C93426   4.980   8.897   9.367  0.4080  0.9291  0.5564
  693MOL0     C93427   4.906   8.990   9.294  0.8710  0.4419  0.0978
  693MOL0     O93428   4.772   9.022   9.315  0.7690  0.1089  0.3129
  693MOL0     C93429   4.723   9.005   9.448  0.4734 -0.6012 -0.3729
  693MOL0     C93430   4.585   9.059   9.485 -0.6598  0.2573  1.2550
  693MOL0     C93431   4.486   8.958   9.419 -0.0721  0.5314 -0.5475
  693MOL0     C93432   4.347   9.009   9.440  1.4899  0.0687  0.0570
  693MOL0     C93433   4.238   8.900   9.422 -0.4829  0.8725 -0.1291
  693MOL0     C93434   4.092   8.928   9.464  0.5484 -0.3425  0.2521
  693MOL0     C93435   4.002   8.811   9.452  0.3425  0.0672  0.5672
  693MOL0     C93436   4.010   8.721   9.576 -0.2082  0.3455  0.1038
  693MOL0     N93437   3.944   8.789   9.689 -0.3252  0.4079 -0.2034
  693MOL0     C93438   3.991   8.803   9.812  0.0819  1.2846 -0.0371
  693MOL0     C93439   3.887   8.846   9.888 -0.4887  1.0620  0.1721
  693MOL0     C93440   3.892   8.863  10.045  0.4009 -0.2541  0.5804
  693MOL0     C93441   3.758   8.911  10.101 -0.6487  0.4204 -0.3183
  693MOL0     C93442   3.668   8.784  10.098 -0.2276 -0.8074  0.5228
  693MOL0     C93443   3.535   8.830  10.037 -0.4717 -0.3055 -0.1567
  693MOL0     O93444   3.461   8.923  10.123 -0.5223 -0.5762 -0.1582
  693MOL0     C93445   3.334   8.953  10.101  0.0717  0.8545  0.0166
  693MOL0     C93446   3.272   9.023  10.207  1.3557  0.5749  0.1696
  693MOL0     C93447   3.127   9.047  10.198 -0.5120 -0.3352  0.6843
  693MOL0     C93448   3.076   9.120  10.316  0.6843 -0.1280  0.6573
  693MOL0     C93449   3.052   9.001  10.086  0.0602 -1.5791 -1.0689
  693MOL0     C93450   2.912   9.019  10.083  0.2040 -0.5464  0.5034
  693MOL0     O93451   2.833   8.916  10.027 -0.2851 -0.2949 -0.0841
  693MOL0     C93452   2.703   8.930  10.045  0.6505  0.3592 -0.0391
  693MOL0     C93453   2.648   8.961  10.172  1.1143  0.5843  0.2425
  693MOL0     C93454   2.510   8.981  10.188  0.9065  0.2252 -0.6912
  693MOL0     C93455   2.425   8.957  10.076  0.5635 -0.1346 -0.9571
  693MOL0     O93456   2.283   8.963  10.067  0.4619 -0.4022  0.4540
  693MOL0     C93457   2.215   8.934  10.190  0.3566 -0.2000 -0.9258
  693MOL0     C93458   2.069   8.961  10.183 -0.0605  0.4996 -0.4935
  693MOL0     C93459   1.996   8.862  10.094 -0.0950  0.6245  0.7307
  693MOL0     C93460   1.842   8.864  10.116 -0.4709  0.0348  0.0682
  693MOL0     C93461   1.778   8.768  10.018 -0.3796 -0.0574 -0.2256
  693MOL0     C93462   1.637   8.739  10.059  0.2468  0.6394  0.4843
  693MOL0     C93463   1.557   8.678   9.950 -0.2790  0.4948  0.1354
  693MOL0     C93464   1.526   8.762   9.837  0.5904 -0.1356  0.6993
  693MOL0    Cl93465   1.410   8.907   9.874  0.0283  0.2892 -0.1743
  693MOL0     C93466   2.481   8.917   9.953 -1.2251  0.6896 -0.3218
  693MOL0     C93467   2.614   8.895   9.939 -1.0089 -0.0068 -0.5984
  693MOL0     O93468   2.867   9.125  10.124  0.3526  0.2294 -0.1473
  693MOL0     C93469   3.119   8.918   9.998  0.1314  0.3960  0.4250
  693MOL0     C93470   3.261   8.903   9.998  0.6338  0.2801  0.2196
  693MOL0     N93471   3.777   8.873   9.815  0.4954  0.3996  0.2784
  693MOL0     N93472   3.814   8.839   9.691 -0.0801  0.1378 -1.4406
  693MOL0     C93473   4.967   9.058   9.194 -0.0135 -0.2171 -0.0903
  693MOL0     C93474   5.108   9.054   9.184  0.0670  0.0436  0.3721
  693MOL0     C93475   5.558   8.995   9.324  0.8149  0.4340  0.2057
  693MOL0     C93476   5.645   9.034   9.425 -0.4874 -0.3997  0.1237
  693MOL0     C93477   5.781   9.018   9.411  0.2081  0.1155  0.5282
  693MOL0     C93478   5.835   8.961   9.297  0.7949  0.0776 -0.5764
  693MOL0     O93479   5.964   8.949   9.288  0.1059  0.2733  0.9238
  693MOL0     C93480   6.050   9.049   9.237 -0.2946  0.5323  0.0409
  693MOL0     C93481   6.152   9.096   9.349  0.1084 -0.6391 -0.4761
  693MOL0     C93482   6.288   9.035   9.327 -0.6352  0.7407  0.8508
  693MOL0     C93483   6.393   9.085   9.433  0.4157 -0.6500  0.3459
  693MOL0     C93484   6.525   9.049   9.398  0.3882  0.4377  0.6234
  693MOL0     C93485   6.632   9.012   9.362  0.4478 -0.0237  0.7141
  693MOL0     C93486   5.750   8.923   9.195 -0.5499 -0.5047  1.0730
  693MOL0     C93487   5.613   8.931   9.208 -0.0930  1.1521  0.5449
  693MOL0     H93488   5.188   8.799   9.381  1.8110  1.0099 -0.7051
  693MOL0     H93489   4.931   8.837   9.443  2.0936  1.9146  2.5430
  693MOL0     H93490   4.722   8.898   9.467 -0.3467 -0.1911  2.2018
  693MOL0     H93491   4.797   9.047   9.517  2.8066 -0.8554 -2.5527
  693MOL0     H93492   4.571   9.045   9.593 -0.3023 -1.4748  1.0987
  693MOL0     H93493   4.569   9.167   9.473 -2.7376 -0.0798  0.5580
  693MOL0     H93494   4.496   8.956   9.310 -1.8598  3.0698 -0.8436
  693MOL0     H93495   4.492   8.861   9.470  1.3300  2.3979  3.1836
  693MOL0     H93496   4.335   9.025   9.548 -0.7443 -0.1602 -0.1064
  693MOL0     H93497   4.320   9.099   9.384  0.6011  0.4331  1.0101
  693MOL0     H93498   4.240   8.866   9.318 -0.0275 -1.9914  0.7489
  693MOL0     H93499   4.272   8.822   9.490  1.7059  1.0655 -0.9016
  693MOL0     H93500   4.110   8.963   9.566 -0.5530 -0.7890  0.6067
  693MOL0     H93501   4.050   9.000   9.392 -0.9119 -2.1090 -0.7458
  693MOL0     H93502   3.898   8.838   9.431  0.4431  1.0562  1.2776
  693MOL0     H93503   4.023   8.766   9.354  1.1227  1.0936  0.2508
  693MOL0     H93504   4.116   8.701   9.594  0.2274  0.1969 -2.3079
  693MOL0     H93505   3.964   8.630   9.539  0.9130  0.6182 -2.1394
  693MOL0     H93506   4.092   8.776   9.840  0.7984 -0.9618 -4.0859
  693MOL0     H93507   3.928   8.780  10.106 -3.3330  0.7883  4.6751
  693MOL0     H93508   3.974   8.933  10.063  1.0226 -1.0161  0.7959
  693MOL0     H93509   3.721   9.004  10.056 -1.9986  0.3311  0.5673
  693MOL0     H93510   3.777   8.930  10.207  0.5282 -0.1432 -0.4080
  693MOL0     H93511   3.651   8.753  10.201  0.1485 -5.0832 -0.5211
  693MOL0     H93512   3.704   8.706  10.030  0.4593 -0.3508  0.3532
  693MOL0     H93513   3.479   8.739  10.014 -1.9664  0.8326 -1.2894
  693MOL0     H93514   3.551   8.879   9.941  1.6048 -2.3636 -0.9533
  693MOL0     H93515   3.322   9.063  10.294  1.6693  1.6120 -0.4689
  693MOL0     H93516   2.971   9.099  10.335  0.9606 -0.1950  2.2357
  693MOL0     H93517   3.133   9.112  10.409 -0.2100 -0.0471  1.2167
  693MOL0     H93518   3.087   9.227  10.295  0.3887  0.0386  1.3253
  693MOL0     H93519   2.712   8.963  10.260 -0.3544 -3.3826  1.6136
  693MOL0     H93520   2.467   9.003  10.285 -0.4141 -0.4927 -1.0866
  693MOL0     H93521   2.228   8.827  10.204  1.1635  0.0666  0.5898
  693MOL0     H93522   2.257   8.991  10.274  0.2526 -1.8043  0.2736
  693MOL0     H93523   2.044   8.949  10.289 -0.8076  1.7777 -0.5117
  693MOL0     H93524   2.041   9.063  10.157 -0.9342  1.0431  2.3065
  693MOL0     H93525   2.031   8.765  10.129 -0.4390 -0.7820 -2.5052
  693MOL0     H93526   2.024   8.876   9.989  0.0201  0.6500  0.7634
  693MOL0     H93527   1.831   8.840  10.222 -0.1302  0.7451  0.2721
  693MOL0     H93528   1.795   8.960  10.096 -0.4594 -0.5401 -3.3232
  693MOL0     H93529   1.832   8.674  10.020 -2.9193 -1.6117  0.6946
  693MOL0     H93530   1.775   8.815   9.920  0.9998  1.9125  0.6044
  693MOL0     H93531   1.638   8.674  10.147 -1.7777  2.6965  2.1440
  693MOL0     H93532   1.587   8.823  10.108  2.5192 -0.4254  5.2182
  693MOL0     H93533   1.462   8.644   9.991 -1.1775  1.7633 -0.8076
  693MOL0     H93534   1.615   8.594   9.910 -1.6154 -0.7704  0.7780
  693MOL0     H93535   1.481   8.693   9.765  2.0155  0.3592 -0.7018
  693MOL0     H93536   1.616   8.808   9.796  0.2748  0.0801  0.2486
  693MOL0     H93537   2.426   8.898   9.862  2.0344 -1.2316 -2.1104
  693MOL0     H93538   2.638   8.855   9.841 -3.6368 -1.0058 -0.9241
  693MOL0     H93539   3.055   8.869   9.926 -4.8378  4.2068  1.6682
  693MOL0     H93540   3.299   8.829   9.928  0.2088 -2.5764  2.7884
  693MOL0     H93541   4.908   9.129   9.136  2.2521  1.2458 -0.7509
  693MOL0     H93542   5.151   9.133   9.122  2.5543 -1.3678  0.1766
  693MOL0     H93543   5.603   9.070   9.518 -1.7929 -0.8086 -0.2978
  693MOL0     H93544   5.841   9.046   9.498  0.9437 -3.6168  1.3957
  693MOL0     H93545   6.108   9.014   9.151  1.9340  1.7098  0.9860
  693MOL0     H93546   5.984   9.133   9.213  3.0477  3.3115 -0.1823
  693MOL0     H93547   6.111   9.077   9.448 -0.4844 -1.2245 -0.8261
  693MOL0     H93548   6.172   9.203   9.337  1.1438 -0.8024 -0.2948
  693MOL0     H93549   6.310   9.049   9.221  0.2343 -4.3113  0.0736
  693MOL0     H93550   6.285   8.926   9.339 -1.3595  0.6287 -0.1681
  693MOL0     H93551   6.362   9.056   9.534 -3.2531  2.6786  0.3991
  693MOL0     H93552   6.382   9.194   9.439 -1.9351 -0.8245  0.0922
  693MOL0     H93553   6.728   8.995   9.318 -0.1695 -0.0092 -0.6747
  693MOL0     H93554   5.794   8.877   9.108  0.8644  0.0098  1.4807
  693MOL0     H93555   5.534   8.899   9.141 -2.0579  1.2396  2.6958
  694MOL0     O93556  10.861   6.302   2.160  0.2549 -0.0246 -0.8150
  694MOL0     C93557  10.820   6.199   2.211  1.2198  0.0623  0.9955
  694MOL0     O93558  10.736   6.197   2.316 -0.2142 -0.2950 -0.5476
  694MOL0     C93559  10.711   6.315   2.383 -0.0174  0.9059  0.4621
  694MOL0     C93560  10.635   6.425   2.333 -0.8923  0.5072 -0.0530
  694MOL0     C93561  10.629   6.541   2.405 -0.0587 -0.1871 -0.6779
  694MOL0     C93562  10.684   6.557   2.533 -0.3183 -0.0090 -0.4639
  694MOL0     O93563  10.663   6.679   2.594 -0.1743 -0.1493 -0.0628
  694MOL0     C93564  10.782   6.720   2.671 -0.7927  0.4049  0.1829
  694MOL0     C93565  10.762   6.863   2.702 -0.8820  0.5035  1.5299
  694MOL0     C93566  10.812   6.942   2.568  0.2692  0.5371 -0.4731
  694MOL0     C93567  10.748   7.079   2.578 -0.6572 -0.4600 -0.5664
  694MOL0     C93568  10.792   7.165   2.459  0.2423  0.0350 -0.7373
  694MOL0     C93569  10.935   7.216   2.469  0.0565  0.6083 -0.4378
  694MOL0     C93570  10.996   7.294   2.360  0.7011  0.2246  0.2714
  694MOL0     C93571  10.910   7.405   2.299  0.2943 -0.2778  0.3071
  694MOL0     N93572  10.893   7.526   2.386  0.7982  0.6179  0.4278
  694MOL0     C93573  10.790   7.541   2.472  0.0783  0.2748 -0.5972
  694MOL0     C93574  10.792   7.667   2.513  0.2941 -0.6084 -0.8482
  694MOL0     C93575  10.689   7.713   2.622  0.0001 -0.7205 -0.0267
  694MOL0     C93576  10.573   7.792   2.558  0.1744 -0.2844 -0.3989
  694MOL0     C93577  10.611   7.919   2.497  0.1745 -0.2431  0.6725
  694MOL0     C93578  10.493   7.988   2.430 -0.2243 -0.4689 -0.6004
  694MOL0     O93579  10.396   8.019   2.523  0.2619  0.9818  0.5946
  694MOL0     C93580  10.261   8.007   2.483 -0.8252 -0.6194  0.7499
  694MOL0     C93581  10.215   8.015   2.353  0.2131 -0.1799  0.2804
  694MOL0     C93582  10.078   7.993   2.319 -0.4893 -0.0898  1.2242
  694MOL0     C93583  10.050   8.004   2.170  0.0859 -1.0758 -0.6678
  694MOL0     C93584   9.985   7.957   2.414  0.3190 -0.1591 -0.3263
  694MOL0     C93585   9.848   7.927   2.388  0.8725  0.0790  0.5513
  694MOL0     O93586   9.775   7.870   2.492  0.5932 -0.8665  0.3975
  694MOL0     C93587   9.639   7.845   2.506  0.0815 -0.2364 -0.1600
  694MOL0     C93588   9.539   7.875   2.413  0.1888 -0.5787  0.0278
  694MOL0     C93589   9.404   7.866   2.443  0.1025 -0.8996  0.6071
  694MOL0     C93590   9.367   7.797   2.555 -0.1953  0.1505  0.4297
  694MOL0     O93591   9.233   7.782   2.562 -0.4204  0.4726  0.3294
  694MOL0     C93592   9.178   7.690   2.657 -0.2719 -0.0661 -0.1826
  694MOL0     C93593   9.027   7.722   2.684 -0.7084 -0.8726 -0.7064
  694MOL0     C93594   8.939   7.604   2.736 -0.0143  0.0880 -0.0630
  694MOL0     C93595   8.792   7.654   2.757 -0.0330 -0.1242 -0.4723
  694MOL0     C93596   8.713   7.539   2.819  1.0061 -0.0989 -0.6216
  694MOL0     C93597   8.561   7.576   2.811  0.0629 -0.0474  0.4010
  694MOL0     C93598   8.527   7.672   2.935  0.3365  0.8217 -0.1370
  694MOL0     C93599   8.399   7.733   2.910 -0.7678  0.3601  0.1002
  694MOL0    Cl93600   8.283   7.601   2.876  0.0784 -0.0377 -0.1738
  694MOL0     C93601   9.463   7.747   2.642 -0.1437  0.8459  0.2274
  694MOL0     C93602   9.600   7.781   2.623  0.4786  0.1203  0.2322
  694MOL0     O93603   9.805   7.945   2.281 -0.0810  0.2769 -0.0338
  694MOL0     C93604  10.035   7.951   2.549 -1.1161  0.4434 -1.0699
  694MOL0     C93605  10.170   7.969   2.583  0.0881 -0.4795  0.6078
  694MOL0     N93606  10.909   7.724   2.460  0.2291 -0.9111 -0.2684
  694MOL0     N93607  10.963   7.642   2.383  0.1598 -0.1422  0.0100
  694MOL0     C93608  10.758   6.442   2.580  0.3422  0.0514  0.3939
  694MOL0     C93609  10.768   6.320   2.512 -0.3380  0.4856 -0.5224
  694MOL0     C93610  10.874   6.074   2.156  0.1048 -0.4629 -0.1823
  694MOL0     C93611  10.974   6.065   2.053  0.3774 -0.2270  0.1066
  694MOL0     C93612  11.028   5.948   2.005  0.1824  0.1285 -0.6907
  694MOL0     C93613  10.983   5.830   2.068  0.2544 -0.6954 -0.0572
  694MOL0     O93614  11.034   5.706   2.036 -0.5487  0.9214  0.2115
  694MOL0     C93615  11.102   5.693   1.916  0.6690 -0.5676  0.2558
  694MOL0     C93616  11.131   5.544   1.880 -0.7520 -0.8515  1.2532
  694MOL0     C93617  11.212   5.462   1.985 -0.5264 -0.2796 -0.7408
  694MOL0     C93618  11.198   5.319   1.937 -0.8346  0.0942  0.0584
  694MOL0     C93619  11.261   5.224   2.029 -0.2931 -0.9027  0.5008
  694MOL0     C93620  11.329   5.153   2.098  0.6515  0.2951 -0.1161
  694MOL0     C93621  10.889   5.837   2.171  0.5654  0.1507  0.3603
  694MOL0     C93622  10.828   5.957   2.208 -1.0001 -0.1499  0.0136
  694MOL0     H93623  10.593   6.428   2.232 -3.2098 -0.9765  0.7759
  694MOL0     H93624  10.568   6.622   2.366  0.3141  0.7523  0.6201
  694MOL0     H93625  10.783   6.668   2.767  0.1098  5.0221  2.9996
  694MOL0     H93626  10.872   6.704   2.611  0.3826 -1.2947  2.2808
  694MOL0     H93627  10.657   6.886   2.720 -2.3196 -1.6935 -2.7759
  694MOL0     H93628  10.834   6.895   2.779  1.5313 -0.7344 -0.0758
  694MOL0     H93629  10.921   6.947   2.581 -0.0895  2.1352  3.1656
  694MOL0     H93630  10.781   6.886   2.479  0.7079  1.4118 -1.1904
  694MOL0     H93631  10.642   7.050   2.573 -0.5228 -1.1756  0.3678
  694MOL0     H93632  10.778   7.117   2.676  2.5618  0.9538 -1.9654
  694MOL0     H93633  10.774   7.109   2.367  2.5897 -0.1953 -1.1192
  694MOL0     H93634  10.728   7.254   2.456 -1.5924 -1.2758 -1.8579
  694MOL0     H93635  10.937   7.270   2.564  2.3150  1.5508 -0.9645
  694MOL0     H93636  11.003   7.131   2.484 -1.2948 -0.5319 -0.5888
  694MOL0     H93637  11.088   7.340   2.395  2.4137 -0.0879 -3.4158
  694MOL0     H93638  11.026   7.220   2.285  0.6316 -0.5855  1.0192
  694MOL0     H93639  10.808   7.371   2.276  0.2276  0.9518 -1.3837
  694MOL0     H93640  10.959   7.438   2.207 -0.5353  0.2398  0.0398
  694MOL0     H93641  10.725   7.464   2.514  1.4310  1.1130  3.4368
  694MOL0     H93642  10.667   7.624   2.682  1.8852  0.3386  2.4408
  694MOL0     H93643  10.745   7.783   2.685 -1.6286  0.0384  0.6346
  694MOL0     H93644  10.498   7.811   2.635  1.1083  0.7691  0.2732
  694MOL0     H93645  10.526   7.723   2.487 -0.7498 -1.7904  1.6020
  694MOL0     H93646  10.678   7.894   2.414 -1.1764 -0.9313 -0.2469
  694MOL0     H93647  10.661   7.978   2.575  1.1279 -0.0894 -0.0339
  694MOL0     H93648  10.464   7.914   2.354 -0.1434 -1.3042  0.1650
  694MOL0     H93649  10.524   8.085   2.391  0.0068  0.5244  1.8785
  694MOL0     H93650  10.287   8.047   2.278  1.3952  0.2167  1.5347
  694MOL0     H93651   9.996   7.915   2.136 -2.4350  0.3081 -0.5151
  694MOL0     H93652   9.985   8.088   2.144 -1.1252 -1.7488  0.0720
  694MOL0     H93653  10.141   8.008   2.110 -0.6291 -5.3704 -2.3952
  694MOL0     H93654   9.570   7.924   2.321 -0.4151 -1.0601 -0.4397
  694MOL0     H93655   9.328   7.899   2.373 -0.8616 -1.1881  1.4915
  694MOL0     H93656   9.181   7.590   2.612 -2.0829 -0.2275 -0.0163
  694MOL0     H93657   9.234   7.691   2.750 -1.1046  0.8450  0.3230
  694MOL0     H93658   9.022   7.796   2.765 -2.7572 -0.6506 -0.9801
  694MOL0     H93659   8.980   7.760   2.593 -1.8041  0.0253  0.1884
  694MOL0     H93660   8.979   7.563   2.829 -0.8175  2.3199  1.3442
  694MOL0     H93661   8.951   7.534   2.653 -2.7547  2.6364 -2.9112
  694MOL0     H93662   8.801   7.741   2.823  0.8454  0.2142 -1.0191
  694MOL0     H93663   8.750   7.682   2.660  0.6717  0.7610 -0.5358
  694MOL0     H93664   8.745   7.523   2.923  2.2882 -0.2689 -1.0266
  694MOL0     H93665   8.731   7.449   2.760  2.7324 -0.3467  0.2170
  694MOL0     H93666   8.529   7.624   2.719 -0.2876 -2.6695 -0.9469
  694MOL0     H93667   8.511   7.479   2.812 -0.6426  0.2414  3.3318
  694MOL0     H93668   8.601   7.752   2.946  0.3304  0.7533  0.4374
  694MOL0     H93669   8.519   7.613   3.027 -0.4128  2.7718  1.1100
  694MOL0     H93670   8.400   7.796   2.821  0.5043  0.7451  0.3682
  694MOL0     H93671   8.380   7.794   2.998 -0.9769  1.2865 -0.5729
  694MOL0     H93672   9.438   7.702   2.738  1.7277 -0.2365  0.2561
  694MOL0     H93673   9.668   7.743   2.698  0.6791 -1.8870 -0.9106
  694MOL0     H93674   9.966   7.929   2.630  1.3492 -0.8232  0.8313
  694MOL0     H93675  10.214   7.942   2.678  0.2005  0.8195  0.9517
  694MOL0     H93676  10.807   6.450   2.676  0.6971  1.7714  0.1014
  694MOL0     H93677  10.818   6.227   2.538  0.4528  0.2163 -2.7990
  694MOL0     H93678  11.006   6.162   2.018  0.9231 -1.3303 -2.6406
  694MOL0     H93679  11.097   5.959   1.923  0.6168  0.6901 -0.2581
  694MOL0     H93680  11.054   5.751   1.836  0.0092 -0.4478  0.7299
  694MOL0     H93681  11.195   5.748   1.931  0.7649 -0.8160  0.5860
  694MOL0     H93682  11.196   5.572   1.797 -1.9874  1.0853  0.8619
  694MOL0     H93683  11.038   5.496   1.847 -1.0569 -0.2338  1.1949
  694MOL0     H93684  11.158   5.467   2.080  0.6917  2.3465 -0.1006
  694MOL0     H93685  11.320   5.481   1.988 -0.5470 -0.2083 -0.4432
  694MOL0     H93686  11.260   5.314   1.847 -1.4189 -2.1670 -0.2702
  694MOL0     H93687  11.102   5.280   1.901 -2.4436  1.6356  2.3898
  694MOL0     H93688  11.391   5.078   2.142  0.8173  0.0217 -0.8042
  694MOL0     H93689  10.853   5.755   2.232 -0.4744  0.8199  0.6768
  694MOL0     H93690  10.752   5.962   2.285  1.7675  1.7176  2.8271
  695MOL0     O93691   6.317   5.133   1.785  0.1712 -0.6082 -0.0300
  695MOL0     C93692   6.321   5.009   1.776  0.2118 -0.3810  0.1958
  695MOL0     O93693   6.274   4.941   1.672 -0.4837  0.0075  0.3145
  695MOL0     C93694   6.186   5.000   1.578  0.6513  0.2060 -0.1514
  695MOL0     C93695   6.183   4.936   1.455  0.4839  0.6505  0.4732
  695MOL0     C93696   6.106   4.978   1.344  0.0771  0.0774 -0.3551
  695MOL0     C93697   6.025   5.095   1.356  0.0774 -0.5423  0.5622
  695MOL0     O93698   5.956   5.158   1.254  0.5662 -0.3521  0.1677
  695MOL0     C93699   5.941   5.091   1.128 -0.3465 -0.4293  0.2578
  695MOL0     C93700   5.903   5.182   1.024 -0.0196 -0.8370 -0.5393
  695MOL0     C93701   5.877   5.106   0.895 -0.7451 -0.1062  0.2549
  695MOL0     C93702   5.735   5.054   0.875 -0.1087 -0.3952  0.0565
  695MOL0     C93703   5.627   5.162   0.865  0.8147  0.3783 -0.0952
  695MOL0     C93704   5.502   5.099   0.807  0.0122  0.2738 -0.6179
  695MOL0     C93705   5.373   5.173   0.827 -0.1497 -0.5600 -0.0379
  695MOL0     C93706   5.258   5.085   0.774  0.6303 -0.2558  0.6935
  695MOL0     N93707   5.206   5.120   0.638 -1.1662  0.9234 -0.4907
  695MOL0     C93708   5.128   5.232   0.599  0.2861  0.4110  0.1710
  695MOL0     C93709   5.145   5.241   0.461  1.1712  0.6438 -0.4879
  695MOL0     C93710   5.089   5.348   0.377  0.2215  0.4426 -1.0400
  695MOL0     C93711   5.039   5.318   0.239  0.3737  0.3263 -0.4508
  695MOL0     C93712   4.915   5.228   0.243  0.2038 -0.2740  0.7304
  695MOL0     C93713   4.897   5.167   0.105  0.2003 -0.3077  0.6638
  695MOL0     O93714   4.870   5.271   0.006  0.4584  0.2074  0.3151
  695MOL0     C93715   4.751   5.339   0.001  0.1647  0.0774 -0.1614
  695MOL0     C93716   4.744   5.447  -0.084  0.7042  0.0296  0.2330
  695MOL0     C93717   4.639   5.537  -0.083 -0.9180  0.8155  0.7275
  695MOL0     C93718   4.646   5.646  -0.182  0.0127 -0.1003 -0.0488
  695MOL0     C93719   4.527   5.514   0.006 -0.0111 -0.1359 -0.1813
  695MOL0     C93720   4.402   5.600   0.011 -0.8735 -0.1039 -0.1547
  695MOL0     O93721   4.308   5.534   0.090 -0.0217 -0.6008  0.8109
  695MOL0     C93722   4.180   5.600   0.084 -0.8011 -0.7561  0.2516
  695MOL0     C93723   4.083   5.581  -0.019 -0.1821 -0.0967 -0.4106
  695MOL0     C93724   3.958   5.639  -0.007  0.9336 -0.0253 -0.1460
  695MOL0     C93725   3.922   5.731   0.090  1.1763  0.5329 -0.1805
  695MOL0     O93726   3.798   5.794   0.088  0.1838 -0.4080  0.2614
  695MOL0     C93727   3.793   5.927   0.146  0.0369  0.2957 -1.0722
  695MOL0     C93728   3.650   5.986   0.131 -1.4375 -0.8479 -0.1523
  695MOL0     C93729   3.556   5.927   0.239 -1.3652  0.2951  0.2646
  695MOL0     C93730   3.416   6.000   0.243 -0.4758  0.5370 -0.7848
  695MOL0     C93731   3.336   5.942   0.363  0.3543  0.3625 -0.5796
  695MOL0     C93732   3.200   6.004   0.373  0.1702 -0.6835 -0.1950
  695MOL0     C93733   3.109   5.978   0.492 -0.2502 -0.6016 -0.7534
  695MOL0     C93734   3.151   6.048   0.622  0.3315 -0.7967  0.5249
  695MOL0    Cl93735   3.165   6.216   0.589 -0.7011  0.3803 -0.0831
  695MOL0     C93736   4.021   5.762   0.179 -0.1928  0.0929 -0.2440
  695MOL0     C93737   4.151   5.702   0.179 -0.1145  0.5080  0.1991
  695MOL0     O93738   4.402   5.717  -0.025 -0.6361  0.3137  0.3066
  695MOL0     C93739   4.525   5.396   0.089 -0.7903 -0.1933  0.4654
  695MOL0     C93740   4.639   5.311   0.078 -0.7187 -0.6558 -0.6602
  695MOL0     N93741   5.232   5.142   0.420  0.0205  0.6700 -0.4140
  695MOL0     N93742   5.269   5.066   0.525 -0.6622 -0.1569  0.5922
  695MOL0     C93743   6.035   5.162   1.485  0.0020  0.4812  0.1611
  695MOL0     C93744   6.108   5.117   1.592  0.9421 -0.6413 -0.2999
  695MOL0     C93745   6.376   4.938   1.884 -0.0778  0.4855 -0.3626
  695MOL0     C93746   6.350   4.795   1.901 -1.8053 -0.9274  0.2704
  695MOL0     C93747   6.419   4.728   2.003  0.7824 -0.0422  0.5588
  695MOL0     C93748   6.497   4.797   2.093  0.3288 -0.5344 -0.4834
  695MOL0     O93749   6.562   4.737   2.198 -0.1960 -0.7399  0.4006
  695MOL0     C93750   6.533   4.600   2.234  0.1965 -0.1125 -0.6759
  695MOL0     C93751   6.619   4.544   2.354 -0.4181 -0.1043  0.2630
  695MOL0     C93752   6.766   4.528   2.316 -0.2584  0.1059  0.9489
  695MOL0     C93753   6.865   4.474   2.417  0.3857  0.5278 -0.0613
  695MOL0     C93754   6.867   4.539   2.548 -0.2245 -0.3753 -0.2785
  695MOL0     C93755   6.851   4.590   2.656 -0.5491 -1.0486 -0.0507
  695MOL0     C93756   6.507   4.931   2.089 -0.0683 -0.3062 -0.1582
  695MOL0     C93757   6.452   5.001   1.981 -0.1025 -0.1408 -0.7943
  695MOL0     H93758   6.252   4.859   1.424  0.9315  1.2253  0.0044
  695MOL0     H93759   6.126   4.946   1.243 -0.2673  2.1770 -1.1421
  695MOL0     H93760   6.032   5.042   1.091  0.9321  0.4233  2.1453
  695MOL0     H93761   5.869   5.012   1.153  1.0818 -1.7206  0.4224
  695MOL0     H93762   5.821   5.250   1.048  1.1151  1.2730 -2.2370
  695MOL0     H93763   5.987   5.250   1.007  1.2930 -2.2564  0.0170
  695MOL0     H93764   5.900   5.178   0.816 -1.0862  1.5086  1.5765
  695MOL0     H93765   5.952   5.029   0.876  1.0164  1.5925  0.0177
  695MOL0     H93766   5.737   4.983   0.792 -0.0101 -0.3926  0.0563
  695MOL0     H93767   5.718   4.995   0.965  0.5895  2.2559  2.0419
  695MOL0     H93768   5.599   5.210   0.959  0.8364  2.1742 -0.9687
  695MOL0     H93769   5.676   5.241   0.807 -0.8932  1.2169 -0.4520
  695MOL0     H93770   5.518   5.074   0.702  2.5038  1.6025 -0.6122
  695MOL0     H93771   5.486   5.010   0.870  0.5356  0.8968  0.4213
  695MOL0     H93772   5.357   5.196   0.933 -2.7612 -0.8412 -0.3177
  695MOL0     H93773   5.375   5.259   0.760  1.7137 -0.7905 -0.3365
  695MOL0     H93774   5.172   5.076   0.841  0.6151 -0.3986  0.6543
  695MOL0     H93775   5.295   4.982   0.765 -0.2584 -0.7775  2.5986
  695MOL0     H93776   5.060   5.287   0.663  2.0571 -1.5304  4.0509
  695MOL0     H93777   5.012   5.401   0.433  1.4449  0.5251  0.6384
  695MOL0     H93778   5.164   5.426   0.363  0.4553  0.0453 -2.1515
  695MOL0     H93779   5.124   5.282   0.181  1.7380 -0.8820  2.1639
  695MOL0     H93780   5.019   5.414   0.189 -1.9971  0.1906  0.1326
  695MOL0     H93781   4.821   5.280   0.261  0.1650 -0.0794 -0.0192
  695MOL0     H93782   4.935   5.146   0.313  0.3877 -0.2188  0.7457
  695MOL0     H93783   4.821   5.089   0.095  2.2509 -2.3617 -0.0983
  695MOL0     H93784   4.992   5.125   0.069  0.2650  1.0295 -0.8452
  695MOL0     H93785   4.834   5.477  -0.138 -0.0283  1.6690 -0.1633
  695MOL0     H93786   4.543   5.667  -0.213 -1.1640 -2.8291  1.6712
  695MOL0     H93787   4.699   5.724  -0.125  2.9354 -2.3024  0.4992
  695MOL0     H93788   4.702   5.621  -0.274 -0.1236  0.7600 -0.3834
  695MOL0     H93789   4.101   5.503  -0.091 -0.5657  2.2364 -3.2180
  695MOL0     H93790   3.885   5.613  -0.083  0.2112  0.4709  0.3578
  695MOL0     H93791   3.810   5.920   0.254  0.8483 -1.9549 -1.2860
  695MOL0     H93792   3.874   5.989   0.107 -1.1507  0.7114 -3.0127
  695MOL0     H93793   3.663   6.094   0.140  1.1985 -1.2371  1.8419
  695MOL0     H93794   3.613   5.965   0.030 -0.3647  0.4328 -0.8398
  695MOL0     H93795   3.604   5.949   0.334 -0.9150  3.2937 -0.5618
  695MOL0     H93796   3.548   5.821   0.213  0.4806  0.7839 -2.6660
  695MOL0     H93797   3.430   6.107   0.258 -0.2936  0.4177 -0.0866
  695MOL0     H93798   3.362   5.989   0.148 -1.0054 -1.1412 -0.3278
  695MOL0     H93799   3.389   5.959   0.457 -0.2421 -0.4490 -0.0837
  695MOL0     H93800   3.327   5.835   0.345 -0.6200  0.1880  0.7515
  695MOL0     H93801   3.196   6.111   0.349 -2.6300 -0.1922  1.9327
  695MOL0     H93802   3.146   5.960   0.288  1.7104  1.6557 -2.5426
  695MOL0     H93803   3.099   5.869   0.501 -1.1737 -0.4307  0.5394
  695MOL0     H93804   3.010   6.012   0.461  0.1013  3.1541  1.5470
  695MOL0     H93805   3.251   6.019   0.659 -0.3293 -3.1261  0.6793
  695MOL0     H93806   3.085   6.026   0.706  0.3288 -1.2197  0.4170
  695MOL0     H93807   4.010   5.834   0.259  3.0060 -0.2492  0.6671
  695MOL0     H93808   4.228   5.730   0.251 -1.1256  3.1795  0.3520
  695MOL0     H93809   4.447   5.358   0.154 -0.9769 -2.5180 -1.0139
  695MOL0     H93810   4.637   5.225   0.144 -1.9984 -1.1849 -1.3439
  695MOL0     H93811   5.986   5.258   1.503  1.0829  0.7103  2.1507
  695MOL0     H93812   6.105   5.178   1.682 -1.0163  0.3732 -0.9957
  695MOL0     H93813   6.281   4.751   1.830 -1.0290 -2.3877  0.3911
  695MOL0     H93814   6.409   4.620   2.017 -0.8389  0.2129  1.6153
  695MOL0     H93815   6.429   4.597   2.267  0.6823 -0.2052  0.9495
  695MOL0     H93816   6.543   4.534   2.147  1.7680 -1.1088  0.2106
  695MOL0     H93817   6.571   4.451   2.385 -0.2534 -0.5481 -0.7613
  695MOL0     H93818   6.609   4.622   2.431  1.5453  1.1372 -0.6604
  695MOL0     H93819   6.803   4.621   2.272 -1.7638  0.2553 -0.0852
  695MOL0     H93820   6.767   4.463   2.229  0.0956  0.9926  0.2710
  695MOL0     H93821   6.963   4.477   2.369 -0.0897 -0.2489 -1.1123
  695MOL0     H93822   6.848   4.367   2.437  1.7995  0.4701  1.0093
  695MOL0     H93823   6.844   4.628   2.755  1.0729  0.5165 -0.4852
  695MOL0     H93824   6.572   4.976   2.163  0.6466 -2.0579  0.3324
  695MOL0     H93825   6.471   5.108   1.980  3.9993 -0.6426  1.0437
  696MOL0     O93826   2.839   0.211   5.788 -0.3327  0.4633 -0.8493
  696MOL0     C93827   2.906   0.148   5.707  0.3101  0.7397  0.4933
  696MOL0     O93828   2.871   0.033   5.644  0.7183 -0.9459  0.6402
  696MOL0     C93829   2.744  -0.017   5.674  0.1072  0.3294  0.0497
  696MOL0     C93830   2.708  -0.079   5.797 -0.2114 -0.2995 -0.3360
  696MOL0     C93831   2.599  -0.162   5.810 -0.2957  0.3676  0.5399
  696MOL0     C93832   2.510  -0.177   5.699 -0.1238 -0.4244 -0.8212
  696MOL0     O93833   2.385  -0.233   5.708  0.5775 -0.0734  0.0578
  696MOL0     C93834   2.346  -0.292   5.832 -0.5385  0.2927  0.0520
  696MOL0     C93835   2.203  -0.343   5.846 -0.3305  0.5866 -0.5772
  696MOL0     C93836   2.110  -0.255   5.759  0.4138  0.1677  1.0241
  696MOL0     C93837   1.960  -0.297   5.769 -0.1540  0.3645  0.3425
  696MOL0     C93838   1.868  -0.198   5.694 -0.7224  0.5040 -0.5121
  696MOL0     C93839   1.719  -0.246   5.682  0.6933 -0.4803  0.8259
  696MOL0     C93840   1.692  -0.352   5.579  0.0552  0.0958  0.4201
  696MOL0     C93841   1.547  -0.395   5.586 -0.2934  0.0848  0.6291
  696MOL0     N93842   1.442  -0.290   5.594  0.7149  0.1434 -0.2209
  696MOL0     C93843   1.390  -0.238   5.711 -0.4675  0.5784 -0.1382
  696MOL0     C93844   1.267  -0.186   5.672  0.6999  0.0812 -1.4224
  696MOL0     C93845   1.165  -0.120   5.767  0.5370 -0.0743  0.1426
  696MOL0     C93846   1.048  -0.047   5.700  0.5920  0.3746 -0.1801
  696MOL0     C93847   0.953  -0.005   5.812 -0.3159  0.7250  0.0389
  696MOL0     C93848   0.821   0.051   5.760  0.6300 -0.8675 -1.0203
  696MOL0     O93849   0.758   0.093   5.882  0.0959  0.1409 -0.1472
  696MOL0     C93850   0.703   0.216   5.864  0.6177 -0.3261 -0.8479
  696MOL0     C93851   0.779   0.334   5.881 -0.8280  0.0524 -0.1460
  696MOL0     C93852   0.726   0.459   5.868 -0.1289  0.5920  0.0164
  696MOL0     C93853   0.815   0.582   5.880 -0.0208 -0.1139 -0.1557
  696MOL0     C93854   0.588   0.469   5.846  0.4154 -0.5825  0.1456
  696MOL0     C93855   0.510   0.599   5.831  0.0313  0.4275 -0.0865
  696MOL0     O93856   0.370   0.603   5.848  0.4829  0.0140 -0.1445
  696MOL0     C93857   0.320   0.736   5.838  0.4797 -0.2397 -0.0832
  696MOL0     C93858   0.314   0.815   5.956  0.1035  0.0211  0.0414
  696MOL0     C93859   0.258   0.946   5.952 -0.1296 -0.2774  0.6735
  696MOL0     C93860   0.206   0.994   5.837  0.4909 -0.9279  0.9175
  696MOL0     O93861   0.174   1.130   5.828  0.6518  0.8583 -0.2660
  696MOL0     C93862   0.121   1.200   5.941  0.1538 -0.4814 -0.3491
  696MOL0     C93863  -0.024   1.167   5.961 -0.1992  0.1734 -0.6258
  696MOL0     C93864  -0.096   1.215   5.831  0.4515 -0.3008 -0.8111
  696MOL0     C93865  -0.247   1.209   5.846 -0.9004 -1.1916 -1.1225
  696MOL0     C93866  -0.314   1.191   5.705  0.5751 -0.9723  0.5550
  696MOL0     C93867  -0.335   1.042   5.665 -0.6391  0.2976  0.1858
  696MOL0     C93868  -0.347   1.019   5.516  0.3842 -0.1322 -0.1569
  696MOL0     C93869  -0.377   0.879   5.464  0.3868  0.9092 -0.0742
  696MOL0    Cl93870  -0.427   0.887   5.291 -0.5091  0.0109  0.4048
  696MOL0     C93871   0.223   0.924   5.721 -0.7512  0.4438  0.0944
  696MOL0     C93872   0.294   0.798   5.712  0.4583 -0.1103  0.2113
  696MOL0     O93873   0.579   0.695   5.802 -0.3163 -0.4313 -0.2160
  696MOL0     C93874   0.509   0.356   5.825 -0.2356 -0.1342 -0.5255
  696MOL0     C93875   0.564   0.224   5.837  0.1664 -0.1865 -0.2560
  696MOL0     N93876   1.244  -0.212   5.543  0.2634  0.0306 -0.8782
  696MOL0     N93877   1.355  -0.268   5.498  0.5863 -0.3004 -0.3542
  696MOL0     C93878   2.547  -0.118   5.577 -0.8099 -0.1160 -0.2371
  696MOL0     C93879   2.656  -0.026   5.574  0.2939 -0.5655  0.2474
  696MOL0     C93880   3.052   0.199   5.701 -0.0978  0.1135 -0.1720
  696MOL0     C93881   3.137   0.130   5.615 -0.7532  0.5442 -0.2933
  696MOL0     C93882   3.267   0.172   5.592  0.1469  0.3794  0.0448
  696MOL0     C93883   3.314   0.280   5.666  0.6698 -0.0644  0.0600
  696MOL0     O93884   3.447   0.318   5.647 -0.3851  0.0770  0.7095
  696MOL0     C93885   3.490   0.351   5.513  0.9957  0.7588 -1.0621
  696MOL0     C93886   3.540   0.499   5.543  0.1374  0.3469 -0.9567
  696MOL0     C93887   3.600   0.555   5.417 -0.4183  0.9855  0.2387
  696MOL0     C93888   3.752   0.504   5.400 -0.4460 -0.3330  1.0419
  696MOL0     C93889   3.836   0.489   5.523  0.0044 -0.8540 -0.2030
  696MOL0     C93890   3.891   0.494   5.632 -0.2704  0.7887  0.6742
  696MOL0     C93891   3.243   0.350   5.762  0.3420 -0.7312  0.8771
  696MOL0     C93892   3.109   0.301   5.784 -0.5313 -0.1578 -0.3799
  696MOL0     H93893   2.772  -0.076   5.884 -2.7367  0.9490  1.6149
  696MOL0     H93894   2.576  -0.204   5.907 -0.7851  0.2724  0.3901
  696MOL0     H93895   2.419  -0.371   5.856 -1.0807  0.3151  1.8966
  696MOL0     H93896   2.340  -0.212   5.906 -2.4409  0.2163  0.0258
  696MOL0     H93897   2.190  -0.448   5.818 -2.0115  1.0668 -1.7432
  696MOL0     H93898   2.189  -0.338   5.955 -0.6432 -2.3249 -0.4147
  696MOL0     H93899   2.128  -0.151   5.789  0.3695  0.3800  0.3258
  696MOL0     H93900   2.133  -0.262   5.652 -1.2582  3.3987  0.3310
  696MOL0     H93901   1.942  -0.399   5.735  0.2696 -1.6779  5.3004
  696MOL0     H93902   1.921  -0.306   5.871 -1.5537  1.0196 -0.0999
  696MOL0     H93903   1.877  -0.110   5.757 -1.8938 -1.4464  2.6136
  696MOL0     H93904   1.897  -0.176   5.591 -0.6645 -2.3320 -1.2042
  696MOL0     H93905   1.691  -0.280   5.783  3.1216 -1.0175  1.3718
  696MOL0     H93906   1.655  -0.163   5.652 -1.4062 -3.4943 -4.4521
  696MOL0     H93907   1.717  -0.327   5.476  0.9152 -2.0682  0.0520
  696MOL0     H93908   1.765  -0.431   5.599  2.4000  2.0110 -0.1788
  696MOL0     H93909   1.536  -0.452   5.679  1.8594  0.4446  1.1547
  696MOL0     H93910   1.534  -0.468   5.506  2.7317 -0.0530  0.1492
  696MOL0     H93911   1.434  -0.240   5.810  0.3781 -2.0721 -0.5130
  696MOL0     H93912   1.127  -0.196   5.836 -0.9095  1.9227  1.6840
  696MOL0     H93913   1.221  -0.046   5.825  1.9011 -0.9986  0.0604
  696MOL0     H93914   1.008  -0.125   5.635  1.2466 -0.7933  0.7924
  696MOL0     H93915   1.083   0.041   5.645  0.3173 -0.5431 -1.8931
  696MOL0     H93916   1.007   0.076   5.862 -2.4024  1.6179  0.9640
  696MOL0     H93917   0.928  -0.082   5.885  0.1749 -2.0891 -2.5694
  696MOL0     H93918   0.765  -0.031   5.715 -2.4566 -0.3195  1.5312
  696MOL0     H93919   0.833   0.135   5.690 -0.3670 -1.0291 -1.3947
  696MOL0     H93920   0.885   0.327   5.904 -0.2478  0.8446 -2.3158
  696MOL0     H93921   0.908   0.543   5.922 -0.5621 -2.9445 -1.3676
  696MOL0     H93922   0.820   0.628   5.780 -3.2108  1.6439  0.3570
  696MOL0     H93923   0.765   0.643   5.955 -1.0625 -0.8378 -0.2420
  696MOL0     H93924   0.335   0.763   6.049 -0.8467  1.1355  0.9154
  696MOL0     H93925   0.251   0.993   6.049  0.5424 -1.6026  1.3867
  696MOL0     H93926   0.164   1.183   6.040  0.1815 -0.0714 -0.2920
  696MOL0     H93927   0.130   1.307   5.926  1.0532 -0.4159  0.5658
  696MOL0     H93928  -0.021   1.059   5.983  1.3132  0.8760  3.5367
  696MOL0     H93929  -0.073   1.218   6.044 -0.9194  1.5390 -1.8481
  696MOL0     H93930  -0.064   1.151   5.749 -1.5276 -2.7078  0.1675
  696MOL0     H93931  -0.070   1.318   5.806 -2.7516  1.0483  0.8716
  696MOL0     H93932  -0.268   1.133   5.922  0.6204  1.3466  2.0592
  696MOL0     H93933  -0.280   1.303   5.890 -0.2037 -1.1171 -0.7507
  696MOL0     H93934  -0.261   1.244   5.625  1.0343 -2.3375 -0.0653
  696MOL0     H93935  -0.415   1.234   5.710  0.3490 -1.5306  0.8201
  696MOL0     H93936  -0.248   0.984   5.697 -1.1508  0.8285  2.8166
  696MOL0     H93937  -0.425   1.004   5.713  0.0551  1.2472  2.3665
  696MOL0     H93938  -0.257   1.057   5.466 -0.7598  0.2734 -1.9960
  696MOL0     H93939  -0.436   1.074   5.485 -0.9472 -1.8391  0.5049
  696MOL0     H93940  -0.454   0.835   5.529  2.3595  0.1096  1.8392
  696MOL0     H93941  -0.280   0.829   5.470  0.5337  1.3519  3.2806
  696MOL0     H93942   0.187   0.976   5.633 -2.5829  1.9282  1.6462
  696MOL0     H93943   0.295   0.748   5.616 -3.0729  0.2057 -0.1085
  696MOL0     H93944   0.404   0.365   5.798 -0.5210  1.9820  1.1006
  696MOL0     H93945   0.495   0.140   5.840 -0.9745  0.7433  0.1172
  696MOL0     H93946   2.490  -0.132   5.485  1.0513  3.4051 -2.1284
  696MOL0     H93947   2.680   0.021   5.479  1.4195  0.2818  0.9248
  696MOL0     H93948   3.099   0.044   5.561  0.8672  0.1349 -0.8097
  696MOL0     H93949   3.324   0.115   5.520 -0.6294 -0.2167 -0.1125
  696MOL0     H93950   3.570   0.284   5.480  0.4159 -0.4626 -0.1118
  696MOL0     H93951   3.410   0.350   5.438  0.8138  0.5675 -0.8672
  696MOL0     H93952   3.612   0.503   5.625  1.9028 -4.5256 -1.9075
  696MOL0     H93953   3.450   0.550   5.579 -0.7736 -2.4241  1.0662
  696MOL0     H93954   3.606   0.664   5.424  1.1867  0.9477 -0.0838
  696MOL0     H93955   3.541   0.518   5.333  1.2284 -1.0219 -0.1235
  696MOL0     H93956   3.806   0.579   5.342  0.6710  1.4475  4.1594
  696MOL0     H93957   3.748   0.411   5.343  2.4485 -0.3051  0.6617
  696MOL0     H93958   3.954   0.505   5.718  1.1795 -1.7215  0.0353
  696MOL0     H93959   3.277   0.433   5.823  2.5056 -0.5858 -0.4298
  696MOL0     H93960   3.058   0.349   5.867  2.0104  0.5674  0.8641
  697MOL0     O93961  10.658  10.276   8.025  0.6170 -0.7214  1.0670
  697MOL0     C93962  10.693  10.168   8.080 -0.0785 -0.7256 -0.1292
  697MOL0     O93963  10.610  10.062   8.106  0.5305 -0.0510  0.7279
  697MOL0     C93964  10.481  10.089   8.081  0.3269 -0.6041 -0.2380
  697MOL0     C93965  10.398  10.049   7.975  0.0053 -0.2939  0.1081
  697MOL0     C93966  10.257  10.074   7.969 -0.8015  0.0266  0.3552
  697MOL0     C93967  10.190  10.138   8.073  0.5447  0.1788  0.4791
  697MOL0     O93968  10.053  10.153   8.056  0.6771 -0.0320 -1.2404
  697MOL0     C93969   9.973  10.179   8.172 -0.2573 -0.5454 -0.3602
  697MOL0     C93970   9.835  10.236   8.141 -0.1096  0.8220 -1.0643
  697MOL0     C93971   9.743  10.120   8.115 -0.1598 -0.4236  0.7793
  697MOL0     C93972   9.607  10.177   8.071 -0.1352 -0.1172  0.5087
  697MOL0     C93973   9.514  10.070   8.037  0.6815  0.5316  0.2679
  697MOL0     C93974   9.384  10.119   7.973 -0.0590  0.4861  0.4038
  697MOL0     C93975   9.278  10.021   7.920  0.6639 -0.4129 -0.3516
  697MOL0     C93976   9.141  10.083   7.880  0.2279  0.7044 -0.4151
  697MOL0     N93977   9.036   9.986   7.842  0.0627 -0.0470 -0.0310
  697MOL0     C93978   8.904  10.019   7.848  0.4190  0.0273  0.5219
  697MOL0     C93979   8.843   9.919   7.770 -0.5177 -0.5888 -0.5541
  697MOL0     C93980   8.700   9.919   7.724 -0.6725 -0.0929  0.4708
  697MOL0     C93981   8.601   9.850   7.828 -1.4742 -0.2564  0.0327
  697MOL0     C93982   8.462   9.866   7.785  0.8446  0.4883 -1.0320
  697MOL0     C93983   8.349   9.769   7.849 -0.2742 -0.2882 -0.5617
  697MOL0     O93984   8.225   9.812   7.798 -0.0052  0.1808  0.4457
  697MOL0     C93985   8.133   9.723   7.749 -0.0840 -1.1233 -0.2018
  697MOL0     C93986   8.153   9.631   7.648  0.6422  0.1429 -0.1350
  697MOL0     C93987   8.041   9.542   7.614 -0.1171  0.2180  0.2394
  697MOL0     C93988   8.076   9.456   7.495  0.0278 -0.0108  0.2368
  697MOL0     C93989   7.906   9.561   7.665 -0.4153  0.2673 -0.4789
  697MOL0     C93990   7.780   9.479   7.629 -0.6133  0.8827 -0.9611
  697MOL0     O93991   7.776   9.424   7.500  0.4047  0.7204  0.9559
  697MOL0     C93992   7.674   9.343   7.461  0.6815 -0.1210 -0.0173
  697MOL0     C93993   7.611   9.242   7.542  0.2994 -0.2232 -0.2652
  697MOL0     C93994   7.495   9.172   7.504 -0.7246  0.0655 -0.0565
  697MOL0     C93995   7.444   9.202   7.382  0.0472 -0.8903  0.5031
  697MOL0     O93996   7.321   9.153   7.347 -0.5681 -0.4080  0.7590
  697MOL0     C93997   7.234   9.251   7.291 -0.4901  0.2402  0.2555
  697MOL0     C93998   7.096   9.208   7.322 -0.1152 -0.2683  0.5943
  697MOL0     C93999   7.057   9.231   7.467  0.4875 -0.4855  0.4011
  697MOL0     C94000   6.943   9.141   7.493 -0.5538  0.7149 -0.7740
  697MOL0     C94001   6.897   9.166   7.640  0.3497 -1.0076  0.1421
  697MOL0     C94002   6.783   9.068   7.669  0.2218  0.1939 -0.3996
  697MOL0     C94003   6.671   9.139   7.737 -1.1434 -0.3799 -0.1326
  697MOL0     C94004   6.558   9.042   7.771 -0.0596  0.7170 -0.7394
  697MOL0    Cl94005   6.433   9.140   7.833 -0.2990  0.4089 -0.0659
  697MOL0     C94006   7.510   9.275   7.290  0.4596 -0.7040  0.1096
  697MOL0     C94007   7.628   9.346   7.327  1.0386  0.5480 -0.7811
  697MOL0     O94008   7.685   9.474   7.704 -0.2601 -0.0818 -0.1973
  697MOL0     C94009   7.895   9.659   7.766 -1.1961  0.9413 -0.2859
  697MOL0     C94010   8.003   9.728   7.814 -0.4882 -0.0293 -0.0925
  697MOL0     N94011   8.939   9.832   7.719 -0.0847 -0.1551  0.4722
  697MOL0     N94012   9.049   9.870   7.765 -0.0316 -0.8850  0.1253
  697MOL0     C94013  10.269  10.183   8.176  0.2245 -0.4396  0.5122
  697MOL0     C94014  10.410  10.165   8.183  0.3205  1.4200 -0.1244
  697MOL0     C94015  10.835  10.154   8.087 -0.5769 -0.1568  0.1047
  697MOL0     C94016  10.899  10.045   8.143  0.5570  0.4379  0.3320
  697MOL0     C94017  11.042  10.027   8.137  0.5897 -0.4523  0.1022
  697MOL0     C94018  11.121  10.134   8.088 -0.1345  0.1758 -1.2284
  697MOL0     O94019  11.256  10.107   8.099 -0.9148 -0.8631  0.0947
  697MOL0     C94020  11.339  10.225   8.095 -0.5109  0.5536 -0.3407
  697MOL0     C94021  11.476  10.186   8.141  0.0359 -0.2396 -0.0656
  697MOL0     C94022  11.488  10.189   8.295 -0.2532  0.2840  0.0262
  697MOL0     C94023  11.408  10.081   8.370  0.8326  0.5545 -0.2062
  697MOL0     C94024  11.446   9.943   8.337  0.3681  0.6518  0.0732
  697MOL0     C94025  11.494   9.843   8.282 -0.8097  0.0666 -0.3161
  697MOL0     C94026  11.055  10.253   8.050 -1.7763  0.5595  0.1019
  697MOL0     C94027  10.920  10.265   8.054 -0.2151  0.0705  0.2933
  697MOL0     H94028  10.442  10.013   7.883  1.0510  0.4878  0.2874
  697MOL0     H94029  10.212  10.033   7.879 -0.5570  1.4623 -0.4490
  697MOL0     H94030   9.963  10.096   8.243  1.3011  1.1525  2.0258
  697MOL0     H94031  10.010  10.264   8.229 -0.9816 -0.9591  0.7741
  697MOL0     H94032   9.808  10.294   8.229  1.7509 -1.0493  0.8738
  697MOL0     H94033   9.853  10.289   8.047  2.4340 -1.9754 -2.3580
  697MOL0     H94034   9.781  10.068   8.027 -0.4207  0.9702 -0.1971
  697MOL0     H94035   9.742  10.056   8.203  0.6432 -0.8041  0.5256
  697MOL0     H94036   9.575  10.233   8.159  3.4469  5.0435 -0.9789
  697MOL0     H94037   9.621  10.239   7.981  0.7793 -0.9714  0.0434
  697MOL0     H94038   9.556   9.992   7.973 -1.5862  0.3552 -1.1587
  697MOL0     H94039   9.507  10.020   8.134 -1.7476 -2.3012 -1.2112
  697MOL0     H94040   9.341  10.204   8.027  1.7201  2.1173 -0.6005
  697MOL0     H94041   9.416  10.167   7.880 -1.1073 -0.6754 -0.5838
  697MOL0     H94042   9.311   9.954   7.839 -0.2272 -0.4427 -0.6986
  697MOL0     H94043   9.250   9.949   7.998  0.9038 -1.5246 -1.2610
  697MOL0     H94044   9.155  10.153   7.798  0.8935  2.4961  1.1522
  697MOL0     H94045   9.103  10.153   7.955 -0.4839  0.2926 -0.3728
  697MOL0     H94046   8.866  10.103   7.905  2.1855 -0.3266  2.3518
  697MOL0     H94047   8.674  10.023   7.702  2.6727  0.8646  0.5383
  697MOL0     H94048   8.695   9.851   7.639 -0.2483 -0.2415  0.5626
  697MOL0     H94049   8.610   9.900   7.925 -0.6099 -0.3445  0.0045
  697MOL0     H94050   8.622   9.743   7.834  0.1434 -0.0745 -1.6482
  697MOL0     H94051   8.454   9.860   7.676 -0.1619  0.9231 -0.9924
  697MOL0     H94052   8.444   9.973   7.799 -0.4709 -0.1169  3.3398
  697MOL0     H94053   8.347   9.783   7.958 -1.1681 -2.0082 -0.3245
  697MOL0     H94054   8.378   9.665   7.836 -1.6721 -0.8917  0.8536
  697MOL0     H94055   8.242   9.622   7.587 -0.7155 -1.4238 -2.0266
  697MOL0     H94056   8.058   9.509   7.402 -2.0674  0.9199  1.1058
  697MOL0     H94057   8.180   9.422   7.500  0.2458  0.4006 -1.0771
  697MOL0     H94058   8.013   9.366   7.498  0.3973 -0.2601  1.8605
  697MOL0     H94059   7.635   9.226   7.647 -1.2086  3.8154  0.9155
  697MOL0     H94060   7.439   9.097   7.560 -2.0476  1.5205  0.6275
  697MOL0     H94061   7.257   9.349   7.333 -0.4554  0.7820 -0.9603
  697MOL0     H94062   7.242   9.241   7.182 -1.7834 -0.4623  0.2072
  697MOL0     H94063   7.018   9.245   7.255  1.3406 -1.0469 -1.6521
  697MOL0     H94064   7.102   9.100   7.304  1.5272 -0.0352 -0.4898
  697MOL0     H94065   7.028   9.335   7.485  1.3928  0.4716 -2.9979
  697MOL0     H94066   7.144   9.212   7.530  0.0839 -2.1878  0.4989
  697MOL0     H94067   6.855   9.172   7.435 -0.3315  1.7940 -0.5696
  697MOL0     H94068   6.974   9.041   7.463  0.6801  0.9953 -0.5081
  697MOL0     H94069   6.851   9.264   7.651 -0.7402 -1.4329 -0.4557
  697MOL0     H94070   6.975   9.173   7.716 -0.4037  2.7088  0.7584
  697MOL0     H94071   6.736   9.035   7.576 -2.7160 -1.3867  1.5005
  697MOL0     H94072   6.826   8.977   7.712  2.9671 -0.7144 -4.5159
  697MOL0     H94073   6.637   9.222   7.674  3.3918  1.1034 -0.9935
  697MOL0     H94074   6.706   9.175   7.834  2.7401 -0.5269 -1.3003
  697MOL0     H94075   6.580   8.967   7.847 -0.9090  0.9675 -0.2413
  697MOL0     H94076   6.523   8.990   7.681  0.6211 -2.5515  0.6999
  697MOL0     H94077   7.470   9.293   7.191  4.0279 -2.5976 -1.8791
  697MOL0     H94078   7.688   9.406   7.260  1.5372  0.5653 -0.3241
  697MOL0     H94079   7.805   9.682   7.821  0.6663  3.3027  2.0265
  697MOL0     H94080   7.986   9.800   7.892 -1.5491  1.3106 -1.5073
  697MOL0     H94081  10.224  10.230   8.263  1.1786 -1.7332  1.7469
  697MOL0     H94082  10.474  10.203   8.262 -0.5271  0.9557  0.8071
  697MOL0     H94083  10.834   9.969   8.184  2.1759 -1.4503 -0.4771
  697MOL0     H94084  11.078   9.933   8.178 -3.3926 -2.9123 -1.4386
  697MOL0     H94085  11.353  10.239   7.987 -0.5371  1.4021 -0.2426
  697MOL0     H94086  11.291  10.311   8.143 -0.4682  2.6435 -3.6381
  697MOL0     H94087  11.545  10.251   8.086  0.3546 -0.7537 -0.2875
  697MOL0     H94088  11.498  10.089   8.096 -3.4738 -0.2876 -2.0748
  697MOL0     H94089  11.444  10.284   8.328  0.0682  0.1919  0.7441
  697MOL0     H94090  11.595  10.185   8.318 -0.2093  0.8900 -0.0644
  697MOL0     H94091  11.299  10.088   8.358  0.8824  1.4744 -0.1559
  697MOL0     H94092  11.418  10.095   8.478  0.6930  0.1823 -0.1416
  697MOL0     H94093  11.524   9.753   8.232 -2.5266 -1.4391  1.2134
  697MOL0     H94094  11.118  10.337   8.022  0.6999 -0.8830  1.0945
  697MOL0     H94095  10.880  10.365   8.038  1.1186  0.5948  0.1466
  698MOL0     O94096   0.455  10.406   5.151  0.3210  0.2785  0.8910
  698MOL0     C94097   0.472  10.295   5.095  0.8127 -0.2990  0.6913
  698MOL0     O94098   0.389  10.232   5.005 -1.0506 -0.1542 -0.2143
  698MOL0     C94099   0.277  10.311   4.961  1.9348  0.7439 -0.0971
  698MOL0     C94100   0.183  10.381   5.055 -0.5453 -0.1078 -0.1301
  698MOL0     C94101   0.068  10.437   4.996  0.4181 -0.2904 -0.5145
  698MOL0     C94102   0.037  10.426   4.862  0.2500 -0.2155 -0.3263
  698MOL0     O94103  -0.082  10.478   4.826 -0.6248 -0.4849  0.1953
  698MOL0     C94104  -0.122  10.480   4.688  0.0136 -0.0756  1.0414
  698MOL0     C94105  -0.253  10.565   4.682  0.2376  0.3610  0.2666
  698MOL0     C94106  -0.365  10.519   4.770  0.5962  0.2396 -0.5815
  698MOL0     C94107  -0.504  10.577   4.752  1.1033 -0.5856  0.1134
  698MOL0     C94108  -0.596  10.561   4.876  0.1055  0.9493 -0.6339
  698MOL0     C94109  -0.730  10.625   4.838  0.0367 -0.3911 -0.7212
  698MOL0     C94110  -0.840  10.606   4.952 -0.1646 -0.6130 -0.6947
  698MOL0     C94111  -0.972  10.668   4.919 -0.1016  0.8600  0.7680
  698MOL0     N94112  -1.054  10.579   4.838  0.2321  0.3631  0.1746
  698MOL0     C94113  -1.044  10.553   4.704 -0.4556  0.1955 -0.0741
  698MOL0     C94114  -1.156  10.471   4.672 -0.6937 -0.3151  0.2000
  698MOL0     C94115  -1.194  10.411   4.538 -0.6146  0.0891  0.4774
  698MOL0     C94116  -1.228  10.514   4.423 -0.0910  0.1133 -0.4495
  698MOL0     C94117  -1.268  10.458   4.286  0.9922  0.2881  0.0353
  698MOL0     C94118  -1.405  10.376   4.296  0.1139 -0.1973 -0.3601
  698MOL0     O94119  -1.389  10.247   4.351  0.9376 -0.2217 -0.6340
  698MOL0     C94120  -1.503  10.159   4.367 -0.1961  0.4605 -0.8720
  698MOL0     C94121  -1.476  10.031   4.414  0.0836 -0.8270 -0.3415
  698MOL0     C94122  -1.575   9.935   4.421 -0.3292  0.3864 -0.6251
  698MOL0     C94123  -1.533   9.800   4.477  0.2330  0.0576  0.3714
  698MOL0     C94124  -1.707   9.965   4.381  0.0233 -0.6673 -0.2769
  698MOL0     C94125  -1.828   9.878   4.379 -0.4819 -0.0494 -0.2599
  698MOL0     O94126  -1.938   9.917   4.307  0.0753  0.7900 -0.3395
  698MOL0     C94127  -2.057   9.842   4.330 -0.7997 -0.4443  1.1935
  698MOL0     C94128  -2.065   9.704   4.311 -0.3316  0.2139 -0.5080
  698MOL0     C94129  -2.187   9.639   4.328 -0.2397 -1.1006 -0.0961
  698MOL0     C94130  -2.298   9.705   4.378 -0.2873 -0.2450 -0.1992
  698MOL0     O94131  -2.424   9.658   4.397 -0.9162  0.0187 -0.6594
  698MOL0     C94132  -2.457   9.526   4.357  0.6382  0.1622 -0.0024
  698MOL0     C94133  -2.601   9.509   4.400 -0.5121  1.1036  0.5343
  698MOL0     C94134  -2.610   9.459   4.548 -0.9457  0.4354  0.9593
  698MOL0     C94135  -2.758   9.481   4.609 -0.8175 -0.2277  0.4199
  698MOL0     C94136  -2.866   9.395   4.544  1.4206 -0.0012  0.2775
  698MOL0     C94137  -2.993   9.414   4.635 -0.0198  0.5755 -0.4721
  698MOL0     C94138  -3.103   9.315   4.592 -0.9654 -0.1852  0.8606
  698MOL0     C94139  -3.229   9.308   4.682  0.0394 -0.0786 -0.4889
  698MOL0    Cl94140  -3.326   9.458   4.662 -0.6643 -0.5219 -0.0875
  698MOL0     C94141  -2.283   9.839   4.413 -0.1895  0.2809  0.5742
  698MOL0     C94142  -2.165   9.913   4.378 -0.3526  0.6259 -1.5719
  698MOL0     O94143  -1.814   9.773   4.440  0.7551  0.6071 -0.0165
  698MOL0     C94144  -1.731  10.096   4.339 -0.5569 -0.2579 -0.1263
  698MOL0     C94145  -1.634  10.192   4.330 -0.3261 -0.6313 -1.0512
  698MOL0     N94146  -1.232  10.461   4.795  0.0828 -0.0281  0.6830
  698MOL0     N94147  -1.165  10.520   4.892  0.2351 -0.5971  0.2886
  698MOL0     C94148   0.118  10.351   4.776  1.2312  1.0547  0.2200
  698MOL0     C94149   0.241  10.296   4.821  0.3594  0.3382 -0.2888
  698MOL0     C94150   0.604  10.219   5.114 -0.4575 -0.2232  0.4307
  698MOL0     C94151   0.663  10.158   5.009 -0.6995  0.4431  0.1596
  698MOL0     C94152   0.780  10.084   5.028  0.2798 -0.5868  0.2542
  698MOL0     C94153   0.845  10.087   5.154  0.0154  0.9956 -0.3100
  698MOL0     O94154   0.971  10.031   5.180 -0.6818  0.3201 -0.2720
  698MOL0     C94155   1.077  10.123   5.212  1.0516 -0.4303 -0.5515
  698MOL0     C94156   1.188  10.087   5.117 -0.1263  0.1932 -0.1075
  698MOL0     C94157   1.160  10.107   4.968 -0.7131  0.5597  0.1800
  698MOL0     C94158   1.101  10.249   4.940 -0.3840 -0.6078  0.4375
  698MOL0     C94159   1.210  10.339   4.957 -0.8318  0.1866 -0.6839
  698MOL0     C94160   1.311  10.412   4.970 -0.7419  0.0949 -0.1874
  698MOL0     C94161   0.790  10.160   5.256  0.3729 -0.3291  0.2924
  698MOL0     C94162   0.669  10.230   5.237 -1.6010  1.7606 -0.1777
  698MOL0     H94163   0.194  10.396   5.162 -1.7106  1.7898 -0.2444
  698MOL0     H94164  -0.008  10.474   5.064  0.7377  2.2962 -1.4562
  698MOL0     H94165  -0.047  10.538   4.634 -1.1683  1.6608  1.1685
  698MOL0     H94166  -0.135  10.382   4.641  1.4214  0.6780 -1.0687
  698MOL0     H94167  -0.228  10.668   4.709  4.3136 -0.3203 -0.2325
  698MOL0     H94168  -0.300  10.560   4.584 -0.2447  0.8811  0.4660
  698MOL0     H94169  -0.364  10.410   4.766  2.8162  0.0655  2.0638
  698MOL0     H94170  -0.342  10.542   4.875 -0.2905  1.2304 -0.5942
  698MOL0     H94171  -0.497  10.679   4.713 -0.0087  0.5315  2.6067
  698MOL0     H94172  -0.552  10.528   4.667  1.1365 -0.2089 -0.1275
  698MOL0     H94173  -0.605  10.456   4.907  0.7185  1.8097  2.8862
  698MOL0     H94174  -0.555  10.616   4.960 -2.4182  0.0943  1.2863
  698MOL0     H94175  -0.725  10.733   4.819 -2.1606 -0.7093 -3.9812
  698MOL0     H94176  -0.762  10.577   4.745 -2.1318  0.5739 -0.5295
  698MOL0     H94177  -0.844  10.503   4.989  1.3872 -0.0688  1.1541
  698MOL0     H94178  -0.807  10.668   5.036  0.8683  3.4206 -3.7831
  698MOL0     H94179  -0.950  10.764   4.870  3.4007 -0.4907 -0.6326
  698MOL0     H94180  -1.018  10.688   5.016  1.7061 -1.9258  2.3111
  698MOL0     H94181  -0.964  10.582   4.637  1.7447 -0.5282  2.1084
  698MOL0     H94182  -1.117  10.342   4.501 -0.1613  1.9656 -2.4539
  698MOL0     H94183  -1.285  10.352   4.553  0.5452 -1.8232  0.3311
  698MOL0     H94184  -1.138  10.573   4.402  0.8593 -1.7362 -2.0328
  698MOL0     H94185  -1.307  10.585   4.448 -1.2863  0.0279 -3.5515
  698MOL0     H94186  -1.189  10.389   4.254  0.8862 -0.4632  1.3043
  698MOL0     H94187  -1.276  10.538   4.212  0.9766 -1.1636 -1.5946
  698MOL0     H94188  -1.451  10.372   4.197  0.4646  2.6354 -0.7238
  698MOL0     H94189  -1.478  10.435   4.352 -2.8549 -1.0763 -3.0146
  698MOL0     H94190  -1.377  10.009   4.453 -0.1528 -0.5796  0.4335
  698MOL0     H94191  -1.426   9.793   4.498  0.9759 -0.7358 -3.1113
  698MOL0     H94192  -1.590   9.783   4.569  1.7268 -2.0652  0.9903
  698MOL0     H94193  -1.549   9.716   4.409  1.6840  0.1091 -0.0656
  698MOL0     H94194  -1.979   9.652   4.269 -0.6116 -1.4213  0.8272
  698MOL0     H94195  -2.204   9.535   4.302  2.1069 -2.0527  1.8178
  698MOL0     H94196  -2.457   9.536   4.248  0.9504 -0.0711 -0.0223
  698MOL0     H94197  -2.391   9.450   4.399 -1.1988 -0.8777  1.1323
  698MOL0     H94198  -2.663   9.594   4.370  0.4493  1.6008 -0.0798
  698MOL0     H94199  -2.634   9.428   4.333  1.7960  1.2937 -0.9259
  698MOL0     H94200  -2.547   9.523   4.610 -1.0436 -2.8644  4.9012
  698MOL0     H94201  -2.578   9.355   4.556  0.4486  0.8264  0.6747
  698MOL0     H94202  -2.759   9.490   4.718  1.1927  0.2735  0.4494
  698MOL0     H94203  -2.781   9.585   4.581 -3.1119 -0.3443  1.6865
  698MOL0     H94204  -2.833   9.292   4.533  0.6928 -0.0550 -1.8895
  698MOL0     H94205  -2.896   9.425   4.443  2.8778 -2.0957 -0.8387
  698MOL0     H94206  -2.982   9.393   4.742  1.6589  0.2832 -0.6707
  698MOL0     H94207  -3.038   9.512   4.614  1.5877  1.0730 -1.8910
  698MOL0     H94208  -3.051   9.219   4.593 -1.0109 -0.4356 -3.2528
  698MOL0     H94209  -3.122   9.333   4.486  0.6735  2.1095  0.8782
  698MOL0     H94210  -3.208   9.282   4.787  0.1318  0.6133 -0.3307
  698MOL0     H94211  -3.297   9.235   4.639 -2.7778  0.4591  2.6650
  698MOL0     H94212  -2.369   9.891   4.451  0.1365 -1.3492  3.8288
  698MOL0     H94213  -2.163  10.022   4.384  1.6129  0.5692 -0.0089
  698MOL0     H94214  -1.820  10.131   4.288 -0.3014 -0.9518 -1.0651
  698MOL0     H94215  -1.657  10.293   4.298 -3.2131 -0.3066  1.5799
  698MOL0     H94216   0.099  10.343   4.670  0.3642  0.2383  0.4258
  698MOL0     H94217   0.301  10.239   4.750 -1.5105 -1.7422 -0.2929
  698MOL0     H94218   0.607  10.144   4.917 -1.2092 -0.2189  0.5592
  698MOL0     H94219   0.831  10.027   4.951 -0.0902 -2.2488  1.1776
  698MOL0     H94220   1.058  10.231   5.206  1.3807 -0.3186  0.1562
  698MOL0     H94221   1.119  10.117   5.313  2.7788 -0.3426 -1.2293
  698MOL0     H94222   1.214   9.984   5.140  0.3188  0.3517  0.1177
  698MOL0     H94223   1.274  10.146   5.151 -0.3045  1.0576 -1.0965
  698MOL0     H94224   1.087  10.037   4.927  0.4250  0.4044 -1.7273
  698MOL0     H94225   1.256  10.086   4.920 -0.0534  0.8419  1.3315
  698MOL0     H94226   1.016  10.268   5.006 -0.7930  1.2802 -0.5788
  698MOL0     H94227   1.060  10.253   4.839  1.0135 -2.6584 -0.2781
  698MOL0     H94228   1.399  10.472   4.984 -1.2490  0.8415 -0.1416
  698MOL0     H94229   0.839  10.164   5.353 -0.9896 -0.3096  1.0144
  698MOL0     H94230   0.618  10.293   5.309 -1.3840  0.9156  0.7535
  699MOL0     O94231  10.775   3.799  10.283 -0.1061  0.1721 -0.5039
  699MOL0     C94232  10.737   3.908  10.257  0.7378 -0.6345  0.3327
  699MOL0     O94233  10.622   3.938  10.188  0.1872 -0.0375  0.7804
  699MOL0     C94234  10.545   3.841  10.136  1.0594 -0.3818 -0.6087
  699MOL0     C94235  10.485   3.749  10.220 -0.2215 -0.2898  0.0615
  699MOL0     C94236  10.391   3.649  10.174 -0.3303 -0.2258 -0.0736
  699MOL0     C94237  10.370   3.641  10.038  1.0134 -0.4080  0.6942
  699MOL0     O94238  10.276   3.561   9.976 -0.5244 -0.3844  0.2005
  699MOL0     C94239  10.138   3.570  10.012 -1.2755  0.9482 -0.1894
  699MOL0     C94240  10.057   3.573   9.885  0.8275  0.5222  0.7388
  699MOL0     C94241   9.909   3.596   9.928 -0.0684  0.2210  0.1567
  699MOL0     C94242   9.812   3.585   9.806 -0.0730  0.2416  0.2893
  699MOL0     C94243   9.662   3.600   9.821 -0.5920 -0.4712  0.6597
  699MOL0     C94244   9.584   3.612   9.690  0.5340  0.5598 -0.2281
  699MOL0     C94245   9.440   3.581   9.707 -0.3147 -0.0113 -0.8651
  699MOL0     C94246   9.357   3.581   9.579  0.6728 -0.5484 -0.6798
  699MOL0     N94247   9.375   3.457   9.498  0.1549 -0.4176 -0.2916
  699MOL0     C94248   9.475   3.428   9.402 -0.6757  0.2815 -1.2706
  699MOL0     C94249   9.457   3.296   9.374  0.1730  0.5540  0.8516
  699MOL0     C94250   9.540   3.219   9.268  0.9207 -0.8738 -0.5686
  699MOL0     C94251   9.527   3.276   9.126 -0.2205  1.3247 -0.0767
  699MOL0     C94252   9.383   3.265   9.072 -0.2958  0.4227 -0.2336
  699MOL0     C94253   9.319   3.124   9.078  0.3247  0.8517 -0.1407
  699MOL0     O94254   9.204   3.113   8.991 -0.4337 -0.9437 -0.1395
  699MOL0     C94255   9.082   3.156   9.033  0.6166 -0.3783 -0.3417
  699MOL0     C94256   8.984   3.157   8.937  0.5253 -0.7312  0.0645
  699MOL0     C94257   8.861   3.216   8.962  0.3941 -0.1705  0.3521
  699MOL0     C94258   8.757   3.235   8.848 -1.2734 -0.1368 -0.8534
  699MOL0     C94259   8.837   3.277   9.086  0.6644  0.3306 -0.2587
  699MOL0     C94260   8.701   3.341   9.132  0.1869 -0.4247 -0.4640
  699MOL0     O94261   8.689   3.371   9.265  0.3098 -0.0598 -0.3322
  699MOL0     C94262   8.574   3.433   9.303 -0.2428 -0.4308  0.1188
  699MOL0     C94263   8.453   3.368   9.351 -0.6174 -0.0071  0.1056
  699MOL0     C94264   8.341   3.448   9.382  0.4681  0.7039  0.4344
  699MOL0     C94265   8.340   3.590   9.367 -0.4842  0.1346  0.3583
  699MOL0     O94266   8.232   3.666   9.390 -0.2363  0.1312  0.3581
  699MOL0     C94267   8.129   3.619   9.477  0.1680  0.0767  0.0346
  699MOL0     C94268   8.022   3.732   9.500 -0.0875 -0.7359 -0.5633
  699MOL0     C94269   7.905   3.678   9.584 -0.8012 -0.9753  0.8343
  699MOL0     C94270   7.774   3.765   9.554 -0.1470 -0.1509 -0.0822
  699MOL0     C94271   7.655   3.729   9.643  0.0223  0.1716 -0.1110
  699MOL0     C94272   7.535   3.826   9.617  0.4567 -0.2856 -1.4735
  699MOL0     C94273   7.425   3.786   9.718  0.0832  0.0609  0.4534
  699MOL0     C94274   7.287   3.853   9.697 -0.6749  0.3969 -0.7220
  699MOL0    Cl94275   7.220   3.817   9.535  0.1087 -0.0137  0.1584
  699MOL0     C94276   8.459   3.649   9.325  0.5203  0.2657 -0.6302
  699MOL0     C94277   8.565   3.573   9.299  0.1215  0.3978  0.0113
  699MOL0     O94278   8.608   3.353   9.051  0.5335  0.1049 -0.1515
  699MOL0     C94279   8.939   3.270   9.189  0.2290  0.0114  0.7586
  699MOL0     C94280   9.057   3.216   9.162  0.3604  0.7036 -0.5410
  699MOL0     N94281   9.341   3.248   9.439  0.0986 -0.7782  0.5633
  699MOL0     N94282   9.291   3.351   9.506 -0.5218 -0.2260 -0.2672
  699MOL0     C94283  10.443   3.716   9.949  0.7702 -0.0360  0.7130
  699MOL0     C94284  10.522   3.826   9.998 -1.1858  0.1314 -0.4014
  699MOL0     C94285  10.830   4.018  10.297 -0.2035  0.3143 -0.3568
  699MOL0     C94286  10.866   4.024  10.433 -0.1196 -0.1627 -0.0753
  699MOL0     C94287  10.951   4.127  10.474 -0.1076 -0.5294  0.6028
  699MOL0     C94288  11.001   4.217  10.374  0.5495  0.3278  0.7599
  699MOL0     O94289  11.084   4.322  10.413  0.0290  0.1860 -0.4071
  699MOL0     C94290  11.190   4.357  10.319  1.0056  0.1763  0.5065
  699MOL0     C94291  11.255   4.484  10.366 -0.1213  1.0903 -0.0186
  699MOL0     C94292  11.170   4.609  10.359  0.1990  0.4547 -0.5208
  699MOL0     C94293  11.252   4.730  10.401  0.0568  0.1028  0.5570
  699MOL0     C94294  11.180   4.859  10.384  0.3424  0.2284  0.1583
  699MOL0     C94295  11.143   4.976  10.389 -0.4607  0.5293  0.0524
  699MOL0     C94296  10.971   4.200  10.235  1.0489  1.2365  0.0624
  699MOL0     C94297  10.877   4.104  10.200  0.4195  0.2129 -0.1406
  699MOL0     H94298  10.512   3.747  10.325  1.5460 -1.2505 -0.3680
  699MOL0     H94299  10.342   3.579  10.241 -3.2510  0.5215 -1.2771
  699MOL0     H94300  10.116   3.478  10.066 -1.1248  0.2577 -1.2680
  699MOL0     H94301  10.125   3.661  10.072  3.2037  0.8547  1.3213
  699MOL0     H94302  10.084   3.651   9.813 -0.2000 -0.5177 -0.8281
  699MOL0     H94303  10.049   3.476   9.835  1.9801 -1.1136  3.4848
  699MOL0     H94304   9.871   3.523   9.999 -0.8046  0.0492 -0.3976
  699MOL0     H94305   9.912   3.690   9.983  4.6398  0.3748  0.0849
  699MOL0     H94306   9.839   3.673   9.747  2.3178 -2.2890 -2.7812
  699MOL0     H94307   9.836   3.494   9.751  0.2846 -0.1333  1.0401
  699MOL0     H94308   9.623   3.517   9.880 -0.0577 -1.7541 -0.7004
  699MOL0     H94309   9.640   3.691   9.876 -1.0666 -1.2906  1.8534
  699MOL0     H94310   9.610   3.710   9.650 -1.0122 -0.5406 -4.4500
  699MOL0     H94311   9.622   3.536   9.621 -0.6944 -2.3914  2.1358
  699MOL0     H94312   9.410   3.494   9.767 -1.0878  1.2006  0.5524
  699MOL0     H94313   9.406   3.673   9.756 -1.3723 -0.1009 -1.4028
  699MOL0     H94314   9.394   3.665   9.521  0.9863  0.2258  0.5999
  699MOL0     H94315   9.250   3.601   9.595  0.7848  0.6025 -1.3221
  699MOL0     H94316   9.546   3.494   9.352  0.3023  0.7844  0.6845
  699MOL0     H94317   9.645   3.221   9.301  0.7723 -0.4004 -0.1023
  699MOL0     H94318   9.508   3.115   9.278  3.0303 -1.4589  0.9889
  699MOL0     H94319   9.588   3.210   9.065 -0.2640  2.5535 -1.5082
  699MOL0     H94320   9.565   3.379   9.124 -0.8408  1.5864  0.6226
  699MOL0     H94321   9.377   3.288   8.965  1.0098 -0.7194 -0.5773
  699MOL0     H94322   9.319   3.337   9.124 -1.4031 -1.0607  0.5483
  699MOL0     H94323   9.284   3.104   9.180 -1.8014  0.7029 -0.8716
  699MOL0     H94324   9.394   3.049   9.051 -0.1638  1.3096 -3.1054
  699MOL0     H94325   9.017   3.121   8.840  0.5678 -0.6424  0.0465
  699MOL0     H94326   8.816   3.232   8.755  1.5483  1.5506  0.7580
  699MOL0     H94327   8.676   3.163   8.834  0.0653 -1.5475 -1.7208
  699MOL0     H94328   8.729   3.341   8.844 -0.2091  0.1991  0.2419
  699MOL0     H94329   8.459   3.263   9.376  3.1886  0.1827  0.5610
  699MOL0     H94330   8.252   3.392   9.407 -0.4726  0.6878 -2.5754
  699MOL0     H94331   8.075   3.533   9.437 -1.2565  0.3806  1.2127
  699MOL0     H94332   8.163   3.581   9.574  2.0144  2.4660  0.4274
  699MOL0     H94333   8.075   3.810   9.555 -0.4107 -0.5130 -0.5661
  699MOL0     H94334   7.984   3.772   9.405 -1.3743 -1.1569 -0.2473
  699MOL0     H94335   7.929   3.689   9.690 -0.2395  0.7715  0.5597
  699MOL0     H94336   7.891   3.571   9.565  1.4399 -1.9465  3.8866
  699MOL0     H94337   7.799   3.864   9.592 -1.4856  0.0676  0.2754
  699MOL0     H94338   7.739   3.769   9.450 -1.3459  0.7416  0.3326
  699MOL0     H94339   7.666   3.731   9.752 -3.3383  0.5375  0.3454
  699MOL0     H94340   7.621   3.629   9.616 -0.6185  0.2187  0.4843
  699MOL0     H94341   7.571   3.927   9.639  0.0358 -0.2857 -0.7668
  699MOL0     H94342   7.500   3.815   9.514  5.1938 -3.9497 -3.0521
  699MOL0     H94343   7.453   3.800   9.823 -2.9344 -0.3349  1.4232
  699MOL0     H94344   7.402   3.679   9.711 -2.9976  0.3664  3.3409
  699MOL0     H94345   7.314   3.959   9.697  0.7317  0.0720 -1.4539
  699MOL0     H94346   7.223   3.838   9.784 -0.1630  2.4616  0.0551
  699MOL0     H94347   8.454   3.757   9.312 -2.4991  0.0693 -1.9915
  699MOL0     H94348   8.659   3.622   9.274 -0.1992  0.5350 -0.9966
  699MOL0     H94349   8.917   3.304   9.289 -0.2820 -1.1642  1.0625
  699MOL0     H94350   9.124   3.220   9.247  1.7742  2.4299 -1.6492
  699MOL0     H94351  10.432   3.701   9.842  0.2014 -0.0490  0.7725
  699MOL0     H94352  10.585   3.895   9.942 -0.2977  1.0241  1.6071
  699MOL0     H94353  10.834   3.946  10.502 -2.4147  2.0680  1.5502
  699MOL0     H94354  10.989   4.141  10.574  0.9748 -2.3334  0.4914
  699MOL0     H94355  11.258   4.272  10.308  0.1599 -0.3480 -1.0522
  699MOL0     H94356  11.145   4.384  10.223 -1.3663  0.8388  1.7346
  699MOL0     H94357  11.343   4.501  10.305  0.0572 -1.2335 -0.5017
  699MOL0     H94358  11.283   4.472  10.471  2.4136 -0.2613 -0.7755
  699MOL0     H94359  11.082   4.615  10.424  1.3436  3.2746  0.9703
  699MOL0     H94360  11.129   4.628  10.259 -0.8424  0.8051 -0.0443
  699MOL0     H94361  11.344   4.736  10.344  2.0479  0.9805  3.5880
  699MOL0     H94362  11.286   4.713  10.504  1.1971 -4.5716 -0.3848
  699MOL0     H94363  11.106   5.075  10.408  1.1077  0.9024  1.4385
  699MOL0     H94364  11.021   4.253  10.155  1.5942  0.5326 -0.0756
  699MOL0     H94365  10.860   4.074  10.097  2.5690  0.9880 -0.7773
  700MOL0     O94366   3.817   5.808  10.252 -0.1384  0.3124 -0.5755
  700MOL0     C94367   3.857   5.784  10.369 -0.3258  0.8531 -0.1775
  700MOL0     O94368   3.783   5.804  10.484  1.3495  0.7277  0.2791
  700MOL0     C94369   3.659   5.859  10.485 -0.3208  0.1364  0.0225
  700MOL0     C94370   3.584   5.827  10.599 -0.4223  0.3425 -0.0650
  700MOL0     C94371   3.473   5.911  10.634  0.0854 -0.1145  0.8680
  700MOL0     C94372   3.421   5.999  10.536 -0.0189  0.3744  0.5697
  700MOL0     O94373   3.305   6.072  10.552 -0.2020  0.2465  0.2245
  700MOL0     C94374   3.204   6.027  10.635  0.3767 -0.2867  0.0538
  700MOL0     C94375   3.089   6.125  10.621  1.1729  0.7583  0.0032
  700MOL0     C94376   2.970   6.078  10.704 -0.2146 -0.3339 -0.1355
  700MOL0     C94377   2.845   6.157  10.659 -0.5613  0.4038  0.4779
  700MOL0     C94378   2.717   6.140  10.750 -0.7583  0.8305 -0.6253
  700MOL0     C94379   2.604   6.230  10.701  0.1841  0.5279 -0.9904
  700MOL0     C94380   2.460   6.173  10.723 -0.3562  0.6688  0.0726
  700MOL0     C94381   2.364   6.286  10.708  0.3743 -0.4911  0.2362
  700MOL0     N94382   2.223   6.252  10.672 -0.0537  0.2335  0.5035
  700MOL0     C94383   2.137   6.180  10.751  0.0097  0.8424 -0.6898
  700MOL0     C94384   2.028   6.160  10.668 -1.1608  0.8080 -0.0891
  700MOL0     C94385   1.895   6.093  10.708  0.4309 -0.6946  0.6948
  700MOL0     C94386   1.783   6.190  10.689  0.7622  0.9906  0.1978
  700MOL0     C94387   1.651   6.134  10.751 -0.3753  0.3209 -0.3798
  700MOL0     C94388   1.535   6.227  10.732 -0.2258 -0.1660  0.2533
  700MOL0     O94389   1.444   6.199  10.844  0.9908 -0.6090 -0.4697
  700MOL0     C94390   1.311   6.226  10.817  0.7187  1.0589  0.2976
  700MOL0     C94391   1.216   6.131  10.840 -0.6477  0.2661  0.1302
  700MOL0     C94392   1.085   6.144  10.794  1.0721  0.4449  0.1037
  700MOL0     C94393   0.996   6.015  10.818  0.7919 -0.7126 -0.3331
  700MOL0     C94394   1.038   6.265  10.734  0.2166  0.4066 -0.0727
  700MOL0     C94395   0.902   6.292  10.672  0.9686  0.4323 -0.1792
  700MOL0     O94396   0.816   6.185  10.674 -0.0828  0.1450  0.0077
  700MOL0     C94397   0.703   6.199  10.609 -0.2288 -0.4661  0.6956
  700MOL0     C94398   0.596   6.253  10.678  0.0282  0.5051 -0.3329
  700MOL0     C94399   0.474   6.267  10.612  0.1867 -0.2525  0.7434
  700MOL0     C94400   0.464   6.251  10.467  0.2705 -0.2504  0.2397
  700MOL0     O94401   0.348   6.270  10.401 -0.0626 -0.2948 -0.1346
  700MOL0     C94402   0.258   6.169  10.424  0.0656  0.4917  0.1066
  700MOL0     C94403   0.135   6.171  10.329 -0.7387 -0.3525  0.4071
  700MOL0     C94404   0.063   6.305  10.332 -0.6310 -0.0176  0.2680
  700MOL0     C94405  -0.072   6.314  10.253 -0.8720  0.3280 -0.5253
  700MOL0     C94406  -0.111   6.463  10.277  0.6676  0.4505 -0.0084
  700MOL0     C94407  -0.248   6.486  10.206  0.0826  0.9518 -0.6143
  700MOL0     C94408  -0.295   6.628  10.217  0.5095 -0.5488  0.1702
  700MOL0     C94409  -0.428   6.659  10.147  0.4635 -0.0402 -0.3992
  700MOL0    Cl94410  -0.422   6.644   9.967 -0.1641 -0.3372 -0.2962
  700MOL0     C94411   0.583   6.217  10.404 -0.2551  0.1389  0.2772
  700MOL0     C94412   0.705   6.187  10.467 -0.0153  0.7308 -0.3329
  700MOL0     O94413   0.884   6.400  10.617  0.6526 -0.2762 -0.9479
  700MOL0     C94414   1.143   6.355  10.704  0.1007 -0.2673  0.6655
  700MOL0     C94415   1.273   6.337  10.747 -0.0664 -0.2981 -0.7418
  700MOL0     N94416   2.057   6.202  10.535 -0.3736 -0.4019 -0.8894
  700MOL0     N94417   2.171   6.269  10.543 -1.1045 -0.3777 -0.4353
  700MOL0     C94418   3.493   6.030  10.424  0.0079  0.0273  0.0261
  700MOL0     C94419   3.613   5.964  10.402 -0.5925 -0.3559  0.0413
  700MOL0     C94420   3.993   5.746  10.386  0.1421 -0.1402  0.7475
  700MOL0     C94421   4.055   5.770  10.509 -0.4655 -0.8944  0.0492
  700MOL0     C94422   4.186   5.726  10.528 -0.9133  0.3953 -1.2873
  700MOL0     C94423   4.257   5.659  10.428 -0.0373  0.2959 -0.6104
  700MOL0     O94424   4.381   5.606  10.449  0.4379  0.2294 -0.5204
  700MOL0     C94425   4.389   5.462  10.447  0.4453  0.5440  0.3406
  700MOL0     C94426   4.523   5.418  10.397  0.9560  0.3045  0.4527
  700MOL0     C94427   4.637   5.479  10.472  0.1774 -0.3869  0.8029
  700MOL0     C94428   4.776   5.446  10.411 -0.1374  1.2137 -0.1444
  700MOL0     C94429   4.809   5.488  10.268  0.0307 -0.3914  0.5275
  700MOL0     C94430   4.843   5.501  10.152  1.1073 -0.1313  0.9444
  700MOL0     C94431   4.195   5.637  10.306 -0.1449  0.8352  0.4280
  700MOL0     C94432   4.066   5.679  10.282  0.2863  0.4503  0.4461
  700MOL0     H94433   3.624   5.754  10.668 -2.6147 -1.1636 -0.3072
  700MOL0     H94434   3.431   5.888  10.731  0.4790  3.1597  1.9540
  700MOL0     H94435   3.160   5.933  10.600 -2.7874  2.4360 -4.2991
  700MOL0     H94436   3.245   6.029  10.736 -0.4102  1.3015  0.3822
  700MOL0     H94437   3.124   6.219  10.664  1.3460  1.5446 -1.7533
  700MOL0     H94438   3.059   6.140  10.516 -0.2765 -0.5582  0.1877
  700MOL0     H94439   2.946   5.972  10.695  0.6575 -0.4271 -1.7707
  700MOL0     H94440   2.989   6.086  10.811 -1.9622 -0.5759  0.2149
  700MOL0     H94441   2.862   6.265  10.657 -0.4228  0.3898 -1.9397
  700MOL0     H94442   2.811   6.119  10.562 -0.0933 -2.1989  1.2532
  700MOL0     H94443   2.684   6.037  10.731  1.5763  0.2602 -1.9435
  700MOL0     H94444   2.744   6.158  10.854  2.2590  0.1606 -1.1846
  700MOL0     H94445   2.616   6.324  10.755  1.2338 -0.3032  0.2712
  700MOL0     H94446   2.623   6.254  10.595  1.3723 -0.5754 -1.0495
  700MOL0     H94447   2.428   6.086  10.665 -2.1058 -1.2380  3.5346
  700MOL0     H94448   2.452   6.135  10.825  0.3869 -1.0548 -0.4780
  700MOL0     H94449   2.399   6.365  10.640  1.2689 -0.6031  0.5547
  700MOL0     H94450   2.360   6.334  10.807 -4.5672 -0.8271  0.4294
  700MOL0     H94451   2.148   6.147  10.854 -2.0125 -2.2157 -1.3363
  700MOL0     H94452   1.872   6.002  10.652  0.1921 -1.2025  1.6032
  700MOL0     H94453   1.889   6.076  10.816 -1.7455 -0.6138  0.6310
  700MOL0     H94454   1.770   6.209  10.582 -1.3205  1.1425  0.4421
  700MOL0     H94455   1.814   6.290  10.721 -1.9044  2.1429 -0.5449
  700MOL0     H94456   1.668   6.127  10.859 -2.8246 -2.3402 -0.0560
  700MOL0     H94457   1.629   6.033  10.717 -0.7291 -0.5333  2.1962
  700MOL0     H94458   1.499   6.216  10.629  2.1764  0.6702 -0.7417
  700MOL0     H94459   1.555   6.334  10.739 -2.7497  0.3105  1.5671
  700MOL0     H94460   1.249   6.046  10.898 -0.3014  0.3573  0.0673
  700MOL0     H94461   1.021   5.954  10.905  0.2974  0.2657  0.5133
  700MOL0     H94462   0.895   6.055  10.831  0.8967  0.2227 -2.0786
  700MOL0     H94463   0.999   5.964  10.721 -2.5914 -3.1845  0.6821
  700MOL0     H94464   0.605   6.266  10.786  1.7139 -2.2319 -0.0258
  700MOL0     H94465   0.386   6.305  10.663 -0.0422  2.1511 -1.2605
  700MOL0     H94466   0.295   6.067  10.421 -3.4073 -0.9065 -0.7384
  700MOL0     H94467   0.213   6.179  10.524 -1.0044  3.5285 -0.5656
  700MOL0     H94468   0.178   6.149  10.230 -0.5131  4.0236 -0.6858
  700MOL0     H94469   0.069   6.086  10.346 -0.0520 -1.7886 -3.2154
  700MOL0     H94470   0.125   6.387  10.294  0.5783 -1.2772 -0.6164
  700MOL0     H94471   0.043   6.323  10.438 -0.8933  2.5670 -0.1548
  700MOL0     H94472  -0.063   6.293  10.145  0.6499 -1.5906 -0.0895
  700MOL0     H94473  -0.151   6.252  10.296 -0.0441  0.7952  1.7841
  700MOL0     H94474  -0.038   6.538  10.243  1.9033  1.6031  4.5677
  700MOL0     H94475  -0.113   6.476  10.385 -1.4842 -3.4838  0.6106
  700MOL0     H94476  -0.241   6.465  10.099 -1.8714 -0.9662 -0.4400
  700MOL0     H94477  -0.322   6.413  10.239  2.2367 -0.3846  1.6113
  700MOL0     H94478  -0.223   6.704  10.185  0.0382 -0.3278 -0.3563
  700MOL0     H94479  -0.299   6.650  10.325  0.7974  1.3289 -0.1683
  700MOL0     H94480  -0.461   6.759  10.175 -1.2979 -0.5867 -0.4092
  700MOL0     H94481  -0.495   6.578  10.178 -0.5488  1.2161  0.8489
  700MOL0     H94482   0.575   6.216  10.296  0.9175  2.9198  0.0797
  700MOL0     H94483   0.793   6.160  10.409  0.7787  2.0358  0.2081
  700MOL0     H94484   1.123   6.450  10.654  2.0115 -0.0764  0.1715
  700MOL0     H94485   1.352   6.408  10.726  1.6941 -2.0266 -0.3454
  700MOL0     H94486   3.466   6.111  10.357 -2.3029 -0.6338  0.0724
  700MOL0     H94487   3.675   5.996  10.319 -0.0272  2.0588  1.3042
  700MOL0     H94488   3.995   5.819  10.584  0.7450  0.5368  0.1265
  700MOL0     H94489   4.238   5.726  10.623 -0.2573 -1.8180 -1.6011
  700MOL0     H94490   4.383   5.413  10.545 -2.3738 -0.3192 -0.1611
  700MOL0     H94491   4.316   5.409  10.385  0.3980  0.3224  0.5841
  700MOL0     H94492   4.531   5.447  10.291 -0.5780 -0.6914  0.0326
  700MOL0     H94493   4.532   5.309  10.400 -1.4931 -0.0824 -2.1773
  700MOL0     H94494   4.632   5.440  10.574 -0.0328 -0.7396  0.6603
  700MOL0     H94495   4.632   5.588  10.466  4.2622 -0.0940 -3.9336
  700MOL0     H94496   4.798   5.339  10.400 -0.8763  1.2099 -2.0342
  700MOL0     H94497   4.850   5.484  10.481  0.3011  0.0338  0.0535
  700MOL0     H94498   4.848   5.506  10.045  0.9112 -2.8120  0.7628
  700MOL0     H94499   4.235   5.572  10.229 -2.8087  0.9850 -1.2162
  700MOL0     H94500   4.016   5.661  10.187  2.4408  3.2409 -1.3814
  701MOL0     O94501   6.808   5.932   7.694 -0.4980 -0.0921  0.0205
  701MOL0     C94502   6.849   5.937   7.804  0.2118 -0.1722 -0.3663
  701MOL0     O94503   6.782   5.892   7.908  0.5015  0.5266 -0.6600
  701MOL0     C94504   6.682   5.790   7.896 -0.5586 -0.0203  0.3214
  701MOL0     C94505   6.573   5.815   7.985  0.2925  0.4755  0.1721
  701MOL0     C94506   6.457   5.735   7.972  0.5787  0.2366  0.4745
  701MOL0     C94507   6.448   5.628   7.879 -0.2840 -0.4341 -0.4094
  701MOL0     O94508   6.339   5.551   7.853  0.1520  0.6769 -0.2069
  701MOL0     C94509   6.221   5.560   7.941  0.3779 -0.1823  0.4394
  701MOL0     C94510   6.115   5.461   7.881  0.5890 -0.6485 -1.1773
  701MOL0     C94511   5.980   5.487   7.955 -0.5009 -0.0943 -0.0426
  701MOL0     C94512   5.874   5.381   7.910 -0.3007 -0.3505  0.3080
  701MOL0     C94513   5.752   5.394   8.003  0.3910 -0.2339 -0.1553
  701MOL0     C94514   5.637   5.300   7.972 -0.8047  0.2912  0.0713
  701MOL0     C94515   5.519   5.314   8.061  0.3641  0.1122  1.0149
  701MOL0     C94516   5.546   5.276   8.203  0.6698 -0.1542 -0.8567
  701MOL0     N94517   5.412   5.239   8.269  0.3562 -0.1596 -0.1771
  701MOL0     C94518   5.390   5.121   8.343  0.4609 -0.1613  0.2466
  701MOL0     C94519   5.260   5.135   8.385 -0.3230  0.4243  0.2896
  701MOL0     C94520   5.200   5.037   8.486 -0.3982  0.1960  0.3533
  701MOL0     C94521   5.068   4.981   8.449  0.0826 -0.4403 -0.2323
  701MOL0     C94522   5.012   4.918   8.578 -0.0985  0.3357 -0.0648
  701MOL0     C94523   4.871   4.866   8.542  0.5093 -0.4437 -0.0387
  701MOL0     O94524   4.764   4.960   8.502 -0.5448 -0.4319 -0.3363
  701MOL0     C94525   4.644   4.908   8.468  0.3264 -0.2472 -0.1686
  701MOL0     C94526   4.557   5.009   8.477  0.5655  0.2800  0.0231
  701MOL0     C94527   4.420   4.988   8.460 -0.5846  0.5027 -0.3749
  701MOL0     C94528   4.336   5.114   8.459  0.4488 -0.1322 -0.4647
  701MOL0     C94529   4.371   4.858   8.441  0.6589 -0.4567  0.3574
  701MOL0     C94530   4.229   4.824   8.416  0.6855  0.3521 -0.4140
  701MOL0     O94531   4.139   4.903   8.481  1.0167 -0.4643  0.0647
  701MOL0     C94532   4.012   4.848   8.492  0.0086  0.1384  1.1137
  701MOL0     C94533   3.988   4.722   8.540 -0.3023  0.0788 -0.2400
  701MOL0     C94534   3.854   4.666   8.546 -0.2190 -0.7757  0.5666
  701MOL0     C94535   3.741   4.746   8.510 -1.0760  0.4550  0.2517
  701MOL0     O94536   3.616   4.709   8.519  0.3773 -0.7725  0.0275
  701MOL0     C94537   3.578   4.575   8.548 -0.0968  0.3632 -0.0402
  701MOL0     C94538   3.425   4.559   8.553 -0.2613 -0.7638 -0.3581
  701MOL0     C94539   3.387   4.422   8.615  0.5847  0.0614  0.7843
  701MOL0     C94540   3.241   4.384   8.577  0.4408 -0.2539  0.0329
  701MOL0     C94541   3.130   4.474   8.640 -0.0367  0.2010  0.4947
  701MOL0     C94542   2.997   4.447   8.570  0.2843  0.1410 -0.2363
  701MOL0     C94543   2.894   4.537   8.636  0.7733  0.0617  0.5726
  701MOL0     C94544   2.776   4.531   8.539  0.0095 -0.2285 -0.2420
  701MOL0    Cl94545   2.810   4.633   8.393 -0.0942 -0.2738 -0.2582
  701MOL0     C94546   3.768   4.880   8.467 -0.6820  0.9493 -0.2113
  701MOL0     C94547   3.901   4.925   8.461 -0.7255 -0.1629  0.0579
  701MOL0     O94548   4.208   4.719   8.350  0.3612 -0.2931  0.0637
  701MOL0     C94549   4.463   4.753   8.455 -0.4817  0.3400 -0.6319
  701MOL0     C94550   4.598   4.779   8.466 -0.4399 -0.4970 -0.3296
  701MOL0     N94551   5.211   5.262   8.344 -0.3146  0.0838  1.2540
  701MOL0     N94552   5.303   5.322   8.278 -0.0485 -0.0860  0.3133
  701MOL0     C94553   6.556   5.613   7.787 -0.3219  0.7434  0.5201
  701MOL0     C94554   6.678   5.690   7.793  0.6405  0.4304 -0.9901
  701MOL0     C94555   6.983   5.993   7.835 -0.8934  0.0804  0.2786
  701MOL0     C94556   7.032   6.013   7.969  0.3139 -0.1059  0.0688
  701MOL0     C94557   7.163   6.058   7.997 -0.4162 -0.2351 -1.4333
  701MOL0     C94558   7.254   6.082   7.891  0.6485  0.0909 -1.1693
  701MOL0     O94559   7.385   6.122   7.905 -0.5592 -0.0803  0.3085
  701MOL0     C94560   7.445   6.108   8.035 -0.7279 -0.1094  0.8459
  701MOL0     C94561   7.598   6.127   8.027 -0.6752  0.3794  0.4130
  701MOL0     C94562   7.650   6.159   8.168 -0.8248 -1.1621 -0.1152
  701MOL0     C94563   7.612   6.077   8.290  0.7346  0.0941  0.5543
  701MOL0     C94564   7.677   6.134   8.406  0.2111 -0.3510 -0.1582
  701MOL0     C94565   7.735   6.180   8.500  0.4792  1.1797 -0.1962
  701MOL0     C94566   7.206   6.061   7.756  0.4380 -0.3879  0.1670
  701MOL0     C94567   7.069   6.030   7.733 -0.5880  0.2227 -0.1062
  701MOL0     H94568   6.564   5.898   8.054 -0.9216 -0.2403  0.9086
  701MOL0     H94569   6.368   5.762   8.029  1.0612 -1.2109  1.9810
  701MOL0     H94570   6.242   5.546   8.047 -0.8133  0.0458  0.7118
  701MOL0     H94571   6.184   5.663   7.932  0.5537 -0.0820  0.8427
  701MOL0     H94572   6.091   5.500   7.782 -2.2431  1.6251  0.2525
  701MOL0     H94573   6.157   5.360   7.885 -2.3195 -1.9209 -0.1921
  701MOL0     H94574   5.993   5.483   8.064 -0.5310 -1.2472 -0.0713
  701MOL0     H94575   5.945   5.590   7.943 -0.3939  0.0983  1.1319
  701MOL0     H94576   5.853   5.402   7.805  1.5299 -1.0536 -0.2279
  701MOL0     H94577   5.907   5.277   7.905  0.5148 -0.0722 -0.2217
  701MOL0     H94578   5.780   5.383   8.108 -1.7574  2.0023  0.7595
  701MOL0     H94579   5.718   5.498   7.996 -0.8155 -0.5601  0.4770
  701MOL0     H94580   5.613   5.325   7.869 -0.2493 -2.8840 -0.9263
  701MOL0     H94581   5.670   5.196   7.981 -0.8895  0.2558 -0.0317
  701MOL0     H94582   5.490   5.419   8.059  2.6322  0.7861 -0.8951
  701MOL0     H94583   5.442   5.245   8.024 -0.4346 -0.0062  2.7766
  701MOL0     H94584   5.587   5.359   8.263 -2.5048  0.4483  0.6936
  701MOL0     H94585   5.617   5.195   8.187 -0.1884 -1.5307  1.7499
  701MOL0     H94586   5.454   5.037   8.367 -0.6110 -0.8443  0.7900
  701MOL0     H94587   5.260   4.946   8.496 -3.3181 -2.0478 -0.8941
  701MOL0     H94588   5.186   5.069   8.589 -0.6466  1.3992 -0.0453
  701MOL0     H94589   5.078   4.912   8.365  1.9594  0.9877 -1.2625
  701MOL0     H94590   4.997   5.059   8.419  2.8324  2.6620  0.7069
  701MOL0     H94591   4.999   4.987   8.662 -3.5144 -0.2451  0.0088
  701MOL0     H94592   5.068   4.827   8.601  0.0925  0.5746  0.4374
  701MOL0     H94593   4.835   4.838   8.641 -4.7337  1.7357 -1.0034
  701MOL0     H94594   4.862   4.776   8.480 -2.9848 -0.7083  0.6566
  701MOL0     H94595   4.601   5.108   8.481 -2.3663  1.7356 -0.8368
  701MOL0     H94596   4.276   5.140   8.372 -0.3944  4.4416  1.1921
  701MOL0     H94597   4.270   5.116   8.546  0.4977 -0.5992 -0.4144
  701MOL0     H94598   4.397   5.203   8.478 -0.1514  0.1572  0.1768
  701MOL0     H94599   4.067   4.655   8.569  0.6338  1.4073  0.3835
  701MOL0     H94600   3.857   4.567   8.589  0.8327 -0.3375  1.5676
  701MOL0     H94601   3.623   4.508   8.474 -0.7611  0.8383 -0.8895
  701MOL0     H94602   3.622   4.542   8.643 -0.0432 -2.3001 -0.8986
  701MOL0     H94603   3.380   4.646   8.602 -1.8591 -1.3695 -0.6772
  701MOL0     H94604   3.400   4.552   8.447 -0.7836 -1.1863 -0.2140
  701MOL0     H94605   3.383   4.433   8.724  0.4269  1.0197  0.6963
  701MOL0     H94606   3.454   4.341   8.586 -1.6298 -0.6834 -2.6937
  701MOL0     H94607   3.224   4.385   8.469  1.1291 -2.3220 -0.1465
  701MOL0     H94608   3.228   4.281   8.612  2.5813 -1.3379 -2.0406
  701MOL0     H94609   3.158   4.579   8.636  1.3359 -0.1435  0.3516
  701MOL0     H94610   3.110   4.434   8.740  0.0428 -1.9869 -0.2937
  701MOL0     H94611   3.011   4.473   8.464  0.6224  0.7967 -0.0368
  701MOL0     H94612   2.973   4.341   8.578  0.5619  0.2253  3.8545
  701MOL0     H94613   2.927   4.641   8.640 -0.1446  0.3485  4.2767
  701MOL0     H94614   2.855   4.513   8.735 -0.3670  2.3270  0.7244
  701MOL0     H94615   2.685   4.567   8.588  2.2466  3.8135  1.4604
  701MOL0     H94616   2.762   4.430   8.498 -2.8719  0.2998 -0.7693
  701MOL0     H94617   3.690   4.953   8.447  0.5379  1.5738 -3.1311
  701MOL0     H94618   3.935   5.022   8.425  3.5982 -1.0255  1.2633
  701MOL0     H94619   4.437   4.650   8.479  0.5120  0.8845  3.6543
  701MOL0     H94620   4.677   4.706   8.480  3.3528  3.1567 -0.5171
  701MOL0     H94621   6.553   5.537   7.710 -2.6267  2.0333 -0.7559
  701MOL0     H94622   6.753   5.686   7.714 -0.3978  0.3976 -1.9927
  701MOL0     H94623   6.955   5.997   8.043  0.3051  1.0646  0.3222
  701MOL0     H94624   7.188   6.068   8.102  2.0064  0.5057 -2.0186
  701MOL0     H94625   7.404   6.186   8.100  0.0711  1.6345 -0.6123
  701MOL0     H94626   7.426   6.010   8.079  2.1616 -0.5155  1.4073
  701MOL0     H94627   7.621   6.211   7.960  0.9666 -1.1363 -1.0395
  701MOL0     H94628   7.642   6.038   7.982 -0.0199  1.5366 -1.3593
  701MOL0     H94629   7.617   6.262   8.181  1.4857 -0.5270  1.4728
  701MOL0     H94630   7.759   6.163   8.160 -0.6795 -2.2957  0.9577
  701MOL0     H94631   7.635   5.973   8.267 -0.3326 -0.5490  2.1708
  701MOL0     H94632   7.505   6.073   8.309  0.6740  1.4783  0.6444
  701MOL0     H94633   7.785   6.224   8.583 -0.4513  0.9543  0.5075
  701MOL0     H94634   7.271   6.068   7.670  0.4807 -1.7892  0.0678
  701MOL0     H94635   7.032   6.029   7.630 -2.5741 -1.1096  0.5533
  702MOL0     O94636   0.117   7.725   0.809 -0.5111 -0.4070  0.0870
  702MOL0     C94637   0.183   7.673   0.899  0.4451 -0.0856 -0.1176
  702MOL0     O94638   0.152   7.566   0.976  0.3752  1.0633 -0.6187
  702MOL0     C94639   0.020   7.525   0.978 -0.1469  0.0613 -0.5570
  702MOL0     C94640  -0.041   7.499   1.100  0.0318 -0.1920 -0.3356
  702MOL0     C94641  -0.167   7.460   1.117  0.2930  0.5280 -0.0674
  702MOL0     C94642  -0.260   7.454   1.009 -0.2751 -0.3151  0.9942
  702MOL0     O94643  -0.383   7.400   1.029  0.7033  0.3894  1.0304
  702MOL0     C94644  -0.478   7.388   0.907 -0.1969 -0.9675 -0.2193
  702MOL0     C94645  -0.610   7.335   0.947  0.8255 -0.2639 -1.0829
  702MOL0     C94646  -0.721   7.396   0.855 -0.2637 -0.0104 -0.2114
  702MOL0     C94647  -0.705   7.377   0.703  0.1105 -0.2801  0.1973
  702MOL0     C94648  -0.814   7.440   0.612  0.1585 -0.3216  0.1025
  702MOL0     C94649  -0.802   7.592   0.595 -1.0492 -0.6909  0.0208
  702MOL0     C94650  -0.936   7.640   0.530  0.4224  0.0855 -0.6865
  702MOL0     C94651  -0.940   7.798   0.516 -0.0689  0.7468 -0.3810
  702MOL0     N94652  -1.044   7.849   0.425  0.9031  0.0130  0.6547
  702MOL0     C94653  -1.134   7.948   0.445 -0.4542 -0.1582 -0.0125
  702MOL0     C94654  -1.207   7.964   0.330 -0.3378 -0.1223 -0.5538
  702MOL0     C94655  -1.330   8.048   0.304 -0.1939 -0.4351  0.4631
  702MOL0     C94656  -1.429   8.024   0.405  0.5194  0.3331  0.2368
  702MOL0     C94657  -1.560   8.087   0.361 -0.0159 -0.0564  0.1337
  702MOL0     C94658  -1.668   8.052   0.463  0.0068 -0.1202  0.5114
  702MOL0     O94659  -1.797   8.098   0.425  0.8791  0.0874  0.0160
  702MOL0     C94660  -1.908   8.070   0.495  0.3902  0.6126 -0.2586
  702MOL0     C94661  -1.926   7.972   0.593  0.4310 -0.7299 -0.9535
  702MOL0     C94662  -2.057   7.948   0.644  0.3624  0.3372 -0.7604
  702MOL0     C94663  -2.071   7.830   0.748  0.0038 -0.4112 -0.1123
  702MOL0     C94664  -2.175   8.017   0.587  0.7460  1.1905 -0.1837
  702MOL0     C94665  -2.314   8.005   0.633  0.5896 -0.5370  0.1986
  702MOL0     O94666  -2.415   8.078   0.568 -0.1709  0.0870  0.0806
  702MOL0     C94667  -2.551   8.059   0.593  0.8918 -0.0197 -0.1772
  702MOL0     C94668  -2.622   8.156   0.661 -0.6414 -0.5132 -0.4073
  702MOL0     C94669  -2.763   8.146   0.665 -0.3756  0.7031 -0.0927
  702MOL0     C94670  -2.829   8.024   0.624 -0.1667  0.6818  0.0435
  702MOL0     O94671  -2.961   8.006   0.640  0.0664 -0.7902 -0.1883
  702MOL0     C94672  -3.042   8.121   0.695  0.2285 -0.4608  0.0394
  702MOL0     C94673  -3.186   8.084   0.729 -0.7193 -0.7570  0.3047
  702MOL0     C94674  -3.271   8.060   0.613 -0.0744  0.1302 -0.2382
  702MOL0     C94675  -3.312   8.192   0.529  0.0008  0.0932 -0.4398
  702MOL0     C94676  -3.421   8.174   0.426  0.0532 -0.3714  0.3740
  702MOL0     C94677  -3.549   8.135   0.482 -0.0809 -0.7166 -0.7570
  702MOL0     C94678  -3.646   8.134   0.365  0.8800 -0.6460 -0.1374
  702MOL0     C94679  -3.774   8.060   0.379  0.0729 -0.7004 -0.3646
  702MOL0    Cl94680  -3.725   7.888   0.372 -0.2023 -0.0282 -0.3819
  702MOL0     C94681  -2.747   7.928   0.571 -0.3641 -0.7516  0.2626
  702MOL0     C94682  -2.608   7.945   0.548  0.6611  1.7311 -0.7752
  702MOL0     O94683  -2.344   7.920   0.723 -0.6258  0.6121 -0.4039
  702MOL0     C94684  -2.148   8.110   0.490  0.2121 -0.0961 -0.3173
  702MOL0     C94685  -2.021   8.143   0.452  0.2487 -0.0660 -0.3297
  702MOL0     N94686  -1.142   7.893   0.234  0.1244  1.1935  0.2913
  702MOL0     N94687  -1.037   7.838   0.285  0.0112 -0.1083 -0.5059
  702MOL0     C94688  -0.199   7.467   0.882  0.5722  0.0473 -0.0103
  702MOL0     C94689  -0.061   7.506   0.869  0.1279  0.6035  0.0757
  702MOL0     C94690   0.310   7.733   0.931 -0.4758 -1.0534 -0.5663
  702MOL0     C94691   0.327   7.874   0.944 -0.8274  1.1453 -0.4832
  702MOL0     C94692   0.450   7.925   0.977 -0.5440 -0.0810  0.2147
  702MOL0     C94693   0.553   7.840   1.012  0.4196  0.4956  0.1339
  702MOL0     O94694   0.674   7.888   1.063 -0.0482  1.0693  0.3227
  702MOL0     C94695   0.690   8.029   1.048 -0.3898  0.0188  0.3811
  702MOL0     C94696   0.828   8.058   1.095 -0.3991 -0.3586  0.7724
  702MOL0     C94697   0.936   8.004   1.000  0.3261 -0.1593 -0.2855
  702MOL0     C94698   1.065   8.085   1.014  0.5629  0.2978  0.1415
  702MOL0     C94699   1.124   8.081   1.152 -0.7398 -0.5797  0.6877
  702MOL0     C94700   1.182   8.067   1.257  0.0725 -0.0362  0.0579
  702MOL0     C94701   0.538   7.702   1.010  0.6634 -0.2798 -0.1455
  702MOL0     C94702   0.417   7.650   0.971 -0.2841  0.0247 -0.0732
  702MOL0     H94703   0.024   7.513   1.186  1.4291 -1.8336 -1.0837
  702MOL0     H94704  -0.211   7.432   1.213 -0.7593  1.2094 -0.3374
  702MOL0     H94705  -0.485   7.483   0.853  0.2311 -1.1161 -0.5441
  702MOL0     H94706  -0.439   7.321   0.830  0.9069  1.6584 -2.0714
  702MOL0     H94707  -0.608   7.226   0.951  1.0038 -0.2246  0.5400
  702MOL0     H94708  -0.626   7.380   1.046 -1.9941 -0.1739 -1.4813
  702MOL0     H94709  -0.819   7.361   0.888  0.5723  1.3972  4.4743
  702MOL0     H94710  -0.721   7.500   0.887  0.6113 -0.0834  0.0553
  702MOL0     H94711  -0.605   7.416   0.682  0.8450 -0.7634  2.4558
  702MOL0     H94712  -0.696   7.270   0.682  1.1276  0.4428 -3.7506
  702MOL0     H94713  -0.806   7.391   0.515 -0.7470 -1.0633  0.3841
  702MOL0     H94714  -0.910   7.404   0.650 -1.0145  2.6067  0.1392
  702MOL0     H94715  -0.790   7.645   0.690 -6.4735 -1.2226  1.3499
  702MOL0     H94716  -0.720   7.627   0.531  1.5107  0.1091  3.4358
  702MOL0     H94717  -0.953   7.593   0.432  2.2546 -0.8867 -0.5656
  702MOL0     H94718  -1.013   7.622   0.605 -0.4164  1.3700 -1.1865
  702MOL0     H94719  -0.845   7.825   0.467  0.5395 -1.0181 -0.2494
  702MOL0     H94720  -0.947   7.842   0.616  0.9376  1.2578 -0.5116
  702MOL0     H94721  -1.157   7.997   0.539 -0.1290  0.9050 -0.4702
  702MOL0     H94722  -1.306   8.153   0.283  1.3937 -0.6302  1.1650
  702MOL0     H94723  -1.366   8.014   0.206  1.3811 -0.3208 -0.2025
  702MOL0     H94724  -1.398   8.051   0.506  2.6110 -0.9914  0.0094
  702MOL0     H94725  -1.442   7.916   0.413  3.5360 -0.0998  0.5115
  702MOL0     H94726  -1.593   8.035   0.270  0.4188 -0.5892  0.2799
  702MOL0     H94727  -1.565   8.195   0.346 -0.4254 -0.2527 -1.3226
  702MOL0     H94728  -1.628   8.089   0.558  0.6718  1.4574 -0.3509
  702MOL0     H94729  -1.674   7.943   0.473  0.8027 -0.1162  1.1578
  702MOL0     H94730  -1.844   7.915   0.636 -0.8002 -1.0471  1.1142
  702MOL0     H94731  -1.988   7.761   0.730  0.9906  1.1029 -1.6438
  702MOL0     H94732  -2.067   7.864   0.852  1.3299  1.7071 -0.7998
  702MOL0     H94733  -2.155   7.761   0.732  1.7746 -2.7170 -0.1245
  702MOL0     H94734  -2.569   8.242   0.699 -2.1869 -0.7216  2.4355
  702MOL0     H94735  -2.820   8.233   0.693 -1.9532 -0.0737 -0.7866
  702MOL0     H94736  -2.998   8.150   0.791  0.4508  1.9748 -0.7514
  702MOL0     H94737  -3.030   8.209   0.632 -0.6861  0.0678  0.5847
  702MOL0     H94738  -3.182   7.993   0.790  1.7121  0.0089  1.4146
  702MOL0     H94739  -3.221   8.167   0.791  2.3523  0.6832  0.3279
  702MOL0     H94740  -3.365   8.014   0.644  1.0029 -1.9224  0.1130
  702MOL0     H94741  -3.226   7.985   0.548 -1.4133 -0.4771 -0.5017
  702MOL0     H94742  -3.334   8.274   0.598 -2.8934 -0.0654 -1.0699
  702MOL0     H94743  -3.216   8.210   0.480  1.0823  0.4242  1.6705
  702MOL0     H94744  -3.390   8.105   0.348 -1.4784 -0.3372 -0.2889
  702MOL0     H94745  -3.439   8.267   0.371 -1.2357 -0.4577  0.6159
  702MOL0     H94746  -3.543   8.032   0.518 -0.5688 -2.1868 -4.4422
  702MOL0     H94747  -3.590   8.185   0.570 -1.0688 -2.8365  0.0492
  702MOL0     H94748  -3.597   8.085   0.281 -0.5907 -1.6480 -0.4490
  702MOL0     H94749  -3.660   8.239   0.338 -1.0635  0.1211  3.2687
  702MOL0     H94750  -3.851   8.086   0.305  1.8736  1.7154 -1.5479
  702MOL0     H94751  -3.813   8.075   0.480 -1.4937 -1.1246 -0.8745
  702MOL0     H94752  -2.794   7.837   0.536 -0.5197 -0.9336  0.9201
  702MOL0     H94753  -2.548   7.861   0.515 -0.2309  0.6491  0.2436
  702MOL0     H94754  -2.234   8.159   0.446 -1.5758 -2.9033 -0.2554
  702MOL0     H94755  -2.012   8.224   0.381  0.8842  0.8778  0.7853
  702MOL0     H94756  -0.262   7.455   0.795 -1.4855 -1.8706  1.6195
  702MOL0     H94757  -0.014   7.515   0.772  1.2815  0.6234  0.6134
  702MOL0     H94758   0.247   7.943   0.922 -1.2986  0.0674 -2.3649
  702MOL0     H94759   0.441   8.033   0.972 -1.2597 -0.1986 -1.9161
  702MOL0     H94760   0.676   8.052   0.942 -1.1307  3.1841  1.0716
  702MOL0     H94761   0.614   8.088   1.101 -0.2868  1.1557 -0.6894
  702MOL0     H94762   0.842   8.008   1.191  1.5932 -2.9315 -0.7312
  702MOL0     H94763   0.837   8.166   1.113 -1.5050  0.0834 -1.0155
  702MOL0     H94764   0.909   8.008   0.894  1.9042  2.6495 -0.6934
  702MOL0     H94765   0.954   7.899   1.024  2.0080 -0.1012 -1.1458
  702MOL0     H94766   1.043   8.188   0.983 -0.7978  0.4083  1.4087
  702MOL0     H94767   1.129   8.044   0.934  0.2059  0.1358 -0.0621
  702MOL0     H94768   1.239   8.054   1.346 -1.0980 -1.1972  0.6740
  702MOL0     H94769   0.623   7.640   1.035  1.1066 -0.5887 -2.2046
  702MOL0     H94770   0.407   7.541   0.967 -0.7793  0.0989 -2.4229
  703MOL0     O94771   3.463   8.349   3.826 -0.3716 -0.7698  1.2776
  703MOL0     C94772   3.512   8.354   3.935  0.9103 -0.2165 -0.1062
  703MOL0     O94773   3.628   8.407   3.964 -0.5837  0.2292 -0.6477
  703MOL0     C94774   3.680   8.498   3.873  0.5609  0.3441 -0.4807
  703MOL0     C94775   3.624   8.618   3.840  0.0649  0.8516  0.6161
  703MOL0     C94776   3.684   8.700   3.748 -0.1950  1.0194 -0.1348
  703MOL0     C94777   3.811   8.668   3.692 -0.4924 -0.4549  0.0381
  703MOL0     O94778   3.885   8.757   3.614  0.7203 -0.0855  0.0918
  703MOL0     C94779   3.849   8.900   3.618 -0.2655  0.1191  0.6536
  703MOL0     C94780   3.987   8.978   3.606 -0.0640 -0.7685 -0.5040
  703MOL0     C94781   4.069   8.990   3.735  0.3194 -0.2835 -0.5001
  703MOL0     C94782   4.199   9.067   3.697 -0.0102  0.0105  0.0969
  703MOL0     C94783   4.292   9.090   3.820  0.5614  1.2211  0.6530
  703MOL0     C94784   4.394   8.968   3.844 -0.2899 -0.4958 -1.0821
  703MOL0     C94785   4.483   8.994   3.977 -0.1720 -0.0933 -0.2253
  703MOL0     C94786   4.593   9.107   3.967  0.2654 -0.0562 -0.5659
  703MOL0     N94787   4.680   9.075   3.852 -0.0183 -1.2776  0.1726
  703MOL0     C94788   4.779   8.980   3.843  0.0936 -0.1991  0.2035
  703MOL0     C94789   4.817   8.981   3.714  0.3405 -0.2816  0.7343
  703MOL0     C94790   4.914   8.897   3.645  0.9944 -0.4297 -0.1508
  703MOL0     C94791   4.903   8.750   3.686 -0.0852  0.1773  0.1515
  703MOL0     C94792   4.797   8.696   3.586 -0.8061 -0.4252 -0.2444
  703MOL0     C94793   4.786   8.540   3.607  0.0410  0.4137 -0.2759
  703MOL0     O94794   4.778   8.501   3.745  0.6320 -0.3627 -0.2801
  703MOL0     C94795   4.652   8.504   3.805 -0.1516  0.4610 -0.0055
  703MOL0     C94796   4.647   8.418   3.917  0.2022 -0.1809  0.3369
  703MOL0     C94797   4.526   8.389   3.978 -0.3222 -0.1509  0.4337
  703MOL0     C94798   4.535   8.292   4.095  0.4013 -0.6331 -0.8821
  703MOL0     C94799   4.404   8.440   3.930  0.0047  0.2666 -0.1609
  703MOL0     C94800   4.263   8.410   3.997 -0.1847  0.0132  0.7951
  703MOL0     O94801   4.256   8.386   4.127 -0.7307 -0.0737 -0.5277
  703MOL0     C94802   4.137   8.330   4.177 -0.9724  0.1557  0.9085
  703MOL0     C94803   4.007   8.378   4.149  0.0574 -0.4021 -0.0664
  703MOL0     C94804   3.889   8.321   4.211 -0.6986 -0.0194 -0.1976
  703MOL0     C94805   3.915   8.217   4.300  0.3734 -0.4277  0.1900
  703MOL0     O94806   3.811   8.150   4.360 -0.2618  0.4452  0.7106
  703MOL0     C94807   3.735   8.230   4.453 -0.4674 -1.0583 -0.2440
  703MOL0     C94808   3.640   8.151   4.538 -0.5837 -0.3782  0.8237
  703MOL0     C94809   3.714   8.047   4.620 -0.4244  0.0194  0.5531
  703MOL0     C94810   3.619   7.974   4.715 -0.1066 -0.0204 -0.3826
  703MOL0     C94811   3.538   7.867   4.648  0.4295 -1.1666  0.2532
  703MOL0     C94812   3.443   7.819   4.752  0.2276 -0.7447  0.5058
  703MOL0     C94813   3.298   7.874   4.739 -0.7695  0.2497 -0.7051
  703MOL0     C94814   3.203   7.784   4.816 -0.0956 -0.2785 -0.5690
  703MOL0    Cl94815   3.038   7.820   4.756 -0.3490  0.1788  0.1035
  703MOL0     C94816   4.042   8.167   4.322  0.1330  0.9645 -0.6108
  703MOL0     C94817   4.156   8.224   4.269  1.2098 -0.4367  0.4980
  703MOL0     O94818   4.171   8.399   3.914 -0.1903  0.7719  0.1122
  703MOL0     C94819   4.409   8.526   3.817  0.1763 -0.3165 -0.2686
  703MOL0     C94820   4.536   8.555   3.764 -0.6707 -0.2601 -0.4065
  703MOL0     N94821   4.753   9.082   3.643 -0.7538  0.3831 -0.6721
  703MOL0     N94822   4.671   9.139   3.725 -0.3573  0.2726 -0.2332
  703MOL0     C94823   3.875   8.558   3.739  0.6862 -0.8337 -0.4840
  703MOL0     C94824   3.809   8.472   3.826  0.1282  0.0210 -0.3413
  703MOL0     C94825   3.425   8.303   4.048 -0.1051 -0.2394  0.7441
  703MOL0     C94826   3.322   8.212   4.018 -0.0372  0.0592  0.1704
  703MOL0     C94827   3.252   8.158   4.122  0.3292 -0.0356  0.0759
  703MOL0     C94828   3.286   8.188   4.257 -0.8895 -0.5137  0.2571
  703MOL0     O94829   3.222   8.107   4.347  0.4803 -0.1451  0.0997
  703MOL0     C94830   3.184   8.179   4.470 -0.2642  0.7414 -0.4275
  703MOL0     C94831   3.045   8.241   4.468 -0.4598 -0.0468 -0.6153
  703MOL0     C94832   2.945   8.159   4.380  0.0334 -0.6611 -0.2248
  703MOL0     C94833   2.807   8.227   4.386  0.1195 -0.1689 -0.4392
  703MOL0     C94834   2.695   8.127   4.353 -1.3183 -0.1963 -0.7980
  703MOL0     C94835   2.613   8.041   4.336  0.9237  1.0624  0.6203
  703MOL0     C94836   3.386   8.279   4.289 -0.2345 -0.1618 -0.2461
  703MOL0     C94837   3.455   8.342   4.178 -0.3376  0.1491  1.2314
  703MOL0     H94838   3.523   8.641   3.870 -0.5722  0.1747 -0.8730
  703MOL0     H94839   3.625   8.791   3.737 -2.2750  0.0680  2.0391
  703MOL0     H94840   3.786   8.918   3.530 -0.1163  1.6642  0.8315
  703MOL0     H94841   3.793   8.930   3.707 -0.8762  1.3309 -0.1109
  703MOL0     H94842   4.052   8.929   3.534 -3.7218 -1.9999 -3.2796
  703MOL0     H94843   3.974   9.079   3.565 -0.1290 -0.6739 -0.2518
  703MOL0     H94844   4.010   9.043   3.810  2.1699  1.4830 -0.2052
  703MOL0     H94845   4.097   8.889   3.765  1.5307  0.1253 -0.2176
  703MOL0     H94846   4.250   9.017   3.614  0.5705 -1.4795  1.3044
  703MOL0     H94847   4.172   9.167   3.663  4.0811  0.8449 -1.3074
  703MOL0     H94848   4.350   9.178   3.791  0.3481  0.2386 -3.2952
  703MOL0     H94849   4.236   9.108   3.912 -1.8386  1.6180 -0.7957
  703MOL0     H94850   4.325   8.885   3.862  0.1784 -1.2957 -2.7687
  703MOL0     H94851   4.460   8.943   3.761 -0.0856  0.3077 -1.1702
  703MOL0     H94852   4.419   9.016   4.063 -2.3573 -3.5269 -0.7734
  703MOL0     H94853   4.536   8.906   4.014 -0.2418  1.1656  3.2116
  703MOL0     H94854   4.639   9.099   4.066 -1.4340 -1.1105  0.1857
  703MOL0     H94855   4.547   9.206   3.960  0.4134  0.1340  0.8797
  703MOL0     H94856   4.797   8.913   3.928 -0.4189 -1.6503 -0.7929
  703MOL0     H94857   4.899   8.911   3.537 -2.0933 -2.5700 -0.1292
  703MOL0     H94858   5.008   8.938   3.683 -0.2532  1.2347  1.3093
  703MOL0     H94859   4.861   8.750   3.787 -0.7441 -0.6757 -0.1108
  703MOL0     H94860   5.000   8.701   3.674  0.0047  0.7211 -1.5586
  703MOL0     H94861   4.823   8.706   3.480 -0.0244  2.0260  0.1186
  703MOL0     H94862   4.700   8.744   3.600 -0.6042 -0.3134  0.8329
  703MOL0     H94863   4.872   8.493   3.559 -4.0209 -1.9142 -6.4845
  703MOL0     H94864   4.698   8.506   3.553 -2.5501  3.3284  1.7507
  703MOL0     H94865   4.740   8.379   3.958  0.0885  0.0540  0.8201
  703MOL0     H94866   4.492   8.340   4.183  0.5266 -1.3818 -0.4064
  703MOL0     H94867   4.468   8.210   4.068 -2.5514  1.0430  0.7448
  703MOL0     H94868   4.639   8.265   4.114 -0.0236 -0.9585  1.1528
  703MOL0     H94869   3.986   8.456   4.076  0.1804 -2.0315 -1.9452
  703MOL0     H94870   3.786   8.331   4.177 -0.8775 -0.4356  0.2094
  703MOL0     H94871   3.809   8.263   4.526 -0.0765 -0.2378 -0.9975
  703MOL0     H94872   3.695   8.323   4.412  0.9822  0.0605  0.7718
  703MOL0     H94873   3.584   8.214   4.608 -3.0279 -0.5690 -0.8141
  703MOL0     H94874   3.555   8.106   4.485 -0.1668 -0.5716  0.3047
  703MOL0     H94875   3.787   8.104   4.680 -1.8077  0.3179  2.0052
  703MOL0     H94876   3.774   7.975   4.563 -0.6468  1.2011 -1.2872
  703MOL0     H94877   3.692   7.933   4.786 -0.4932  0.3356  0.2258
  703MOL0     H94878   3.551   8.049   4.754 -0.5339  0.6922 -2.3797
  703MOL0     H94879   3.608   7.785   4.629  0.3121 -1.3234  0.4795
  703MOL0     H94880   3.494   7.897   4.553  1.7877 -0.8082 -0.2921
  703MOL0     H94881   3.432   7.716   4.716  1.9869 -0.9179  0.3865
  703MOL0     H94882   3.481   7.818   4.854  0.8429  1.2503  0.3365
  703MOL0     H94883   3.276   7.861   4.633 -0.0250  0.3463 -0.8753
  703MOL0     H94884   3.297   7.981   4.766  0.9304  0.3109 -0.7688
  703MOL0     H94885   3.212   7.813   4.921 -0.2732  0.1842 -0.6806
  703MOL0     H94886   3.214   7.675   4.806 -1.1317 -0.2336 -3.0334
  703MOL0     H94887   4.033   8.074   4.376  1.5925  1.8922  1.3770
  703MOL0     H94888   4.257   8.189   4.289  2.3847  2.1076 -0.5487
  703MOL0     H94889   4.313   8.571   3.798 -1.4282 -1.1631  4.3613
  703MOL0     H94890   4.536   8.627   3.683 -1.6035  0.2963  0.0624
  703MOL0     H94891   3.978   8.537   3.711  0.4464 -3.0214  0.0957
  703MOL0     H94892   3.860   8.383   3.864  0.5288  0.3000 -0.2138
  703MOL0     H94893   3.292   8.198   3.915  1.3665  1.3615 -0.4445
  703MOL0     H94894   3.167   8.098   4.091  0.4760  0.5471 -1.5531
  703MOL0     H94895   3.184   8.104   4.550 -0.4869 -0.1421 -1.2354
  703MOL0     H94896   3.257   8.258   4.489  0.5649 -0.3750  1.4372
  703MOL0     H94897   3.054   8.345   4.432  1.7545  0.6104  1.6034
  703MOL0     H94898   3.001   8.253   4.567 -0.6769 -3.7811 -0.1367
  703MOL0     H94899   2.939   8.057   4.422  2.4515 -0.0357  1.9066
  703MOL0     H94900   2.985   8.158   4.279  4.0894 -1.3257  1.2074
  703MOL0     H94901   2.805   8.301   4.304 -0.1571  0.0800 -0.2115
  703MOL0     H94902   2.795   8.282   4.479 -1.3649 -0.7646 -0.2493
  703MOL0     H94903   2.535   7.970   4.317 -1.1513  3.5142 -0.5446
  703MOL0     H94904   3.416   8.299   4.391 -0.0815 -1.3773 -0.0392
  703MOL0     H94905   3.537   8.412   4.192 -0.9312  1.1227  0.0583
  704MOL0     O94906   9.108   9.897   5.688 -0.8284 -0.0031  0.8398
  704MOL0     C94907   9.204   9.916   5.614 -0.1173 -0.2132 -0.4242
  704MOL0     O94908   9.195   9.934   5.485 -0.1580  0.1658  0.2272
  704MOL0     C94909   9.070   9.967   5.433 -0.2181  0.2303  0.1379
  704MOL0     C94910   8.983  10.060   5.485  0.1130 -0.4599 -0.2469
  704MOL0     C94911   8.854  10.092   5.428 -0.6259 -0.2276 -0.6010
  704MOL0     C94912   8.812  10.018   5.323  0.2173 -0.5976 -0.9637
  704MOL0     O94913   8.682  10.047   5.290 -0.9035 -0.0391  0.1342
  704MOL0     C94914   8.634  10.006   5.159  0.3328  0.0423 -0.5070
  704MOL0     C94915   8.679  10.090   5.041  0.0606  1.2288  0.6313
  704MOL0     C94916   8.605  10.219   5.028 -0.8118  0.1732 -0.6378
  704MOL0     C94917   8.565  10.258   4.882 -0.3671  0.5404  1.1044
  704MOL0     C94918   8.456  10.168   4.828  0.5996  0.1207 -0.6209
  704MOL0     C94919   8.387  10.231   4.708  0.1849 -0.2430  0.3629
  704MOL0     C94920   8.474  10.273   4.590  0.7149  0.1786 -0.3864
  704MOL0     C94921   8.367  10.318   4.475  0.0312  0.1784 -0.4008
  704MOL0     N94922   8.248  10.399   4.509 -0.5984  0.2941 -0.3653
  704MOL0     C94923   8.244  10.535   4.528  0.1489 -0.4046 -0.6068
  704MOL0     C94924   8.112  10.559   4.567 -0.0566 -0.1921  0.9986
  704MOL0     C94925   8.037  10.688   4.593 -0.6537  0.1532 -0.8657
  704MOL0     C94926   8.024  10.720   4.743 -0.1471 -0.7751  0.5860
  704MOL0     C94927   7.990  10.870   4.770  0.2898 -0.3291  0.5439
  704MOL0     C94928   7.858  10.927   4.698 -0.4776  0.6201  0.1795
  704MOL0     O94929   7.831  11.069   4.738  0.0123  0.0509  0.6341
  704MOL0     C94930   7.703  11.110   4.723 -0.1222 -0.0900 -0.5146
  704MOL0     C94931   7.685  11.216   4.810  0.1161 -0.7666  0.4112
  704MOL0     C94932   7.558  11.271   4.825 -0.0615 -0.2669  1.1690
  704MOL0     C94933   7.554  11.402   4.897 -0.0127 -0.0367 -0.3776
  704MOL0     C94934   7.444  11.209   4.763  1.2987  0.0041 -0.5095
  704MOL0     C94935   7.300  11.231   4.791  0.5607 -0.0072  0.7358
  704MOL0     O94936   7.267  11.295   4.906 -0.1620 -0.0936 -0.0953
  704MOL0     C94937   7.143  11.340   4.926  0.0345 -0.3378 -0.1047
  704MOL0     C94938   7.102  11.478   4.917  0.0576  0.0867  0.0023
  704MOL0     C94939   6.969  11.518   4.948  0.3843 -0.3340 -0.6342
  704MOL0     C94940   6.866  11.424   4.967 -1.3055  0.1168 -0.2194
  704MOL0     O94941   6.741  11.467   4.976 -0.1052 -0.4486 -0.0139
  704MOL0     C94942   6.639  11.384   5.019  0.6963 -0.1141  0.3512
  704MOL0     C94943   6.504  11.459   5.009  1.2804  0.3791 -0.2509
  704MOL0     C94944   6.382  11.387   5.087 -0.0126  0.2718  0.0890
  704MOL0     C94945   6.295  11.316   4.986 -0.5601 -0.4031  1.2913
  704MOL0     C94946   6.172  11.271   5.055 -1.0790  0.7299 -0.3461
  704MOL0     C94947   6.055  11.226   4.958  0.2197  0.8052 -0.6461
  704MOL0     C94948   5.973  11.341   4.912 -0.4724  0.2737  0.4621
  704MOL0     C94949   5.853  11.297   4.815 -0.8416 -0.0614  0.3382
  704MOL0    Cl94950   5.725  11.417   4.831  0.4042 -0.1098 -0.3878
  704MOL0     C94951   6.905  11.288   4.978  0.5416 -0.8355  0.7968
  704MOL0     C94952   7.042  11.256   4.956 -0.1015  0.0811  0.2351
  704MOL0     O94953   7.225  11.223   4.691  0.4970  1.1435 -0.6899
  704MOL0     C94954   7.472  11.109   4.676 -0.0134 -0.0504  0.3748
  704MOL0     C94955   7.597  11.057   4.646 -0.0795  0.4703  0.2796
  704MOL0     N94956   8.052  10.438   4.576  0.3783 -0.7890 -0.7660
  704MOL0     N94957   8.131  10.341   4.540  0.5963  0.4955  1.2577
  704MOL0     C94958   8.903   9.930   5.260  0.0802 -0.3172 -0.0314
  704MOL0     C94959   9.028   9.909   5.314  0.9591 -0.6052 -0.1872
  704MOL0     C94960   9.338   9.913   5.666  0.4912  0.4151 -0.3039
  704MOL0     C94961   9.454   9.891   5.585 -0.0544 -0.7090  0.4105
  704MOL0     C94962   9.581   9.895   5.640 -0.1160 -0.2076  0.1855
  704MOL0     C94963   9.599   9.918   5.782  0.2588  0.8069  0.0329
  704MOL0     O94964   9.731   9.907   5.817  0.4907  0.1137  1.1033
  704MOL0     C94965   9.774   9.958   5.943  0.0994  0.0733  0.2788
  704MOL0     C94966   9.925   9.946   5.943 -0.3975 -0.6814  0.1518
  704MOL0     C94967   9.969  10.024   6.067  0.8882 -0.0463 -0.8712
  704MOL0     C94968  10.116  10.027   6.101 -0.9717  0.0295  0.6761
  704MOL0     C94969  10.165   9.905   6.149  0.3335  0.8707 -0.1840
  704MOL0     C94970  10.203   9.797   6.188 -0.8121 -0.3042  0.8912
  704MOL0     C94971   9.485   9.942   5.861  0.0720 -0.5956 -0.2838
  704MOL0     C94972   9.359   9.943   5.800 -0.4143  0.2418  0.2371
  704MOL0     H94973   9.005  10.121   5.572 -1.6678  0.2679 -0.2583
  704MOL0     H94974   8.787  10.169   5.464 -0.1602  1.1000 -2.3907
  704MOL0     H94975   8.654   9.899   5.149  1.7380  0.2878 -0.5510
  704MOL0     H94976   8.525  10.008   5.167  0.2979 -1.9462 -0.0214
  704MOL0     H94977   8.783  10.121   5.057 -0.2220  4.6660 -2.5469
  704MOL0     H94978   8.672  10.036   4.946 -1.9469  2.0384  0.2608
  704MOL0     H94979   8.516  10.231   5.090 -1.0076 -2.1596 -0.3930
  704MOL0     H94980   8.682  10.291   5.058 -2.1419  0.8550  1.3485
  704MOL0     H94981   8.546  10.365   4.881 -2.1900  0.2433 -0.3953
  704MOL0     H94982   8.651  10.241   4.817  0.1463  0.0770  1.8759
  704MOL0     H94983   8.496  10.072   4.795  1.5657  0.6733 -1.0928
  704MOL0     H94984   8.374  10.152   4.899 -0.2873 -0.0995 -1.6503
  704MOL0     H94985   8.309  10.157   4.687 -0.2370 -0.7756  3.3343
  704MOL0     H94986   8.330  10.317   4.742 -2.3921 -0.9374 -1.8595
  704MOL0     H94987   8.531  10.360   4.623  1.0630 -0.6424  1.2917
  704MOL0     H94988   8.539  10.191   4.559 -1.4938 -1.1487 -1.8346
  704MOL0     H94989   8.329  10.227   4.427 -1.2827  0.7598 -0.5052
  704MOL0     H94990   8.425  10.376   4.403  2.4787 -0.0191  1.2909
  704MOL0     H94991   8.321  10.607   4.503  0.6703  0.1352  2.2560
  704MOL0     H94992   8.095  10.766   4.543  0.4252 -0.0213  0.0659
  704MOL0     H94993   7.949  10.672   4.530 -1.6153  1.4685  0.1094
  704MOL0     H94994   8.112  10.705   4.806  0.0910  3.5947  1.5550
  704MOL0     H94995   7.951  10.653   4.789 -1.5436  0.2584 -0.0412
  704MOL0     H94996   8.075  10.930   4.736 -2.3465  1.3105 -4.1024
  704MOL0     H94997   7.985  10.884   4.878  1.3513  1.2635  0.4282
  704MOL0     H94998   7.774  10.864   4.727 -0.2236  1.1866  2.3126
  704MOL0     H94999   7.876  10.897   4.595  3.2097 -2.9627  1.5801
  704MOL0     H95000   7.769  11.256   4.865  1.5216  0.9510 -2.7097
  704MOL0     H95001   7.541  11.484   4.826  1.0123  0.9805  0.5639
  704MOL0     H95002   7.476  11.406   4.974  0.8796 -2.2137  0.7410
  704MOL0     H95003   7.652  11.430   4.938 -0.5690  1.3192  0.0950
  704MOL0     H95004   7.175  11.553   4.890  0.4470 -0.6837 -1.1899
  704MOL0     H95005   6.950  11.623   4.931 -0.9964 -0.3825  0.4397
  704MOL0     H95006   6.623  11.289   4.967 -1.6060 -0.1125  0.9339
  704MOL0     H95007   6.653  11.360   5.125 -0.6914 -2.8264 -0.0019
  704MOL0     H95008   6.510  11.560   5.049 -1.4412  0.7094 -0.5216
  704MOL0     H95009   6.473  11.467   4.904  0.0639 -1.1415 -0.0480
  704MOL0     H95010   6.327  11.463   5.143 -2.4734 -0.9432 -0.5577
  704MOL0     H95011   6.415  11.307   5.154 -0.0762 -0.0997 -0.3230
  704MOL0     H95012   6.261  11.387   4.910 -0.1418  0.7649  2.1459
  704MOL0     H95013   6.359  11.241   4.939 -1.5915 -0.5507  0.0886
  704MOL0     H95014   6.137  11.343   5.129 -2.6184 -1.6554  1.4130
  704MOL0     H95015   6.198  11.178   5.108  0.8451  1.3885 -0.0505
  704MOL0     H95016   6.100  11.169   4.877  0.5062 -0.2410  0.2156
  704MOL0     H95017   5.990  11.155   5.010 -0.3868  0.6941 -1.5373
  704MOL0     H95018   6.028  11.405   4.843 -0.0440 -1.1693 -0.5633
  704MOL0     H95019   5.932  11.391   5.001  0.4836  1.9681 -0.0104
  704MOL0     H95020   5.809  11.201   4.844  1.5224 -0.4749  2.9387
  704MOL0     H95021   5.876  11.298   4.708 -2.6405 -1.8603 -0.1143
  704MOL0     H95022   6.844  11.202   5.005  1.6618 -0.8545  3.6347
  704MOL0     H95023   7.085  11.160   4.984  2.2132  0.9734 -0.1033
  704MOL0     H95024   7.395  11.067   4.613  0.9970  2.0461 -2.5056
  704MOL0     H95025   7.605  10.971   4.580  2.5888  0.8557 -0.0001
  704MOL0     H95026   8.881   9.863   5.178 -0.1831  0.9724 -1.0577
  704MOL0     H95027   9.081   9.840   5.250  0.3527  1.2850 -2.9496
  704MOL0     H95028   9.451   9.869   5.479 -0.3095  2.0452 -0.2281
  704MOL0     H95029   9.672   9.890   5.581  0.4952  2.6460  0.7121
  704MOL0     H95030   9.745  10.063   5.939  0.3860  0.1715  0.7485
  704MOL0     H95031   9.735   9.906   6.031 -1.2789 -1.5899 -1.2329
  704MOL0     H95032   9.967   9.975   5.847 -1.9101 -2.0417 -0.9748
  704MOL0     H95033   9.958   9.842   5.958 -1.5330 -1.9453 -4.5717
  704MOL0     H95034   9.927  10.000   6.165  2.7106 -0.4747 -0.1614
  704MOL0     H95035   9.930  10.125   6.053  1.1372  0.0361 -0.9632
  704MOL0     H95036  10.137  10.098   6.182  2.7286  0.7912 -0.7380
  704MOL0     H95037  10.178  10.055   6.015  1.6713  1.3147  2.8395
  704MOL0     H95038  10.228   9.697   6.217 -2.2627 -0.1956  2.7438
  704MOL0     H95039   9.499   9.953   5.969  2.4404 -0.7249 -0.5111
  704MOL0     H95040   9.275   9.965   5.865 -0.5073 -0.8419  0.4993
  705MOL0     O95041   0.033   1.048   0.168  0.1804 -1.0011 -0.6013
  705MOL0     C95042   0.111   0.966   0.198 -0.7389  0.7855 -1.1837
  705MOL0     O95043   0.085   0.829   0.234  0.4718  0.6932  0.1093
  705MOL0     C95044  -0.044   0.788   0.220 -0.0276  0.5924  0.2452
  705MOL0     C95045  -0.155   0.844   0.292  0.0164 -0.0366 -0.8247
  705MOL0     C95046  -0.282   0.783   0.271 -0.3712 -0.7388 -1.0441
  705MOL0     C95047  -0.307   0.676   0.187  0.3014 -0.2884 -0.6826
  705MOL0     O95048  -0.425   0.612   0.164 -0.0242  0.5025  0.5524
  705MOL0     C95049  -0.556   0.637   0.226  0.4177 -0.7876  0.7782
  705MOL0     C95050  -0.666   0.583   0.127 -0.6908  0.3897 -0.1974
  705MOL0     C95051  -0.810   0.607   0.160  0.3410 -0.6219  0.3059
  705MOL0     C95052  -0.902   0.508   0.087 -0.6380  0.1449 -0.2792
  705MOL0     C95053  -1.048   0.508   0.139  1.2916  0.8044  0.4106
  705MOL0     C95054  -1.130   0.404   0.062  0.4642  0.2811 -0.7308
  705MOL0     C95055  -1.277   0.386   0.103  0.1076  0.0553 -0.0490
  705MOL0     C95056  -1.346   0.276   0.023 -0.1872  0.2685 -0.0544
  705MOL0     N95057  -1.485   0.291   0.003 -0.2652 -0.1049 -0.0387
  705MOL0     C95058  -1.578   0.268   0.105  0.5449  0.0407 -0.0081
  705MOL0     C95059  -1.695   0.300   0.050  0.4592 -0.3294 -0.2323
  705MOL0     C95060  -1.834   0.294   0.098  0.5758  0.8393 -0.1425
  705MOL0     C95061  -1.928   0.225   0.005  0.5052  0.1896  0.0807
  705MOL0     C95062  -2.063   0.220   0.077  0.0964 -0.0355  0.2838
  705MOL0     C95063  -2.139   0.355   0.051 -0.5497 -0.5754 -0.2589
  705MOL0     O95064  -2.264   0.369   0.117 -0.0511  0.3357  0.0203
  705MOL0     C95065  -2.374   0.311   0.052 -0.0151 -0.4439  0.4810
  705MOL0     C95066  -2.474   0.396  -0.013  0.3610  0.7258 -0.0351
  705MOL0     C95067  -2.591   0.332  -0.062  0.3522 -0.6384 -0.8259
  705MOL0     C95068  -2.698   0.431  -0.112 -0.3519  0.2113 -0.0985
  705MOL0     C95069  -2.593   0.190  -0.075 -0.2830 -0.1810  1.2262
  705MOL0     C95070  -2.703   0.124  -0.153 -0.1829  0.1205 -0.0766
  705MOL0     O95071  -2.794   0.205  -0.218  0.0010 -0.5762  0.5103
  705MOL0     C95072  -2.899   0.146  -0.281  0.1055 -0.7330 -0.5483
  705MOL0     C95073  -2.986   0.059  -0.207 -0.1907 -0.5937  0.4739
  705MOL0     C95074  -3.096  -0.005  -0.276 -0.5579  0.2751 -0.2252
  705MOL0     C95075  -3.106   0.013  -0.414 -0.1185  0.3121 -0.0119
  705MOL0     O95076  -3.197  -0.058  -0.490 -0.5086  0.0088 -0.3922
  705MOL0     C95077  -3.311  -0.114  -0.431  0.0543  0.3305 -0.1249
  705MOL0     C95078  -3.391  -0.175  -0.547 -0.4735 -0.0361 -0.1892
  705MOL0     C95079  -3.510  -0.252  -0.499  0.7012  0.3034 -0.0273
  705MOL0     C95080  -3.602  -0.307  -0.618 -0.1552  0.1997  0.6480
  705MOL0     C95081  -3.685  -0.195  -0.679 -1.1116 -0.0413  0.3418
  705MOL0     C95082  -3.810  -0.247  -0.759 -0.2555  0.8415  0.1583
  705MOL0     C95083  -3.878  -0.139  -0.829  0.2588  0.6118  0.4111
  705MOL0     C95084  -3.992  -0.186  -0.926  0.1678  0.0701 -0.4787
  705MOL0    Cl95085  -4.112  -0.051  -0.959 -0.3379  0.3391  0.2685
  705MOL0     C95086  -3.028   0.098  -0.477 -0.0255 -0.0845  0.4090
  705MOL0     C95087  -2.922   0.164  -0.418  0.0802  0.1579 -0.5256
  705MOL0     O95088  -2.710  -0.003  -0.156  0.2280 -0.3535  0.2726
  705MOL0     C95089  -2.496   0.114  -0.016 -0.1679  0.9853 -0.8138
  705MOL0     C95090  -2.384   0.172   0.046 -0.9656 -0.4702  0.5782
  705MOL0     N95091  -1.670   0.333  -0.087  0.6570  0.5297 -0.4063
  705MOL0     N95092  -1.543   0.329  -0.111  1.2098 -0.1612  0.1601
  705MOL0     C95093  -0.198   0.623   0.128 -0.3262  0.2028 -0.1285
  705MOL0     C95094  -0.067   0.669   0.146 -0.6017  0.4978 -1.1507
  705MOL0     C95095   0.256   1.006   0.202  0.3571  0.1685 -0.8065
  705MOL0     C95096   0.343   0.904   0.231 -0.1356 -0.3170 -0.7499
  705MOL0     C95097   0.483   0.922   0.235  0.5790 -0.0394 -0.7998
  705MOL0     C95098   0.534   1.046   0.213 -0.1425 -0.0401  0.4434
  705MOL0     O95099   0.675   1.053   0.215 -0.3134 -0.7228 -0.3641
  705MOL0     C95100   0.730   1.184   0.221 -0.3563  0.1055  0.2907
  705MOL0     C95101   0.716   1.252   0.360 -0.3773 -1.0268 -0.0955
  705MOL0     C95102   0.775   1.165   0.471 -0.7099  0.6831  0.1742
  705MOL0     C95103   0.781   1.231   0.601  0.3173 -1.1751 -0.0065
  705MOL0     C95104   0.645   1.226   0.655  0.0570  0.2023 -0.2380
  705MOL0     C95105   0.532   1.232   0.711  0.1645  0.0442 -0.5393
  705MOL0     C95106   0.444   1.148   0.192 -0.4106  0.2962  0.1534
  705MOL0     C95107   0.308   1.132   0.181 -0.6794  0.0311 -0.0368
  705MOL0     H95108  -0.130   0.933   0.348  3.3162 -0.9158 -0.6976
  705MOL0     H95109  -0.361   0.840   0.318  0.5046  1.4778 -2.1418
  705MOL0     H95110  -0.556   0.596   0.327  0.7347 -0.7633  0.7884
  705MOL0     H95111  -0.572   0.745   0.240 -1.7664 -0.9686 -0.0185
  705MOL0     H95112  -0.655   0.606   0.020  0.4042  0.4605 -0.0768
  705MOL0     H95113  -0.651   0.475   0.139 -0.8044  0.1929 -1.6262
  705MOL0     H95114  -0.818   0.588   0.268 -3.3485 -3.6575 -0.3026
  705MOL0     H95115  -0.822   0.712   0.132  2.7135 -0.7184 -1.3270
  705MOL0     H95116  -0.914   0.529  -0.020  0.1820  0.9939 -0.2221
  705MOL0     H95117  -0.861   0.409   0.111  2.4637  1.8152  2.1808
  705MOL0     H95118  -1.047   0.474   0.243 -0.2367  1.0190  0.5271
  705MOL0     H95119  -1.101   0.604   0.140 -0.0381  0.1402 -1.4358
  705MOL0     H95120  -1.122   0.436  -0.043  1.8270 -0.8810 -1.0108
  705MOL0     H95121  -1.087   0.304   0.075  1.4554  0.8792  0.8584
  705MOL0     H95122  -1.290   0.370   0.210  0.3054 -2.5117 -0.3561
  705MOL0     H95123  -1.328   0.480   0.076 -1.5073 -0.1866  1.9232
  705MOL0     H95124  -1.331   0.189   0.088  0.7650 -0.1627 -0.8305
  705MOL0     H95125  -1.300   0.251  -0.073 -1.1471  0.1934 -0.5084
  705MOL0     H95126  -1.563   0.230   0.206 -3.5134 -0.8534  0.4115
  705MOL0     H95127  -1.835   0.250   0.198  2.3028  0.7635 -0.1308
  705MOL0     H95128  -1.865   0.399   0.106  0.3922  0.6947  1.1596
  705MOL0     H95129  -1.887   0.125  -0.009  1.9158  0.9179 -1.2043
  705MOL0     H95130  -1.934   0.275  -0.091 -0.2014  0.2499  0.1464
  705MOL0     H95131  -2.057   0.194   0.183  1.4090  0.2940  0.3070
  705MOL0     H95132  -2.112   0.137   0.025 -0.9426 -0.3199  1.6644
  705MOL0     H95133  -2.148   0.362  -0.058  2.6383 -1.6463 -0.6999
  705MOL0     H95134  -2.074   0.436   0.086 -0.2785 -0.9521  0.1174
  705MOL0     H95135  -2.455   0.502  -0.032  3.5353 -0.0794 -2.2629
  705MOL0     H95136  -2.799   0.395  -0.088 -1.1888 -1.0489 -4.5664
  705MOL0     H95137  -2.683   0.532  -0.072 -1.3552  0.5172 -0.4557
  705MOL0     H95138  -2.690   0.431  -0.221  2.4405  0.1937  0.0454
  705MOL0     H95139  -2.961   0.038  -0.104 -1.4975  0.3984  1.0117
  705MOL0     H95140  -3.152  -0.076  -0.217 -0.2844  0.9596  0.8879
  705MOL0     H95141  -3.299  -0.189  -0.353 -1.8544 -0.2413 -0.3272
  705MOL0     H95142  -3.374  -0.036  -0.388  0.8272  1.7386 -1.4308
  705MOL0     H95143  -3.435  -0.090  -0.600 -1.3859  0.7318  1.7039
  705MOL0     H95144  -3.327  -0.245  -0.602  1.1610 -0.1577  1.7667
  705MOL0     H95145  -3.571  -0.198  -0.427  1.3533  0.9979  0.0132
  705MOL0     H95146  -3.463  -0.337  -0.449 -0.1098  0.5883  1.2513
  705MOL0     H95147  -3.541  -0.346  -0.700 -2.2390 -1.6622 -0.1093
  705MOL0     H95148  -3.668  -0.386  -0.581 -0.6968 -0.6636 -1.9250
  705MOL0     H95149  -3.628  -0.117  -0.731 -1.1478  0.5062  1.1071
  705MOL0     H95150  -3.732  -0.142  -0.594 -0.1576  0.5978  0.4833
  705MOL0     H95151  -3.793  -0.343  -0.809 -0.0300 -0.9896  3.4087
  705MOL0     H95152  -3.882  -0.269  -0.679  0.1599  0.0424  0.3273
  705MOL0     H95153  -3.803  -0.081  -0.884  1.2911 -0.3939  0.7044
  705MOL0     H95154  -3.919  -0.074  -0.752  1.3482  1.9432 -0.0882
  705MOL0     H95155  -4.043  -0.271  -0.880  1.8251  0.1793  1.7701
  705MOL0     H95156  -3.933  -0.222  -1.011  0.1719  0.6374 -0.7186
  705MOL0     H95157  -3.056   0.116  -0.581 -2.8642  0.7152  1.2243
  705MOL0     H95158  -2.856   0.230  -0.474 -0.3024 -0.6452 -1.9658
  705MOL0     H95159  -2.494   0.006  -0.026 -0.7801  0.6659  1.8316
  705MOL0     H95160  -2.312   0.108   0.097  0.0688  0.9350  0.9420
  705MOL0     H95161  -0.213   0.529   0.076 -1.0774 -0.8700  1.9162
  705MOL0     H95162   0.013   0.611   0.102  1.0711  0.4579  1.6827
  705MOL0     H95163   0.307   0.805   0.258 -1.2578  0.2990  0.0974
  705MOL0     H95164   0.546   0.836   0.253 -0.2899 -0.8389 -1.4916
  705MOL0     H95165   0.837   1.166   0.208 -0.4218  1.1536 -2.5203
  705MOL0     H95166   0.696   1.240   0.133 -1.4264 -1.6298 -0.4593
  705MOL0     H95167   0.614   1.289   0.373  0.4537  1.3379  0.0883
  705MOL0     H95168   0.770   1.347   0.365 -1.1441 -0.6160  0.7719
  705MOL0     H95169   0.875   1.138   0.435 -1.3880 -2.4901  0.3335
  705MOL0     H95170   0.722   1.069   0.470  0.3931  0.0566 -0.9390
  705MOL0     H95171   0.813   1.335   0.588 -0.5045 -1.1772 -2.6926
  705MOL0     H95172   0.843   1.177   0.673  0.2645  1.2147  1.9767
  705MOL0     H95173   0.449   1.246   0.777  0.5211  0.0356 -0.0774
  705MOL0     H95174   0.491   1.243   0.171  0.1465 -0.3715 -1.9068
  705MOL0     H95175   0.245   1.218   0.160 -0.0205  0.5765  0.1920
  706MOL0     O95176   8.230   9.731   3.074  0.4549 -0.2994  0.2752
  706MOL0     C95177   8.260   9.682   3.181  0.8363  1.0463 -0.0951
  706MOL0     O95178   8.161   9.653   3.276 -0.0245  0.4225 -0.2194
  706MOL0     C95179   8.034   9.712   3.274 -0.4807  0.4050  0.1929
  706MOL0     C95180   7.930   9.633   3.272 -0.1663  0.2284  0.5039
  706MOL0     C95181   7.795   9.680   3.302 -0.2898  0.4749  0.1083
  706MOL0     C95182   7.776   9.820   3.337  0.2658  0.3074  0.8111
  706MOL0     O95183   7.658   9.878   3.360 -0.7117  0.8246 -0.0969
  706MOL0     C95184   7.540   9.826   3.295 -0.1270 -0.7306 -0.3907
  706MOL0     C95185   7.423   9.929   3.305  0.2929 -0.0857 -0.8326
  706MOL0     C95186   7.392   9.961   3.451 -0.5279 -1.0136 -0.3613
  706MOL0     C95187   7.290  10.073   3.469 -0.6215  0.3263 -1.0198
  706MOL0     C95188   7.153  10.044   3.415 -0.1042  0.4084 -0.1163
  706MOL0     C95189   7.052  10.164   3.390  0.0837  0.4208 -0.3544
  706MOL0     C95190   6.916  10.118   3.352  1.0120 -0.5999  0.9614
  706MOL0     C95191   6.809  10.236   3.337  0.6731  0.3695  0.9118
  706MOL0     N95192   6.677  10.181   3.362  0.5621  0.2444  0.2954
  706MOL0     C95193   6.624  10.152   3.474  1.3082 -0.1561  0.3190
  706MOL0     C95194   6.509  10.086   3.444 -0.1732 -0.0041 -0.0023
  706MOL0     C95195   6.408  10.037   3.544 -0.6613 -0.3427 -0.3976
  706MOL0     C95196   6.463  10.029   3.690 -0.4383  0.0271 -0.2648
  706MOL0     C95197   6.365   9.965   3.793  1.2243  0.0241 -0.5755
  706MOL0     C95198   6.366   9.809   3.782  0.4733 -0.1940  0.0081
  706MOL0     O95199   6.283   9.755   3.876 -0.0507  0.2313  0.2228
  706MOL0     C95200   6.184   9.677   3.822 -0.6546 -0.0430  0.7372
  706MOL0     C95201   6.055   9.725   3.792 -0.0612 -0.5635  0.4177
  706MOL0     C95202   5.957   9.649   3.733  0.4291  0.2562  0.3210
  706MOL0     C95203   5.821   9.713   3.724 -0.0728  0.3695 -0.0674
  706MOL0     C95204   5.994   9.515   3.679  0.5582 -1.1025  0.8881
  706MOL0     C95205   5.892   9.413   3.623 -0.8134  0.6989  1.2325
  706MOL0     O95206   5.933   9.293   3.586  0.0169 -0.1534  0.0273
  706MOL0     C95207   5.835   9.205   3.540  0.9961 -0.0242  0.6468
  706MOL0     C95208   5.717   9.167   3.616 -0.3622 -0.2294  0.3126
  706MOL0     C95209   5.629   9.078   3.548 -0.4239 -0.0966 -0.2303
  706MOL0     C95210   5.653   9.035   3.420  0.2761  0.6524  0.0952
  706MOL0     O95211   5.577   8.936   3.363  0.2000 -0.1322  0.8992
  706MOL0     C95212   5.437   8.977   3.355 -0.7366 -0.4250 -0.5175
  706MOL0     C95213   5.356   8.848   3.321 -0.4712 -0.7880  0.1108
  706MOL0     C95214   5.293   8.785   3.439  0.2689 -0.2407 -0.2711
  706MOL0     C95215   5.235   8.653   3.395 -0.0909 -0.3373 -0.0076
  706MOL0     C95216   5.104   8.659   3.309  0.3466 -0.6236 -0.0545
  706MOL0     C95217   5.059   8.522   3.264 -0.0070 -0.2932 -0.5673
  706MOL0     C95218   4.931   8.541   3.193  0.8900  0.9669  0.4342
  706MOL0     C95219   4.871   8.420   3.119 -1.1585  0.1220  0.5543
  706MOL0    Cl95220   4.805   8.322   3.247 -0.0322 -0.4002  0.1415
  706MOL0     C95221   5.761   9.075   3.354  0.5828 -0.0421  0.2382
  706MOL0     C95222   5.858   9.156   3.414  0.3235  0.1147  1.0897
  706MOL0     O95223   5.782   9.466   3.595 -0.3849 -0.8106 -0.2282
  706MOL0     C95224   6.129   9.475   3.704  0.7400 -0.1033  0.2354
  706MOL0     C95225   6.221   9.551   3.773  0.7061 -0.4484 -0.1678
  706MOL0     N95226   6.496  10.077   3.305  0.4396  0.5604 -0.4901
  706MOL0     N95227   6.591  10.142   3.261 -0.5601 -0.4132 -0.6159
  706MOL0     C95228   7.898   9.895   3.347  0.9464 -0.4767 -0.0813
  706MOL0     C95229   8.018   9.849   3.302 -0.0682 -0.0246 -0.1528
  706MOL0     C95230   8.407   9.660   3.221 -0.3752  0.2661  0.1044
  706MOL0     C95231   8.503   9.663   3.117 -0.3961 -0.0813  0.1631
  706MOL0     C95232   8.633   9.641   3.155  0.2650 -1.2178  0.2347
  706MOL0     C95233   8.674   9.632   3.292  1.0219  0.4774  0.5849
  706MOL0     O95234   8.803   9.600   3.339 -0.7715 -0.2322  0.8199
  706MOL0     C95235   8.912   9.616   3.246 -0.1523  0.0028  0.8755
  706MOL0     C95236   8.937   9.483   3.165 -0.1776  0.5644  0.8927
  706MOL0     C95237   8.949   9.364   3.255  0.2997  0.2786 -0.0473
  706MOL0     C95238   9.035   9.250   3.197  0.1313 -0.5905 -0.0882
  706MOL0     C95239   9.180   9.274   3.160 -0.2681  0.1699 -0.0662
  706MOL0     C95240   9.293   9.288   3.119  0.4647  0.2062 -0.8008
  706MOL0     C95241   8.575   9.642   3.385 -0.2327  1.1609  0.4311
  706MOL0     C95242   8.442   9.658   3.357  0.4235  0.1646 -1.1834
  706MOL0     H95243   7.955   9.529   3.253  1.1478  0.6331 -0.0437
  706MOL0     H95244   7.707   9.617   3.292 -0.0879  0.0617  0.9285
  706MOL0     H95245   7.565   9.801   3.191  1.9050  1.8195 -0.6240
  706MOL0     H95246   7.515   9.732   3.343  0.2782 -2.0419 -2.5914
  706MOL0     H95247   7.460  10.012   3.243 -0.3979  1.1826  0.4087
  706MOL0     H95248   7.329   9.887   3.267 -0.9017  0.3430  1.4973
  706MOL0     H95249   7.347   9.875   3.502 -0.6064 -1.6320 -1.4498
  706MOL0     H95250   7.483   9.998   3.499 -1.5548  1.3022 -0.0797
  706MOL0     H95251   7.283  10.105   3.573  1.3885  0.3287 -0.8475
  706MOL0     H95252   7.318  10.166   3.418 -2.4887  0.6847 -1.4760
  706MOL0     H95253   7.152   9.990   3.319 -0.5524 -0.8886  0.5869
  706MOL0     H95254   7.107   9.985   3.495 -0.6019  1.2632  0.2369
  706MOL0     H95255   7.048  10.221   3.483  0.2028 -0.5270  0.2462
  706MOL0     H95256   7.098  10.223   3.311  1.4378 -2.0137 -1.4807
  706MOL0     H95257   6.925  10.078   3.250  0.3889  1.1596  0.1619
  706MOL0     H95258   6.879  10.051   3.430  0.2496 -1.2438  0.0713
  706MOL0     H95259   6.816  10.272   3.234  1.9768  2.9878  1.8492
  706MOL0     H95260   6.826  10.319   3.405  1.3265  0.5182  0.5653
  706MOL0     H95261   6.668  10.162   3.573  0.4525 -0.7116  0.7607
  706MOL0     H95262   6.322  10.105   3.540  0.7606  1.4829 -1.4447
  706MOL0     H95263   6.370   9.940   3.513 -3.5509  0.3425  0.6592
  706MOL0     H95264   6.504  10.124   3.724  0.5783 -0.3385 -0.4498
  706MOL0     H95265   6.544   9.956   3.686 -0.6488 -0.1790 -3.3917
  706MOL0     H95266   6.269  10.016   3.786  0.5395 -0.8546  1.6384
  706MOL0     H95267   6.400   9.999   3.891  1.3771 -0.9541 -0.2795
  706MOL0     H95268   6.466   9.772   3.804  1.3480  1.6510 -0.6145
  706MOL0     H95269   6.347   9.793   3.676  1.5941  1.1184 -0.4275
  706MOL0     H95270   6.048   9.826   3.832  3.2553  0.5690 -1.4323
  706MOL0     H95271   5.826   9.820   3.749 -0.4547  0.4097 -0.1498
  706MOL0     H95272   5.786   9.710   3.620  0.3840  0.9665 -0.2429
  706MOL0     H95273   5.746   9.670   3.790 -0.6827  1.3511 -0.0854
  706MOL0     H95274   5.703   9.198   3.719  2.0130 -3.8626  1.9483
  706MOL0     H95275   5.548   9.031   3.603  0.0199  0.4482  0.9112
  706MOL0     H95276   5.397   9.023   3.445  2.6767  2.4573 -0.2370
  706MOL0     H95277   5.415   9.045   3.272  1.7235  0.7109 -0.3460
  706MOL0     H95278   5.273   8.881   3.257 -0.7460  0.1974  0.9585
  706MOL0     H95279   5.412   8.768   3.273 -2.2578 -2.0841  0.0689
  706MOL0     H95280   5.230   8.859   3.489  1.6878 -0.2730  1.6928
  706MOL0     H95281   5.366   8.759   3.517  3.4464  3.9980 -1.4337
  706MOL0     H95282   5.319   8.606   3.343 -0.7896  0.2303 -1.7223
  706MOL0     H95283   5.200   8.605   3.487 -1.4646  4.4194  2.2540
  706MOL0     H95284   5.119   8.727   3.225 -0.7698 -0.4232 -0.1132
  706MOL0     H95285   5.033   8.723   3.362  2.2426 -0.3183  2.2422
  706MOL0     H95286   5.146   8.476   3.216 -1.2663 -1.9110 -1.4011
  706MOL0     H95287   5.040   8.456   3.349 -0.7988 -0.1140 -0.6044
  706MOL0     H95288   4.945   8.608   3.107  0.2762  1.5354  0.7677
  706MOL0     H95289   4.859   8.593   3.256 -0.2695  0.9351 -0.8234
  706MOL0     H95290   4.949   8.359   3.072 -0.6612 -0.0431  1.5565
  706MOL0     H95291   4.787   8.448   3.055  0.1503  2.9602 -0.0655
  706MOL0     H95292   5.773   9.040   3.252  3.2926 -0.3297  0.5556
  706MOL0     H95293   5.942   9.181   3.349 -1.3133  0.5320 -0.9434
  706MOL0     H95294   6.154   9.377   3.664  0.6518  0.6444 -1.7620
  706MOL0     H95295   6.324   9.526   3.796  0.6356 -0.3978  0.2058
  706MOL0     H95296   7.886   9.998   3.381  0.3954 -0.6539  0.2765
  706MOL0     H95297   8.104   9.915   3.309  0.2693 -0.3426 -1.1151
  706MOL0     H95298   8.469   9.689   3.018 -0.9066  3.6357  1.1626
  706MOL0     H95299   8.700   9.643   3.069  0.3746 -1.8047  0.3035
  706MOL0     H95300   8.902   9.689   3.165 -0.2731 -0.5602  0.3719
  706MOL0     H95301   9.007   9.633   3.298  0.1066 -0.5957  0.6143
  706MOL0     H95302   9.031   9.501   3.111 -1.2612  2.6604 -0.4391
  706MOL0     H95303   8.860   9.481   3.088  0.4124  0.7564  0.2871
  706MOL0     H95304   8.844   9.344   3.275 -0.5926  0.3663 -3.8517
  706MOL0     H95305   8.994   9.386   3.352  1.4416 -3.1413  0.3300
  706MOL0     H95306   8.990   9.217   3.102 -1.3191 -0.4697  0.5315
  706MOL0     H95307   9.033   9.163   3.264  0.5552 -0.3908  0.1844
  706MOL0     H95308   9.386   9.309   3.071 -0.5859  1.7890 -2.2611
  706MOL0     H95309   8.606   9.641   3.489  4.2977  2.9747 -0.6466
  706MOL0     H95310   8.366   9.677   3.433  0.7135  0.3981 -0.9445
  707MOL0     O95311   2.106   8.051   5.094  0.2019 -0.7204 -0.0528
  707MOL0     C95312   2.157   7.985   5.005 -0.9014 -0.1564  0.6106
  707MOL0     O95313   2.086   7.931   4.905 -0.3177  0.3291 -0.4437
  707MOL0     C95314   1.950   7.938   4.905  0.1373  0.6450  0.1678
  707MOL0     C95315   1.882   8.052   4.866  0.1531  0.3756  0.3874
  707MOL0     C95316   1.745   8.050   4.871  1.5429  0.2795 -0.0731
  707MOL0     C95317   1.677   7.927   4.895 -0.9199  0.1728 -0.5276
  707MOL0     O95318   1.540   7.916   4.898 -0.0556 -0.1114 -0.6982
  707MOL0     C95319   1.456   8.034   4.881 -0.6349 -0.0887 -0.4531
  707MOL0     C95320   1.312   7.980   4.862 -0.1203 -0.1209  0.4572
  707MOL0     C95321   1.231   8.098   4.799  0.1941  0.0026  0.0363
  707MOL0     C95322   1.085   8.057   4.795 -0.2931 -1.0902  0.3095
  707MOL0     C95323   0.996   8.159   4.720 -0.6007 -0.8928  0.1493
  707MOL0     C95324   0.848   8.107   4.732  1.0786 -1.3236 -0.0920
  707MOL0     C95325   0.756   8.201   4.651  0.0558  0.2888 -0.7776
  707MOL0     C95326   0.604   8.204   4.680 -0.6712 -0.8176 -0.8090
  707MOL0     N95327   0.517   8.107   4.602 -0.1567 -0.4968  0.2678
  707MOL0     C95328   0.568   8.004   4.528  0.1789  0.4400  0.0357
  707MOL0     C95329   0.456   7.963   4.462  0.7571  0.5936  0.7222
  707MOL0     C95330   0.446   7.869   4.351 -0.6726  0.3376 -0.4141
  707MOL0     C95331   0.511   7.734   4.383 -0.5328 -0.1149 -0.1817
  707MOL0     C95332   0.474   7.673   4.511  0.2489  0.2211 -0.4044
  707MOL0     C95333   0.525   7.526   4.517  0.4275 -0.8332  1.0134
  707MOL0     O95334   0.510   7.473   4.653 -0.0736 -0.0799  0.2885
  707MOL0     C95335   0.380   7.439   4.695 -0.4691  0.3920  0.9327
  707MOL0     C95336   0.367   7.397   4.835  0.1917 -0.3497 -0.6460
  707MOL0     C95337   0.242   7.353   4.881 -0.0585  0.8828 -0.5495
  707MOL0     C95338   0.244   7.307   5.022 -0.1515 -0.5651 -0.9240
  707MOL0     C95339   0.133   7.342   4.800  0.3095  0.5801  0.4652
  707MOL0     C95340   0.002   7.286   4.850  0.1451  0.1177  0.4955
  707MOL0     O95341   0.006   7.175   4.918 -0.5681  0.4392 -0.1854
  707MOL0     C95342  -0.114   7.107   4.933  0.0155  0.1859  0.6994
  707MOL0     C95343  -0.246   7.151   4.950 -0.2379  0.1895 -0.0209
  707MOL0     C95344  -0.354   7.063   4.956  0.5641 -0.0810  0.0936
  707MOL0     C95345  -0.324   6.921   4.964 -0.2773 -0.3915 -0.2538
  707MOL0     O95346  -0.424   6.831   4.997 -0.5678 -0.5239 -0.5727
  707MOL0     C95347  -0.450   6.745   4.884  0.4326 -0.4517  0.3047
  707MOL0     C95348  -0.573   6.653   4.909  0.9772  0.1980  0.2541
  707MOL0     C95349  -0.704   6.727   4.878  0.9618 -0.0723 -0.5798
  707MOL0     C95350  -0.823   6.628   4.899 -0.2816  0.1881  0.5597
  707MOL0     C95351  -0.849   6.525   4.782 -0.8447 -0.4913  0.4520
  707MOL0     C95352  -0.953   6.435   4.833 -0.3986  0.4593 -0.0043
  707MOL0     C95353  -0.988   6.325   4.732  0.5752 -1.2060 -0.9178
  707MOL0     C95354  -1.111   6.249   4.788  0.0103 -0.2179 -0.5557
  707MOL0    Cl95355  -1.054   6.146   4.923  0.5235  0.0844  0.0161
  707MOL0     C95356  -0.194   6.877   4.958 -0.5423 -0.3417  0.5927
  707MOL0     C95357  -0.084   6.967   4.939  0.2113 -0.7467  0.5981
  707MOL0     O95358  -0.093   7.349   4.817  0.3908  0.4272  0.4416
  707MOL0     C95359   0.149   7.388   4.665  0.4452 -1.2340  0.1769
  707MOL0     C95360   0.267   7.421   4.609 -0.1111 -0.5187  0.1693
  707MOL0     N95361   0.344   8.041   4.495 -0.1707 -0.2310  0.0019
  707MOL0     N95362   0.388   8.127   4.578 -0.1285 -0.3931 -0.0138
  707MOL0     C95363   1.747   7.813   4.933 -0.3922 -0.0960 -0.3519
  707MOL0     C95364   1.882   7.821   4.942  1.1394 -0.1928 -0.2231
  707MOL0     C95365   2.308   7.963   5.020 -0.3308  0.3144  0.1776
  707MOL0     C95366   2.391   8.037   5.114 -0.1556 -0.6770 -0.2678
  707MOL0     C95367   2.528   8.010   5.124 -0.5670  0.4674  1.5294
  707MOL0     C95368   2.581   7.898   5.055 -0.2012  0.2181 -0.1473
  707MOL0     O95369   2.707   7.866   5.065 -0.2168 -0.0658 -0.2050
  707MOL0     C95370   2.742   7.733   5.110  0.4813 -0.4286  0.6031
  707MOL0     C95371   2.847   7.744   5.219 -0.9118 -0.3400 -0.0673
  707MOL0     C95372   2.943   7.850   5.170  1.0163 -0.8151  0.1077
  707MOL0     C95373   3.077   7.840   5.236  0.4133  0.2505 -0.0964
  707MOL0     C95374   3.147   7.725   5.193  0.0514  0.9525 -0.0458
  707MOL0     C95375   3.214   7.627   5.156  0.6425 -0.1741  0.0178
  707MOL0     C95376   2.503   7.819   4.971 -0.1498 -0.5628  0.9511
  707MOL0     C95377   2.370   7.851   4.950  0.3576 -0.1890  0.7828
  707MOL0     H95378   1.942   8.141   4.847  1.1907  0.4894  3.6114
  707MOL0     H95379   1.688   8.142   4.857 -0.6263 -0.4560  2.9184
  707MOL0     H95380   1.457   8.106   4.963  1.4269 -0.6321  0.0594
  707MOL0     H95381   1.493   8.083   4.790  2.3194  2.2310  1.8097
  707MOL0     H95382   1.309   7.893   4.795  0.9171 -0.0195  0.2523
  707MOL0     H95383   1.276   7.949   4.960  2.2941  1.8533  2.0857
  707MOL0     H95384   1.234   8.187   4.863 -2.0738 -0.3739  0.7430
  707MOL0     H95385   1.262   8.117   4.696  0.2063  2.5588  0.4399
  707MOL0     H95386   1.079   7.963   4.740  0.5257 -1.4357  0.7796
  707MOL0     H95387   1.052   8.039   4.898 -0.7325 -1.3368  0.1271
  707MOL0     H95388   1.007   8.257   4.768 -1.4176  0.8560 -2.8977
  707MOL0     H95389   1.035   8.177   4.619  0.0133  0.3266  0.5791
  707MOL0     H95390   0.832   8.002   4.706 -1.5767 -0.7791 -0.8467
  707MOL0     H95391   0.831   8.110   4.840 -0.6431  0.4324 -0.3665
  707MOL0     H95392   0.783   8.305   4.676 -3.4840  0.5452  2.9774
  707MOL0     H95393   0.782   8.189   4.546 -0.5900 -0.6741 -0.8301
  707MOL0     H95394   0.572   8.304   4.649  2.0360 -0.6404 -3.4740
  707MOL0     H95395   0.584   8.190   4.786  1.7787 -0.3579 -0.2241
  707MOL0     H95396   0.665   7.958   4.514 -0.3234 -1.2364  1.6546
  707MOL0     H95397   0.340   7.852   4.330 -1.0990  1.1650  0.9170
  707MOL0     H95398   0.480   7.900   4.252  1.8551 -0.6012  0.0731
  707MOL0     H95399   0.620   7.746   4.378 -0.4370 -0.9284 -0.1398
  707MOL0     H95400   0.491   7.661   4.305  0.4577 -0.0080 -0.5499
  707MOL0     H95401   0.366   7.676   4.528 -0.1963 -0.0640 -2.7517
  707MOL0     H95402   0.526   7.721   4.594 -1.3413 -1.3424  1.6007
  707MOL0     H95403   0.631   7.530   4.490  0.4518 -1.5054  1.0047
  707MOL0     H95404   0.479   7.457   4.446 -0.6583  1.3131 -0.4912
  707MOL0     H95405   0.459   7.401   4.892  2.2620  1.4291 -3.8460
  707MOL0     H95406   0.149   7.313   5.076 -0.2302 -0.1770 -1.0959
  707MOL0     H95407   0.271   7.201   5.025 -0.0182 -0.5510 -1.5052
  707MOL0     H95408   0.319   7.360   5.082 -1.4987 -0.9805  1.2437
  707MOL0     H95409  -0.275   7.256   4.949 -3.1776 -0.5155 -0.5645
  707MOL0     H95410  -0.447   7.116   4.973  1.5641  1.8803 -0.3102
  707MOL0     H95411  -0.482   6.803   4.797 -0.7356 -1.3419  0.1197
  707MOL0     H95412  -0.365   6.677   4.868  0.2979 -0.7658  0.9131
  707MOL0     H95413  -0.565   6.561   4.851 -0.4012 -1.0441  1.9144
  707MOL0     H95414  -0.570   6.621   5.014  0.2268 -0.0185  0.2162
  707MOL0     H95415  -0.700   6.767   4.776 -0.8376 -0.9532 -1.0461
  707MOL0     H95416  -0.722   6.812   4.944  0.3480 -1.2301  0.7987
  707MOL0     H95417  -0.808   6.568   4.990  0.0972 -0.0241  0.3567
  707MOL0     H95418  -0.915   6.682   4.925 -0.4469  1.0852 -1.7053
  707MOL0     H95419  -0.757   6.466   4.773  1.7664  3.2906 -0.0499
  707MOL0     H95420  -0.870   6.582   4.691  2.1026  3.2107  1.8371
  707MOL0     H95421  -0.916   6.390   4.926 -0.3986  0.5942  0.0599
  707MOL0     H95422  -1.043   6.485   4.870 -0.1326 -0.2509  1.7343
  707MOL0     H95423  -0.910   6.249   4.724  1.1239 -0.5285 -2.6328
  707MOL0     H95424  -1.008   6.363   4.631 -3.9338  0.6797  0.4276
  707MOL0     H95425  -1.143   6.191   4.701 -2.8370  0.9677 -0.4032
  707MOL0     H95426  -1.202   6.306   4.811 -1.5787 -1.6435 -2.8816
  707MOL0     H95427  -0.173   6.771   4.964 -1.1045 -0.6726 -2.1473
  707MOL0     H95428   0.018   6.930   4.936  0.1345 -0.8999 -0.7589
  707MOL0     H95429   0.060   7.389   4.602  0.1984 -0.3986  0.5277
  707MOL0     H95430   0.267   7.460   4.507 -2.5925  1.8778  0.9407
  707MOL0     H95431   1.691   7.726   4.965 -2.1775  0.3354 -2.1127
  707MOL0     H95432   1.931   7.733   4.983 -1.7661 -1.9057 -0.2024
  707MOL0     H95433   2.348   8.118   5.172  0.0609  2.1831 -3.6859
  707MOL0     H95434   2.599   8.069   5.181 -0.5160  1.2778  0.6562
  707MOL0     H95435   2.653   7.688   5.154  1.4455 -2.4221  0.6242
  707MOL0     H95436   2.775   7.670   5.027 -2.3098 -1.2674  0.0072
  707MOL0     H95437   2.892   7.645   5.229  1.3480  0.7278  1.5175
  707MOL0     H95438   2.797   7.789   5.306 -0.1552 -1.5544  1.0279
  707MOL0     H95439   2.887   7.943   5.185 -1.1882 -1.6700 -2.1844
  707MOL0     H95440   2.953   7.831   5.063 -1.1371  1.4526 -0.5863
  707MOL0     H95441   3.064   7.836   5.344 -1.1138 -1.0469 -0.2932
  707MOL0     H95442   3.131   7.929   5.204 -0.2487  0.5222 -0.4707
  707MOL0     H95443   3.274   7.541   5.136  3.4720  0.8888  2.9765
  707MOL0     H95444   2.545   7.746   4.903 -3.8892  0.1812 -2.6199
  707MOL0     H95445   2.307   7.796   4.880  2.8513 -2.2391  0.0000
  708MOL0     O95446   0.855   0.871   9.139  0.5398  0.2141  0.9825
  708MOL0     C95447   0.970   0.910   9.165 -0.3567 -0.3055  0.2349
  708MOL0     O95448   1.008   1.035   9.195  0.2583 -0.3304  0.4050
  708MOL0     C95449   0.928   1.145   9.182  0.2133 -0.0217 -0.4178
  708MOL0     C95450   0.970   1.254   9.098  0.3638  0.1252 -0.1478
  708MOL0     C95451   0.902   1.378   9.090 -0.4587  0.5813 -0.8182
  708MOL0     C95452   0.795   1.394   9.179  0.0524  0.4209  0.4643
  708MOL0     O95453   0.724   1.512   9.184  0.0234 -0.6502 -0.1831
  708MOL0     C95454   0.746   1.614   9.097  0.4412 -0.8446 -0.0136
  708MOL0     C95455   0.644   1.725   9.127 -0.3737 -0.2708  0.6682
  708MOL0     C95456   0.489   1.696   9.100 -0.7915  0.7318  0.3036
  708MOL0     C95457   0.392   1.815   9.118  0.2571 -0.4849  0.8207
  708MOL0     C95458   0.245   1.772   9.127 -0.7130  0.5128 -0.3582
  708MOL0     C95459   0.151   1.888   9.146 -0.6791  0.6329 -0.0364
  708MOL0     C95460  -0.002   1.834   9.145 -0.5232 -0.0061 -0.7920
  708MOL0     C95461  -0.052   1.760   9.014 -0.4666 -0.4688  0.1643
  708MOL0     N95462  -0.197   1.721   9.018  0.2641 -0.3711  0.2992
  708MOL0     C95463  -0.241   1.601   8.967 -0.5330  0.6490 -0.3332
  708MOL0     C95464  -0.381   1.611   8.962 -0.0938 -1.0560  0.8165
  708MOL0     C95465  -0.485   1.507   8.933 -0.3256 -0.0820 -0.6557
  708MOL0     C95466  -0.549   1.455   9.063  0.0758  0.4450 -0.0770
  708MOL0     C95467  -0.627   1.326   9.034  0.6623 -0.2421  0.0816
  708MOL0     C95468  -0.755   1.330   8.957  0.6861 -0.2601  0.1452
  708MOL0     O95469  -0.823   1.202   8.963 -0.0727 -0.7657  0.2582
  708MOL0     C95470  -0.960   1.208   8.967 -0.5505 -0.4779 -0.2472
  708MOL0     C95471  -1.019   1.146   8.861  0.8241 -0.3195  0.0698
  708MOL0     C95472  -1.160   1.161   8.848  1.0313  0.1394 -0.4211
  708MOL0     C95473  -1.228   1.097   8.725 -0.0894  0.1880 -0.4646
  708MOL0     C95474  -1.238   1.225   8.952 -0.3281  0.3679 -0.0286
  708MOL0     C95475  -1.390   1.214   8.960 -0.7906  0.0741 -0.8527
  708MOL0     O95476  -1.467   1.246   8.853 -0.3709  0.4238 -0.1082
  708MOL0     C95477  -1.601   1.226   8.860  0.6729 -0.3559  0.3582
  708MOL0     C95478  -1.669   1.127   8.797 -0.1298 -0.5000 -0.1097
  708MOL0     C95479  -1.802   1.109   8.817 -0.1466  0.0867 -0.8160
  708MOL0     C95480  -1.879   1.200   8.890  0.3759  0.1977 -0.2335
  708MOL0     O95481  -2.018   1.194   8.886  0.5055 -1.0052  0.1462
  708MOL0     C95482  -2.105   1.302   8.944 -0.2412  0.3061 -0.4700
  708MOL0     C95483  -2.249   1.298   8.891 -0.4905  0.0927 -0.2400
  708MOL0     C95484  -2.257   1.354   8.742  0.4498  0.3541 -1.1605
  708MOL0     C95485  -2.402   1.349   8.696 -0.4566  0.7849 -0.3785
  708MOL0     C95486  -2.424   1.389   8.548 -0.1576 -0.3717  0.6671
  708MOL0     C95487  -2.579   1.422   8.536  0.6103  0.0466 -0.5157
  708MOL0     C95488  -2.601   1.476   8.400  1.1130  0.1749 -0.2115
  708MOL0     C95489  -2.747   1.441   8.346  0.7054 -0.3894  0.4766
  708MOL0    Cl95490  -2.777   1.268   8.333 -0.5381 -0.1238 -0.2684
  708MOL0     C95491  -1.811   1.301   8.956 -0.8200 -0.0459  1.1084
  708MOL0     C95492  -1.677   1.314   8.939  0.4947 -0.0476 -0.6184
  708MOL0     O95493  -1.433   1.154   9.065 -0.3883 -0.1378 -0.2098
  708MOL0     C95494  -1.181   1.278   9.058  0.2190  0.6842 -0.0521
  708MOL0     C95495  -1.034   1.277   9.063  0.4476 -0.1390 -0.6994
  708MOL0     N95496  -0.409   1.734   9.002 -0.1801 -0.1134 -0.0470
  708MOL0     N95497  -0.303   1.805   9.033 -0.4459  0.0112  1.0490
  708MOL0     C95498   0.753   1.285   9.261 -0.0672 -0.1374 -0.2338
  708MOL0     C95499   0.812   1.164   9.254  0.6408 -0.2861 -0.0033
  708MOL0     C95500   1.079   0.821   9.145 -0.3982  0.1308  0.0424
  708MOL0     C95501   1.213   0.868   9.181 -0.5665 -0.6681 -0.6971
  708MOL0     C95502   1.322   0.785   9.167  0.5894  0.3576 -0.9586
  708MOL0     C95503   1.307   0.657   9.112 -1.0194  0.7252 -0.1133
  708MOL0     O95504   1.416   0.577   9.096 -0.5944  0.5955 -0.2258
  708MOL0     C95505   1.524   0.636   9.021 -0.0965 -0.9449  0.1289
  708MOL0     C95506   1.604   0.523   8.967  0.2480 -0.1223 -1.0803
  708MOL0     C95507   1.717   0.564   8.879  0.2215 -0.1277 -0.2289
  708MOL0     C95508   1.768   0.463   8.776  0.2292 -0.4937 -1.0481
  708MOL0     C95509   1.844   0.356   8.832 -0.0402  0.2839  1.3404
  708MOL0     C95510   1.906   0.264   8.877  0.4232 -0.2306  0.1790
  708MOL0     C95511   1.179   0.615   9.079 -0.3316 -0.0924 -0.2486
  708MOL0     C95512   1.071   0.697   9.085  1.1176  0.2140  0.0892
  708MOL0     H95513   1.066   1.233   9.052 -0.3368 -3.5248 -0.2561
  708MOL0     H95514   0.951   1.456   9.032  0.7853  1.2671  1.0674
  708MOL0     H95515   0.841   1.666   9.107 -0.5302  0.9607  0.1528
  708MOL0     H95516   0.742   1.576   8.994 -0.6155  0.8897 -0.6658
  708MOL0     H95517   0.657   1.764   9.228  0.5737  1.8669 -0.1891
  708MOL0     H95518   0.660   1.813   9.063 -1.7344  0.4907  1.3379
  708MOL0     H95519   0.472   1.660   8.999  2.6842 -2.3726  0.6119
  708MOL0     H95520   0.472   1.608   9.163  0.7135 -0.2253 -0.5743
  708MOL0     H95521   0.417   1.884   9.199 -3.3353 -1.1541  2.7098
  708MOL0     H95522   0.404   1.882   9.032  0.7388  0.9777  1.9830
  708MOL0     H95523   0.221   1.707   9.043  2.2647 -0.9580 -0.2133
  708MOL0     H95524   0.240   1.703   9.211  2.0140 -3.3504 -3.0146
  708MOL0     H95525   0.168   1.932   9.244 -0.3363  0.1218  0.1363
  708MOL0     H95526   0.158   1.960   9.064 -2.2431  1.3978  0.4637
  708MOL0     H95527  -0.015   1.763   9.227  1.6507  1.5382  1.0374
  708MOL0     H95528  -0.065   1.923   9.155 -1.2973 -0.5130 -1.0815
  708MOL0     H95529   0.006   1.671   8.987  0.9155 -0.1677  1.9738
  708MOL0     H95530  -0.038   1.824   8.926 -3.8161  1.8837  1.1631
  708MOL0     H95531  -0.171   1.518   8.955 -0.3151  1.0189 -1.8665
  708MOL0     H95532  -0.566   1.556   8.878 -0.5037  0.5739  0.1875
  708MOL0     H95533  -0.429   1.428   8.881  0.0853 -1.1036  1.2598
  708MOL0     H95534  -0.621   1.531   9.094  0.6685 -0.4226  3.9993
  708MOL0     H95535  -0.479   1.427   9.141 -0.1392 -3.7078 -1.1151
  708MOL0     H95536  -0.655   1.283   9.131 -0.1568  2.0048  0.9047
  708MOL0     H95537  -0.561   1.250   8.992  1.8895  0.4957  0.6228
  708MOL0     H95538  -0.737   1.354   8.852 -1.6071 -1.8427 -0.6733
  708MOL0     H95539  -0.816   1.406   9.008  0.9199  0.4180 -0.5676
  708MOL0     H95540  -0.960   1.088   8.792  3.6145  1.3702  0.8668
  708MOL0     H95541  -1.305   1.023   8.749  1.6539 -2.2314 -1.8952
  708MOL0     H95542  -1.266   1.173   8.655  1.4530  4.1397  2.5700
  708MOL0     H95543  -1.141   1.050   8.681  0.8806  0.2609  1.2979
  708MOL0     H95544  -1.626   1.046   8.739  0.9650 -1.1613  1.5732
  708MOL0     H95545  -1.854   1.024   8.774 -0.3577 -0.2536  0.0884
  708MOL0     H95546  -2.098   1.271   9.049 -0.8697  1.3208 -0.1170
  708MOL0     H95547  -2.050   1.395   8.926  0.2938  0.4319  1.6041
  708MOL0     H95548  -2.282   1.194   8.886  1.8475 -0.6722 -1.7302
  708MOL0     H95549  -2.311   1.361   8.955  0.5920 -0.4693  1.4183
  708MOL0     H95550  -2.196   1.301   8.669 -0.0204 -1.7453 -0.1053
  708MOL0     H95551  -2.229   1.460   8.743  0.6071  0.3367  0.8692
  708MOL0     H95552  -2.439   1.249   8.716  0.7182  0.2137 -0.9401
  708MOL0     H95553  -2.458   1.419   8.759  2.0408  0.5055  2.3459
  708MOL0     H95554  -2.387   1.310   8.483  0.6242  2.6598 -2.9506
  708MOL0     H95555  -2.357   1.470   8.516 -0.7178 -0.6135 -1.2253
  708MOL0     H95556  -2.635   1.329   8.526  1.4071 -0.4263 -0.6624
  708MOL0     H95557  -2.625   1.493   8.606 -1.9124  0.6635 -2.6078
  708MOL0     H95558  -2.535   1.421   8.332  0.2976  0.3332 -1.1665
  708MOL0     H95559  -2.585   1.584   8.392  0.0514  0.3407 -0.1916
  708MOL0     H95560  -2.776   1.475   8.246  1.9976 -0.0403  0.2072
  708MOL0     H95561  -2.820   1.488   8.412 -1.6324 -1.4680 -1.2008
  708MOL0     H95562  -1.870   1.374   9.010 -1.0721  0.5018  0.1287
  708MOL0     H95563  -1.619   1.391   8.988  3.7489 -2.8914  0.4358
  708MOL0     H95564  -1.242   1.331   9.130 -0.8304 -1.8030  1.0073
  708MOL0     H95565  -0.978   1.307   9.151 -0.9550 -3.0346  1.3608
  708MOL0     H95566   0.661   1.304   9.316  0.0168  1.9267 -0.6938
  708MOL0     H95567   0.774   1.088   9.322  3.5659  0.0189  2.1762
  708MOL0     H95568   1.238   0.961   9.231  0.6365 -0.6130 -1.3639
  708MOL0     H95569   1.413   0.831   9.202 -0.2623  0.0617  1.8687
  708MOL0     H95570   1.482   0.696   8.940 -0.2521 -0.2483  0.7165
  708MOL0     H95571   1.573   0.708   9.087 -3.4487  1.0055  0.6917
  708MOL0     H95572   1.536   0.461   8.910 -2.5047  1.9680 -0.3005
  708MOL0     H95573   1.642   0.467   9.053  5.9980  2.0287 -1.7523
  708MOL0     H95574   1.797   0.604   8.941 -0.4215  1.9035 -0.6418
  708MOL0     H95575   1.692   0.650   8.816 -0.3735 -1.3880 -1.8072
  708MOL0     H95576   1.842   0.517   8.715  0.9362 -0.1193  0.1178
  708MOL0     H95577   1.678   0.433   8.721 -0.5231  0.8472 -0.5931
  708MOL0     H95578   1.965   0.185   8.917  2.1056  0.9747  0.1677
  708MOL0     H95579   1.169   0.513   9.043  0.8489 -1.7815  3.6512
  708MOL0     H95580   0.973   0.667   9.049  1.2751  2.0793 -2.0947
  709MOL0     O95581   1.361   7.192   8.284  0.8047  0.0476  0.2882
  709MOL0     C95582   1.419   7.122   8.196  1.1345  0.4425 -0.7482
  709MOL0     O95583   1.373   7.014   8.137 -0.1319 -0.9093 -0.0268
  709MOL0     C95584   1.241   6.977   8.160  0.5334  0.7199  0.1741
  709MOL0     C95585   1.213   6.837   8.174  0.0444  1.2786 -0.2287
  709MOL0     C95586   1.081   6.789   8.184 -0.2843 -0.5474 -0.9461
  709MOL0     C95587   0.974   6.874   8.175  1.0878 -0.5640  0.0377
  709MOL0     O95588   0.851   6.809   8.174 -0.0668  0.3891 -0.0680
  709MOL0     C95589   0.744   6.885   8.127  0.2751  0.2768  0.2050
  709MOL0     C95590   0.640   6.775   8.094  0.3598 -0.5559 -0.2707
  709MOL0     C95591   0.515   6.841   8.027  0.7042 -0.5737  1.1522
  709MOL0     C95592   0.445   6.735   7.936 -0.3540 -0.0021  0.1806
  709MOL0     C95593   0.315   6.799   7.873  0.2666  0.3152 -0.1176
  709MOL0     C95594   0.282   6.739   7.740  0.6338 -0.6899  0.6008
  709MOL0     C95595   0.154   6.787   7.676 -0.2383 -0.2604 -0.6041
  709MOL0     C95596   0.145   6.744   7.530  0.5924  0.5283 -0.0225
  709MOL0     N95597   0.035   6.805   7.462 -0.3925  0.4800  0.0300
  709MOL0     C95598  -0.095   6.777   7.476  0.2947 -0.1496 -0.1683
  709MOL0     C95599  -0.157   6.873   7.401  0.0570 -0.5575  0.2783
  709MOL0     C95600  -0.308   6.891   7.373 -0.1468  0.3755  0.0837
  709MOL0     C95601  -0.350   6.806   7.250 -0.4893 -0.7370  0.0942
  709MOL0     C95602  -0.381   6.656   7.265 -0.1810 -0.3588 -0.8422
  709MOL0     C95603  -0.483   6.647   7.379  0.1432  0.2747  0.6712
  709MOL0     O95604  -0.523   6.507   7.379 -0.7450  0.0721 -0.7893
  709MOL0     C95605  -0.652   6.468   7.400  0.3186  0.3815 -0.4454
  709MOL0     C95606  -0.756   6.546   7.447 -0.0098 -0.1031 -0.1804
  709MOL0     C95607  -0.893   6.492   7.467 -0.3744 -0.0672  0.9657
  709MOL0     C95608  -0.989   6.585   7.510 -0.3205 -0.2593 -0.1590
  709MOL0     C95609  -0.916   6.351   7.440  0.1740  0.1181 -0.5947
  709MOL0     C95610  -1.049   6.288   7.467  0.5740  1.0623  0.2892
  709MOL0     O95611  -1.076   6.172   7.395  0.9764  0.6027 -0.4445
  709MOL0     C95612  -1.200   6.126   7.354 -1.0098 -0.4615  0.1271
  709MOL0     C95613  -1.212   5.992   7.327 -0.7100 -0.3372  0.0103
  709MOL0     C95614  -1.336   5.931   7.292 -0.1412  0.0796  0.8308
  709MOL0     C95615  -1.457   6.009   7.306  0.0576 -0.0739 -0.4168
  709MOL0     O95616  -1.582   5.959   7.295 -1.0117  0.5135  0.1690
  709MOL0     C95617  -1.590   5.832   7.218 -0.7731 -0.2461 -0.0335
  709MOL0     C95618  -1.731   5.798   7.162  1.1311  0.3155  0.2943
  709MOL0     C95619  -1.832   5.739   7.265  0.3122  0.7742 -0.0094
  709MOL0     C95620  -1.973   5.755   7.218 -0.5767  0.1071  0.1731
  709MOL0     C95621  -2.078   5.710   7.323 -0.6751  0.2254  0.1805
  709MOL0     C95622  -2.223   5.735   7.283 -0.4321 -0.5266 -1.3624
  709MOL0     C95623  -2.268   5.660   7.159 -0.8961  1.3844  0.3156
  709MOL0     C95624  -2.425   5.673   7.140 -0.6677 -0.2669  0.1388
  709MOL0    Cl95625  -2.465   5.840   7.080 -0.0255 -0.0836  0.2249
  709MOL0     C95626  -1.444   6.144   7.339 -0.3992 -0.7297  0.4074
  709MOL0     C95627  -1.315   6.199   7.362  0.2392 -0.2945 -0.4098
  709MOL0     O95628  -1.130   6.350   7.531  0.5750 -1.0012 -0.8216
  709MOL0     C95629  -0.806   6.278   7.390 -0.3981 -0.5748 -0.1090
  709MOL0     C95630  -0.680   6.331   7.370 -0.2679 -0.8463  0.8096
  709MOL0     N95631  -0.058   6.943   7.330  0.2761 -0.2274  0.1061
  709MOL0     N95632   0.056   6.901   7.370 -0.1657  0.0072  0.3404
  709MOL0     C95633   1.002   7.012   8.167 -0.7319  0.1614  0.4137
  709MOL0     C95634   1.129   7.063   8.151 -1.2496  0.2888  0.6491
  709MOL0     C95635   1.556   7.153   8.163  0.4933  0.4068 -0.3081
  709MOL0     C95636   1.614   7.119   8.041 -0.0040  1.3911 -0.1106
  709MOL0     C95637   1.749   7.128   8.018 -0.0861 -0.2607 -0.3973
  709MOL0     C95638   1.833   7.202   8.103  0.1107  0.2348 -0.1547
  709MOL0     O95639   1.965   7.240   8.088 -0.2643  0.6361  0.0551
  709MOL0     C95640   2.039   7.145   8.010  0.5478  0.2354 -0.0721
  709MOL0     C95641   2.188   7.170   8.016 -0.2641  0.2647  0.5876
  709MOL0     C95642   2.278   7.057   7.970 -0.9672  1.2517  0.5066
  709MOL0     C95643   2.410   7.102   7.914 -0.0818 -0.7808  0.1016
  709MOL0     C95644   2.394   7.165   7.783  0.1816 -0.8524 -0.3036
  709MOL0     C95645   2.394   7.216   7.669 -0.3792 -1.0566 -0.7304
  709MOL0     C95646   1.765   7.259   8.212  0.7061  0.8718 -0.6048
  709MOL0     C95647   1.632   7.233   8.246  0.3589  0.9654 -1.0852
  709MOL0     H95648   1.284   6.755   8.183 -1.3163 -0.1171 -1.6572
  709MOL0     H95649   1.058   6.683   8.195  1.5107 -0.8418  0.4742
  709MOL0     H95650   0.697   6.956   8.196  0.6535  0.2461  0.4923
  709MOL0     H95651   0.769   6.943   8.037 -1.5979 -0.6930 -1.0259
  709MOL0     H95652   0.678   6.698   8.026  0.6934 -2.3702  1.8764
  709MOL0     H95653   0.604   6.717   8.179  0.6608 -0.6543 -0.2084
  709MOL0     H95654   0.449   6.877   8.106 -1.4443 -0.8976 -0.3854
  709MOL0     H95655   0.547   6.925   7.965 -2.4227  0.6427  0.9674
  709MOL0     H95656   0.511   6.707   7.853  0.2817 -3.0097  1.5735
  709MOL0     H95657   0.423   6.645   7.995 -2.8638  1.1406  1.1122
  709MOL0     H95658   0.231   6.784   7.942 -0.5578 -1.3605 -1.4147
  709MOL0     H95659   0.336   6.905   7.857  1.8905  0.1297  0.5523
  709MOL0     H95660   0.371   6.761   7.681  0.2168  1.2930  0.6247
  709MOL0     H95661   0.276   6.631   7.753 -2.5108 -0.9353 -1.6279
  709MOL0     H95662   0.074   6.742   7.736  2.1380 -2.4302  1.1647
  709MOL0     H95663   0.148   6.896   7.672  2.3721 -0.0570 -0.4611
  709MOL0     H95664   0.124   6.637   7.521 -4.9135  1.3409 -0.3260
  709MOL0     H95665   0.237   6.762   7.474  0.5252 -0.9964 -0.6666
  709MOL0     H95666  -0.142   6.705   7.542 -1.1589  2.6021  1.9934
  709MOL0     H95667  -0.348   6.868   7.472  2.2063 -2.8452  0.4201
  709MOL0     H95668  -0.331   6.993   7.341 -3.9066 -0.1038  0.8423
  709MOL0     H95669  -0.266   6.825   7.182  0.8018  0.1086  1.8405
  709MOL0     H95670  -0.436   6.862   7.212  0.9136  1.3218 -0.2208
  709MOL0     H95671  -0.286   6.611   7.296  0.5847  2.1928  0.7978
  709MOL0     H95672  -0.427   6.621   7.172  1.7423  0.6818 -2.2587
  709MOL0     H95673  -0.563   6.715   7.348  0.7350 -0.1817 -2.1234
  709MOL0     H95674  -0.439   6.670   7.476  0.8168 -1.2098  0.7366
  709MOL0     H95675  -0.737   6.649   7.475 -0.1131 -0.0728 -0.2197
  709MOL0     H95676  -1.069   6.600   7.437 -1.1658  2.6147  1.1773
  709MOL0     H95677  -1.035   6.551   7.603  0.3622  1.9020  1.0356
  709MOL0     H95678  -0.947   6.685   7.522 -0.5287 -0.3067  1.0630
  709MOL0     H95679  -1.130   5.921   7.334 -1.3807 -1.1984 -0.7641
  709MOL0     H95680  -1.342   5.825   7.272  0.4343  0.2395 -0.2412
  709MOL0     H95681  -1.524   5.834   7.131 -1.6795 -1.8946 -0.8083
  709MOL0     H95682  -1.566   5.744   7.280 -2.2355 -0.2967  0.5164
  709MOL0     H95683  -1.766   5.886   7.107 -1.4494  0.2149  1.5927
  709MOL0     H95684  -1.725   5.716   7.090  1.8776  1.2049 -0.6737
  709MOL0     H95685  -1.831   5.787   7.364 -1.8456 -0.3357  0.5939
  709MOL0     H95686  -1.806   5.636   7.288 -0.9063  0.9287  2.3543
  709MOL0     H95687  -1.998   5.861   7.203 -1.2039  0.2475  2.0090
  709MOL0     H95688  -1.998   5.687   7.135  2.8421 -2.5757  1.1246
  709MOL0     H95689  -2.069   5.776   7.410 -0.7412  0.8190 -0.2581
  709MOL0     H95690  -2.058   5.609   7.362  1.2817  0.4178 -0.1844
  709MOL0     H95691  -2.285   5.696   7.365 -1.0558 -3.5128 -3.1128
  709MOL0     H95692  -2.250   5.841   7.273 -0.5754 -0.0270  2.6702
  709MOL0     H95693  -2.238   5.556   7.175 -0.0997  1.5586 -0.0047
  709MOL0     H95694  -2.219   5.686   7.065 -1.2457  1.0676  0.0411
  709MOL0     H95695  -2.480   5.664   7.234  0.8832 -0.0108  1.1039
  709MOL0     H95696  -2.459   5.588   7.080  0.2633 -1.4608  1.2424
  709MOL0     H95697  -1.535   6.203   7.344 -1.0854 -1.4715 -1.8965
  709MOL0     H95698  -1.314   6.300   7.401 -0.0340 -1.0883  1.8281
  709MOL0     H95699  -0.821   6.171   7.382  0.2103 -0.8374  1.7187
  709MOL0     H95700  -0.602   6.265   7.333  1.4479  2.4763 -2.0205
  709MOL0     H95701   0.921   7.084   8.161 -0.5821  0.2851 -0.2388
  709MOL0     H95702   1.134   7.170   8.135 -4.0739  0.1637 -1.9157
  709MOL0     H95703   1.561   7.047   7.979  0.3146  0.8565  0.2243
  709MOL0     H95704   1.778   7.086   7.922 -3.0152 -1.2316 -0.9673
  709MOL0     H95705   2.020   7.052   8.064 -0.4665  0.3954 -0.1305
  709MOL0     H95706   2.000   7.142   7.907 -0.9958 -1.0370  0.5190
  709MOL0     H95707   2.215   7.207   8.116  0.2228 -1.2728  1.0521
  709MOL0     H95708   2.203   7.250   7.943  1.1679 -0.4631  0.0540
  709MOL0     H95709   2.240   6.992   7.892  2.3797 -3.0324  2.0471
  709MOL0     H95710   2.291   6.988   8.054 -0.1812  3.3629  2.2497
  709MOL0     H95711   2.477   7.017   7.893  0.7886 -1.2960  4.0726
  709MOL0     H95712   2.451   7.169   7.990 -2.4937  3.6336 -2.1081
  709MOL0     H95713   2.393   7.252   7.568  0.5802 -1.8967 -1.0598
  709MOL0     H95714   1.824   7.314   8.285  2.6771 -0.5663 -1.0345
  709MOL0     H95715   1.604   7.266   8.345 -2.0985 -0.5104 -1.2189
  710MOL0     O95716  11.141   2.804   1.911  0.1160  0.4622 -0.4381
  710MOL0     C95717  11.235   2.732   1.945 -0.0970  0.9002 -1.0668
  710MOL0     O95718  11.225   2.595   1.943 -0.2354 -0.0289 -0.6963
  710MOL0     C95719  11.106   2.526   1.919 -0.3908 -0.5373  0.5128
  710MOL0     C95720  11.033   2.519   1.800  0.0057 -0.4467  0.0716
  710MOL0     C95721  10.907   2.450   1.789  0.1113 -0.0692  0.7352
  710MOL0     C95722  10.855   2.388   1.900 -0.4407  1.0407 -0.1979
  710MOL0     O95723  10.734   2.324   1.892  0.2378 -0.1152 -0.5635
  710MOL0     C95724  10.629   2.403   1.942 -0.3020 -0.2833  0.7221
  710MOL0     C95725  10.513   2.406   1.836 -0.2654 -0.1254  0.1644
  710MOL0     C95726  10.542   2.464   1.693  0.7726  0.0388 -0.3293
  710MOL0     C95727  10.428   2.430   1.590 -0.6892  0.7608 -0.2353
  710MOL0     C95728  10.315   2.525   1.601  0.6268  0.3388 -0.1688
  710MOL0     C95729  10.207   2.494   1.495 -0.0396  0.0434 -1.2566
  710MOL0     C95730  10.107   2.606   1.496 -0.9377 -0.0879  0.0105
  710MOL0     C95731   9.982   2.586   1.409  0.0475 -0.0946  0.0585
  710MOL0     N95732   9.881   2.484   1.457 -0.1255  0.1327  0.4775
  710MOL0     C95733   9.800   2.495   1.561 -0.3991 -0.7479 -0.7618
  710MOL0     C95734   9.722   2.387   1.557  1.0182 -0.9256 -0.1317
  710MOL0     C95735   9.594   2.374   1.643  0.3232 -0.0567 -0.2621
  710MOL0     C95736   9.467   2.411   1.572  0.0710 -0.4208 -0.7938
  710MOL0     C95737   9.353   2.404   1.671  0.6476 -0.7051  0.4253
  710MOL0     C95738   9.215   2.421   1.599  0.5058  0.1313  0.3184
  710MOL0     O95739   9.112   2.386   1.693  0.4559  0.3573 -0.0211
  710MOL0     C95740   9.030   2.483   1.750 -0.7226  0.4480  0.1180
  710MOL0     C95741   9.065   2.618   1.756 -0.0127 -0.4584 -0.3437
  710MOL0     C95742   8.970   2.719   1.797 -0.2467  0.0339  0.2732
  710MOL0     C95743   9.025   2.858   1.792 -0.7067  0.8096 -0.3260
  710MOL0     C95744   8.833   2.684   1.809 -0.8722 -0.4425 -0.2444
  710MOL0     C95745   8.728   2.784   1.835 -0.8164  0.0381 -0.7159
  710MOL0     O95746   8.612   2.726   1.821  0.1204  0.5971  0.1178
  710MOL0     C95747   8.488   2.791   1.823  0.6769  1.1028 -0.7314
  710MOL0     C95748   8.385   2.716   1.888  0.2964 -0.3513 -0.2530
  710MOL0     C95749   8.258   2.776   1.895  0.3408  0.2251 -0.5834
  710MOL0     C95750   8.229   2.904   1.846 -0.6738  0.3494  0.1344
  710MOL0     O95751   8.108   2.967   1.833  0.2971  0.9461 -0.1774
  710MOL0     C95752   8.012   2.910   1.926  0.5077 -0.5158 -0.1050
  710MOL0     C95753   7.891   2.999   1.931 -0.9549  0.7397 -0.3249
  710MOL0     C95754   7.773   2.963   1.839  0.2428  0.2402 -0.1457
  710MOL0     C95755   7.808   2.947   1.689 -0.7053  0.7305  0.3676
  710MOL0     C95756   7.679   2.892   1.623 -0.4447 -0.7660 -0.3756
  710MOL0     C95757   7.722   2.846   1.492 -0.2393  0.0101 -0.2737
  710MOL0     C95758   7.611   2.829   1.383 -0.5554  0.7117 -0.6309
  710MOL0     C95759   7.666   2.818   1.236 -0.8612 -0.9060  0.6755
  710MOL0    Cl95760   7.774   2.671   1.208  0.2991 -0.1174  0.2404
  710MOL0     C95761   8.330   2.970   1.784 -0.5472 -0.0742 -0.0539
  710MOL0     C95762   8.456   2.914   1.773 -1.2070  0.8976  0.1091
  710MOL0     O95763   8.755   2.901   1.878 -0.3831  0.8465  0.4392
  710MOL0     C95764   8.800   2.544   1.805 -0.4110 -0.6442 -0.5191
  710MOL0     C95765   8.901   2.445   1.778  0.0402 -0.1253  0.2827
  710MOL0     N95766   9.773   2.302   1.461 -0.6227  0.2819 -0.5089
  710MOL0     N95767   9.869   2.360   1.398 -0.2161  0.6134  0.2608
  710MOL0     C95768  10.938   2.380   2.017  0.5353 -0.0843 -0.6610
  710MOL0     C95769  11.059   2.451   2.026  1.1438 -0.6339  0.1913
  710MOL0     C95770  11.366   2.790   1.967 -0.3661  0.0601 -0.7999
  710MOL0     C95771  11.478   2.706   1.976  0.3590 -0.0096 -0.9143
  710MOL0     C95772  11.607   2.772   1.963 -0.0551 -0.8487 -0.3967
  710MOL0     C95773  11.632   2.906   1.941  0.0330  0.3570  0.0963
  710MOL0     O95774  11.752   2.973   1.952 -0.9960  0.2621  0.0687
  710MOL0     C95775  11.808   3.000   2.082 -0.2007 -0.9992 -0.8416
  710MOL0     C95776  11.963   3.026   2.071  0.4770 -0.3280  0.3597
  710MOL0     C95777  12.028   3.088   2.195  0.9972  0.0565  0.0559
  710MOL0     C95778  12.167   3.146   2.158 -0.1036 -0.1338  0.0212
  710MOL0     C95779  12.246   3.205   2.266  0.1307  0.4028 -0.8489
  710MOL0     C95780  12.295   3.281   2.349 -0.4838 -0.1972  0.1908
  710MOL0     C95781  11.506   2.990   1.932 -1.4186  0.0865  0.2397
  710MOL0     C95782  11.382   2.934   1.952  0.7445 -0.6644  0.3971
  710MOL0     H95783  11.075   2.573   1.716  0.3682  0.2229  0.6626
  710MOL0     H95784  10.851   2.457   1.697 -0.9755  0.6882  1.4274
  710MOL0     H95785  10.590   2.363   2.036 -0.5008  0.1222  0.8134
  710MOL0     H95786  10.660   2.507   1.949  1.0289 -0.6965  1.2653
  710MOL0     H95787  10.483   2.303   1.812 -0.4170 -0.0156 -0.1252
  710MOL0     H95788  10.437   2.469   1.883 -0.9290  0.5054 -1.6468
  710MOL0     H95789  10.576   2.567   1.699 -0.5140  0.4218  4.6525
  710MOL0     H95790  10.629   2.417   1.646  1.9017  1.2418  0.4759
  710MOL0     H95791  10.461   2.429   1.485 -2.5024 -1.5949 -0.8632
  710MOL0     H95792  10.383   2.331   1.599 -1.4503  1.0661 -0.5514
  710MOL0     H95793  10.272   2.527   1.701  1.3090  0.6198  0.1204
  710MOL0     H95794  10.353   2.625   1.578 -0.0172 -0.2602 -4.8025
  710MOL0     H95795  10.253   2.484   1.396  0.1215  1.4656 -1.3413
  710MOL0     H95796  10.159   2.397   1.514 -1.9164  1.2431  0.5846
  710MOL0     H95797  10.072   2.626   1.597 -0.0962  0.4300  0.2074
  710MOL0     H95798  10.147   2.701   1.459 -3.3260  1.4308  1.0709
  710MOL0     H95799  10.012   2.554   1.309 -0.9785 -0.5139 -0.1368
  710MOL0     H95800   9.926   2.679   1.389 -0.7634 -0.5877 -0.0251
  710MOL0     H95801   9.805   2.585   1.620 -1.7109 -1.6412  0.7756
  710MOL0     H95802   9.588   2.268   1.666  1.4951 -0.7511 -2.7959
  710MOL0     H95803   9.605   2.430   1.736  1.7214 -0.5799 -0.0989
  710MOL0     H95804   9.456   2.344   1.486 -2.3792 -0.1089 -0.8045
  710MOL0     H95805   9.485   2.513   1.539  2.3807 -0.7802 -0.8032
  710MOL0     H95806   9.361   2.481   1.749  3.4379 -0.4578 -0.0142
  710MOL0     H95807   9.354   2.305   1.717 -2.8125 -1.7492 -1.4071
  710MOL0     H95808   9.214   2.350   1.516  3.0398 -0.2252  0.5142
  710MOL0     H95809   9.201   2.522   1.559  1.6322 -0.1691 -0.9064
  710MOL0     H95810   9.169   2.641   1.733 -0.2620  2.4284  0.9813
  710MOL0     H95811   9.130   2.860   1.761 -0.2908  1.6129  1.0284
  710MOL0     H95812   8.961   2.916   1.724  0.1648  1.0725 -0.9350
  710MOL0     H95813   9.014   2.917   1.884  1.2361 -0.6368  0.9084
  710MOL0     H95814   8.408   2.617   1.926 -1.1393 -0.4623  0.3595
  710MOL0     H95815   8.185   2.711   1.941 -1.0105  2.6212  0.8449
  710MOL0     H95816   7.980   2.809   1.898 -0.0385 -0.3624 -0.0370
  710MOL0     H95817   8.060   2.904   2.024 -0.0780  0.0801  0.2229
  710MOL0     H95818   7.849   3.003   2.033  0.3320  0.0207  0.2511
  710MOL0     H95819   7.930   3.099   1.909 -0.7348  0.2597 -2.2902
  710MOL0     H95820   7.696   3.040   1.847  1.1380  1.1488 -0.0870
  710MOL0     H95821   7.728   2.867   1.864 -2.1040  1.2993 -0.0023
  710MOL0     H95822   7.846   3.042   1.649 -0.6266  0.3582 -0.4535
  710MOL0     H95823   7.891   2.876   1.680  1.2879  2.7532  1.6714
  710MOL0     H95824   7.606   2.973   1.618  0.0985 -0.1395  1.2034
  710MOL0     H95825   7.643   2.806   1.681  0.1210 -0.2965  0.6976
  710MOL0     H95826   7.801   2.915   1.462  0.6474  0.2997  2.3851
  710MOL0     H95827   7.773   2.750   1.501  0.5601  0.4671  0.2161
  710MOL0     H95828   7.544   2.915   1.387 -0.8798  0.4120  1.8857
  710MOL0     H95829   7.550   2.739   1.398 -0.2189  0.6819  0.6688
  710MOL0     H95830   7.715   2.908   1.198 -2.9625 -1.0371 -2.8072
  710MOL0     H95831   7.578   2.813   1.170 -1.5524 -1.9269  1.6465
  710MOL0     H95832   8.311   3.058   1.723  1.2988  0.3094 -0.1381
  710MOL0     H95833   8.537   2.968   1.724 -0.8290  1.5399  1.3809
  710MOL0     H95834   8.698   2.511   1.824 -0.0869 -0.2687  2.2243
  710MOL0     H95835   8.868   2.342   1.777 -0.9222  0.1623 -1.4460
  710MOL0     H95836  10.901   2.317   2.097 -2.1393  0.1351 -1.6203
  710MOL0     H95837  11.117   2.444   2.117  2.4394  1.2606 -0.4318
  710MOL0     H95838  11.468   2.599   1.994 -3.5579  0.3964  0.3414
  710MOL0     H95839  11.698   2.715   1.977  2.2457  2.3576 -0.9163
  710MOL0     H95840  11.753   3.088   2.117  1.3475  0.2665 -1.4855
  710MOL0     H95841  11.774   2.928   2.157  0.8550  0.0751  0.7418
  710MOL0     H95842  11.991   3.089   1.985  3.1068 -1.0468  0.5900
  710MOL0     H95843  12.006   2.926   2.057  1.1104 -0.0048 -0.0867
  710MOL0     H95844  12.042   3.008   2.268  0.1286 -1.1732 -1.0831
  710MOL0     H95845  11.965   3.159   2.249  0.2035  0.1174 -0.9156
  710MOL0     H95846  12.163   3.221   2.079  2.1731 -1.6172 -1.6489
  710MOL0     H95847  12.225   3.059   2.126  1.5850  1.1533 -0.5495
  710MOL0     H95848  12.344   3.354   2.411  1.9647 -1.0814 -0.5575
  710MOL0     H95849  11.517   3.097   1.917 -2.4010  0.5366  2.4305
  710MOL0     H95850  11.299   3.003   1.944  1.6522  0.9344  3.4122
  711MOL0     O95851   4.087   0.641   4.804 -0.7662  0.7806 -0.2625
  711MOL0     C95852   4.158   0.718   4.747  0.7524 -0.8425 -0.9180
  711MOL0     O95853   4.116   0.849   4.706 -1.0502 -0.0317  0.3275
  711MOL0     C95854   3.987   0.893   4.717  0.3439  0.1210 -0.6084
  711MOL0     C95855   3.897   0.857   4.820  0.1680 -0.3017  0.0526
  711MOL0     C95856   3.769   0.908   4.833 -0.0503 -0.6617 -0.3122
  711MOL0     C95857   3.724   0.986   4.730  0.5098  0.1864  0.2050
  711MOL0     O95858   3.595   1.031   4.749 -0.1013 -0.9431  0.1792
  711MOL0     C95859   3.527   1.062   4.620 -1.2822  0.3293 -0.2414
  711MOL0     C95860   3.386   1.087   4.664 -0.7029  0.5024  0.3823
  711MOL0     C95861   3.370   1.189   4.778  0.0173 -0.0166  0.3073
  711MOL0     C95862   3.225   1.236   4.791  0.1966  0.3780  0.1641
  711MOL0     C95863   3.198   1.273   4.943  1.1093 -0.0981 -0.0610
  711MOL0     C95864   3.054   1.334   4.966 -0.0042  1.0028 -0.4960
  711MOL0     C95865   2.942   1.233   5.001 -0.0394  0.6168 -0.6900
  711MOL0     C95866   2.891   1.141   4.892  0.6125  0.1755 -1.1301
  711MOL0     N95867   2.799   1.219   4.803  0.1503  0.5697  0.5214
  711MOL0     C95868   2.664   1.221   4.817 -0.4665  0.3303  0.3093
  711MOL0     C95869   2.630   1.308   4.714  0.3158  0.3755 -0.1449
  711MOL0     C95870   2.491   1.351   4.693  0.3615  0.3783  0.2561
  711MOL0     C95871   2.447   1.462   4.781 -0.0647 -0.9683 -0.2736
  711MOL0     C95872   2.309   1.521   4.756 -0.3294 -0.4400 -0.2246
  711MOL0     C95873   2.201   1.415   4.760  0.0657 -0.9655 -0.5308
  711MOL0     O95874   2.084   1.477   4.718 -0.0213 -0.7207  0.0044
  711MOL0     C95875   1.965   1.408   4.721  0.1634  0.0294 -0.0688
  711MOL0     C95876   1.861   1.463   4.646  0.9766 -0.0557  0.2428
  711MOL0     C95877   1.732   1.414   4.645 -0.0215  0.0280 -0.4145
  711MOL0     C95878   1.630   1.490   4.564  0.2837  0.3970 -0.0770
  711MOL0     C95879   1.703   1.306   4.725  0.3344  0.2294  0.0466
  711MOL0     C95880   1.563   1.243   4.728 -0.1374  0.5333  0.2445
  711MOL0     O95881   1.526   1.173   4.845  0.2666 -0.4714 -0.5785
  711MOL0     C95882   1.401   1.141   4.878  1.3087 -0.3248  0.3198
  711MOL0     C95883   1.386   1.108   5.012  0.2177 -0.1078 -0.1848
  711MOL0     C95884   1.266   1.079   5.070 -0.2370  0.0897 -0.5802
  711MOL0     C95885   1.153   1.075   4.988  0.1636  0.0900  0.0756
  711MOL0     O95886   1.032   1.023   5.021  0.6102  0.0516 -0.4843
  711MOL0     C95887   0.968   1.085   5.132 -0.3269 -0.0139  1.1799
  711MOL0     C95888   0.860   1.179   5.088  0.2919 -0.1035 -0.3405
  711MOL0     C95889   0.765   1.127   4.977  1.5758  0.5770  0.1943
  711MOL0     C95890   0.662   1.235   4.944  0.5226 -0.3308 -0.1924
  711MOL0     C95891   0.548   1.255   5.047 -0.6869 -0.7601 -0.1294
  711MOL0     C95892   0.467   1.132   5.059  0.9607 -0.1240 -0.5735
  711MOL0     C95893   0.332   1.163   5.121  0.0600  0.2413 -0.4249
  711MOL0     C95894   0.247   1.045   5.111  0.1171 -0.6171  0.6484
  711MOL0    Cl95895   0.301   0.923   5.235  0.1817  0.2312  0.1738
  711MOL0     C95896   1.160   1.107   4.851 -0.6168 -0.0933  0.4302
  711MOL0     C95897   1.288   1.141   4.797  0.6276 -0.8262 -0.0906
  711MOL0     O95898   1.488   1.256   4.626 -0.2640 -0.3203 -0.3704
  711MOL0     C95899   1.808   1.243   4.795  0.0097  0.9290 -0.4206
  711MOL0     C95900   1.942   1.290   4.789  0.7987  0.4550 -0.0422
  711MOL0     N95901   2.731   1.343   4.635  0.0602  0.4496  0.1191
  711MOL0     N95902   2.834   1.289   4.694  0.0428 -0.1541  0.3978
  711MOL0     C95903   3.812   1.016   4.616 -0.1234  0.2010 -0.3156
  711MOL0     C95904   3.941   0.971   4.614 -0.0358 -0.6893 -0.3531
  711MOL0     C95905   4.293   0.669   4.715 -0.8476 -0.2906 -0.0222
  711MOL0     C95906   4.330   0.534   4.734  0.6199 -0.1409 -0.0429
  711MOL0     C95907   4.455   0.494   4.696  0.2761 -0.7751  0.5961
  711MOL0     C95908   4.541   0.578   4.639  0.2331 -0.7289 -0.3797
  711MOL0     O95909   4.655   0.514   4.612  0.5816 -0.0903  0.0008
  711MOL0     C95910   4.749   0.585   4.532 -0.2356 -0.5907  0.0790
  711MOL0     C95911   4.850   0.487   4.480  0.3700  0.3856 -0.0241
  711MOL0     C95912   4.874   0.365   4.570 -0.5841 -0.7736 -0.2297
  711MOL0     C95913   5.022   0.327   4.587 -1.4249 -0.9513 -0.4730
  711MOL0     C95914   5.043   0.206   4.666 -0.5588  0.6510 -0.1858
  711MOL0     C95915   5.068   0.108   4.730  1.1637 -0.0288 -0.1191
  711MOL0     C95916   4.504   0.709   4.603  0.8320 -0.4947  0.7577
  711MOL0     C95917   4.381   0.758   4.644 -0.3055 -0.0316  0.4026
  711MOL0     H95918   3.912   0.793   4.906 -1.3003  1.4239  1.6899
  711MOL0     H95919   3.711   0.878   4.920 -2.9363  0.7318 -1.6417
  711MOL0     H95920   3.571   1.148   4.569  0.1043 -0.6435 -0.7410
  711MOL0     H95921   3.543   0.975   4.557  2.9163  0.7015  0.0007
  711MOL0     H95922   3.331   1.130   4.580 -2.0832  0.3236  1.1765
  711MOL0     H95923   3.339   0.996   4.704  1.3393 -0.0177  1.7962
  711MOL0     H95924   3.395   1.130   4.867  0.0266  1.2297  1.1425
  711MOL0     H95925   3.440   1.272   4.771  0.4985 -0.2197  2.1007
  711MOL0     H95926   3.213   1.326   4.729 -2.5665  1.2126  1.7545
  711MOL0     H95927   3.156   1.159   4.754  0.0830  0.3907  0.3501
  711MOL0     H95928   3.213   1.186   5.007  5.1515  0.8838  0.6188
  711MOL0     H95929   3.267   1.349   4.980  0.5668 -0.3948  1.6533
  711MOL0     H95930   3.065   1.396   5.056 -0.6333  0.5892 -0.1219
  711MOL0     H95931   3.038   1.402   4.882 -0.1945  3.0984  1.1290
  711MOL0     H95932   2.972   1.177   5.090  2.6961 -0.1048 -1.9561
  711MOL0     H95933   2.857   1.290   5.038 -0.6264 -2.3532  3.1862
  711MOL0     H95934   2.843   1.056   4.941  0.7395  1.5291  1.4794
  711MOL0     H95935   2.971   1.095   4.832  1.9605  1.9109 -0.7407
  711MOL0     H95936   2.599   1.161   4.880  0.6927  0.4101  1.6303
  711MOL0     H95937   2.472   1.384   4.591  0.1606  0.4549  0.3188
  711MOL0     H95938   2.433   1.258   4.699  1.0720 -0.0682  0.4662
  711MOL0     H95939   2.525   1.539   4.777 -3.6127  2.8957 -2.2863
  711MOL0     H95940   2.448   1.417   4.881 -0.3161 -0.1823  0.0916
  711MOL0     H95941   2.313   1.564   4.656  1.4842 -0.1348 -0.0683
  711MOL0     H95942   2.292   1.595   4.835  2.0832 -0.9945  0.9074
  711MOL0     H95943   2.195   1.388   4.866  1.3677  2.5842  0.5919
  711MOL0     H95944   2.225   1.328   4.699 -1.7046 -2.3092  0.6143
  711MOL0     H95945   1.869   1.559   4.597 -3.0467  1.8216  2.6780
  711MOL0     H95946   1.672   1.574   4.509 -2.4017  0.2114 -2.6444
  711MOL0     H95947   1.583   1.426   4.489  1.7214 -4.3153  2.5911
  711MOL0     H95948   1.551   1.533   4.627  0.2419  1.0640 -0.5788
  711MOL0     H95949   1.472   1.099   5.077 -0.8487 -2.3448  1.0370
  711MOL0     H95950   1.247   1.043   5.171  2.0269 -3.0051 -1.0917
  711MOL0     H95951   0.909   1.010   5.185 -0.9495 -1.0291 -0.8406
  711MOL0     H95952   1.044   1.114   5.207  1.1129  2.1073 -0.9455
  711MOL0     H95953   0.804   1.214   5.175 -0.2326 -2.1556  0.1886
  711MOL0     H95954   0.917   1.261   5.042 -2.7207  1.4087 -1.6575
  711MOL0     H95955   0.713   1.034   5.002 -1.7096  1.9298 -0.9162
  711MOL0     H95956   0.823   1.113   4.886 -0.6014 -1.2050 -1.0340
  711MOL0     H95957   0.709   1.334   4.931 -0.3942  0.1195 -0.1233
  711MOL0     H95958   0.610   1.205   4.853 -0.6430 -2.4262  1.0942
  711MOL0     H95959   0.484   1.335   5.010  0.8664  0.3744 -0.4391
  711MOL0     H95960   0.589   1.290   5.142 -0.0112  2.8792 -1.6080
  711MOL0     H95961   0.458   1.105   4.953 -0.5242  0.4998 -0.6377
  711MOL0     H95962   0.515   1.052   5.115  0.7021  0.4078  0.4242
  711MOL0     H95963   0.284   1.251   5.079  2.4771  2.2155  0.6478
  711MOL0     H95964   0.351   1.198   5.223  2.2023  0.7770 -0.9534
  711MOL0     H95965   0.252   0.997   5.013 -1.6907 -2.6602  1.4813
  711MOL0     H95966   0.144   1.073   5.135  0.8083  0.0350  3.0863
  711MOL0     H95967   1.071   1.108   4.789  1.0582 -0.0368 -2.1408
  711MOL0     H95968   1.283   1.174   4.694  0.3995 -0.1347  0.1332
  711MOL0     H95969   1.765   1.158   4.847  0.8446 -0.6124 -2.1461
  711MOL0     H95970   2.020   1.247   4.852  0.7647  4.0339  2.7745
  711MOL0     H95971   3.795   1.074   4.525  1.0038  0.0728 -0.6299
  711MOL0     H95972   4.013   1.014   4.544 -1.8654  0.3552 -1.7077
  711MOL0     H95973   4.262   0.460   4.773  0.2405 -1.3751 -2.7828
  711MOL0     H95974   4.489   0.394   4.720 -0.1714 -1.7310 -2.3636
  711MOL0     H95975   4.714   0.635   4.441  0.4268 -1.7064 -0.8279
  711MOL0     H95976   4.800   0.658   4.596 -1.5867  0.9595 -0.5473
  711MOL0     H95977   4.943   0.541   4.461 -0.4201  1.3513 -1.2784
  711MOL0     H95978   4.824   0.451   4.380  0.8296 -1.4923  0.4911
  711MOL0     H95979   4.813   0.282   4.532  0.3818 -1.4853 -0.2579
  711MOL0     H95980   4.838   0.386   4.671  2.9399  0.3741  0.9289
  711MOL0     H95981   5.084   0.403   4.634 -1.1159 -1.3452 -0.2367
  711MOL0     H95982   5.062   0.312   4.486 -2.7573  0.0875 -1.1835
  711MOL0     H95983   5.079   0.009   4.770  1.5859  1.0284  2.6308
  711MOL0     H95984   4.580   0.766   4.553  0.8169 -1.0231  0.1143
  711MOL0     H95985   4.354   0.862   4.628 -0.5685 -0.1662 -0.0544
  712MOL0     O95986  10.629   7.756   4.084  0.8720  0.1180 -0.0755
  712MOL0     C95987  10.637   7.828   3.983  0.4971  0.7901 -0.4137
  712MOL0     O95988  10.578   7.793   3.867 -0.8076 -0.0943 -0.1309
  712MOL0     C95989  10.527   7.667   3.860 -0.6041  0.0461  0.3743
  712MOL0     C95990  10.608   7.550   3.846 -0.0632 -1.2395  0.5498
  712MOL0     C95991  10.559   7.427   3.836  1.1203 -0.5655 -0.2709
  712MOL0     C95992  10.426   7.404   3.854  0.5892  0.3097 -0.0105
  712MOL0     O95993  10.386   7.276   3.854  0.6266  0.3533  0.1716
  712MOL0     C95994  10.239   7.240   3.877 -0.1194  0.4727 -0.2993
  712MOL0     C95995  10.149   7.270   3.756 -0.0165 -0.0163 -0.8404
  712MOL0     C95996  10.010   7.216   3.780  0.1831  0.5580  0.1574
  712MOL0     C95997   9.920   7.246   3.659 -0.1809 -1.1065  0.5605
  712MOL0     C95998   9.780   7.209   3.695 -0.4422  0.4373 -0.0668
  712MOL0     C95999   9.689   7.247   3.586  0.7996  0.5347  0.2758
  712MOL0     C96000   9.545   7.251   3.637 -1.1931 -0.3875  0.1452
  712MOL0     C96001   9.428   7.254   3.534 -0.3607  0.1870 -0.4709
  712MOL0     N96002   9.301   7.286   3.597  0.4482 -0.2785  0.1744
  712MOL0     C96003   9.195   7.195   3.616 -0.1261  0.4091 -0.1186
  712MOL0     C96004   9.087   7.268   3.655 -0.9959  0.8691 -0.2046
  712MOL0     C96005   8.961   7.200   3.681  0.2404 -0.6601  0.1755
  712MOL0     C96006   8.919   7.208   3.836  0.6944  0.1494 -0.9311
  712MOL0     C96007   8.782   7.150   3.856  0.1573  0.8428  0.4480
  712MOL0     C96008   8.672   7.209   3.773 -0.1255  0.5415 -0.5909
  712MOL0     O96009   8.550   7.185   3.838 -1.0035  0.2631  0.5853
  712MOL0     C96010   8.427   7.181   3.775  0.2522  0.5699 -0.6741
  712MOL0     C96011   8.320   7.149   3.857 -0.0725  0.3605  0.9549
  712MOL0     C96012   8.186   7.159   3.809  0.5112  0.6159 -1.3897
  712MOL0     C96013   8.086   7.127   3.911  1.0411  0.0358  0.4027
  712MOL0     C96014   8.167   7.183   3.669 -0.1165  0.0333 -0.3601
  712MOL0     C96015   8.035   7.196   3.602 -1.0475 -0.8760  0.3348
  712MOL0     O96016   8.048   7.233   3.469  0.7743  0.0044 -0.0571
  712MOL0     C96017   7.935   7.261   3.399  0.3019 -0.0848  0.1207
  712MOL0     C96018   7.847   7.165   3.352  0.1609  0.4330  0.5850
  712MOL0     C96019   7.729   7.194   3.282 -0.2358 -0.8513  0.6732
  712MOL0     C96020   7.686   7.329   3.265 -0.3076 -0.2644 -0.7475
  712MOL0     O96021   7.574   7.361   3.191 -0.5413  0.5416  0.6364
  712MOL0     C96022   7.473   7.438   3.258  1.0320 -0.1707  0.3717
  712MOL0     C96023   7.344   7.439   3.169 -0.1831 -0.3422  0.1894
  712MOL0     C96024   7.230   7.494   3.263  0.4569 -0.3808 -0.6570
  712MOL0     C96025   7.101   7.507   3.178 -0.2510 -0.4181 -1.2520
  712MOL0     C96026   7.033   7.636   3.213 -0.3335 -0.0248 -0.6246
  712MOL0     C96027   6.963   7.655   3.345 -0.7370 -0.3322 -0.4643
  712MOL0     C96028   6.883   7.541   3.402 -0.2064 -0.4623  0.0096
  712MOL0     C96029   6.827   7.571   3.541 -0.6262  0.7507  0.2884
  712MOL0    Cl96030   6.769   7.421   3.614 -0.2491 -0.0814 -0.0178
  712MOL0     C96031   7.781   7.424   3.307  0.8006  0.1316 -0.0972
  712MOL0     C96032   7.895   7.397   3.382  0.0196  0.6611 -0.4465
  712MOL0     O96033   7.935   7.166   3.657  0.5201  0.1839 -0.1068
  712MOL0     C96034   8.282   7.203   3.588  0.2663  0.6100  0.7959
  712MOL0     C96035   8.409   7.202   3.640 -0.4290 -0.1547 -0.3434
  712MOL0     N96036   9.122   7.399   3.659  0.1555  1.0396  0.6179
  712MOL0     N96037   9.243   7.408   3.624 -0.4774  0.4155  0.1258
  712MOL0     C96038  10.338   7.516   3.864  0.0197 -0.3414  0.0338
  712MOL0     C96039  10.386   7.646   3.863 -0.5653 -0.2074  0.6803
  712MOL0     C96040  10.717   7.948   3.994  0.2016  0.6367  0.0128
  712MOL0     C96041  10.764   7.991   4.117  0.1775  0.0089 -0.2445
  712MOL0     C96042  10.853   8.107   4.129 -0.5277 -0.7097 -0.1141
  712MOL0     C96043  10.888   8.181   4.008 -0.4438  0.1532 -0.0184
  712MOL0     O96044  10.969   8.289   4.028 -0.0767  0.2392  0.3156
  712MOL0     C96045  10.989   8.382   3.921 -0.6858  0.1528  0.0616
  712MOL0     C96046  11.072   8.494   3.978 -0.2121 -0.3088 -0.9379
  712MOL0     C96047  11.091   8.597   3.867 -0.4027 -0.0373  0.0885
  712MOL0     C96048  10.992   8.712   3.857  0.0557 -0.0913  0.7090
  712MOL0     C96049  11.004   8.810   3.971 -0.0923  0.3489  0.6657
  712MOL0     C96050  11.028   8.889   4.059 -0.4388  0.0438  0.1509
  712MOL0     C96051  10.836   8.137   3.884  0.2506  0.0882  0.1363
  712MOL0     C96052  10.758   8.021   3.882  0.1303  0.4872  0.0836
  712MOL0     H96053  10.715   7.568   3.844 -0.1797 -0.3573 -2.3785
  712MOL0     H96054  10.622   7.339   3.822  1.8205 -0.4210  1.6517
  712MOL0     H96055  10.221   7.137   3.910  0.3627  0.6490  0.5556
  712MOL0     H96056  10.191   7.301   3.954 -2.6503 -0.0979 -1.3223
  712MOL0     H96057  10.136   7.377   3.735 -1.1109  0.1918  0.7371
  712MOL0     H96058  10.201   7.230   3.669  3.6996  3.0878 -0.3352
  712MOL0     H96059  10.024   7.108   3.792  1.8345  0.9625  2.6933
  712MOL0     H96060   9.974   7.265   3.871 -0.1315  0.6386 -0.0120
  712MOL0     H96061   9.917   7.350   3.626 -0.7603 -1.7590 -1.6132
  712MOL0     H96062   9.968   7.184   3.582  2.0535  0.4175  0.6202
  712MOL0     H96063   9.780   7.101   3.713 -1.6488  0.4365  0.0303
  712MOL0     H96064   9.742   7.262   3.783  0.8202  1.3292 -0.0463
  712MOL0     H96065   9.705   7.344   3.540  0.5040  1.3274  1.7672
  712MOL0     H96066   9.681   7.169   3.510 -2.5353  0.7025  0.2847
  712MOL0     H96067   9.523   7.162   3.697 -0.9862 -1.5742 -1.4641
  712MOL0     H96068   9.541   7.338   3.703  0.6777  0.5533 -0.8760
  712MOL0     H96069   9.426   7.158   3.481  2.6551 -1.0069  1.3089
  712MOL0     H96070   9.440   7.339   3.467  2.1471 -0.3708 -0.8118
  712MOL0     H96071   9.195   7.094   3.577 -2.6010  0.9987 -1.9503
  712MOL0     H96072   8.878   7.241   3.622 -2.3660 -1.9612  2.7092
  712MOL0     H96073   8.966   7.092   3.660  0.0632 -1.0345  1.9052
  712MOL0     H96074   8.901   7.314   3.856 -1.4202 -0.3754  0.3557
  712MOL0     H96075   8.992   7.174   3.910 -0.2194  0.5085  0.1642
  712MOL0     H96076   8.760   7.169   3.962 -1.5463  1.2142  0.0478
  712MOL0     H96077   8.786   7.042   3.842  1.6523  1.0760 -1.3235
  712MOL0     H96078   8.668   7.162   3.675 -1.4405 -1.5035  0.3833
  712MOL0     H96079   8.680   7.317   3.758  0.3153  0.6089  0.1077
  712MOL0     H96080   8.341   7.130   3.962  0.0056  1.3720  1.1363
  712MOL0     H96081   8.130   7.100   4.008  0.8188 -2.2713 -0.0751
  712MOL0     H96082   8.011   7.206   3.905 -0.0985 -1.0982 -2.2053
  712MOL0     H96083   8.031   7.037   3.883  0.0290  0.1139  2.0290
  712MOL0     H96084   7.886   7.065   3.366  0.6640  0.7430  1.4926
  712MOL0     H96085   7.670   7.112   3.243  0.3260 -0.6173 -0.7686
  712MOL0     H96086   7.447   7.384   3.349 -0.3229 -1.5462 -0.7681
  712MOL0     H96087   7.512   7.538   3.280 -0.0370  0.2589  0.3405
  712MOL0     H96088   7.366   7.501   3.082  2.2198 -3.1524 -1.3714
  712MOL0     H96089   7.316   7.341   3.131 -0.3144 -0.7785  1.3865
  712MOL0     H96090   7.271   7.588   3.299  1.1997 -2.2441  4.0646
  712MOL0     H96091   7.217   7.436   3.354  5.3200 -2.7903 -1.1498
  712MOL0     H96092   7.122   7.497   3.071  1.2890 -0.4180 -0.9632
  712MOL0     H96093   7.034   7.422   3.199  1.5389 -1.4329  0.7549
  712MOL0     H96094   6.964   7.652   3.129 -1.0869  1.4093  0.2163
  712MOL0     H96095   7.099   7.719   3.185 -1.9541  1.6622  0.3146
  712MOL0     H96096   7.036   7.687   3.420 -2.1261 -1.4152  1.4214
  712MOL0     H96097   6.896   7.740   3.334  0.1428  0.4263 -0.1141
  712MOL0     H96098   6.948   7.456   3.422 -1.1997 -0.4324  4.3102
  712MOL0     H96099   6.806   7.520   3.326 -0.6279  2.8242 -0.6333
  712MOL0     H96100   6.748   7.644   3.518  0.0263  1.3107 -0.2287
  712MOL0     H96101   6.894   7.615   3.615  0.1833  2.1570 -1.2066
  712MOL0     H96102   7.752   7.528   3.297  0.0750  0.2230  2.2976
  712MOL0     H96103   7.960   7.476   3.417  0.1799  0.4219 -0.2004
  712MOL0     H96104   8.274   7.218   3.480 -4.3143 -4.9128 -0.1380
  712MOL0     H96105   8.489   7.225   3.570 -0.8366  1.7273 -0.2509
  712MOL0     H96106  10.231   7.500   3.871 -0.1501  0.6381 -0.1486
  712MOL0     H96107  10.319   7.731   3.850 -0.0479  0.0413 -0.4609
  712MOL0     H96108  10.735   7.933   4.204  0.4206 -0.4363 -0.4527
  712MOL0     H96109  10.889   8.140   4.226 -1.7237  1.2476 -0.2713
  712MOL0     H96110  11.042   8.339   3.836  0.7892  2.0957 -0.0665
  712MOL0     H96111  10.893   8.428   3.893 -1.9813 -0.1019  3.5797
  712MOL0     H96112  11.170   8.455   4.007  1.4980  4.0208 -0.1982
  712MOL0     H96113  11.021   8.544   4.061  0.4999  0.9891 -1.2613
  712MOL0     H96114  11.090   8.539   3.775  1.1333 -1.1299  0.7156
  712MOL0     H96115  11.186   8.647   3.893  0.6355 -3.0367  2.6598
  712MOL0     H96116  10.889   8.678   3.842 -0.3302  1.8443 -1.6258
  712MOL0     H96117  11.022   8.773   3.771  0.4191 -0.1964  0.7607
  712MOL0     H96118  11.064   8.964   4.126  1.3560 -0.1741 -0.5291
  712MOL0     H96119  10.847   8.200   3.797 -2.0292  0.8796  0.3626
  712MOL0     H96120  10.723   7.992   3.784 -0.3087 -0.1848  0.4293
  713MOL0     O96121   3.244   0.416   2.375 -0.3318  0.3034  0.3872
  713MOL0     C96122   3.251   0.533   2.399  0.2543 -0.1800 -0.0045
  713MOL0     O96123   3.150   0.609   2.461 -0.2896 -0.2164  0.2989
  713MOL0     C96124   3.028   0.554   2.474 -0.0617  0.8658 -0.0446
  713MOL0     C96125   2.974   0.457   2.395 -0.1597  1.1099  0.7708
  713MOL0     C96126   2.853   0.390   2.433 -0.1375  0.2404 -0.3829
  713MOL0     C96127   2.771   0.435   2.539  0.3769 -0.2629  1.6301
  713MOL0     O96128   2.639   0.392   2.559 -0.2143 -0.4357  0.6611
  713MOL0     C96129   2.585   0.278   2.486 -0.2673 -0.6280  0.1621
  713MOL0     C96130   2.449   0.225   2.555  0.0435  0.1704  0.0199
  713MOL0     C96131   2.322   0.315   2.536 -0.6607 -0.1905 -0.2453
  713MOL0     C96132   2.194   0.224   2.561 -0.5338  0.6068 -0.5849
  713MOL0     C96133   2.062   0.308   2.561  0.0763  0.4284 -0.0077
  713MOL0     C96134   1.929   0.215   2.544 -0.7275 -0.2440 -0.0630
  713MOL0     C96135   1.806   0.300   2.542 -0.0847 -0.6792  0.5127
  713MOL0     C96136   1.686   0.221   2.480  0.8465 -0.4375  0.5180
  713MOL0     N96137   1.598   0.300   2.391 -0.1158 -0.5113  0.0168
  713MOL0     C96138   1.629   0.331   2.266  0.3683  0.2479 -0.1927
  713MOL0     C96139   1.529   0.410   2.215 -0.7546  0.6030  0.5127
  713MOL0     C96140   1.537   0.479   2.078 -0.3647 -0.0380  0.3373
  713MOL0     C96141   1.432   0.414   1.982  0.0256  0.3149  0.0023
  713MOL0     C96142   1.445   0.265   1.973 -0.3191  0.2604 -0.6557
  713MOL0     C96143   1.331   0.191   1.897  0.9983 -0.8487  0.7782
  713MOL0     O96144   1.307   0.273   1.784  0.0503  0.1145 -0.2040
  713MOL0     C96145   1.188   0.253   1.714  0.5245 -0.3612 -0.1317
  713MOL0     C96146   1.139   0.126   1.686 -0.4600  0.5685  0.0108
  713MOL0     C96147   1.020   0.109   1.615  0.6270 -0.4639 -0.4899
  713MOL0     C96148   0.964  -0.033   1.607 -0.4269 -0.3302  0.1680
  713MOL0     C96149   0.942   0.217   1.578 -0.7559 -0.1688 -0.1119
  713MOL0     C96150   0.814   0.224   1.498  0.1764  0.6054  0.0082
  713MOL0     O96151   0.749   0.343   1.477  0.2316  0.5029 -0.2113
  713MOL0     C96152   0.619   0.346   1.422  0.2426  0.4663 -1.1836
  713MOL0     C96153   0.521   0.422   1.492  0.3298 -1.1651 -0.7706
  713MOL0     C96154   0.386   0.429   1.456 -0.0807  0.7875 -0.6124
  713MOL0     C96155   0.348   0.358   1.335  0.1663  0.2265 -0.4368
  713MOL0     O96156   0.213   0.358   1.304 -0.0280  0.1756  0.5793
  713MOL0     C96157   0.188   0.448   1.185  0.6692  0.0659  0.2749
  713MOL0     C96158   0.206   0.591   1.223  0.2544  0.2599  0.3602
  713MOL0     C96159   0.160   0.694   1.123  1.0146 -0.6573  0.1168
  713MOL0     C96160   0.270   0.799   1.099  0.1622  0.3801  0.6950
  713MOL0     C96161   0.241   0.928   1.037  0.5554 -0.1599  1.0321
  713MOL0     C96162   0.107   0.997   1.079 -0.1522  0.1715  0.1293
  713MOL0     C96163   0.089   1.129   1.010 -0.5293 -0.7644 -0.0079
  713MOL0     C96164  -0.023   1.211   1.073 -0.4168 -0.9690  0.4506
  713MOL0    Cl96165  -0.186   1.199   0.984  0.3501  0.2730 -0.5465
  713MOL0     C96166   0.442   0.285   1.261  0.0520 -0.1708 -0.2008
  713MOL0     C96167   0.572   0.285   1.300 -0.2151 -0.1110 -0.2920
  713MOL0     O96168   0.785   0.119   1.446  0.0531  0.4191 -0.1667
  713MOL0     C96169   1.002   0.342   1.607 -0.6867 -0.3292  0.2913
  713MOL0     C96170   1.123   0.366   1.675 -0.0008  0.5794  1.1925
  713MOL0     N96171   1.438   0.415   2.319  0.3866 -0.4154  0.0377
  713MOL0     N96172   1.484   0.360   2.425  0.2618 -0.7421 -0.8748
  713MOL0     C96173   2.822   0.544   2.612  0.1743 -0.5596  0.3412
  713MOL0     C96174   2.943   0.599   2.578 -0.6402  0.0085  0.8889
  713MOL0     C96175   3.375   0.608   2.352 -0.1743 -0.2048  0.4563
  713MOL0     C96176   3.416   0.740   2.394  0.6551  0.0302 -1.1932
  713MOL0     C96177   3.535   0.800   2.360  0.5053 -0.5507 -0.6468
  713MOL0     C96178   3.631   0.730   2.288 -0.3317 -0.8601  0.1206
  713MOL0     O96179   3.758   0.779   2.254  0.5073  0.2241  0.1509
  713MOL0     C96180   3.788   0.918   2.268 -0.2555 -0.0177 -0.5595
  713MOL0     C96181   3.931   0.952   2.219  0.5915 -0.5583  0.1572
  713MOL0     C96182   3.947   0.950   2.070  0.4695  0.1141  0.2870
  713MOL0     C96183   4.081   1.010   2.021 -0.2697  0.5151  0.5664
  713MOL0     C96184   4.075   1.159   2.040 -0.6600 -0.0410  0.6638
  713MOL0     C96185   4.090   1.278   2.037 -0.4028 -0.0113 -0.1570
  713MOL0     C96186   3.600   0.600   2.256 -0.8977 -0.3665  0.0103
  713MOL0     C96187   3.469   0.549   2.270 -0.4719 -1.2378  0.1538
  713MOL0     H96188   2.999   0.408   2.302 -2.9758 -1.4647  1.2202
  713MOL0     H96189   2.813   0.310   2.372 -1.2214  0.6079 -0.1743
  713MOL0     H96190   2.569   0.314   2.384 -0.0162 -1.0716 -0.0385
  713MOL0     H96191   2.666   0.204   2.490 -0.4421 -1.0607 -2.3746
  713MOL0     H96192   2.408   0.134   2.510  1.2863  1.8150 -5.1128
  713MOL0     H96193   2.471   0.200   2.659  1.3850  0.8046 -0.0963
  713MOL0     H96194   2.322   0.393   2.612  3.3405  1.6569 -1.8863
  713MOL0     H96195   2.309   0.354   2.434 -0.8336 -3.1377 -1.4753
  713MOL0     H96196   2.187   0.141   2.489  0.4460 -1.4312  1.5439
  713MOL0     H96197   2.193   0.182   2.662 -2.5575 -2.6888 -1.8247
  713MOL0     H96198   2.050   0.371   2.649 -1.2254 -1.1222  0.9777
  713MOL0     H96199   2.072   0.374   2.474 -1.9812 -1.7246 -2.0215
  713MOL0     H96200   1.936   0.156   2.451  1.1134 -0.0513 -0.0929
  713MOL0     H96201   1.926   0.143   2.626 -1.0435  0.6701  0.7441
  713MOL0     H96202   1.786   0.343   2.640 -0.6017 -0.2171  0.2097
  713MOL0     H96203   1.832   0.392   2.489  2.4059 -1.1205  0.8358
  713MOL0     H96204   1.623   0.183   2.562  1.0707 -2.9160 -0.3612
  713MOL0     H96205   1.723   0.133   2.427  1.0192 -0.7057  1.0699
  713MOL0     H96206   1.723   0.312   2.215  1.0577 -0.6757  1.3622
  713MOL0     H96207   1.518   0.586   2.085  0.4500  0.1368 -0.0101
  713MOL0     H96208   1.635   0.471   2.030 -1.2720 -0.2511 -1.5624
  713MOL0     H96209   1.437   0.459   1.882  0.1595 -1.2262 -0.7174
  713MOL0     H96210   1.332   0.439   2.016 -0.5843  2.3861 -2.9540
  713MOL0     H96211   1.448   0.215   2.070 -1.2702  0.6548 -0.4127
  713MOL0     H96212   1.538   0.242   1.921 -1.9231  0.3197 -3.8326
  713MOL0     H96213   1.241   0.177   1.957  0.0466  1.0772 -0.0801
  713MOL0     H96214   1.364   0.089   1.875  4.5805  0.1924  0.7098
  713MOL0     H96215   1.200   0.040   1.709 -1.7522 -0.6673 -1.0374
  713MOL0     H96216   0.858  -0.031   1.632 -0.4596  1.5126  0.0190
  713MOL0     H96217   0.964  -0.061   1.501 -0.4372 -1.4208  0.4523
  713MOL0     H96218   1.016  -0.109   1.665  1.7651  0.3272 -0.8043
  713MOL0     H96219   0.544   0.492   1.572 -1.8103 -1.0901 -0.1579
  713MOL0     H96220   0.312   0.490   1.507 -1.3798  0.4241 -1.9960
  713MOL0     H96221   0.264   0.430   1.109  1.6168  0.2227  1.1727
  713MOL0     H96222   0.086   0.415   1.161  0.6121  0.6821 -0.3568
  713MOL0     H96223   0.156   0.610   1.318  0.4033 -1.5111  0.8439
  713MOL0     H96224   0.309   0.606   1.256 -0.1752  0.1092  1.8237
  713MOL0     H96225   0.070   0.740   1.163  0.0105 -1.9840 -0.4981
  713MOL0     H96226   0.130   0.651   1.026 -0.8193 -2.8437  1.5396
  713MOL0     H96227   0.303   0.825   1.200 -1.4981 -0.1381  1.4152
  713MOL0     H96228   0.358   0.749   1.058  1.4190  2.6678  0.4371
  713MOL0     H96229   0.236   0.911   0.929  0.8563 -2.7576  1.3505
  713MOL0     H96230   0.320   1.003   1.048  0.0310  0.2996  1.7691
  713MOL0     H96231   0.020   0.936   1.054 -0.2802  0.7689 -0.9375
  713MOL0     H96232   0.113   1.016   1.187  2.1241  1.2123 -0.1234
  713MOL0     H96233   0.068   1.111   0.904  1.2553 -0.7674 -0.3924
  713MOL0     H96234   0.177   1.194   1.017 -1.4940  0.4748  1.2038
  713MOL0     H96235   0.001   1.318   1.077  0.3872 -1.0513 -1.2403
  713MOL0     H96236  -0.040   1.181   1.177 -3.5584  0.9527  0.6225
  713MOL0     H96237   0.411   0.238   1.168 -1.4479  1.2852 -0.4786
  713MOL0     H96238   0.636   0.232   1.230 -1.4362  0.7781 -2.1673
  713MOL0     H96239   0.962   0.431   1.559  0.9110 -0.1955 -0.8858
  713MOL0     H96240   1.159   0.463   1.707  1.8183  0.1419  0.6288
  713MOL0     H96241   2.772   0.591   2.696  1.5045 -0.6278  1.2085
  713MOL0     H96242   2.982   0.685   2.631 -1.3234  1.3898 -0.7291
  713MOL0     H96243   3.352   0.796   2.461 -0.1782  0.2153 -2.1204
  713MOL0     H96244   3.566   0.893   2.406  0.5486 -0.7977 -0.1659
  713MOL0     H96245   3.713   0.982   2.222 -2.6488 -0.3302  2.5913
  713MOL0     H96246   3.782   0.930   2.376 -0.9860 -0.3136 -0.5668
  713MOL0     H96247   4.002   0.880   2.261 -2.2060 -3.0065  1.1138
  713MOL0     H96248   3.957   1.052   2.254 -0.7067  0.6212 -2.0028
  713MOL0     H96249   3.858   1.002   2.033 -0.0266 -0.3027  0.8915
  713MOL0     H96250   3.938   0.849   2.030  1.9815  0.6027 -1.4402
  713MOL0     H96251   4.092   0.976   1.918 -3.4647 -1.1453  0.6392
  713MOL0     H96252   4.160   0.963   2.080  0.2596 -2.2427 -2.1101
  713MOL0     H96253   4.097   1.385   2.028  0.3486 -0.0437 -0.0348
  713MOL0     H96254   3.666   0.539   2.195  0.3032  1.5651 -0.7080
  713MOL0     H96255   3.447   0.454   2.224  2.4721 -1.6660 -0.5846
  714MOL0     O96256   4.417   9.877   4.061 -0.5248 -0.7981 -0.3370
  714MOL0     C96257   4.493   9.783   4.083 -0.0559  0.2182  0.8216
  714MOL0     O96258   4.459   9.654   4.127  0.8319 -0.0725  0.2121
  714MOL0     C96259   4.331   9.604   4.105 -0.9122 -0.1253 -0.4442
  714MOL0     C96260   4.214   9.679   4.084  0.0512 -0.3827 -0.0504
  714MOL0     C96261   4.092   9.617   4.049 -0.9490  0.5050  0.5805
  714MOL0     C96262   4.088   9.476   4.034 -0.3453 -0.1975  0.0602
  714MOL0     O96263   3.961   9.415   4.024  0.0164  0.3675 -0.2322
  714MOL0     C96264   3.941   9.317   3.921  0.1929  0.7046  0.2261
  714MOL0     C96265   3.799   9.315   3.888  0.8913 -0.6437  0.4054
  714MOL0     C96266   3.749   9.198   3.816  0.2135  0.4402 -0.0195
  714MOL0     C96267   3.606   9.226   3.763 -0.7939 -0.0098  0.5934
  714MOL0     C96268   3.524   9.097   3.747 -0.2498  0.1819  0.7858
  714MOL0     C96269   3.371   9.130   3.718  0.3163 -0.0315 -0.3726
  714MOL0     C96270   3.306   9.001   3.665 -0.5024  0.6743 -0.6005
  714MOL0     C96271   3.160   9.035   3.684 -0.3922 -0.6949 -1.2503
  714MOL0     N96272   3.051   8.942   3.645  0.3003 -0.2999 -0.4789
  714MOL0     C96273   3.058   8.836   3.559  0.0328 -0.8291 -0.0453
  714MOL0     C96274   2.928   8.794   3.546  0.1103  0.4056 -0.1336
  714MOL0     C96275   2.898   8.664   3.480 -0.5400 -0.9550  0.8861
  714MOL0     C96276   2.922   8.689   3.327  0.7313  0.0695  0.2689
  714MOL0     C96277   2.802   8.661   3.242  0.6813  0.1833  0.1327
  714MOL0     C96278   2.666   8.712   3.289 -0.3209 -0.5635  0.8298
  714MOL0     O96279   2.573   8.598   3.305 -0.1804 -0.2691  0.3010
  714MOL0     C96280   2.443   8.624   3.290  0.2805 -0.5026 -0.1197
  714MOL0     C96281   2.358   8.518   3.261 -1.0974 -0.5836  0.5868
  714MOL0     C96282   2.221   8.523   3.249 -0.5380  0.2350 -0.3019
  714MOL0     C96283   2.148   8.391   3.234  0.1109 -0.4893  0.5768
  714MOL0     C96284   2.162   8.656   3.261 -0.2508  0.6170  0.6052
  714MOL0     C96285   2.018   8.692   3.257 -0.7448  0.6894 -0.8720
  714MOL0     O96286   1.996   8.816   3.203  0.3723  0.0016 -0.1215
  714MOL0     C96287   1.867   8.842   3.182 -0.7163  0.2740  0.2360
  714MOL0     C96288   1.824   8.820   3.050  0.6395  1.4304  0.2586
  714MOL0     C96289   1.695   8.856   3.009  0.8554 -0.1525 -0.2149
  714MOL0     C96290   1.599   8.896   3.109 -0.2384 -0.3287  1.0817
  714MOL0     O96291   1.467   8.939   3.083 -0.4064 -0.0040 -0.8127
  714MOL0     C96292   1.439   9.006   2.963 -0.4824  0.0170 -0.5310
  714MOL0     C96293   1.317   9.096   2.990 -1.0837 -0.6288  1.4840
  714MOL0     C96294   1.342   9.239   3.055 -0.8776  0.1656  0.6032
  714MOL0     C96295   1.437   9.324   2.980  0.2301  0.4185 -0.3760
  714MOL0     C96296   1.426   9.467   3.025 -0.5913 -0.4192 -0.5521
  714MOL0     C96297   1.474   9.573   2.930 -0.4329  0.6929 -1.5556
  714MOL0     C96298   1.630   9.570   2.910  0.1414  0.0486  0.7439
  714MOL0     C96299   1.670   9.686   2.819  0.3977  0.3389  0.5668
  714MOL0    Cl96300   1.664   9.858   2.892  0.0304 -0.3489 -0.5739
  714MOL0     C96301   1.638   8.918   3.243  0.9074  0.4399  0.0177
  714MOL0     C96302   1.775   8.891   3.276 -0.3617  0.1184  0.2365
  714MOL0     O96303   1.934   8.612   3.303 -0.6158  0.2553  0.2904
  714MOL0     C96304   2.250   8.762   3.273  0.5014 -0.6040  0.1667
  714MOL0     C96305   2.385   8.750   3.303  0.7278  0.2029  0.4554
  714MOL0     N96306   2.846   8.874   3.608  0.7616  0.4257 -0.0830
  714MOL0     N96307   2.915   8.970   3.668 -1.1168 -0.8789 -0.4692
  714MOL0     C96308   4.205   9.403   4.049 -0.1754  0.0660  0.5612
  714MOL0     C96309   4.324   9.464   4.088 -0.3963  0.4634 -0.6693
  714MOL0     C96310   4.625   9.809   4.033 -1.1317  0.0719 -0.3163
  714MOL0     C96311   4.654   9.904   3.931  0.4452  0.4159  0.7180
  714MOL0     C96312   4.788   9.919   3.886 -0.2151 -1.1051 -0.5155
  714MOL0     C96313   4.897   9.853   3.939 -0.2190  0.3480  0.3150
  714MOL0     O96314   5.038   9.856   3.899  0.7619  0.3307  0.0301
  714MOL0     C96315   5.061   9.946   3.788  0.0121 -0.5602 -0.3583
  714MOL0     C96316   5.217   9.970   3.780  0.8383 -0.0860 -0.3326
  714MOL0     C96317   5.256  10.101   3.714  0.3309  0.0306  0.6522
  714MOL0     C96318   5.216  10.232   3.793  1.2207  0.1259 -0.4325
  714MOL0     C96319   5.287  10.244   3.919  0.2891  0.5952  0.0758
  714MOL0     C96320   5.350  10.279   4.014 -0.5357  0.1505 -0.0527
  714MOL0     C96321   4.864   9.759   4.042 -0.0663  0.0628  0.0422
  714MOL0     C96322   4.731   9.737   4.089 -0.8103  0.2466 -0.2443
  714MOL0     H96323   4.221   9.784   4.111  2.4170 -0.0839 -1.4807
  714MOL0     H96324   4.011   9.690   4.042 -1.2606  0.1965  0.9092
  714MOL0     H96325   4.001   9.335   3.832  1.8681 -1.9482  0.6919
  714MOL0     H96326   3.961   9.218   3.963 -4.1936 -0.5514 -0.1530
  714MOL0     H96327   3.738   9.319   3.978 -0.1466  3.7225 -0.2730
  714MOL0     H96328   3.777   9.410   3.838  1.6331 -1.7141 -2.1410
  714MOL0     H96329   3.806   9.179   3.725 -1.0160 -1.1667 -0.5050
  714MOL0     H96330   3.762   9.109   3.879 -1.6821  0.0687 -0.0649
  714MOL0     H96331   3.550   9.277   3.842 -1.7326 -1.3126  0.8136
  714MOL0     H96332   3.620   9.272   3.665  0.9591 -0.1117  0.7741
  714MOL0     H96333   3.570   9.045   3.663  1.9141  4.7216 -1.1938
  714MOL0     H96334   3.548   9.042   3.838  1.6008 -1.4223 -0.5726
  714MOL0     H96335   3.340   9.166   3.817  1.3585  1.9682 -0.7210
  714MOL0     H96336   3.361   9.214   3.650 -0.2748 -0.7039 -1.1368
  714MOL0     H96337   3.334   8.983   3.561 -0.1085 -1.6099 -0.1552
  714MOL0     H96338   3.336   8.916   3.727 -0.0586  1.1491 -0.1539
  714MOL0     H96339   3.139   9.131   3.637 -0.5894  1.3643  2.5974
  714MOL0     H96340   3.131   9.059   3.787  0.7606 -1.1070 -0.8100
  714MOL0     H96341   3.153   8.796   3.527 -0.7847 -2.1416 -0.9409
  714MOL0     H96342   2.973   8.588   3.506  1.9419  0.4533 -1.5826
  714MOL0     H96343   2.797   8.627   3.498  0.0258 -1.9375  2.2430
  714MOL0     H96344   3.005   8.625   3.295  0.1543  0.1487 -1.4656
  714MOL0     H96345   2.972   8.783   3.304 -1.0140  0.5243 -1.9726
  714MOL0     H96346   2.795   8.553   3.228 -3.7107  0.3844 -0.5207
  714MOL0     H96347   2.813   8.691   3.138  1.2259 -1.3709 -0.2796
  714MOL0     H96348   2.626   8.772   3.206 -1.6429 -2.4812 -0.0115
  714MOL0     H96349   2.670   8.775   3.378  3.2390 -0.1983  0.5518
  714MOL0     H96350   2.398   8.417   3.270 -0.9478 -0.7159 -1.1572
  714MOL0     H96351   2.216   8.321   3.185  1.1527  0.2909  0.8823
  714MOL0     H96352   2.131   8.354   3.336  0.8001  2.3147  1.8026
  714MOL0     H96353   2.054   8.392   3.177  0.6388 -3.8297 -0.5569
  714MOL0     H96354   1.893   8.769   2.985 -1.1589 -1.2956  0.3539
  714MOL0     H96355   1.691   8.836   2.902  2.9030 -2.4425  0.0370
  714MOL0     H96356   1.526   9.064   2.930 -0.9894 -0.7067 -3.3830
  714MOL0     H96357   1.421   8.940   2.878 -0.9396  1.0736 -1.2814
  714MOL0     H96358   1.281   9.125   2.891  3.0232 -1.9533 -0.6453
  714MOL0     H96359   1.237   9.041   3.040 -2.8020 -1.7128 -2.1090
  714MOL0     H96360   1.382   9.238   3.157 -0.1079  0.6625  0.3142
  714MOL0     H96361   1.243   9.282   3.069 -0.3945  0.9838  1.7125
  714MOL0     H96362   1.540   9.288   2.992  0.4995  1.2219 -0.2067
  714MOL0     H96363   1.410   9.316   2.874 -1.7359  2.0070 -0.0525
  714MOL0     H96364   1.480   9.475   3.120  0.6145 -2.1728 -1.0435
  714MOL0     H96365   1.319   9.489   3.035 -1.2262 -3.2439 -0.1885
  714MOL0     H96366   1.420   9.559   2.836 -2.2074 -0.8003 -0.3920
  714MOL0     H96367   1.450   9.674   2.964  0.2684  2.1249 -4.9656
  714MOL0     H96368   1.652   9.473   2.864 -0.3728  0.3254 -0.1184
  714MOL0     H96369   1.687   9.576   3.003 -0.1739  0.3288  0.9223
  714MOL0     H96370   1.604   9.682   2.732  0.5904 -0.7784  0.4471
  714MOL0     H96371   1.766   9.660   2.773  1.4250 -1.8715  3.5576
  714MOL0     H96372   1.563   8.943   3.317 -0.9562 -1.9119 -0.9545
  714MOL0     H96373   1.803   8.907   3.379  1.1737 -2.8239  0.3989
  714MOL0     H96374   2.207   8.861   3.277  0.0621 -0.6781 -1.6040
  714MOL0     H96375   2.443   8.829   3.350  0.0864  1.1060 -0.2482
  714MOL0     H96376   4.199   9.294   4.048  2.0793 -0.1655  2.4939
  714MOL0     H96377   4.410   9.406   4.121 -0.0234  2.1788  1.6379
  714MOL0     H96378   4.578   9.961   3.878  0.5851 -0.1896 -0.1444
  714MOL0     H96379   4.801   9.982   3.798  0.1670 -1.4312 -0.6911
  714MOL0     H96380   5.018   9.901   3.698 -2.4257  1.2553 -0.1851
  714MOL0     H96381   5.015  10.045   3.801 -0.8780 -0.7586 -1.7691
  714MOL0     H96382   5.257   9.894   3.712 -0.2950  0.5503 -1.7453
  714MOL0     H96383   5.265   9.942   3.874 -1.4335 -2.4079  0.2452
  714MOL0     H96384   5.215  10.093   3.613 -0.1209 -3.1650  0.9739
  714MOL0     H96385   5.362  10.094   3.687 -0.0447 -0.9948 -0.6928
  714MOL0     H96386   5.108  10.236   3.810  1.5634  3.7385  2.0953
  714MOL0     H96387   5.248  10.316   3.729 -1.4236  0.9723 -0.7564
  714MOL0     H96388   5.401  10.303   4.105 -2.0419 -0.7611  1.0987
  714MOL0     H96389   4.941   9.710   4.100  0.4541  1.9343  1.0105
  714MOL0     H96390   4.721   9.665   4.170 -0.7221 -0.0227 -0.4712
  715MOL0     O96391   8.258  10.267   5.396 -0.9223  0.5745  0.0554
  715MOL0     C96392   8.232  10.158   5.343 -0.3935  0.4880 -0.1924
  715MOL0     O96393   8.144  10.143   5.238  0.2024  0.4050 -0.2122
  715MOL0     C96394   8.081  10.251   5.187  0.9102 -0.7160 -0.2145
  715MOL0     C96395   7.972  10.299   5.263 -0.0196 -0.3865 -0.2671
  715MOL0     C96396   7.912  10.415   5.214  0.0080  0.4297 -0.1519
  715MOL0     C96397   7.959  10.484   5.102  0.1174  0.2055  0.0600
  715MOL0     O96398   7.922  10.607   5.066 -0.3008 -0.3442  0.8280
  715MOL0     C96399   7.833  10.694   5.136  0.4774 -0.0157  0.3481
  715MOL0     C96400   7.855  10.848   5.119  0.6178 -0.2014 -1.2528
  715MOL0     C96401   7.752  10.915   5.203 -0.0613  0.5709 -0.0582
  715MOL0     C96402   7.806  11.048   5.244  0.0815 -0.1163 -0.2453
  715MOL0     C96403   7.696  11.142   5.306 -0.0902 -0.3687 -0.4823
  715MOL0     C96404   7.597  11.184   5.201  0.3568 -0.1113 -0.1400
  715MOL0     C96405   7.494  11.293   5.251 -0.2281 -0.5045  0.1166
  715MOL0     C96406   7.566  11.424   5.291 -0.1129 -0.6444 -0.5494
  715MOL0     N96407   7.469  11.530   5.328 -0.1533  0.5263  0.4220
  715MOL0     C96408   7.416  11.620   5.236  0.9242  0.1228 -0.7370
  715MOL0     C96409   7.306  11.660   5.292  0.8594  0.6874 -0.1677
  715MOL0     C96410   7.213  11.758   5.232 -0.4252 -0.3868 -0.4777
  715MOL0     C96411   7.068  11.765   5.284 -1.1537  0.2640 -1.0154
  715MOL0     C96412   6.984  11.848   5.193 -0.0748 -0.4720  0.2072
  715MOL0     C96413   6.833  11.813   5.205 -0.0523 -0.9655 -0.5258
  715MOL0     O96414   6.752  11.886   5.114  0.4499  0.8930  0.2478
  715MOL0     C96415   6.609  11.855   5.111  0.4990  0.1499 -0.1653
  715MOL0     C96416   6.538  11.831   5.229 -0.8584 -0.2975 -0.1228
  715MOL0     C96417   6.402  11.818   5.224  0.1978 -0.0500 -0.7017
  715MOL0     C96418   6.334  11.789   5.362 -0.2597  0.1473  0.6827
  715MOL0     C96419   6.326  11.842   5.108  0.5861  0.2127  0.0778
  715MOL0     C96420   6.174  11.838   5.101  0.5573  0.3609 -0.3672
  715MOL0     O96421   6.107  11.762   5.194 -0.1318  0.4822  0.0431
  715MOL0     C96422   5.979  11.715   5.172 -0.6313  0.5857  0.3916
  715MOL0     C96423   5.913  11.664   5.274 -0.7500  0.1075 -0.6146
  715MOL0     C96424   5.782  11.614   5.264 -0.1469  0.5278  0.3143
  715MOL0     C96425   5.707  11.625   5.146 -0.0907  0.2696  0.2583
  715MOL0     O96426   5.570  11.597   5.132  0.3035 -0.5336  0.4208
  715MOL0     C96427   5.492  11.625   5.009 -0.1400 -0.2649 -0.2506
  715MOL0     C96428   5.351  11.581   5.026  0.5623  0.5427  0.3552
  715MOL0     C96429   5.244  11.685   5.092 -0.4033 -0.6930  1.1561
  715MOL0     C96430   5.122  11.616   5.149  0.0701  0.5557 -0.1261
  715MOL0     C96431   5.026  11.713   5.203  0.6116 -0.4372 -0.2933
  715MOL0     C96432   4.882  11.651   5.207 -0.4778 -0.4107 -0.2502
  715MOL0     C96433   4.801  11.758   5.273  0.9655 -1.0295 -0.2682
  715MOL0     C96434   4.653  11.727   5.269  0.2865  0.3551  0.3579
  715MOL0    Cl96435   4.607  11.589   5.378  0.4860 -0.0778 -0.4865
  715MOL0     C96436   5.783  11.666   5.035  0.7219  0.4442 -1.1367
  715MOL0     C96437   5.912  11.712   5.051 -0.2732 -0.1345 -0.0781
  715MOL0     O96438   6.118  11.919   5.029 -0.0986  0.3773  0.3882
  715MOL0     C96439   6.394  11.872   4.995 -0.3742  0.9231 -0.6865
  715MOL0     C96440   6.540  11.861   4.995  0.5627 -0.5956 -0.5320
  715MOL0     N96441   7.292  11.621   5.417 -0.3765  0.5040 -0.0902
  715MOL0     N96442   7.388  11.532   5.440 -0.3144 -0.1488 -0.0434
  715MOL0     C96443   8.061  10.421   5.026 -1.2065 -1.3712  0.0275
  715MOL0     C96444   8.126  10.308   5.064 -0.0512  0.7722 -0.7141
  715MOL0     C96445   8.313  10.035   5.377 -0.2131 -0.4307  0.6880
  715MOL0     C96446   8.284   9.906   5.314 -0.3509 -0.7883  0.6949
  715MOL0     C96447   8.363   9.796   5.341  0.3473 -0.7400 -0.4695
  715MOL0     C96448   8.463   9.797   5.430 -0.2378 -0.2610 -0.3237
  715MOL0     O96449   8.549   9.696   5.449  0.4556 -0.6657 -0.6352
  715MOL0     C96450   8.564   9.585   5.369 -0.3356 -0.0612  0.0067
  715MOL0     C96451   8.694   9.505   5.401  0.1124  0.1698  0.8103
  715MOL0     C96452   8.827   9.579   5.411 -0.6249 -0.5797  0.0255
  715MOL0     C96453   8.938   9.487   5.475 -0.3125  0.6383 -0.3628
  715MOL0     C96454   9.069   9.549   5.468 -0.0845  0.0431 -0.1157
  715MOL0     C96455   9.172   9.603   5.454  0.0678 -0.3114  1.2964
  715MOL0     C96456   8.488   9.915   5.501 -0.4411  0.0501  0.4599
  715MOL0     C96457   8.417  10.030   5.474  0.4889  0.1099 -1.1227
  715MOL0     H96458   7.943  10.246   5.353 -2.2866  3.4038  1.5112
  715MOL0     H96459   7.829  10.453   5.272  0.2625  0.3129  0.2893
  715MOL0     H96460   7.726  10.676   5.119 -0.2564  4.2208 -0.9018
  715MOL0     H96461   7.853  10.672   5.241  0.2784  0.1904  0.4302
  715MOL0     H96462   7.956  10.865   5.157  0.0040  0.3819  0.1856
  715MOL0     H96463   7.847  10.866   5.011  0.1359 -1.9052 -1.5361
  715MOL0     H96464   7.663  10.926   5.141  0.0028  0.0581 -0.2470
  715MOL0     H96465   7.730  10.858   5.294 -1.7880  2.2324  0.6194
  715MOL0     H96466   7.870  11.024   5.329 -1.4872  0.0552  1.0191
  715MOL0     H96467   7.854  11.096   5.157 -1.6860  1.6299 -0.3249
  715MOL0     H96468   7.635  11.085   5.377 -1.6950 -1.5316 -2.6863
  715MOL0     H96469   7.733  11.230   5.361 -0.9514  0.9600 -1.9504
  715MOL0     H96470   7.651  11.214   5.110 -0.1005  1.0431 -0.0473
  715MOL0     H96471   7.533  11.099   5.178 -0.0548 -0.2247  1.3517
  715MOL0     H96472   7.428  11.322   5.169  2.9825  1.7627 -1.9222
  715MOL0     H96473   7.437  11.254   5.336 -1.3296  2.7363  1.0265
  715MOL0     H96474   7.626  11.461   5.207  1.3841  0.1145  0.8043
  715MOL0     H96475   7.633  11.404   5.375  0.2227  0.1127 -0.6321
  715MOL0     H96476   7.443  11.641   5.133 -1.8387 -0.2904 -1.6380
  715MOL0     H96477   7.256  11.856   5.254 -1.4232 -0.2419  0.9356
  715MOL0     H96478   7.217  11.751   5.123  2.1438  1.8715 -0.6400
  715MOL0     H96479   7.072  11.814   5.382 -0.4681  0.9400 -1.3681
  715MOL0     H96480   7.029  11.663   5.295 -3.9723  1.4359  1.2931
  715MOL0     H96481   7.017  11.827   5.090 -1.4050 -1.6392 -0.0112
  715MOL0     H96482   7.002  11.953   5.217  3.8629 -1.3184  1.5539
  715MOL0     H96483   6.822  11.848   5.309  1.6201  2.0575 -1.2432
  715MOL0     H96484   6.822  11.705   5.192 -1.8293 -1.0999  1.4419
  715MOL0     H96485   6.599  11.825   5.318 -1.6117  2.6689  0.7312
  715MOL0     H96486   6.413  11.788   5.438 -0.1761 -1.7433  0.5981
  715MOL0     H96487   6.254  11.862   5.383 -1.3316  0.5407 -3.8281
  715MOL0     H96488   6.285  11.691   5.359 -0.3353  0.2108 -2.1182
  715MOL0     H96489   5.968  11.650   5.367 -0.2445 -0.2382 -0.9595
  715MOL0     H96490   5.723  11.573   5.346 -1.5128  0.7511 -0.5384
  715MOL0     H96491   5.499  11.732   4.990  1.8977 -0.4240 -0.6064
  715MOL0     H96492   5.512  11.558   4.925 -2.2463 -4.6134  2.3519
  715MOL0     H96493   5.305  11.545   4.933 -0.2502  1.0050  0.5655
  715MOL0     H96494   5.350  11.494   5.092 -0.7620 -0.8354 -1.3862
  715MOL0     H96495   5.214  11.740   5.002  3.8010 -1.2620 -0.8193
  715MOL0     H96496   5.294  11.762   5.150  0.7676  0.6369 -1.4355
  715MOL0     H96497   5.085  11.557   5.065  0.3918  0.3038 -0.0950
  715MOL0     H96498   5.152  11.549   5.230 -0.7165  0.5489  0.1662
  715MOL0     H96499   5.031  11.801   5.139  1.3157 -0.7262 -0.6468
  715MOL0     H96500   5.049  11.742   5.306 -1.0099  2.6811 -0.6968
  715MOL0     H96501   4.850  11.629   5.105 -0.5162 -1.9124  0.0570
  715MOL0     H96502   4.888  11.552   5.253 -0.5560 -1.0029 -1.4754
  715MOL0     H96503   4.810  11.860   5.235 -1.6873  1.2610  4.3834
  715MOL0     H96504   4.845  11.759   5.373 -0.6364  0.1837  0.4737
  715MOL0     H96505   4.627  11.697   5.167  0.5472  0.1006  0.3654
  715MOL0     H96506   4.585  11.810   5.289 -0.7974 -0.6899  1.1466
  715MOL0     H96507   5.744  11.687   4.936 -2.8591  0.2211  0.0881
  715MOL0     H96508   5.955  11.752   4.960 -1.6159  0.0161 -0.6769
  715MOL0     H96509   6.339  11.898   4.905 -2.8724  1.0333  0.7723
  715MOL0     H96510   6.596  11.872   4.903 -1.2786 -1.5536 -1.8294
  715MOL0     H96511   8.091  10.476   4.937  1.2247 -0.9501  1.0269
  715MOL0     H96512   8.206  10.261   5.008 -2.1024 -1.3624 -2.0174
  715MOL0     H96513   8.222   9.888   5.227  0.5381 -2.0991  0.2942
  715MOL0     H96514   8.352   9.707   5.280  0.7860 -1.1449  0.0348
  715MOL0     H96515   8.479   9.517   5.372 -0.8408  0.5582  2.5518
  715MOL0     H96516   8.575   9.622   5.266 -2.5711 -1.1720 -0.7060
  715MOL0     H96517   8.718   9.426   5.330 -0.4854 -2.0475  2.9329
  715MOL0     H96518   8.668   9.451   5.493 -1.4414 -0.0097  0.2975
  715MOL0     H96519   8.825   9.666   5.478  0.9420 -0.1254 -0.4734
  715MOL0     H96520   8.860   9.616   5.314 -0.2112  1.3752  0.8666
  715MOL0     H96521   8.948   9.392   5.421 -0.0936 -0.5930  1.7415
  715MOL0     H96522   8.919   9.458   5.579 -1.5560 -0.9868 -0.9966
  715MOL0     H96523   9.263   9.659   5.452 -0.0778 -0.1113  0.1951
  715MOL0     H96524   8.576   9.931   5.563 -0.5057 -1.1140  0.8901
  715MOL0     H96525   8.434  10.122   5.529 -1.9374  1.0029 -1.7391
  716MOL0     O96526  10.465   8.441   3.456 -0.5222  0.1123  0.8245
  716MOL0     C96527  10.386   8.472   3.547  0.6446 -0.1389 -0.1116
  716MOL0     O96528  10.262   8.532   3.531  0.2913  0.5642  0.6107
  716MOL0     C96529  10.209   8.558   3.413 -0.4771 -0.4560  0.9123
  716MOL0     C96530  10.256   8.526   3.282  0.1866 -0.1683 -0.0156
  716MOL0     C96531  10.171   8.548   3.162  0.2655 -0.2098 -0.2392
  716MOL0     C96532  10.051   8.611   3.182  0.3800  0.0302 -0.4859
  716MOL0     O96533   9.985   8.641   3.070 -0.3418 -0.5235 -0.5974
  716MOL0     C96534   9.901   8.544   3.018 -0.1872  0.4869  0.0205
  716MOL0     C96535   9.809   8.606   2.917  0.7104 -1.3069 -0.3944
  716MOL0     C96536   9.725   8.501   2.850  0.0902 -0.2184 -0.0348
  716MOL0     C96537   9.644   8.577   2.737 -0.1163 -0.4628 -0.0745
  716MOL0     C96538   9.519   8.498   2.687  0.0214 -0.4241 -0.1449
  716MOL0     C96539   9.395   8.482   2.788 -0.5854 -0.2761 -0.0810
  716MOL0     C96540   9.285   8.407   2.724  0.1952  0.8083 -0.9929
  716MOL0     C96541   9.175   8.381   2.833  0.7036  0.3064  0.6722
  716MOL0     N96542   9.079   8.494   2.847  0.0138  0.2839 -0.0439
  716MOL0     C96543   8.987   8.524   2.749  0.8800  0.3809  0.2438
  716MOL0     C96544   8.918   8.632   2.794 -0.1607 -0.0643  0.0733
  716MOL0     C96545   8.796   8.698   2.722 -0.1107  0.0518 -0.4657
  716MOL0     C96546   8.691   8.588   2.705  0.4564  0.8668 -0.0929
  716MOL0     C96547   8.579   8.639   2.625  0.9907 -0.2953  0.8570
  716MOL0     C96548   8.484   8.521   2.576 -1.0664 -0.8455  0.0190
  716MOL0     O96549   8.345   8.577   2.582  0.0292  0.7127 -0.3691
  716MOL0     C96550   8.243   8.496   2.551 -0.0859  0.9782 -0.7443
  716MOL0     C96551   8.255   8.373   2.479 -0.1319 -0.3813  0.1166
  716MOL0     C96552   8.136   8.296   2.453 -0.9254  0.4880 -0.2514
  716MOL0     C96553   8.154   8.165   2.379 -0.4280  0.0547 -0.3932
  716MOL0     C96554   8.012   8.346   2.491 -0.2633 -0.1531 -0.1221
  716MOL0     C96555   7.880   8.282   2.467 -0.5219  0.0669 -0.1700
  716MOL0     O96556   7.782   8.308   2.559  0.4827  0.4094 -0.1435
  716MOL0     C96557   7.658   8.247   2.542 -0.1515  0.0514 -0.6849
  716MOL0     C96558   7.621   8.137   2.625 -0.1005  0.1391  0.0034
  716MOL0     C96559   7.502   8.069   2.587 -0.7055 -0.2101 -0.5300
  716MOL0     C96560   7.412   8.108   2.488 -0.7357 -0.0402 -0.4162
  716MOL0     O96561   7.294   8.039   2.482  0.3618  0.3787 -0.6941
  716MOL0     C96562   7.223   8.033   2.356 -0.4071  0.1815  0.8651
  716MOL0     C96563   7.121   8.142   2.344  0.6806 -0.4104  0.2998
  716MOL0     C96564   7.023   8.129   2.227  0.0345  0.6665  0.2714
  716MOL0     C96565   6.918   8.235   2.221  0.3458  0.3744  0.7024
  716MOL0     C96566   6.775   8.182   2.191 -0.0294  0.1096 -0.4289
  716MOL0     C96567   6.699   8.300   2.123  0.2343 -0.1806  0.3388
  716MOL0     C96568   6.571   8.260   2.050  0.1886  1.4934  0.1860
  716MOL0     C96569   6.485   8.379   2.019  0.2925 -0.4234 -0.4048
  716MOL0    Cl96570   6.547   8.474   1.875  0.3432  0.6924 -0.0508
  716MOL0     C96571   7.451   8.215   2.414 -0.4810 -1.3243 -0.2957
  716MOL0     C96572   7.572   8.289   2.442  0.4056 -0.1232  0.8170
  716MOL0     O96573   7.866   8.209   2.372 -0.3131 -0.0325  0.2672
  716MOL0     C96574   8.005   8.461   2.569  0.0150  0.0304  0.2161
  716MOL0     C96575   8.115   8.536   2.591  0.0169  0.3273 -0.5782
  716MOL0     N96576   8.981   8.676   2.915 -0.2241  0.1165  0.3195
  716MOL0     N96577   9.078   8.593   2.937  0.1851 -0.1518 -0.4806
  716MOL0     C96578  10.005   8.646   3.311 -1.2978  0.9191  0.4784
  716MOL0     C96579  10.085   8.618   3.422 -0.0319 -0.0644 -0.0949
  716MOL0     C96580  10.425   8.467   3.686 -0.2706 -0.0449 -0.1053
  716MOL0     C96581  10.541   8.400   3.721 -0.2472 -0.8870  0.3119
  716MOL0     C96582  10.568   8.388   3.856 -0.2692 -0.1870  0.3538
  716MOL0     C96583  10.499   8.449   3.953  0.0010 -0.4552 -0.6532
  716MOL0     O96584  10.536   8.462   4.091 -0.6395  0.4900  0.0524
  716MOL0     C96585  10.671   8.423   4.124 -0.1671  0.4471 -0.1727
  716MOL0     C96586  10.723   8.526   4.234 -0.0699  0.3059  0.3218
  716MOL0     C96587  10.721   8.679   4.203 -0.0867  0.8062 -0.2802
  716MOL0     C96588  10.823   8.751   4.298  0.0174  0.3834 -1.1309
  716MOL0     C96589  10.799   8.734   4.440 -0.1551  0.5041 -0.2394
  716MOL0     C96590  10.789   8.711   4.557  0.2572 -0.2169 -0.5090
  716MOL0     C96591  10.378   8.517   3.920  0.2201 -0.7398  0.0288
  716MOL0     C96592  10.339   8.529   3.788 -0.6531 -0.0592 -0.0655
  716MOL0     H96593  10.350   8.472   3.269  1.5251  1.9965  0.1542
  716MOL0     H96594  10.220   8.529   3.067  1.5186  1.5668 -0.0153
  716MOL0     H96595   9.965   8.464   2.981  0.6398 -0.0221  2.3911
  716MOL0     H96596   9.845   8.501   3.102  0.0420  0.4472  0.1535
  716MOL0     H96597   9.740   8.675   2.967  0.2786  1.3930 -4.2982
  716MOL0     H96598   9.869   8.667   2.849 -0.6507 -1.3549 -1.6908
  716MOL0     H96599   9.795   8.436   2.795 -1.7458 -0.8649 -1.7005
  716MOL0     H96600   9.670   8.454   2.932  1.9243 -0.1809  1.2802
  716MOL0     H96601   9.611   8.675   2.771  0.9388 -0.1353  0.0574
  716MOL0     H96602   9.712   8.595   2.653  0.8867 -1.5330  0.4686
  716MOL0     H96603   9.483   8.537   2.591 -1.5888  0.4492  0.7560
  716MOL0     H96604   9.542   8.392   2.673 -2.4985 -1.4467  2.3807
  716MOL0     H96605   9.434   8.434   2.878 -1.2952 -1.4574 -0.3784
  716MOL0     H96606   9.371   8.585   2.818  0.0393 -0.4174  0.9675
  716MOL0     H96607   9.233   8.467   2.648  0.4503  1.4459 -0.6760
  716MOL0     H96608   9.321   8.310   2.691  2.3968  0.9300  0.7979
  716MOL0     H96609   9.213   8.376   2.936 -1.1031  2.2076  1.5225
  716MOL0     H96610   9.114   8.295   2.806 -0.4201  0.9469  1.1079
  716MOL0     H96611   8.960   8.487   2.651  0.1397  1.3565  0.0591
  716MOL0     H96612   8.763   8.788   2.775 -0.6643  0.3574 -1.3035
  716MOL0     H96613   8.825   8.740   2.626  0.2330 -0.0016 -0.3849
  716MOL0     H96614   8.661   8.537   2.797 -0.0658  0.2791 -0.5774
  716MOL0     H96615   8.734   8.506   2.646 -1.7199  0.1641 -0.7994
  716MOL0     H96616   8.609   8.702   2.541 -1.0220 -0.4292 -0.0393
  716MOL0     H96617   8.516   8.707   2.684  0.7870 -1.2169  1.7316
  716MOL0     H96618   8.501   8.421   2.617  3.3285 -0.9428 -1.5723
  716MOL0     H96619   8.514   8.516   2.471  1.8962  0.9237  0.6832
  716MOL0     H96620   8.349   8.342   2.434 -0.8612 -2.3450 -0.1668
  716MOL0     H96621   8.116   8.082   2.438 -2.0165 -0.8535 -2.5741
  716MOL0     H96622   8.100   8.179   2.285 -0.2828  4.8297 -0.0434
  716MOL0     H96623   8.257   8.152   2.344 -0.4204 -0.7215 -0.0924
  716MOL0     H96624   7.677   8.105   2.712 -0.7466  1.9669  1.1737
  716MOL0     H96625   7.481   7.981   2.648 -1.1066  0.3719  0.1760
  716MOL0     H96626   7.283   8.050   2.266  0.2769  1.1267  1.4792
  716MOL0     H96627   7.173   7.936   2.342  0.5904  0.1209 -4.1168
  716MOL0     H96628   7.059   8.141   2.434  0.2029  1.0209 -0.0010
  716MOL0     H96629   7.172   8.239   2.343 -1.4200  0.7309 -0.2608
  716MOL0     H96630   6.966   8.038   2.248  0.2249  1.3358  4.8970
  716MOL0     H96631   7.083   8.136   2.136  2.6616  2.1765  1.9748
  716MOL0     H96632   6.916   8.290   2.316  1.8035  5.5921 -1.9118
  716MOL0     H96633   6.949   8.309   2.146 -1.2092 -2.0228 -2.5718
  716MOL0     H96634   6.737   8.137   2.283  1.7597  0.0136  0.3002
  716MOL0     H96635   6.782   8.102   2.117 -0.3945  0.4187 -0.8072
  716MOL0     H96636   6.680   8.371   2.204  0.0324 -0.0233  0.1575
  716MOL0     H96637   6.762   8.363   2.059 -0.3324  2.4313  2.1687
  716MOL0     H96638   6.523   8.179   2.105  1.1527 -0.0442 -1.1406
  716MOL0     H96639   6.589   8.212   1.953  0.7211 -1.0146  1.4454
  716MOL0     H96640   6.489   8.448   2.104  1.1611  1.4219 -1.8818
  716MOL0     H96641   6.378   8.359   2.017  0.0340  0.6653  0.8541
  716MOL0     H96642   7.407   8.257   2.324  0.2848  1.2821  0.4507
  716MOL0     H96643   7.613   8.372   2.384 -1.4341  0.4825  0.3358
  716MOL0     H96644   7.914   8.502   2.612 -0.8374  0.6542 -2.0426
  716MOL0     H96645   8.083   8.623   2.648 -2.5951  1.6875 -3.7658
  716MOL0     H96646   9.914   8.704   3.309 -0.0271  3.0466 -2.0853
  716MOL0     H96647  10.046   8.637   3.522  0.5089 -0.1561  0.1331
  716MOL0     H96648  10.610   8.356   3.650  0.6807  1.3778 -0.2989
  716MOL0     H96649  10.660   8.336   3.879 -0.5051  0.6490  3.7866
  716MOL0     H96650  10.668   8.328   4.178  2.2033  0.3382 -0.1544
  716MOL0     H96651  10.741   8.392   4.046  0.0043 -2.7606  1.1001
  716MOL0     H96652  10.822   8.496   4.271 -0.4178 -0.2668  0.7970
  716MOL0     H96653  10.665   8.513   4.326  0.6739 -3.2064  0.4189
  716MOL0     H96654  10.618   8.710   4.223 -0.4831 -1.5137  1.7535
  716MOL0     H96655  10.738   8.684   4.095 -1.0194 -0.2385 -0.4976
  716MOL0     H96656  10.827   8.860   4.282 -2.1772  1.0054  1.8330
  716MOL0     H96657  10.918   8.702   4.274  0.1147 -1.9719  3.1277
  716MOL0     H96658  10.753   8.703   4.658 -1.6436 -3.1533 -1.3074
  716MOL0     H96659  10.321   8.569   3.996 -0.7659 -2.5011  0.5653
  716MOL0     H96660  10.243   8.574   3.765 -1.7439 -2.3210 -0.2219
  717MOL0     O96661   9.960   1.585   4.039  0.4397 -0.9939 -1.2574
  717MOL0     C96662  10.033   1.505   4.084 -0.0509 -0.1259  0.1054
  717MOL0     O96663   9.993   1.377   4.125 -0.1434 -0.0456  0.5155
  717MOL0     C96664   9.855   1.357   4.137  0.0749 -0.2875  0.2384
  717MOL0     C96665   9.750   1.415   4.061  0.0153 -0.7999 -0.3838
  717MOL0     C96666   9.626   1.374   4.100  0.5849  1.1950  0.0644
  717MOL0     C96667   9.598   1.302   4.210  0.1079  0.0755  0.1883
  717MOL0     O96668   9.468   1.280   4.246 -0.0300 -0.8493  0.2871
  717MOL0     C96669   9.429   1.270   4.386 -0.6072  0.3153  0.2535
  717MOL0     C96670   9.289   1.318   4.411 -0.5177  0.1680  0.2582
  717MOL0     C96671   9.182   1.214   4.425 -0.4012 -0.5489  0.3228
  717MOL0     C96672   9.055   1.266   4.487  0.3944 -1.0680 -0.0597
  717MOL0     C96673   8.956   1.156   4.540 -0.0563 -0.8279  0.4264
  717MOL0     C96674   8.866   1.105   4.423 -0.4194 -1.0385  0.4003
  717MOL0     C96675   8.776   0.983   4.466  0.3551 -0.2526 -0.1418
  717MOL0     C96676   8.696   0.923   4.342 -0.0186  0.5222  0.4082
  717MOL0     N96677   8.592   1.011   4.289 -0.0828 -0.6624 -0.3080
  717MOL0     C96678   8.458   0.987   4.312  0.3093 -0.2091 -0.0296
  717MOL0     C96679   8.408   1.105   4.254  0.2359 -0.3770  0.3684
  717MOL0     C96680   8.267   1.135   4.253  0.4001 -0.9383 -1.0352
  717MOL0     C96681   8.232   1.167   4.107  0.7491  0.4930  0.2171
  717MOL0     C96682   8.087   1.204   4.098 -0.1406  0.0476  0.4476
  717MOL0     C96683   8.042   1.338   4.147 -0.0037 -0.5534  1.0501
  717MOL0     O96684   7.928   1.386   4.078 -0.0528 -0.1456 -0.2219
  717MOL0     C96685   7.807   1.349   4.120  0.6115  0.0743 -0.0485
  717MOL0     C96686   7.783   1.264   4.225  0.4040 -0.0354  0.1056
  717MOL0     C96687   7.650   1.236   4.267 -0.8067 -0.5461  0.4575
  717MOL0     C96688   7.639   1.157   4.392  0.2280 -0.3818 -1.0379
  717MOL0     C96689   7.544   1.288   4.196  0.7771 -0.8549 -0.3919
  717MOL0     C96690   7.400   1.267   4.229  0.0117 -0.5492  0.4249
  717MOL0     O96691   7.322   1.357   4.169  0.0092 -0.0145  0.6274
  717MOL0     C96692   7.180   1.364   4.188  0.8454  0.5530 -0.6219
  717MOL0     C96693   7.109   1.412   4.083 -0.1687 -0.0703  0.2870
  717MOL0     C96694   6.971   1.428   4.091  0.0083 -0.0584  0.5201
  717MOL0     C96695   6.898   1.372   4.190 -0.2485  1.6264  0.2430
  717MOL0     O96696   6.760   1.375   4.199 -0.0362 -0.0562  0.1042
  717MOL0     C96697   6.672   1.343   4.096 -0.0540  0.1809 -0.4871
  717MOL0     C96698   6.542   1.316   4.168  0.4141  0.9441  0.9492
  717MOL0     C96699   6.426   1.320   4.076  0.5858 -0.4738 -0.6204
  717MOL0     C96700   6.289   1.281   4.139 -0.2089 -0.4711  0.8607
  717MOL0     C96701   6.177   1.282   4.033  0.4968 -0.3666 -0.0374
  717MOL0     C96702   6.039   1.269   4.089 -0.2592  0.3036  0.4255
  717MOL0     C96703   5.988   1.381   4.185 -0.4858  0.5058  0.5721
  717MOL0     C96704   5.846   1.339   4.232  0.7705  0.2177 -0.3181
  717MOL0    Cl96705   5.715   1.350   4.104  0.6523  0.7136  0.0484
  717MOL0     C96706   6.966   1.325   4.300  0.5618  0.6049  0.0522
  717MOL0     C96707   7.106   1.328   4.302 -0.1011  0.5674  0.8886
  717MOL0     O96708   7.353   1.171   4.281 -0.4958 -0.3088 -0.2872
  717MOL0     C96709   7.576   1.370   4.085 -0.1732  0.8488  0.5978
  717MOL0     C96710   7.705   1.398   4.049 -0.1895 -0.2990 -0.0590
  717MOL0     N96711   8.512   1.182   4.202  0.8139  0.2089 -0.0911
  717MOL0     N96712   8.617   1.118   4.215  0.0837 -0.3255 -0.0473
  717MOL0     C96713   9.698   1.246   4.280 -0.4020  1.0555 -0.3156
  717MOL0     C96714   9.832   1.274   4.245 -0.2968  0.4757 -0.0929
  717MOL0     C96715  10.174   1.537   4.104 -0.1709 -0.0629  0.6419
  717MOL0     C96716  10.217   1.665   4.071  0.0469  0.1125 -0.9467
  717MOL0     C96717  10.356   1.695   4.090  0.2703  0.2521 -0.0223
  717MOL0     C96718  10.443   1.600   4.134  0.2137 -0.0544  0.0615
  717MOL0     O96719  10.581   1.628   4.150  0.1039  0.8127 -0.2860
  717MOL0     C96720  10.630   1.757   4.137  0.4324 -0.5286  0.9048
  717MOL0     C96721  10.780   1.765   4.183  0.2534 -0.8586  0.2089
  717MOL0     C96722  10.872   1.689   4.078  0.1741 -0.5086 -0.6663
  717MOL0     C96723  11.014   1.747   4.058 -0.3926  0.2196 -0.3823
  717MOL0     C96724  11.080   1.774   4.187  0.4939 -0.0569 -0.1552
  717MOL0     C96725  11.156   1.810   4.273  0.0852  0.0750 -0.6163
  717MOL0     C96726  10.396   1.475   4.178  0.2776  0.5239 -0.2772
  717MOL0     C96727  10.262   1.444   4.156 -0.0519 -0.8199  0.3904
  717MOL0     H96728   9.777   1.480   3.978 -0.3722  4.1428  2.9443
  717MOL0     H96729   9.537   1.409   4.049 -3.2251 -2.5266  3.4188
  717MOL0     H96730   9.431   1.171   4.433  0.4054  1.0126  1.7841
  717MOL0     H96731   9.492   1.335   4.448 -0.3888 -1.0973  1.5766
  717MOL0     H96732   9.290   1.370   4.507  0.7569  0.6186  0.0125
  717MOL0     H96733   9.262   1.382   4.326 -1.7427 -0.4304  0.1730
  717MOL0     H96734   9.160   1.172   4.327  0.4007 -1.2796  0.4408
  717MOL0     H96735   9.221   1.140   4.496 -3.7119 -1.6098  1.1855
  717MOL0     H96736   9.084   1.322   4.577  2.2649  0.4717 -1.5233
  717MOL0     H96737   9.005   1.332   4.416  1.5369  0.6307  0.6473
  717MOL0     H96738   9.024   1.080   4.580  1.1278 -0.7139 -1.2321
  717MOL0     H96739   8.884   1.193   4.614  1.1163  1.0847  0.6796
  717MOL0     H96740   8.807   1.189   4.385  0.8030 -0.1421  0.4228
  717MOL0     H96741   8.926   1.066   4.340 -0.2572 -1.7992  0.8707
  717MOL0     H96742   8.842   0.910   4.514  0.4799  0.8403  1.4140
  717MOL0     H96743   8.705   1.012   4.544  0.2842 -1.7090  0.3630
  717MOL0     H96744   8.642   0.833   4.372  0.0219  0.5892  0.6798
  717MOL0     H96745   8.770   0.903   4.263  0.4722 -0.2275  1.0489
  717MOL0     H96746   8.406   0.904   4.357  1.8803 -1.1981  0.0214
  717MOL0     H96747   8.203   1.059   4.298 -2.6501  1.3622 -1.1447
  717MOL0     H96748   8.244   1.231   4.300 -0.9625 -0.9574 -1.6127
  717MOL0     H96749   8.252   1.071   4.058 -0.6831 -0.9025  2.2313
  717MOL0     H96750   8.301   1.232   4.052  1.7836  1.3760  2.4339
  717MOL0     H96751   8.028   1.129   4.151 -2.7634 -1.5133 -4.0924
  717MOL0     H96752   8.058   1.187   3.993  1.5585  2.7937 -0.5751
  717MOL0     H96753   8.116   1.407   4.107 -2.4615 -0.4749 -4.1249
  717MOL0     H96754   8.029   1.334   4.256 -2.0087  0.5725  0.8989
  717MOL0     H96755   7.858   1.218   4.289 -1.7064 -3.1783  0.5042
  717MOL0     H96756   7.701   1.200   4.471  2.4318 -1.3471 -2.1611
  717MOL0     H96757   7.536   1.152   4.430  0.6023  0.3502  0.1229
  717MOL0     H96758   7.668   1.052   4.379  2.1859 -0.5039  2.7988
  717MOL0     H96759   7.156   1.469   4.004  0.4564 -0.2564  0.5127
  717MOL0     H96760   6.916   1.484   4.016 -1.2638 -1.5619  0.2656
  717MOL0     H96761   6.666   1.434   4.034  0.1069 -0.0059 -0.7801
  717MOL0     H96762   6.713   1.265   4.031  0.4334  0.0173  0.0160
  717MOL0     H96763   6.551   1.220   4.219 -2.1725  0.6214  0.9731
  717MOL0     H96764   6.531   1.385   4.252  3.1715 -0.3660  2.4888
  717MOL0     H96765   6.454   1.250   3.996  1.8787  0.5202 -1.0765
  717MOL0     H96766   6.418   1.419   4.029  0.6073  0.2257  0.7945
  717MOL0     H96767   6.292   1.178   4.176  0.6029 -0.4919  0.7370
  717MOL0     H96768   6.264   1.340   4.227 -0.2447 -0.2346  0.6939
  717MOL0     H96769   6.191   1.199   3.963  1.3590 -2.1293  2.0952
  717MOL0     H96770   6.175   1.374   3.974  3.1942 -1.0383 -1.3326
  717MOL0     H96771   5.971   1.273   4.003  0.8976  0.3513 -0.5174
  717MOL0     H96772   6.014   1.170   4.130  1.3223 -0.1400  0.3923
  717MOL0     H96773   5.995   1.483   4.147 -1.1214  1.1752  2.1166
  717MOL0     H96774   6.061   1.384   4.267 -0.0784 -0.3556  0.2445
  717MOL0     H96775   5.819   1.419   4.301  2.1557  0.8370 -0.4675
  717MOL0     H96776   5.836   1.239   4.276 -1.6387  0.9168  0.9025
  717MOL0     H96777   6.920   1.295   4.394 -2.0184 -0.8515 -1.5431
  717MOL0     H96778   7.160   1.296   4.391  0.0213 -1.5423  0.1296
  717MOL0     H96779   7.504   1.402   4.010  2.2885  2.6426 -1.1591
  717MOL0     H96780   7.722   1.472   3.971  2.0344 -0.4620  0.2149
  717MOL0     H96781   9.673   1.188   4.369  0.2830 -0.6556 -1.1942
  717MOL0     H96782   9.919   1.229   4.292 -0.4295  1.7227  1.4604
  717MOL0     H96783  10.150   1.740   4.031 -1.5784 -0.9844 -0.3863
  717MOL0     H96784  10.387   1.796   4.065  2.5129 -0.2203  0.6114
  717MOL0     H96785  10.608   1.797   4.037 -2.4330 -0.3404  1.5206
  717MOL0     H96786  10.575   1.819   4.209 -1.2972 -2.0419  0.9669
  717MOL0     H96787  10.792   1.723   4.283 -1.3075  1.1757  1.3324
  717MOL0     H96788  10.821   1.865   4.200 -0.9372 -0.1186 -1.0248
  717MOL0     H96789  10.822   1.672   3.982 -1.1169 -1.7259  0.1783
  717MOL0     H96790  10.884   1.594   4.131 -0.5490 -1.5093 -2.2238
  717MOL0     H96791  11.011   1.841   4.002  1.3322 -0.8850 -2.5280
  717MOL0     H96792  11.067   1.670   4.001 -0.0312 -0.5084  0.9061
  717MOL0     H96793  11.234   1.833   4.343 -1.0167  0.8879  0.3935
  717MOL0     H96794  10.463   1.395   4.209  1.1571  1.6614  0.8383
  717MOL0     H96795  10.235   1.342   4.181  0.3487 -0.6738  1.5123
  718MOL0     O96796   8.200   3.420   3.505 -0.0720 -0.9281 -0.3442
  718MOL0     C96797   8.197   3.522   3.571 -0.2957 -0.5497 -0.0526
  718MOL0     O96798   8.109   3.619   3.563  0.6176  0.0887  0.3806
  718MOL0     C96799   8.002   3.598   3.478 -0.8286  0.4697  0.8892
  718MOL0     C96800   7.877   3.587   3.537 -0.0825 -1.2903 -0.1560
  718MOL0     C96801   7.762   3.581   3.450 -0.5051 -0.0409 -0.2596
  718MOL0     C96802   7.777   3.574   3.311  0.8904 -0.4534  0.1072
  718MOL0     O96803   7.658   3.560   3.235  0.5544 -0.1410  0.1924
  718MOL0     C96804   7.654   3.528   3.098  0.4969  0.6037  0.3090
  718MOL0     C96805   7.502   3.501   3.070  0.3722 -0.4138  0.2241
  718MOL0     C96806   7.475   3.430   2.940  0.3280  0.1293 -0.0268
  718MOL0     C96807   7.340   3.473   2.874 -0.1436  0.1949  0.1933
  718MOL0     C96808   7.221   3.389   2.932  0.2123  0.1173 -0.1992
  718MOL0     C96809   7.083   3.425   2.860 -0.8529 -0.2977  0.4218
  718MOL0     C96810   6.953   3.400   2.927  0.7100  0.2469 -0.0852
  718MOL0     C96811   6.954   3.257   2.993  0.1864  0.3423  0.8928
  718MOL0     N96812   6.825   3.221   3.059  0.2149 -0.8324  0.4195
  718MOL0     C96813   6.699   3.275   3.021  0.1940 -0.1065  0.5500
  718MOL0     C96814   6.612   3.254   3.126  0.2134 -0.3838 -0.4783
  718MOL0     C96815   6.472   3.303   3.141  1.3298 -0.3124  0.7599
  718MOL0     C96816   6.380   3.226   3.040  1.1198  0.4675 -0.0877
  718MOL0     C96817   6.233   3.266   3.047  0.7343 -0.2101 -0.6172
  718MOL0     C96818   6.180   3.245   3.195  0.4992 -0.0311  0.7003
  718MOL0     O96819   6.038   3.263   3.205  0.5141 -0.1275 -0.1901
  718MOL0     C96820   5.949   3.179   3.145  0.1827  0.2311 -0.4171
  718MOL0     C96821   5.818   3.218   3.133  0.6291  0.2387  0.2323
  718MOL0     C96822   5.724   3.151   3.060  0.2375 -0.0320 -0.0714
  718MOL0     C96823   5.593   3.213   3.047 -0.5473  0.2295  0.2023
  718MOL0     C96824   5.751   3.021   3.014  0.4023 -0.0051 -0.3284
  718MOL0     C96825   5.653   2.914   2.963  0.5869 -0.0972 -0.7672
  718MOL0     O96826   5.698   2.809   2.895  0.6178 -1.0031  0.3295
  718MOL0     C96827   5.654   2.769   2.769  0.4314  0.5178 -0.7223
  718MOL0     C96828   5.523   2.793   2.716 -0.5849 -0.1500 -1.1632
  718MOL0     C96829   5.487   2.733   2.595  0.5551 -0.5452  0.4483
  718MOL0     C96830   5.568   2.649   2.535  0.4219 -0.3115 -0.4700
  718MOL0     O96831   5.517   2.598   2.419  0.0211  0.3910  0.0056
  718MOL0     C96832   5.563   2.482   2.353  0.1817 -0.5441  0.3583
  718MOL0     C96833   5.531   2.358   2.435 -0.1598  0.2076  0.3558
  718MOL0     C96834   5.582   2.227   2.369  0.5575 -1.0248  0.1167
  718MOL0     C96835   5.690   2.173   2.456 -0.1521 -0.1699 -0.1866
  718MOL0     C96836   5.743   2.036   2.401 -0.0764 -0.3267 -0.3334
  718MOL0     C96837   5.831   2.051   2.281 -0.1391  0.1979  0.8474
  718MOL0     C96838   5.898   1.917   2.243  0.5492  0.0881 -0.1294
  718MOL0     C96839   5.943   1.922   2.094  0.1310  1.0078  0.4725
  718MOL0    Cl96840   5.808   1.912   1.976 -0.0455 -0.3374 -0.3890
  718MOL0     C96841   5.699   2.619   2.590 -0.0798 -0.3681  0.1044
  718MOL0     C96842   5.743   2.683   2.704 -1.1091  0.3825  1.3844
  718MOL0     O96843   5.538   2.938   2.991 -0.2295 -0.2871  0.3707
  718MOL0     C96844   5.882   2.975   3.036  0.5406  0.1984 -0.4655
  718MOL0     C96845   5.982   3.053   3.090  0.1722  0.1998  0.7002
  718MOL0     N96846   6.688   3.173   3.213  1.1015  0.0129  0.1922
  718MOL0     N96847   6.811   3.166   3.176 -0.0058  0.2896 -0.1177
  718MOL0     C96848   7.902   3.589   3.257  0.3438 -0.9615  0.0348
  718MOL0     C96849   8.013   3.592   3.335 -0.6140  0.6097 -0.3733
  718MOL0     C96850   8.303   3.539   3.673  0.4549  0.0320 -0.3574
  718MOL0     C96851   8.392   3.435   3.708 -0.2485 -0.1671  0.3095
  718MOL0     C96852   8.500   3.462   3.798 -0.4458  0.1890  0.3284
  718MOL0     C96853   8.515   3.584   3.855  0.0736 -1.0640 -0.3565
  718MOL0     O96854   8.627   3.610   3.932  0.3686 -0.2586 -0.5583
  718MOL0     C96855   8.622   3.568   4.070  0.4823 -0.1529  0.4616
  718MOL0     C96856   8.516   3.635   4.150 -0.2553  0.2202 -0.0434
  718MOL0     C96857   8.539   3.790   4.164 -0.1361 -0.2698  0.1265
  718MOL0     C96858   8.439   3.868   4.237  0.0258 -0.6049  0.2334
  718MOL0     C96859   8.304   3.846   4.182  0.9929  0.0537  0.8398
  718MOL0     C96860   8.198   3.859   4.120 -0.1931  0.4980  0.3765
  718MOL0     C96861   8.428   3.690   3.822  0.3139  0.0497  0.9882
  718MOL0     C96862   8.324   3.668   3.728  0.3765  0.7769  0.0953
  718MOL0     H96863   7.864   3.590   3.644  2.7704  1.8126  0.2782
  718MOL0     H96864   7.661   3.565   3.489 -0.6495  2.2670  0.4711
  718MOL0     H96865   7.682   3.617   3.041 -0.1600  0.1273 -0.7746
  718MOL0     H96866   7.715   3.441   3.073 -2.7230 -2.0742  1.1596
  718MOL0     H96867   7.449   3.452   3.153  1.6151 -0.0241  1.2905
  718MOL0     H96868   7.454   3.599   3.068  2.1349  0.4746 -0.6019
  718MOL0     H96869   7.555   3.447   2.867 -0.5495 -1.3121 -1.3900
  718MOL0     H96870   7.453   3.323   2.946 -2.8707  0.1943 -4.9824
  718MOL0     H96871   7.321   3.580   2.883  0.8801  0.4793 -0.8231
  718MOL0     H96872   7.359   3.449   2.769  1.0586  2.1288 -0.0792
  718MOL0     H96873   7.242   3.284   2.912 -1.3524 -0.4813  1.0843
  718MOL0     H96874   7.216   3.397   3.041 -0.1059 -0.8781 -0.1346
  718MOL0     H96875   7.082   3.527   2.823  3.6072 -0.1721  0.0791
  718MOL0     H96876   7.089   3.370   2.766 -1.2224 -0.9053  0.7396
  718MOL0     H96877   6.944   3.476   3.005 -0.9884  0.7610 -0.7227
  718MOL0     H96878   6.874   3.410   2.852 -0.1251  2.2242  0.9704
  718MOL0     H96879   7.028   3.235   3.070 -1.3902 -2.9642  1.6702
  718MOL0     H96880   6.974   3.183   2.915 -0.4929 -0.9019  1.8661
  718MOL0     H96881   6.676   3.323   2.926 -1.0083 -0.1624  0.7959
  718MOL0     H96882   6.444   3.293   3.247  0.4077 -0.3511  0.5215
  718MOL0     H96883   6.474   3.408   3.109 -0.5379 -1.0958 -2.3217
  718MOL0     H96884   6.368   3.122   3.073  0.2338  0.5521 -0.1270
  718MOL0     H96885   6.426   3.241   2.942  2.9078 -0.0431  0.6392
  718MOL0     H96886   6.171   3.211   2.976 -2.1490  1.8074  0.1462
  718MOL0     H96887   6.212   3.371   3.024 -2.6536  0.1853  3.1293
  718MOL0     H96888   6.229   3.308   3.269  0.8463 -0.0810  0.5170
  718MOL0     H96889   6.193   3.143   3.231  0.1688 -0.2714  0.1580
  718MOL0     H96890   5.798   3.313   3.181  1.1768  0.0864  0.7760
  718MOL0     H96891   5.582   3.319   3.072 -0.1778  0.5800 -1.0075
  718MOL0     H96892   5.580   3.224   2.939  2.1005  0.2640 -0.1843
  718MOL0     H96893   5.517   3.157   3.101  0.1240 -1.7281 -0.8019
  718MOL0     H96894   5.461   2.862   2.773  1.3515  2.3723 -1.9447
  718MOL0     H96895   5.394   2.767   2.552 -0.2437 -1.2619  1.5526
  718MOL0     H96896   5.531   2.466   2.250 -0.9475 -3.1251  1.0243
  718MOL0     H96897   5.672   2.489   2.342  0.0773  3.0853  0.3553
  718MOL0     H96898   5.580   2.367   2.533 -0.8070  1.6072  0.5711
  718MOL0     H96899   5.424   2.348   2.453 -0.4302  0.4041 -1.0530
  718MOL0     H96900   5.625   2.234   2.269 -0.0619 -0.4335 -0.1149
  718MOL0     H96901   5.497   2.158   2.366 -0.3349 -0.2887  3.4793
  718MOL0     H96902   5.766   2.248   2.479 -1.5482  0.2143  3.8208
  718MOL0     H96903   5.652   2.150   2.556 -0.7564  0.7433 -0.1959
  718MOL0     H96904   5.659   1.969   2.383 -2.0799  2.1973 -1.0228
  718MOL0     H96905   5.810   1.995   2.477 -1.7687 -1.4145  0.6414
  718MOL0     H96906   5.770   2.084   2.196  1.7598  4.4337  0.8930
  718MOL0     H96907   5.910   2.124   2.299 -0.8676  0.8048  1.6634
  718MOL0     H96908   5.832   1.833   2.266  0.0188  0.3579 -0.6353
  718MOL0     H96909   5.994   1.893   2.291  2.0997  0.0769 -3.0032
  718MOL0     H96910   6.012   1.837   2.096  0.0856  0.9761  0.6880
  718MOL0     H96911   6.002   2.011   2.069  1.4515  0.1704  0.4522
  718MOL0     H96912   5.769   2.556   2.536  0.2383 -0.3532  0.4948
  718MOL0     H96913   5.845   2.665   2.735  0.1255 -0.0772 -2.3898
  718MOL0     H96914   5.904   2.870   3.023 -2.2573 -0.4378 -0.6114
  718MOL0     H96915   6.084   3.016   3.094  0.6861  0.7257 -3.4520
  718MOL0     H96916   7.913   3.593   3.149 -1.4382 -1.5089 -0.1946
  718MOL0     H96917   8.115   3.598   3.299 -0.8233 -0.0588 -1.1130
  718MOL0     H96918   8.381   3.339   3.660 -1.0829  1.8011 -3.8426
  718MOL0     H96919   8.565   3.378   3.821 -0.2611 -0.3612 -1.9436
  718MOL0     H96920   8.614   3.460   4.086 -1.3243  0.2301  2.6481
  718MOL0     H96921   8.718   3.599   4.113 -0.3022  1.4502  1.1175
  718MOL0     H96922   8.507   3.602   4.254  3.8398 -1.0823  0.0491
  718MOL0     H96923   8.416   3.613   4.110 -0.2696  1.7105 -0.8933
  718MOL0     H96924   8.542   3.818   4.058 -0.8275  0.0710  0.1920
  718MOL0     H96925   8.638   3.810   4.206 -0.0959  0.4863 -0.3177
  718MOL0     H96926   8.469   3.973   4.229 -0.5405 -0.3625  1.1415
  718MOL0     H96927   8.446   3.850   4.345  1.5916 -0.1388  0.2311
  718MOL0     H96928   8.105   3.844   4.071 -1.4785  0.6554  2.6287
  718MOL0     H96929   8.445   3.788   3.865 -1.6599  0.2862  1.3194
  718MOL0     H96930   8.269   3.757   3.702  0.0591  0.4309 -0.4352
  719MOL0     O96931  10.453   3.750  11.253 -0.0797 -0.3038 -0.1459
  719MOL0     C96932  10.435   3.868  11.267 -0.4955 -0.1772 -0.1877
  719MOL0     O96933  10.331   3.939  11.231 -0.0827  0.2149 -0.0897
  719MOL0     C96934  10.225   3.903  11.153  0.3389  0.1549  0.9631
  719MOL0     C96935  10.187   3.775  11.110  0.5886  0.1751 -0.2982
  719MOL0     C96936  10.074   3.749  11.039  0.1689 -0.0556  0.5153
  719MOL0     C96937   9.992   3.853  11.000 -0.0705 -0.4072 -0.3473
  719MOL0     O96938   9.874   3.851  10.932 -0.4448 -0.7539  0.2470
  719MOL0     C96939   9.821   3.720  10.904 -0.2743  0.2082 -0.0338
  719MOL0     C96940   9.685   3.734  10.849  0.3902  0.1464  0.7199
  719MOL0     C96941   9.643   3.595  10.792 -0.0989  0.1833  0.3499
  719MOL0     C96942   9.489   3.600  10.750  1.0633 -0.1895  0.0427
  719MOL0     C96943   9.400   3.607  10.879 -0.1113  1.1490 -0.1674
  719MOL0     C96944   9.264   3.545  10.849  0.4636  1.5475  0.6447
  719MOL0     C96945   9.262   3.388  10.842  0.9034 -0.1836  0.4410
  719MOL0     C96946   9.129   3.336  10.770  0.0587  0.4350 -0.3974
  719MOL0     N96947   9.120   3.186  10.793  0.1072  0.0020  0.9386
  719MOL0     C96948   9.044   3.127  10.891  0.2326  0.1366  0.2495
  719MOL0     C96949   9.062   2.990  10.886  0.4652  0.0192  0.1725
  719MOL0     C96950   8.988   2.881  10.945  0.0833 -1.0412 -0.8189
  719MOL0     C96951   8.854   2.887  10.884 -0.2648  0.3005 -0.3352
  719MOL0     C96952   8.767   2.777  10.951  0.8182 -0.0574  0.4681
  719MOL0     C96953   8.617   2.788  10.904  0.1072 -0.3942  0.0052
  719MOL0     O96954   8.548   2.911  10.939 -0.4497 -0.4714  0.1100
  719MOL0     C96955   8.412   2.926  10.934 -0.1675 -0.1559 -0.0131
  719MOL0     C96956   8.352   3.021  11.026  0.5763 -0.4897  0.3017
  719MOL0     C96957   8.213   3.036  11.047 -0.0491  1.0237 -0.4053
  719MOL0     C96958   8.160   3.138  11.154 -0.8637 -0.4290  0.6020
  719MOL0     C96959   8.131   2.956  10.965  0.0028  0.5931 -0.0265
  719MOL0     C96960   7.984   2.954  10.987  0.2151  0.5755 -0.5614
  719MOL0     O96961   7.919   2.897  10.884  0.3602 -0.9887 -0.0082
  719MOL0     C96962   7.785   2.888  10.874  0.1461  0.4724  0.0976
  719MOL0     C96963   7.726   2.777  10.812 -0.4168  0.0384 -0.2274
  719MOL0     C96964   7.580   2.761  10.800 -0.0502 -0.1751 -0.0841
  719MOL0     C96965   7.493   2.846  10.867  0.5466 -0.4019  1.1429
  719MOL0     O96966   7.358   2.831  10.839 -0.1175 -0.0283 -0.4760
  719MOL0     C96967   7.276   2.920  10.918 -0.0529 -0.0442 -0.2662
  719MOL0     C96968   7.141   2.874  10.884 -0.1841 -0.7464 -0.2943
  719MOL0     C96969   7.043   2.936  10.976 -0.7871 -0.8794  0.0768
  719MOL0     C96970   7.002   3.085  10.934 -0.3623 -0.0107  0.3269
  719MOL0     C96971   6.896   3.141  11.035 -0.2423 -0.1751  0.5221
  719MOL0     C96972   6.850   3.290  11.016  0.2222  0.6407 -0.0268
  719MOL0     C96973   6.729   3.325  11.114  0.0169 -0.7108 -0.2607
  719MOL0     C96974   6.626   3.427  11.063 -0.8090 -0.4489  0.2417
  719MOL0    Cl96975   6.530   3.355  10.934 -0.3641 -0.1587 -0.5152
  719MOL0     C96976   7.547   2.961  10.936 -0.1412  0.8035 -0.4043
  719MOL0     C96977   7.693   2.978  10.934  0.0769  0.2296 -0.8387
  719MOL0     O96978   7.933   2.975  11.095  0.0310 -0.2324 -0.8571
  719MOL0     C96979   8.183   2.862  10.864  0.0847  0.6057 -0.6577
  719MOL0     C96980   8.328   2.845  10.857  0.1170  0.0819 -0.0244
  719MOL0     N96981   9.161   2.977  10.796 -0.0872 -0.1295 -0.1999
  719MOL0     N96982   9.185   3.089  10.731  0.4433 -0.9399 -0.5895
  719MOL0     C96983  10.034   3.981  11.042  0.4246 -0.3477 -0.0503
  719MOL0     C96984  10.139   4.006  11.126 -0.1500  0.6843 -0.1423
  719MOL0     C96985  10.541   3.943  11.348 -0.4646  0.2030  0.4502
  719MOL0     C96986  10.518   4.074  11.398 -0.4089  0.2673 -0.0117
  719MOL0     C96987  10.611   4.145  11.477  0.5447 -0.2160  0.4110
  719MOL0     C96988  10.727   4.084  11.517 -0.2484  1.3191 -0.2286
  719MOL0     O96989  10.807   4.164  11.594  0.0109  0.5553  0.2469
  719MOL0     C96990  10.943   4.133  11.634 -0.5398 -0.3352  1.1786
  719MOL0     C96991  11.056   4.238  11.606 -0.0361 -0.4516  0.8679
  719MOL0     C96992  11.195   4.179  11.628 -0.4143  0.0988  0.3274
  719MOL0     C96993  11.302   4.290  11.635  0.1464 -0.2433  1.1241
  719MOL0     C96994  11.323   4.354  11.501  0.1609 -0.0920 -0.0433
  719MOL0     C96995  11.349   4.406  11.396 -0.2029  0.8277  0.4646
  719MOL0     C96996  10.753   3.950  11.472  0.0332 -0.0092  0.4604
  719MOL0     C96997  10.665   3.891  11.384 -0.3169  1.0398 -0.5039
  719MOL0     H96998  10.257   3.698  11.140 -0.6022 -0.7299  0.2304
  719MOL0     H96999  10.055   3.646  11.009 -0.7191  0.7030 -1.7654
  719MOL0     H97000   9.885   3.667  10.833 -0.9885 -2.1264  0.9671
  719MOL0     H97001   9.806   3.663  10.997 -3.7999 -0.8413 -1.1053
  719MOL0     H97002   9.615   3.761  10.928 -0.1254 -1.7466  0.9716
  719MOL0     H97003   9.681   3.808  10.769 -0.5619 -1.3243 -0.6556
  719MOL0     H97004   9.699   3.552  10.708 -0.9740 -0.5281  0.1122
  719MOL0     H97005   9.643   3.524  10.875 -0.1162  3.8670  3.8226
  719MOL0     H97006   9.463   3.683  10.684  0.2244 -1.5127 -1.3544
  719MOL0     H97007   9.472   3.505  10.697 -2.0045 -1.1734  2.5077
  719MOL0     H97008   9.434   3.543  10.961 -3.5350 -0.7178 -0.0497
  719MOL0     H97009   9.389   3.709  10.916 -1.3958  0.7236  0.6794
  719MOL0     H97010   9.202   3.576  10.933 -2.0523 -0.7164 -0.2562
  719MOL0     H97011   9.230   3.589  10.755 -1.9989  0.8488  1.1525
  719MOL0     H97012   9.346   3.356  10.781 -0.4405 -0.9638 -1.0905
  719MOL0     H97013   9.254   3.340  10.939  0.2871 -0.5752  0.2015
  719MOL0     H97014   9.142   3.355  10.663  4.5000 -1.3668 -0.4235
  719MOL0     H97015   9.048   3.398  10.809 -0.8725 -1.0933  0.2116
  719MOL0     H97016   8.962   3.176  10.943  2.5581  1.4128  2.9980
  719MOL0     H97017   9.048   2.794  10.916  1.1691  0.6600 -4.2544
  719MOL0     H97018   8.979   2.886  11.053 -0.6123 -3.0794 -0.7451
  719MOL0     H97019   8.850   2.875  10.775  2.2152  1.1689 -0.6110
  719MOL0     H97020   8.814   2.985  10.911 -3.6258 -0.7662 -1.0045
  719MOL0     H97021   8.763   2.801  11.058 -0.2854  0.1977  0.3803
  719MOL0     H97022   8.801   2.674  10.936 -0.7386 -0.6574  0.9013
  719MOL0     H97023   8.563   2.705  10.949 -0.4645  0.6360  1.2749
  719MOL0     H97024   8.606   2.784  10.795 -2.0856  1.3748  0.0825
  719MOL0     H97025   8.426   3.079  11.082  0.2275  0.9140 -0.6301
  719MOL0     H97026   8.151   3.087  11.251 -1.9705 -1.2623  0.0811
  719MOL0     H97027   8.242   3.209  11.164 -1.0379 -0.1400  0.0011
  719MOL0     H97028   8.071   3.196  11.127 -0.9242 -0.6016  0.4318
  719MOL0     H97029   7.803   2.706  10.786  2.4010  1.8229  2.5484
  719MOL0     H97030   7.543   2.683  10.735  0.3265  0.0727 -0.5990
  719MOL0     H97031   7.291   2.909  11.026 -1.2841 -0.9519 -0.1786
  719MOL0     H97032   7.272   3.024  10.883 -0.0403  1.5574  3.8562
  719MOL0     H97033   7.115   2.909  10.784  1.4685  1.2483 -0.0971
  719MOL0     H97034   7.130   2.765  10.886 -0.2967 -0.7329 -0.0116
  719MOL0     H97035   7.075   2.937  11.081  0.3038 -0.5945 -0.2497
  719MOL0     H97036   6.953   2.874  10.970 -0.6097 -1.0846 -0.4799
  719MOL0     H97037   7.086   3.155  10.937  0.6703 -1.2033  0.3124
  719MOL0     H97038   6.972   3.083  10.830 -1.3010  0.6843  0.5796
  719MOL0     H97039   6.934   3.127  11.137 -0.0315  1.7566  0.7595
  719MOL0     H97040   6.806   3.080  11.029 -0.0185 -0.3893 -1.2144
  719MOL0     H97041   6.939   3.354  11.020  1.7497 -1.4267  0.4064
  719MOL0     H97042   6.810   3.288  10.914 -1.0615 -1.9813  0.4423
  719MOL0     H97043   6.782   3.378  11.194  1.5042 -1.2649 -0.8495
  719MOL0     H97044   6.679   3.233  11.145  0.9134 -1.3943 -0.7960
  719MOL0     H97045   6.677   3.518  11.030 -1.1635  0.0777  1.1054
  719MOL0     H97046   6.557   3.441  11.148 -0.1299 -1.1670  0.9336
  719MOL0     H97047   7.490   3.038  10.986  1.5291  2.0188 -0.3134
  719MOL0     H97048   7.729   3.065  10.988 -0.1453 -0.4469  0.4319
  719MOL0     H97049   8.118   2.801  10.802  0.6871  0.3996 -1.0949
  719MOL0     H97050   8.363   2.770  10.787  0.2092  1.0755 -1.0780
  719MOL0     H97051   9.976   4.067  11.012  0.2186 -0.3812  0.2519
  719MOL0     H97052  10.168   4.107  11.154  3.1298 -0.6759  1.8941
  719MOL0     H97053  10.435   4.132  11.357  1.8821  2.7403 -1.4312
  719MOL0     H97054  10.597   4.246  11.515 -3.1484 -0.2227 -0.5129
  719MOL0     H97055  10.947   4.108  11.740  0.0073  0.8129  1.4439
  719MOL0     H97056  10.977   4.046  11.578 -2.2705 -0.9578  1.0385
  719MOL0     H97057  11.030   4.322  11.672 -0.8266 -0.7785  0.9793
  719MOL0     H97058  11.055   4.273  11.503  1.2604  0.4771  1.1533
  719MOL0     H97059  11.225   4.114  11.545 -1.7154  0.0545 -0.1331
  719MOL0     H97060  11.183   4.125  11.723 -1.7847  2.5850  1.6638
  719MOL0     H97061  11.387   4.231  11.670 -0.1148 -0.3416  1.6192
  719MOL0     H97062  11.284   4.370  11.708 -3.1903  0.3887 -0.2124
  719MOL0     H97063  11.374   4.460  11.307 -4.3749  4.3488  1.0922
  719MOL0     H97064  10.847   3.908  11.504  2.1476  3.7477 -0.2258
  719MOL0     H97065  10.694   3.788  11.363 -1.3517  0.7943 -0.8088
  720MOL0     O97066   7.184   1.983   9.804  0.7040  0.9291 -0.2851
  720MOL0     C97067   7.255   1.986   9.702  0.5014 -0.6521 -0.0941
  720MOL0     O97068   7.221   1.946   9.577  0.6502 -0.2916 -0.0571
  720MOL0     C97069   7.088   1.905   9.554 -0.6800 -0.3947  0.3963
  720MOL0     C97070   6.973   1.974   9.589 -0.7017 -0.3918  0.3992
  720MOL0     C97071   6.845   1.924   9.559 -0.1760 -0.1780 -0.7059
  720MOL0     C97072   6.827   1.800   9.496 -0.6684 -0.1626 -0.2194
  720MOL0     O97073   6.710   1.741   9.448 -0.3419  0.3550  0.0685
  720MOL0     C97074   6.592   1.824   9.467 -0.2727 -0.6382  0.9090
  720MOL0     C97075   6.473   1.756   9.407  0.3292 -0.2648  0.6815
  720MOL0     C97076   6.443   1.618   9.473  1.2270  0.6403  0.0096
  720MOL0     C97077   6.303   1.588   9.409 -0.4828  0.8089 -0.0802
  720MOL0     C97078   6.246   1.471   9.490 -0.7452  0.2897  0.1158
  720MOL0     C97079   6.097   1.436   9.455  0.6340 -1.3167 -0.5605
  720MOL0     C97080   6.080   1.380   9.313 -0.0201  0.0077 -0.0059
  720MOL0     C97081   5.932   1.371   9.288  0.1614 -0.1830 -0.2539
  720MOL0     N97082   5.854   1.497   9.293  0.8099 -0.0614 -0.5179
  720MOL0     C97083   5.714   1.503   9.293 -0.0214 -0.4252  0.0740
  720MOL0     C97084   5.683   1.635   9.278  0.7653  0.2065 -0.2624
  720MOL0     C97085   5.539   1.688   9.266  0.0015 -0.0604  0.6366
  720MOL0     C97086   5.477   1.625   9.142  0.5348 -0.0600  0.0157
  720MOL0     C97087   5.377   1.714   9.071  0.3892  0.8751  0.5941
  720MOL0     C97088   5.231   1.699   9.125  0.6997  0.0715 -0.0089
  720MOL0     O97089   5.169   1.569   9.089  0.1802 -0.1160  0.2152
  720MOL0     C97090   5.039   1.562   9.054  0.0404 -0.5817 -0.6742
  720MOL0     C97091   4.939   1.662   9.076 -0.2619 -0.3004 -0.0566
  720MOL0     C97092   4.805   1.642   9.040  0.0705  0.1294 -0.3738
  720MOL0     C97093   4.694   1.738   9.091 -0.5269 -0.4136  0.2346
  720MOL0     C97094   4.764   1.523   8.965  0.3872  0.2045  0.2735
  720MOL0     C97095   4.622   1.499   8.927 -0.2225 -0.9050 -1.0684
  720MOL0     O97096   4.593   1.487   8.801  0.6395 -0.3501 -0.7382
  720MOL0     C97097   4.472   1.430   8.754  0.0796  0.4128 -0.2537
  720MOL0     C97098   4.425   1.474   8.625 -0.3649 -0.1526 -0.3628
  720MOL0     C97099   4.300   1.433   8.574  0.2309  0.0617 -0.5542
  720MOL0     C97100   4.220   1.344   8.645  0.4249  0.0373  0.0766
  720MOL0     O97101   4.098   1.302   8.599  0.1807  0.3774 -0.1081
  720MOL0     C97102   3.979   1.329   8.679 -0.0463 -0.1823  0.2929
  720MOL0     C97103   3.848   1.313   8.600 -0.2915 -0.2634  0.2838
  720MOL0     C97104   3.852   1.181   8.507 -0.5286 -0.3846  0.5794
  720MOL0     C97105   3.714   1.114   8.501 -0.2183  0.2513 -0.3271
  720MOL0     C97106   3.624   1.200   8.408 -0.4214 -0.1468 -0.5132
  720MOL0     C97107   3.493   1.127   8.383 -0.1223  0.9977 -1.8017
  720MOL0     C97108   3.414   1.216   8.280 -0.4731 -0.1537 -0.1815
  720MOL0     C97109   3.268   1.166   8.288 -0.3849 -0.3760 -0.3867
  720MOL0    Cl97110   3.256   0.994   8.241  0.2009 -0.2928  0.0796
  720MOL0     C97111   4.265   1.305   8.774  0.3953  0.6096  0.2025
  720MOL0     C97112   4.387   1.340   8.824 -0.2047 -0.0910 -0.2518
  720MOL0     O97113   4.543   1.488   9.028  0.3877 -0.3131 -0.1278
  720MOL0     C97114   4.861   1.419   8.949 -0.2801 -0.7941  0.4340
  720MOL0     C97115   4.997   1.438   8.996  0.3870 -0.4286  0.3895
  720MOL0     N97116   5.795   1.708   9.268 -0.8135 -0.1868  0.0114
  720MOL0     N97117   5.897   1.625   9.278 -0.1352 -0.8098 -0.0080
  720MOL0     C97118   6.945   1.735   9.455 -0.0082 -0.0088  0.7522
  720MOL0     C97119   7.077   1.782   9.490  0.5688  0.9476  0.2804
  720MOL0     C97120   7.399   2.019   9.717 -0.7688 -0.3679  0.4431
  720MOL0     C97121   7.485   2.029   9.600 -0.4164  0.1031  0.5181
  720MOL0     C97122   7.617   2.074   9.602 -0.1850 -0.1899  0.5574
  720MOL0     C97123   7.670   2.119   9.720 -0.9338  0.6576 -0.0231
  720MOL0     O97124   7.794   2.174   9.708  0.7539 -0.3491 -0.5101
  720MOL0     C97125   7.867   2.202   9.834  0.6563  0.6162 -0.1175
  720MOL0     C97126   7.996   2.277   9.823  0.5119 -0.4836 -0.0841
  720MOL0     C97127   7.999   2.402   9.733 -0.0506 -0.6564 -0.0885
  720MOL0     C97128   8.142   2.465   9.709  0.3489 -0.3303 -0.2849
  720MOL0     C97129   8.224   2.380   9.633 -0.8432 -1.0966  0.0841
  720MOL0     C97130   8.306   2.323   9.560  0.6839  0.7911  0.3952
  720MOL0     C97131   7.597   2.102   9.838  0.4999  0.3950  0.0390
  720MOL0     C97132   7.463   2.060   9.841 -0.1511 -0.6747 -0.3537
  720MOL0     H97133   6.987   2.069   9.641  0.3816 -0.4923  0.3240
  720MOL0     H97134   6.754   1.975   9.586  0.0852  0.7957 -1.5983
  720MOL0     H97135   6.575   1.833   9.575 -2.7675 -0.8342  0.5987
  720MOL0     H97136   6.596   1.924   9.423 -2.1791 -0.6203  0.6908
  720MOL0     H97137   6.389   1.824   9.427  0.3517 -1.2920  5.3406
  720MOL0     H97138   6.500   1.745   9.302  0.0963  1.6659  0.3824
  720MOL0     H97139   6.512   1.539   9.443  1.6078  0.9946 -0.0694
  720MOL0     H97140   6.436   1.624   9.582 -0.8348  0.8550 -0.0932
  720MOL0     H97141   6.230   1.669   9.414 -2.8845 -0.8654 -3.6433
  720MOL0     H97142   6.311   1.564   9.302  1.5672 -1.1265  0.4214
  720MOL0     H97143   6.313   1.387   9.471  1.1251  1.3863  1.5552
  720MOL0     H97144   6.259   1.491   9.597  2.3379  0.8299 -0.2717
  720MOL0     H97145   6.048   1.362   9.519 -1.5820  0.5108 -0.0260
  720MOL0     H97146   6.033   1.525   9.462 -0.8754 -2.4280  0.3691
  720MOL0     H97147   6.134   1.429   9.232  1.8349 -1.5567  0.2251
  720MOL0     H97148   6.127   1.281   9.306  3.1582  1.4392 -0.5558
  720MOL0     H97149   5.889   1.309   9.367 -0.4262 -0.2394 -0.6108
  720MOL0     H97150   5.923   1.337   9.185  1.9834 -1.5091 -0.0133
  720MOL0     H97151   5.642   1.421   9.297 -0.5197  0.0126  0.2541
  720MOL0     H97152   5.474   1.653   9.347 -3.0661 -0.3799 -1.7471
  720MOL0     H97153   5.541   1.797   9.266 -0.6468 -0.0367  1.5021
  720MOL0     H97154   5.428   1.530   9.165  0.8179  0.0125  0.9771
  720MOL0     H97155   5.558   1.612   9.069  1.5666  0.4398  1.0236
  720MOL0     H97156   5.369   1.695   8.964  3.1370  3.5916 -0.2083
  720MOL0     H97157   5.415   1.815   9.084 -1.6291  2.1200 -2.2841
  720MOL0     H97158   5.168   1.774   9.077 -0.2222 -1.1732 -0.8077
  720MOL0     H97159   5.235   1.717   9.233  1.6100 -4.0700  0.8303
  720MOL0     H97160   4.965   1.763   9.106  0.9275 -0.5362 -0.2714
  720MOL0     H97161   4.664   1.711   9.193  0.4176 -0.0772  0.6070
  720MOL0     H97162   4.741   1.836   9.104 -0.4126 -0.3313 -0.7276
  720MOL0     H97163   4.605   1.757   9.030 -0.2214  1.1255  0.2409
  720MOL0     H97164   4.487   1.548   8.576 -0.7716  0.4931  0.0775
  720MOL0     H97165   4.274   1.465   8.474  3.1176  0.9614 -1.1249
  720MOL0     H97166   3.984   1.275   8.774 -2.6920  0.5498  0.9258
  720MOL0     H97167   3.977   1.435   8.706 -1.8421 -0.1076 -0.0273
  720MOL0     H97168   3.764   1.310   8.670 -0.0531  0.3566  0.6053
  720MOL0     H97169   3.836   1.401   8.536 -2.2018  0.1934  1.1867
  720MOL0     H97170   3.923   1.105   8.541  1.0195 -1.1089 -3.6967
  720MOL0     H97171   3.881   1.205   8.405  0.9482  1.1056  1.3019
  720MOL0     H97172   3.723   1.015   8.454 -1.7494 -0.7362  1.3525
  720MOL0     H97173   3.676   1.097   8.601 -0.2436 -1.9173 -0.6675
  720MOL0     H97174   3.666   1.207   8.308 -2.1384 -1.8830 -1.4242
  720MOL0     H97175   3.605   1.295   8.459  2.3118  0.1242  0.1230
  720MOL0     H97176   3.530   1.037   8.333  1.0873  0.4252  0.0237
  720MOL0     H97177   3.427   1.092   8.463  1.5873 -1.0249 -1.1618
  720MOL0     H97178   3.459   1.208   8.181  0.8467  3.5499 -0.0610
  720MOL0     H97179   3.406   1.324   8.296  1.8085  0.0166  0.2378
  720MOL0     H97180   3.208   1.225   8.217 -0.7736 -0.0188  0.2250
  720MOL0     H97181   3.230   1.177   8.390  3.9451  0.4383  1.3294
  720MOL0     H97182   4.208   1.233   8.831 -1.1801 -0.9540 -3.0332
  720MOL0     H97183   4.422   1.307   8.922 -1.0730  0.5479  0.2900
  720MOL0     H97184   4.820   1.327   8.910  0.6577 -1.2862  0.5937
  720MOL0     H97185   5.068   1.361   8.967  0.6246 -0.4659  1.0669
  720MOL0     H97186   6.929   1.639   9.407  0.4317  1.0415 -1.6056
  720MOL0     H97187   7.163   1.719   9.469  1.0131  0.3006  3.4983
  720MOL0     H97188   7.443   2.005   9.503 -1.2918 -1.8410  1.3180
  720MOL0     H97189   7.673   2.085   9.510 -1.2633  0.6614 -0.0317
  720MOL0     H97190   7.808   2.265   9.901 -1.8785  0.2328 -1.8282
  720MOL0     H97191   7.865   2.096   9.863  0.0801 -0.2806 -3.0271
  720MOL0     H97192   8.055   2.195   9.782 -0.4989 -2.4501  2.1726
  720MOL0     H97193   8.027   2.301   9.925  0.1933 -0.1941 -0.0535
  720MOL0     H97194   7.942   2.474   9.791  1.0321  0.2097 -0.0751
  720MOL0     H97195   7.941   2.400   9.640 -0.6444 -1.3833  0.2848
  720MOL0     H97196   8.183   2.498   9.805 -0.0177 -2.1530  0.5356
  720MOL0     H97197   8.125   2.554   9.648 -0.7028 -0.5456 -0.3248
  720MOL0     H97198   8.382   2.280   9.498 -0.2272  0.6088 -0.6169
  720MOL0     H97199   7.643   2.134   9.931  0.5519 -2.3459  1.0594
  720MOL0     H97200   7.406   2.056   9.934 -1.9165  1.7509 -1.2101
  721MOL0     O97201   8.033   5.751   7.059 -0.1291 -0.0206 -0.3160
  721MOL0     C97202   8.039   5.854   6.998 -0.5699  0.6373 -0.3434
  721MOL0     O97203   7.935   5.944   6.983  0.6975  0.0230 -0.0990
  721MOL0     C97204   7.809   5.904   7.024 -0.1034 -0.2231 -0.8320
  721MOL0     C97205   7.762   5.774   6.992 -0.0858 -0.5859 -0.7556
  721MOL0     C97206   7.626   5.736   7.023  0.2671 -0.5289  0.5507
  721MOL0     C97207   7.543   5.833   7.085 -0.2088 -0.2261 -0.0179
  721MOL0     O97208   7.412   5.799   7.126 -0.2066  0.7974  0.1620
  721MOL0     C97209   7.294   5.876   7.081 -0.4562  0.4214 -0.1672
  721MOL0     C97210   7.266   5.838   6.931 -0.7203 -0.1554  0.1511
  721MOL0     C97211   7.159   5.925   6.872 -1.0295  0.4186  0.4510
  721MOL0     C97212   7.117   5.909   6.719  0.0583  0.4853  0.0286
  721MOL0     C97213   7.083   5.762   6.678 -0.2997 -0.2649 -0.3619
  721MOL0     C97214   6.974   5.703   6.763  0.9685  0.0371 -0.4306
  721MOL0     C97215   6.902   5.584   6.706 -0.4912 -1.5395 -0.2612
  721MOL0     C97216   7.004   5.471   6.690 -0.0653 -0.4188 -0.2784
  721MOL0     N97217   6.930   5.356   6.637  0.0544 -0.3255 -0.1868
  721MOL0     C97218   6.829   5.347   6.541  0.0734 -0.8794 -0.3421
  721MOL0     C97219   6.795   5.217   6.532  0.3831 -0.2451  0.0804
  721MOL0     C97220   6.685   5.172   6.441 -0.9001 -0.5471 -0.5102
  721MOL0     C97221   6.554   5.237   6.488  0.3169  0.6744 -0.7838
  721MOL0     C97222   6.467   5.238   6.368 -0.3269 -0.2788  0.3580
  721MOL0     C97223   6.331   5.292   6.406 -0.8990  0.2424  0.2602
  721MOL0     O97224   6.258   5.188   6.467 -0.3754  0.3344  0.1684
  721MOL0     C97225   6.126   5.207   6.438 -0.5957  0.8248 -0.0486
  721MOL0     C97226   6.046   5.235   6.549  0.6571 -0.0888  0.5082
  721MOL0     C97227   5.907   5.259   6.539 -0.3207 -0.1286 -0.3038
  721MOL0     C97228   5.823   5.299   6.662  0.1724  0.2915 -0.6494
  721MOL0     C97229   5.852   5.262   6.413  0.4142  0.0074  0.0016
  721MOL0     C97230   5.709   5.259   6.380  0.5169 -0.5631 -0.0351
  721MOL0     O97231   5.628   5.322   6.466 -0.0276  0.1841 -0.4166
  721MOL0     C97232   5.486   5.315   6.462 -1.1062 -0.3748  0.5127
  721MOL0     C97233   5.410   5.325   6.343  0.6412 -0.1835 -0.2416
  721MOL0     C97234   5.271   5.339   6.360  0.3160  0.1258 -0.3069
  721MOL0     C97235   5.202   5.355   6.485  0.2871  0.0563 -0.3385
  721MOL0     O97236   5.066   5.375   6.495  0.2064  0.7117  0.9468
  721MOL0     C97237   4.988   5.371   6.373  0.1438  0.2345 -0.0185
  721MOL0     C97238   4.849   5.398   6.399 -0.5680  0.1162  0.2337
  721MOL0     C97239   4.837   5.543   6.430 -0.3423  0.0434  0.3119
  721MOL0     C97240   4.702   5.576   6.490 -0.1024  0.7187 -0.3717
  721MOL0     C97241   4.680   5.718   6.540  0.3921 -0.5910 -0.6491
  721MOL0     C97242   4.549   5.740   6.606 -0.2516  0.7195  0.2150
  721MOL0     C97243   4.544   5.885   6.662 -0.9230  0.0715  0.7183
  721MOL0     C97244   4.413   5.907   6.739 -0.6348  0.0715 -0.0455
  721MOL0    Cl97245   4.272   5.884   6.647  0.3307 -0.7217 -0.1545
  721MOL0     C97246   5.284   5.344   6.597 -0.2322 -0.5999 -0.5034
  721MOL0     C97247   5.421   5.327   6.586  0.7781  0.8251  0.2736
  721MOL0     O97248   5.670   5.205   6.278 -0.7500  0.6938 -1.0110
  721MOL0     C97249   5.927   5.240   6.304  0.9284 -0.5759 -0.7471
  721MOL0     C97250   6.066   5.207   6.318 -0.2394 -0.9870  0.0177
  721MOL0     N97251   6.880   5.141   6.604 -1.0878  0.4648  0.1146
  721MOL0     N97252   6.953   5.226   6.669 -0.4532 -0.5694 -0.8589
  721MOL0     C97253   7.601   5.950   7.129 -0.3332 -0.4742 -0.3998
  721MOL0     C97254   7.729   5.988   7.105 -0.1653 -0.8129  0.6631
  721MOL0     C97255   8.169   5.900   6.940 -0.0736  0.6174  0.0153
  721MOL0     C97256   8.191   6.033   6.889 -0.1097 -0.3578 -0.4007
  721MOL0     C97257   8.325   6.074   6.853  0.1024  0.1826 -0.0334
  721MOL0     C97258   8.429   5.980   6.859  0.1403  0.7360  0.2290
  721MOL0     O97259   8.557   5.991   6.817  0.4056  0.2043 -0.8069
  721MOL0     C97260   8.650   6.046   6.922 -0.1598 -0.4708  0.3705
  721MOL0     C97261   8.628   6.195   6.939 -0.4044 -0.5295  0.0180
  721MOL0     C97262   8.679   6.278   6.816 -0.2317 -0.4013  0.3133
  721MOL0     C97263   8.836   6.296   6.786  1.2091  0.0144 -0.0873
  721MOL0     C97264   8.909   6.360   6.893  0.3377 -0.4886 -0.8834
  721MOL0     C97265   8.959   6.395   7.000 -1.4881  0.2304 -0.5454
  721MOL0     C97266   8.402   5.852   6.902 -0.6321 -0.3877 -0.2061
  721MOL0     C97267   8.274   5.808   6.939  0.4946 -0.0687  0.9099
  721MOL0     H97268   7.830   5.712   6.935  1.0321 -0.9268  0.8894
  721MOL0     H97269   7.569   5.646   7.000 -5.6097  2.2014  2.3314
  721MOL0     H97270   7.206   5.856   7.143 -1.1890 -3.2990 -2.0846
  721MOL0     H97271   7.315   5.983   7.091  0.1908  0.2835  0.0178
  721MOL0     H97272   7.354   5.852   6.868 -0.1846 -1.2702  0.6279
  721MOL0     H97273   7.231   5.734   6.924 -1.9446 -0.0970  3.5973
  721MOL0     H97274   7.071   5.904   6.934  0.1344 -2.7964  1.1875
  721MOL0     H97275   7.200   6.026   6.888 -0.1715  0.1103  0.2527
  721MOL0     H97276   7.032   5.973   6.693  1.8760  2.0933 -2.3099
  721MOL0     H97277   7.187   5.949   6.646 -0.0657  2.5253  0.9406
  721MOL0     H97278   7.049   5.760   6.574 -3.0657  1.1765  0.4050
  721MOL0     H97279   7.173   5.706   6.705  0.0543 -0.1850 -1.3560
  721MOL0     H97280   7.002   5.675   6.865  1.6277  0.0782 -0.5903
  721MOL0     H97281   6.901   5.784   6.772 -0.0545 -1.1137  4.0801
  721MOL0     H97282   6.817   5.548   6.765 -1.1122  0.6065  0.2676
  721MOL0     H97283   6.850   5.611   6.614 -2.1565 -3.9733 -0.1134
  721MOL0     H97284   7.049   5.459   6.789  0.1444 -1.5633 -0.5027
  721MOL0     H97285   7.078   5.497   6.612  0.2237 -0.4312 -0.0109
  721MOL0     H97286   6.780   5.429   6.489  0.6746 -0.7254 -0.6793
  721MOL0     H97287   6.710   5.205   6.339  2.8305  0.6592  0.6318
  721MOL0     H97288   6.691   5.063   6.445 -0.3881 -0.6130 -2.1546
  721MOL0     H97289   6.571   5.334   6.536 -0.3696  0.6649 -0.5046
  721MOL0     H97290   6.505   5.180   6.567  1.0872 -0.1735 -0.8980
  721MOL0     H97291   6.460   5.141   6.318  2.1675 -1.8562  2.8155
  721MOL0     H97292   6.499   5.312   6.293 -0.1476 -0.0379  0.6685
  721MOL0     H97293   6.290   5.334   6.313  1.8563  1.2203 -0.6026
  721MOL0     H97294   6.333   5.369   6.484  2.4385  0.5519 -0.0165
  721MOL0     H97295   6.087   5.230   6.649 -2.3905 -1.9514  1.7801
  721MOL0     H97296   5.798   5.405   6.660 -2.0318 -0.0831  1.8510
  721MOL0     H97297   5.731   5.241   6.670 -0.1204  0.9456  1.0457
  721MOL0     H97298   5.878   5.292   6.757  0.3551 -0.7973 -0.8151
  721MOL0     H97299   5.454   5.305   6.245  2.2816 -1.3644  0.6873
  721MOL0     H97300   5.212   5.355   6.271  1.3595  0.0566 -1.0389
  721MOL0     H97301   5.027   5.455   6.316  0.7096  0.7807  1.1551
  721MOL0     H97302   5.000   5.277   6.317  0.8676  0.9729 -1.1365
  721MOL0     H97303   4.806   5.379   6.300 -2.3376  2.7323  0.4116
  721MOL0     H97304   4.807   5.338   6.482 -2.2336 -0.6538 -1.0928
  721MOL0     H97305   4.848   5.605   6.340 -2.2397  0.3157  0.2350
  721MOL0     H97306   4.914   5.578   6.499  1.9792 -0.3402 -1.8975
  721MOL0     H97307   4.618   5.541   6.429 -1.5380  0.1676  1.8098
  721MOL0     H97308   4.701   5.513   6.579  0.2846 -0.9240 -1.4941
  721MOL0     H97309   4.696   5.787   6.457 -4.3499  1.3236 -0.3331
  721MOL0     H97310   4.759   5.736   6.614 -0.5450 -2.3684  0.8882
  721MOL0     H97311   4.473   5.725   6.529 -0.8212  0.5223  0.8054
  721MOL0     H97312   4.536   5.655   6.674  0.5036 -2.1309 -2.9259
  721MOL0     H97313   4.535   5.957   6.580  1.6506  0.2091  0.4696
  721MOL0     H97314   4.635   5.914   6.716  0.6874 -0.7454 -1.4270
  721MOL0     H97315   4.405   6.014   6.758 -2.5774 -0.1762  0.7232
  721MOL0     H97316   4.415   5.852   6.834  1.2398  1.8629  1.0155
  721MOL0     H97317   5.240   5.336   6.695  0.2189 -2.2671 -0.4126
  721MOL0     H97318   5.481   5.334   6.676  0.2554  2.9274  0.5212
  721MOL0     H97319   5.892   5.237   6.201  0.9910 -2.7261 -0.7538
  721MOL0     H97320   6.119   5.194   6.224 -1.9000 -3.2596 -0.6831
  721MOL0     H97321   7.536   6.009   7.193  2.4178  1.4241  0.8837
  721MOL0     H97322   7.759   6.090   7.126  1.3498 -1.1291  0.1852
  721MOL0     H97323   8.110   6.105   6.888  0.6579  0.6372  2.1407
  721MOL0     H97324   8.352   6.175   6.824 -0.8527  0.7417  0.9223
  721MOL0     H97325   8.614   5.995   7.012 -1.4670 -1.7126 -0.8107
  721MOL0     H97326   8.754   6.013   6.916  0.7113  1.8814  1.4163
  721MOL0     H97327   8.670   6.230   7.034 -1.5891 -1.5475  0.9709
  721MOL0     H97328   8.521   6.216   6.946  0.2293  2.5332  3.8856
  721MOL0     H97329   8.638   6.380   6.817  3.8131  1.5412 -2.4379
  721MOL0     H97330   8.642   6.227   6.727  0.6075 -2.7526  1.2540
  721MOL0     H97331   8.844   6.352   6.692 -0.5131  0.9117  0.2578
  721MOL0     H97332   8.877   6.196   6.768 -2.4756 -1.9342  1.2901
  721MOL0     H97333   9.014   6.399   7.092 -0.4389  0.4107 -1.1637
  721MOL0     H97334   8.490   5.790   6.912  0.5394  1.5879  4.1203
  721MOL0     H97335   8.252   5.704   6.964  1.4193 -0.2082  1.1957
  722MOL0     O97336   1.310  11.096  10.464  0.0740 -0.3791  0.4497
  722MOL0     C97337   1.337  10.973  10.453  0.0094  0.0237  0.6784
  722MOL0     O97338   1.258  10.878  10.487 -0.1547 -0.2948 -0.0529
  722MOL0     C97339   1.139  10.914  10.540 -0.5171 -0.7546  0.4110
  722MOL0     C97340   1.131  10.935  10.672 -0.3630 -0.2302 -0.4425
  722MOL0     C97341   1.022  10.988  10.730 -0.1417 -0.0156  0.2579
  722MOL0     C97342   0.900  11.000  10.663 -0.3402 -0.1906  0.7347
  722MOL0     O97343   0.779  11.025  10.720 -0.1023  0.8120 -0.1709
  722MOL0     C97344   0.743  10.962  10.843 -0.1722 -0.1664 -0.1231
  722MOL0     C97345   0.682  11.070  10.934 -0.8609 -0.1677  0.0202
  722MOL0     C97346   0.540  11.100  10.898  1.1375 -0.2369 -0.4008
  722MOL0     C97347   0.499  11.141  10.754 -0.4926 -0.8167 -0.1042
  722MOL0     C97348   0.349  11.150  10.729  0.4914  0.6345  0.4491
  722MOL0     C97349   0.275  11.246  10.811 -0.3151  0.0372  0.9240
  722MOL0     C97350   0.120  11.242  10.804 -0.1697 -0.5228 -0.1655
  722MOL0     C97351   0.058  11.362  10.872  0.3820 -0.4174  0.3764
  722MOL0     N97352  -0.091  11.342  10.869  0.5222 -0.5774 -0.3226
  722MOL0     C97353  -0.160  11.316  10.984 -0.3554 -0.1463  0.4539
  722MOL0     C97354  -0.288  11.320  10.940 -0.1328 -0.5131  0.1419
  722MOL0     C97355  -0.383  11.303  11.049  0.4542  0.6401 -0.7648
  722MOL0     C97356  -0.522  11.263  10.996 -0.1250  0.2537  0.0326
  722MOL0     C97357  -0.609  11.388  10.964  0.9650  0.3926 -0.5377
  722MOL0     C97358  -0.754  11.353  10.938  0.2798  0.2337  1.1401
  722MOL0     O97359  -0.766  11.248  10.839  0.1458  0.3727  0.7401
  722MOL0     C97360  -0.889  11.231  10.777 -0.0333 -0.8062 -0.1741
  722MOL0     C97361  -0.883  11.144  10.673  0.8032  0.7624 -0.4583
  722MOL0     C97362  -0.990  11.108  10.592 -1.1493 -0.1389 -0.2174
  722MOL0     C97363  -0.965  10.992  10.511  0.4105 -0.7561 -0.2244
  722MOL0     C97364  -1.114  11.172  10.614 -0.5593  0.0700 -0.4229
  722MOL0     C97365  -1.237  11.144  10.540  0.4364 -1.3561  0.4512
  722MOL0     O97366  -1.343  11.230  10.565 -0.6503  0.5224 -0.3435
  722MOL0     C97367  -1.465  11.198  10.518  0.2912  0.2283 -0.8672
  722MOL0     C97368  -1.517  11.068  10.551  0.7092 -0.0580  0.0478
  722MOL0     C97369  -1.649  11.030  10.525  0.4523  0.4660  0.9725
  722MOL0     C97370  -1.732  11.121  10.462 -0.5816  0.2646  0.9791
  722MOL0     O97371  -1.849  11.092  10.400 -0.2936 -0.2376 -0.1080
  722MOL0     C97372  -1.845  10.970  10.320  0.7663 -0.4186  0.2558
  722MOL0     C97373  -1.909  10.852  10.398  0.1930  0.7708 -0.9892
  722MOL0     C97374  -2.068  10.863  10.396 -0.1098  0.6165  0.1131
  722MOL0     C97375  -2.128  10.758  10.491  0.2543 -0.3097  0.6926
  722MOL0     C97376  -2.288  10.763  10.505 -0.2586 -0.4866 -0.1136
  722MOL0     C97377  -2.371  10.710  10.383  0.8399  0.6308 -0.4104
  722MOL0     C97378  -2.517  10.706  10.413  0.1060  0.5890  0.6015
  722MOL0     C97379  -2.574  10.845  10.411  0.0703 -0.0342  0.2977
  722MOL0    Cl97380  -2.751  10.859  10.444 -0.4953 -0.1389  0.2127
  722MOL0     C97381  -1.693  11.254  10.441 -0.7418 -0.2552 -0.6403
  722MOL0     C97382  -1.562  11.291  10.468 -0.1610  0.8858  0.6229
  722MOL0     O97383  -1.234  11.062  10.450  0.3670 -0.0670 -0.2826
  722MOL0     C97384  -1.120  11.256  10.723 -0.1988  0.6914  0.5146
  722MOL0     C97385  -1.010  11.287  10.806 -0.1583  0.2640  0.0185
  722MOL0     N97386  -0.294  11.345  10.806  0.1212 -0.0221  0.1639
  722MOL0     N97387  -0.169  11.351  10.761  0.3075 -0.5041  0.0138
  722MOL0     C97388   0.898  10.955  10.534 -0.2983  0.4456 -0.3317
  722MOL0     C97389   1.019  10.921  10.466 -0.2295  0.9959  0.3405
  722MOL0     C97390   1.465  10.936  10.394  0.0909  0.2066  1.2297
  722MOL0     C97391   1.507  10.796  10.403  0.8363  0.3833  0.4713
  722MOL0     C97392   1.630  10.750  10.359 -0.4892 -0.1645  0.5262
  722MOL0     C97393   1.721  10.835  10.302  1.0272 -0.0171  0.2341
  722MOL0     O97394   1.833  10.774  10.252  1.0665 -0.2454 -0.5453
  722MOL0     C97395   1.925  10.847  10.168  0.0467  0.2374  0.3345
  722MOL0     C97396   2.004  10.748  10.078 -0.7719  0.1537  0.3692
  722MOL0     C97397   2.124  10.675  10.151  0.1063  0.0060  0.1070
  722MOL0     C97398   2.207  10.604  10.036  0.4007  0.8021 -0.0537
  722MOL0     C97399   2.315  10.504  10.085  0.4399  0.5024 -0.4154
  722MOL0     C97400   2.394  10.423  10.117  0.5149  0.0733 -0.6327
  722MOL0     C97401   1.689  10.967  10.291 -0.2897 -0.2325 -0.0757
  722MOL0     C97402   1.568  11.021  10.349 -0.0161  0.9403  0.6211
  722MOL0     H97403   1.222  10.923  10.730  0.5496  1.0329 -1.5444
  722MOL0     H97404   1.026  11.023  10.833 -1.3663  5.4719 -1.2124
  722MOL0     H97405   0.664  10.890  10.820 -1.1589  1.1295 -0.9692
  722MOL0     H97406   0.830  10.912  10.885 -1.9921 -2.7377  0.8244
  722MOL0     H97407   0.692  11.035  11.037 -0.5099 -3.0854 -0.9221
  722MOL0     H97408   0.741  11.160  10.921 -1.3151 -0.2824 -3.7058
  722MOL0     H97409   0.487  11.011  10.935  4.5007 -2.2402  0.0187
  722MOL0     H97410   0.507  11.172  10.974  0.7205 -0.0709 -0.7363
  722MOL0     H97411   0.544  11.240  10.751 -1.5539 -0.2352  1.5990
  722MOL0     H97412   0.533  11.075  10.674  0.7547 -0.7723  0.3762
  722MOL0     H97413   0.325  11.176  10.625 -2.8703  0.1556  1.0001
  722MOL0     H97414   0.298  11.054  10.742  0.7636  0.4693  0.3200
  722MOL0     H97415   0.310  11.231  10.913  1.2775  1.0770  0.5644
  722MOL0     H97416   0.303  11.345  10.774 -2.0151  0.2142  0.0059
  722MOL0     H97417   0.095  11.222  10.700  0.5403 -1.3733 -0.1750
  722MOL0     H97418   0.095  11.155  10.865  2.6885 -0.2041  1.6300
  722MOL0     H97419   0.090  11.454  10.823 -1.7705  1.1169  1.6826
  722MOL0     H97420   0.092  11.364  10.976 -0.9551 -0.9949  0.8448
  722MOL0     H97421  -0.126  11.297  11.085  0.4929  2.0345  0.6323
  722MOL0     H97422  -0.341  11.219  11.105  1.7215  1.6937 -0.0736
  722MOL0     H97423  -0.387  11.394  11.109  0.4600 -0.1337  0.4378
  722MOL0     H97424  -0.571  11.206  11.076 -3.9048  3.1321  0.0604
  722MOL0     H97425  -0.509  11.203  10.906 -2.9837  0.8459 -0.8880
  722MOL0     H97426  -0.579  11.457  10.884  1.0940  3.6029  2.0355
  722MOL0     H97427  -0.602  11.454  11.052  0.2123 -0.7777  0.4301
  722MOL0     H97428  -0.802  11.445  10.904 -1.0326 -1.3362 -1.5981
  722MOL0     H97429  -0.791  11.321  11.035  2.1144 -0.7956  1.5544
  722MOL0     H97430  -0.785  11.101  10.654  0.6946  0.2338  0.1321
  722MOL0     H97431  -0.859  10.970  10.496  0.6667  0.1819  0.1550
  722MOL0     H97432  -1.010  10.902  10.553  0.0049 -2.3217 -3.6268
  722MOL0     H97433  -1.008  11.007  10.411  0.3329 -0.0751 -0.0884
  722MOL0     H97434  -1.457  11.000  10.611  1.3612  0.2527 -0.2376
  722MOL0     H97435  -1.683  10.930  10.549  0.7885  0.1672  0.2486
  722MOL0     H97436  -1.890  10.990  10.223 -0.3415  0.7173  0.9741
  722MOL0     H97437  -1.741  10.942  10.302  0.7164  0.1248 -0.9560
  722MOL0     H97438  -1.864  10.764  10.352  1.8234  0.9593  0.1864
  722MOL0     H97439  -1.876  10.858  10.502 -1.3760 -2.7048 -0.1541
  722MOL0     H97440  -2.110  10.845  10.297 -1.0772  1.7337  0.2944
  722MOL0     H97441  -2.101  10.964  10.422  0.3766  0.3345  2.0088
  722MOL0     H97442  -2.090  10.662  10.456 -0.7477 -0.5461  0.1960
  722MOL0     H97443  -2.089  10.776  10.592 -1.9452  1.2310  1.3433
  722MOL0     H97444  -2.315  10.868  10.515  3.0334  0.4584  0.0856
  722MOL0     H97445  -2.316  10.701  10.591  2.3919 -0.8048  0.6284
  722MOL0     H97446  -2.351  10.766  10.290 -0.0792 -0.6868 -1.4277
  722MOL0     H97447  -2.341  10.607  10.365 -0.9780  0.5227 -3.7948
  722MOL0     H97448  -2.555  10.647  10.497 -2.2723 -0.0663 -0.8170
  722MOL0     H97449  -2.555  10.654  10.324 -1.1833  0.1274  1.3968
  722MOL0     H97450  -2.566  10.884  10.309  0.7229  0.7535  0.6410
  722MOL0     H97451  -2.521  10.915  10.475  1.0737  0.2650 -0.8184
  722MOL0     H97452  -1.762  11.321  10.390  0.3435  0.5452 -1.0801
  722MOL0     H97453  -1.534  11.396  10.464  1.0528  0.5614  0.0715
  722MOL0     H97454  -1.211  11.306  10.753 -0.0490  2.5341 -1.8363
  722MOL0     H97455  -1.016  11.357  10.889  0.1302 -0.1839  0.4228
  722MOL0     H97456   0.807  10.950  10.475 -0.7529 -2.2251  0.4835
  722MOL0     H97457   1.020  10.894  10.361  0.5235 -0.0091  0.5976
  722MOL0     H97458   1.442  10.723  10.450  1.4136 -0.5386 -0.1303
  722MOL0     H97459   1.640  10.643  10.372  0.4610 -0.1765 -0.2757
  722MOL0     H97460   1.875  10.919  10.102  0.3737 -0.7893 -1.0704
  722MOL0     H97461   2.000  10.906  10.221 -0.8885  3.3582 -1.5823
  722MOL0     H97462   2.050  10.806   9.997 -1.3112 -1.5079 -1.2090
  722MOL0     H97463   1.935  10.676  10.033  0.8493 -0.5416 -1.1628
  722MOL0     H97464   2.080  10.602  10.220 -2.4189 -0.5927 -1.9766
  722MOL0     H97465   2.190  10.749  10.196  0.2293 -0.2008  0.2694
  722MOL0     H97466   2.248  10.676   9.965  1.6504  1.1960  1.0382
  722MOL0     H97467   2.136  10.537   9.986  0.3863 -0.2287  1.2844
  722MOL0     H97468   2.481  10.363  10.133  1.7051  2.2524  2.0934
  722MOL0     H97469   1.761  11.041  10.256 -0.8030  0.5896  0.5528
  722MOL0     H97470   1.554  11.127  10.335 -1.0395  1.2102  3.2375
  723MOL0     O97471   8.807   4.776   9.318 -0.3711  1.0092 -0.7048
  723MOL0     C97472   8.760   4.877   9.364  0.1787  0.4720  0.0547
  723MOL0     O97473   8.635   4.919   9.331  0.6358 -0.0942 -0.7688
  723MOL0     C97474   8.555   4.822   9.271  0.5007 -0.9576 -0.4382
  723MOL0     C97475   8.483   4.854   9.153  0.8593 -0.2596 -0.6110
  723MOL0     C97476   8.393   4.760   9.105 -0.4174 -0.0921  0.3052
  723MOL0     C97477   8.359   4.640   9.175  0.0305 -0.1830  0.0206
  723MOL0     O97478   8.271   4.550   9.129 -0.2423  0.5724  0.2710
  723MOL0     C97479   8.180   4.595   9.029 -0.3898 -0.4104  0.7254
  723MOL0     C97480   8.066   4.498   9.024  0.2787 -0.3046  0.1302
  723MOL0     C97481   7.976   4.507   9.145 -0.1745 -0.1103 -0.3600
  723MOL0     C97482   7.841   4.439   9.119  0.2031 -0.1641 -0.4244
  723MOL0     C97483   7.748   4.491   9.012  0.7933 -0.0169  0.2459
  723MOL0     C97484   7.651   4.377   8.957  0.4226  0.1231  0.2413
  723MOL0     C97485   7.544   4.420   8.857  0.1640 -0.5411  0.0822
  723MOL0     C97486   7.449   4.298   8.812 -0.4698  0.1672  0.0831
  723MOL0     N97487   7.342   4.260   8.906  0.6676  0.0169 -0.9955
  723MOL0     C97488   7.343   4.163   8.998  0.0023  0.4377 -0.9125
  723MOL0     C97489   7.220   4.169   9.058 -0.1883  0.6537  0.5524
  723MOL0     C97490   7.165   4.078   9.174 -0.2479 -0.1775  0.2971
  723MOL0     C97491   7.025   4.041   9.124  0.0817  0.5436 -0.0526
  723MOL0     C97492   6.959   3.937   9.214 -0.9396  0.5378 -0.2483
  723MOL0     C97493   6.846   3.886   9.136 -0.4678  0.5051 -0.0354
  723MOL0     O97494   6.737   3.981   9.155 -0.1311 -0.3171 -0.6995
  723MOL0     C97495   6.616   3.933   9.199 -1.1040 -1.2097 -0.2365
  723MOL0     C97496   6.510   3.951   9.118 -1.0196 -0.2644  0.0068
  723MOL0     C97497   6.389   3.894   9.145  0.3134  0.0575  0.3852
  723MOL0     C97498   6.276   3.909   9.047 -0.8860 -0.0429  0.7318
  723MOL0     C97499   6.364   3.821   9.267  0.0398 -0.5399  0.8264
  723MOL0     C97500   6.231   3.773   9.316 -0.3062  0.0280 -0.5823
  723MOL0     O97501   6.136   3.869   9.304  0.2343 -0.1515  0.1176
  723MOL0     C97502   6.004   3.843   9.330 -0.5594 -0.0821 -0.0503
  723MOL0     C97503   5.966   3.840   9.461  0.4260 -0.0423 -0.8320
  723MOL0     C97504   5.831   3.824   9.476 -0.2390 -0.1945  0.7914
  723MOL0     C97505   5.741   3.814   9.370 -1.1278 -0.6491 -0.1525
  723MOL0     O97506   5.613   3.809   9.405 -0.5855  0.1556 -0.3974
  723MOL0     C97507   5.530   3.704   9.354 -0.8738 -0.3829  0.2324
  723MOL0     C97508   5.414   3.672   9.450 -0.1008  0.4735 -0.5877
  723MOL0     C97509   5.303   3.574   9.403  0.4066  0.5685  0.4559
  723MOL0     C97510   5.370   3.439   9.348 -0.0958 -0.3327 -0.2142
  723MOL0     C97511   5.269   3.322   9.327  0.0403 -0.4011  0.2175
  723MOL0     C97512   5.164   3.354   9.222 -0.9803  0.0278 -0.2582
  723MOL0     C97513   5.210   3.396   9.083  0.2926  0.8200 -0.9615
  723MOL0     C97514   5.083   3.412   8.994  0.2688 -0.3785 -0.8094
  723MOL0    Cl97515   5.020   3.255   8.945  0.3205 -0.2225 -0.2821
  723MOL0     C97516   5.788   3.814   9.238 -0.4275 -0.5904 -0.2508
  723MOL0     C97517   5.925   3.823   9.216 -0.3205 -0.5314 -0.2943
  723MOL0     O97518   6.216   3.676   9.386 -0.4475  0.5560  0.1870
  723MOL0     C97519   6.475   3.809   9.355 -0.7902 -0.0527  0.9764
  723MOL0     C97520   6.597   3.860   9.318  0.1527  1.0081 -0.3387
  723MOL0     N97521   7.145   4.268   8.991 -0.8253  0.0704  0.2485
  723MOL0     N97522   7.225   4.332   8.912 -0.3012 -0.2297 -0.2915
  723MOL0     C97523   8.427   4.614   9.291 -0.4862 -0.3834  0.0943
  723MOL0     C97524   8.531   4.699   9.336 -0.1512 -0.3644 -0.4414
  723MOL0     C97525   8.844   4.981   9.419 -0.7541  0.9195  0.4074
  723MOL0     C97526   8.981   4.967   9.439  0.2708  0.5038  0.5254
  723MOL0     C97527   9.063   5.072   9.485 -0.0842 -0.2770  0.3972
  723MOL0     C97528   9.007   5.199   9.519  0.0307  0.1900 -0.5147
  723MOL0     O97529   9.075   5.314   9.552 -0.1034  1.0909 -0.4476
  723MOL0     C97530   9.218   5.324   9.554  0.7922 -0.3175  0.3595
  723MOL0     C97531   9.264   5.468   9.574 -0.4709 -0.4667  0.5272
  723MOL0     C97532   9.414   5.477   9.645  0.4891 -0.5057 -1.2875
  723MOL0     C97533   9.511   5.383   9.580  0.1582  0.1674  0.8474
  723MOL0     C97534   9.657   5.407   9.594  0.0271  0.1646 -0.4502
  723MOL0     C97535   9.773   5.428   9.598 -0.8628 -0.3239 -0.5680
  723MOL0     C97536   8.870   5.208   9.508 -0.0861 -0.2602 -0.0392
  723MOL0     C97537   8.793   5.105   9.456  0.5005  0.3247 -0.4026
  723MOL0     H97538   8.491   4.948   9.099  1.2170 -0.8279 -1.5686
  723MOL0     H97539   8.364   4.782   9.003  0.0394 -1.7105 -0.1966
  723MOL0     H97540   8.142   4.697   9.038 -0.7473 -0.5616  0.8956
  723MOL0     H97541   8.238   4.587   8.936 -1.0245 -1.0226  0.3807
  723MOL0     H97542   8.007   4.515   8.933  0.4578  3.0502  0.5205
  723MOL0     H97543   8.118   4.402   9.032  0.6834 -0.0087  1.1074
  723MOL0     H97544   8.032   4.463   9.228  0.4890  2.3430  0.5617
  723MOL0     H97545   7.957   4.610   9.174 -1.3808 -0.4189 -0.0035
  723MOL0     H97546   7.876   4.339   9.091 -1.2151 -0.2511 -2.1295
  723MOL0     H97547   7.789   4.425   9.214  0.7454 -0.6577 -0.1921
  723MOL0     H97548   7.687   4.572   9.053 -1.6834 -2.0953  0.9078
  723MOL0     H97549   7.808   4.528   8.928  2.4691 -3.6217 -0.2892
  723MOL0     H97550   7.713   4.306   8.902  1.7646  2.0306 -0.7991
  723MOL0     H97551   7.589   4.333   9.036 -0.6924  0.7124 -0.2851
  723MOL0     H97552   7.486   4.507   8.890 -0.2674 -0.5203 -0.6992
  723MOL0     H97553   7.599   4.442   8.766 -0.3327 -1.6462 -0.5072
  723MOL0     H97554   7.511   4.210   8.792  1.2700  1.3308  0.1349
  723MOL0     H97555   7.407   4.314   8.713 -0.3061 -0.1468 -0.0392
  723MOL0     H97556   7.414   4.083   9.014 -0.6017  0.3406  1.7554
  723MOL0     H97557   7.234   4.002   9.210 -0.5447 -0.4301  0.3398
  723MOL0     H97558   7.141   4.134   9.265  0.9262 -0.0243  0.5218
  723MOL0     H97559   7.036   3.996   9.025  0.3055 -1.2186  0.7327
  723MOL0     H97560   6.951   4.120   9.108 -1.3005 -0.8412 -0.7192
  723MOL0     H97561   6.933   3.978   9.312  2.7193 -1.2136  1.6770
  723MOL0     H97562   7.018   3.847   9.236 -1.7017 -0.3123 -1.5493
  723MOL0     H97563   6.822   3.786   9.173  1.5910  0.4794  1.4147
  723MOL0     H97564   6.873   3.860   9.033  1.1124 -0.7024  0.6276
  723MOL0     H97565   6.518   4.019   9.035  2.9182  0.1869  0.5876
  723MOL0     H97566   6.241   3.813   9.008  1.7427 -0.8756  0.1895
  723MOL0     H97567   6.189   3.964   9.081  0.7184  0.9349  3.6063
  723MOL0     H97568   6.312   3.965   8.960 -1.1916 -0.7917  0.1065
  723MOL0     H97569   6.033   3.840   9.546  0.7938 -0.4265 -1.1174
  723MOL0     H97570   5.786   3.809   9.574 -1.7630 -2.9206 -0.2237
  723MOL0     H97571   5.483   3.735   9.261 -0.1443 -0.4015 -0.1472
  723MOL0     H97572   5.589   3.612   9.349 -1.3725 -0.6693 -0.6221
  723MOL0     H97573   5.470   3.619   9.528 -0.1398  0.1172 -0.7987
  723MOL0     H97574   5.369   3.758   9.500  0.7067 -0.2691  1.5466
  723MOL0     H97575   5.243   3.621   9.325  0.6830  2.1625  1.1610
  723MOL0     H97576   5.246   3.552   9.493  0.4846 -0.3971  0.2774
  723MOL0     H97577   5.425   3.453   9.255  1.9597 -0.2876  0.9600
  723MOL0     H97578   5.450   3.405   9.414 -0.5418 -0.3041  0.3544
  723MOL0     H97579   5.225   3.296   9.424 -2.0965  3.0853  0.3516
  723MOL0     H97580   5.321   3.229   9.301 -1.8992 -1.8699  1.3226
  723MOL0     H97581   5.101   3.265   9.227 -1.0100  0.1178  2.3077
  723MOL0     H97582   5.107   3.440   9.257 -2.2333 -0.4018 -1.1699
  723MOL0     H97583   5.274   3.319   9.039 -0.1282 -2.6135  3.6206
  723MOL0     H97584   5.262   3.492   9.081 -0.7889  1.5739  1.8804
  723MOL0     H97585   5.112   3.467   8.904 -1.3248  0.1692 -1.0027
  723MOL0     H97586   5.003   3.464   9.047 -1.1225 -1.6130 -1.6307
  723MOL0     H97587   5.722   3.795   9.154  1.1825  0.5561 -1.8449
  723MOL0     H97588   5.967   3.827   9.116 -0.3893 -0.0391 -0.3061
  723MOL0     H97589   6.457   3.764   9.452  0.1784 -1.9594  0.3096
  723MOL0     H97590   6.682   3.852   9.385 -0.5265  0.2050  0.4327
  723MOL0     H97591   8.408   4.527   9.352  0.7534  0.3316  1.5618
  723MOL0     H97592   8.591   4.674   9.423  0.9473 -0.5423 -1.2284
  723MOL0     H97593   9.015   4.864   9.434 -0.0785  0.4205 -0.1868
  723MOL0     H97594   9.171   5.065   9.497  0.6208  0.2554 -3.9423
  723MOL0     H97595   9.256   5.249   9.624  1.9760 -0.7113 -0.6698
  723MOL0     H97596   9.246   5.281   9.458  2.9962 -0.3317  0.9555
  723MOL0     H97597   9.197   5.531   9.634  0.5131  0.7503  0.4069
  723MOL0     H97598   9.263   5.523   9.480  2.2210  0.7605  1.1120
  723MOL0     H97599   9.401   5.469   9.754 -0.8481 -2.4219 -1.5397
  723MOL0     H97600   9.461   5.575   9.631  1.1735 -0.0966  2.6804
  723MOL0     H97601   9.491   5.399   9.473  1.6590 -3.2305 -0.0755
  723MOL0     H97602   9.487   5.282   9.614  0.3595 -0.4277 -0.6905
  723MOL0     H97603   9.873   5.457   9.576 -1.1994  2.8785  1.4564
  723MOL0     H97604   8.817   5.303   9.516  0.3388 -0.0294  0.0769
  723MOL0     H97605   8.687   5.111   9.431 -0.6454 -4.8055  1.8486
  724MOL0     O97606   4.827   6.306   2.525 -0.2805  0.5447  0.4040
  724MOL0     C97607   4.774   6.360   2.426 -0.1595  0.4125 -0.3352
  724MOL0     O97608   4.834   6.362   2.300 -0.1508 -0.6515 -0.4105
  724MOL0     C97609   4.963   6.324   2.296  0.0487  0.9299 -0.1886
  724MOL0     C97610   5.062   6.410   2.333  0.2443  0.2000  0.0986
  724MOL0     C97611   5.190   6.366   2.336  0.3389 -0.5655 -0.4633
  724MOL0     C97612   5.236   6.237   2.294 -0.0041  0.6709 -0.6312
  724MOL0     O97613   5.368   6.222   2.297 -0.5660 -1.2274  0.0828
  724MOL0     C97614   5.400   6.121   2.200 -0.5564  0.3519 -0.4988
  724MOL0     C97615   5.555   6.111   2.196 -0.3653  1.1222  0.4231
  724MOL0     C97616   5.611   6.007   2.089  1.1032 -0.7992 -0.3841
  724MOL0     C97617   5.763   6.011   2.079  0.3234  0.8546  0.4878
  724MOL0     C97618   5.842   5.920   1.981 -0.3533 -0.4030  0.6331
  724MOL0     C97619   5.866   5.987   1.843  0.6067  0.7565  0.2446
  724MOL0     C97620   5.738   5.994   1.757  0.8213  0.9310 -0.6328
  724MOL0     C97621   5.782   6.031   1.614  1.0358 -0.1301 -0.7391
  724MOL0     N97622   5.679   6.030   1.515  0.7009  0.2769  0.8349
  724MOL0     C97623   5.578   5.934   1.504  0.1288 -0.3067 -0.5034
  724MOL0     C97624   5.489   5.993   1.417 -0.1568  0.6880 -0.5232
  724MOL0     C97625   5.364   5.937   1.353  0.3300  0.3595  0.1487
  724MOL0     C97626   5.268   5.856   1.434 -0.0011 -0.3438 -1.0808
  724MOL0     C97627   5.166   5.778   1.352  0.1228  0.1255  0.2526
  724MOL0     C97628   5.032   5.861   1.325 -1.2403  0.2564  1.2467
  724MOL0     O97629   4.950   5.773   1.237 -1.1003 -0.1055  0.3354
  724MOL0     C97630   4.831   5.808   1.183  0.7727 -0.8388  0.7425
  724MOL0     C97631   4.768   5.717   1.096 -0.4294 -0.1860  0.4519
  724MOL0     C97632   4.642   5.738   1.042  0.7150  0.3422 -0.7406
  724MOL0     C97633   4.594   5.634   0.944 -0.4936 -0.2579  0.3055
  724MOL0     C97634   4.566   5.857   1.071 -0.0120 -0.0381 -0.0468
  724MOL0     C97635   4.433   5.890   1.022  0.2879  0.6039  0.4444
  724MOL0     O97636   4.345   5.944   1.104  0.6376  0.1494  0.0712
  724MOL0     C97637   4.216   5.956   1.057  0.8081 -1.0449  0.7343
  724MOL0     C97638   4.122   5.857   1.092  0.7110 -0.1879 -0.6950
  724MOL0     C97639   3.990   5.878   1.057 -0.8504  0.2149  0.9233
  724MOL0     C97640   3.947   5.985   0.979  0.2111  0.5816  0.2489
  724MOL0     O97641   3.812   5.992   0.951 -0.3394 -0.8736 -0.1026
  724MOL0     C97642   3.769   6.110   0.888  0.7878  0.1109  0.0662
  724MOL0     C97643   3.611   6.101   0.864  0.0455 -0.0766  0.1060
  724MOL0     C97644   3.522   6.136   0.985  0.5803 -0.0237  0.7896
  724MOL0     C97645   3.380   6.155   0.935 -0.6294  0.4901  0.1153
  724MOL0     C97646   3.304   6.204   1.051  0.1747  0.1121 -0.1109
  724MOL0     C97647   3.152   6.200   1.016 -1.1772 -0.8243 -0.3233
  724MOL0     C97648   3.066   6.294   1.103  0.3888  0.3626  0.3904
  724MOL0     C97649   2.910   6.280   1.102 -0.6522 -0.5938  0.3768
  724MOL0    Cl97650   2.846   6.116   1.114  0.7588 -0.1718 -0.5872
  724MOL0     C97651   4.043   6.076   0.935 -0.4051 -0.5951 -0.1311
  724MOL0     C97652   4.176   6.063   0.977  0.1314  0.0939 -0.5074
  724MOL0     O97653   4.425   5.877   0.903  0.5408 -0.4148  0.0290
  724MOL0     C97654   4.615   5.944   1.170 -0.2401  0.4464 -0.7024
  724MOL0     C97655   4.750   5.918   1.221 -0.6681  1.0698  0.0970
  724MOL0     N97656   5.543   6.115   1.377 -0.6690 -0.8566 -0.0977
  724MOL0     N97657   5.659   6.134   1.437  0.5006 -0.3012  0.1749
  724MOL0     C97658   5.134   6.146   2.269 -1.0910 -0.1757  0.0261
  724MOL0     C97659   5.002   6.191   2.265 -0.3612  0.6892 -0.4328
  724MOL0     C97660   4.640   6.418   2.448 -0.9797  0.8774 -0.8108
  724MOL0     C97661   4.577   6.390   2.570 -0.0914  0.1669 -0.1441
  724MOL0     C97662   4.455   6.457   2.602  0.1067  0.5220 -0.0855
  724MOL0     C97663   4.393   6.535   2.507  0.5419 -1.0165 -0.6715
  724MOL0     O97664   4.267   6.583   2.525 -0.3260  0.0057  0.3437
  724MOL0     C97665   4.265   6.711   2.599  0.2166  0.1651  0.3766
  724MOL0     C97666   4.130   6.785   2.608  0.7058  0.2315 -0.1924
  724MOL0     C97667   4.110   6.881   2.483 -0.0453 -0.6390 -0.3021
  724MOL0     C97668   3.962   6.927   2.461  0.6622 -0.2239  1.0715
  724MOL0     C97669   3.906   7.009   2.575  0.7352 -0.1626 -0.2431
  724MOL0     C97670   3.859   7.080   2.656 -0.7531  0.8424  0.1205
  724MOL0     C97671   4.457   6.547   2.388 -0.0855 -0.2455  0.5265
  724MOL0     C97672   4.577   6.486   2.352 -0.4073  0.8032 -0.8332
  724MOL0     H97673   5.047   6.516   2.350  0.9853  0.5486 -1.3236
  724MOL0     H97674   5.265   6.441   2.358 -0.0996  0.1758 -1.4517
  724MOL0     H97675   5.364   6.021   2.225  0.9348  0.3112  1.8539
  724MOL0     H97676   5.372   6.156   2.101  0.7286  3.0376 -0.0165
  724MOL0     H97677   5.606   6.205   2.171  2.0705 -0.4579 -0.9440
  724MOL0     H97678   5.594   6.077   2.293  4.2426 -0.5399 -1.7212
  724MOL0     H97679   5.569   5.911   2.121 -1.4058  0.1338 -0.6960
  724MOL0     H97680   5.563   6.033   1.994  0.0737  0.7559  0.5178
  724MOL0     H97681   5.779   6.113   2.043  0.8310  0.0186 -1.8203
  724MOL0     H97682   5.808   5.988   2.176  3.9901  1.7634 -0.8593
  724MOL0     H97683   5.943   5.908   2.021  0.0630  3.3064  1.1012
  724MOL0     H97684   5.790   5.825   1.970 -4.6550  1.5900  1.5826
  724MOL0     H97685   5.917   6.080   1.868 -0.2589  0.5256  3.3186
  724MOL0     H97686   5.940   5.916   1.803  0.9917 -0.2613  2.5810
  724MOL0     H97687   5.684   5.899   1.755  1.1998  0.6929  0.1267
  724MOL0     H97688   5.681   6.075   1.803 -0.6373 -0.0292 -0.6853
  724MOL0     H97689   5.863   5.965   1.581  0.9756 -0.9386  0.6517
  724MOL0     H97690   5.826   6.131   1.614  0.2613  0.2199 -1.2730
  724MOL0     H97691   5.565   5.841   1.559 -0.2132  1.4453  2.6513
  724MOL0     H97692   5.317   6.030   1.319  1.1664  1.2937  1.4637
  724MOL0     H97693   5.390   5.880   1.263 -1.8173  2.9625 -2.3334
  724MOL0     H97694   5.221   5.928   1.502  1.0359 -0.5065 -0.1838
  724MOL0     H97695   5.314   5.783   1.500 -0.6428  0.7376  0.6410
  724MOL0     H97696   5.137   5.694   1.416  0.9461  0.1859  0.7115
  724MOL0     H97697   5.208   5.734   1.261  2.3858  1.0044  0.7948
  724MOL0     H97698   5.059   5.960   1.286  1.1517 -0.0734  1.9180
  724MOL0     H97699   4.975   5.870   1.418 -0.3840  0.8855  1.7231
  724MOL0     H97700   4.834   5.638   1.063  0.4958  1.3426 -1.5997
  724MOL0     H97701   4.624   5.673   0.846 -0.7558 -0.4855  0.1343
  724MOL0     H97702   4.646   5.541   0.965  1.3118 -0.2790 -3.4149
  724MOL0     H97703   4.487   5.624   0.963 -0.3518 -0.5651  0.9458
  724MOL0     H97704   4.165   5.771   1.143  0.0796  0.1215  0.3852
  724MOL0     H97705   3.916   5.805   1.089 -0.5053  0.1309  1.5601
  724MOL0     H97706   3.797   6.205   0.934  0.0256 -0.5370  1.9453
  724MOL0     H97707   3.805   6.119   0.784 -2.3999 -0.8138 -1.2174
  724MOL0     H97708   3.598   6.181   0.790 -0.1606 -1.9590 -2.0059
  724MOL0     H97709   3.587   6.002   0.822  1.0239 -1.5604  2.8125
  724MOL0     H97710   3.546   6.231   1.033 -1.9385 -0.0033  2.1769
  724MOL0     H97711   3.531   6.065   1.068  1.8185  1.3251  1.8511
  724MOL0     H97712   3.370   6.220   0.848 -1.9876  1.3273  0.8710
  724MOL0     H97713   3.344   6.055   0.908 -1.3478 -0.0636  2.8133
  724MOL0     H97714   3.331   6.306   1.078 -0.6418  0.4931 -0.6723
  724MOL0     H97715   3.320   6.142   1.139 -0.9559  0.4598  0.3532
  724MOL0     H97716   3.139   6.234   0.912 -0.5602 -2.6488 -1.0441
  724MOL0     H97717   3.122   6.095   1.020  0.5047 -1.3098  0.0745
  724MOL0     H97718   3.102   6.395   1.081  0.3260  0.8927  2.5308
  724MOL0     H97719   3.096   6.266   1.204 -0.6662 -3.3974 -0.2161
  724MOL0     H97720   2.857   6.314   1.013  0.0516 -2.6054 -0.8927
  724MOL0     H97721   2.880   6.343   1.186 -0.9598 -0.9490  0.5373
  724MOL0     H97722   4.016   6.166   0.879  0.6089  0.9877  1.7760
  724MOL0     H97723   4.244   6.144   0.952 -1.8030  2.4998  1.5337
  724MOL0     H97724   4.550   6.025   1.202 -1.4767  0.3149 -2.6643
  724MOL0     H97725   4.794   5.983   1.296  0.3958  0.9752 -0.4288
  724MOL0     H97726   5.156   6.043   2.240  0.5885  0.1420  0.0707
  724MOL0     H97727   4.924   6.117   2.247  0.4554 -0.0633 -0.9185
  724MOL0     H97728   4.627   6.322   2.639  2.0843  0.6653 -1.1715
  724MOL0     H97729   4.414   6.433   2.700  1.5345 -1.6903  0.0524
  724MOL0     H97730   4.297   6.689   2.701 -0.0968 -2.6145 -0.0327
  724MOL0     H97731   4.336   6.777   2.549  0.3495  0.1944  0.5985
  724MOL0     H97732   4.128   6.856   2.691  2.0866  1.1428 -0.8902
  724MOL0     H97733   4.041   6.722   2.620 -0.2438  1.4391 -0.5797
  724MOL0     H97734   4.135   6.825   2.393 -0.5666  0.0528 -0.8833
  724MOL0     H97735   4.174   6.969   2.490 -0.2359 -0.3135 -2.1951
  724MOL0     H97736   3.896   6.840   2.458 -1.4675  1.2951  1.3177
  724MOL0     H97737   3.959   6.977   2.364 -1.5973 -2.1075  0.0626
  724MOL0     H97738   3.818   7.151   2.724 -0.7712  0.5409  0.4239
  724MOL0     H97739   4.389   6.594   2.317 -1.0027 -0.2853  1.3587
  724MOL0     H97740   4.638   6.503   2.264  2.5775 -1.0194  0.7271
  725MOL0     O97741   5.164  10.963   4.886  0.0490 -0.8231 -0.0622
  725MOL0     C97742   5.179  10.901   4.991 -0.7986 -0.2157  0.0841
  725MOL0     O97743   5.076  10.847   5.068 -0.1876  0.5800  0.2771
  725MOL0     C97744   4.948  10.855   5.024 -0.8126 -0.9283  0.1905
  725MOL0     C97745   4.917  10.829   4.889  0.1956  0.7940 -0.6910
  725MOL0     C97746   4.786  10.836   4.847 -0.4990  0.8805  0.2459
  725MOL0     C97747   4.684  10.866   4.935  0.2704 -0.7340  0.5292
  725MOL0     O97748   4.556  10.864   4.893  0.1430 -0.4451  0.3454
  725MOL0     C97749   4.445  10.904   4.984  0.0834 -0.4705 -0.4916
  725MOL0     C97750   4.317  10.887   4.913  0.0085 -0.0553  0.2483
  725MOL0     C97751   4.302  10.953   4.773 -0.8820 -1.0607 -0.2218
  725MOL0     C97752   4.168  10.954   4.712  0.4772 -0.0305  0.3188
  725MOL0     C97753   4.116  11.097   4.733 -0.4561 -1.1593  0.0435
  725MOL0     C97754   3.974  11.113   4.670 -0.3780 -0.1208 -0.2187
  725MOL0     C97755   3.967  11.113   4.511  1.0509 -0.6769 -0.2853
  725MOL0     C97756   3.835  11.183   4.465  0.5571 -0.2775  0.2487
  725MOL0     N97757   3.723  11.187   4.557  0.5665 -0.1775  0.2097
  725MOL0     C97758   3.637  11.292   4.561  0.5022  0.4938  0.3532
  725MOL0     C97759   3.515  11.240   4.604  0.5144 -0.7482 -0.3187
  725MOL0     C97760   3.388  11.326   4.624 -0.1835 -0.3797 -0.3334
  725MOL0     C97761   3.312  11.257   4.739 -0.2461 -0.5873 -1.0158
  725MOL0     C97762   3.211  11.338   4.800 -0.2335 -0.2046 -0.2499
  725MOL0     C97763   3.087  11.356   4.715  0.6748  0.6453 -0.7049
  725MOL0     O97764   2.978  11.262   4.737 -0.0330  1.0273  1.0045
  725MOL0     C97765   2.904  11.288   4.849  0.4188  0.7225 -0.3399
  725MOL0     C97766   2.804  11.188   4.857  0.5467  0.4213 -0.1180
  725MOL0     C97767   2.692  11.213   4.952  0.0963  0.7404  0.3818
  725MOL0     C97768   2.574  11.114   4.950 -0.1961  0.1126 -0.4921
  725MOL0     C97769   2.699  11.318   5.031 -0.1064  0.1670 -0.0126
  725MOL0     C97770   2.587  11.356   5.121  0.4720 -0.1762 -0.5032
  725MOL0     O97771   2.451  11.337   5.083 -0.4835  0.0690  0.0899
  725MOL0     C97772   2.351  11.362   5.175 -0.1672 -0.7671  0.7728
  725MOL0     C97773   2.327  11.263   5.274  0.4971  0.4083  0.5614
  725MOL0     C97774   2.223  11.288   5.361  1.3142  0.2267  0.6076
  725MOL0     C97775   2.133  11.400   5.352 -0.3837 -0.1268  0.3526
  725MOL0     O97776   2.025  11.402   5.429  0.2446  0.3678 -0.4477
  725MOL0     C97777   1.917  11.496   5.411  0.2751  0.2779  0.0497
  725MOL0     C97778   1.811  11.442   5.500 -0.1277 -0.5373 -0.8446
  725MOL0     C97779   1.694  11.549   5.492 -0.6198 -0.1158  0.1244
  725MOL0     C97780   1.567  11.501   5.545  0.7658 -0.1475  0.2287
  725MOL0     C97781   1.450  11.599   5.521  0.4109  0.0714 -0.0135
  725MOL0     C97782   1.459  11.722   5.612 -0.2563 -0.1844  1.0162
  725MOL0     C97783   1.328  11.813   5.614  0.2021  0.2537  0.6402
  725MOL0     C97784   1.197  11.760   5.670  0.4189  0.0100  0.7421
  725MOL0    Cl97785   1.077  11.891   5.688 -0.0995 -0.0826 -0.4174
  725MOL0     C97786   2.158  11.497   5.258 -0.7127 -0.2917  0.4343
  725MOL0     C97787   2.265  11.477   5.163 -0.2850 -0.2931  0.1353
  725MOL0     O97788   2.623  11.401   5.232 -0.6038 -0.4415 -0.1014
  725MOL0     C97789   2.813  11.397   5.029  0.8320  0.0916  0.1379
  725MOL0     C97790   2.911  11.391   4.936  0.2609 -0.1434 -1.4885
  725MOL0     N97791   3.529  11.104   4.613  0.1303  0.5038  0.4436
  725MOL0     N97792   3.654  11.079   4.596  0.3539  0.2860  0.1473
  725MOL0     C97793   4.724  10.907   5.062  0.2365  0.9205 -0.7237
  725MOL0     C97794   4.847  10.888   5.120 -0.3942  0.2621  0.7758
  725MOL0     C97795   5.316  10.885   5.049  0.3031  0.7668 -0.3516
  725MOL0     C97796   5.323  10.815   5.174  0.1433  0.3182 -0.0679
  725MOL0     C97797   5.444  10.817   5.247  0.5894  0.2434  0.2019
  725MOL0     C97798   5.559  10.881   5.189  0.3278  1.1553  0.0992
  725MOL0     O97799   5.674  10.874   5.269 -0.2843  0.0887  0.0702
  725MOL0     C97800   5.798  10.911   5.210  0.4736 -0.3430 -0.2577
  725MOL0     C97801   5.913  10.862   5.304 -0.6074 -0.3012  0.2499
  725MOL0     C97802   6.050  10.861   5.234 -0.1658  0.3810  0.2233
  725MOL0     C97803   6.169  10.847   5.339  0.6363  0.3423  0.2735
  725MOL0     C97804   6.160  10.746   5.442  0.8155  0.6615 -0.0053
  725MOL0     C97805   6.150  10.642   5.508 -0.1012  0.9385  0.0860
  725MOL0     C97806   5.552  10.936   5.063  0.3950  0.1883 -0.1028
  725MOL0     C97807   5.430  10.946   4.992 -0.4592 -0.0487  0.1369
  725MOL0     H97808   5.003  10.801   4.828  0.5747  0.3090  0.0388
  725MOL0     H97809   4.771  10.791   4.749  1.7535  0.4419  0.0571
  725MOL0     H97810   4.439  10.851   5.079  0.2955  2.0792  1.0264
  725MOL0     H97811   4.458  11.008   5.014 -0.3688  0.2108 -2.4657
  725MOL0     H97812   4.291  10.782   4.895 -0.0750  0.2140 -1.3702
  725MOL0     H97813   4.234  10.920   4.976 -2.0243 -2.6647 -0.8775
  725MOL0     H97814   4.357  11.048   4.777 -0.7657 -1.1392  0.0916
  725MOL0     H97815   4.356  10.888   4.703  0.3305 -1.1951  0.7909
  725MOL0     H97816   4.174  10.922   4.607  2.8089  0.4433  0.2455
  725MOL0     H97817   4.094  10.884   4.752 -2.7671  1.2893 -2.8082
  725MOL0     H97818   4.118  11.128   4.837 -1.3271 -0.5602 -0.1127
  725MOL0     H97819   4.175  11.171   4.679 -1.0933 -1.0605 -0.5343
  725MOL0     H97820   3.903  11.041   4.712 -0.4900 -0.6245 -1.2422
  725MOL0     H97821   3.938  11.214   4.689 -1.5221  0.0096 -2.6368
  725MOL0     H97822   4.059  11.156   4.469  1.5321 -0.1249  1.2290
  725MOL0     H97823   3.972  11.008   4.483 -0.8239 -0.6808 -0.7075
  725MOL0     H97824   3.794  11.144   4.371 -1.0729 -2.8493  1.8860
  725MOL0     H97825   3.866  11.284   4.437 -0.3870 -0.7707 -2.9877
  725MOL0     H97826   3.643  11.397   4.534  0.7711  0.7107  1.2492
  725MOL0     H97827   3.419  11.428   4.649  1.2187 -1.3254  2.1912
  725MOL0     H97828   3.332  11.314   4.531 -0.2181 -4.3876  0.0058
  725MOL0     H97829   3.387  11.240   4.818  0.2548 -0.6458 -1.4943
  725MOL0     H97830   3.263  11.168   4.698 -0.6851 -0.2145 -1.3075
  725MOL0     H97831   3.254  11.435   4.828  0.5562 -0.2951 -1.1310
  725MOL0     H97832   3.174  11.294   4.893  0.9246 -0.6232  0.0168
  725MOL0     H97833   3.114  11.353   4.609  1.8317  3.3970 -0.5826
  725MOL0     H97834   3.040  11.455   4.719 -0.9413  0.1300 -3.9309
  725MOL0     H97835   2.798  11.100   4.794  0.6668 -0.4657  1.0747
  725MOL0     H97836   2.532  11.086   5.048 -0.6782 -3.8453 -1.6513
  725MOL0     H97837   2.493  11.150   4.886  0.3582  2.2298 -0.0922
  725MOL0     H97838   2.612  11.022   4.906 -2.5629 -1.5447  0.6869
  725MOL0     H97839   2.383  11.170   5.273 -1.7836 -1.1060 -2.1094
  725MOL0     H97840   2.221  11.214   5.441  2.2654 -1.0314 -0.4891
  725MOL0     H97841   1.969  11.586   5.446  1.1720 -0.1186 -0.2313
  725MOL0     H97842   1.889  11.519   5.308  0.6545  2.6869  0.4086
  725MOL0     H97843   1.769  11.346   5.468 -3.0661  1.5880 -4.0412
  725MOL0     H97844   1.857  11.446   5.600 -1.9400  1.2270  0.0042
  725MOL0     H97845   1.672  11.569   5.387  1.9051 -0.7166 -0.5758
  725MOL0     H97846   1.732  11.637   5.544  0.5212  0.5992 -1.8207
  725MOL0     H97847   1.550  11.405   5.495 -0.1151  1.0794 -1.9556
  725MOL0     H97848   1.581  11.487   5.653  1.3947 -0.2489  0.1362
  725MOL0     H97849   1.357  11.553   5.554  1.0040 -1.1575  0.0243
  725MOL0     H97850   1.440  11.620   5.414 -0.4310  0.7387  0.1882
  725MOL0     H97851   1.473  11.687   5.715 -0.2443 -1.6481  0.5270
  725MOL0     H97852   1.547  11.778   5.578 -1.2707 -0.3255 -2.0962
  725MOL0     H97853   1.317  11.834   5.507  1.8636 -1.2390  0.1228
  725MOL0     H97854   1.354  11.897   5.678  1.4582  0.5452 -0.2132
  725MOL0     H97855   1.213  11.709   5.766  1.4288  0.7697  1.0003
  725MOL0     H97856   1.155  11.686   5.601  1.6784  1.9450 -2.2874
  725MOL0     H97857   2.091  11.582   5.257 -0.8487 -0.3530 -2.0492
  725MOL0     H97858   2.270  11.532   5.070 -2.6768 -1.7710 -0.9827
  725MOL0     H97859   2.830  11.479   5.098  0.8646  0.6739 -0.5528
  725MOL0     H97860   2.994  11.461   4.934  1.1570 -1.1895 -3.3336
  725MOL0     H97861   4.651  10.940   5.135  0.4963 -2.8912  1.4896
  725MOL0     H97862   4.861  10.902   5.226  0.7735 -0.0777  0.6806
  725MOL0     H97863   5.235  10.769   5.217  0.3085 -0.0932 -0.1654
  725MOL0     H97864   5.451  10.779   5.348  1.1427 -0.8886 -0.2485
  725MOL0     H97865   5.805  10.855   5.116 -0.5591  0.7490 -1.0135
  725MOL0     H97866   5.809  11.018   5.193  2.6814 -0.2032  1.6201
  725MOL0     H97867   5.888  10.768   5.354  0.3266  0.6106  2.6111
  725MOL0     H97868   5.922  10.944   5.377  0.0201  2.8646 -3.0999
  725MOL0     H97869   6.063  10.954   5.178  1.2838  0.3110  0.3985
  725MOL0     H97870   6.045  10.779   5.162  1.6958 -0.0294  0.4912
  725MOL0     H97871   6.173  10.938   5.401  0.7469  0.2659  0.3804
  725MOL0     H97872   6.260  10.840   5.279  0.4918 -0.9968  0.1886
  725MOL0     H97873   6.132  10.547   5.553  1.7351  0.9683  0.9474
  725MOL0     H97874   5.643  10.984   5.029  2.0965 -3.1519 -0.6366
  725MOL0     H97875   5.435  10.994   4.895  1.2584 -2.8081 -1.2634
  726MOL0     O97876   7.525   1.938   3.535 -0.2546  0.0213  0.4369
  726MOL0     C97877   7.523   2.004   3.437 -1.2322  0.3824 -0.3708
  726MOL0     O97878   7.433   2.098   3.405  0.1212  0.5350  0.6915
  726MOL0     C97879   7.331   2.131   3.497 -0.3058 -0.4934  0.6722
  726MOL0     C97880   7.332   2.248   3.568 -0.0160 -0.1735 -0.7168
  726MOL0     C97881   7.239   2.277   3.664  0.0678  0.5608  0.5598
  726MOL0     C97882   7.128   2.195   3.677 -0.6550 -0.4302  0.6550
  726MOL0     O97883   7.035   2.210   3.771  0.2063 -0.1857 -0.4364
  726MOL0     C97884   7.002   2.342   3.805  0.7329  0.2746 -0.0317
  726MOL0     C97885   6.858   2.358   3.871 -0.0429 -0.8134 -0.8103
  726MOL0     C97886   6.807   2.243   3.957  0.6127 -0.0915  0.5054
  726MOL0     C97887   6.663   2.257   3.996  0.9108 -0.4528  0.5257
  726MOL0     C97888   6.567   2.210   3.885 -0.0168 -0.3068  0.2147
  726MOL0     C97889   6.434   2.162   3.943 -0.2240  0.3472 -0.3598
  726MOL0     C97890   6.335   2.131   3.826  0.2459 -0.1084  0.1700
  726MOL0     C97891   6.267   1.997   3.857  0.2608 -0.8337  0.1432
  726MOL0     N97892   6.152   2.032   3.934  0.6987 -0.0375 -0.7885
  726MOL0     C97893   6.146   2.104   4.050  0.1884  0.3718  0.8376
  726MOL0     C97894   6.017   2.137   4.065  1.0724 -0.0905  0.3630
  726MOL0     C97895   5.959   2.183   4.200 -0.7811  0.4979  0.5939
  726MOL0     C97896   5.931   2.055   4.287 -0.0606  0.5637 -0.8358
  726MOL0     C97897   5.835   1.950   4.220 -0.2450 -0.2056  0.1340
  726MOL0     C97898   5.697   2.004   4.175  1.1234 -0.0846  0.2563
  726MOL0     O97899   5.628   2.066   4.287  0.2344 -0.0030  0.3888
  726MOL0     C97900   5.491   2.092   4.270 -0.0225  0.5442  0.8855
  726MOL0     C97901   5.440   2.162   4.375  0.1535  0.4825  0.0965
  726MOL0     C97902   5.300   2.198   4.380 -0.3259  0.4990 -0.1411
  726MOL0     C97903   5.252   2.263   4.512  0.1734  0.1662  0.2033
  726MOL0     C97904   5.214   2.151   4.276 -0.0249 -0.0750 -0.3774
  726MOL0     C97905   5.072   2.184   4.268  0.5937  0.4805  0.0569
  726MOL0     O97906   5.013   2.273   4.345  0.6387  0.1112 -0.3923
  726MOL0     C97907   4.870   2.284   4.345 -0.5697 -0.6550 -0.1381
  726MOL0     C97908   4.793   2.198   4.431  0.3307 -0.7102  0.2135
  726MOL0     C97909   4.651   2.216   4.430  0.1422 -0.4234 -0.0717
  726MOL0     C97910   4.592   2.322   4.358  0.6317  0.3073  0.3041
  726MOL0     O97911   4.454   2.322   4.359 -1.1273 -0.2830  0.2069
  726MOL0     C97912   4.394   2.291   4.485 -0.6828  0.3819 -0.3246
  726MOL0     C97913   4.261   2.359   4.504  0.2015 -0.7230  0.0341
  726MOL0     C97914   4.168   2.294   4.609 -0.7068 -0.3682 -0.0700
  726MOL0     C97915   4.026   2.356   4.628 -0.4894  0.0881  0.7210
  726MOL0     C97916   3.921   2.291   4.545  0.5112  0.5959  0.4477
  726MOL0     C97917   3.784   2.360   4.549  0.0278 -0.1146 -0.2849
  726MOL0     C97918   3.695   2.301   4.663 -0.6113 -0.2771  0.8572
  726MOL0     C97919   3.551   2.351   4.644 -0.6175 -0.1594 -0.0686
  726MOL0    Cl97920   3.445   2.215   4.661 -0.2299  0.2824  0.1260
  726MOL0     C97921   4.671   2.411   4.290  0.6118  0.1194 -1.0400
  726MOL0     C97922   4.815   2.394   4.280  0.5221  1.1315 -0.7342
  726MOL0     O97923   5.010   2.104   4.193  0.3369  0.6047 -0.2757
  726MOL0     C97924   5.271   2.090   4.162 -0.2542  0.6637  0.9392
  726MOL0     C97925   5.408   2.066   4.157 -0.4530  1.8623 -0.5776
  726MOL0     N97926   5.947   2.114   3.945  0.9755  1.2172 -0.6991
  726MOL0     N97927   6.025   2.037   3.874 -0.5227  0.2065 -0.1223
  726MOL0     C97928   7.118   2.085   3.595  0.6166 -0.5697 -0.8087
  726MOL0     C97929   7.214   2.054   3.505 -0.0796 -0.0942 -0.1177
  726MOL0     C97930   7.645   1.990   3.349  0.2849  0.4405  0.3575
  726MOL0     C97931   7.658   2.053   3.227  0.9266  0.7535 -0.9770
  726MOL0     C97932   7.773   2.035   3.149 -0.7157  0.4694 -0.0957
  726MOL0     C97933   7.885   1.979   3.205 -0.4662  0.4364  0.1115
  726MOL0     O97934   8.010   1.978   3.151  0.5369 -0.1163 -0.1464
  726MOL0     C97935   8.038   1.927   3.012 -0.1887  0.1457 -0.1690
  726MOL0     C97936   7.973   1.798   2.973  0.5029  0.0749  0.1039
  726MOL0     C97937   8.022   1.779   2.829  0.4522  0.2127  0.1886
  726MOL0     C97938   7.947   1.864   2.730  0.0418  0.2104 -0.7145
  726MOL0     C97939   8.030   1.882   2.611 -1.0858  0.1216 -0.4042
  726MOL0     C97940   8.092   1.902   2.510  0.0756 -0.0826 -0.8072
  726MOL0     C97941   7.868   1.918   3.323 -0.2606  0.0614 -0.3356
  726MOL0     C97942   7.752   1.914   3.397  0.3391 -0.1399 -0.3562
  726MOL0     H97943   7.408   2.325   3.568 -1.9241  1.8388 -2.0486
  726MOL0     H97944   7.244   2.366   3.726 -1.3903  2.1290 -1.4556
  726MOL0     H97945   7.077   2.378   3.875 -0.3919  0.3966  1.1470
  726MOL0     H97946   7.003   2.410   3.719  2.6902  2.5334  1.6356
  726MOL0     H97947   6.868   2.444   3.938 -0.4779 -1.8503  0.6290
  726MOL0     H97948   6.783   2.400   3.804 -1.8029  0.4468  1.7749
  726MOL0     H97949   6.817   2.151   3.899  0.7708  0.1465  0.1525
  726MOL0     H97950   6.865   2.226   4.048 -1.7578  0.1486  2.1542
  726MOL0     H97951   6.648   2.199   4.088 -0.9018 -2.0642 -0.6935
  726MOL0     H97952   6.632   2.358   4.023 -2.9791 -2.1353  3.3194
  726MOL0     H97953   6.553   2.287   3.809  2.8478  0.6747  0.5242
  726MOL0     H97954   6.616   2.124   3.839 -0.4694 -0.5993  0.2790
  726MOL0     H97955   6.457   2.075   4.004 -2.2133 -0.6397 -0.9467
  726MOL0     H97956   6.383   2.235   4.007 -1.3670 -0.9170  0.2074
  726MOL0     H97957   6.260   2.210   3.816 -0.5919 -0.4595  2.7974
  726MOL0     H97958   6.389   2.115   3.733  0.6286 -1.1657  0.5503
  726MOL0     H97959   6.337   1.928   3.905  2.1440 -1.0431 -2.6689
  726MOL0     H97960   6.241   1.948   3.763 -0.2725 -1.5817  0.6773
  726MOL0     H97961   6.222   2.128   4.123 -0.2583 -2.6373  2.4483
  726MOL0     H97962   6.032   2.247   4.250  0.9170 -0.2040 -0.9010
  726MOL0     H97963   5.868   2.243   4.186  1.2839  3.5239 -0.9506
  726MOL0     H97964   5.878   2.078   4.380  0.2299  1.3593 -0.8578
  726MOL0     H97965   6.028   2.010   4.311 -1.2649  0.0190  3.9836
  726MOL0     H97966   5.810   1.879   4.300  2.1218 -1.2813 -0.0013
  726MOL0     H97967   5.880   1.896   4.136 -1.9049  0.7681 -1.4545
  726MOL0     H97968   5.638   1.914   4.155 -0.5975  0.3121  3.0680
  726MOL0     H97969   5.709   2.070   4.090  3.1710  0.1550  0.6720
  726MOL0     H97970   5.518   2.181   4.449  2.7252 -3.2061 -1.3426
  726MOL0     H97971   5.180   2.207   4.573 -0.4248  1.5005  0.7496
  726MOL0     H97972   5.334   2.289   4.579 -2.7329  0.6060  3.9119
  726MOL0     H97973   5.190   2.350   4.492 -1.7877 -0.9783  1.0224
  726MOL0     H97974   4.833   2.122   4.498 -1.5793 -2.2847 -0.3280
  726MOL0     H97975   4.590   2.147   4.486  0.2359 -0.5029 -0.0688
  726MOL0     H97976   4.386   2.182   4.489  2.4680  0.1090  2.1764
  726MOL0     H97977   4.458   2.305   4.573 -0.5137 -5.8822  1.0209
  726MOL0     H97978   4.272   2.466   4.524  1.1386 -0.7033 -0.5293
  726MOL0     H97979   4.210   2.354   4.407  1.3123 -1.2677 -0.5514
  726MOL0     H97980   4.219   2.301   4.705 -0.4776  2.1351 -0.3208
  726MOL0     H97981   4.164   2.194   4.564 -1.2348 -0.3021 -0.1745
  726MOL0     H97982   3.997   2.353   4.734  0.4002  1.4101  1.0257
  726MOL0     H97983   4.018   2.461   4.597 -1.4503 -0.4869 -1.0995
  726MOL0     H97984   3.903   2.189   4.578 -0.5014  0.8651  0.7676
  726MOL0     H97985   3.951   2.292   4.440 -0.5150 -0.1260  0.1351
  726MOL0     H97986   3.804   2.467   4.562  1.7236 -0.2296 -1.5279
  726MOL0     H97987   3.727   2.344   4.457 -1.1254  0.7578  0.2649
  726MOL0     H97988   3.739   2.312   4.763  0.8174 -1.4359  0.4055
  726MOL0     H97989   3.698   2.193   4.647  0.7313 -0.0986 -0.3155
  726MOL0     H97990   3.545   2.398   4.546  4.1499  1.7814  0.2975
  726MOL0     H97991   3.517   2.425   4.717 -1.3050  1.8269 -2.3137
  726MOL0     H97992   4.623   2.499   4.249  1.3274  0.5165 -1.0472
  726MOL0     H97993   4.887   2.458   4.230  3.2513 -1.3510 -0.2598
  726MOL0     H97994   5.213   2.072   4.072  1.3365 -0.7148  0.1364
  726MOL0     H97995   5.451   2.012   4.073 -1.0177  1.3261 -0.5323
  726MOL0     H97996   7.035   2.015   3.600  1.2862 -1.3244  0.3607
  726MOL0     H97997   7.200   1.964   3.446 -0.7977 -1.0831  1.5032
  726MOL0     H97998   7.582   2.118   3.184 -1.5596 -1.3445 -0.0692
  726MOL0     H97999   7.770   2.079   3.049 -1.4735  0.6440 -0.0002
  726MOL0     H98000   8.015   2.000   2.934 -2.5153 -0.8589 -0.4928
  726MOL0     H98001   8.145   1.908   3.003 -0.4218 -0.1422 -3.9425
  726MOL0     H98002   7.866   1.818   2.984  0.7169  0.4919  1.6363
  726MOL0     H98003   8.005   1.718   3.040  1.5654  2.7680  3.0250
  726MOL0     H98004   7.985   1.680   2.801 -3.0959  1.3337  0.4219
  726MOL0     H98005   8.131   1.785   2.824  0.4703 -0.8105 -1.5388
  726MOL0     H98006   7.907   1.956   2.772 -4.4418 -1.5355 -0.7031
  726MOL0     H98007   7.855   1.815   2.696 -0.3478  0.9046 -0.6761
  726MOL0     H98008   8.143   1.924   2.418 -1.0367  0.3794 -1.3425
  726MOL0     H98009   7.947   1.859   3.368 -0.6048 -1.7336 -1.9181
  726MOL0     H98010   7.746   1.865   3.494  0.4061  3.4567  1.6497
  727MOL0     O98011   4.574   4.264   7.146 -0.2961 -0.2950  0.5673
  727MOL0     C98012   4.586   4.370   7.077 -0.1444 -0.4104 -0.8598
  727MOL0     O98013   4.508   4.481   7.074  0.5076  0.1504  0.2181
  727MOL0     C98014   4.392   4.495   7.131 -0.4308  0.1429 -0.2108
  727MOL0     C98015   4.305   4.576   7.064 -0.4726  0.1167  0.7729
  727MOL0     C98016   4.177   4.616   7.114  0.3905 -0.9808 -0.0891
  727MOL0     C98017   4.138   4.568   7.245 -0.4520  0.5135 -0.1716
  727MOL0     O98018   4.020   4.586   7.308 -0.1199 -0.1767  0.5863
  727MOL0     C98019   3.949   4.703   7.260 -0.1716  0.1415 -0.0735
  727MOL0     C98020   3.837   4.716   7.368  0.4176 -0.9999  0.1102
  727MOL0     C98021   3.716   4.622   7.335 -0.2909 -0.4942 -0.0827
  727MOL0     C98022   3.581   4.654   7.406 -0.1150 -0.7725 -0.2024
  727MOL0     C98023   3.523   4.794   7.364  0.1804  0.9462  0.5053
  727MOL0     C98024   3.381   4.827   7.408 -0.4524  0.0574  0.2565
  727MOL0     C98025   3.284   4.753   7.310  0.3734  0.6169 -0.0364
  727MOL0     C98026   3.139   4.779   7.341  0.2456  0.0231 -0.3591
  727MOL0     N98027   3.101   4.732   7.478  0.4822 -0.0468 -0.5719
  727MOL0     C98028   3.104   4.610   7.529  0.6705  0.0358 -0.4403
  727MOL0     C98029   3.041   4.618   7.652 -1.0947  0.2095  0.4781
  727MOL0     C98030   3.022   4.511   7.753  0.8263 -0.0738  0.1399
  727MOL0     C98031   2.893   4.519   7.836 -0.8474  0.6640  0.2467
  727MOL0     C98032   2.770   4.455   7.777 -0.1635  0.8682 -0.9740
  727MOL0     C98033   2.745   4.310   7.836  0.4299  0.3036  0.2523
  727MOL0     O98034   2.678   4.228   7.739 -0.1848  0.0862  0.1812
  727MOL0     C98035   2.563   4.286   7.686  0.1373 -0.0135 -0.1365
  727MOL0     C98036   2.462   4.355   7.761 -0.2937  0.0251  0.7861
  727MOL0     C98037   2.344   4.410   7.709  0.3142  0.5832 -0.1038
  727MOL0     C98038   2.251   4.483   7.806 -0.2237 -0.2049  0.4813
  727MOL0     C98039   2.325   4.391   7.569  0.0585  0.5575  0.8416
  727MOL0     C98040   2.213   4.451   7.493  1.0332  0.7792  0.2208
  727MOL0     O98041   2.213   4.423   7.359 -0.0375  0.3299 -0.4077
  727MOL0     C98042   2.104   4.441   7.284  0.5165  0.1221  0.4518
  727MOL0     C98043   1.986   4.363   7.301  0.2240 -0.4139 -0.4029
  727MOL0     C98044   1.878   4.393   7.214  0.5710 -0.8056 -0.9266
  727MOL0     C98045   1.875   4.503   7.134 -0.0806  0.5006  0.9389
  727MOL0     O98046   1.768   4.544   7.064  0.3130 -0.4223  0.2532
  727MOL0     C98047   1.699   4.646   7.129 -0.6173 -0.3074 -0.4195
  727MOL0     C98048   1.557   4.596   7.163 -0.1615 -0.2585 -1.0396
  727MOL0     C98049   1.549   4.516   7.298  0.2427  0.7080  0.4025
  727MOL0     C98050   1.416   4.432   7.299 -0.0472 -0.6753 -0.6980
  727MOL0     C98051   1.309   4.528   7.336  0.3309  0.2355  0.4743
  727MOL0     C98052   1.184   4.443   7.379 -0.6451  0.0589 -0.2263
  727MOL0     C98053   1.071   4.536   7.398 -0.6438  0.4377 -0.4241
  727MOL0     C98054   0.941   4.468   7.375 -0.2615 -0.3028  0.5598
  727MOL0    Cl98055   0.905   4.341   7.489  0.2727  0.0340 -0.1768
  727MOL0     C98056   1.985   4.581   7.117 -0.1430  0.0518  0.4601
  727MOL0     C98057   2.105   4.545   7.189  0.1096  0.0627 -0.3712
  727MOL0     O98058   2.123   4.512   7.545  0.8427  0.1060 -0.0432
  727MOL0     C98059   2.422   4.322   7.489  0.4079 -0.3316 -0.1187
  727MOL0     C98060   2.540   4.281   7.554  0.6899  0.5322  0.6698
  727MOL0     N98061   3.036   4.753   7.681  0.6548 -0.1235  0.5584
  727MOL0     N98062   3.068   4.816   7.578  0.4115 -0.8319 -0.1439
  727MOL0     C98063   4.235   4.488   7.306  1.2950 -0.0210  1.1622
  727MOL0     C98064   4.361   4.453   7.269 -0.0030 -1.3323  0.6947
  727MOL0     C98065   4.711   4.378   6.999  0.0020  0.0781 -0.3678
  727MOL0     C98066   4.808   4.272   7.003 -0.7200 -0.3665  0.8060
  727MOL0     C98067   4.927   4.304   6.938 -0.8072 -0.7774  0.3031
  727MOL0     C98068   4.946   4.413   6.851  0.6978 -0.0504  0.5192
  727MOL0     O98069   5.052   4.430   6.762  0.0311  0.2928 -0.1033
  727MOL0     C98070   5.181   4.382   6.790 -0.0626  0.4598 -0.3134
  727MOL0     C98071   5.228   4.464   6.912 -0.2055  0.3578 -0.7070
  727MOL0     C98072   5.362   4.421   6.963  0.7964  0.6964  0.1699
  727MOL0     C98073   5.479   4.471   6.879  0.2937  0.6030 -0.1523
  727MOL0     C98074   5.601   4.398   6.912 -0.0822 -0.5172 -0.6255
  727MOL0     C98075   5.705   4.354   6.942 -0.4550 -0.1677  0.5877
  727MOL0     C98076   4.850   4.519   6.858  0.3674 -1.0894  0.6533
  727MOL0     C98077   4.726   4.500   6.928  0.0180 -0.4951 -0.1156
  727MOL0     H98078   4.334   4.611   6.966 -3.0701  0.1124 -0.0724
  727MOL0     H98079   4.115   4.681   7.054  1.0214  2.3030  2.5242
  727MOL0     H98080   4.014   4.790   7.266 -1.0856  0.7798  1.0008
  727MOL0     H98081   3.910   4.685   7.159 -1.3654  0.8629  0.2430
  727MOL0     H98082   3.874   4.704   7.470 -0.1899  0.7527  0.5733
  727MOL0     H98083   3.808   4.821   7.357 -0.0674 -1.0391  0.9670
  727MOL0     H98084   3.704   4.628   7.227  1.1088 -2.4441 -0.3844
  727MOL0     H98085   3.746   4.519   7.357 -0.4151 -1.1995 -2.8685
  727MOL0     H98086   3.512   4.572   7.388 -1.2378 -0.5683  2.6492
  727MOL0     H98087   3.599   4.668   7.513 -0.3865  1.2694 -0.3808
  727MOL0     H98088   3.581   4.872   7.413  1.8060  1.2245 -1.6767
  727MOL0     H98089   3.532   4.811   7.256  3.2490 -1.3812  0.2416
  727MOL0     H98090   3.362   4.793   7.510  1.6191  0.9458  0.9768
  727MOL0     H98091   3.350   4.932   7.408 -0.3421  0.1187  2.3309
  727MOL0     H98092   3.307   4.804   7.216 -1.5555  1.8897  0.1191
  727MOL0     H98093   3.303   4.646   7.301 -0.4505  0.2907  1.7257
  727MOL0     H98094   3.070   4.724   7.276  1.1677 -2.6872  0.8362
  727MOL0     H98095   3.120   4.886   7.327  0.9744  0.6928  2.9232
  727MOL0     H98096   3.123   4.517   7.476 -0.4798  0.2989 -1.3486
  727MOL0     H98097   3.036   4.412   7.709  1.5721 -0.4285  1.1212
  727MOL0     H98098   3.108   4.520   7.821  1.7742 -2.2484 -0.6630
  727MOL0     H98099   2.865   4.624   7.848 -0.0111  1.2851 -2.5380
  727MOL0     H98100   2.922   4.481   7.935  2.5700  0.0829 -0.8488
  727MOL0     H98101   2.763   4.446   7.669 -1.1697  0.0535 -0.8556
  727MOL0     H98102   2.684   4.517   7.805 -0.4822  0.0988 -0.2082
  727MOL0     H98103   2.686   4.318   7.928  1.7251  1.0801  1.0365
  727MOL0     H98104   2.841   4.260   7.849  2.0468  3.4577  1.2036
  727MOL0     H98105   2.479   4.363   7.868 -1.0013  0.5655  0.8575
  727MOL0     H98106   2.161   4.427   7.832  0.1561 -0.6945  0.7657
  727MOL0     H98107   2.302   4.478   7.903  2.6843 -1.5907 -0.9781
  727MOL0     H98108   2.233   4.587   7.780  2.8280 -0.1152 -1.8141
  727MOL0     H98109   1.984   4.286   7.377  0.6262  0.0117  0.0475
  727MOL0     H98110   1.786   4.335   7.219 -0.7813  1.3346  2.3428
  727MOL0     H98111   1.750   4.689   7.217  1.1102 -1.4111 -0.8293
  727MOL0     H98112   1.683   4.727   7.057 -0.8873  2.4576  2.4899
  727MOL0     H98113   1.480   4.673   7.160 -2.4124 -2.3518  0.0282
  727MOL0     H98114   1.529   4.522   7.087  1.5225 -0.9433 -1.0509
  727MOL0     H98115   1.557   4.579   7.387  4.3822  1.9427 -0.6244
  727MOL0     H98116   1.639   4.454   7.305 -1.7077 -2.7113 -2.1117
  727MOL0     H98117   1.401   4.370   7.210  2.2428 -1.4538 -0.6056
  727MOL0     H98118   1.423   4.366   7.387  1.4542  1.3051  0.7695
  727MOL0     H98119   1.282   4.590   7.250 -0.9310  1.5788  1.7680
  727MOL0     H98120   1.323   4.597   7.420 -2.2959 -1.4897  2.4823
  727MOL0     H98121   1.165   4.375   7.296 -2.0703  1.3204 -0.9767
  727MOL0     H98122   1.196   4.386   7.471  0.0709  1.1718  0.3909
  727MOL0     H98123   1.079   4.606   7.313 -2.7509  1.7130  0.3374
  727MOL0     H98124   1.072   4.584   7.496  1.8448 -0.3647 -0.0049
  727MOL0     H98125   0.939   4.412   7.281  2.0421 -1.5981  1.1887
  727MOL0     H98126   0.857   4.538   7.379 -1.0383 -1.2167  0.6732
  727MOL0     H98127   1.986   4.662   7.045 -2.8848 -1.8776 -1.9923
  727MOL0     H98128   2.199   4.597   7.177  1.1314 -1.9937 -2.0021
  727MOL0     H98129   2.403   4.308   7.383 -0.7006  0.7185 -0.0765
  727MOL0     H98130   2.617   4.235   7.493 -0.9827 -0.4758 -0.7911
  727MOL0     H98131   4.211   4.449   7.405  0.7469 -2.5959  0.0892
  727MOL0     H98132   4.441   4.406   7.325  2.5179 -0.7695 -2.1730
  727MOL0     H98133   4.802   4.188   7.071  1.9574 -0.7135  0.7131
  727MOL0     H98134   5.005   4.228   6.933  1.4431  1.4291 -0.1753
  727MOL0     H98135   5.173   4.274   6.804  2.5896  0.2061 -0.2229
  727MOL0     H98136   5.243   4.398   6.701  1.3589 -0.3424  0.4883
  727MOL0     H98137   5.160   4.445   6.995  1.3304 -0.5248  0.4059
  727MOL0     H98138   5.221   4.568   6.881 -4.0096  0.0638 -1.3050
  727MOL0     H98139   5.373   4.312   6.974 -0.6923  0.5054 -0.0381
  727MOL0     H98140   5.374   4.462   7.064 -0.1238 -0.9771  1.0113
  727MOL0     H98141   5.504   4.576   6.891 -0.5098  1.0219 -1.8184
  727MOL0     H98142   5.450   4.440   6.778 -0.2989 -1.4135  0.5667
  727MOL0     H98143   5.806   4.323   6.962 -1.0497 -2.5040  0.2676
  727MOL0     H98144   4.853   4.607   6.794 -1.8665 -1.0011  0.5700
  727MOL0     H98145   4.653   4.578   6.909 -2.0907 -2.8281 -2.0997
  728MOL0     O98146  10.893   1.813  10.022 -0.6085 -0.3093 -0.2946
  728MOL0     C98147  10.969   1.891  10.082 -0.1661 -0.2187  0.4103
  728MOL0     O98148  10.993   2.019  10.050 -0.0306  0.2325 -0.6764
  728MOL0     C98149  10.928   2.049   9.936  0.2467  0.1504 -0.6944
  728MOL0     C98150  10.789   2.076   9.934 -0.3481 -0.1243 -0.7380
  728MOL0     C98151  10.725   2.108   9.818 -0.2939  0.0313  0.0379
  728MOL0     C98152  10.796   2.107   9.700 -0.6479  1.4313  0.6183
  728MOL0     O98153  10.739   2.118   9.574  0.9254  0.5040 -0.7231
  728MOL0     C98154  10.605   2.089   9.560 -0.6294 -0.6965  0.9236
  728MOL0     C98155  10.524   2.220   9.565 -0.2319 -0.2928 -0.1474
  728MOL0     C98156  10.391   2.205   9.644  0.3640 -0.5452 -0.3836
  728MOL0     C98157  10.283   2.170   9.545  0.0313  0.5046 -0.8502
  728MOL0     C98158  10.140   2.173   9.612  0.4304 -0.6085 -0.1150
  728MOL0     C98159  10.037   2.126   9.502 -1.1208  0.6265 -0.0466
  728MOL0     C98160   9.898   2.150   9.543 -0.0276  0.0465  0.0704
  728MOL0     C98161   9.872   2.285   9.609  0.2978  0.5752  0.9584
  728MOL0     N98162   9.732   2.280   9.648 -0.1049 -0.7050 -0.1519
  728MOL0     C98163   9.637   2.350   9.574  0.0213 -0.9800 -0.2165
  728MOL0     C98164   9.520   2.334   9.647 -0.0005  0.5082 -0.9870
  728MOL0     C98165   9.379   2.384   9.627 -0.3083  0.2489 -0.5552
  728MOL0     C98166   9.333   2.365   9.486  0.4346 -0.1321  0.3681
  728MOL0     C98167   9.190   2.420   9.463  0.5176  0.3955  1.1241
  728MOL0     C98168   9.133   2.392   9.325  1.3061  0.1997 -0.4149
  728MOL0     O98169   9.208   2.443   9.217  0.0102 -0.7750  0.3531
  728MOL0     C98170   9.161   2.532   9.124 -0.1745  0.5333 -0.0200
  728MOL0     C98171   9.262   2.612   9.063 -0.5859  0.2600 -0.1322
  728MOL0     C98172   9.219   2.706   8.971  0.1916  0.1162  0.2081
  728MOL0     C98173   9.336   2.790   8.917 -0.1355  0.3901  0.0408
  728MOL0     C98174   9.082   2.717   8.933 -0.8004 -0.0624 -0.2942
  728MOL0     C98175   9.029   2.805   8.821 -0.1837 -1.0430  0.7193
  728MOL0     O98176   9.100   2.822   8.703 -0.8838 -0.5023  0.0975
  728MOL0     C98177   9.048   2.910   8.612  0.7089 -0.4588 -0.9188
  728MOL0     C98178   9.102   3.040   8.594 -0.5403 -0.0972 -0.3315
  728MOL0     C98179   9.048   3.133   8.496 -0.6069 -0.5566 -0.6927
  728MOL0     C98180   8.939   3.094   8.418  1.2074 -0.1778 -0.1964
  728MOL0     O98181   8.890   3.171   8.305 -0.3559 -0.4432 -0.7427
  728MOL0     C98182   8.909   3.316   8.312  0.2192  0.7409 -0.3236
  728MOL0     C98183   8.813   3.382   8.419 -0.5408  0.2015  0.1907
  728MOL0     C98184   8.669   3.352   8.420  0.5017 -0.5349 -0.6067
  728MOL0     C98185   8.604   3.426   8.538 -0.0981  0.0310  0.3882
  728MOL0     C98186   8.455   3.396   8.520 -1.2299 -0.5866  0.1119
  728MOL0     C98187   8.376   3.454   8.634  0.2497 -0.2011 -0.1276
  728MOL0     C98188   8.233   3.404   8.641  0.4719  0.0304  0.3199
  728MOL0     C98189   8.144   3.480   8.530  0.1862 -0.4608  0.1009
  728MOL0    Cl98190   8.130   3.644   8.584 -0.5253  0.1870  0.5478
  728MOL0     C98191   8.886   2.970   8.440  0.0455  0.5254  0.3250
  728MOL0     C98192   8.937   2.872   8.530 -0.3847  0.5650 -1.3983
  728MOL0     O98193   8.915   2.836   8.837  0.3906 -0.0780 -0.5248
  728MOL0     C98194   8.986   2.640   9.000 -0.0840 -0.3421 -0.8120
  728MOL0     C98195   9.024   2.551   9.097 -0.6430  0.8397 -0.0252
  728MOL0     N98196   9.541   2.239   9.748  0.5971  0.2609  0.0063
  728MOL0     N98197   9.670   2.221   9.757  0.1374  0.0361  0.3463
  728MOL0     C98198  10.935   2.081   9.703  0.4077 -0.3790 -0.6652
  728MOL0     C98199  10.998   2.061   9.823 -0.3165  0.0722  0.0393
  728MOL0     C98200  11.052   1.838  10.194 -0.6065  0.3111 -0.6098
  728MOL0     C98201  11.067   1.692  10.211  0.3635 -0.4104 -0.0517
  728MOL0     C98202  11.139   1.632  10.310  0.3066 -1.2713  0.3698
  728MOL0     C98203  11.200   1.715  10.404  0.9364  0.1214 -0.5824
  728MOL0     O98204  11.273   1.664  10.506 -0.5250 -0.2243  0.4942
  728MOL0     C98205  11.209   1.677  10.635  0.2313  0.8873  0.7419
  728MOL0     C98206  11.128   1.549  10.666  0.7206 -0.3056 -0.0971
  728MOL0     C98207  11.222   1.428  10.687 -0.8254  0.0563 -0.0869
  728MOL0     C98208  11.164   1.309  10.769 -0.0679 -0.2181  0.4373
  728MOL0     C98209  11.243   1.188  10.759  0.8044  0.6004  1.1654
  728MOL0     C98210  11.289   1.082  10.718 -0.5475  0.2510 -0.3037
  728MOL0     C98211  11.184   1.850  10.400  0.0595 -0.3217 -0.0797
  728MOL0     C98212  11.119   1.916  10.297 -0.2616  0.4172  0.7017
  728MOL0     H98213  10.735   2.072  10.028 -0.1577 -0.8061 -0.6477
  728MOL0     H98214  10.618   2.124   9.810  0.3344  4.1980 -3.0249
  728MOL0     H98215  10.594   2.045   9.461  1.9253 -2.4915  1.3275
  728MOL0     H98216  10.581   2.009   9.631  1.4059 -2.5268 -0.3262
  728MOL0     H98217  10.587   2.294   9.615 -0.9376 -1.2358  2.2503
  728MOL0     H98218  10.506   2.267   9.468 -1.9673 -1.9886 -0.6956
  728MOL0     H98219  10.391   2.130   9.724 -1.4656 -0.1120  0.0671
  728MOL0     H98220  10.381   2.303   9.694  2.3778 -2.4956  4.5278
  728MOL0     H98221  10.290   2.228   9.453  1.9684 -0.4178 -1.3448
  728MOL0     H98222  10.306   2.067   9.514  0.7194  0.2487  0.4353
  728MOL0     H98223  10.142   2.103   9.697  0.3662  0.1660  0.5339
  728MOL0     H98224  10.131   2.273   9.655  1.5471 -0.1407 -0.9204
  728MOL0     H98225  10.054   2.172   9.404 -4.6161 -3.1131 -2.7518
  728MOL0     H98226  10.056   2.020   9.485 -3.1184  0.5640 -2.4440
  728MOL0     H98227   9.841   2.160   9.451  0.0917  0.0658 -0.0012
  728MOL0     H98228   9.850   2.069   9.599  1.1497  1.0471  2.7246
  728MOL0     H98229   9.896   2.360   9.533  0.3948 -0.4694 -0.0786
  728MOL0     H98230   9.926   2.294   9.704  1.5889 -0.7388  0.3950
  728MOL0     H98231   9.636   2.415   9.487 -1.0939 -1.6272 -0.7036
  728MOL0     H98232   9.309   2.330   9.690 -2.9163  0.1270 -3.3409
  728MOL0     H98233   9.363   2.488   9.659 -0.8591 -0.0820  0.2713
  728MOL0     H98234   9.343   2.259   9.464  0.3932 -0.5194  2.0875
  728MOL0     H98235   9.396   2.421   9.416  0.0518  0.4304  0.4665
  728MOL0     H98236   9.205   2.528   9.472  2.6174  0.1962  0.6614
  728MOL0     H98237   9.118   2.390   9.539 -0.5107  0.6773  0.2827
  728MOL0     H98238   9.031   2.430   9.331  1.0983 -0.2332 -1.1035
  728MOL0     H98239   9.124   2.283   9.318  0.0058  0.3668 -2.1152
  728MOL0     H98240   9.365   2.597   9.096 -0.8955  2.4076  2.0651
  728MOL0     H98241   9.395   2.723   8.855 -0.0989 -1.2367  1.7395
  728MOL0     H98242   9.303   2.886   8.875 -1.2339  0.4239  0.9130
  728MOL0     H98243   9.397   2.825   9.002  2.0066 -0.9912 -0.8450
  728MOL0     H98244   9.192   3.077   8.641 -1.0866  0.7699  0.0628
  728MOL0     H98245   9.098   3.227   8.479 -0.7891  0.0687  1.7610
  728MOL0     H98246   9.015   3.343   8.321  0.0088  1.7770 -0.8179
  728MOL0     H98247   8.888   3.357   8.213  1.8095 -0.7977 -1.3582
  728MOL0     H98248   8.851   3.368   8.520  1.2758  1.7591 -0.2242
  728MOL0     H98249   8.817   3.489   8.399 -2.4036  0.3204  0.2397
  728MOL0     H98250   8.666   3.244   8.437  0.8419 -0.5024 -0.3439
  728MOL0     H98251   8.616   3.390   8.332 -3.2427 -1.2815  1.1263
  728MOL0     H98252   8.628   3.382   8.635  1.0139 -3.3026 -1.2287
  728MOL0     H98253   8.625   3.533   8.542  1.5570 -0.2208 -0.4799
  728MOL0     H98254   8.433   3.289   8.513 -1.1012 -0.5567 -0.8730
  728MOL0     H98255   8.428   3.448   8.428 -0.2752 -3.0775 -1.6723
  728MOL0     H98256   8.425   3.427   8.728 -0.2372  0.9893  0.4867
  728MOL0     H98257   8.373   3.564   8.636 -1.1920 -0.2307  0.1460
  728MOL0     H98258   8.177   3.425   8.733 -0.0580  2.3776 -0.4545
  728MOL0     H98259   8.225   3.297   8.621 -0.8143  0.2215 -0.2888
  728MOL0     H98260   8.045   3.435   8.525  0.0487 -0.1211 -0.2231
  728MOL0     H98261   8.189   3.493   8.431 -1.3058  3.6290 -0.2185
  728MOL0     H98262   8.813   2.929   8.371 -0.8605  0.5242  1.2534
  728MOL0     H98263   8.904   2.771   8.548 -0.2782  0.9761  1.7416
  728MOL0     H98264   8.879   2.651   8.981 -0.0716 -1.2914 -1.4913
  728MOL0     H98265   8.953   2.493   9.155  0.1787 -2.5347 -2.0812
  728MOL0     H98266  10.994   2.084   9.612  2.5027 -3.4689  0.4485
  728MOL0     H98267  11.106   2.052   9.821 -0.2275  1.2199 -1.3686
  728MOL0     H98268  11.022   1.637  10.130  0.3970  1.5034 -1.4334
  728MOL0     H98269  11.173   1.529  10.308  0.3739 -1.3453  2.3798
  728MOL0     H98270  11.279   1.689  10.718 -0.8166 -2.8994  2.3803
  728MOL0     H98271  11.146   1.767  10.637 -0.8581  0.1693 -0.1392
  728MOL0     H98272  11.069   1.526  10.577  0.5407 -1.6759  0.3613
  728MOL0     H98273  11.052   1.567  10.742 -2.4356  1.2422 -3.3264
  728MOL0     H98274  11.319   1.449  10.733  1.0294 -4.7095 -1.2164
  728MOL0     H98275  11.248   1.387  10.589 -1.7404 -0.5240 -0.0910
  728MOL0     H98276  11.061   1.290  10.736 -0.1555 -0.8736  1.0752
  728MOL0     H98277  11.162   1.337  10.875  1.6196 -0.2685  0.4959
  728MOL0     H98278  11.329   0.995  10.670  1.0899  0.8830 -0.1630
  728MOL0     H98279  11.234   1.900  10.482  0.4037 -0.9330  0.0901
  728MOL0     H98280  11.105   2.024  10.303  0.0102  0.4538  0.7023
  729MOL0     O98281   2.497   1.408   6.824  0.3286 -0.4428 -0.4573
  729MOL0     C98282   2.507   1.299   6.889 -0.0589 -0.4264 -0.2612
  729MOL0     O98283   2.394   1.209   6.912 -0.1876 -0.1888  0.4123
  729MOL0     C98284   2.268   1.248   6.864 -0.0044  0.1669 -0.1355
  729MOL0     C98285   2.222   1.176   6.759 -0.4051  0.7885 -0.1499
  729MOL0     C98286   2.102   1.202   6.699 -0.5238  0.4696 -0.1689
  729MOL0     C98287   2.018   1.303   6.755  0.2528  0.0137  0.0944
  729MOL0     O98288   1.897   1.330   6.704  0.0910 -0.1620  0.8747
  729MOL0     C98289   1.853   1.263   6.581 -0.2052  0.2652 -0.5133
  729MOL0     C98290   1.720   1.316   6.527  0.0665 -0.3649 -0.5337
  729MOL0     C98291   1.621   1.335   6.645 -0.5800  0.9518 -0.4167
  729MOL0     C98292   1.485   1.347   6.587 -0.2422 -0.9637 -0.2837
  729MOL0     C98293   1.392   1.396   6.696  0.8513  0.1352  0.5122
  729MOL0     C98294   1.260   1.425   6.630  0.3823  0.3737 -0.2440
  729MOL0     C98295   1.153   1.459   6.735 -0.1381 -0.0163  0.3171
  729MOL0     C98296   1.132   1.356   6.844  0.1660  0.0891 -0.3141
  729MOL0     N98297   1.009   1.384   6.927  0.2054 -0.3914  0.0938
  729MOL0     C98298   0.976   1.513   6.969  0.1390  0.5151  0.4432
  729MOL0     C98299   0.870   1.502   7.039  0.3045  0.0702 -0.5474
  729MOL0     C98300   0.786   1.608   7.111  0.4307  0.8890  0.2834
  729MOL0     C98301   0.643   1.611   7.055 -0.2313  0.2379 -0.1079
  729MOL0     C98302   0.590   1.754   7.076  0.5528  0.1047 -0.2259
  729MOL0     C98303   0.465   1.759   6.977  0.0885 -0.9993  0.6083
  729MOL0     O98304   0.386   1.880   6.992  0.1415  0.0420 -0.3158
  729MOL0     C98305   0.320   1.906   7.111  0.7950  0.5105 -0.0390
  729MOL0     C98306   0.278   1.808   7.196 -0.1372  0.5145  0.0659
  729MOL0     C98307   0.198   1.839   7.305  0.4129 -0.1423 -0.6483
  729MOL0     C98308   0.157   1.726   7.397 -0.9041 -0.5480  0.3777
  729MOL0     C98309   0.161   1.977   7.329  0.4643 -0.0977 -0.2716
  729MOL0     C98310   0.071   2.015   7.442 -0.1850  0.4915  0.1367
  729MOL0     O98311   0.013   2.137   7.429  0.8384  0.1270 -0.9523
  729MOL0     C98312  -0.073   2.179   7.526  0.3964  0.2777 -0.6053
  729MOL0     C98313  -0.044   2.290   7.595 -0.6280 -1.0763  0.3111
  729MOL0     C98314  -0.112   2.334   7.707  0.1401  0.8029 -0.0832
  729MOL0     C98315  -0.238   2.276   7.738  0.6124  0.6809 -0.2971
  729MOL0     O98316  -0.292   2.350   7.842  0.0144  0.0518 -0.8918
  729MOL0     C98317  -0.435   2.342   7.844 -0.6570 -0.6487 -0.0145
  729MOL0     C98318  -0.485   2.422   7.962  0.7159 -0.3257  0.2094
  729MOL0     C98319  -0.631   2.463   7.929 -0.0147  0.9391  0.0395
  729MOL0     C98320  -0.689   2.530   8.054 -0.0234  0.1864  0.5316
  729MOL0     C98321  -0.818   2.613   8.025 -0.1489 -0.7797  0.3986
  729MOL0     C98322  -0.936   2.528   8.029 -0.3520  0.4780  0.1372
  729MOL0     C98323  -1.054   2.604   7.950 -0.9306  1.0451  0.3477
  729MOL0     C98324  -1.164   2.511   7.897  0.2754  0.4921 -0.3588
  729MOL0    Cl98325  -1.299   2.593   7.807  0.7171 -0.2928  0.0554
  729MOL0     C98326  -0.278   2.157   7.666 -0.4649 -0.1359  0.4003
  729MOL0     C98327  -0.194   2.110   7.562  0.4988 -0.3071  0.4065
  729MOL0     O98328   0.069   1.952   7.547 -0.2428  0.0128  0.1505
  729MOL0     C98329   0.210   2.072   7.237 -0.0008  0.0086 -0.0972
  729MOL0     C98330   0.284   2.035   7.129 -0.0874 -0.3699 -0.2663
  729MOL0     N98331   0.828   1.370   7.045  0.4216 -0.3199 -0.7258
  729MOL0     N98332   0.908   1.299   6.977  0.0896 -0.1623  0.6041
  729MOL0     C98333   2.068   1.388   6.857 -0.2275  0.1478 -0.9252
  729MOL0     C98334   2.183   1.350   6.917 -0.5140  0.1098 -0.6704
  729MOL0     C98335   2.638   1.250   6.938  0.8756  0.4155 -0.0228
  729MOL0     C98336   2.751   1.324   6.925  0.6285 -0.5711 -0.3766
  729MOL0     C98337   2.863   1.298   7.005  0.0443 -0.1912  0.0426
  729MOL0     C98338   2.859   1.192   7.099  0.2743 -0.0477  0.3174
  729MOL0     O98339   2.959   1.175   7.191 -0.1555  0.6535  0.4198
  729MOL0     C98340   3.071   1.085   7.152 -0.0112  0.6466 -0.1837
  729MOL0     C98341   3.182   1.165   7.098  0.3849  0.0208 -0.2391
  729MOL0     C98342   3.304   1.082   7.042 -0.3749 -0.4482  0.0163
  729MOL0     C98343   3.358   0.974   7.126  0.0356  0.0102 -0.7971
  729MOL0     C98344   3.418   1.019   7.260 -0.2769  0.1147  0.4798
  729MOL0     C98345   3.474   1.046   7.365 -0.4756 -0.3904  0.9490
  729MOL0     C98346   2.754   1.102   7.111  0.4790  0.2121  0.2063
  729MOL0     C98347   2.643   1.138   7.032  0.2873 -0.2715 -0.0834
  729MOL0     H98348   2.297   1.108   6.719  1.4163  1.9030  1.2471
  729MOL0     H98349   2.071   1.138   6.617  1.1133  2.1791 -2.2054
  729MOL0     H98350   1.933   1.259   6.506  0.7231 -0.0231  0.4774
  729MOL0     H98351   1.836   1.160   6.614 -0.4379  0.8731  1.3688
  729MOL0     H98352   1.740   1.417   6.489 -0.8171  0.7466  1.7583
  729MOL0     H98353   1.687   1.246   6.451 -0.6036 -1.3447  0.6287
  729MOL0     H98354   1.637   1.252   6.715  2.1140  0.3626 -1.5987
  729MOL0     H98355   1.643   1.432   6.691 -1.6222  1.2033 -0.4377
  729MOL0     H98356   1.483   1.427   6.513 -4.4763 -1.9986 -1.5238
  729MOL0     H98357   1.453   1.253   6.541 -0.9410  0.0123 -1.8568
  729MOL0     H98358   1.383   1.315   6.769  1.7764  2.2806  3.1893
  729MOL0     H98359   1.423   1.486   6.750 -0.6237  1.4013 -0.6609
  729MOL0     H98360   1.267   1.512   6.565  1.3278 -1.2735 -2.4661
  729MOL0     H98361   1.225   1.333   6.582  1.1960  0.3144 -0.7256
  729MOL0     H98362   1.188   1.548   6.787  1.1649 -0.9653  1.1351
  729MOL0     H98363   1.065   1.478   6.673 -1.7042 -1.9350  1.8295
  729MOL0     H98364   1.222   1.350   6.906  0.9349 -2.8660 -1.5287
  729MOL0     H98365   1.115   1.257   6.801 -0.6123  0.2520 -0.3966
  729MOL0     H98366   1.009   1.606   6.925 -1.1124  1.2035  0.9272
  729MOL0     H98367   0.789   1.581   7.217  0.2453  2.0541  0.5966
  729MOL0     H98368   0.840   1.703   7.103  1.0342  0.4202 -2.2580
  729MOL0     H98369   0.578   1.547   7.115 -1.6561  2.4292  0.7901
  729MOL0     H98370   0.637   1.574   6.952 -3.8281  0.5395 -0.1322
  729MOL0     H98371   0.662   1.828   7.040 -0.5948  0.7903 -1.2316
  729MOL0     H98372   0.560   1.769   7.180 -1.0232 -0.7220 -0.5286
  729MOL0     H98373   0.399   1.673   6.966 -4.0969  2.0219 -0.6896
  729MOL0     H98374   0.511   1.776   6.880 -4.3663 -1.5323 -1.8743
  729MOL0     H98375   0.314   1.707   7.175 -1.3721 -0.4705  2.2963
  729MOL0     H98376   0.183   1.628   7.356  4.4209  0.6973  0.1675
  729MOL0     H98377   0.210   1.729   7.492  1.5101 -0.0435 -0.9181
  729MOL0     H98378   0.049   1.722   7.418 -0.7935 -0.4571  0.9737
  729MOL0     H98379   0.047   2.347   7.579 -2.1399  1.0380 -1.4167
  729MOL0     H98380  -0.071   2.412   7.770 -0.0220  0.4321  0.4848
  729MOL0     H98381  -0.463   2.393   7.751 -1.0039 -1.7423 -0.5283
  729MOL0     H98382  -0.464   2.237   7.845 -0.4980 -0.7641 -2.0900
  729MOL0     H98383  -0.472   2.356   8.049  0.1677 -0.9679 -0.1843
  729MOL0     H98384  -0.420   2.508   7.979  1.8748 -1.5856  2.6973
  729MOL0     H98385  -0.686   2.371   7.905 -0.5684  1.7306 -1.9533
  729MOL0     H98386  -0.633   2.537   7.849 -1.2343  1.5384  0.6039
  729MOL0     H98387  -0.710   2.459   8.135  1.6453 -2.8154 -1.4688
  729MOL0     H98388  -0.621   2.611   8.084  1.4192 -0.4677 -0.8296
  729MOL0     H98389  -0.805   2.644   7.921  1.7011 -0.6821  0.6228
  729MOL0     H98390  -0.838   2.703   8.084  1.1521 -2.2599  3.3198
  729MOL0     H98391  -0.910   2.433   7.980  0.3708  1.0192 -0.5462
  729MOL0     H98392  -0.964   2.526   8.134 -0.6772  1.2640  0.0695
  729MOL0     H98393  -1.012   2.657   7.864 -2.6258 -0.6389 -1.6265
  729MOL0     H98394  -1.106   2.670   8.019  1.1268  2.6302  0.4939
  729MOL0     H98395  -1.207   2.449   7.976 -0.8571  0.1410 -1.2373
  729MOL0     H98396  -1.120   2.446   7.822 -0.8600  0.4288 -0.9879
  729MOL0     H98397  -0.373   2.106   7.673 -0.1343 -1.0103 -1.0224
  729MOL0     H98398  -0.205   2.025   7.495  2.2579 -1.7753  1.8650
  729MOL0     H98399   0.198   2.177   7.262 -0.8297  0.5276 -2.4001
  729MOL0     H98400   0.340   2.105   7.067 -0.9128  1.9512  1.4323
  729MOL0     H98401   2.019   1.482   6.883 -0.0444  0.2581 -0.9752
  729MOL0     H98402   2.223   1.398   7.006 -2.2878 -0.9285  0.7493
  729MOL0     H98403   2.746   1.409   6.857 -1.3432 -0.0253  0.3902
  729MOL0     H98404   2.947   1.365   7.014 -0.3640  0.0462  4.0258
  729MOL0     H98405   3.099   1.030   7.242 -3.1737  0.6971  0.9866
  729MOL0     H98406   3.035   1.014   7.077 -1.2697 -2.2677  2.9053
  729MOL0     H98407   3.213   1.243   7.168  1.5860 -0.0275 -0.7012
  729MOL0     H98408   3.146   1.222   7.013 -0.6659  0.4559  0.4720
  729MOL0     H98409   3.369   1.169   7.027 -3.0708  2.0881  1.9454
  729MOL0     H98410   3.284   1.050   6.939 -0.0089 -0.2536 -0.1168
  729MOL0     H98411   3.435   0.920   7.070 -0.4170 -1.2733 -0.2152
  729MOL0     H98412   3.276   0.909   7.156  0.3342  0.4474  1.0938
  729MOL0     H98413   3.522   1.068   7.459  0.9675 -2.3826  0.7386
  729MOL0     H98414   2.756   1.017   7.178 -0.7230  0.3016  0.3714
  729MOL0     H98415   2.549   1.085   7.047 -1.4090  1.7235 -2.7895
  730MOL0     O98416   0.611   4.006   3.117  0.0897 -0.1983  0.5235
  730MOL0     C98417   0.691   3.911   3.127  0.6091  0.3200  0.6873
  730MOL0     O98418   0.654   3.777   3.159 -0.8955  0.6221  1.0574
  730MOL0     C98419   0.523   3.745   3.143  0.1369  0.7566  0.1743
  730MOL0     C98420   0.447   3.782   3.031  0.1264  0.3579 -0.2275
  730MOL0     C98421   0.311   3.740   3.028 -0.9603 -0.9740  0.1726
  730MOL0     C98422   0.249   3.670   3.126  0.2025  0.0366 -0.9040
  730MOL0     O98423   0.112   3.661   3.117 -0.1189 -0.2838 -0.1161
  730MOL0     C98424   0.043   3.622   3.233  0.6983  0.1841  0.0195
  730MOL0     C98425  -0.110   3.608   3.198 -0.0300 -0.5535  0.4465
  730MOL0     C98426  -0.208   3.651   3.309  0.3426  0.1368  0.0360
  730MOL0     C98427  -0.354   3.626   3.266 -0.6934 -0.2053  0.9335
  730MOL0     C98428  -0.435   3.631   3.393  1.1002 -0.2427 -0.5023
  730MOL0     C98429  -0.582   3.612   3.368 -0.6425 -1.0260 -0.2957
  730MOL0     C98430  -0.669   3.677   3.471  0.6497 -0.0531 -0.2590
  730MOL0     C98431  -0.671   3.599   3.601  0.6535 -0.2150 -0.4597
  730MOL0     N98432  -0.786   3.635   3.684 -0.5367 -0.3620 -0.2509
  730MOL0     C98433  -0.805   3.752   3.745  0.0590 -0.5857 -0.1893
  730MOL0     C98434  -0.910   3.726   3.831 -0.3089  1.0305 -0.2141
  730MOL0     C98435  -0.974   3.835   3.923 -0.0238  0.4264 -0.0539
  730MOL0     C98436  -0.877   3.910   4.025  0.6750  0.1693  0.1095
  730MOL0     C98437  -0.821   3.808   4.128  0.2308  0.4198 -0.3446
  730MOL0     C98438  -0.681   3.746   4.096  0.1899 -0.3258 -0.6471
  730MOL0     O98439  -0.594   3.853   4.049  0.2383 -0.8267 -0.5112
  730MOL0     C98440  -0.481   3.825   3.974 -0.1014  0.7255 -0.3901
  730MOL0     C98441  -0.457   3.703   3.910 -0.5651 -0.2071  0.1062
  730MOL0     C98442  -0.348   3.675   3.834 -1.1208  0.3672  0.0591
  730MOL0     C98443  -0.340   3.533   3.769 -0.4809  0.2499 -0.6822
  730MOL0     C98444  -0.252   3.779   3.818  0.2400 -0.1883 -0.1105
  730MOL0     C98445  -0.124   3.762   3.745  0.7986 -0.6053  0.7446
  730MOL0     O98446  -0.048   3.876   3.733  0.6405 -0.2112  0.2816
  730MOL0     C98447   0.084   3.861   3.689 -0.0947 -0.0980  0.2864
  730MOL0     C98448   0.172   3.762   3.737  0.2335 -0.1423 -0.8185
  730MOL0     C98449   0.296   3.759   3.691  0.2637 -0.9731  0.2104
  730MOL0     C98450   0.341   3.834   3.584  0.3524  0.0653 -0.4935
  730MOL0     O98451   0.470   3.804   3.545 -0.5454  0.3061 -0.5756
  730MOL0     C98452   0.532   3.911   3.476  0.5759 -0.7225 -0.0262
  730MOL0     C98453   0.686   3.881   3.479 -0.4320 -0.3642 -0.2599
  730MOL0     C98454   0.757   3.898   3.613  0.1561  0.5421  0.3891
  730MOL0     C98455   0.904   3.872   3.605 -0.0211  0.1577  0.2550
  730MOL0     C98456   0.970   3.910   3.730  0.0168 -0.4562 -0.7775
  730MOL0     C98457   1.122   3.927   3.728 -0.0455 -0.5902 -0.0714
  730MOL0     C98458   1.168   4.049   3.655  0.1656  0.1736 -0.1196
  730MOL0     C98459   1.159   4.184   3.736 -0.0317 -0.9343 -0.1309
  730MOL0    Cl98460   1.181   4.331   3.637 -0.5685  0.3656  0.0930
  730MOL0     C98461   0.258   3.933   3.541 -0.2977 -1.1964 -0.1842
  730MOL0     C98462   0.133   3.948   3.592  0.5222  0.2823 -0.5542
  730MOL0     O98463  -0.096   3.652   3.692  0.2299  0.5044 -0.6768
  730MOL0     C98464  -0.281   3.904   3.873 -0.4232  0.5542  0.7707
  730MOL0     C98465  -0.389   3.926   3.957  0.7439 -0.3159  0.5176
  730MOL0     N98466  -0.954   3.598   3.810 -0.1289 -0.2377 -0.6237
  730MOL0     N98467  -0.877   3.542   3.726 -0.6446 -0.1668 -0.2416
  730MOL0     C98468   0.331   3.621   3.233 -0.6114 -0.1531 -0.5538
  730MOL0     C98469   0.464   3.656   3.242  0.1928  0.6282 -0.7132
  730MOL0     C98470   0.824   3.959   3.147 -0.2025 -0.5993 -0.1494
  730MOL0     C98471   0.865   4.080   3.097  0.5443  0.2143 -0.6508
  730MOL0     C98472   0.983   4.135   3.143 -0.6119 -0.9384 -0.1468
  730MOL0     C98473   1.072   4.056   3.215 -0.8432  0.3815 -0.0576
  730MOL0     O98474   1.200   4.089   3.262 -0.4565 -0.4487  0.0070
  730MOL0     C98475   1.266   4.211   3.222 -0.2589  0.3719 -0.0878
  730MOL0     C98476   1.398   4.232   3.303 -0.7528  0.0586 -0.0153
  730MOL0     C98477   1.493   4.341   3.229 -0.3660  0.2903  0.3957
  730MOL0     C98478   1.636   4.342   3.303 -0.1871  0.2086  0.0181
  730MOL0     C98479   1.709   4.456   3.240  0.1770  0.6071 -0.1482
  730MOL0     C98480   1.788   4.538   3.197  0.7458 -0.2482  0.3064
  730MOL0     C98481   1.038   3.936   3.262  0.4668 -1.1870 -0.3181
  730MOL0     C98482   0.913   3.888   3.233 -0.4686 -0.4424 -0.5991
  730MOL0     H98483   0.488   3.846   2.953  1.3800  3.3529  2.6482
  730MOL0     H98484   0.266   3.772   2.935  0.7633 -0.4521 -0.5218
  730MOL0     H98485   0.075   3.519   3.253 -0.4932  0.1045  1.6537
  730MOL0     H98486   0.055   3.688   3.319  0.9618 -0.1210  0.2194
  730MOL0     H98487  -0.137   3.653   3.102  0.1360 -0.6047  0.3751
  730MOL0     H98488  -0.123   3.500   3.188  1.7696 -0.9160  1.4312
  730MOL0     H98489  -0.181   3.578   3.386 -0.8678 -2.7227 -2.0548
  730MOL0     H98490  -0.192   3.757   3.328 -0.9126  0.4988 -0.8232
  730MOL0     H98491  -0.378   3.710   3.200  3.5781  0.9355  0.5667
  730MOL0     H98492  -0.375   3.534   3.211  1.3654 -0.0989 -0.1071
  730MOL0     H98493  -0.407   3.545   3.456 -1.8196 -1.3755 -0.6006
  730MOL0     H98494  -0.416   3.723   3.449  3.0056  0.3382 -1.9977
  730MOL0     H98495  -0.615   3.656   3.274  1.3456  2.0094  0.2911
  730MOL0     H98496  -0.611   3.507   3.360  0.6885 -2.1797  5.4886
  730MOL0     H98497  -0.647   3.783   3.483 -2.4575  0.9306 -2.1264
  730MOL0     H98498  -0.773   3.670   3.438  0.4507  0.3209  0.2770
  730MOL0     H98499  -0.576   3.608   3.654  0.2609  0.8726  0.0777
  730MOL0     H98500  -0.679   3.494   3.568  4.3457 -0.3149 -1.4687
  730MOL0     H98501  -0.736   3.835   3.752 -0.3836 -0.2776  0.5951
  730MOL0     H98502  -1.022   3.912   3.862 -1.5033 -0.7402 -0.4402
  730MOL0     H98503  -1.059   3.785   3.972 -0.6781 -1.1850 -2.6232
  730MOL0     H98504  -0.922   4.000   4.069  0.3474 -0.5233  1.2544
  730MOL0     H98505  -0.798   3.951   3.962  0.0586  0.4092 -0.5154
  730MOL0     H98506  -0.897   3.732   4.147 -3.2426  2.7843 -3.2646
  730MOL0     H98507  -0.812   3.867   4.220 -1.5346  2.9227 -1.6749
  730MOL0     H98508  -0.683   3.668   4.020 -2.6614 -0.7562 -0.2592
  730MOL0     H98509  -0.656   3.699   4.192 -1.6226  0.0963  0.0868
  730MOL0     H98510  -0.532   3.624   3.912 -3.1448  2.0801  0.8178
  730MOL0     H98511  -0.256   3.471   3.801 -1.9934 -1.8072 -0.4388
  730MOL0     H98512  -0.420   3.480   3.823  3.1762  0.2285  5.8056
  730MOL0     H98513  -0.335   3.541   3.660  1.3129  2.7743 -0.4948
  730MOL0     H98514   0.147   3.685   3.809 -0.5250  1.1286  0.3242
  730MOL0     H98515   0.367   3.685   3.726  1.0978 -0.2688  0.0515
  730MOL0     H98516   0.509   3.918   3.370  1.0683  1.2871 -0.0471
  730MOL0     H98517   0.514   4.002   3.534  2.4688 -1.1515  1.3232
  730MOL0     H98518   0.691   3.782   3.434 -0.8352 -0.1201 -0.8508
  730MOL0     H98519   0.732   3.952   3.410  0.5719 -1.3458 -0.6211
  730MOL0     H98520   0.712   3.826   3.682 -0.9517  0.0846 -0.7724
  730MOL0     H98521   0.739   4.000   3.647 -1.3423  0.6934 -0.7682
  730MOL0     H98522   0.929   3.768   3.583  0.3417  0.0376  1.1652
  730MOL0     H98523   0.943   3.941   3.529 -1.8917  0.0004 -0.8950
  730MOL0     H98524   0.956   3.831   3.804  1.1827 -0.5356 -0.6168
  730MOL0     H98525   0.921   3.999   3.770  0.9520 -1.0141  1.8227
  730MOL0     H98526   1.166   3.930   3.828  0.0037  0.8239 -0.1242
  730MOL0     H98527   1.160   3.837   3.679 -2.1887 -2.5684  1.6535
  730MOL0     H98528   1.118   4.054   3.558  0.6722 -3.4273 -0.7168
  730MOL0     H98529   1.270   4.027   3.625  0.2646  0.8966 -0.3200
  730MOL0     H98530   1.227   4.178   3.822  1.1373  0.3371 -0.9282
  730MOL0     H98531   1.064   4.195   3.789  0.8930  1.4720  1.2142
  730MOL0     H98532   0.281   4.001   3.460 -0.7484  0.8429  1.3176
  730MOL0     H98533   0.071   4.025   3.547  0.6236 -0.3101 -1.7397
  730MOL0     H98534  -0.212   3.985   3.855 -0.3070 -0.2677 -3.5518
  730MOL0     H98535  -0.404   4.021   4.006  0.8281  0.0420 -0.1343
  730MOL0     H98536   0.292   3.565   3.317  0.5249 -0.2318 -0.0630
  730MOL0     H98537   0.519   3.627   3.331 -0.5839  1.3667  0.0237
  730MOL0     H98538   0.798   4.134   3.030 -2.9823  0.9058  3.0421
  730MOL0     H98539   1.003   4.231   3.098 -0.3103 -0.9950 -0.1374
  730MOL0     H98540   1.299   4.204   3.118 -3.5626  0.1107 -1.2346
  730MOL0     H98541   1.190   4.289   3.231 -0.8267 -0.1467 -0.2911
  730MOL0     H98542   1.444   4.133   3.302  0.3117  0.4899 -3.4907
  730MOL0     H98543   1.368   4.266   3.403 -0.5772  0.8737 -0.2339
  730MOL0     H98544   1.453   4.443   3.233 -0.8042  0.0751  2.2012
  730MOL0     H98545   1.515   4.300   3.130 -0.0157  0.1655  0.5232
  730MOL0     H98546   1.691   4.251   3.277 -1.6851 -0.0760 -2.6135
  730MOL0     H98547   1.637   4.360   3.411 -0.9184 -1.1493  0.2787
  730MOL0     H98548   1.859   4.600   3.146  0.2912 -0.7213 -0.9283
  730MOL0     H98549   1.114   3.894   3.328  0.4992 -0.1998  0.2897
  730MOL0     H98550   0.878   3.792   3.271  1.0538 -2.1003 -3.0970
  731MOL0     O98551   8.427   2.434   0.234  0.3302  1.0061  0.8257
  731MOL0     C98552   8.404   2.315   0.192 -0.4434  0.3399 -0.8855
  731MOL0     O98553   8.285   2.257   0.192  0.3832  0.2325  0.6913
  731MOL0     C98554   8.170   2.326   0.237  0.1329  0.1702  0.1343
  731MOL0     C98555   8.132   2.447   0.177  0.0795  0.9752  0.1952
  731MOL0     C98556   8.019   2.510   0.221  0.1250 -0.0477 -0.3487
  731MOL0     C98557   7.935   2.458   0.317  0.2714  0.4373  0.0036
  731MOL0     O98558   7.809   2.508   0.358  0.6375 -0.1965 -0.2164
  731MOL0     C98559   7.746   2.607   0.276 -0.6293  1.5871  0.0751
  731MOL0     C98560   7.612   2.549   0.231 -0.9437  1.4420  0.3912
  731MOL0     C98561   7.530   2.518   0.358 -0.2117 -0.5106  0.8523
  731MOL0     C98562   7.376   2.541   0.330 -1.3971  0.3645 -0.1752
  731MOL0     C98563   7.315   2.438   0.236  0.3029 -0.3119 -1.1789
  731MOL0     C98564   7.174   2.469   0.225 -0.8746 -0.0544 -0.2667
  731MOL0     C98565   7.102   2.369   0.134 -0.5439  0.3090  0.3880
  731MOL0     C98566   6.952   2.412   0.109 -0.7404  0.0387 -1.0774
  731MOL0     N98567   6.882   2.408   0.241 -0.4513 -0.4642 -0.2021
  731MOL0     C98568   6.829   2.515   0.307  0.9149 -0.4436 -0.1127
  731MOL0     C98569   6.754   2.470   0.403  0.0863 -0.5855  0.0334
  731MOL0     C98570   6.680   2.555   0.499  0.5244  0.4356  0.3135
  731MOL0     C98571   6.526   2.546   0.480  0.0394  0.2420 -0.6044
  731MOL0     C98572   6.459   2.647   0.575  0.0238 -0.2241 -0.8260
  731MOL0     C98573   6.309   2.655   0.548 -0.7542 -0.4214 -0.5007
  731MOL0     O98574   6.234   2.535   0.550  0.3823 -0.0514  0.1993
  731MOL0     C98575   6.095   2.556   0.556 -0.0462 -0.2227  0.0927
  731MOL0     C98576   6.016   2.549   0.448  0.6140 -0.4117 -0.0232
  731MOL0     C98577   5.880   2.577   0.451  0.7160 -0.2081  0.3934
  731MOL0     C98578   5.806   2.565   0.322  0.1258 -0.1926  0.7629
  731MOL0     C98579   5.815   2.605   0.576  0.7011 -0.0337  0.1710
  731MOL0     C98580   5.668   2.629   0.594 -0.0315  0.0424 -0.0772
  731MOL0     O98581   5.630   2.719   0.693  0.8357  0.3073  0.2009
  731MOL0     C98582   5.498   2.754   0.704  0.4231 -0.7699  0.8984
  731MOL0     C98583   5.448   2.778   0.832  0.0348  0.3223  1.0152
  731MOL0     C98584   5.314   2.813   0.845 -1.0411  0.6907 -0.7601
  731MOL0     C98585   5.223   2.829   0.746 -0.9228 -0.7181 -0.1635
  731MOL0     O98586   5.091   2.852   0.763  0.4470 -0.4805  0.4259
  731MOL0     C98587   5.036   2.829   0.894 -0.1103  0.1797 -0.2251
  731MOL0     C98588   4.896   2.871   0.891 -0.1493  0.1036 -0.2540
  731MOL0     C98589   4.841   2.869   1.042 -0.4001 -0.0030  0.8356
  731MOL0     C98590   4.698   2.917   1.046  0.3649  0.1029 -0.5869
  731MOL0     C98591   4.599   2.843   0.955  0.2361  0.1595 -0.2848
  731MOL0     C98592   4.617   2.690   0.948 -0.1468 -0.4389  1.1831
  731MOL0     C98593   4.511   2.625   0.869 -0.5130 -0.0365  0.1131
  731MOL0     C98594   4.408   2.548   0.970 -1.0291  0.7715 -0.1842
  731MOL0    Cl98595   4.321   2.673   1.068 -0.0097 -0.2796 -0.0670
  731MOL0     C98596   5.272   2.819   0.614 -0.6177  0.3294  0.6353
  731MOL0     C98597   5.405   2.774   0.596  0.3478 -0.9317 -1.4670
  731MOL0     O98598   5.590   2.552   0.540  0.8358  0.0192  0.8594
  731MOL0     C98599   5.902   2.623   0.686  0.5784 -0.9794  0.4600
  731MOL0     C98600   6.038   2.596   0.679  0.2137  0.6039  0.7702
  731MOL0     N98601   6.747   2.334   0.392  0.1892  0.5433  0.4977
  731MOL0     N98602   6.822   2.298   0.289 -0.0710  0.6088 -0.1220
  731MOL0     C98603   7.971   2.334   0.380  0.9019  0.7048 -0.2376
  731MOL0     C98604   8.094   2.270   0.340  0.2297  0.2023  0.0778
  731MOL0     C98605   8.519   2.234   0.145 -0.0907  1.1805 -0.0749
  731MOL0     C98606   8.501   2.096   0.105  0.4882 -1.2674 -0.0161
  731MOL0     C98607   8.602   2.009   0.073 -0.2820  0.3596 -0.5426
  731MOL0     C98608   8.728   2.051   0.102 -0.0671 -0.7360  0.0855
  731MOL0     O98609   8.819   1.954   0.092 -0.7812 -0.0624 -0.2318
  731MOL0     C98610   8.922   1.950  -0.013  0.0574 -0.2788 -0.3825
  731MOL0     C98611   8.854   1.923  -0.151 -0.0126  0.0411  0.8124
  731MOL0     C98612   8.779   1.795  -0.162  1.0037  0.4647  1.1648
  731MOL0     C98613   8.874   1.684  -0.198 -0.0302 -0.0299  0.2058
  731MOL0     C98614   8.809   1.551  -0.189  0.1158  0.8819  0.4337
  731MOL0     C98615   8.747   1.449  -0.198 -0.3580 -1.3342 -1.5029
  731MOL0     C98616   8.752   2.185   0.141  0.2409 -0.5939 -0.1890
  731MOL0     C98617   8.653   2.272   0.160  0.3760 -0.3325 -0.6201
  731MOL0     H98618   8.188   2.491   0.096  0.6545 -2.0148 -1.1778
  731MOL0     H98619   7.992   2.600   0.167 -2.9974  1.7378  3.6594
  731MOL0     H98620   7.744   2.704   0.327 -1.9982  2.5927 -1.7527
  731MOL0     H98621   7.802   2.623   0.183  2.3600  2.2142  1.8355
  731MOL0     H98622   7.564   2.616   0.159 -1.5037  2.0806  1.3305
  731MOL0     H98623   7.627   2.453   0.181  1.1843  2.1853 -0.5153
  731MOL0     H98624   7.557   2.426   0.410  0.3012 -1.6696 -1.3559
  731MOL0     H98625   7.554   2.605   0.420  1.1428  0.3422 -0.7797
  731MOL0     H98626   7.344   2.542   0.435 -0.0086 -0.4222  0.2977
  731MOL0     H98627   7.357   2.643   0.296  0.8109  1.2548  1.0115
  731MOL0     H98628   7.373   2.440   0.143 -0.0298 -0.5234 -1.3933
  731MOL0     H98629   7.324   2.339   0.282 -0.6988  0.4232  0.7100
  731MOL0     H98630   7.133   2.466   0.327  1.0599 -0.0483  0.5704
  731MOL0     H98631   7.158   2.568   0.181 -0.3657  0.2101  0.1203
  731MOL0     H98632   7.145   2.353   0.034 -0.8495 -0.3070  0.3454
  731MOL0     H98633   7.102   2.271   0.183 -1.8099 -0.7137 -1.4879
  731MOL0     H98634   6.901   2.345   0.040 -1.9921 -0.4423  0.2563
  731MOL0     H98635   6.945   2.514   0.072  0.7420  0.3822 -0.4745
  731MOL0     H98636   6.855   2.617   0.280  1.5875 -0.7909 -0.8244
  731MOL0     H98637   6.709   2.515   0.597  1.1655  1.2661  0.4766
  731MOL0     H98638   6.706   2.661   0.494 -1.4413  1.0865  2.2358
  731MOL0     H98639   6.482   2.448   0.500  1.5793 -0.2842  0.3770
  731MOL0     H98640   6.506   2.572   0.375  1.5248  0.6307 -0.8132
  731MOL0     H98641   6.510   2.744   0.570  0.6884 -0.4545  0.7565
  731MOL0     H98642   6.482   2.613   0.677 -4.0437 -0.5477  0.1348
  731MOL0     H98643   6.302   2.706   0.451  0.7512  2.7397  0.8834
  731MOL0     H98644   6.269   2.740   0.605  1.0899  0.4472 -0.4097
  731MOL0     H98645   6.061   2.517   0.355  1.2650  1.3772 -0.3704
  731MOL0     H98646   5.863   2.598   0.235  0.6480 -1.3672  0.6509
  731MOL0     H98647   5.781   2.460   0.306  0.5378 -0.6386  2.7629
  731MOL0     H98648   5.709   2.616   0.316  1.4212  2.6043  1.6737
  731MOL0     H98649   5.513   2.766   0.918  0.8827 -1.1232  0.2139
  731MOL0     H98650   5.282   2.821   0.948  1.7660 -1.1040  0.3712
  731MOL0     H98651   5.054   2.722   0.910 -1.1939  0.3405  2.4049
  731MOL0     H98652   5.081   2.893   0.971  4.0856 -1.0327 -1.3660
  731MOL0     H98653   4.880   2.965   0.837 -3.0583  0.7241  1.4836
  731MOL0     H98654   4.857   2.785   0.836  0.5930 -0.7650  0.5559
  731MOL0     H98655   4.904   2.933   1.103 -0.4069  1.6260 -0.7762
  731MOL0     H98656   4.850   2.767   1.081  0.3102 -0.4505 -0.4277
  731MOL0     H98657   4.673   2.898   1.150 -0.1623 -0.5677 -0.8269
  731MOL0     H98658   4.699   3.025   1.030  1.9526  0.0792 -0.7696
  731MOL0     H98659   4.589   2.886   0.855 -4.1877 -0.2336 -0.1886
  731MOL0     H98660   4.498   2.856   0.993 -0.3128 -1.4794 -1.1075
  731MOL0     H98661   4.718   2.673   0.912  0.5515 -0.5820  3.0962
  731MOL0     H98662   4.611   2.648   1.049 -0.7990 -4.1000 -0.2288
  731MOL0     H98663   4.552   2.564   0.788 -0.9074 -1.0815  0.6759
  731MOL0     H98664   4.442   2.691   0.815 -1.8412 -2.6893 -1.6640
  731MOL0     H98665   4.453   2.469   1.031 -1.4790  1.2939  0.8394
  731MOL0     H98666   4.334   2.498   0.906  0.4535 -1.1508 -0.4834
  731MOL0     H98667   5.205   2.814   0.529  1.1126  0.8711 -0.8206
  731MOL0     H98668   5.437   2.760   0.493 -1.1297  0.0678 -2.0900
  731MOL0     H98669   5.865   2.663   0.780  1.9887  1.1617  0.1873
  731MOL0     H98670   6.097   2.593   0.770 -0.8069  0.0209  1.4438
  731MOL0     H98671   7.915   2.281   0.455  2.0204 -0.4327 -0.1651
  731MOL0     H98672   8.134   2.180   0.386  0.1696 -0.0990 -0.4564
  731MOL0     H98673   8.400   2.055   0.103 -0.1860  0.3013  0.2271
  731MOL0     H98674   8.576   1.906   0.051  0.7595  0.2542 -1.3461
  731MOL0     H98675   8.965   2.050  -0.011  2.1721 -1.1499  1.4438
  731MOL0     H98676   8.990   1.867   0.009 -4.2574 -3.6246  2.0042
  731MOL0     H98677   8.920   1.924  -0.238 -0.0503  1.0749  0.7821
  731MOL0     H98678   8.780   2.000  -0.172 -0.0989  0.3196  2.0314
  731MOL0     H98679   8.700   1.799  -0.237 -0.3883  2.0982  2.6297
  731MOL0     H98680   8.734   1.777  -0.064 -2.3008 -0.8809 -0.4345
  731MOL0     H98681   8.961   1.669  -0.132 -0.1864 -1.9396  0.0324
  731MOL0     H98682   8.912   1.703  -0.298 -0.2106 -1.7089 -0.1959
  731MOL0     H98683   8.692   1.357  -0.202  1.4489 -2.6048  0.3620
  731MOL0     H98684   8.852   2.217   0.169  1.5658 -2.0051 -2.9206
  731MOL0     H98685   8.666   2.373   0.197 -4.8629  0.0290  1.0694
  732MOL0     O98686   4.837   2.572   8.180  0.3291  0.8270 -1.1782
  732MOL0     C98687   4.906   2.657   8.239 -0.5468  0.4083 -0.5595
  732MOL0     O98688   4.856   2.755   8.318 -0.6211 -0.3864  0.0792
  732MOL0     C98689   4.729   2.775   8.348  1.1222  0.5317  0.6374
  732MOL0     C98690   4.696   2.912   8.346 -0.1419 -0.2645  0.3343
  732MOL0     C98691   4.566   2.954   8.369  0.4506 -0.2664 -0.5047
  732MOL0     C98692   4.473   2.863   8.419  0.0779 -0.1600  0.8104
  732MOL0     O98693   4.354   2.902   8.469  0.7365 -0.0846 -0.7663
  732MOL0     C98694   4.300   3.038   8.469  0.3907  0.4240 -0.0201
  732MOL0     C98695   4.150   3.038   8.511 -0.2540 -0.3978 -0.4733
  732MOL0     C98696   4.074   2.950   8.414  0.8453  0.3782 -0.7842
  732MOL0     C98697   3.921   2.969   8.436 -0.4429 -0.0204 -0.5160
  732MOL0     C98698   3.842   2.858   8.361  0.6567  0.5887  0.9041
  732MOL0     C98699   3.698   2.889   8.392 -0.2892  0.6016 -0.6000
  732MOL0     C98700   3.593   2.822   8.297 -0.4605  0.2832 -0.9327
  732MOL0     C98701   3.631   2.668   8.280  0.3130  0.5763  0.0651
  732MOL0     N98702   3.528   2.583   8.220  0.4601  0.7456 -0.9661
  732MOL0     C98703   3.415   2.527   8.280 -0.0341  0.0198 -0.1190
  732MOL0     C98704   3.339   2.470   8.177  0.6954 -0.1718 -0.1155
  732MOL0     C98705   3.206   2.401   8.198  0.6148  0.2145 -0.0602
  732MOL0     C98706   3.109   2.498   8.119  0.8031 -0.1878  0.0484
  732MOL0     C98707   2.962   2.452   8.122  0.2416 -0.1536  0.4778
  732MOL0     C98708   2.915   2.367   8.003  0.3137 -0.4768  0.6858
  732MOL0     O98709   2.784   2.306   8.023  0.3492 -0.1033  0.3015
  732MOL0     C98710   2.683   2.360   7.952  0.9753  0.0854 -0.1753
  732MOL0     C98711   2.604   2.283   7.870 -0.3773 -0.2700  0.4548
  732MOL0     C98712   2.485   2.328   7.815  0.6465 -0.2186  0.0660
  732MOL0     C98713   2.406   2.221   7.734 -0.6100 -0.2488 -0.0605
  732MOL0     C98714   2.440   2.467   7.837 -0.0669  0.0428 -0.2882
  732MOL0     C98715   2.319   2.520   7.778 -0.1805 -0.6217 -0.5557
  732MOL0     O98716   2.264   2.622   7.852 -0.6746 -0.0381 -0.5399
  732MOL0     C98717   2.155   2.693   7.796  0.9690  0.2253  0.1749
  732MOL0     C98718   2.037   2.632   7.751  0.0163  1.2100  0.0656
  732MOL0     C98719   1.939   2.712   7.693 -0.2515  0.2711 -0.2386
  732MOL0     C98720   1.961   2.845   7.675  0.4495 -0.0399 -0.1165
  732MOL0     O98721   1.868   2.925   7.606 -0.3761 -0.8952 -0.0081
  732MOL0     C98722   1.740   2.921   7.679 -0.2383  0.5968  0.4647
  732MOL0     C98723   1.674   3.046   7.642  0.8161 -0.4883  0.2839
  732MOL0     C98724   1.518   3.041   7.599  0.3155  0.3518 -1.0902
  732MOL0     C98725   1.455   3.173   7.574  0.1659 -0.0592  1.6005
  732MOL0     C98726   1.315   3.167   7.540  0.3914  0.3770  0.3299
  732MOL0     C98727   1.226   3.292   7.555 -0.4658  0.4715 -0.4652
  732MOL0     C98728   1.075   3.271   7.529  0.9883  0.0068  0.0521
  732MOL0     C98729   1.003   3.403   7.540  0.6580 -0.6659  0.2341
  732MOL0    Cl98730   0.837   3.390   7.490  0.2887 -0.0519 -0.1738
  732MOL0     C98731   2.078   2.906   7.714 -0.0425 -0.3236  0.6170
  732MOL0     C98732   2.176   2.832   7.774 -0.1081 -0.9455 -0.3150
  732MOL0     O98733   2.284   2.491   7.667 -0.3558 -0.4069  0.1718
  732MOL0     C98734   2.514   2.548   7.928 -0.5794  0.6727 -0.5131
  732MOL0     C98735   2.631   2.489   7.984 -0.3983 -1.3225  0.3161
  732MOL0     N98736   3.414   2.488   8.060 -0.4334 -0.0662 -0.1685
  732MOL0     N98737   3.512   2.563   8.093 -0.6888  0.7122 -0.3200
  732MOL0     C98738   4.500   2.723   8.400 -0.1181 -0.6471 -0.6908
  732MOL0     C98739   4.632   2.679   8.371 -0.5759 -0.4862 -0.1475
  732MOL0     C98740   5.055   2.656   8.224  0.4094  1.0437  0.0676
  732MOL0     C98741   5.135   2.741   8.286 -0.7251 -0.7406  0.4135
  732MOL0     C98742   5.274   2.726   8.283 -0.7838 -1.1028 -0.4970
  732MOL0     C98743   5.336   2.629   8.198 -0.3717  0.0113 -1.0990
  732MOL0     O98744   5.474   2.621   8.204 -0.8808 -0.0411 -0.1052
  732MOL0     C98745   5.552   2.534   8.126  0.1379 -1.1029 -0.4166
  732MOL0     C98746   5.683   2.496   8.194  0.6434 -0.2683  0.5856
  732MOL0     C98747   5.810   2.582   8.161  0.9310 -0.4884 -0.7557
  732MOL0     C98748   5.925   2.539   8.255  0.7068  0.5135  0.3747
  732MOL0     C98749   6.039   2.630   8.243  0.1876  0.0908 -0.0549
  732MOL0     C98750   6.134   2.698   8.234 -0.2169 -0.4117 -0.7923
  732MOL0     C98751   5.253   2.561   8.114  0.4456 -0.3986  0.6327
  732MOL0     C98752   5.110   2.566   8.134 -0.6044 -0.0545  0.2310
  732MOL0     H98753   4.769   2.990   8.328 -0.0058  0.2197  2.6039
  732MOL0     H98754   4.534   3.058   8.372 -3.6805 -1.3062  3.9597
  732MOL0     H98755   4.371   3.103   8.521 -0.3597  2.0300 -0.9206
  732MOL0     H98756   4.295   3.074   8.366  0.5784  1.1246  0.2122
  732MOL0     H98757   4.135   3.009   8.616 -0.9442  0.7559 -0.2366
  732MOL0     H98758   4.112   3.139   8.496  0.9071 -0.3847 -4.0221
  732MOL0     H98759   4.099   2.970   8.309 -1.8472 -1.0769 -1.8026
  732MOL0     H98760   4.101   2.844   8.421 -1.6834 -0.2373  1.4085
  732MOL0     H98761   3.904   2.954   8.543 -1.6690  1.8840 -0.4073
  732MOL0     H98762   3.894   3.071   8.408 -2.9066 -0.9327 -1.7086
  732MOL0     H98763   3.859   2.859   8.253 -3.3041 -0.3082  0.1252
  732MOL0     H98764   3.870   2.758   8.395 -2.0077 -0.1687  1.0401
  732MOL0     H98765   3.690   2.854   8.495  0.0060  0.1300 -0.7310
  732MOL0     H98766   3.678   2.996   8.398 -1.2437  0.4277 -0.5795
  732MOL0     H98767   3.495   2.835   8.344 -0.1040  1.4655 -0.4714
  732MOL0     H98768   3.590   2.880   8.205 -1.6126  0.0602 -1.0449
  732MOL0     H98769   3.651   2.623   8.378 -0.3609 -0.2569 -0.1717
  732MOL0     H98770   3.725   2.650   8.228  0.1234 -3.0882  0.6924
  732MOL0     H98771   3.389   2.513   8.385 -0.7114  1.2151 -0.1009
  732MOL0     H98772   3.199   2.302   8.151  2.3140 -0.5377  1.1668
  732MOL0     H98773   3.173   2.391   8.302 -3.2163 -0.2140 -1.1524
  732MOL0     H98774   3.129   2.511   8.012  1.7027  2.9674  0.4985
  732MOL0     H98775   3.119   2.601   8.153  0.1471 -0.5454  1.3729
  732MOL0     H98776   2.894   2.537   8.126  1.9472  1.4224 -1.4833
  732MOL0     H98777   2.946   2.385   8.208  0.7934 -0.1526  0.5875
  732MOL0     H98778   2.984   2.284   7.985 -1.1318 -0.9333 -3.7232
  732MOL0     H98779   2.905   2.423   7.910 -0.9923 -2.2352 -0.2718
  732MOL0     H98780   2.623   2.179   7.843  0.4346  0.2494 -1.1798
  732MOL0     H98781   2.395   2.263   7.633 -0.8338  0.7907  0.3756
  732MOL0     H98782   2.454   2.124   7.736  1.7322  0.7854 -1.5929
  732MOL0     H98783   2.308   2.210   7.782 -0.0525 -1.3488  0.8453
  732MOL0     H98784   2.024   2.525   7.763  0.6574  1.2456  1.2022
  732MOL0     H98785   1.856   2.657   7.650 -0.2498  1.9041 -2.4933
  732MOL0     H98786   1.685   2.833   7.642 -0.1405  0.0474  1.5532
  732MOL0     H98787   1.746   2.916   7.788 -1.1391 -3.1160  0.5061
  732MOL0     H98788   1.685   3.104   7.734  1.9720 -2.2665  1.3318
  732MOL0     H98789   1.722   3.100   7.559 -0.9216  0.0277 -0.4193
  732MOL0     H98790   1.471   2.989   7.683  1.7453  0.1683 -0.3669
  732MOL0     H98791   1.514   2.982   7.508  0.5198  0.2698 -1.0471
  732MOL0     H98792   1.466   3.246   7.654  0.4079  2.3692 -0.5317
  732MOL0     H98793   1.513   3.220   7.494  1.1575  1.4162  3.1302
  732MOL0     H98794   1.274   3.087   7.602  1.9305  0.1850  1.1305
  732MOL0     H98795   1.318   3.146   7.432 -0.0985  1.0925  0.1628
  732MOL0     H98796   1.231   3.324   7.659  0.4151 -0.9422 -0.0434
  732MOL0     H98797   1.267   3.367   7.486 -0.4102  1.0698  0.2121
  732MOL0     H98798   1.029   3.196   7.594  0.1679  0.9621  0.5996
  732MOL0     H98799   1.065   3.236   7.426 -1.0556  0.4131  0.0764
  732MOL0     H98800   1.052   3.478   7.477 -0.3140  0.4867  0.8097
  732MOL0     H98801   1.011   3.442   7.642 -1.0705 -0.1805  0.2200
  732MOL0     H98802   2.098   3.012   7.701 -0.9901  0.0480  1.9846
  732MOL0     H98803   2.265   2.878   7.814 -0.4408  0.5157 -1.1684
  732MOL0     H98804   2.487   2.648   7.960  0.3885  0.6086  0.5948
  732MOL0     H98805   2.689   2.555   8.048 -0.5046 -0.0607 -0.8533
  732MOL0     H98806   4.412   2.663   8.421 -2.3020  1.3092 -3.4379
  732MOL0     H98807   4.648   2.572   8.375 -1.4514 -0.6680 -1.0295
  732MOL0     H98808   5.087   2.822   8.339  0.5811  0.1746  0.2589
  732MOL0     H98809   5.341   2.790   8.339 -2.1168  0.9483 -1.1578
  732MOL0     H98810   5.484   2.449   8.117 -0.8126 -0.4227  0.0749
  732MOL0     H98811   5.560   2.579   8.027  0.2962  0.3542  0.2174
  732MOL0     H98812   5.692   2.389   8.173  0.1128  0.0797 -1.7961
  732MOL0     H98813   5.658   2.508   8.299  4.4921  0.7831  1.5433
  732MOL0     H98814   5.796   2.690   8.174  2.3035 -0.1935 -1.5479
  732MOL0     H98815   5.846   2.577   8.058  0.2421  1.3635 -1.1198
  732MOL0     H98816   5.964   2.444   8.217  1.9249  1.6333 -1.2973
  732MOL0     H98817   5.887   2.542   8.358 -1.1377  0.3488 -0.2676
  732MOL0     H98818   6.218   2.756   8.202 -1.7826  2.6508  0.2723
  732MOL0     H98819   5.286   2.484   8.044  1.2936 -0.8407  1.4992
  732MOL0     H98820   5.045   2.513   8.065  0.1462  0.1563 -0.6614
  733MOL0     O98821   8.583   6.392   4.854 -0.3177  0.9531 -0.3570
  733MOL0     C98822   8.621   6.443   4.959 -0.2503 -0.6714 -0.5511
  733MOL0     O98823   8.538   6.480   5.062 -0.7042  0.0297 -0.7582
  733MOL0     C98824   8.403   6.472   5.048 -0.4224 -0.2460 -0.1745
  733MOL0     C98825   8.329   6.377   5.121  0.1524 -0.0927 -0.0945
  733MOL0     C98826   8.185   6.383   5.117 -1.0408  0.6436  0.3807
  733MOL0     C98827   8.127   6.486   5.029  0.2239 -0.4468 -0.1000
  733MOL0     O98828   7.986   6.490   5.010  0.1355 -0.1368 -0.3837
  733MOL0     C98829   7.892   6.416   5.095 -0.0399  0.4173  0.2576
  733MOL0     C98830   7.752   6.400   5.029 -0.2499 -0.4770  0.0927
  733MOL0     C98831   7.643   6.321   5.107  0.1854  0.2502 -0.0357
  733MOL0     C98832   7.646   6.362   5.260  0.0683  0.0790  0.2782
  733MOL0     C98833   7.539   6.287   5.341  0.6062 -0.2912  1.2536
  733MOL0     C98834   7.401   6.263   5.274  0.1905 -0.0039  0.0143
  733MOL0     C98835   7.282   6.260   5.363 -0.0004 -0.6615  0.0418
  733MOL0     C98836   7.289   6.166   5.479 -0.2074  1.1756 -0.3622
  733MOL0     N98837   7.176   6.069   5.498  0.0975  1.2914 -0.1424
  733MOL0     C98838   7.162   5.950   5.437  0.0265  0.0631 -0.1958
  733MOL0     C98839   7.069   5.884   5.501  0.1775 -0.4198 -0.2015
  733MOL0     C98840   7.021   5.751   5.457 -0.4250  0.1043  0.6167
  733MOL0     C98841   6.895   5.752   5.370  0.0177  0.1533 -0.5704
  733MOL0     C98842   6.846   5.617   5.341  0.0989  1.2344 -0.5611
  733MOL0     C98843   6.741   5.598   5.226 -0.8222 -0.9216 -0.6292
  733MOL0     O98844   6.622   5.646   5.275  0.1337  0.4081  0.2321
  733MOL0     C98845   6.505   5.636   5.200  0.7349 -0.2598 -0.4563
  733MOL0     C98846   6.382   5.681   5.255  0.5224  0.8303 -0.0915
  733MOL0     C98847   6.261   5.644   5.198  0.4476  0.6118 -0.2273
  733MOL0     C98848   6.141   5.676   5.287 -0.6641  0.0670  0.2594
  733MOL0     C98849   6.252   5.583   5.069 -0.6166 -0.2931  0.4675
  733MOL0     C98850   6.129   5.535   5.006  0.3332 -0.4210  0.1207
  733MOL0     O98851   6.015   5.499   5.077 -0.1087  0.5873 -0.1325
  733MOL0     C98852   5.909   5.484   4.998  0.3972 -0.9279 -0.1803
  733MOL0     C98853   5.831   5.592   4.956  0.1453 -0.0710 -0.6208
  733MOL0     C98854   5.716   5.579   4.881 -0.7667 -0.7000 -0.0214
  733MOL0     C98855   5.680   5.449   4.846  0.9399 -0.0445  0.9963
  733MOL0     O98856   5.577   5.411   4.753 -0.5818  0.5091 -0.4564
  733MOL0     C98857   5.496   5.510   4.696  0.4475 -0.8951 -0.2141
  733MOL0     C98858   5.435   5.460   4.566 -0.2839 -0.7352 -0.3190
  733MOL0     C98859   5.323   5.555   4.524  0.6443 -0.3971 -0.2261
  733MOL0     C98860   5.251   5.515   4.397  0.1827 -0.0984 -0.5295
  733MOL0     C98861   5.124   5.597   4.355  0.4604 -0.4989 -0.6123
  733MOL0     C98862   5.095   5.565   4.207 -0.3107  0.4011 -0.6065
  733MOL0     C98863   4.964   5.624   4.171 -0.1104  0.3008 -0.7927
  733MOL0     C98864   4.937   5.604   4.020  0.1912 -0.7906  0.7561
  733MOL0    Cl98865   4.757   5.606   3.981 -0.4251  0.0684  0.4059
  733MOL0     C98866   5.757   5.342   4.884 -0.1185 -0.2986 -0.1098
  733MOL0     C98867   5.870   5.355   4.955 -0.0408 -0.3420  0.7959
  733MOL0     O98868   6.136   5.542   4.884 -0.7187 -0.1034 -0.1918
  733MOL0     C98869   6.372   5.557   5.005  0.0023 -0.3870  0.9117
  733MOL0     C98870   6.501   5.581   5.067  0.1132 -0.3740  0.1334
  733MOL0     N98871   7.035   5.960   5.614 -0.7096  0.4372  0.4293
  733MOL0     N98872   7.108   6.073   5.614  0.3303  0.3194  0.0794
  733MOL0     C98873   8.209   6.587   4.977  0.8665 -0.6262 -0.3279
  733MOL0     C98874   8.346   6.577   4.980 -0.3332  0.0925 -0.9428
  733MOL0     C98875   8.765   6.465   4.975 -0.0446  0.1595  0.2589
  733MOL0     C98876   8.855   6.440   4.875 -0.2294 -0.0177 -0.7955
  733MOL0     C98877   8.992   6.435   4.904  0.2267  0.3055  1.2115
  733MOL0     C98878   9.052   6.468   5.024  0.2419 -0.0285 -0.1920
  733MOL0     O98879   9.191   6.466   5.037  0.0709 -0.0254  0.4374
  733MOL0     C98880   9.249   6.534   5.143  0.2375 -0.9994  0.4445
  733MOL0     C98881   9.394   6.562   5.109 -0.4352  0.1822  0.8350
  733MOL0     C98882   9.404   6.627   4.967  0.8749  0.5683  0.1082
  733MOL0     C98883   9.540   6.680   4.929  0.2556  0.6946 -0.0170
  733MOL0     C98884   9.602   6.786   5.012 -0.5317 -0.3109 -0.3098
  733MOL0     C98885   9.639   6.871   5.090 -0.3639 -0.6524 -0.1052
  733MOL0     C98886   8.958   6.491   5.132  0.3615  0.1868  0.0984
  733MOL0     C98887   8.818   6.492   5.107 -0.6441  0.0395  0.0150
  733MOL0     H98888   8.377   6.292   5.169 -2.3972  0.1798  3.2700
  733MOL0     H98889   8.124   6.317   5.177 -0.5239  2.0875  2.6062
  733MOL0     H98890   7.927   6.315   5.120 -0.2441 -0.3750 -2.4112
  733MOL0     H98891   7.862   6.470   5.186 -1.7720  2.3476 -1.3625
  733MOL0     H98892   7.712   6.496   4.993 -0.4513 -0.5246  0.1877
  733MOL0     H98893   7.767   6.352   4.932 -1.6305  0.4076 -0.5925
  733MOL0     H98894   7.543   6.337   5.064 -1.9388  0.1989  4.3398
  733MOL0     H98895   7.668   6.215   5.108  1.9573  0.5955  2.7096
  733MOL0     H98896   7.741   6.321   5.295  0.1172  0.2097  0.2980
  733MOL0     H98897   7.623   6.467   5.280 -1.2769  0.0918 -1.1913
  733MOL0     H98898   7.580   6.190   5.371  0.0062 -0.1730  2.5433
  733MOL0     H98899   7.516   6.355   5.424 -2.2672 -1.3128  1.3876
  733MOL0     H98900   7.384   6.343   5.201 -2.4888  0.9471  1.5424
  733MOL0     H98901   7.400   6.165   5.226  3.8822  0.7448 -1.9925
  733MOL0     H98902   7.265   6.363   5.395 -1.7811  0.3597 -3.6628
  733MOL0     H98903   7.197   6.223   5.306 -0.1348  0.6459 -0.6564
  733MOL0     H98904   7.285   6.232   5.567 -0.6734 -0.9545  1.3128
  733MOL0     H98905   7.386   6.116   5.472  1.0062  2.6655  3.3003
  733MOL0     H98906   7.216   5.918   5.349  5.4155  3.2754  1.5097
  733MOL0     H98907   7.104   5.694   5.414  1.9520  0.9618  3.7020
  733MOL0     H98908   6.982   5.696   5.542 -3.9879 -0.7194 -1.3346
  733MOL0     H98909   6.923   5.801   5.276  0.2317 -0.0452 -0.6105
  733MOL0     H98910   6.819   5.818   5.413 -0.4169  1.4672 -3.1300
  733MOL0     H98911   6.796   5.574   5.429  0.1119  2.2125 -0.0596
  733MOL0     H98912   6.932   5.553   5.321  0.0999  1.2340 -0.5549
  733MOL0     H98913   6.721   5.491   5.215 -1.3853 -1.0868  1.5847
  733MOL0     H98914   6.778   5.642   5.133 -1.9192  1.1965 -0.1130
  733MOL0     H98915   6.378   5.738   5.347 -1.8013  1.6844 -0.6743
  733MOL0     H98916   6.048   5.707   5.239 -2.1463 -4.3204 -0.2257
  733MOL0     H98917   6.117   5.579   5.331 -0.9417  0.3463  0.7311
  733MOL0     H98918   6.175   5.751   5.359  0.2895  1.2814 -1.3837
  733MOL0     H98919   5.849   5.698   4.975  0.6842  0.2000 -2.4283
  733MOL0     H98920   5.669   5.672   4.847  0.8239  0.7493  1.5434
  733MOL0     H98921   5.418   5.533   4.769  1.1658 -0.2108  0.3490
  733MOL0     H98922   5.547   5.605   4.679 -1.3209  0.1116 -0.1186
  733MOL0     H98923   5.510   5.452   4.486 -0.3988 -0.1458 -0.4844
  733MOL0     H98924   5.397   5.361   4.594  1.8013 -1.4751  0.1367
  733MOL0     H98925   5.364   5.655   4.507  2.0124 -1.1719 -1.7171
  733MOL0     H98926   5.250   5.560   4.606 -1.5636 -2.1934 -1.9718
  733MOL0     H98927   5.318   5.527   4.312  0.2772 -1.7053 -0.7216
  733MOL0     H98928   5.228   5.409   4.410  1.8049 -0.2885  1.3208
  733MOL0     H98929   5.143   5.703   4.375 -0.6283 -0.7759  2.5021
  733MOL0     H98930   5.038   5.570   4.417  1.6704 -0.7530  1.0249
  733MOL0     H98931   5.176   5.601   4.142 -0.6772  0.8518 -0.8193
  733MOL0     H98932   5.090   5.456   4.203 -0.5042  0.3646  0.4514
  733MOL0     H98933   4.938   5.726   4.199 -2.1343 -0.1354 -0.9781
  733MOL0     H98934   4.891   5.566   4.228 -1.2170  2.9194  0.5996
  733MOL0     H98935   4.979   5.507   3.992 -0.3627 -0.7553 -0.2422
  733MOL0     H98936   4.987   5.681   3.961  1.3152 -3.1528 -1.5630
  733MOL0     H98937   5.718   5.245   4.855 -0.1760 -0.0760 -0.8123
  733MOL0     H98938   5.920   5.271   5.003 -2.8668 -1.0409  2.7321
  733MOL0     H98939   6.378   5.510   4.908 -1.3102  0.7291  0.2497
  733MOL0     H98940   6.588   5.550   5.009 -1.0591  0.3562 -2.1308
  733MOL0     H98941   8.153   6.669   4.932  2.6439  2.9077  3.2441
  733MOL0     H98942   8.415   6.651   4.942  2.1651 -0.5921  1.9065
  733MOL0     H98943   8.818   6.401   4.781 -1.3535 -0.9921  0.0158
  733MOL0     H98944   9.061   6.414   4.823 -1.0110  2.3731 -0.4727
  733MOL0     H98945   9.195   6.629   5.140 -1.0897 -1.7399 -1.3405
  733MOL0     H98946   9.234   6.478   5.236 -0.6206  0.2666  1.0909
  733MOL0     H98947   9.466   6.481   5.102  0.6267  1.1822 -0.2566
  733MOL0     H98948   9.433   6.637   5.179  1.5733  0.9072 -0.9547
  733MOL0     H98949   9.333   6.710   4.968 -0.5231 -0.5766 -0.3809
  733MOL0     H98950   9.382   6.552   4.890  0.9493  0.8930 -0.2275
  733MOL0     H98951   9.546   6.720   4.827  1.0311  0.9864  0.1343
  733MOL0     H98952   9.608   6.594   4.925  2.6377  2.4188  0.8362
  733MOL0     H98953   9.685   6.939   5.159 -2.8439  0.0701  0.9591
  733MOL0     H98954   8.982   6.512   5.236  0.9159  4.6045 -0.6885
  733MOL0     H98955   8.746   6.508   5.187 -0.3280  0.7962  0.1624
  734MOL0     O98956   4.326   4.563   3.758 -0.6282  0.1656 -0.1447
  734MOL0     C98957   4.271   4.551   3.648 -0.2807 -0.5223 -0.4145
  734MOL0     O98958   4.132   4.530   3.638 -0.8563  0.1099 -0.3582
  734MOL0     C98959   4.041   4.520   3.744 -0.7175 -0.0222  0.1123
  734MOL0     C98960   3.917   4.463   3.709  0.0042 -0.4735 -0.2526
  734MOL0     C98961   3.815   4.457   3.801 -0.1501 -0.5265 -0.2542
  734MOL0     C98962   3.826   4.519   3.926  0.3825 -0.3986 -0.6237
  734MOL0     O98963   3.710   4.510   4.005 -0.7059 -0.3719  0.6385
  734MOL0     C98964   3.737   4.537   4.148 -0.2406  0.0889  0.4254
  734MOL0     C98965   3.606   4.512   4.230 -0.4536  0.5297  0.6638
  734MOL0     C98966   3.560   4.369   4.230  0.5385 -0.3935  0.0232
  734MOL0     C98967   3.517   4.316   4.369  0.2707  0.6185  0.9178
  734MOL0     C98968   3.463   4.178   4.351  0.3162 -0.3478 -0.3000
  734MOL0     C98969   3.401   4.137   4.489 -0.0152  0.0007  0.3154
  734MOL0     C98970   3.335   4.001   4.512  1.1316 -0.6183 -0.2621
  734MOL0     C98971   3.418   3.888   4.446  0.0723 -0.2170 -1.0216
  734MOL0     N98972   3.332   3.769   4.464  0.7622  0.0497  0.5313
  734MOL0     C98973   3.228   3.729   4.376  0.3878  0.1961  0.1626
  734MOL0     C98974   3.167   3.629   4.433 -0.6722  0.6657 -0.2990
  734MOL0     C98975   3.047   3.543   4.389 -0.5269 -0.1780  0.0595
  734MOL0     C98976   2.912   3.596   4.425  0.2347  0.1639  0.6532
  734MOL0     C98977   2.883   3.619   4.575  0.1728  0.6417 -0.0990
  734MOL0     C98978   2.739   3.634   4.606  0.7344 -0.3541  0.0964
  734MOL0     O98979   2.693   3.765   4.578  0.5712  0.3459 -0.3062
  734MOL0     C98980   2.556   3.773   4.575  0.5753  0.2227 -0.0884
  734MOL0     C98981   2.508   3.906   4.553  0.4616 -0.0126 -0.3239
  734MOL0     C98982   2.371   3.934   4.556 -0.3400 -0.4578  0.2049
  734MOL0     C98983   2.336   4.084   4.554 -0.2903 -1.1480 -0.1513
  734MOL0     C98984   2.278   3.834   4.573 -0.2274 -1.0262 -0.1235
  734MOL0     C98985   2.127   3.849   4.564  0.2795  0.4794 -0.3514
  734MOL0     O98986   2.070   3.745   4.505  0.6962  0.3614 -0.1727
  734MOL0     C98987   1.930   3.753   4.507  0.1378 -0.2117  0.7564
  734MOL0     C98988   1.858   3.725   4.626 -0.2925 -0.7117  0.0857
  734MOL0     C98989   1.720   3.744   4.631  0.1578 -0.2792  0.0311
  734MOL0     C98990   1.656   3.804   4.523  0.1603  0.5974  0.5783
  734MOL0     O98991   1.516   3.824   4.509 -0.1225 -0.0874  0.6427
  734MOL0     C98992   1.444   3.773   4.617  0.1519  0.6200  0.1776
  734MOL0     C98993   1.299   3.815   4.597  0.8580 -0.0993  0.8653
  734MOL0     C98994   1.275   3.974   4.593  0.9464  0.6317 -0.6409
  734MOL0     C98995   1.127   4.006   4.624  0.5515  1.1083 -0.7449
  734MOL0     C98996   1.033   3.986   4.515 -0.0730  0.1244 -0.6514
  734MOL0     C98997   0.874   4.022   4.552  0.4064 -0.2259 -0.3852
  734MOL0     C98998   0.848   4.167   4.584 -0.0104 -0.1754 -0.2803
  734MOL0     C98999   0.864   4.247   4.450 -0.0677 -0.7647 -0.3237
  734MOL0    Cl99000   0.890   4.425   4.502  0.5681  0.1123 -0.4629
  734MOL0     C99001   1.728   3.815   4.398 -0.1684  0.0972  0.1137
  734MOL0     C99002   1.864   3.794   4.390  0.6757 -0.7345 -0.4399
  734MOL0     O99003   2.079   3.952   4.600  0.1566 -0.3472  0.4837
  734MOL0     C99004   2.324   3.703   4.596  0.4356  0.4170  0.2043
  734MOL0     C99005   2.458   3.675   4.592  0.0188  0.9326 -0.2410
  734MOL0     N99006   3.232   3.611   4.552  0.2547  0.3378 -0.5229
  734MOL0     N99007   3.337   3.687   4.567  1.1574 -0.6191 -0.0290
  734MOL0     C99008   3.946   4.585   3.959 -0.2997 -0.0291  0.0249
  734MOL0     C99009   4.048   4.593   3.864 -0.8072 -0.1139  0.4443
  734MOL0     C99010   4.330   4.581   3.514  0.2309  0.7540 -0.2274
  734MOL0     C99011   4.258   4.588   3.391  0.0163  0.1101 -0.5415
  734MOL0     C99012   4.317   4.631   3.273 -0.2910 -0.5595 -0.0635
  734MOL0     C99013   4.451   4.657   3.281 -0.2511 -0.5791  0.3585
  734MOL0     O99014   4.526   4.695   3.167  0.9097 -0.0753 -0.6914
  734MOL0     C99015   4.472   4.696   3.035 -0.2795 -0.4355  0.2198
  734MOL0     C99016   4.579   4.763   2.940  0.2612  0.6435 -0.1371
  734MOL0     C99017   4.688   4.671   2.895 -0.0234 -0.1054  0.0093
  734MOL0     C99018   4.773   4.723   2.774  0.5937  0.2294  0.0894
  734MOL0     C99019   4.908   4.735   2.832  0.2820  0.0969 -0.4707
  734MOL0     C99020   5.019   4.742   2.872  0.1407  0.8381 -0.8722
  734MOL0     C99021   4.530   4.646   3.395 -0.2093  0.4866 -0.1257
  734MOL0     C99022   4.472   4.599   3.511  0.8583 -0.7413  0.2585
  734MOL0     H99023   3.908   4.409   3.616  1.7606  0.4062 -0.9721
  734MOL0     H99024   3.719   4.409   3.782  0.6439 -1.6845 -1.4590
  734MOL0     H99025   3.817   4.474   4.188  0.3196  1.6844  1.9728
  734MOL0     H99026   3.769   4.641   4.156 -2.0505  0.7542 -0.6093
  734MOL0     H99027   3.612   4.549   4.333 -2.3019 -0.7024  1.2521
  734MOL0     H99028   3.534   4.580   4.183  0.3944  0.8770 -0.1626
  734MOL0     H99029   3.477   4.369   4.158  0.6680 -0.9649 -0.1377
  734MOL0     H99030   3.640   4.306   4.190  1.0902  0.8620 -0.9050
  734MOL0     H99031   3.607   4.321   4.431  1.3132  0.6405 -0.5559
  734MOL0     H99032   3.435   4.376   4.410 -2.1380 -2.5249  1.1166
  734MOL0     H99033   3.383   4.164   4.278 -2.6611 -1.9422  3.0011
  734MOL0     H99034   3.546   4.111   4.327  1.9243  0.3088  2.8132
  734MOL0     H99035   3.484   4.140   4.560  1.0700 -3.0822 -0.6730
  734MOL0     H99036   3.328   4.215   4.511 -2.2831 -2.3079  1.6261
  734MOL0     H99037   3.336   3.998   4.621 -0.2622 -0.4881 -0.2389
  734MOL0     H99038   3.233   3.996   4.474  1.5209 -1.4170 -1.2782
  734MOL0     H99039   3.518   3.875   4.488 -0.5184 -3.8308 -0.3632
  734MOL0     H99040   3.422   3.911   4.339 -1.2183  1.9623 -0.6706
  734MOL0     H99041   3.195   3.754   4.276 -1.1953 -1.0315  0.3238
  734MOL0     H99042   3.031   3.547   4.281 -1.0423  2.6218  0.1742
  734MOL0     H99043   3.062   3.439   4.419 -2.8853  0.0079  2.2513
  734MOL0     H99044   2.831   3.529   4.392  1.7321 -1.4557  0.1101
  734MOL0     H99045   2.907   3.694   4.376  0.9758 -0.8337 -1.5287
  734MOL0     H99046   2.941   3.702   4.618 -0.7170  1.0312  0.3737
  734MOL0     H99047   2.907   3.524   4.624 -4.1998  0.0344  1.2720
  734MOL0     H99048   2.720   3.617   4.713 -1.7528 -1.5951 -0.4600
  734MOL0     H99049   2.677   3.564   4.549  0.0321 -0.3541  0.8354
  734MOL0     H99050   2.580   3.984   4.531 -0.2781  0.4992 -0.9667
  734MOL0     H99051   2.291   4.097   4.653  0.9242 -0.1578  0.2964
  734MOL0     H99052   2.431   4.138   4.553 -2.0362  2.1656 -0.1125
  734MOL0     H99053   2.266   4.121   4.479 -2.8907 -0.9635  2.1968
  734MOL0     H99054   1.911   3.676   4.708  1.1400  1.7346  0.7303
  734MOL0     H99055   1.657   3.708   4.712  1.7750 -1.4862  0.8034
  734MOL0     H99056   1.462   3.665   4.626 -0.5642  0.6266  2.4093
  734MOL0     H99057   1.472   3.816   4.713 -1.8024 -0.5045  1.3330
  734MOL0     H99058   1.273   3.771   4.500  0.3254 -0.7177  1.2771
  734MOL0     H99059   1.243   3.762   4.675  0.6968 -1.2012  0.0367
  734MOL0     H99060   1.310   4.009   4.495 -0.6782 -0.0563 -1.5059
  734MOL0     H99061   1.336   4.018   4.672  0.1699 -1.1673  1.0335
  734MOL0     H99062   1.088   3.942   4.704 -0.6447 -0.3221 -2.4024
  734MOL0     H99063   1.119   4.108   4.662  0.4428 -0.0647  2.7408
  734MOL0     H99064   1.035   3.887   4.469  1.6300  0.2983 -1.0114
  734MOL0     H99065   1.057   4.052   4.431 -2.2271  1.1296 -0.5357
  734MOL0     H99066   0.808   4.005   4.467  0.6933 -0.3501 -0.5810
  734MOL0     H99067   0.836   3.965   4.638 -0.8566 -1.0817 -1.4763
  734MOL0     H99068   0.911   4.202   4.666 -1.0298 -3.7136  2.2570
  734MOL0     H99069   0.747   4.181   4.624 -1.3970  0.2411 -3.5793
  734MOL0     H99070   0.780   4.239   4.381  1.5856  0.1513 -2.5745
  734MOL0     H99071   0.954   4.222   4.394 -0.0324  1.6703 -1.4933
  734MOL0     H99072   1.681   3.846   4.306 -0.8116  0.3914  0.5308
  734MOL0     H99073   1.916   3.811   4.296 -0.4840 -0.3045 -1.0172
  734MOL0     H99074   2.257   3.619   4.610  0.5902  0.4073  0.9519
  734MOL0     H99075   2.473   3.568   4.587 -4.8499  0.0091 -0.1121
  734MOL0     H99076   3.969   4.635   4.053  1.9906  1.1722 -1.1147
  734MOL0     H99077   4.130   4.658   3.893 -0.0235 -0.3811 -1.0364
  734MOL0     H99078   4.150   4.582   3.382 -0.3483  3.3826  0.4376
  734MOL0     H99079   4.266   4.622   3.178 -0.5076 -0.1978  0.0181
  734MOL0     H99080   4.446   4.594   3.007  1.6463 -1.5780  2.2869
  734MOL0     H99081   4.382   4.758   3.034  1.7797  2.8245  0.2700
  734MOL0     H99082   4.614   4.849   2.999  0.8320  0.2033  0.1796
  734MOL0     H99083   4.528   4.809   2.855 -1.3901  1.3760  1.1924
  734MOL0     H99084   4.641   4.575   2.873  0.2252 -0.0985 -0.5757
  734MOL0     H99085   4.741   4.671   2.991 -1.6651 -0.8713  0.9490
  734MOL0     H99086   4.740   4.823   2.747 -0.6348 -0.1334  0.1760
  734MOL0     H99087   4.764   4.660   2.685 -0.3701 -2.5949  2.0140
  734MOL0     H99088   5.123   4.743   2.897  0.5969 -1.4306 -2.4136
  734MOL0     H99089   4.638   4.660   3.385  0.2872 -1.4893  1.7164
  734MOL0     H99090   4.544   4.588   3.591  1.2769 -2.1039 -0.2618
  735MOL0     O99091   6.269   5.148   7.976 -0.3032 -0.0636  0.5874
  735MOL0     C99092   6.290   5.132   8.096  0.4795 -0.0678 -0.3569
  735MOL0     O99093   6.197   5.125   8.191  0.2714 -0.6923 -0.2216
  735MOL0     C99094   6.074   5.064   8.163 -1.2397 -0.3444 -0.2077
  735MOL0     C99095   5.976   5.087   8.259  0.5872 -0.2789 -0.2487
  735MOL0     C99096   5.841   5.037   8.244 -0.2868  0.1461 -0.4483
  735MOL0     C99097   5.805   4.964   8.131  0.2173  1.6750 -0.9267
  735MOL0     O99098   5.679   4.921   8.121  0.7866 -0.2924 -0.0408
  735MOL0     C99099   5.630   4.865   7.999 -0.3398 -0.3644 -0.6018
  735MOL0     C99100   5.481   4.829   8.021  0.2176 -0.6608  0.1431
  735MOL0     C99101   5.395   4.954   8.000  0.3477 -0.4918  0.5011
  735MOL0     C99102   5.254   4.917   7.968 -0.4500  0.3486  0.1853
  735MOL0     C99103   5.165   5.041   7.967 -0.0634 -0.4459  0.3127
  735MOL0     C99104   5.020   5.014   7.922  0.1656  0.4395  0.0217
  735MOL0     C99105   4.940   4.929   8.022  0.0295 -1.3119  1.0228
  735MOL0     C99106   4.874   5.007   8.136 -0.5040 -0.8141  0.1841
  735MOL0     N99107   4.755   5.083   8.104 -0.6892 -0.0030 -0.2844
  735MOL0     C99108   4.657   5.060   8.011 -0.2809 -0.0292  1.0136
  735MOL0     C99109   4.557   5.141   8.042  1.0804  0.4690  0.8325
  735MOL0     C99110   4.425   5.152   7.970  0.5447  0.5206 -0.2915
  735MOL0     C99111   4.315   5.135   8.072 -0.2397  0.0968 -0.3827
  735MOL0     C99112   4.177   5.161   8.011 -0.0865 -0.0598 -0.3988
  735MOL0     C99113   4.056   5.140   8.104 -0.9727  0.1424 -0.0552
  735MOL0     O99114   3.938   5.084   8.034 -0.2309 -0.2847  0.3286
  735MOL0     C99115   3.813   5.117   8.089 -0.2191  0.5295 -0.3338
  735MOL0     C99116   3.777   5.184   8.214  0.6730 -0.1699 -0.1879
  735MOL0     C99117   3.632   5.201   8.250 -0.1432 -0.4855 -0.0802
  735MOL0     C99118   3.600   5.257   8.380 -0.0640 -0.1161  0.2168
  735MOL0     C99119   3.530   5.162   8.156  0.0666  0.2098  0.0384
  735MOL0     C99120   3.385   5.171   8.189  0.8789 -0.1144 -0.1946
  735MOL0     O99121   3.344   5.234   8.304 -0.0484 -0.7498  0.1386
  735MOL0     C99122   3.217   5.196   8.348  0.3697 -0.0087 -0.3039
  735MOL0     C99123   3.170   5.060   8.359  0.5001  0.5058 -1.2032
  735MOL0     C99124   3.044   5.028   8.409  0.6859  0.7266 -0.6259
  735MOL0     C99125   2.949   5.124   8.445  0.6062 -0.3535  0.4327
  735MOL0     O99126   2.816   5.103   8.485 -0.0551  0.2178 -0.5490
  735MOL0     C99127   2.768   4.969   8.494 -0.0805  0.4501  0.2560
  735MOL0     C99128   2.645   4.957   8.589 -0.6480 -0.4040  0.6090
  735MOL0     C99129   2.512   4.907   8.533  0.1644  0.4080  0.0380
  735MOL0     C99130   2.478   5.000   8.418 -0.1753  0.8578  0.3156
  735MOL0     C99131   2.340   4.966   8.361 -0.8505  0.3725  0.6174
  735MOL0     C99132   2.208   4.981   8.448 -0.3964 -0.3207  0.2583
  735MOL0     C99133   2.184   5.131   8.484 -0.6442  0.0330  0.5004
  735MOL0     C99134   2.070   5.144   8.593 -0.2505  0.1917 -0.4635
  735MOL0    Cl99135   2.137   5.102   8.761  0.1351 -0.0257  0.3892
  735MOL0     C99136   2.986   5.255   8.439 -0.1183 -0.3597  0.2179
  735MOL0     C99137   3.119   5.292   8.393  0.0653 -0.2614  0.8627
  735MOL0     O99138   3.309   5.116   8.107 -0.5104  0.4507 -1.1167
  735MOL0     C99139   3.572   5.089   8.039  0.6823 -0.5734  0.0745
  735MOL0     C99140   3.711   5.068   8.012 -0.0117  0.0538  0.5142
  735MOL0     N99141   4.595   5.208   8.155  1.1095 -1.2767 -0.3322
  735MOL0     N99142   4.715   5.176   8.193 -0.4762 -0.8915  0.5857
  735MOL0     C99143   5.899   4.942   8.034 -0.3784 -0.4744  0.0947
  735MOL0     C99144   6.031   4.990   8.051 -0.1242 -0.1458 -0.0533
  735MOL0     C99145   6.430   5.144   8.148  0.9969  0.0525 -0.7095
  735MOL0     C99146   6.466   5.045   8.241 -0.5362 -1.1961 -0.2736
  735MOL0     C99147   6.591   5.064   8.318  0.3237  0.2180  0.5448
  735MOL0     C99148   6.675   5.170   8.298 -0.6810  1.0815  0.4301
  735MOL0     O99149   6.803   5.152   8.356  0.9569 -0.3661  0.1235
  735MOL0     C99150   6.897   5.257   8.373  0.5961 -0.3221  0.4930
  735MOL0     C99151   6.854   5.330   8.495 -0.9726 -0.2120  0.2131
  735MOL0     C99152   6.871   5.243   8.617 -1.1769 -0.0082 -0.3665
  735MOL0     C99153   6.796   5.303   8.739 -0.1109  0.0988 -0.0803
  735MOL0     C99154   6.859   5.264   8.861 -0.8615 -0.5394 -0.4514
  735MOL0     C99155   6.919   5.232   8.967  0.8334 -0.4631  1.0751
  735MOL0     C99156   6.631   5.266   8.213  0.2222  0.5987  0.6315
  735MOL0     C99157   6.503   5.258   8.144 -0.0327 -0.6229 -0.0437
  735MOL0     H99158   6.003   5.124   8.358 -2.9039  0.6833  0.4876
  735MOL0     H99159   5.772   5.047   8.327  0.6543  0.7308  0.2859
  735MOL0     H99160   5.637   4.933   7.914  1.7571  0.3313  0.0547
  735MOL0     H99161   5.694   4.782   7.966 -0.1935 -0.4529 -0.1089
  735MOL0     H99162   5.459   4.753   7.945  0.4521 -2.2722  1.6176
  735MOL0     H99163   5.455   4.792   8.120 -0.7100 -2.0713 -0.5765
  735MOL0     H99164   5.406   5.014   8.091 -0.1458  0.6812 -0.1826
  735MOL0     H99165   5.434   5.017   7.919  0.6636 -0.0896  0.9565
  735MOL0     H99166   5.257   4.872   7.869  1.8956 -0.4284  0.5470
  735MOL0     H99167   5.212   4.836   8.028  1.0407 -1.0820 -0.6331
  735MOL0     H99168   5.168   5.090   8.065  1.8088  1.4485 -0.6179
  735MOL0     H99169   5.209   5.113   7.898  1.1735 -1.7049 -0.2504
  735MOL0     H99170   4.969   5.106   7.894  0.9706  0.5821 -1.0552
  735MOL0     H99171   5.033   4.952   7.833 -2.0977  0.4564 -0.3785
  735MOL0     H99172   4.859   4.882   7.965 -0.1027 -0.7757  0.7646
  735MOL0     H99173   4.995   4.849   8.072 -1.0888 -0.2359  4.2717
  735MOL0     H99174   4.947   5.084   8.163 -0.7745 -0.2808 -0.5843
  735MOL0     H99175   4.844   4.948   8.223 -0.0034  0.1928  1.0616
  735MOL0     H99176   4.666   4.991   7.929  3.0099  1.6082 -0.1958
  735MOL0     H99177   4.418   5.253   7.927 -1.4661  0.2652 -0.6611
  735MOL0     H99178   4.411   5.079   7.890 -1.9767 -1.5756  1.8457
  735MOL0     H99179   4.337   5.199   8.158  1.4206 -3.0326  1.7231
  735MOL0     H99180   4.325   5.031   8.104 -2.3194  0.2396  0.9358
  735MOL0     H99181   4.162   5.109   7.916 -1.7844 -0.6023  0.1338
  735MOL0     H99182   4.187   5.269   7.993 -1.0444  0.1330  0.1672
  735MOL0     H99183   4.031   5.239   8.144  1.4108  1.1499 -0.8783
  735MOL0     H99184   4.099   5.078   8.183  2.5747  0.9198 -1.2031
  735MOL0     H99185   3.848   5.232   8.280 -0.2815  0.0882  0.6811
  735MOL0     H99186   3.535   5.345   8.378  0.3653  0.3149  2.4995
  735MOL0     H99187   3.535   5.193   8.439 -0.6740  2.0617  2.0719
  735MOL0     H99188   3.691   5.300   8.425  0.1855  0.5710 -0.8936
  735MOL0     H99189   3.231   4.977   8.326 -1.5220 -1.4997 -0.2308
  735MOL0     H99190   3.006   4.926   8.406 -1.8800  1.5665  0.5690
  735MOL0     H99191   2.751   4.934   8.392  0.7506  2.2747 -0.5697
  735MOL0     H99192   2.845   4.907   8.541  1.4774  1.9508 -0.1902
  735MOL0     H99193   2.673   4.887   8.668  0.4208  0.6270  1.1729
  735MOL0     H99194   2.631   5.052   8.643  0.9343 -0.7604  1.7115
  735MOL0     H99195   2.423   4.921   8.595 -0.9250 -1.9006 -0.9105
  735MOL0     H99196   2.515   4.802   8.502  1.5251  0.5343 -0.2850
  735MOL0     H99197   2.471   5.105   8.447 -4.0587 -0.3985  5.2753
  735MOL0     H99198   2.555   4.986   8.342 -0.6295 -0.7404  0.1026
  735MOL0     H99199   2.331   4.863   8.325  0.4378  0.1220  0.9662
  735MOL0     H99200   2.341   5.026   8.270  1.5117 -0.1079  0.2487
  735MOL0     H99201   2.119   4.941   8.397 -0.4971 -0.5045  0.5755
  735MOL0     H99202   2.218   4.920   8.538  3.0152 -0.0835  0.1519
  735MOL0     H99203   2.154   5.178   8.389  3.6071  0.8961 -0.6111
  735MOL0     H99204   2.276   5.180   8.518 -0.2677  0.5244 -1.1342
  735MOL0     H99205   1.978   5.090   8.569 -0.0547 -1.6023  2.3436
  735MOL0     H99206   2.038   5.248   8.606 -0.4297 -0.0619  1.3974
  735MOL0     H99207   2.911   5.330   8.459 -0.4614  0.0732 -2.3519
  735MOL0     H99208   3.146   5.396   8.382  2.8700 -1.0273 -0.4169
  735MOL0     H99209   3.511   5.047   7.960 -3.0108 -0.7479  2.7924
  735MOL0     H99210   3.753   5.008   7.931 -1.5232 -0.5065  0.1244
  735MOL0     H99211   5.884   4.874   7.950 -0.0523 -0.8145  0.3085
  735MOL0     H99212   6.105   4.964   7.976 -2.1646  2.4843 -3.2315
  735MOL0     H99213   6.404   4.956   8.251 -2.3491 -0.2637 -2.4276
  735MOL0     H99214   6.622   4.982   8.383 -1.9839 -0.4116  0.9466
  735MOL0     H99215   6.997   5.225   8.403  0.9158 -0.2118 -0.4000
  735MOL0     H99216   6.896   5.329   8.290 -1.3030  1.1324  1.6934
  735MOL0     H99217   6.753   5.371   8.484 -0.1903  1.6734 -0.2927
  735MOL0     H99218   6.928   5.410   8.499  0.1336 -1.2359  0.4309
  735MOL0     H99219   6.976   5.236   8.647 -2.1008 -0.6684  3.0871
  735MOL0     H99220   6.832   5.143   8.596 -0.3710 -0.2646 -0.6828
  735MOL0     H99221   6.696   5.258   8.735 -0.1669  0.2970 -2.4662
  735MOL0     H99222   6.770   5.408   8.726 -1.7740 -0.0161  1.8538
  735MOL0     H99223   6.958   5.207   9.063 -2.0895 -0.9548  2.2158
  735MOL0     H99224   6.699   5.349   8.195  0.1875  0.1489 -1.9550
  735MOL0     H99225   6.458   5.337   8.085 -1.7296 -1.4667  0.0746
  736MOL0     O99226   5.867   6.705  10.557  0.5531 -0.0029  0.9647
  736MOL0     C99227   5.976   6.767  10.571  0.4888 -0.2959  0.7782
  736MOL0     O99228   6.010   6.886  10.508 -0.0569 -0.4409 -0.8392
  736MOL0     C99229   5.911   6.934  10.425 -1.1479 -0.1602  0.0067
  736MOL0     C99230   5.786   6.973  10.473  0.1678 -0.0138  0.0876
  736MOL0     C99231   5.690   7.024  10.385 -0.2901 -0.1616 -0.6630
  736MOL0     C99232   5.721   7.020  10.247 -0.6493 -0.4106  0.4304
  736MOL0     O99233   5.632   7.051  10.148 -0.1458  0.3146  1.0675
  736MOL0     C99234   5.556   7.162  10.160  0.4874 -0.7590 -0.3978
  736MOL0     C99235   5.458   7.165  10.044 -0.1227  0.2400  0.0200
  736MOL0     C99236   5.370   7.292  10.061 -0.1594  0.0376  0.0136
  736MOL0     C99237   5.251   7.271   9.974 -0.3807 -2.0561  0.3225
  736MOL0     C99238   5.175   7.398   9.942 -0.0146 -1.1270  0.5817
  736MOL0     C99239   5.071   7.373   9.826 -0.8096  1.2964  0.0410
  736MOL0     C99240   4.994   7.499   9.784  0.2394 -0.1481  0.5491
  736MOL0     C99241   4.845   7.465   9.735  0.0205 -0.5651 -0.4147
  736MOL0     N99242   4.751   7.578   9.720 -0.9182  0.3480  0.1288
  736MOL0     C99243   4.701   7.653   9.825 -0.4803  0.1151  0.1750
  736MOL0     C99244   4.615   7.739   9.762 -1.0516 -0.4398  0.1496
  736MOL0     C99245   4.494   7.810   9.828  0.5814  0.8560 -0.4790
  736MOL0     C99246   4.387   7.876   9.734 -0.4688  0.5537  0.0313
  736MOL0     C99247   4.299   7.775   9.655  0.0848  0.2029  0.2335
  736MOL0     C99248   4.156   7.835   9.634  0.2098 -0.3488 -0.5366
  736MOL0     O99249   4.088   7.836   9.766 -0.4653 -0.0169 -0.4237
  736MOL0     C99250   3.973   7.910   9.780 -0.3420 -0.1393 -0.4640
  736MOL0     C99251   3.895   7.968   9.677  0.8860 -0.3015 -0.7824
  736MOL0     C99252   3.767   8.032   9.694 -0.1648 -0.0649  0.4439
  736MOL0     C99253   3.704   8.079   9.567 -0.9782  0.1077  0.3481
  736MOL0     C99254   3.711   8.038   9.829 -0.7358 -0.0247 -0.2454
  736MOL0     C99255   3.580   8.099   9.854 -0.6595 -0.0663 -0.6688
  736MOL0     O99256   3.538   8.098   9.982 -0.1543  0.0700 -0.7215
  736MOL0     C99257   3.408   8.124  10.017 -0.6250  0.2576  0.5319
  736MOL0     C99258   3.294   8.086   9.954  0.5190 -0.1607  0.8351
  736MOL0     C99259   3.163   8.110  10.007  0.3377 -0.4877  0.0757
  736MOL0     C99260   3.149   8.177  10.130  0.2287  0.2767  0.0222
  736MOL0     O99261   3.032   8.207  10.192  0.1780 -0.2356 -0.3510
  736MOL0     C99262   2.913   8.125  10.171 -0.2962 -0.4292 -0.6823
  736MOL0     C99263   2.834   8.149  10.299  0.2429 -0.0651 -0.9066
  736MOL0     C99264   2.681   8.110  10.285 -0.4147  0.9461 -0.6877
  736MOL0     C99265   2.612   8.082  10.426  0.9556 -0.6136 -0.0729
  736MOL0     C99266   2.456   8.076  10.431 -0.0999  0.8506 -1.1249
  736MOL0     C99267   2.409   7.958  10.356  0.0228  0.1139  1.0232
  736MOL0     C99268   2.426   7.819  10.418 -0.8668 -0.4157  0.1769
  736MOL0     C99269   2.439   7.712  10.313  1.2739  0.4269  0.2237
  736MOL0    Cl99270   2.276   7.654  10.248 -0.0252 -0.0122  0.1690
  736MOL0     C99271   3.265   8.218  10.189  0.8112 -0.0784 -0.1577
  736MOL0     C99272   3.395   8.196  10.134  0.2047 -0.2546 -0.4308
  736MOL0     O99273   3.510   8.140   9.760 -0.3217  0.4143  0.0493
  736MOL0     C99274   3.795   7.991   9.934 -0.0059  0.2068 -0.2692
  736MOL0     C99275   3.915   7.919   9.909  0.9182  0.6400 -0.0956
  736MOL0     N99276   4.625   7.723   9.624 -1.1237  0.0011  0.7149
  736MOL0     N99277   4.721   7.634   9.604 -0.7381 -0.1443 -0.0822
  736MOL0     C99278   5.847   7.001  10.195  0.0955 -0.3908 -0.0920
  736MOL0     C99279   5.948   6.954  10.292 -0.3375 -0.0124  0.2761
  736MOL0     C99280   6.068   6.702  10.657 -0.1727  0.0659 -0.9333
  736MOL0     C99281   6.188   6.772  10.713 -0.0764  0.5712  0.2496
  736MOL0     C99282   6.277   6.700  10.790 -0.8286  0.4903  0.9319
  736MOL0     C99283   6.262   6.560  10.815 -0.7728 -0.1484  0.4924
  736MOL0     O99284   6.351   6.481  10.885  0.0953 -0.4092  0.1705
  736MOL0     C99285   6.494   6.497  10.853 -0.1039  0.3072 -0.5655
  736MOL0     C99286   6.542   6.501  10.710  0.6678 -0.1468  0.5027
  736MOL0     C99287   6.518   6.367  10.630 -0.1442 -0.6487 -0.6554
  736MOL0     C99288   6.561   6.379  10.486 -0.1857  0.3354  0.3902
  736MOL0     C99289   6.708   6.403  10.463 -0.0396  0.4360 -0.8675
  736MOL0     C99290   6.819   6.442  10.449  0.2647 -0.3993  0.1626
  736MOL0     C99291   6.146   6.498  10.754 -0.4620  0.0070 -0.2617
  736MOL0     C99292   6.047   6.572  10.688 -0.0898 -0.2689  0.3750
  736MOL0     H99293   5.762   6.963  10.578  1.9499  0.5312  0.5979
  736MOL0     H99294   5.592   7.051  10.424  0.3402  0.7798  0.2825
  736MOL0     H99295   5.500   7.160  10.254  0.4186 -0.1561 -0.4236
  736MOL0     H99296   5.622   7.247  10.138 -1.4153  0.0638 -3.5687
  736MOL0     H99297   5.518   7.186   9.956 -0.0079 -1.7935 -0.4198
  736MOL0     H99298   5.399   7.074  10.030  1.5337 -0.4217 -3.6241
  736MOL0     H99299   5.345   7.285  10.167 -1.7410  0.7381 -0.2860
  736MOL0     H99300   5.420   7.386  10.037 -2.0427  0.9226 -0.5590
  736MOL0     H99301   5.278   7.216   9.884 -1.2358  0.0143 -1.2993
  736MOL0     H99302   5.178   7.204  10.020 -0.5221 -2.5401 -0.5898
  736MOL0     H99303   5.136   7.436  10.036 -0.6728  0.4711 -0.3040
  736MOL0     H99304   5.240   7.474   9.897 -1.7110 -0.6126 -1.1583
  736MOL0     H99305   5.125   7.332   9.741 -1.4476 -0.4822  0.4524
  736MOL0     H99306   4.999   7.295   9.854  0.7725  0.0563  0.8095
  736MOL0     H99307   4.980   7.569   9.867  0.0302  1.2235 -0.6125
  736MOL0     H99308   5.043   7.554   9.703 -2.7045 -1.5024 -2.3951
  736MOL0     H99309   4.798   7.410   9.817  1.1875 -0.1279  0.5807
  736MOL0     H99310   4.860   7.408   9.643  1.9452  0.4759 -0.8157
  736MOL0     H99311   4.703   7.628   9.931  0.2374  0.2798  0.2073
  736MOL0     H99312   4.440   7.738   9.890  2.4185 -0.1656 -0.0050
  736MOL0     H99313   4.535   7.890   9.891 -1.6312  1.2701  0.5739
  736MOL0     H99314   4.443   7.930   9.657 -1.6732  1.5822 -0.1494
  736MOL0     H99315   4.337   7.954   9.791  0.3205  2.0332 -1.2264
  736MOL0     H99316   4.278   7.682   9.708 -0.5595  1.2201  1.8247
  736MOL0     H99317   4.337   7.749   9.555 -1.0633 -1.0140  0.0884
  736MOL0     H99318   4.100   7.774   9.562  1.2723  0.5127 -2.1569
  736MOL0     H99319   4.157   7.938   9.598 -2.1465  0.3080  1.0297
  736MOL0     H99320   3.936   7.946   9.579 -1.9261  1.1506 -2.4192
  736MOL0     H99321   3.779   8.092   9.489 -1.3700  3.5746  0.3990
  736MOL0     H99322   3.632   8.006   9.529 -0.0428  0.8955 -3.3391
  736MOL0     H99323   3.656   8.177   9.576  1.9090  1.9490 -2.2277
  736MOL0     H99324   3.308   8.016   9.873  0.3383 -0.2873  0.9135
  736MOL0     H99325   3.071   8.069   9.967 -0.4343  0.9735  0.2493
  736MOL0     H99326   2.864   8.152  10.077  0.2269  1.5877 -0.4119
  736MOL0     H99327   2.947   8.021  10.166  0.0502 -0.3981  0.6175
  736MOL0     H99328   2.870   8.085  10.380  1.0691  0.7027 -0.6460
  736MOL0     H99329   2.842   8.252  10.335 -1.1636 -0.7286  1.5326
  736MOL0     H99330   2.666   8.021  10.223 -1.8767  0.2988  0.5249
  736MOL0     H99331   2.631   8.195  10.237 -0.3322 -0.3937 -3.3251
  736MOL0     H99332   2.652   8.007  10.496  0.4588 -0.2245  0.6391
  736MOL0     H99333   2.627   8.168  10.491  0.3040 -1.6439  1.5008
  736MOL0     H99334   2.413   8.168  10.389 -2.7372 -0.9613 -2.6087
  736MOL0     H99335   2.430   8.071  10.537  0.7192  0.4796 -0.9350
  736MOL0     H99336   2.304   7.976  10.332 -0.7662 -1.5854  2.8956
  736MOL0     H99337   2.457   7.956  10.258  1.2636  2.8197  1.4696
  736MOL0     H99338   2.352   7.797  10.496 -0.1747 -0.7808  0.7429
  736MOL0     H99339   2.526   7.827  10.461  0.5633 -2.6762 -2.4066
  736MOL0     H99340   2.492   7.624  10.351 -0.3412 -0.3737  0.6983
  736MOL0     H99341   2.500   7.741  10.227 -0.2612 -0.5691 -1.2493
  736MOL0     H99342   3.250   8.275  10.280  3.3482 -0.8206  0.8086
  736MOL0     H99343   3.480   8.236  10.188 -0.9886  0.8368  0.7144
  736MOL0     H99344   3.772   8.005  10.039  1.1408 -2.5209  0.4245
  736MOL0     H99345   3.971   7.885   9.995  1.5092  3.2319  0.6200
  736MOL0     H99346   5.866   6.998  10.089 -0.2225 -1.7620 -0.1390
  736MOL0     H99347   6.049   6.928  10.263 -0.0155 -0.5066  1.7886
  736MOL0     H99348   6.210   6.878  10.702  2.8341  0.1053  0.6274
  736MOL0     H99349   6.363   6.744  10.839 -1.5781  0.2490  2.5261
  736MOL0     H99350   6.541   6.583  10.902  2.5524 -0.9455 -0.7447
  736MOL0     H99351   6.539   6.411  10.903  0.1554 -0.0105 -1.3325
  736MOL0     H99352   6.651   6.515  10.712  0.6072  0.2272  1.1821
  736MOL0     H99353   6.485   6.582  10.665  0.3480  0.0628  1.2744
  736MOL0     H99354   6.411   6.344  10.624  0.2211 -2.8754  0.3079
  736MOL0     H99355   6.562   6.284  10.685  0.2248  1.3751  2.3775
  736MOL0     H99356   6.502   6.463  10.448  0.0712  2.4233  4.0839
  736MOL0     H99357   6.546   6.283  10.436  0.2548 -1.2332  3.0801
  736MOL0     H99358   6.919   6.479  10.439 -0.6739  2.0807 -0.8559
  736MOL0     H99359   6.131   6.393  10.775 -1.8535 -0.1881 -2.0600
  736MOL0     H99360   5.956   6.522  10.656 -0.2123 -0.0792  0.4273
  737MOL0     O99361   9.649   5.429  10.624 -0.1530  0.1183  0.3086
  737MOL0     C99362   9.571   5.471  10.538  0.4188  0.8664 -0.4902
  737MOL0     O99363   9.565   5.604  10.510  0.2906  0.2562 -0.0742
  737MOL0     C99364   9.626   5.691  10.595  0.4854  0.0356 -0.6459
  737MOL0     C99365   9.543   5.781  10.665  0.5587  0.3264 -0.2026
  737MOL0     C99366   9.598   5.866  10.760  0.0522  0.2043  0.5758
  737MOL0     C99367   9.733   5.863  10.783  0.3125  0.2720  0.1051
  737MOL0     O99368   9.792   5.949  10.870 -0.3324 -0.5389  0.1320
  737MOL0     C99369   9.714   6.056  10.939  0.5919  0.2134  0.4114
  737MOL0     C99370   9.670   6.010  11.074  0.7509  0.1057 -1.0497
  737MOL0     C99371   9.603   6.123  11.153  0.4342 -0.8054  0.9902
  737MOL0     C99372   9.564   6.077  11.290 -0.3440 -0.2049 -0.6280
  737MOL0     C99373   9.513   6.197  11.376 -0.3633 -0.4974  0.0064
  737MOL0     C99374   9.483   6.159  11.517 -0.0413  0.4085 -0.3325
  737MOL0     C99375   9.489   6.286  11.604  0.2457 -0.7821 -0.4340
  737MOL0     C99376   9.412   6.405  11.552 -0.0965 -0.8015 -0.2422
  737MOL0     N99377   9.367   6.495  11.666  0.4391 -0.3274  0.1985
  737MOL0     C99378   9.441   6.542  11.769  0.4252  0.6517 -0.2723
  737MOL0     C99379   9.353   6.598  11.856 -0.4643  0.3305  0.5035
  737MOL0     C99380   9.392   6.648  11.988 -0.2096  0.5636 -0.2615
  737MOL0     C99381   9.298   6.593  12.105 -1.1081  0.1715 -0.2888
  737MOL0     C99382   9.346   6.647  12.243 -0.8211 -1.3953  0.9211
  737MOL0     C99383   9.266   6.594  12.359 -0.0936  0.5851  0.2458
  737MOL0     O99384   9.122   6.609  12.335 -0.4263 -0.6866 -0.0594
  737MOL0     C99385   9.035   6.565  12.427  0.0758 -0.0881  0.1552
  737MOL0     C99386   9.070   6.483  12.540  0.6936 -0.4462  0.4110
  737MOL0     C99387   8.981   6.430  12.638 -0.2354  0.1848  0.9416
  737MOL0     C99388   9.029   6.349  12.755  0.4265 -0.7325 -0.1701
  737MOL0     C99389   8.845   6.479  12.631  0.1267  0.4162  1.7453
  737MOL0     C99390   8.740   6.440  12.731 -0.2876 -0.3833  0.3703
  737MOL0     O99391   8.619   6.496  12.710  0.3475  0.8054  0.0317
  737MOL0     C99392   8.524   6.473  12.808 -0.0948 -0.3319 -0.1695
  737MOL0     C99393   8.534   6.504  12.941 -0.1355 -0.4117  0.1758
  737MOL0     C99394   8.435   6.485  13.035  0.6630  0.3694 -0.9642
  737MOL0     C99395   8.316   6.422  12.994 -0.4884  0.2213  0.9248
  737MOL0     O99396   8.220   6.373  13.078  0.0832 -0.0413  0.3165
  737MOL0     C99397   8.090   6.416  13.054 -0.0758 -0.4534 -0.9019
  737MOL0     C99398   8.045   6.506  13.175 -0.1318  0.1477 -0.4145
  737MOL0     C99399   8.118   6.635  13.208  0.2196  0.1830 -0.3811
  737MOL0     C99400   8.120   6.734  13.097 -0.5096  0.1872  0.2934
  737MOL0     C99401   8.191   6.863  13.120  0.4220  0.0142  0.1539
  737MOL0     C99402   8.345   6.853  13.129 -0.0669 -0.3193 -0.6643
  737MOL0     C99403   8.412   6.987  13.120 -0.0533  0.1210  0.3871
  737MOL0     C99404   8.435   7.053  13.254  0.2400  0.6601  0.1102
  737MOL0    Cl99405   8.565   6.963  13.330  0.0275 -0.1738  0.1723
  737MOL0     C99406   8.302   6.390  12.856  0.7979 -0.0825 -0.3077
  737MOL0     C99407   8.402   6.418  12.765  0.5357  0.2892  0.4075
  737MOL0     O99408   8.764   6.368  12.822  0.1467  0.0136 -0.2604
  737MOL0     C99409   8.810   6.564  12.527 -0.1999  0.9671  1.0882
  737MOL0     C99410   8.901   6.611  12.426 -0.7742 -0.8845  0.0817
  737MOL0     N99411   9.224   6.570  11.814  0.2386  0.2810  1.0297
  737MOL0     N99412   9.238   6.504  11.699 -0.8280 -0.3248 -0.5347
  737MOL0     C99413   9.816   5.783  10.712 -0.1403 -0.7163 -0.1606
  737MOL0     C99414   9.761   5.707  10.606  0.0399 -0.2704 -0.1519
  737MOL0     C99415   9.487   5.379  10.463 -1.3702  1.1539  0.5097
  737MOL0     C99416   9.424   5.423  10.340 -0.2155 -0.7497  0.4987
  737MOL0     C99417   9.355   5.326  10.266  0.8942  0.4892 -0.2900
  737MOL0     C99418   9.347   5.192  10.311 -0.3104  0.2561  0.0824
  737MOL0     O99419   9.280   5.110  10.228 -0.4802 -0.0409 -0.0274
  737MOL0     C99420   9.246   4.972  10.273 -0.1179  0.3908  0.5068
  737MOL0     C99421   9.114   4.929  10.212 -0.6874  0.1764  0.1966
  737MOL0     C99422   9.099   4.954  10.067 -0.9880 -0.6735 -0.5270
  737MOL0     C99423   9.194   4.864   9.986  0.3659  0.9994  1.1668
  737MOL0     C99424   9.154   4.861   9.843 -0.9731  0.0558 -0.2984
  737MOL0     C99425   9.141   4.838   9.725 -0.1533  0.4793 -0.7397
  737MOL0     C99426   9.408   5.155  10.432 -0.1009  0.2792  0.1988
  737MOL0     C99427   9.474   5.247  10.510 -0.6430 -1.2548  0.1436
  737MOL0     H99428   9.436   5.781  10.646  0.4204  2.4846  0.3578
  737MOL0     H99429   9.521   5.915  10.818 -0.8441 -0.6456  0.1261
  737MOL0     H99430   9.775   6.146  10.943 -3.0319  2.9242 -0.5019
  737MOL0     H99431   9.629   6.086  10.876  1.6689  1.0525 -0.6919
  737MOL0     H99432   9.593   5.932  11.064 -0.2028  1.0028 -0.8027
  737MOL0     H99433   9.758   5.973  11.128 -0.2560 -2.4762 -1.0221
  737MOL0     H99434   9.668   6.211  11.154  0.0483 -0.4313 -1.0332
  737MOL0     H99435   9.513   6.147  11.094 -0.5655 -0.8149  2.4687
  737MOL0     H99436   9.485   6.007  11.264  0.6373 -0.8206 -2.0646
  737MOL0     H99437   9.643   6.014  11.331 -0.4199  0.2816  0.2883
  737MOL0     H99438   9.589   6.275  11.373  0.1898 -1.0416 -0.6877
  737MOL0     H99439   9.429   6.243  11.323  0.2858 -0.1223 -0.7267
  737MOL0     H99440   9.381   6.119  11.524 -0.8049  1.4593 -3.5926
  737MOL0     H99441   9.553   6.085  11.555  0.5328 -0.9486 -3.6884
  737MOL0     H99442   9.443   6.252  11.697 -0.4248 -0.5458 -0.6789
  737MOL0     H99443   9.591   6.322  11.624  0.7733 -2.3614 -0.1253
  737MOL0     H99444   9.323   6.367  11.502  1.3744 -4.6454 -0.2669
  737MOL0     H99445   9.471   6.462  11.480  1.0175 -2.5609 -0.7789
  737MOL0     H99446   9.548   6.534  11.784  0.5206 -0.7667 -1.4404
  737MOL0     H99447   9.497   6.627  12.008 -0.1503  0.8182 -0.3062
  737MOL0     H99448   9.385   6.755  11.967  0.5449  0.8018  0.6180
  737MOL0     H99449   9.294   6.484  12.089 -1.4335  0.0375  0.6377
  737MOL0     H99450   9.191   6.611  12.090 -1.5813 -1.0602  1.2733
  737MOL0     H99451   9.328   6.755  12.240 -0.5246 -1.3432  1.0304
  737MOL0     H99452   9.455   6.635  12.249 -0.8341 -2.3785 -0.1869
  737MOL0     H99453   9.286   6.634  12.458 -1.6069  0.2551  0.7131
  737MOL0     H99454   9.286   6.487  12.363  3.5964  0.9711 -2.4166
  737MOL0     H99455   9.175   6.465  12.562  0.8168  2.3782  2.7695
  737MOL0     H99456   9.009   6.395  12.852 -0.9736 -1.0207 -0.2967
  737MOL0     H99457   8.978   6.254  12.768 -1.2019  0.4786  4.0863
  737MOL0     H99458   9.136   6.331  12.745  0.5879 -1.1504  1.7975
  737MOL0     H99459   8.629   6.542  12.980 -0.6969  1.6525 -0.3232
  737MOL0     H99460   8.447   6.514  13.139 -1.4196 -0.7809 -0.3509
  737MOL0     H99461   8.083   6.476  12.964  2.7129  0.3382 -0.6813
  737MOL0     H99462   8.012   6.340  13.047 -0.7360  0.1927 -0.6627
  737MOL0     H99463   7.941   6.533  13.154  0.3120  1.6920 -0.7287
  737MOL0     H99464   8.058   6.458  13.272  1.4975 -0.1467 -0.7566
  737MOL0     H99465   8.218   6.613  13.247  0.7991 -0.3383 -2.0585
  737MOL0     H99466   8.063   6.685  13.287 -1.7582 -0.9026 -0.9966
  737MOL0     H99467   8.173   6.696  13.009 -0.7516  2.5044 -0.9070
  737MOL0     H99468   8.018   6.761  13.071  0.0865  1.5618 -0.7506
  737MOL0     H99469   8.158   6.903  13.216  0.3063 -0.2169  0.2111
  737MOL0     H99470   8.173   6.934  13.039 -1.6388 -0.7376 -0.1162
  737MOL0     H99471   8.374   6.811  13.226  0.3290  3.0664  0.8293
  737MOL0     H99472   8.383   6.794  13.045  2.3754 -0.2890  0.3214
  737MOL0     H99473   8.354   7.052  13.054  2.7369 -0.4368 -2.8514
  737MOL0     H99474   8.510   6.972  13.074  1.1178 -2.3962  3.2984
  737MOL0     H99475   8.344   7.032  13.310  1.2923 -2.8404  0.7701
  737MOL0     H99476   8.445   7.162  13.253 -0.0105  0.7779  2.6589
  737MOL0     H99477   8.217   6.332  12.821 -0.6626  1.5145  0.4646
  737MOL0     H99478   8.404   6.385  12.662 -0.7603 -1.0647  0.7779
  737MOL0     H99479   8.711   6.607  12.516 -1.3090 -1.4717  0.8602
  737MOL0     H99480   8.859   6.689  12.363  2.2028  0.6866 -0.1296
  737MOL0     H99481   9.921   5.793  10.735 -0.3188 -2.3020  1.5315
  737MOL0     H99482   9.828   5.656  10.537  1.4027  2.1071 -0.6964
  737MOL0     H99483   9.427   5.528  10.310  0.3764 -0.1087  2.6304
  737MOL0     H99484   9.303   5.354  10.176  0.9561  1.1483 -0.1227
  737MOL0     H99485   9.319   4.895  10.247 -0.9957 -0.0066 -0.9084
  737MOL0     H99486   9.238   4.977  10.382 -2.3186 -0.7241  0.4492
  737MOL0     H99487   9.040   4.994  10.258 -1.3960 -0.2714 -0.2896
  737MOL0     H99488   9.095   4.824  10.238  2.5309 -0.0788  2.0420
  737MOL0     H99489   9.120   5.059  10.044  0.9326 -0.3006  2.4583
  737MOL0     H99490   8.994   4.935  10.045 -1.7521 -0.2233  2.3307
  737MOL0     H99491   9.185   4.763  10.028  0.2401  0.3576 -0.3469
  737MOL0     H99492   9.297   4.902   9.987  0.1634  1.5556  1.1262
  737MOL0     H99493   9.147   4.812   9.621  0.3347  0.7144 -0.7770
  737MOL0     H99494   9.406   5.050  10.461 -2.4251  0.2852  0.2782
  737MOL0     H99495   9.527   5.215  10.599  1.1658  0.2078 -0.3375
  738MOL0     O99496   1.635   9.457   2.565 -0.6125 -0.2946  0.4203
  738MOL0     C99497   1.576   9.358   2.610 -0.7042  0.5676  0.8717
  738MOL0     O99498   1.444   9.343   2.616  0.3838  0.0277 -0.1099
  738MOL0     C99499   1.356   9.445   2.588  0.4504 -0.8306  0.2947
  738MOL0     C99500   1.377   9.579   2.553  0.8462  0.4262 -0.0086
  738MOL0     C99501   1.271   9.657   2.508  0.0050  0.2621  1.0289
  738MOL0     C99502   1.143   9.604   2.489  0.2798  0.2492 -0.1441
  738MOL0     O99503   1.053   9.697   2.441 -0.3564 -0.3438 -0.6669
  738MOL0     C99504   0.910   9.671   2.403 -0.6932  0.5171  0.5082
  738MOL0     C99505   0.842   9.812   2.375  0.3209 -0.4018 -0.2430
  738MOL0     C99506   0.891   9.861   2.243 -0.1731  0.3850  0.7333
  738MOL0     C99507   0.787   9.957   2.183  0.6342  0.5902 -0.5997
  738MOL0     C99508   0.818  10.009   2.055  0.3221  0.8252  0.5742
  738MOL0     C99509   0.685  10.057   1.973  0.4023 -0.5148  0.1709
  738MOL0     C99510   0.613  10.166   2.053  1.1688  0.3695  0.0987
  738MOL0     C99511   0.499  10.229   1.968 -0.0032 -0.5623 -0.1184
  738MOL0     N99512   0.407  10.289   2.067  0.0105  0.1524  0.0029
  738MOL0     C99513   0.275  10.293   2.045 -0.4379  0.1818 -0.4403
  738MOL0     C99514   0.225  10.352   2.153 -0.2933 -0.6569 -0.5921
  738MOL0     C99515   0.080  10.395   2.180 -0.2881 -0.3414 -0.1596
  738MOL0     C99516   0.022  10.475   2.061  0.5400  0.1007 -0.2532
  738MOL0     C99517  -0.109  10.530   2.095  0.3651  0.9470 -0.3871
  738MOL0     C99518  -0.212  10.540   1.983 -1.0060  0.0433  0.2859
  738MOL0     O99519  -0.280  10.412   1.943 -0.3176 -0.5281 -0.5897
  738MOL0     C99520  -0.415  10.409   1.969  0.2427 -0.6684  0.4380
  738MOL0     C99521  -0.485  10.485   2.066  0.0029 -0.2071  0.5093
  738MOL0     C99522  -0.631  10.485   2.070 -0.1933  0.6105 -0.2223
  738MOL0     C99523  -0.697  10.558   2.183  0.0480  0.3205 -0.1906
  738MOL0     C99524  -0.701  10.416   1.968  0.5682 -0.1617  0.7094
  738MOL0     C99525  -0.852  10.399   1.968  0.4516  0.1430 -0.2991
  738MOL0     O99526  -0.904  10.329   1.860 -0.5216 -0.0830 -0.2111
  738MOL0     C99527  -1.037  10.345   1.817 -1.6276 -0.3931  0.8326
  738MOL0     C99528  -1.090  10.231   1.753  0.3416 -1.0934  0.0212
  738MOL0     C99529  -1.224  10.242   1.709  0.5374 -1.0940 -0.7024
  738MOL0     C99530  -1.305  10.354   1.748  0.1029 -0.6533  0.1941
  738MOL0     O99531  -1.438  10.357   1.729 -0.0496  0.2997 -0.9488
  738MOL0     C99532  -1.492  10.448   1.633 -0.5842  0.0857 -0.9411
  738MOL0     C99533  -1.624  10.402   1.581  0.7540 -0.3985 -0.7466
  738MOL0     C99534  -1.675  10.508   1.474 -0.1030  0.0324 -0.6539
  738MOL0     C99535  -1.781  10.442   1.385  0.3163  0.2840 -0.7691
  738MOL0     C99536  -1.917  10.451   1.467  0.0275 -0.2924  0.2957
  738MOL0     C99537  -2.044  10.392   1.401 -0.6550 -0.1357  1.1076
  738MOL0     C99538  -2.048  10.238   1.381  1.1207 -1.1831 -0.0491
  738MOL0     C99539  -2.195  10.176   1.377 -0.6936  0.2464 -0.2751
  738MOL0    Cl99540  -2.258  10.140   1.546  0.0994 -0.2848 -0.3904
  738MOL0     C99541  -1.245  10.468   1.810 -0.7854  0.5204  0.4933
  738MOL0     C99542  -1.107  10.469   1.830  0.3860 -0.4034  0.1861
  738MOL0     O99543  -0.921  10.446   2.063  0.1577  0.9320  0.2443
  738MOL0     C99544  -0.631  10.344   1.869  0.1675  0.4796  0.2138
  738MOL0     C99545  -0.488  10.339   1.870 -0.4244  0.4528 -0.5806
  738MOL0     N99546   0.328  10.384   2.239 -0.0975  0.4365  0.4971
  738MOL0     N99547   0.436  10.351   2.178  0.1946 -0.2429 -0.2267
  738MOL0     C99548   1.119   9.472   2.531 -0.1504  0.4053 -0.2345
  738MOL0     C99549   1.227   9.398   2.576  0.6105 -0.0094  0.2262
  738MOL0     C99550   1.651   9.235   2.638 -0.1721  0.4639  0.1393
  738MOL0     C99551   1.787   9.228   2.674  0.1604  0.5775  0.5382
  738MOL0     C99552   1.844   9.101   2.694  0.0264  0.5527  1.0116
  738MOL0     C99553   1.776   8.984   2.678 -0.5875  0.4983 -0.1343
  738MOL0     O99554   1.839   8.862   2.696 -0.1986 -0.9821  0.1123
  738MOL0     C99555   1.779   8.736   2.651  0.8032 -0.4539 -0.2659
  738MOL0     C99556   1.884   8.635   2.673 -0.2986 -0.4064  0.3295
  738MOL0     C99557   2.016   8.673   2.603  0.2114 -0.2564  0.1665
  738MOL0     C99558   2.122   8.561   2.606  0.4036  0.7323  0.4858
  738MOL0     C99559   2.143   8.522   2.747 -0.4795 -0.5995 -0.4040
  738MOL0     C99560   2.170   8.480   2.855  0.3490  0.7020  0.5265
  738MOL0     C99561   1.645   8.988   2.639  0.2339  0.1585  0.3580
  738MOL0     C99562   1.585   9.114   2.626 -0.4642 -0.3180  0.5807
  738MOL0     H99563   1.478   9.620   2.553  1.0478 -0.0415  0.8862
  738MOL0     H99564   1.293   9.756   2.469 -0.3357 -1.2030 -3.4660
  738MOL0     H99565   0.902   9.605   2.317  1.8280  2.6295 -1.5367
  738MOL0     H99566   0.862   9.630   2.492 -0.6264 -1.5360 -0.3618
  738MOL0     H99567   0.736   9.789   2.363 -0.0217  1.2265 -0.6521
  738MOL0     H99568   0.847   9.878   2.462 -3.1932  0.0676 -0.2338
  738MOL0     H99569   0.988   9.911   2.243 -1.6682  3.8777 -3.5604
  738MOL0     H99570   0.898   9.776   2.175 -0.9482  0.4921  0.5165
  738MOL0     H99571   0.693   9.902   2.169  1.1794 -0.8318  0.9072
  738MOL0     H99572   0.771  10.035   2.257  0.3321 -1.6513  1.8544
  738MOL0     H99573   0.893  10.088   2.051  1.2823 -0.0763  0.0825
  738MOL0     H99574   0.872   9.938   1.991  1.0930  1.9659 -0.0799
  738MOL0     H99575   0.704  10.085   1.869 -0.4363 -0.3895  0.0431
  738MOL0     H99576   0.612   9.975   1.965 -0.1704 -0.1775  1.6297
  738MOL0     H99577   0.568  10.114   2.138  3.1457 -0.1298  0.8714
  738MOL0     H99578   0.677  10.243   2.095  0.2186  2.1075 -1.4684
  738MOL0     H99579   0.457  10.158   1.896  1.7207  0.8027 -2.6472
  738MOL0     H99580   0.536  10.309   1.903 -2.0390  0.3352 -0.2125
  738MOL0     H99581   0.231  10.265   1.950  0.0495  0.2267 -0.6873
  738MOL0     H99582   0.005  10.317   2.193 -0.7850 -0.4171 -2.7888
  738MOL0     H99583   0.080  10.452   2.274  0.3380 -1.9086  0.8269
  738MOL0     H99584   0.015  10.420   1.967 -1.7998  0.1070 -0.1537
  738MOL0     H99585   0.096  10.554   2.050  1.2260  0.2801  3.9882
  738MOL0     H99586  -0.101  10.631   2.137 -0.1410  0.2562  1.4815
  738MOL0     H99587  -0.155  10.476   2.179 -4.3388  6.0417  0.9649
  738MOL0     H99588  -0.149  10.566   1.898 -0.3107 -1.4893  0.3006
  738MOL0     H99589  -0.286  10.619   1.999 -0.1791  0.9651 -0.3070
  738MOL0     H99590  -0.428  10.535   2.143  0.0505 -1.1757  1.1224
  738MOL0     H99591  -0.749  10.647   2.146 -1.0552  0.2689  1.1292
  738MOL0     H99592  -0.774  10.495   2.230  0.9306  0.4105  1.4416
  738MOL0     H99593  -0.630  10.580   2.267 -1.2201 -0.8074  1.1966
  738MOL0     H99594  -1.029  10.146   1.725 -0.0291 -0.3387 -3.5556
  738MOL0     H99595  -1.269  10.160   1.655  1.2158 -1.4429 -0.7472
  738MOL0     H99596  -1.511  10.544   1.682  1.0009 -1.3712  2.9150
  738MOL0     H99597  -1.421  10.469   1.552  0.7656  1.4853  0.5217
  738MOL0     H99598  -1.607  10.302   1.540 -3.3218 -1.3270 -0.5806
  738MOL0     H99599  -1.700  10.404   1.659  1.1802  2.6929 -0.2934
  738MOL0     H99600  -1.592  10.523   1.404  0.1025 -1.2792 -0.7214
  738MOL0     H99601  -1.712  10.603   1.515 -2.0637 -0.2527 -1.6517
  738MOL0     H99602  -1.795  10.509   1.299  1.9745  0.2671 -1.0982
  738MOL0     H99603  -1.750  10.343   1.350  0.3761  0.8650 -2.4462
  738MOL0     H99604  -1.931  10.558   1.482  2.0713  0.3819 -2.0093
  738MOL0     H99605  -1.907  10.409   1.567  0.0777  2.3693  1.4716
  738MOL0     H99606  -2.129  10.428   1.460 -0.1637  2.3110  0.4361
  738MOL0     H99607  -2.058  10.432   1.300 -2.7883 -0.0257  1.3930
  738MOL0     H99608  -1.996  10.187   1.462  0.7098 -0.0279  0.9682
  738MOL0     H99609  -2.008  10.219   1.281 -0.2569  2.4688 -1.4787
  738MOL0     H99610  -2.197  10.079   1.326 -3.7162 -0.3183  0.6925
  738MOL0     H99611  -2.259  10.252   1.333 -0.3169  1.2953  0.9141
  738MOL0     H99612  -1.302  10.555   1.841  0.7571  1.7649  0.0299
  738MOL0     H99613  -1.063  10.556   1.878 -1.0937  0.9108 -0.7401
  738MOL0     H99614  -0.683  10.289   1.791  3.0848  0.2344 -1.7042
  738MOL0     H99615  -0.430  10.275   1.804 -0.8084 -1.7988  1.1659
  738MOL0     H99616   1.020   9.433   2.514 -0.8433  1.7828  0.4601
  738MOL0     H99617   1.216   9.292   2.597 -1.4883 -0.7918 -3.6839
  738MOL0     H99618   1.846   9.316   2.696  0.7528 -0.3835  3.3585
  738MOL0     H99619   1.947   9.090   2.727  0.8190  0.8650 -1.2065
  738MOL0     H99620   1.682   8.703   2.688  0.6007 -1.3247 -1.5106
  738MOL0     H99621   1.749   8.746   2.547 -0.4268 -0.1415  0.1032
  738MOL0     H99622   1.848   8.541   2.630  1.2562  0.1303 -2.3392
  738MOL0     H99623   1.906   8.623   2.780  0.6237 -0.8870  0.0956
  738MOL0     H99624   2.058   8.764   2.647 -0.8196  1.2330 -1.7013
  738MOL0     H99625   1.999   8.694   2.497  2.5488  2.3752  0.2033
  738MOL0     H99626   2.215   8.582   2.552 -0.2782  5.7808  0.7518
  738MOL0     H99627   2.079   8.473   2.557  0.0814  1.7457 -1.1436
  738MOL0     H99628   2.197   8.445   2.952  1.7058 -2.7340 -0.9473
  738MOL0     H99629   1.592   8.895   2.619  1.6359 -0.4976 -0.5238
  738MOL0     H99630   1.480   9.113   2.598 -0.1224 -0.1186 -0.7542
  739MOL0     O99631   0.195   6.632   8.407 -0.4181 -0.1405 -0.1680
  739MOL0     C99632   0.289   6.711   8.405 -0.0167 -0.0005 -0.6385
  739MOL0     O99633   0.278   6.852   8.371 -0.4018  0.1469  0.3589
  739MOL0     C99634   0.174   6.929   8.327 -0.2251 -0.6020 -0.0596
  739MOL0     C99635   0.203   7.050   8.262  0.1103 -0.2585 -0.6662
  739MOL0     C99636   0.109   7.141   8.215  0.9290  0.4521  0.4307
  739MOL0     C99637  -0.026   7.110   8.204  0.0817 -0.7457  0.4711
  739MOL0     O99638  -0.111   7.197   8.132  0.0112 -0.9854  0.3224
  739MOL0     C99639  -0.243   7.148   8.115  0.3400 -0.3214  0.5834
  739MOL0     C99640  -0.337   7.231   8.046  0.3847 -0.9867 -0.7249
  739MOL0     C99641  -0.478   7.156   8.056  0.0841 -0.2944 -1.1902
  739MOL0     C99642  -0.582   7.231   7.976 -0.1444  0.4737  0.0398
  739MOL0     C99643  -0.719   7.161   7.995 -0.0761 -0.3628 -0.3307
  739MOL0     C99644  -0.826   7.234   7.917 -0.0335 -0.4271 -0.3710
  739MOL0     C99645  -0.962   7.171   7.924 -0.3232  0.1689 -0.3044
  739MOL0     C99646  -1.050   7.245   7.826  1.2036 -0.3460  0.5823
  739MOL0     N99647  -1.172   7.155   7.814 -0.3619  0.1935  0.3107
  739MOL0     C99648  -1.179   7.023   7.770  0.3479  0.0292  0.0140
  739MOL0     C99649  -1.307   7.004   7.728 -0.4041 -0.4414 -0.5218
  739MOL0     C99650  -1.370   6.881   7.679  0.6459  0.5769 -0.2282
  739MOL0     C99651  -1.353   6.844   7.533 -0.6419 -0.7421 -0.8810
  739MOL0     C99652  -1.422   6.710   7.509  0.3163 -0.4295 -0.3513
  739MOL0     C99653  -1.574   6.718   7.538 -0.7428 -0.6297  0.7145
  739MOL0     O99654  -1.617   6.837   7.476 -0.0810  0.0433  0.3486
  739MOL0     C99655  -1.747   6.827   7.422 -0.3879 -0.0210  0.5645
  739MOL0     C99656  -1.770   6.914   7.316 -0.8256  0.1813 -0.6669
  739MOL0     C99657  -1.895   6.921   7.253  0.4122  0.7788  0.6836
  739MOL0     C99658  -1.906   7.025   7.139 -0.0484 -0.2379 -0.3213
  739MOL0     C99659  -2.011   6.859   7.312 -1.4146 -0.3843 -0.0829
  739MOL0     C99660  -2.155   6.862   7.260  0.1104 -0.5462 -1.0269
  739MOL0     O99661  -2.250   6.808   7.347  0.0093  0.4012  0.5034
  739MOL0     C99662  -2.372   6.809   7.294  0.0914  0.1042  0.6695
  739MOL0     C99663  -2.411   6.681   7.233 -0.2786  0.0196 -0.1857
  739MOL0     C99664  -2.543   6.672   7.178  0.1041 -1.0183 -0.1476
  739MOL0     C99665  -2.633   6.777   7.190  0.4873 -0.6452 -0.4528
  739MOL0     O99666  -2.757   6.757   7.133  0.1639  0.4886 -0.2712
  739MOL0     C99667  -2.875   6.820   7.197  0.1380 -0.5859 -0.3217
  739MOL0     C99668  -2.964   6.869   7.084 -0.4241  0.2443  0.2948
  739MOL0     C99669  -3.111   6.877   7.135 -0.2352  0.5775 -0.2492
  739MOL0     C99670  -3.199   6.962   7.047 -0.4361  0.4368  0.0718
  739MOL0     C99671  -3.348   6.946   7.079  0.8194  0.6573  0.0111
  739MOL0     C99672  -3.428   7.028   6.988  0.7220 -0.4029  0.1434
  739MOL0     C99673  -3.575   6.993   7.021 -0.1330 -1.1897  0.5699
  739MOL0     C99674  -3.670   7.049   6.922  0.5608  0.4827  0.2338
  739MOL0    Cl99675  -3.824   7.009   7.005  0.1833 -0.0088  0.1931
  739MOL0     C99676  -2.593   6.905   7.254  0.8523 -0.2249  0.1417
  739MOL0     C99677  -2.459   6.915   7.306  0.1396  1.6356 -0.2595
  739MOL0     O99678  -2.177   6.910   7.150  0.3009 -0.1916  0.3355
  739MOL0     C99679  -1.989   6.788   7.430 -0.4826 -0.2850 -0.0237
  739MOL0     C99680  -1.855   6.766   7.481  0.6757 -0.1544  0.3419
  739MOL0     N99681  -1.385   7.122   7.749 -0.4108  0.2267 -0.1960
  739MOL0     N99682  -1.297   7.206   7.796 -0.4530  0.1089 -0.3017
  739MOL0     C99683  -0.061   6.984   8.267  0.1238  0.0424 -0.2191
  739MOL0     C99684   0.034   6.902   8.324  0.2967  0.4187 -0.0142
  739MOL0     C99685   0.419   6.669   8.455  0.3246  0.1538 -0.5443
  739MOL0     C99686   0.529   6.747   8.420 -0.5664 -0.1851  0.0109
  739MOL0     C99687   0.662   6.712   8.460  0.3751 -0.0098 -0.7449
  739MOL0     C99688   0.687   6.596   8.537 -1.0534 -0.3801  0.3163
  739MOL0     O99689   0.816   6.580   8.574  0.7396 -0.2738 -0.9859
  739MOL0     C99690   0.841   6.484   8.675  0.6364 -0.3408  0.5564
  739MOL0     C99691   0.988   6.484   8.696  0.0497 -0.4707 -0.2825
  739MOL0     C99692   1.034   6.374   8.792 -0.2926  1.5255  0.5414
  739MOL0     C99693   1.032   6.238   8.723  0.0921  0.5066  0.3618
  739MOL0     C99694   1.077   6.135   8.823  0.7451  0.2426  0.1587
  739MOL0     C99695   1.086   6.031   8.884 -1.4090  1.0869  0.3435
  739MOL0     C99696   0.570   6.518   8.568 -1.2387  1.4413  0.1189
  739MOL0     C99697   0.441   6.556   8.530 -0.9568 -0.6686 -0.2069
  739MOL0     H99698   0.311   7.059   8.262 -0.0410  3.7869  0.9107
  739MOL0     H99699   0.152   7.233   8.177  1.5719  0.6833  1.6748
  739MOL0     H99700  -0.241   7.054   8.060  1.1428 -0.8817  1.5444
  739MOL0     H99701  -0.282   7.131   8.216  1.1512  1.5108  1.2485
  739MOL0     H99702  -0.358   7.326   8.096 -5.3512 -2.1312 -0.2583
  739MOL0     H99703  -0.315   7.236   7.939 -0.3449 -3.4595 -1.0704
  739MOL0     H99704  -0.464   7.052   8.023 -0.1937 -0.6563 -0.2122
  739MOL0     H99705  -0.512   7.170   8.159 -0.0939  0.5985 -1.3679
  739MOL0     H99706  -0.586   7.337   8.005 -1.8015  0.1066  1.3644
  739MOL0     H99707  -0.558   7.240   7.870  3.9659 -0.1095  0.7723
  739MOL0     H99708  -0.701   7.057   7.967  4.5790 -1.1349  3.9180
  739MOL0     H99709  -0.757   7.148   8.097 -0.1121  0.5320 -0.2216
  739MOL0     H99710  -0.842   7.334   7.960 -2.1532 -1.1154  0.6249
  739MOL0     H99711  -0.785   7.239   7.816  2.4389  2.3079  0.6294
  739MOL0     H99712  -0.956   7.062   7.921 -0.1690  0.1546  0.3031
  739MOL0     H99713  -0.994   7.194   8.026  0.2650  2.6506 -0.6268
  739MOL0     H99714  -1.007   7.244   7.726 -0.2126 -0.8831 -0.0533
  739MOL0     H99715  -1.087   7.339   7.867 -1.4330 -1.8451  1.9107
  739MOL0     H99716  -1.103   6.946   7.776 -2.2505 -2.6171  1.5395
  739MOL0     H99717  -1.343   6.792   7.737  0.7768 -0.2238 -1.4754
  739MOL0     H99718  -1.479   6.890   7.687  0.2616 -1.2109 -2.4046
  739MOL0     H99719  -1.249   6.848   7.500  1.0455 -2.5754  3.4326
  739MOL0     H99720  -1.406   6.917   7.472  0.3879  0.3015 -0.5647
  739MOL0     H99721  -1.373   6.623   7.554 -1.2937 -2.1958 -1.8574
  739MOL0     H99722  -1.423   6.680   7.404 -0.9614  2.6557 -1.3288
  739MOL0     H99723  -1.605   6.718   7.643  1.7123 -0.1215  1.5079
  739MOL0     H99724  -1.620   6.630   7.492  0.0446 -0.0222 -1.3440
  739MOL0     H99725  -1.691   6.981   7.283  0.6898 -1.4710 -0.5331
  739MOL0     H99726  -1.971   7.108   7.166  1.1819  1.9478 -3.4561
  739MOL0     H99727  -1.811   7.072   7.112 -0.3476  1.0007  0.6829
  739MOL0     H99728  -1.944   6.979   7.047  1.7268 -2.2916 -0.1146
  739MOL0     H99729  -2.349   6.592   7.233 -0.4933 -0.1330 -0.7207
  739MOL0     H99730  -2.572   6.579   7.130 -0.7583 -1.3523  0.9816
  739MOL0     H99731  -2.921   6.743   7.258 -0.3745 -0.0121  0.0291
  739MOL0     H99732  -2.866   6.904   7.267 -1.1648  1.3708 -2.3467
  739MOL0     H99733  -2.935   6.968   7.046  1.1931  0.5261  2.0521
  739MOL0     H99734  -2.953   6.807   6.995  0.9586  0.9729 -0.0766
  739MOL0     H99735  -3.115   6.896   7.243  1.0804  0.0396 -0.0819
  739MOL0     H99736  -3.155   6.779   7.113 -3.1415  1.8427 -0.4914
  739MOL0     H99737  -3.168   7.066   7.061 -1.3096  0.6878  0.1930
  739MOL0     H99738  -3.185   6.937   6.941  0.9856 -0.6716  0.4953
  739MOL0     H99739  -3.371   6.975   7.182  3.1194  3.9016 -0.2199
  739MOL0     H99740  -3.367   6.839   7.067  2.8981  0.4801 -2.5573
  739MOL0     H99741  -3.413   7.135   7.008 -2.2354  0.0097  0.6402
  739MOL0     H99742  -3.404   7.016   6.882 -3.4928  1.2701 -1.2148
  739MOL0     H99743  -3.598   7.030   7.121  1.2697 -1.2978  0.9519
  739MOL0     H99744  -3.576   6.884   7.014  2.9886 -1.2297 -1.3013
  739MOL0     H99745  -3.669   6.986   6.833 -1.2364 -1.3661  1.4532
  739MOL0     H99746  -3.658   7.157   6.905 -0.4853  0.7260  0.9217
  739MOL0     H99747  -2.655   6.993   7.262  1.5364  0.2857 -0.1442
  739MOL0     H99748  -2.419   7.001   7.360  0.8573  2.4999 -2.0978
  739MOL0     H99749  -2.069   6.742   7.488  1.8502 -1.2777  2.6139
  739MOL0     H99750  -1.838   6.718   7.576  0.7269 -1.0412 -0.1089
  739MOL0     H99751  -0.163   6.948   8.273 -1.0847  2.5438 -3.4027
  739MOL0     H99752   0.001   6.803   8.356  0.0090  0.8723  1.1501
  739MOL0     H99753   0.524   6.844   8.371 -0.1469  0.4283  1.1317
  739MOL0     H99754   0.742   6.777   8.426 -0.2643  1.5569  0.5997
  739MOL0     H99755   0.791   6.533   8.759 -1.8648  0.4356 -1.2359
  739MOL0     H99756   0.801   6.383   8.661  0.7696 -0.4167  0.7275
  739MOL0     H99757   1.012   6.583   8.736  0.3708 -0.2953 -0.8892
  739MOL0     H99758   1.040   6.483   8.600 -1.4800  1.5704 -1.2093
  739MOL0     H99759   0.966   6.377   8.878 -2.2781  1.3598 -0.9350
  739MOL0     H99760   1.137   6.382   8.827  0.2470 -1.2969 -0.2264
  739MOL0     H99761   1.093   6.225   8.634  3.3697 -2.2546  2.7559
  739MOL0     H99762   0.929   6.213   8.694  0.3792  0.7427 -0.9167
  739MOL0     H99763   1.093   5.939   8.939  0.2768  2.4417  2.5635
  739MOL0     H99764   0.574   6.427   8.627  0.9745  1.6060  0.3327
  739MOL0     H99765   0.362   6.486   8.556 -1.8346  1.2142  2.6122
  740MOL0     O99766   0.092   5.500  10.752 -0.0835  0.2242  0.0322
  740MOL0     C99767   0.176   5.466  10.824  0.5319  0.5984 -0.8319
  740MOL0     O99768   0.235   5.338  10.825  0.7149  0.0389  0.4867
  740MOL0     C99769   0.200   5.232  10.748  0.1142 -0.3737 -0.3905
  740MOL0     C99770   0.111   5.217  10.637  0.0591  0.3161 -0.1940
  740MOL0     C99771   0.087   5.092  10.587  0.0290  0.8063 -0.2358
  740MOL0     C99772   0.151   4.976  10.633 -0.4253 -0.1990  0.5216
  740MOL0     O99773   0.116   4.858  10.563  0.1231  0.5160 -0.1913
  740MOL0     C99774   0.171   4.730  10.606 -0.1684  0.3862 -0.3357
  740MOL0     C99775   0.114   4.684  10.737  0.6918 -0.4571  1.0112
  740MOL0     C99776   0.192   4.564  10.801  0.4702  0.1053 -0.5717
  740MOL0     C99777   0.202   4.432  10.725  0.5867 -0.1099 -0.2026
  740MOL0     C99778   0.080   4.344  10.750 -0.2196  0.2516 -0.1004
  740MOL0     C99779   0.074   4.229  10.647 -0.7862  0.1746  0.0857
  740MOL0     C99780  -0.050   4.138  10.663  0.2545 -0.6526 -1.3606
  740MOL0     C99781  -0.045   4.025  10.565  0.6798  0.0703  0.0724
  740MOL0     N99782  -0.110   3.904  10.608 -0.2991  0.2165 -0.3225
  740MOL0     C99783  -0.088   3.774  10.577  0.9942 -0.7957  0.0270
  740MOL0     C99784  -0.184   3.698  10.649 -0.2634 -1.1469  0.2013
  740MOL0     C99785  -0.204   3.555  10.636  0.2825  0.0762  0.1673
  740MOL0     C99786  -0.319   3.520  10.533 -0.1968 -0.2808 -0.7540
  740MOL0     C99787  -0.452   3.588  10.565 -0.2223  0.4335  0.3889
  740MOL0     C99788  -0.561   3.512  10.488 -0.6274  0.5261 -0.1205
  740MOL0     O99789  -0.688   3.559  10.518  0.2690 -0.3788 -0.4906
  740MOL0     C99790  -0.799   3.487  10.472  0.3414  1.1101  0.6470
  740MOL0     C99791  -0.804   3.409  10.357 -0.2984 -0.6808  0.1747
  740MOL0     C99792  -0.925   3.357  10.307  1.1819 -1.0121 -0.1072
  740MOL0     C99793  -0.909   3.290  10.175  0.8564  0.6470  0.0770
  740MOL0     C99794  -1.045   3.360  10.385  0.5941 -0.5611  0.5015
  740MOL0     C99795  -1.168   3.297  10.343 -0.0520 -0.1988  0.4260
  740MOL0     O99796  -1.255   3.266  10.450  0.1675 -0.0696 -0.1930
  740MOL0     C99797  -1.387   3.241  10.430  0.1478  0.5833  0.4802
  740MOL0     C99798  -1.435   3.153  10.330 -0.6670 -1.0465  0.1236
  740MOL0     C99799  -1.569   3.130  10.322  0.1205  0.0000  0.0074
  740MOL0     C99800  -1.663   3.196  10.404  0.9317 -0.1219  0.0871
  740MOL0     O99801  -1.800   3.172  10.375 -0.8934  0.3384 -0.1753
  740MOL0     C99802  -1.895   3.226  10.464 -0.0035 -0.1842 -0.1248
  740MOL0     C99803  -2.024   3.154  10.443 -0.2911  0.5830  0.3801
  740MOL0     C99804  -2.106   3.187  10.321 -0.0925  0.1426 -0.8461
  740MOL0     C99805  -2.249   3.136  10.343 -0.2638  0.3225  0.5738
  740MOL0     C99806  -2.332   3.192  10.228 -0.2525 -0.1772 -0.2940
  740MOL0     C99807  -2.478   3.130  10.242  0.6166 -0.3697 -0.6833
  740MOL0     C99808  -2.588   3.208  10.169 -0.1980 -0.2892 -0.4786
  740MOL0     C99809  -2.717   3.123  10.151 -0.3563  0.0592  0.1935
  740MOL0    Cl99810  -2.690   2.991  10.032 -0.2688 -0.1806 -0.0676
  740MOL0     C99811  -1.611   3.291  10.493  0.5199  0.1469 -0.1713
  740MOL0     C99812  -1.474   3.300  10.518  0.9683  0.4785  0.0426
  740MOL0     O99813  -1.199   3.282  10.225 -0.3156  0.5372 -0.0694
  740MOL0     C99814  -1.037   3.429  10.507  0.2480 -0.5234  0.4287
  740MOL0     C99815  -0.917   3.485  10.546 -0.4736 -0.8237 -0.6206
  740MOL0     N99816  -0.248   3.785  10.729 -0.1786 -0.7118 -0.0313
  740MOL0     N99817  -0.208   3.912  10.703  0.7248  0.1932 -0.1031
  740MOL0     C99818   0.239   4.986  10.738  0.6892 -0.4117  0.5193
  740MOL0     C99819   0.256   5.115  10.800  0.1021 -0.3072  0.0604
  740MOL0     C99820   0.245   5.567  10.909 -0.5324 -0.2495  0.3897
  740MOL0     C99821   0.162   5.675  10.960 -0.0071 -0.2442  0.7574
  740MOL0     C99822   0.224   5.775  11.035  0.4953 -0.2681 -0.0273
  740MOL0     C99823   0.359   5.764  11.065 -0.2061 -0.4622 -0.0445
  740MOL0     O99824   0.409   5.857  11.152  0.7553  0.0049  0.1420
  740MOL0     C99825   0.425   5.993  11.101 -0.4708 -1.2862  0.0218
  740MOL0     C99826   0.547   6.005  11.014  0.4362 -0.4440  0.2892
  740MOL0     C99827   0.676   6.000  11.107 -0.6047 -0.2574  0.6917
  740MOL0     C99828   0.751   5.870  11.107  0.4311 -0.3263  0.3814
  740MOL0     C99829   0.874   5.899  11.181  1.0760  0.2522 -0.5782
  740MOL0     C99830   0.963   5.923  11.256  0.0110 -0.2395 -0.0759
  740MOL0     C99831   0.441   5.659  11.026 -0.3027  0.3046  0.8388
  740MOL0     C99832   0.382   5.552  10.950  0.5914 -0.7616 -0.7981
  740MOL0     H99833   0.053   5.303  10.605 -2.3251 -1.3471 -0.6117
  740MOL0     H99834  -0.002   5.083  10.525 -1.2976  0.1447  1.6846
  740MOL0     H99835   0.173   4.646  10.536 -0.4519 -0.7458  0.9665
  740MOL0     H99836   0.278   4.747  10.622  0.0978 -0.9578 -0.5692
  740MOL0     H99837   0.114   4.770  10.805  0.8106 -0.2443  0.7441
  740MOL0     H99838   0.010   4.655  10.722  0.9844 -1.8461  1.5254
  740MOL0     H99839   0.287   4.607  10.837 -0.7726  1.3285  1.4247
  740MOL0     H99840   0.134   4.552  10.893  0.7750 -0.5634 -0.4620
  740MOL0     H99841   0.205   4.447  10.617  2.3805 -0.1783 -0.1926
  740MOL0     H99842   0.288   4.378  10.767 -0.4295 -0.2871  1.7805
  740MOL0     H99843   0.082   4.297  10.848  0.7045 -3.0270 -1.5562
  740MOL0     H99844  -0.006   4.410  10.736  1.9673  3.4400  0.1071
  740MOL0     H99845   0.093   4.264  10.545  3.2598  0.8015  0.8926
  740MOL0     H99846   0.159   4.167  10.675 -1.5202 -1.8007 -1.8165
  740MOL0     H99847  -0.062   4.097  10.764  0.2332  1.0818 -0.6184
  740MOL0     H99848  -0.140   4.197  10.647  0.2983 -0.1348  0.1596
  740MOL0     H99849   0.057   3.990  10.550  0.1769 -2.3308  1.6911
  740MOL0     H99850  -0.087   4.062  10.470 -0.3976 -1.5591 -0.1290
  740MOL0     H99851  -0.038   3.746  10.485  2.2197 -1.2672  0.8228
  740MOL0     H99852  -0.111   3.513  10.595 -0.5660  0.4739 -2.3328
  740MOL0     H99853  -0.228   3.513  10.733  0.4876  3.4607  1.8314
  740MOL0     H99854  -0.328   3.412  10.538  2.2131 -0.5054 -0.0901
  740MOL0     H99855  -0.285   3.548  10.432  0.1663 -2.1966 -1.1959
  740MOL0     H99856  -0.462   3.692  10.531 -1.0577  0.0873 -0.4668
  740MOL0     H99857  -0.473   3.588  10.672 -0.0653 -0.3887  0.4263
  740MOL0     H99858  -0.558   3.408  10.521 -0.8025  0.7859  0.7488
  740MOL0     H99859  -0.541   3.526  10.381  0.8674  0.8811  0.1721
  740MOL0     H99860  -0.715   3.416  10.295  0.3441  0.9403  1.2231
  740MOL0     H99861  -0.944   3.187  10.186  0.0021  0.6641 -2.0679
  740MOL0     H99862  -0.963   3.344  10.096  0.5598 -1.1448 -0.9995
  740MOL0     H99863  -0.812   3.268  10.128 -0.2425  1.6141 -2.9021
  740MOL0     H99864  -1.370   3.110  10.254  1.3084 -0.3421  1.3212
  740MOL0     H99865  -1.608   3.068  10.241 -0.9234  0.0220  0.4705
  740MOL0     H99866  -1.869   3.198  10.567 -3.3679 -2.4526  0.2863
  740MOL0     H99867  -1.904   3.334  10.451 -3.5853 -0.0749  1.9386
  740MOL0     H99868  -1.998   3.049  10.431  1.3922  1.0453 -0.2668
  740MOL0     H99869  -2.091   3.171  10.528 -1.9108 -2.0158 -0.2704
  740MOL0     H99870  -2.059   3.143  10.232 -1.2635 -1.4431 -0.7299
  740MOL0     H99871  -2.098   3.295  10.313  3.0069  0.1418  0.6455
  740MOL0     H99872  -2.243   3.028  10.328  1.6426  0.7737 -2.6569
  740MOL0     H99873  -2.300   3.160  10.438 -0.7837  0.6693  0.2143
  740MOL0     H99874  -2.285   3.160  10.135  2.1316 -1.7979  1.3537
  740MOL0     H99875  -2.340   3.300  10.210  0.6227 -0.2158 -0.9738
  740MOL0     H99876  -2.481   3.024  10.214  2.1015 -0.9572  1.1324
  740MOL0     H99877  -2.521   3.146  10.342 -0.6342 -0.2825 -1.2281
  740MOL0     H99878  -2.558   3.242  10.070  0.3178 -1.0999 -0.6101
  740MOL0     H99879  -2.613   3.297  10.227  2.2349  0.6622 -0.7645
  740MOL0     H99880  -2.802   3.190  10.136  1.6500  2.7738  0.1874
  740MOL0     H99881  -2.738   3.085  10.251  1.4475  3.0690  1.8648
  740MOL0     H99882  -1.682   3.363  10.533  1.8507  0.1090  2.4959
  740MOL0     H99883  -1.434   3.377  10.584  1.6741 -2.1213  2.8842
  740MOL0     H99884  -1.119   3.437  10.579  0.6514  0.0061  0.8405
  740MOL0     H99885  -0.907   3.510  10.651  1.7859 -1.4910 -0.6218
  740MOL0     H99886   0.287   4.898  10.780  0.2034 -1.0080 -0.1442
  740MOL0     H99887   0.317   5.140  10.886  0.5441  1.3217 -0.6900
  740MOL0     H99888   0.058   5.683  10.930  0.0349 -2.6115 -0.3072
  740MOL0     H99889   0.166   5.853  11.082 -0.4650  0.2327 -1.9426
  740MOL0     H99890   0.331   6.027  11.057  1.2419  3.9358 -0.2052
  740MOL0     H99891   0.443   6.065  11.181  1.4718  2.6860 -3.5665
  740MOL0     H99892   0.558   6.101  10.963 -1.5020 -0.9074 -1.0922
  740MOL0     H99893   0.545   5.933  10.932 -1.4905  0.8642 -0.8958
  740MOL0     H99894   0.652   6.004  11.213 -0.5950 -2.9812  0.8595
  740MOL0     H99895   0.740   6.087  11.088 -0.8467  0.2168  1.9755
  740MOL0     H99896   0.767   5.839  11.003  2.0687  2.3263 -0.2466
  740MOL0     H99897   0.691   5.799  11.164  0.2354  0.2759  0.9401
  740MOL0     H99898   1.030   5.950  11.334 -1.1334  1.2920  0.4289
  740MOL0     H99899   0.541   5.651  11.067 -0.6652  0.5728  1.8067
  740MOL0     H99900   0.442   5.461  10.946  1.1816 -0.3412 -2.4926
  741MOL0     O99901   7.433   0.099   1.628 -0.1841  0.1387 -0.8944
  741MOL0     C99902   7.482  -0.014   1.631  0.2307 -0.5499  0.6594
  741MOL0     O99903   7.419  -0.129   1.670 -0.2087 -0.8707  0.3914
  741MOL0     C99904   7.290  -0.116   1.709  0.5532  0.6593 -0.7245
  741MOL0     C99905   7.190  -0.085   1.627  0.8084  1.0758  1.1599
  741MOL0     C99906   7.058  -0.090   1.667 -0.2882 -0.8366 -0.8848
  741MOL0     C99907   7.028  -0.118   1.805  0.8819 -0.2105  0.2985
  741MOL0     O99908   6.897  -0.114   1.856 -0.3400 -0.9671 -0.0866
  741MOL0     C99909   6.789  -0.143   1.768  0.0462  0.2591  0.7764
  741MOL0     C99910   6.664  -0.177   1.848 -0.3099 -0.1648 -0.0057
  741MOL0     C99911   6.605  -0.058   1.913 -0.6502 -0.2096 -0.3190
  741MOL0     C99912   6.511  -0.102   2.019  0.7817  0.3470 -0.2998
  741MOL0     C99913   6.433   0.001   2.085  0.0638 -0.2120 -0.0149
  741MOL0     C99914   6.345  -0.038   2.202 -0.0752  0.3277  0.2281
  741MOL0     C99915   6.247   0.078   2.233  0.5563 -0.1263  0.3887
  741MOL0     C99916   6.169   0.041   2.358 -0.3776  0.6913  1.3748
  741MOL0     N99917   6.057   0.132   2.371 -0.7863  0.3280  0.7585
  741MOL0     C99918   5.941   0.135   2.284 -0.3785  1.3250  0.8587
  741MOL0     C99919   5.848   0.206   2.364 -0.1808 -0.2023 -0.3794
  741MOL0     C99920   5.717   0.247   2.321  0.6545 -0.1939  0.4183
  741MOL0     C99921   5.624   0.314   2.431 -0.1681 -0.7361  0.0026
  741MOL0     C99922   5.485   0.339   2.373 -0.4598  0.5425 -0.5900
  741MOL0     C99923   5.379   0.353   2.484 -0.5182 -0.5350  0.4443
  741MOL0     O99924   5.253   0.394   2.424 -0.8334  0.4418 -0.0434
  741MOL0     C99925   5.151   0.419   2.500  0.7404 -1.2865 -0.2151
  741MOL0     C99926   5.049   0.498   2.448  0.1645  0.2225 -0.1130
  741MOL0     C99927   4.935   0.534   2.522  0.4740 -0.0810 -0.1375
  741MOL0     C99928   4.828   0.610   2.444 -0.2978 -0.5829 -0.3725
  741MOL0     C99929   4.916   0.472   2.648  0.2091 -0.5778 -0.6927
  741MOL0     C99930   4.806   0.490   2.750 -0.6621 -0.1997  0.7128
  741MOL0     O99931   4.807   0.432   2.878 -0.0715 -0.2451  0.0165
  741MOL0     C99932   4.692   0.428   2.954  1.6403  1.2194 -0.2273
  741MOL0     C99933   4.599   0.320   2.940 -1.1246  0.2567 -0.2015
  741MOL0     C99934   4.482   0.312   3.017 -0.3185  0.3329  0.5885
  741MOL0     C99935   4.454   0.410   3.106 -0.7205 -0.3519  0.0355
  741MOL0     O99936   4.340   0.388   3.171  0.2180  0.5661 -0.6400
  741MOL0     C99937   4.342   0.410   3.306  0.1413  0.3695 -0.5340
  741MOL0     C99938   4.196   0.411   3.337 -0.6297  0.0809  0.2333
  741MOL0     C99939   4.160   0.429   3.478 -0.0280 -0.1916 -0.4048
  741MOL0     C99940   4.006   0.412   3.496 -0.6027 -0.1472  0.0566
  741MOL0     C99941   3.948   0.277   3.452  0.1705 -0.0929 -0.1456
  741MOL0     C99942   3.797   0.260   3.491  0.1810  0.7760  0.2060
  741MOL0     C99943   3.792   0.239   3.644 -0.9607  0.7774 -0.5537
  741MOL0     C99944   3.699   0.322   3.720  0.4794  0.6001 -0.2872
  741MOL0    Cl99945   3.535   0.261   3.690  0.3811 -0.1175  0.1206
  741MOL0     C99946   4.544   0.521   3.123  0.0787  0.3182  0.5847
  741MOL0     C99947   4.657   0.533   3.039 -1.3505  0.1282  0.4024
  741MOL0     O99948   4.711   0.549   2.700 -0.0098 -0.3224  0.0893
  741MOL0     C99949   5.024   0.392   2.695  0.2669 -1.0249 -0.1975
  741MOL0     C99950   5.136   0.368   2.630 -0.4006 -0.2942  0.7512
  741MOL0     N99951   5.912   0.256   2.477  0.2988  0.4883  0.5247
  741MOL0     N99952   6.032   0.199   2.484  0.0765  0.5854  0.1748
  741MOL0     C99953   7.134  -0.140   1.890 -0.2115  0.4158  0.4198
  741MOL0     C99954   7.265  -0.142   1.837  0.4826  0.0325  0.0534
  741MOL0     C99955   7.626  -0.015   1.602  0.1127  0.1986  0.3269
  741MOL0     C99956   7.694  -0.134   1.610 -0.2770  0.1079  0.9360
  741MOL0     C99957   7.835  -0.134   1.604 -0.9267  0.8101  0.6143
  741MOL0     C99958   7.911  -0.022   1.556 -1.0663  0.1833  0.6644
  741MOL0     O99959   8.044  -0.039   1.546 -0.0151  0.6483 -0.5544
  741MOL0     C99960   8.137   0.070   1.520 -0.3266  0.5295  1.1774
  741MOL0     C99961   8.172   0.143   1.646 -0.1741  0.0755  0.1025
  741MOL0     C99962   8.262   0.072   1.734 -0.1673 -0.3514 -0.0318
  741MOL0     C99963   8.383   0.038   1.653 -0.5527 -1.5288  0.0649
  741MOL0     C99964   8.485  -0.015   1.750  0.9080 -0.1129 -0.0765
  741MOL0     C99965   8.562  -0.068   1.831  0.0953  0.4926  0.4473
  741MOL0     C99966   7.839   0.090   1.532 -0.3450  0.5278  0.8735
  741MOL0     C99967   7.701   0.107   1.562 -0.4875 -0.2910 -0.1016
  741MOL0     H99968   7.202  -0.051   1.525 -0.5909 -0.4414  0.4555
  741MOL0     H99969   6.987  -0.065   1.589 -1.1437 -0.3245  0.0324
  741MOL0     H99970   6.769  -0.053   1.708  0.4243  0.6209  1.1828
  741MOL0     H99971   6.822  -0.229   1.709 -0.1308  0.7361 -0.0407
  741MOL0     H99972   6.599  -0.226   1.774  2.4263 -1.5963 -1.6436
  741MOL0     H99973   6.689  -0.261   1.913  2.0381 -1.7445 -2.7303
  741MOL0     H99974   6.691  -0.002   1.952 -0.9692 -0.2809  0.5062
  741MOL0     H99975   6.556   0.004   1.837  1.3205  0.9299 -0.7472
  741MOL0     H99976   6.455  -0.186   1.974  2.3687 -0.4211 -0.9080
  741MOL0     H99977   6.571  -0.144   2.100  0.1245 -1.8740 -0.8854
  741MOL0     H99978   6.502   0.075   2.126 -1.3370  1.5670 -0.7000
  741MOL0     H99979   6.367   0.045   2.009 -0.8164  0.7652  1.2740
  741MOL0     H99980   6.283  -0.126   2.185  0.4068 -0.4906  2.4233
  741MOL0     H99981   6.398  -0.051   2.296 -1.0822  0.9666  0.9048
  741MOL0     H99982   6.299   0.173   2.246  1.9135 -0.6981 -0.6610
  741MOL0     H99983   6.181   0.095   2.147  2.3433  0.7740 -0.8753
  741MOL0     H99984   6.230   0.052   2.448 -1.8475  0.8127  2.3914
  741MOL0     H99985   6.126  -0.060   2.361 -0.4651  0.7467  2.9833
  741MOL0     H99986   5.931   0.082   2.189  0.6171 -1.5720  2.2320
  741MOL0     H99987   5.737   0.333   2.257 -2.7551 -0.3888 -1.1417
  741MOL0     H99988   5.675   0.167   2.260 -0.1783  0.3881  0.2145
  741MOL0     H99989   5.680   0.399   2.472  1.1616 -3.2928  4.0581
  741MOL0     H99990   5.612   0.239   2.510 -2.2256  1.1360  1.6182
  741MOL0     H99991   5.451   0.256   2.310  0.0277  1.1758 -1.7116
  741MOL0     H99992   5.484   0.431   2.315 -2.4119 -0.6526 -2.6188
  741MOL0     H99993   5.420   0.424   2.557 -0.4357  2.3842 -2.2368
  741MOL0     H99994   5.373   0.254   2.531  0.2244 -0.2398  1.1848
  741MOL0     H99995   5.054   0.526   2.343  2.4958  3.4214  0.7005
  741MOL0     H99996   4.861   0.630   2.342  1.9746 -1.4712  0.1230
  741MOL0     H99997   4.744   0.540   2.431 -2.9858  2.4595 -0.6215
  741MOL0     H99998   4.793   0.695   2.503  0.5817 -2.0275  2.4016
  741MOL0     H99999   4.636   0.233   2.887  3.0369  0.2854  2.1544
  741MOL0     H    0   4.421   0.222   3.028 -2.7335  1.9349  1.1449
  741MOL0     H    1   4.377   0.325   3.366 -0.8381 -0.5354 -1.1870
  741MOL0     H    2   4.382   0.507   3.337  0.4244 -0.3871  1.6441
  741MOL0     H    3   4.145   0.483   3.271 -2.4686 -1.0371  0.3792
  741MOL0     H    4   4.158   0.313   3.305 -2.9936  1.0154 -0.0657
  741MOL0     H    5   4.190   0.533   3.500  1.7097  0.1732 -3.8493
  741MOL0     H    6   4.213   0.356   3.540 -0.3082  0.8246  1.1125
  741MOL0     H    7   3.972   0.435   3.597 -1.1740  2.7170 -0.6951
  741MOL0     H    8   3.968   0.489   3.428 -1.2717 -1.1476 -0.7287
  741MOL0     H    9   4.008   0.199   3.500 -0.0584 -1.5941 -2.2045
  741MOL0     H   10   3.949   0.264   3.344 -1.0643 -0.0750 -0.1751
  741MOL0     H   11   3.732   0.341   3.455 -1.3476  0.0122  1.1193
  741MOL0     H   12   3.747   0.170   3.455 -0.9374  0.8836  1.3990
  741MOL0     H   13   3.887   0.251   3.698  1.5607 -1.0681 -4.1376
  741MOL0     H   14   3.774   0.131   3.654 -1.5001  1.0045  1.3474
  741MOL0     H   15   3.715   0.423   3.681 -0.0791 -0.3835 -3.3877
  741MOL0     H   16   3.714   0.309   3.827 -3.5718  3.3766  0.8704
  741MOL0     H   17   4.521   0.598   3.196  1.6060  2.3426 -0.9753
  741MOL0     H   18   4.728   0.613   3.057 -1.6345 -0.0116  2.3450
  741MOL0     H   19   5.018   0.342   2.792 -0.8106 -1.5343 -0.5126
  741MOL0     H   20   5.217   0.313   2.676  1.7870 -0.1343 -2.5693
  741MOL0     H   21   7.113  -0.162   1.995  2.0826 -3.0515  0.3437
  741MOL0     H   22   7.342  -0.161   1.911 -0.6696  1.1373  1.6287
  741MOL0     H   23   7.652  -0.233   1.625  0.2009 -0.2064  0.2221
  741MOL0     H   24   7.894  -0.222   1.626 -2.6602 -0.8602 -1.1259
  741MOL0     H   25   8.221   0.024   1.467 -1.0273  1.5091 -0.8793
  741MOL0     H   26   8.105   0.145   1.447  1.1641 -0.6087 -0.7293
  741MOL0     H   27   8.082   0.167   1.703  0.5843  0.6597  1.0934
  741MOL0     H   28   8.209   0.242   1.616 -1.0231  1.0030  1.9620
  741MOL0     H   29   8.212  -0.020   1.766  0.9791 -0.9763 -0.0136
  741MOL0     H   30   8.295   0.117   1.828  3.5259 -0.6509 -1.0186
  741MOL0     H   31   8.428   0.129   1.611 -1.4034 -1.1202  0.0048
  741MOL0     H   32   8.366  -0.034   1.572  2.2468 -0.6355 -1.4498
  741MOL0     H   33   8.616  -0.129   1.900  0.8024  1.1718  0.5134
  741MOL0     H   34   7.890   0.173   1.483  2.1887 -1.4545 -0.0982
  741MOL0     H   35   7.660   0.203   1.533 -1.5739 -1.1817 -1.6987
  742MOL0     O   36   1.925   9.120   2.190 -0.2752 -0.0711  0.2397
  742MOL0     C   37   1.966   9.082   2.296 -0.3964  0.2138  0.7451
  742MOL0     O   38   1.920   8.976   2.359 -0.9237  0.4542 -0.3217
  742MOL0     C   39   1.804   8.919   2.311  0.9888 -0.0008  0.7821
  742MOL0     C   40   1.793   8.778   2.283 -0.0782  0.0670 -0.7742
  742MOL0     C   41   1.664   8.724   2.265  0.6715 -0.6536  0.4260
  742MOL0     C   42   1.540   8.796   2.272 -0.5694  0.8748  0.3400
  742MOL0     O   43   1.409   8.754   2.263  0.1168  0.6637  0.4661
  742MOL0     C   44   1.392   8.626   2.201 -0.3767 -0.7171  0.6016
  742MOL0     C   45   1.251   8.610   2.137  0.2948 -0.6038  0.6868
  742MOL0     C   46   1.152   8.586   2.250 -0.0609 -0.1242 -0.6448
  742MOL0     C   47   1.021   8.525   2.200 -0.2354 -0.4956 -0.2484
  742MOL0     C   48   0.920   8.506   2.314 -0.8850  0.5468  0.4149
  742MOL0     C   49   0.822   8.405   2.258  0.0897  0.2841 -0.0383
  742MOL0     C   50   0.720   8.364   2.366  0.6253  0.4686  0.1693
  742MOL0     C   51   0.605   8.279   2.301 -0.3548 -0.0673  0.0646
  742MOL0     N   52   0.522   8.233   2.411  0.1744 -0.4046 -0.4156
  742MOL0     C   53   0.411   8.298   2.464 -0.0617 -0.3245  0.3137
  742MOL0     C   54   0.341   8.199   2.517 -0.3538  0.2399 -0.1200
  742MOL0     C   55   0.201   8.216   2.568 -0.8842  1.1076  0.1073
  742MOL0     C   56   0.200   8.307   2.687 -0.8201 -0.4398  0.5512
  742MOL0     C   57   0.276   8.260   2.810 -0.3198 -0.0168 -0.6336
  742MOL0     C   58   0.259   8.108   2.837  0.0612  1.3059  0.3054
  742MOL0     O   59   0.116   8.079   2.830  0.0253 -0.5038  0.2649
  742MOL0     C   60   0.068   7.949   2.812  0.2665 -0.4803  0.3806
  742MOL0     C   61   0.153   7.835   2.815 -0.2884  0.3289  0.0039
  742MOL0     C   62   0.097   7.712   2.816 -0.5420  1.6604 -0.2420
  742MOL0     C   63   0.187   7.592   2.822 -0.6324  0.6944 -0.0252
  742MOL0     C   64  -0.048   7.697   2.818 -0.5367 -0.5669 -0.8226
  742MOL0     C   65  -0.105   7.567   2.849  0.2577  0.3602 -0.5603
  742MOL0     O   66  -0.120   7.484   2.736 -0.0609 -0.3641  0.0817
  742MOL0     C   67  -0.176   7.358   2.741  0.8675  0.5349 -0.4861
  742MOL0     C   68  -0.260   7.305   2.837  0.1690 -0.6274 -0.5732
  742MOL0     C   69  -0.299   7.171   2.838  1.0276  0.0382 -0.2964
  742MOL0     C   70  -0.249   7.084   2.750  0.1321  0.1060  0.9622
  742MOL0     O   71  -0.264   6.951   2.778  0.6858 -0.2740  0.3915
  742MOL0     C   72  -0.157   6.899   2.852  0.7510 -0.3837  0.6524
  742MOL0     C   73  -0.166   6.748   2.862  0.3385 -0.2355  0.2639
  742MOL0     C   74  -0.292   6.702   2.939  0.2886 -0.4142  0.6890
  742MOL0     C   75  -0.303   6.553   2.925 -0.0254 -0.3143  0.1757
  742MOL0     C   76  -0.428   6.507   2.998  0.8003 -0.0137 -0.3310
  742MOL0     C   77  -0.443   6.357   2.955  1.0553 -0.2537 -0.1305
  742MOL0     C   78  -0.344   6.268   3.011 -0.8970  0.7685  0.4551
  742MOL0     C   79  -0.348   6.121   2.956 -0.7269 -0.0213 -0.4404
  742MOL0    Cl   80  -0.313   6.119   2.788 -0.4442  0.2135 -0.0080
  742MOL0     C   81  -0.179   7.135   2.648  0.8138  0.3747  1.0561
  742MOL0     C   82  -0.139   7.265   2.650 -0.1570 -0.1792  1.2028
  742MOL0     O   83  -0.130   7.536   2.972 -0.7120  0.7774  0.2956
  742MOL0     C   84  -0.139   7.805   2.806 -0.0609 -0.6336  0.3090
  742MOL0     C   85  -0.069   7.932   2.799 -0.4851  0.8132 -0.5867
  742MOL0     N   86   0.410   8.078   2.507  0.3922 -0.2220 -0.4247
  742MOL0     N   87   0.520   8.098   2.443 -0.1241  0.2076  0.5586
  742MOL0     C   88   1.555   8.931   2.296 -0.6639 -0.2901  0.0071
  742MOL0     C   89   1.682   8.997   2.304  0.2723 -0.2161 -0.0355
  742MOL0     C   90   2.073   9.150   2.368  0.5766 -0.0400  0.2627
  742MOL0     C   91   2.125   9.269   2.317 -0.2395 -0.3941  0.2707
  742MOL0     C   92   2.217   9.346   2.391 -0.4925  0.1874  0.3116
  742MOL0     C   93   2.259   9.309   2.518 -0.3079 -0.2783  0.2295
  742MOL0     O   94   2.356   9.380   2.588 -0.3942 -0.1847 -0.8308
  742MOL0     C   95   2.411   9.328   2.709  0.9909 -0.2040  0.0044
  742MOL0     C   96   2.532   9.409   2.752 -0.1197 -1.0908  0.1424
  742MOL0     C   97   2.498   9.550   2.796 -0.6133  0.5089  0.1698
  742MOL0     C   98   2.627   9.646   2.787 -0.6621 -0.7961 -0.5183
  742MOL0     C   99   2.757   9.583   2.827 -0.7598  0.0799 -0.0678
  742MOL0     C  100   2.849   9.538   2.890  0.2788 -0.4318 -0.4195
  742MOL0     C  101   2.220   9.178   2.564 -0.6918 -0.7118  0.0745
  742MOL0     C  102   2.128   9.100   2.492  1.0153  0.0167 -0.4029
  742MOL0     H  103   1.870   8.702   2.287 -1.3670 -1.3385 -1.7703
  742MOL0     H  104   1.662   8.619   2.237  1.0690 -0.1343 -1.7484
  742MOL0     H  105   1.452   8.606   2.111 -0.0912 -0.5421  0.7521
  742MOL0     H  106   1.415   8.558   2.283  1.4454  0.1585  0.8775
  742MOL0     H  107   1.224   8.699   2.080  1.7642 -0.2236  0.5370
  742MOL0     H  108   1.243   8.527   2.067 -2.9926 -0.5872  0.9006
  742MOL0     H  109   1.195   8.516   2.321 -1.5931 -0.0108  0.4294
  742MOL0     H  110   1.138   8.683   2.299  0.0816 -0.5966  0.3308
  742MOL0     H  111   0.985   8.580   2.113  3.5991  4.2935  0.7418
  742MOL0     H  112   1.054   8.428   2.160  2.1185 -0.0208  0.4134
  742MOL0     H  113   0.960   8.464   2.406  2.8031  0.8228 -0.9053
  742MOL0     H  114   0.883   8.608   2.332  0.9389  2.1571 -3.7503
  742MOL0     H  115   0.769   8.446   2.172 -1.3486 -1.6613 -0.1551
  742MOL0     H  116   0.865   8.311   2.220 -1.2854 -0.0194 -0.8848
  742MOL0     H  117   0.771   8.305   2.443  1.1866  0.5403 -0.1377
  742MOL0     H  118   0.677   8.450   2.418  0.0845  0.3632 -0.0992
  742MOL0     H  119   0.645   8.192   2.248 -0.8208 -0.9499  1.1081
  742MOL0     H  120   0.544   8.336   2.230  0.4141  0.4869 -0.1549
  742MOL0     H  121   0.384   8.403   2.463  0.5068 -0.1186  2.2621
  742MOL0     H  122   0.137   8.248   2.485 -1.6566 -0.8367 -0.1063
  742MOL0     H  123   0.159   8.117   2.587  1.0906  0.1836 -0.1265
  742MOL0     H  124   0.097   8.339   2.701  0.1114  2.9828  0.5037
  742MOL0     H  125   0.245   8.405   2.668  0.1704 -1.4553 -3.0384
  742MOL0     H  126   0.247   8.312   2.902  0.6637 -0.6464  0.0580
  742MOL0     H  127   0.376   8.301   2.791 -1.4053  3.6380  0.6576
  742MOL0     H  128   0.301   8.082   2.934 -0.2463 -0.0608  0.0870
  742MOL0     H  129   0.312   8.046   2.764  0.8922 -0.7616  2.5581
  742MOL0     H  130   0.260   7.849   2.805 -0.2931 -0.6670 -2.0620
  742MOL0     H  131   0.280   7.622   2.872  1.5639 -1.3450 -2.6170
  742MOL0     H  132   0.153   7.506   2.882 -0.3015 -1.1095 -2.2699
  742MOL0     H  133   0.200   7.562   2.718 -0.9694  0.1523  0.0812
  742MOL0     H  134  -0.290   7.357   2.927 -1.6530 -2.9771  0.2852
  742MOL0     H  135  -0.364   7.144   2.920  2.5758 -2.2035  0.2867
  742MOL0     H  136  -0.061   6.929   2.810 -0.6633  3.9917  0.0240
  742MOL0     H  137  -0.169   6.942   2.952  2.3388  0.3844  0.5480
  742MOL0     H  138  -0.156   6.705   2.762  0.6519  0.0775  0.1576
  742MOL0     H  139  -0.082   6.718   2.926  1.2425  1.7529  0.0755
  742MOL0     H  140  -0.385   6.749   2.907 -0.5935 -1.1937  2.0060
  742MOL0     H  141  -0.276   6.725   3.044  0.8878 -1.2685  0.7971
  742MOL0     H  142  -0.299   6.529   2.819  0.2523  0.4465  0.0131
  742MOL0     H  143  -0.212   6.528   2.982  0.6187  0.9710 -0.2466
  742MOL0     H  144  -0.523   6.561   2.988 -0.0315 -0.8496  2.1770
  742MOL0     H  145  -0.412   6.507   3.106  0.1806 -1.1127 -0.2236
  742MOL0     H  146  -0.543   6.323   2.986 -0.6090  2.8389 -1.5956
  742MOL0     H  147  -0.436   6.350   2.846  1.7124 -2.0689 -0.0082
  742MOL0     H  148  -0.354   6.263   3.119 -1.0765 -0.3330  0.4001
  742MOL0     H  149  -0.254   6.316   2.971 -0.4657  0.1355  0.6446
  742MOL0     H  150  -0.449   6.082   2.974 -0.0025 -1.3502  0.9889
  742MOL0     H  151  -0.270   6.055   2.996  2.5667  2.7602 -1.8074
  742MOL0     H  152  -0.129   7.079   2.570  0.7543 -0.1045  1.3628
  742MOL0     H  153  -0.068   7.296   2.574 -0.0831 -0.9292  0.9620
  742MOL0     H  154  -0.244   7.788   2.784  0.2395 -0.1889 -1.7652
  742MOL0     H  155  -0.123   8.025   2.786 -0.1802  0.6640 -3.8632
  742MOL0     H  156   1.463   8.989   2.298 -1.6751 -1.8180 -0.4764
  742MOL0     H  157   1.693   9.102   2.324 -0.1218 -0.0624 -0.5882
  742MOL0     H  158   2.104   9.301   2.215 -1.2379 -3.2163 -0.5340
  742MOL0     H  159   2.242   9.445   2.354  1.6549 -0.0691  0.9407
  742MOL0     H  160   2.327   9.321   2.779  1.6296 -0.2066  0.7940
  742MOL0     H  161   2.449   9.226   2.697  1.4410  0.2985 -4.9509
  742MOL0     H  162   2.602   9.430   2.671  1.7598 -0.5878  1.8353
  742MOL0     H  163   2.582   9.356   2.833 -4.0124  1.2059  4.5021
  742MOL0     H  164   2.464   9.543   2.900 -0.9146  1.6140  0.1547
  742MOL0     H  165   2.423   9.594   2.730 -0.5878  0.0389 -0.1814
  742MOL0     H  166   2.609   9.734   2.851  0.6133 -2.2463  2.0179
  742MOL0     H  167   2.633   9.670   2.681 -3.2635 -2.1393 -1.0600
  742MOL0     H  168   2.937   9.497   2.934  2.4656  2.9429 -1.2528
  742MOL0     H  169   2.245   9.143   2.664  0.0576  2.0302  0.9312
  742MOL0     H  170   2.092   9.010   2.541 -0.6391  0.8492 -0.0367
  743MOL0     O  171   3.989   8.934   4.337 -0.1014  0.7292 -0.6289
  743MOL0     C  172   4.038   8.861   4.247  0.1954  0.0229 -0.3311
  743MOL0     O  173   3.969   8.789   4.157  0.1434 -0.1957  0.3035
  743MOL0     C  174   3.837   8.825   4.144  0.2925  0.1030 -0.4183
  743MOL0     C  175   3.794   8.961   4.129 -0.1949  1.2756 -0.1803
  743MOL0     C  176   3.655   8.976   4.122  0.4033 -0.5712 -0.2541
  743MOL0     C  177   3.563   8.877   4.147 -0.0002  0.0300  0.1778
  743MOL0     O  178   3.424   8.898   4.154 -0.0930  0.8446 -0.4248
  743MOL0     C  179   3.350   8.837   4.258  0.2828 -0.1406 -0.1414
  743MOL0     C  180   3.197   8.873   4.230  0.2375  0.4622  0.2792
  743MOL0     C  181   3.143   8.831   4.096 -1.0719  0.2224 -0.0131
  743MOL0     C  182   3.194   8.700   4.043 -0.4757  0.1302  0.6931
  743MOL0     C  183   3.121   8.660   3.911  0.3944  0.2137  0.4599
  743MOL0     C  184   3.141   8.510   3.883 -0.3636 -0.6502  0.0263
  743MOL0     C  185   3.050   8.472   3.764 -0.4801  0.3136 -0.1064
  743MOL0     C  186   3.068   8.334   3.715 -0.6369  0.1508 -0.3890
  743MOL0     N  187   3.006   8.224   3.794  0.2401 -0.5097  0.3988
  743MOL0     C  188   2.903   8.226   3.875  0.7079 -0.6525  0.7688
  743MOL0     C  189   2.876   8.099   3.900  0.3395 -0.7352 -0.6388
  743MOL0     C  190   2.766   8.054   3.987 -0.5325  0.8348  0.0644
  743MOL0     C  191   2.647   8.018   3.902 -0.0712  0.0131 -0.1662
  743MOL0     C  192   2.529   7.977   4.000 -1.0468  0.2275 -0.0489
  743MOL0     C  193   2.412   7.910   3.937 -0.2610  0.7047  0.6978
  743MOL0     O  194   2.361   7.997   3.827  0.0227 -0.3819 -0.1369
  743MOL0     C  195   2.264   7.944   3.742 -0.8314  0.4565  0.3333
  743MOL0     C  196   2.225   8.027   3.642 -0.6671 -0.0417  0.2499
  743MOL0     C  197   2.117   8.001   3.556 -0.1653 -0.5107  1.0123
  743MOL0     C  198   2.087   8.109   3.456  0.1817  0.0548  0.3061
  743MOL0     C  199   2.040   7.881   3.570 -0.3801  0.3475 -0.4815
  743MOL0     C  200   1.922   7.842   3.495  0.2007  0.3721  0.3192
  743MOL0     O  201   1.826   7.785   3.575  0.9076 -0.0846  0.9933
  743MOL0     C  202   1.703   7.748   3.525  0.0643  0.1205  0.6449
  743MOL0     C  203   1.643   7.628   3.566 -0.3140  0.5437 -0.6644
  743MOL0     C  204   1.515   7.592   3.517 -0.8157  0.5671 -0.3480
  743MOL0     C  205   1.449   7.663   3.429  0.4849 -0.6477 -0.1105
  743MOL0     O  206   1.323   7.620   3.381 -0.2579  0.4544  0.1205
  743MOL0     C  207   1.267   7.494   3.427 -0.2247 -0.1377  0.2766
  743MOL0     C  208   1.128   7.489   3.372  0.2752  0.4735  0.0890
  743MOL0     C  209   1.127   7.513   3.214  0.4297 -0.1272  0.0783
  743MOL0     C  210   1.195   7.407   3.139 -0.0158 -0.3471  0.6753
  743MOL0     C  211   1.174   7.430   2.993 -0.1056 -0.0246 -0.3700
  743MOL0     C  212   1.237   7.314   2.916 -0.3745  0.3702 -0.4468
  743MOL0     C  213   1.214   7.314   2.767 -0.6600  0.1271 -1.1666
  743MOL0     C  214   1.282   7.439   2.699 -0.8864  0.0197  0.0229
  743MOL0    Cl  215   1.462   7.421   2.669  0.4770  0.0915  0.5253
  743MOL0     C  216   1.508   7.783   3.382 -0.6155  0.0073 -0.4386
  743MOL0     C  217   1.634   7.823   3.431  0.5205 -1.0968 -0.3371
  743MOL0     O  218   1.917   7.860   3.370  0.0189 -0.0109 -0.0525
  743MOL0     C  219   2.084   7.793   3.675  0.4253 -0.1653  0.9763
  743MOL0     C  220   2.190   7.823   3.764 -0.3199 -0.2097  0.5462
  743MOL0     N  221   2.979   8.016   3.853  0.2196  0.6926  0.6832
  743MOL0     N  222   3.058   8.099   3.782  0.4094 -0.2754 -0.0695
  743MOL0     C  223   3.611   8.743   4.153 -0.5840 -0.1490  0.5873
  743MOL0     C  224   3.748   8.716   4.143 -0.3711 -0.0255  0.1447
  743MOL0     C  225   4.180   8.829   4.256 -0.0051  0.6727  0.4008
  743MOL0     C  226   4.269   8.914   4.315 -0.2460 -0.4570 -0.3802
  743MOL0     C  227   4.408   8.897   4.312 -0.0861  0.1793  0.2927
  743MOL0     C  228   4.457   8.782   4.260  0.6306  0.2171  0.4510
  743MOL0     O  229   4.593   8.753   4.278  0.4285 -0.1494  0.1263
  743MOL0     C  230   4.664   8.664   4.193 -0.0241  0.4744 -0.7514
  743MOL0     C  231   4.816   8.682   4.210 -0.6319  0.0111  0.6236
  743MOL0     C  232   4.891   8.598   4.102  0.8956  0.0442  0.6236
  743MOL0     C  233   5.043   8.609   4.114 -0.9059 -0.1966  0.3712
  743MOL0     C  234   5.098   8.558   4.240 -0.0726 -0.2711 -0.9023
  743MOL0     C  235   5.135   8.495   4.337  0.0533 -0.2262  0.4181
  743MOL0     C  236   4.368   8.691   4.201  0.6228 -0.6204  0.7531
  743MOL0     C  237   4.227   8.708   4.196  0.0491  0.0115  0.1819
  743MOL0     H  238   3.861   9.046   4.120  2.3233 -0.5532  0.1399
  743MOL0     H  239   3.619   9.078   4.130  0.0347 -0.6382 -1.0211
  743MOL0     H  240   3.358   8.730   4.275  2.7733 -0.0263 -0.2484
  743MOL0     H  241   3.378   8.879   4.355  0.1676  1.9308 -0.9426
  743MOL0     H  242   3.135   8.830   4.309 -1.0926 -0.8234 -1.3802
  743MOL0     H  243   3.187   8.977   4.261  0.2785  0.4463  0.3478
  743MOL0     H  244   3.033   8.834   4.101 -1.0893  0.2220 -0.3671
  743MOL0     H  245   3.172   8.909   4.025  2.2995 -0.2179  0.7397
  743MOL0     H  246   3.297   8.706   4.006 -0.6609 -2.2048 -0.4021
  743MOL0     H  247   3.194   8.622   4.120  3.3813 -1.1012 -0.3523
  743MOL0     H  248   3.016   8.687   3.921  0.7107  0.7854  2.8039
  743MOL0     H  249   3.164   8.719   3.829 -1.4841  2.8854  1.2787
  743MOL0     H  250   3.248   8.495   3.862 -0.3229  0.4636 -0.6525
  743MOL0     H  251   3.131   8.453   3.976  1.9990  2.2324  2.2546
  743MOL0     H  252   2.947   8.490   3.796 -0.8510  0.5627 -1.3899
  743MOL0     H  253   3.064   8.545   3.684 -2.5265 -0.1492 -0.9315
  743MOL0     H  254   3.170   8.311   3.683 -1.4222  2.2357 -5.1642
  743MOL0     H  255   3.024   8.323   3.616  0.2266  0.2331 -0.7965
  743MOL0     H  256   2.839   8.310   3.898  0.6517 -0.7076  0.8119
  743MOL0     H  257   2.794   7.961   4.037 -4.6929  0.7898  2.8703
  743MOL0     H  258   2.737   8.111   4.076 -0.0444  1.2124 -0.0124
  743MOL0     H  259   2.668   7.931   3.840  1.8049  0.5805 -0.4026
  743MOL0     H  260   2.613   8.100   3.838 -3.5954 -0.4386  0.9447
  743MOL0     H  261   2.480   8.065   4.045  1.3058  2.7381 -2.0659
  743MOL0     H  262   2.570   7.914   4.079  1.4323 -1.2477 -2.3508
  743MOL0     H  263   2.327   7.888   4.003 -0.7733  1.0941  0.1798
  743MOL0     H  264   2.443   7.817   3.889  1.0160  0.7577  1.3774
  743MOL0     H  265   2.274   8.123   3.628  1.5228 -1.1570 -0.1507
  743MOL0     H  266   2.149   8.097   3.367  1.8071 -1.4942  1.5657
  743MOL0     H  267   1.983   8.106   3.421 -1.0617  2.7786  3.3256
  743MOL0     H  268   2.113   8.205   3.500  2.2372 -0.8051  1.1070
  743MOL0     H  269   1.699   7.567   3.636 -0.1221  2.5576  1.0541
  743MOL0     H  270   1.478   7.500   3.562 -1.4525 -0.5282 -2.9125
  743MOL0     H  271   1.327   7.414   3.383 -1.2909  0.0945 -1.7442
  743MOL0     H  272   1.265   7.483   3.536 -2.0542  0.7312  0.3754
  743MOL0     H  273   1.078   7.393   3.391  0.6178 -0.2810 -2.4378
  743MOL0     H  274   1.065   7.562   3.423  1.4278  1.4300  0.1590
  743MOL0     H  275   1.167   7.613   3.194 -0.1611  0.0287 -0.3834
  743MOL0     H  276   1.021   7.519   3.187  0.5133  1.3880  0.0207
  743MOL0     H  277   1.303   7.399   3.155  0.1363 -2.2059 -0.8573
  743MOL0     H  278   1.156   7.308   3.163  1.0764 -0.5672  1.6502
  743MOL0     H  279   1.212   7.529   2.968  1.5929 -0.6499 -0.3477
  743MOL0     H  280   1.065   7.438   2.983  0.0367  2.4813 -0.6301
  743MOL0     H  281   1.346   7.315   2.929 -0.4411 -2.6841  1.5230
  743MOL0     H  282   1.191   7.224   2.959 -3.0333  1.1012 -1.5416
  743MOL0     H  283   1.105   7.303   2.761 -0.9321 -0.9768  2.7828
  743MOL0     H  284   1.262   7.232   2.714  2.0990  0.8065  0.1076
  743MOL0     H  285   1.268   7.537   2.747  1.3851  1.1032 -1.3872
  743MOL0     H  286   1.234   7.454   2.601  0.1919  2.1249 -0.2434
  743MOL0     H  287   1.453   7.860   3.328  1.1032  1.2533 -0.5299
  743MOL0     H  288   1.666   7.921   3.397 -2.6744  0.8007  1.5918
  743MOL0     H  289   2.023   7.708   3.705  1.0912 -1.5405 -1.3496
  743MOL0     H  290   2.202   7.757   3.849 -0.8935 -0.5940  0.3425
  743MOL0     H  291   3.548   8.655   4.158  0.1462 -0.6121  1.9360
  743MOL0     H  292   3.791   8.616   4.146  1.9340  0.8921 -0.0847
  743MOL0     H  293   4.234   8.999   4.372 -0.1082 -1.3520  1.0802
  743MOL0     H  294   4.470   8.972   4.360  1.1257 -0.4385 -0.2656
  743MOL0     H  295   4.635   8.559   4.203 -0.7459  0.7029 -0.3455
  743MOL0     H  296   4.636   8.698   4.092 -0.5837 -0.7773 -1.0358
  743MOL0     H  297   4.855   8.652   4.307  2.7744  0.8998 -0.3286
  743MOL0     H  298   4.829   8.788   4.185  0.8841 -0.5396 -1.1350
  743MOL0     H  299   4.856   8.639   4.008  1.8873  2.6191  1.2831
  743MOL0     H  300   4.867   8.492   4.115  1.9084 -0.1653  0.9241
  743MOL0     H  301   5.092   8.703   4.089 -0.9236 -0.4184 -0.5544
  743MOL0     H  302   5.077   8.544   4.033  1.4359 -1.3660  2.1654
  743MOL0     H  303   5.174   8.448   4.425  1.0865 -1.2992 -0.5757
  743MOL0     H  304   4.401   8.595   4.162 -2.5784 -1.2985 -0.5688
  743MOL0     H  305   4.165   8.638   4.140  0.5902  1.0978 -1.9013
  744MOL0     O  306   8.104   6.760   9.295  0.0559  0.2090 -0.6985
  744MOL0     C  307   8.093   6.663   9.374  0.5906 -0.7466  0.3751
  744MOL0     O  308   7.981   6.594   9.390  0.1423 -0.2473  0.0650
  744MOL0     C  309   7.862   6.657   9.347  0.5632  0.1938  0.4222
  744MOL0     C  310   7.815   6.771   9.402  0.0395 -0.0506 -0.1109
  744MOL0     C  311   7.703   6.835   9.354 -1.3576  0.6431 -0.0455
  744MOL0     C  312   7.637   6.798   9.239 -0.1326  0.7289  0.1080
  744MOL0     O  313   7.512   6.858   9.205 -0.3685 -0.0262 -0.2184
  744MOL0     C  314   7.398   6.770   9.193 -0.0401  0.8457 -0.5060
  744MOL0     C  315   7.268   6.854   9.210 -0.9486 -0.2329 -0.3536
  744MOL0     C  316   7.141   6.776   9.219  0.8728 -0.6144  0.2260
  744MOL0     C  317   7.120   6.688   9.105 -0.5550  0.5647 -0.2491
  744MOL0     C  318   6.977   6.624   9.105  0.1053  0.8743 -0.0667
  744MOL0     C  319   6.868   6.709   9.044 -0.1588  0.8683  0.0986
  744MOL0     C  320   6.732   6.641   9.060  0.6747 -0.9989  0.0964
  744MOL0     C  321   6.623   6.747   9.049  0.1378 -0.8987  0.1205
  744MOL0     N  322   6.490   6.705   9.088  0.0874 -1.1504  0.4717
  744MOL0     C  323   6.425   6.588   9.065  0.3169 -0.6631 -0.4560
  744MOL0     C  324   6.318   6.593   9.137 -0.1257  0.2508  0.3919
  744MOL0     C  325   6.225   6.479   9.172  0.0223 -0.2637  0.2144
  744MOL0     C  326   6.148   6.433   9.046 -0.2671  0.7905  0.1447
  744MOL0     C  327   6.031   6.330   9.078  0.9956 -0.5763  0.2225
  744MOL0     C  328   5.912   6.356   8.985  0.1742  0.6502 -0.9920
  744MOL0     O  329   5.805   6.260   9.002  0.6534 -0.5211 -0.0110
  744MOL0     C  330   5.693   6.253   8.922  0.7915 -0.9754  0.8582
  744MOL0     C  331   5.685   6.336   8.812 -0.0058 -0.3885 -0.5995
  744MOL0     C  332   5.573   6.335   8.725 -0.5798 -0.4207 -0.2270
  744MOL0     C  333   5.581   6.400   8.582  0.7089 -0.1625  0.6042
  744MOL0     C  334   5.467   6.242   8.755 -0.3435 -0.4678  0.8548
  744MOL0     C  335   5.346   6.218   8.670 -0.3728 -0.5747 -0.3462
  744MOL0     O  336   5.239   6.184   8.740  0.2348  0.4149 -0.6603
  744MOL0     C  337   5.108   6.175   8.694  0.1938  0.5004 -0.4810
  744MOL0     C  338   5.083   6.125   8.560  0.5736  0.4187 -0.4640
  744MOL0     C  339   4.942   6.109   8.531 -0.2143  0.3346  0.6505
  744MOL0     C  340   4.840   6.134   8.610 -0.1290 -0.3971 -0.1654
  744MOL0     O  341   4.704   6.113   8.579 -0.2999  0.1209 -1.2892
  744MOL0     C  342   4.611   6.211   8.633 -0.6620 -0.4297  0.1956
  744MOL0     C  343   4.506   6.248   8.527  0.1203 -0.1843 -0.7133
  744MOL0     C  344   4.405   6.140   8.488  0.5359  0.1964 -0.7797
  744MOL0     C  345   4.306   6.211   8.393 -0.5976  0.2435  0.2786
  744MOL0     C  346   4.195   6.113   8.347 -1.7581  0.5865  0.1518
  744MOL0     C  347   4.250   5.986   8.280 -0.2755 -1.4160 -0.3795
  744MOL0     C  348   4.293   6.020   8.135 -0.3160 -0.3627  0.2668
  744MOL0     C  349   4.360   5.904   8.060  0.1909  0.0732 -0.6241
  744MOL0    Cl  350   4.249   5.782   8.013  0.2537  0.4483 -0.2653
  744MOL0     C  351   4.869   6.187   8.739  0.3547 -0.1469  0.2179
  744MOL0     C  352   5.003   6.197   8.787  0.5334 -0.2460  0.3414
  744MOL0     O  353   5.348   6.249   8.548  0.6543  0.3656  0.0149
  744MOL0     C  354   5.473   6.159   8.870 -0.3436 -0.3675 -0.3460
  744MOL0     C  355   5.586   6.171   8.948  0.5611 -0.7038 -0.5157
  744MOL0     N  356   6.310   6.712   9.209  0.0530  0.2340  0.4529
  744MOL0     N  357   6.411   6.782   9.177  0.3896  0.2445 -0.0599
  744MOL0     C  358   7.693   6.685   9.177  0.4012 -0.6852  0.8920
  744MOL0     C  359   7.802   6.611   9.227 -0.4430 -0.8116  0.0092
  744MOL0     C  360   8.217   6.602   9.436 -0.4209  0.2366 -0.9622
  744MOL0     C  361   8.348   6.653   9.419  0.1706  0.3562  0.2736
  744MOL0     C  362   8.457   6.599   9.484  0.3502  0.0320  0.6057
  744MOL0     C  363   8.440   6.487   9.569  0.5232 -0.5779  0.6502
  744MOL0     O  364   8.527   6.432   9.659  0.1884 -0.1942  0.1363
  744MOL0     C  365   8.671   6.458   9.646  0.0066  0.0672 -0.6746
  744MOL0     C  366   8.710   6.595   9.711  0.0826 -1.3869  0.4711
  744MOL0     C  367   8.616   6.635   9.822  0.2734  0.0596 -0.9389
  744MOL0     C  368   8.660   6.750   9.903  0.0031 -0.9916 -0.5866
  744MOL0     C  369   8.720   6.852   9.811 -0.5640  0.0024  0.5345
  744MOL0     C  370   8.780   6.934   9.739  0.5169  0.4353  1.1022
  744MOL0     C  371   8.315   6.427   9.588 -0.1249  0.2653  0.3660
  744MOL0     C  372   8.209   6.492   9.519 -0.5956 -0.3130 -0.4788
  744MOL0     H  373   7.863   6.811   9.491 -1.3626  1.1438  0.1299
  744MOL0     H  374   7.661   6.926   9.394  0.0100  0.6799  1.3871
  744MOL0     H  375   7.408   6.723   9.095  1.6239 -1.7720  0.8174
  744MOL0     H  376   7.392   6.698   9.275  1.5792  0.5971 -0.5842
  744MOL0     H  377   7.267   6.900   9.309 -2.9922 -0.6429 -0.1385
  744MOL0     H  378   7.277   6.937   9.139  2.0285 -0.3901 -0.2856
  744MOL0     H  379   7.135   6.726   9.316 -0.1849 -0.4902  0.2368
  744MOL0     H  380   7.058   6.848   9.216  0.9583 -0.5578 -1.4766
  744MOL0     H  381   7.141   6.730   9.006 -2.8499  1.3843 -0.4345
  744MOL0     H  382   7.196   6.613   9.130  0.4604  1.8371  0.6382
  744MOL0     H  383   6.976   6.531   9.048  0.4638 -0.2682  1.7330
  744MOL0     H  384   6.960   6.591   9.208  2.5100 -0.4609 -0.0274
  744MOL0     H  385   6.871   6.797   9.109  0.3823 -0.7975  2.4832
  744MOL0     H  386   6.898   6.722   8.940 -0.9100 -0.6113 -0.3359
  744MOL0     H  387   6.716   6.562   8.986  0.4406 -0.3126 -0.5940
  744MOL0     H  388   6.734   6.600   9.162  3.8898  0.1625  0.5965
  744MOL0     H  389   6.622   6.773   8.943 -2.2522  1.1455  0.5567
  744MOL0     H  390   6.648   6.837   9.107 -2.6555  0.9112 -1.2934
  744MOL0     H  391   6.471   6.505   9.012  1.6919 -0.3328  0.1557
  744MOL0     H  392   6.274   6.391   9.215 -1.2573 -2.6183 -2.7677
  744MOL0     H  393   6.160   6.520   9.250  1.6123  0.9318  0.9586
  744MOL0     H  394   6.211   6.382   8.972 -0.6618 -0.5480  0.6940
  744MOL0     H  395   6.096   6.518   9.002 -1.6101 -0.1315 -0.1111
  744MOL0     H  396   5.986   6.353   9.175 -0.7671  0.2862 -0.7405
  744MOL0     H  397   6.065   6.226   9.077 -0.6645 -1.1817 -1.8084
  744MOL0     H  398   5.947   6.350   8.881 -0.9665  3.2391 -1.5956
  744MOL0     H  399   5.866   6.451   9.012 -3.0004 -0.7370 -1.0587
  744MOL0     H  400   5.767   6.394   8.771 -1.6672 -0.2063 -3.9454
  744MOL0     H  401   5.651   6.484   8.593  0.8265 -0.3913  1.6959
  744MOL0     H  402   5.623   6.322   8.518 -0.5342 -0.4506  0.1054
  744MOL0     H  403   5.480   6.432   8.553  0.7414  0.3598  1.0474
  744MOL0     H  404   5.156   6.105   8.482  1.7781 -1.5679  1.0737
  744MOL0     H  405   4.918   6.075   8.431 -1.1953  1.3212  0.5354
  744MOL0     H  406   4.567   6.181   8.729 -2.1429  1.2173  0.0735
  744MOL0     H  407   4.657   6.308   8.652  0.0923 -0.7711  0.1534
  744MOL0     H  408   4.454   6.337   8.563 -0.5595 -0.8325 -0.0401
  744MOL0     H  409   4.557   6.283   8.437 -0.6887  2.1764 -0.3265
  744MOL0     H  410   4.358   6.094   8.575 -1.3926  2.0832 -0.7430
  744MOL0     H  411   4.456   6.052   8.448 -0.1615 -1.5700  1.9315
  744MOL0     H  412   4.266   6.302   8.437 -1.6898 -0.2083  0.2603
  744MOL0     H  413   4.360   6.247   8.305  1.4563 -1.9421  0.5204
  744MOL0     H  414   4.135   6.157   8.267  0.1953  1.8598 -0.6987
  744MOL0     H  415   4.129   6.090   8.432  1.4492 -1.7862  2.2385
  744MOL0     H  416   4.333   5.943   8.338 -1.5691 -1.1592  1.7648
  744MOL0     H  417   4.174   5.910   8.262  1.8079 -3.3079 -1.7961
  744MOL0     H  418   4.373   6.093   8.141  2.0361 -2.8106  0.3136
  744MOL0     H  419   4.202   6.037   8.076  0.3182 -3.5430 -1.8576
  744MOL0     H  420   4.425   5.854   8.133  0.1866 -1.5586 -1.6913
  744MOL0     H  421   4.400   5.945   7.967 -1.9538  0.3343 -1.4640
  744MOL0     H  422   4.795   6.213   8.813 -0.9984  1.5334 -1.6117
  744MOL0     H  423   5.011   6.234   8.888  1.1494 -1.1682  0.6423
  744MOL0     H  424   5.402   6.078   8.887 -0.7144  0.6978  4.7692
  744MOL0     H  425   5.596   6.100   9.029  0.3408  0.0469  0.1932
  744MOL0     H  426   7.645   6.643   9.089  1.0954 -0.9135  0.6106
  744MOL0     H  427   7.837   6.531   9.162  0.6067 -1.2516  1.0830
  744MOL0     H  428   8.362   6.735   9.350 -0.7032 -1.4229 -2.1652
  744MOL0     H  429   8.551   6.650   9.468  0.3117 -0.7535 -2.8689
  744MOL0     H  430   8.724   6.380   9.703  0.7830  0.9117 -0.2155
  744MOL0     H  431   8.706   6.440   9.544 -1.0452  1.6883 -1.3676
  744MOL0     H  432   8.708   6.679   9.641  1.4455  0.8894  2.9975
  744MOL0     H  433   8.816   6.589   9.738 -0.4597 -2.6659  2.5785
  744MOL0     H  434   8.611   6.553   9.894  3.2012  1.4134  0.9702
  744MOL0     H  435   8.511   6.652   9.795  0.6278  2.7492 -0.8754
  744MOL0     H  436   8.739   6.708   9.966  0.8618 -1.6265 -2.0217
  744MOL0     H  437   8.590   6.802   9.970  1.1851 -1.6229  1.2187
  744MOL0     H  438   8.841   7.001   9.682 -0.8998  0.1638 -0.8149
  744MOL0     H  439   8.312   6.332   9.641  2.0666 -1.4340 -2.2843
  744MOL0     H  440   8.113   6.444   9.532 -0.0451 -1.4710 -0.5820
  745MOL0     O  441   6.978   4.290   7.182  0.0172 -0.3353  0.4844
  745MOL0     C  442   7.012   4.348   7.285 -0.1826  0.4710 -0.6026
  745MOL0     O  443   6.950   4.353   7.400  0.0722 -0.7886  0.1101
  745MOL0     C  444   6.861   4.258   7.420 -0.1126  0.3196 -0.1203
  745MOL0     C  445   6.901   4.125   7.457 -1.1748  0.2485  0.8896
  745MOL0     C  446   6.809   4.024   7.485 -0.3869 -0.3544  0.3497
  745MOL0     C  447   6.669   4.047   7.467 -0.3743 -0.5625 -0.8721
  745MOL0     O  448   6.571   3.955   7.480 -0.0650 -0.2120 -0.5712
  745MOL0     C  449   6.600   3.860   7.590 -0.6472 -0.4588 -0.8007
  745MOL0     C  450   6.484   3.754   7.577  0.2626  1.3390  0.7400
  745MOL0     C  451   6.477   3.679   7.443  0.2155 -0.1563  0.0378
  745MOL0     C  452   6.352   3.578   7.446 -1.0161 -0.2752 -0.3497
  745MOL0     C  453   6.326   3.534   7.298  0.0745 -0.1956 -0.2329
  745MOL0     C  454   6.213   3.441   7.287  0.3920  0.1656  0.8948
  745MOL0     C  455   6.180   3.411   7.145 -0.2160 -0.3475 -0.7425
  745MOL0     C  456   6.057   3.318   7.140 -0.1375 -0.7982  0.0734
  745MOL0     N  457   6.026   3.277   7.001  0.5604 -0.2655 -0.2612
  745MOL0     C  458   6.072   3.176   6.920 -1.2361  0.4797 -0.1691
  745MOL0     C  459   5.975   3.165   6.827 -0.1521 -0.5640  0.0832
  745MOL0     C  460   5.975   3.061   6.715  0.2085 -0.3609 -0.1709
  745MOL0     C  461   5.922   2.928   6.780  0.2935  0.2841  0.8842
  745MOL0     C  462   5.772   2.936   6.825  0.5188 -0.1455 -0.1257
  745MOL0     C  463   5.665   2.956   6.719  0.2404  0.8313  1.1006
  745MOL0     O  464   5.681   2.855   6.617 -0.8902 -0.6319  0.3347
  745MOL0     C  465   5.569   2.832   6.536  0.3345 -0.5366  0.6043
  745MOL0     C  466   5.540   2.696   6.498  0.2642 -0.4920  0.0014
  745MOL0     C  467   5.433   2.681   6.402  0.0315  0.6616  0.1110
  745MOL0     C  468   5.392   2.533   6.369  0.3047  0.0407  0.1628
  745MOL0     C  469   5.354   2.794   6.346 -0.7662  0.0235  0.1226
  745MOL0     C  470   5.249   2.780   6.251  0.5381 -0.7747  0.8097
  745MOL0     O  471   5.229   2.886   6.170  0.1469  0.3675 -0.4972
  745MOL0     C  472   5.131   2.892   6.088  0.7816 -0.6519 -0.0777
  745MOL0     C  473   4.991   2.901   6.121  0.2724  0.3155  0.1348
  745MOL0     C  474   4.900   2.915   6.022  0.3821  0.3731  1.3533
  745MOL0     C  475   4.932   2.911   5.884  0.7634 -0.2687 -0.1036
  745MOL0     O  476   4.843   2.914   5.778 -0.3741 -0.6371  0.2125
  745MOL0     C  477   4.712   2.963   5.808 -0.3341  0.0649  0.5922
  745MOL0     C  478   4.623   2.993   5.688  0.2543 -0.5237  0.5590
  745MOL0     C  479   4.493   3.080   5.713  0.0991 -0.7490  0.1758
  745MOL0     C  480   4.433   3.128   5.580 -0.5095  0.3590  0.0394
  745MOL0     C  481   4.297   3.192   5.607  0.9607  0.2692  1.0764
  745MOL0     C  482   4.243   3.264   5.489  1.1722 -0.2181  0.1272
  745MOL0     C  483   4.096   3.323   5.523 -0.6232  0.1324 -0.2135
  745MOL0     C  484   4.091   3.437   5.624 -0.3396 -0.2752 -0.4394
  745MOL0    Cl  485   3.916   3.481   5.637  0.3201  0.6488 -0.2530
  745MOL0     C  486   5.068   2.904   5.851 -0.6757  0.1140  0.3985
  745MOL0     C  487   5.167   2.899   5.951  0.2160 -0.5964  0.6448
  745MOL0     O  488   5.191   2.677   6.249  0.1220 -0.0691  0.3315
  745MOL0     C  489   5.394   2.925   6.390 -0.6158  0.1150  0.3851
  745MOL0     C  490   5.497   2.946   6.475 -0.1278 -0.7006 -0.0545
  745MOL0     N  491   5.872   3.255   6.855  0.2434  0.0770 -0.0603
  745MOL0     N  492   5.902   3.318   6.965 -0.3124 -0.3221  0.1680
  745MOL0     C  493   6.631   4.177   7.442  0.2318  0.1851  0.5335
  745MOL0     C  494   6.723   4.284   7.409  0.5080  0.3334 -1.0076
  745MOL0     C  495   7.131   4.441   7.274  1.1349  0.1809  0.2397
  745MOL0     C  496   7.209   4.426   7.157 -0.4522  1.0188  0.0109
  745MOL0     C  497   7.312   4.522   7.146 -0.8218  0.0175 -0.2443
  745MOL0     C  498   7.348   4.615   7.245 -0.0686  0.7941 -0.9367
  745MOL0     O  499   7.454   4.702   7.240 -0.1648  0.7228 -0.5438
  745MOL0     C  500   7.552   4.678   7.135  0.4985  0.2963  0.2603
  745MOL0     C  501   7.636   4.812   7.128  0.6699 -0.1527 -0.6013
  745MOL0     C  502   7.709   4.847   7.256  0.8912  0.8447 -0.0879
  745MOL0     C  503   7.777   4.980   7.251 -0.2130  0.2859  0.0019
  745MOL0     C  504   7.877   4.980   7.146  1.0458 -0.3369 -0.0549
  745MOL0     C  505   7.975   4.983   7.070 -0.1700 -0.2702  0.8149
  745MOL0     C  506   7.273   4.614   7.358 -0.1660  1.0038  0.5660
  745MOL0     C  507   7.155   4.533   7.373 -0.1049  0.6806 -0.0400
  745MOL0     H  508   7.007   4.104   7.471 -1.0337 -0.6918 -1.2301
  745MOL0     H  509   6.844   3.926   7.517 -0.9402 -0.8939 -0.6560
  745MOL0     H  510   6.696   3.807   7.578  0.8837  1.6448  1.3009
  745MOL0     H  511   6.599   3.913   7.685 -0.9130  0.0491 -1.0876
  745MOL0     H  512   6.513   3.668   7.638  1.0755  0.3607 -0.9260
  745MOL0     H  513   6.389   3.794   7.612 -1.7913 -1.2473 -1.3469
  745MOL0     H  514   6.453   3.750   7.364 -0.9327  0.6772  1.1119
  745MOL0     H  515   6.569   3.626   7.414 -0.7760 -1.7959 -0.2187
  745MOL0     H  516   6.377   3.504   7.522 -0.1651 -0.5429 -0.8761
  745MOL0     H  517   6.265   3.633   7.485 -0.8283 -0.7772  0.8258
  745MOL0     H  518   6.313   3.619   7.230 -1.1011  0.4853  0.8120
  745MOL0     H  519   6.416   3.489   7.253  0.5727  2.1126 -1.7392
  745MOL0     H  520   6.240   3.348   7.338  1.1722 -0.6233 -0.8581
  745MOL0     H  521   6.130   3.490   7.339  1.3500  1.7513  1.0201
  745MOL0     H  522   6.161   3.498   7.082 -0.8296  0.7635  0.9253
  745MOL0     H  523   6.268   3.361   7.101  1.4738  1.4370  0.4407
  745MOL0     H  524   5.972   3.366   7.188 -0.6133 -1.2340 -0.3220
  745MOL0     H  525   6.074   3.226   7.197  2.8928 -0.8789 -0.7960
  745MOL0     H  526   6.158   3.109   6.923 -0.2380  1.7312  0.0858
  745MOL0     H  527   5.902   3.095   6.640 -2.2906  0.1677  2.3182
  745MOL0     H  528   6.073   3.059   6.666 -1.7050 -2.7700 -4.5733
  745MOL0     H  529   5.980   2.899   6.869 -2.8119 -1.9548  2.3701
  745MOL0     H  530   5.932   2.845   6.710 -0.0858 -0.5951  1.8451
  745MOL0     H  531   5.768   3.024   6.890 -1.9696  0.6786 -1.2806
  745MOL0     H  532   5.736   2.854   6.888 -0.3806 -0.3429 -0.8744
  745MOL0     H  533   5.664   3.059   6.682 -0.8934 -0.2467 -2.2249
  745MOL0     H  534   5.569   2.937   6.768  0.7044  0.6279  1.9654
  745MOL0     H  535   5.601   2.616   6.539  0.4117 -1.7382 -2.4598
  745MOL0     H  536   5.387   2.523   6.260  0.9771 -1.8521  0.2832
  745MOL0     H  537   5.463   2.460   6.408 -0.9340 -0.0760  2.3523
  745MOL0     H  538   5.291   2.499   6.394  0.5165 -1.2380 -0.6403
  745MOL0     H  539   4.952   2.889   6.222 -0.9863 -0.1706 -0.3890
  745MOL0     H  540   4.796   2.931   6.048 -1.0789 -2.7575 -1.7337
  745MOL0     H  541   4.656   2.881   5.854  0.7826 -2.0857 -1.6831
  745MOL0     H  542   4.711   3.051   5.874 -1.0171  0.9228 -0.5095
  745MOL0     H  543   4.690   3.057   5.629  0.8315 -0.9012  0.7950
  745MOL0     H  544   4.609   2.901   5.631  0.6646 -0.5352  0.4747
  745MOL0     H  545   4.501   3.172   5.771  0.3685  0.1102 -1.1774
  745MOL0     H  546   4.422   3.006   5.750 -0.4164 -0.9658 -1.1845
  745MOL0     H  547   4.490   3.211   5.537 -2.9181  2.5286  0.7529
  745MOL0     H  548   4.424   3.043   5.512  0.4673 -0.4618  0.8956
  745MOL0     H  549   4.306   3.261   5.692  0.1162  1.6755  0.0498
  745MOL0     H  550   4.236   3.104   5.631 -2.6087  2.3252  0.2605
  745MOL0     H  551   4.315   3.340   5.457 -1.1600  1.7582 -0.7266
  745MOL0     H  552   4.229   3.186   5.413  0.0645  0.7205 -0.6753
  745MOL0     H  553   4.035   3.246   5.572 -2.4297  1.7979  0.2551
  745MOL0     H  554   4.048   3.354   5.430 -0.9013  2.2135  0.5796
  745MOL0     H  555   4.147   3.523   5.585  1.8818 -2.3765 -2.1602
  745MOL0     H  556   4.137   3.412   5.719  1.6122 -1.6268 -1.6672
  745MOL0     H  557   5.104   2.903   5.749  3.0215 -1.9592  1.4922
  745MOL0     H  558   5.272   2.895   5.925  0.2376  1.0398  0.4089
  745MOL0     H  559   5.341   3.012   6.352  0.5953  1.1248  0.9433
  745MOL0     H  560   5.526   3.047   6.502 -1.1682 -0.5238  0.4566
  745MOL0     H  561   6.526   4.202   7.439 -0.0604 -1.0187 -0.9528
  745MOL0     H  562   6.691   4.380   7.372  0.7869 -0.7091 -4.2120
  745MOL0     H  563   7.204   4.346   7.083 -2.0185  2.4782 -1.5640
  745MOL0     H  564   7.372   4.511   7.056  1.6656  1.6096  1.1179
  745MOL0     H  565   7.614   4.590   7.153 -4.7872 -3.3973  3.0453
  745MOL0     H  566   7.508   4.668   7.035  2.5616  1.0845 -0.7812
  745MOL0     H  567   7.565   4.886   7.091 -0.2512 -1.0349 -0.6131
  745MOL0     H  568   7.711   4.809   7.048  0.6817 -1.6716 -0.5703
  745MOL0     H  569   7.786   4.776   7.288 -1.6853 -3.0758 -1.9324
  745MOL0     H  570   7.638   4.850   7.339  3.8612  0.1472  2.6930
  745MOL0     H  571   7.823   5.003   7.348  1.4715 -0.3374 -0.6092
  745MOL0     H  572   7.715   5.070   7.244  2.7919  2.8278  2.4983
  745MOL0     H  573   8.056   4.971   7.000 -1.2506 -0.4942 -0.4536
  745MOL0     H  574   7.302   4.686   7.434  1.4432  2.1255 -1.0115
  745MOL0     H  575   7.101   4.538   7.467  1.1972  0.7164  0.7382
  746MOL0     O  576   1.167   6.600   1.539 -0.2568 -0.5556 -0.5627
  746MOL0     C  577   1.222   6.594   1.434  0.5170 -0.3065  0.0241
  746MOL0     O  578   1.249   6.710   1.360 -0.1685 -0.2875  0.1919
  746MOL0     C  579   1.254   6.836   1.417 -0.2706  0.3822  0.2264
  746MOL0     C  580   1.223   6.937   1.336  0.0747 -0.1398 -0.3871
  746MOL0     C  581   1.207   7.081   1.371 -0.0738  0.5772 -0.0097
  746MOL0     C  582   1.223   7.114   1.505  0.6233  0.1057  0.1246
  746MOL0     O  583   1.181   7.242   1.541  0.0613 -0.6742 -0.1612
  746MOL0     C  584   1.143   7.269   1.679  0.5755  0.8245  0.3819
  746MOL0     C  585   1.073   7.406   1.685 -1.0844 -0.5449  0.2159
  746MOL0     C  586   0.946   7.402   1.612 -0.3874  0.8480 -0.0007
  746MOL0     C  587   0.854   7.291   1.654  0.0621 -0.4045 -0.0062
  746MOL0     C  588   0.709   7.315   1.622  0.2274 -0.2265  0.0788
  746MOL0     C  589   0.664   7.462   1.658 -0.0637 -1.0897  0.4156
  746MOL0     C  590   0.515   7.474   1.693 -0.4853 -0.3751  0.0154
  746MOL0     C  591   0.485   7.617   1.731 -0.3661 -0.1024  0.8628
  746MOL0     N  592   0.347   7.635   1.770  0.8604  0.2943 -0.6175
  746MOL0     C  593   0.293   7.759   1.798  0.4068  0.2937 -0.1454
  746MOL0     C  594   0.165   7.731   1.826 -0.6508  0.5600 -0.6937
  746MOL0     C  595   0.072   7.842   1.846  1.0544 -0.2982  0.5040
  746MOL0     C  596  -0.075   7.798   1.856 -0.3455 -0.0522  0.2267
  746MOL0     C  597  -0.146   7.916   1.927 -0.2442 -0.7478  0.0686
  746MOL0     C  598  -0.287   7.882   1.969  0.8448  0.1842  0.0572
  746MOL0     O  599  -0.379   7.889   1.861 -0.7401  0.0477 -0.0692
  746MOL0     C  600  -0.506   7.841   1.874 -0.4064 -0.0520  0.7375
  746MOL0     C  601  -0.563   7.799   1.998 -0.3496  0.0341  0.5507
  746MOL0     C  602  -0.699   7.749   2.000  0.2319  0.7927 -0.9742
  746MOL0     C  603  -0.749   7.710   2.136  0.4664  0.8321  0.6535
  746MOL0     C  604  -0.778   7.749   1.884  0.6910  0.1272  0.3836
  746MOL0     C  605  -0.920   7.705   1.869  0.6121 -0.5264 -0.4464
  746MOL0     O  606  -0.999   7.776   1.775 -0.0830  1.1196 -0.0641
  746MOL0     C  607  -1.138   7.770   1.768 -0.2170 -0.0141  0.3530
  746MOL0     C  608  -1.196   7.749   1.640 -0.4630 -0.1174 -0.1295
  746MOL0     C  609  -1.339   7.726   1.625 -1.0303 -0.0596  0.1839
  746MOL0     C  610  -1.423   7.720   1.739 -1.3633 -1.3449 -0.4833
  746MOL0     O  611  -1.558   7.697   1.709  0.3311  0.5059 -0.5621
  746MOL0     C  612  -1.599   7.573   1.768  0.1855 -0.1356  0.3836
  746MOL0     C  613  -1.616   7.464   1.661  0.0907 -0.7084  0.5531
  746MOL0     C  614  -1.719   7.504   1.553 -0.1391  0.9710  0.4599
  746MOL0     C  615  -1.861   7.527   1.610 -0.2324 -0.5229  0.3323
  746MOL0     C  616  -1.954   7.555   1.496 -0.7813  0.5940  0.1957
  746MOL0     C  617  -2.105   7.535   1.519 -0.7086  0.2620 -0.3085
  746MOL0     C  618  -2.182   7.667   1.550 -0.1787 -0.8606 -0.4546
  746MOL0     C  619  -2.298   7.628   1.642 -0.0380 -0.1854 -0.0582
  746MOL0    Cl  620  -2.394   7.489   1.572 -0.3470  0.1778  0.0629
  746MOL0     C  621  -1.364   7.753   1.865 -0.1887  0.2006 -0.0397
  746MOL0     C  622  -1.225   7.765   1.876 -0.1952 -0.1884  0.0863
  746MOL0     O  623  -0.959   7.613   1.943  0.1405 -0.6261  0.8966
  746MOL0     C  624  -0.716   7.794   1.767  0.3139 -0.1613  0.0752
  746MOL0     C  625  -0.585   7.828   1.760 -0.8184 -0.4094 -0.2740
  746MOL0     N  626   0.145   7.593   1.850  0.1426 -0.2995 -1.0214
  746MOL0     N  627   0.260   7.541   1.836  1.2594  0.4435 -0.2938
  746MOL0     C  628   1.277   7.013   1.586 -0.3469 -0.3164  0.4224
  746MOL0     C  629   1.288   6.878   1.550 -0.1913 -0.6909  0.4028
  746MOL0     C  630   1.244   6.457   1.378  0.4252 -0.5612  0.5625
  746MOL0     C  631   1.298   6.427   1.252  0.3205  0.1352  0.2811
  746MOL0     C  632   1.308   6.295   1.201  0.6943  0.0223  0.7717
  746MOL0     C  633   1.262   6.191   1.272 -0.7587  0.2741 -0.0110
  746MOL0     O  634   1.269   6.071   1.204  0.2826 -0.0239 -0.2888
  746MOL0     C  635   1.239   5.954   1.276 -0.7260 -0.2850  0.4872
  746MOL0     C  636   1.267   5.835   1.181 -0.2825  0.7188 -0.5829
  746MOL0     C  637   1.303   5.706   1.260 -0.5132  0.6439 -1.2215
  746MOL0     C  638   1.434   5.710   1.346 -0.1948 -0.1730  1.0153
  746MOL0     C  639   1.549   5.702   1.264 -0.2283  0.0066 -0.2806
  746MOL0     C  640   1.644   5.688   1.188  0.5787 -0.9375  0.5545
  746MOL0     C  641   1.218   6.212   1.407 -0.3361  0.2803 -0.9762
  746MOL0     C  642   1.215   6.343   1.457  0.2413  0.0554  0.9870
  746MOL0     H  643   1.206   6.911   1.232 -2.9061  1.9220 -0.5292
  746MOL0     H  644   1.166   7.148   1.296 -1.0090 -0.3406 -0.3362
  746MOL0     H  645   1.080   7.193   1.726 -1.3565  1.5289 -0.9727
  746MOL0     H  646   1.234   7.278   1.740  1.9994  0.0194 -1.5258
  746MOL0     H  647   1.067   7.446   1.786  2.7191 -1.1434  0.8060
  746MOL0     H  648   1.139   7.476   1.633  1.8733 -3.8036 -0.7903
  746MOL0     H  649   0.902   7.500   1.633  0.5338  0.7299  2.8458
  746MOL0     H  650   0.963   7.400   1.504 -2.5551 -0.1182 -0.3661
  746MOL0     H  651   0.886   7.200   1.602  1.0064 -0.6990  1.0385
  746MOL0     H  652   0.862   7.287   1.763 -1.4320  1.2370  0.2134
  746MOL0     H  653   0.690   7.302   1.515 -0.7179  0.0323  0.2032
  746MOL0     H  654   0.663   7.241   1.689 -1.1005  2.2623  2.0762
  746MOL0     H  655   0.723   7.499   1.743  1.4110  3.0431 -2.0949
  746MOL0     H  656   0.689   7.531   1.577 -0.6299 -0.7061  0.5599
  746MOL0     H  657   0.455   7.436   1.610 -1.1245 -1.5447  0.9663
  746MOL0     H  658   0.488   7.410   1.778  2.0691 -0.4803  0.8410
  746MOL0     H  659   0.498   7.680   1.642  1.2078 -0.3604  0.8952
  746MOL0     H  660   0.554   7.653   1.808 -1.5252  2.9844  0.6152
  746MOL0     H  661   0.341   7.856   1.790  1.9967 -0.5856 -2.1800
  746MOL0     H  662   0.109   7.874   1.944  0.3117 -1.4294  1.1807
  746MOL0     H  663   0.083   7.925   1.775  1.8706  0.2619  1.2695
  746MOL0     H  664  -0.089   7.701   1.905 -1.9795 -1.3770 -2.6238
  746MOL0     H  665  -0.122   7.782   1.759 -3.2722 -1.0414  1.6937
  746MOL0     H  666  -0.147   8.007   1.868  0.1767  0.4375  1.8081
  746MOL0     H  667  -0.083   7.961   2.004  1.1642  4.4230 -3.6358
  746MOL0     H  668  -0.326   7.954   2.041 -0.3469  0.2642 -0.6542
  746MOL0     H  669  -0.294   7.782   2.013 -3.7554 -0.2922 -1.2920
  746MOL0     H  670  -0.510   7.790   2.093  1.4355 -0.7785 -0.4709
  746MOL0     H  671  -0.856   7.731   2.144  0.3117  0.8327 -0.9321
  746MOL0     H  672  -0.727   7.604   2.152 -1.2401  0.3261 -0.0957
  746MOL0     H  673  -0.700   7.764   2.217 -0.2347  2.2845  0.1498
  746MOL0     H  674  -1.128   7.759   1.556 -0.0358 -0.6701  0.1487
  746MOL0     H  675  -1.385   7.720   1.527  1.2323  0.0973 -0.9484
  746MOL0     H  676  -1.538   7.536   1.851  1.6340 -0.0796 -0.6287
  746MOL0     H  677  -1.691   7.592   1.824  1.0972  1.9195  1.3204
  746MOL0     H  678  -1.525   7.429   1.611 -1.1224 -0.9053 -1.6780
  746MOL0     H  679  -1.658   7.379   1.716 -0.1248 -0.9463  0.0303
  746MOL0     H  680  -1.735   7.421   1.483 -2.7678  2.3350 -0.6945
  746MOL0     H  681  -1.680   7.585   1.492  3.5326 -1.0610 -0.1716
  746MOL0     H  682  -1.890   7.446   1.678  2.6632 -0.1627  2.1885
  746MOL0     H  683  -1.869   7.621   1.665  1.7163  0.6188 -1.2144
  746MOL0     H  684  -1.926   7.483   1.419 -1.9019 -3.1346  2.9497
  746MOL0     H  685  -1.930   7.650   1.447 -1.5918 -0.1516 -1.6978
  746MOL0     H  686  -2.145   7.483   1.432  0.3686  0.5103 -0.9641
  746MOL0     H  687  -2.111   7.468   1.605  1.4659  0.4030  0.0040
  746MOL0     H  688  -2.208   7.712   1.454  1.0574 -0.0056 -0.4127
  746MOL0     H  689  -2.123   7.740   1.606 -1.1979 -0.0716 -0.3932
  746MOL0     H  690  -2.364   7.712   1.664 -0.5491 -0.5255 -0.2775
  746MOL0     H  691  -2.260   7.601   1.741 -1.2037 -0.1070  0.4196
  746MOL0     H  692  -1.432   7.749   1.950  0.3047  3.1731  0.6352
  746MOL0     H  693  -1.182   7.761   1.976 -1.6864  0.7662  0.7987
  746MOL0     H  694  -0.768   7.780   1.673  1.1438 -3.6317 -0.0010
  746MOL0     H  695  -0.539   7.840   1.663  1.7111 -2.2552  0.5863
  746MOL0     H  696   1.304   7.020   1.691  3.1451 -0.2369 -0.3620
  746MOL0     H  697   1.309   6.801   1.624  1.4116  2.1045  3.0708
  746MOL0     H  698   1.324   6.514   1.194  0.4070 -0.2305 -0.2412
  746MOL0     H  699   1.334   6.279   1.097  2.1649  0.8201  0.9975
  746MOL0     H  700   1.294   5.954   1.370  0.0811  1.9816  0.0654
  746MOL0     H  701   1.133   5.956   1.303 -0.4007 -3.1512  2.4024
  746MOL0     H  702   1.349   5.868   1.117  0.4671  2.9590  1.3497
  746MOL0     H  703   1.179   5.822   1.118 -0.0339 -0.3681 -0.7178
  746MOL0     H  704   1.316   5.625   1.188  0.3613 -1.1314  0.8014
  746MOL0     H  705   1.218   5.675   1.321  1.2432 -1.4231  0.3187
  746MOL0     H  706   1.422   5.634   1.424 -1.8299 -1.7133 -0.6170
  746MOL0     H  707   1.450   5.806   1.396  0.8029 -1.1877  2.7497
  746MOL0     H  708   1.713   5.675   1.107 -1.9148 -1.7353 -1.5888
  746MOL0     H  709   1.184   6.130   1.471 -0.6766  0.9696 -0.2549
  746MOL0     H  710   1.208   6.359   1.564 -1.3903 -0.8374  1.0466
  747MOL0     O  711   2.243   9.453   1.268  0.7956 -0.5731 -0.1961
  747MOL0     C  712   2.304   9.547   1.319  0.1777 -0.5338  0.0081
  747MOL0     O  713   2.247   9.655   1.387  0.5161  0.1803  0.2007
  747MOL0     C  714   2.111   9.668   1.388 -0.4455  0.5734 -0.1614
  747MOL0     C  715   2.027   9.560   1.427  0.9238 -0.5617 -0.4494
  747MOL0     C  716   1.889   9.588   1.440 -0.5285  1.1259  0.4257
  747MOL0     C  717   1.832   9.719   1.427 -0.3650 -0.1615 -0.1756
  747MOL0     O  718   1.696   9.743   1.445  0.3633 -0.1336 -0.4758
  747MOL0     C  719   1.628   9.650   1.540  0.0329 -0.4428  0.2245
  747MOL0     C  720   1.486   9.705   1.561 -0.1621  0.0252 -0.3312
  747MOL0     C  721   1.410   9.618   1.668  0.2549 -0.4197  1.3973
  747MOL0     C  722   1.255   9.633   1.659 -0.5024  0.6443  0.8313
  747MOL0     C  723   1.174   9.529   1.736 -0.8433 -0.1018 -0.6290
  747MOL0     C  724   1.146   9.400   1.659 -0.0173  0.2936 -0.6418
  747MOL0     C  725   1.043   9.416   1.552 -1.0347 -0.8473  0.8160
  747MOL0     C  726   0.981   9.285   1.497  0.3199 -0.4894 -0.3191
  747MOL0     N  727   0.898   9.219   1.599  0.7399  0.1182  0.3461
  747MOL0     C  728   0.835   9.283   1.705  0.5408 -0.0893  0.3591
  747MOL0     C  729   0.752   9.191   1.762 -0.2035  0.1440 -0.7958
  747MOL0     C  730   0.657   9.213   1.877  0.3356 -0.0568  1.2277
  747MOL0     C  731   0.535   9.135   1.849 -0.2325 -0.7824  0.3022
  747MOL0     C  732   0.435   9.156   1.958  0.5652  0.5553 -0.6852
  747MOL0     C  733   0.286   9.152   1.920 -0.4944  0.6158 -0.4545
  747MOL0     O  734   0.197   9.161   2.033  0.3446 -0.8591  0.3915
  747MOL0     C  735   0.061   9.177   2.019  0.1907  0.0957 -0.4615
  747MOL0     C  736  -0.010   9.189   2.142  0.4107 -0.9850  0.3844
  747MOL0     C  737  -0.152   9.184   2.143  0.5204  1.1977  0.4205
  747MOL0     C  738  -0.222   9.216   2.274  0.4237 -0.5726 -0.0399
  747MOL0     C  739  -0.222   9.178   2.022  0.9501  0.5799  0.1030
  747MOL0     C  740  -0.375   9.181   1.994  0.0257 -0.3186  0.3958
  747MOL0     O  741  -0.417   9.102   1.891  0.4542  0.1039 -0.7499
  747MOL0     C  742  -0.552   9.108   1.837 -1.5836  0.2365 -0.6765
  747MOL0     C  743  -0.583   8.985   1.778  0.7188 -0.2337  0.5390
  747MOL0     C  744  -0.710   8.978   1.720 -0.1403  0.2396 -0.0442
  747MOL0     C  745  -0.797   9.095   1.711  0.4961  0.0437 -0.3970
  747MOL0     O  746  -0.923   9.104   1.651 -0.4875  0.5651  0.1065
  747MOL0     C  747  -0.979   8.977   1.595 -0.4105 -0.9277 -0.0643
  747MOL0     C  748  -1.089   8.927   1.692 -0.1774  0.0690 -0.2424
  747MOL0     C  749  -1.184   8.820   1.641 -0.3306  0.6771  0.3707
  747MOL0     C  750  -1.294   8.880   1.554  0.2478 -0.1245 -0.3338
  747MOL0     C  751  -1.424   8.788   1.520  0.3064 -0.2050 -0.2644
  747MOL0     C  752  -1.395   8.706   1.394 -0.3605 -0.3262  0.0188
  747MOL0     C  753  -1.510   8.619   1.370 -0.4345  0.6741  0.4397
  747MOL0     C  754  -1.516   8.560   1.232 -1.3292  0.3718  0.5497
  747MOL0    Cl  755  -1.651   8.438   1.197  0.2451 -0.2728 -0.0099
  747MOL0     C  756  -0.753   9.213   1.767  0.3233  0.2991  0.0396
  747MOL0     C  757  -0.630   9.227   1.824 -0.1091  0.1263 -0.0453
  747MOL0     O  758  -0.445   9.263   2.057 -1.5978  0.3414 -0.2025
  747MOL0     C  759  -0.149   9.164   1.906 -0.1186 -0.3687  0.0658
  747MOL0     C  760  -0.010   9.158   1.897 -0.5096  0.4453 -0.4207
  747MOL0     N  761   0.776   9.068   1.694 -0.9556  0.0697 -0.4748
  747MOL0     N  762   0.853   9.089   1.595 -0.0389  0.0259 -0.1286
  747MOL0     C  763   1.914   9.809   1.371  0.9896 -0.0518 -0.1910
  747MOL0     C  764   2.053   9.789   1.365  0.4400 -0.2285  0.3965
  747MOL0     C  765   2.454   9.547   1.311  0.6291  0.3122  0.5508
  747MOL0     C  766   2.523   9.508   1.195  0.7674  0.3532  0.3402
  747MOL0     C  767   2.662   9.523   1.188 -0.1740 -0.6467 -0.5512
  747MOL0     C  768   2.731   9.577   1.296 -0.0529  0.2521  0.5902
  747MOL0     O  769   2.863   9.605   1.275 -0.0445  0.8412 -0.0933
  747MOL0     C  770   2.907   9.739   1.328  0.0925  0.2255 -0.2012
  747MOL0     C  771   3.017   9.786   1.244  0.3016 -0.0052  0.2236
  747MOL0     C  772   3.149   9.699   1.264 -0.5991  0.0288  0.7819
  747MOL0     C  773   3.266   9.745   1.166  0.4547 -0.7540 -0.0856
  747MOL0     C  774   3.400   9.695   1.195 -0.9378 -0.4268 -0.2716
  747MOL0     C  775   3.509   9.649   1.229  0.3993 -0.1416 -0.2573
  747MOL0     C  776   2.662   9.611   1.412 -1.5405 -0.0887  0.6576
  747MOL0     C  777   2.533   9.605   1.410  0.3280 -0.1490  0.2792
  747MOL0     H  778   2.069   9.469   1.468 -0.5145 -1.6871 -1.3611
  747MOL0     H  779   1.827   9.501   1.458  0.0274  0.3850 -1.1129
  747MOL0     H  780   1.615   9.546   1.510  2.0830 -0.5954 -0.3445
  747MOL0     H  781   1.677   9.644   1.638  0.0790  1.0273  0.3187
  747MOL0     H  782   1.493   9.807   1.601 -0.6280 -1.1438  3.0042
  747MOL0     H  783   1.440   9.707   1.462  2.0136 -0.6906 -1.4298
  747MOL0     H  784   1.430   9.511   1.665  2.3865 -0.1856  3.6146
  747MOL0     H  785   1.447   9.645   1.767 -0.5653 -2.0562  2.1987
  747MOL0     H  786   1.233   9.735   1.693  0.9129  1.7233 -1.3299
  747MOL0     H  787   1.217   9.628   1.557 -0.8712  4.1187  0.6820
  747MOL0     H  788   1.230   9.494   1.823  1.4247  0.9377 -1.5784
  747MOL0     H  789   1.089   9.586   1.774  0.9183  1.3784  1.3871
  747MOL0     H  790   1.234   9.351   1.615  0.0958 -0.8407  0.7709
  747MOL0     H  791   1.107   9.327   1.731  2.0738 -0.3977 -0.1368
  747MOL0     H  792   0.963   9.485   1.581 -0.0567  0.5445  0.3483
  747MOL0     H  793   1.093   9.460   1.465 -0.1914 -2.0646  0.6690
  747MOL0     H  794   1.056   9.216   1.456  0.8325  1.2116 -2.4780
  747MOL0     H  795   0.924   9.317   1.409 -0.6321 -1.1183  0.0638
  747MOL0     H  796   0.838   9.383   1.746 -0.8296  0.3034 -0.4214
  747MOL0     H  797   0.704   9.189   1.973 -1.7217  0.4274  2.4221
  747MOL0     H  798   0.636   9.320   1.873 -1.6871 -0.4395  0.1517
  747MOL0     H  799   0.543   9.029   1.822  0.9604 -0.9372  1.1699
  747MOL0     H  800   0.489   9.176   1.759  1.0215 -0.3980 -0.1857
  747MOL0     H  801   0.470   9.246   2.010  3.5487 -1.0112  0.2459
  747MOL0     H  802   0.457   9.072   2.025 -0.6229  0.5304 -0.2949
  747MOL0     H  803   0.267   9.056   1.871  1.0488  0.9090 -1.6894
  747MOL0     H  804   0.261   9.237   1.856  0.1707  2.2298  1.3389
  747MOL0     H  805   0.051   9.188   2.232 -2.6473 -0.9372  2.6290
  747MOL0     H  806  -0.166   9.197   2.366 -0.6344 -0.3086  0.6785
  747MOL0     H  807  -0.235   9.324   2.279  1.5116 -0.4500  0.3785
  747MOL0     H  808  -0.321   9.170   2.279  0.2813 -0.1375  2.1702
  747MOL0     H  809  -0.516   8.900   1.779  1.4359  0.3153  0.4640
  747MOL0     H  810  -0.736   8.879   1.682 -1.4817  0.0490  1.2750
  747MOL0     H  811  -1.024   9.004   1.499  0.0227 -0.5530 -0.1699
  747MOL0     H  812  -0.903   8.903   1.567 -1.1141 -1.2979 -1.0329
  747MOL0     H  813  -1.026   8.885   1.772 -1.1455  0.8533  0.9641
  747MOL0     H  814  -1.152   9.008   1.729 -3.1600 -2.0352 -0.4153
  747MOL0     H  815  -1.242   8.786   1.728  1.0037  1.6169  1.6691
  747MOL0     H  816  -1.140   8.736   1.586  0.5506  1.8797 -0.8475
  747MOL0     H  817  -1.337   8.967   1.606  1.1362  1.5244 -2.2290
  747MOL0     H  818  -1.258   8.931   1.464 -0.4053  1.0855  0.0663
  747MOL0     H  819  -1.514   8.850   1.513 -0.3791 -1.3049 -1.9716
  747MOL0     H  820  -1.442   8.710   1.594  2.3570  0.9852  1.6203
  747MOL0     H  821  -1.378   8.779   1.313 -0.3554  0.1974  0.4842
  747MOL0     H  822  -1.301   8.653   1.409  0.1066  0.7363  0.9913
  747MOL0     H  823  -1.605   8.660   1.403 -0.2425  0.9664  0.6297
  747MOL0     H  824  -1.491   8.531   1.433 -2.9797  0.1880  0.6338
  747MOL0     H  825  -1.424   8.520   1.186 -2.6399  0.0764 -1.9753
  747MOL0     H  826  -1.530   8.649   1.171  0.4299 -0.7729 -1.7037
  747MOL0     H  827  -0.817   9.300   1.766 -0.1259 -0.0317 -0.4114
  747MOL0     H  828  -0.594   9.324   1.858  1.9805  0.1953 -2.1774
  747MOL0     H  829  -0.187   9.159   1.804 -0.9796 -1.2406  0.4114
  747MOL0     H  830   0.025   9.135   1.797 -0.9064 -0.5884 -0.3308
  747MOL0     H  831   1.867   9.905   1.352 -2.4513 -1.8966 -2.0700
  747MOL0     H  832   2.125   9.865   1.337  0.5988  0.5059  2.5588
  747MOL0     H  833   2.469   9.470   1.109 -1.1843  2.9301  0.2819
  747MOL0     H  834   2.725   9.506   1.101  0.4054 -0.8917 -0.0891
  747MOL0     H  835   2.828   9.814   1.332 -0.3125 -0.2497  1.9929
  747MOL0     H  836   2.941   9.735   1.432  2.7774 -1.3089 -1.0301
  747MOL0     H  837   3.039   9.891   1.266  3.0606 -0.2254 -1.1189
  747MOL0     H  838   2.985   9.774   1.141 -1.9416 -0.7216  0.9489
  747MOL0     H  839   3.136   9.591   1.251  3.1643 -0.8827  2.9965
  747MOL0     H  840   3.178   9.706   1.369 -0.8381 -5.2108  1.4939
  747MOL0     H  841   3.272   9.852   1.185 -0.4962 -0.6896 -0.1097
  747MOL0     H  842   3.251   9.717   1.061  2.4470 -0.1734 -0.5676
  747MOL0     H  843   3.596   9.591   1.255 -0.2834 -1.8394 -1.5550
  747MOL0     H  844   2.702   9.661   1.500  0.0889 -1.2014  0.6027
  747MOL0     H  845   2.493   9.647   1.502 -1.7978  0.9768 -1.0706
  748MOL0     O  846   3.612   3.195   9.682  0.3318  0.2702  0.1502
  748MOL0     C  847   3.604   3.077   9.718 -0.0116 -0.5904  0.2322
  748MOL0     O  848   3.492   2.997   9.706 -0.5654 -0.7609  0.4259
  748MOL0     C  849   3.394   3.012   9.615 -0.3936 -0.2750  0.0910
  748MOL0     C  850   3.343   3.135   9.562 -0.9569  0.4898  0.5320
  748MOL0     C  851   3.233   3.130   9.481 -0.9618 -0.0864  0.9083
  748MOL0     C  852   3.162   3.011   9.455 -0.7393  0.1253  0.5422
  748MOL0     O  853   3.039   3.028   9.403  0.3110 -0.1709 -0.2325
  748MOL0     C  854   2.946   2.933   9.455  0.7786  0.0615 -0.4459
  748MOL0     C  855   2.799   2.981   9.461 -0.0822 -0.3659  0.1240
  748MOL0     C  856   2.746   3.055   9.335  0.6559  0.7158  0.6156
  748MOL0     C  857   2.595   3.056   9.326  0.6654 -0.1544 -0.2846
  748MOL0     C  858   2.537   3.151   9.229 -0.0957  0.5112 -1.1828
  748MOL0     C  859   2.552   3.095   9.085  0.9130  0.1402  0.0407
  748MOL0     C  860   2.487   3.187   8.982  1.2714  0.5658 -0.5949
  748MOL0     C  861   2.573   3.313   8.962 -0.6878 -1.4481 -0.1929
  748MOL0     N  862   2.539   3.374   8.831  0.6862 -0.0206  0.5079
  748MOL0     C  863   2.480   3.505   8.825  0.1636  0.7320  0.3045
  748MOL0     C  864   2.469   3.521   8.697 -1.1663 -0.6129  0.9763
  748MOL0     C  865   2.415   3.639   8.619 -0.1218  1.0619 -0.8250
  748MOL0     C  866   2.518   3.728   8.543  0.1655 -0.6701  0.0946
  748MOL0     C  867   2.540   3.682   8.396  0.2910 -0.2150  0.0240
  748MOL0     C  868   2.639   3.776   8.327 -0.0260  0.7202 -0.7689
  748MOL0     O  869   2.595   3.912   8.341  0.2922 -0.3760 -0.1523
  748MOL0     C  870   2.498   3.952   8.250  0.0594 -1.0253  0.0196
  748MOL0     C  871   2.440   3.882   8.144 -0.1249  0.3362 -0.0338
  748MOL0     C  872   2.344   3.947   8.067  0.1228 -0.5389  0.7379
  748MOL0     C  873   2.286   3.875   7.940  0.5908  0.2691 -0.6622
  748MOL0     C  874   2.302   4.078   8.100  1.2100  0.6643  0.4132
  748MOL0     C  875   2.180   4.146   8.033 -0.2266  0.6332  0.3573
  748MOL0     O  876   2.107   4.083   7.936 -0.2215 -0.0982 -0.0672
  748MOL0     C  877   1.994   4.139   7.887  0.4339  0.8183  0.4559
  748MOL0     C  878   1.896   4.187   7.973  0.1373  0.1112 -0.1436
  748MOL0     C  879   1.778   4.245   7.915  0.4740 -0.3527 -0.1727
  748MOL0     C  880   1.759   4.263   7.780 -0.0911 -0.2973  0.5373
  748MOL0     O  881   1.655   4.318   7.717 -0.4120 -0.3751  0.8285
  748MOL0     C  882   1.562   4.382   7.799 -0.6311  0.6240 -0.3652
  748MOL0     C  883   1.445   4.446   7.717  0.2540  0.4489 -0.2552
  748MOL0     C  884   1.365   4.526   7.816  1.2696 -0.6504 -0.0464
  748MOL0     C  885   1.259   4.621   7.744 -0.7854  0.1147  0.1304
  748MOL0     C  886   1.152   4.671   7.843 -0.3812 -0.5409 -0.1735
  748MOL0     C  887   1.027   4.733   7.790  0.2990  0.9743 -0.3070
  748MOL0     C  888   0.922   4.751   7.897  0.7239  0.3311 -0.3710
  748MOL0     C  889   0.785   4.794   7.838 -0.8593 -0.1240 -0.2238
  748MOL0    Cl  890   0.715   4.663   7.746 -0.1435 -0.0001  0.4798
  748MOL0     C  891   1.867   4.233   7.698 -0.9178  0.3534  0.4740
  748MOL0     C  892   1.974   4.165   7.751 -0.6418 -0.0711  0.5977
  748MOL0     O  893   2.162   4.263   8.062  0.2185  0.0811 -0.1429
  748MOL0     C  894   2.357   4.131   8.216  0.2404  0.3265 -0.2621
  748MOL0     C  895   2.455   4.074   8.287 -0.6214  0.2510 -0.0348
  748MOL0     N  896   2.537   3.419   8.621  0.5281 -0.2608  0.1607
  748MOL0     N  897   2.570   3.339   8.706  0.2232 -0.1533  0.3528
  748MOL0     C  898   3.222   2.887   9.488  0.4324  0.2954 -0.2734
  748MOL0     C  899   3.334   2.892   9.575  0.3383 -0.5702 -0.0674
  748MOL0     C  900   3.724   3.032   9.788  0.5952 -0.5365  0.2585
  748MOL0     C  901   3.828   3.118   9.839 -0.2675 -0.1250  0.7039
  748MOL0     C  902   3.935   3.075   9.916 -0.4666 -0.4974 -0.6122
  748MOL0     C  903   3.934   2.935   9.951  0.1928 -0.2993 -0.9009
  748MOL0     O  904   4.031   2.898  10.043 -0.0904 -0.0731  0.0197
  748MOL0     C  905   4.047   2.982  10.165 -0.1151  0.0465 -0.1939
  748MOL0     C  906   4.065   2.890  10.285  0.0490 -0.3493  0.1055
  748MOL0     C  907   4.195   2.804  10.275  0.7228 -0.6944 -0.8418
  748MOL0     C  908   4.239   2.753  10.415  0.0815 -0.1383 -0.3837
  748MOL0     C  909   4.135   2.726  10.504 -0.1732  1.0920  0.2131
  748MOL0     C  910   4.046   2.700  10.581  0.5836 -0.2901 -0.2813
  748MOL0     C  911   3.839   2.851   9.907 -0.4884 -0.5937 -0.4608
  748MOL0     C  912   3.736   2.899   9.817  0.4493 -0.4133 -0.5829
  748MOL0     H  913   3.370   3.234   9.598 -1.2544  1.5511 -1.9364
  748MOL0     H  914   3.186   3.223   9.449  0.7650  0.6536  0.3743
  748MOL0     H  915   2.952   2.845   9.390 -1.2661  0.1592 -0.8335
  748MOL0     H  916   2.972   2.899   9.556  5.0244  2.8455 -0.3544
  748MOL0     H  917   2.736   2.896   9.487  0.3200 -1.3456 -1.8433
  748MOL0     H  918   2.796   3.061   9.535 -1.1070  0.0967 -0.3979
  748MOL0     H  919   2.776   3.160   9.329 -1.0399  1.2108  0.0832
  748MOL0     H  920   2.782   2.996   9.250 -1.8103  2.1260 -1.5502
  748MOL0     H  921   2.553   2.957   9.310  0.0255 -0.1899  1.4916
  748MOL0     H  922   2.562   3.084   9.426  1.8523 -0.3687  0.1925
  748MOL0     H  923   2.428   3.151   9.241 -0.2488 -0.6650 -2.2738
  748MOL0     H  924   2.574   3.253   9.238  0.2054  0.4328 -1.4979
  748MOL0     H  925   2.659   3.089   9.061  1.3376 -1.0056  1.9713
  748MOL0     H  926   2.513   2.994   9.070  2.0324 -0.0818 -1.7129
  748MOL0     H  927   2.458   3.139   8.888 -0.3140 -0.1419  0.2159
  748MOL0     H  928   2.391   3.223   9.019 -0.0985 -0.9032 -2.5236
  748MOL0     H  929   2.680   3.293   8.954  0.1252  2.8212 -4.4034
  748MOL0     H  930   2.558   3.384   9.043 -1.2266  0.3356 -1.7984
  748MOL0     H  931   2.442   3.574   8.900  1.8230 -0.1314  2.0064
  748MOL0     H  932   2.346   3.601   8.543  1.1200  0.3716 -1.6502
  748MOL0     H  933   2.351   3.711   8.671  3.0338  2.8621  0.9620
  748MOL0     H  934   2.612   3.727   8.599 -0.7747  1.6717  1.8775
  748MOL0     H  935   2.491   3.834   8.555  0.4087 -0.6862  0.8086
  748MOL0     H  936   2.444   3.676   8.343  0.8701 -2.1985 -0.9104
  748MOL0     H  937   2.586   3.582   8.404 -1.9777 -1.2211  1.6302
  748MOL0     H  938   2.672   3.746   8.227 -0.6970  1.1146 -1.1170
  748MOL0     H  939   2.730   3.762   8.385 -0.1002 -4.8155 -1.4729
  748MOL0     H  940   2.478   3.784   8.118  1.1795  0.8231 -0.0405
  748MOL0     H  941   2.319   3.771   7.939 -1.1670 -0.4334  2.1715
  748MOL0     H  942   2.177   3.864   7.933  0.5224  1.0701 -0.9709
  748MOL0     H  943   2.323   3.927   7.851 -0.0803  0.5008 -0.8138
  748MOL0     H  944   1.907   4.173   8.080 -0.1866  0.6594 -0.0379
  748MOL0     H  945   1.695   4.267   7.981 -1.1877  1.7640 -2.7933
  748MOL0     H  946   1.513   4.311   7.866 -1.6885  1.3054 -0.3910
  748MOL0     H  947   1.625   4.449   7.858  0.7992 -1.0316  0.0496
  748MOL0     H  948   1.495   4.502   7.638  2.7963 -0.0722  0.8715
  748MOL0     H  949   1.387   4.366   7.670  1.0179  0.0703 -0.5841
  748MOL0     H  950   1.429   4.589   7.878  0.1719  1.1200 -0.6119
  748MOL0     H  951   1.309   4.448   7.868 -1.1161 -0.3891 -2.0128
  748MOL0     H  952   1.300   4.709   7.693 -1.3082  0.9261  1.0673
  748MOL0     H  953   1.214   4.554   7.670  0.3996 -0.9205  0.3197
  748MOL0     H  954   1.205   4.735   7.915  0.1948  2.5483 -3.1094
  748MOL0     H  955   1.116   4.578   7.890  2.6261 -2.6837 -1.7728
  748MOL0     H  956   1.042   4.826   7.734  0.0355  0.3027 -1.5255
  748MOL0     H  957   0.992   4.650   7.728  0.9253 -0.4276  1.1322
  748MOL0     H  958   0.949   4.818   7.979  0.6838 -1.2812  1.0032
  748MOL0     H  959   0.900   4.664   7.960 -1.7371  1.0061 -0.1871
  748MOL0     H  960   0.801   4.864   7.756  0.6825 -2.3658 -1.9616
  748MOL0     H  961   0.723   4.833   7.920  0.7867  1.1307  0.5030
  748MOL0     H  962   1.863   4.245   7.590  0.7219 -0.6103  0.2815
  748MOL0     H  963   2.053   4.134   7.684 -0.4542 -2.4972  1.8194
  748MOL0     H  964   2.311   4.218   8.261  0.0146 -0.1150  0.3756
  748MOL0     H  965   2.486   4.125   8.377  0.1556 -0.0074 -0.1490
  748MOL0     H  966   3.184   2.790   9.457 -0.9526  0.8264 -0.2961
  748MOL0     H  967   3.374   2.795   9.603 -0.8025 -1.1499 -0.3656
  748MOL0     H  968   3.830   3.226   9.831 -0.4920 -0.2544 -3.9743
  748MOL0     H  969   3.996   3.152   9.963 -0.6968 -0.7989  0.1915
  748MOL0     H  970   4.131   3.050  10.149 -1.3894  2.7092  3.0633
  748MOL0     H  971   3.956   3.038  10.191 -0.2902  0.9370 -2.4869
  748MOL0     H  972   3.983   2.819  10.294  1.3370 -2.1216 -1.2061
  748MOL0     H  973   4.068   2.944  10.380 -1.6906 -0.9976  0.5574
  748MOL0     H  974   4.282   2.842  10.223  2.6226 -1.4534  1.5797
  748MOL0     H  975   4.171   2.712  10.220 -4.6962 -0.0642 -0.1560
  748MOL0     H  976   4.298   2.829  10.468 -2.2312  1.1999  0.4223
  748MOL0     H  977   4.302   2.664  10.412 -2.7386 -2.3414  1.3200
  748MOL0     H  978   3.980   2.668  10.659 -1.8651  1.3253 -1.5624
  748MOL0     H  979   3.840   2.745   9.928 -1.8795 -0.7160 -0.9227
  748MOL0     H  980   3.657   2.832   9.785  0.5431  0.8313 -3.7561
  749MOL0     O  981   0.999   9.446   1.229 -0.0193  0.0144 -0.0966
  749MOL0     C  982   1.000   9.511   1.120 -0.0634  0.8273 -0.1350
  749MOL0     O  983   0.898   9.525   1.031  0.3675 -0.0407 -0.1423
  749MOL0     C  984   0.768   9.502   1.080  0.5064 -0.7332  0.5128
  749MOL0     C  985   0.728   9.368   1.115 -0.3070 -0.0378  0.0386
  749MOL0     C  986   0.600   9.331   1.152 -0.3209 -0.5046  0.0344
  749MOL0     C  987   0.502   9.431   1.170 -0.2933  0.1157  0.5756
  749MOL0     O  988   0.386   9.397   1.217 -0.3323  1.5715  0.1380
  749MOL0     C  989   0.329   9.465   1.330 -0.3778  0.7333  0.8405
  749MOL0     C  990   0.193   9.401   1.355  0.1504 -0.3219 -0.3216
  749MOL0     C  991   0.123   9.450   1.486  0.4871  0.3288 -0.7550
  749MOL0     C  992  -0.004   9.363   1.508 -0.7326  0.6491  0.1294
  749MOL0     C  993  -0.092   9.377   1.390 -1.2612  0.3611  0.7049
  749MOL0     C  994  -0.239   9.395   1.434 -0.4124  0.1992 -0.7303
  749MOL0     C  995  -0.294   9.254   1.460  0.5891 -0.1999 -0.1324
  749MOL0     C  996  -0.441   9.260   1.513 -0.2239  0.0703 -0.0158
  749MOL0     N  997  -0.537   9.268   1.404 -0.0626 -0.1681  0.7463
  749MOL0     C  998  -0.665   9.306   1.414 -0.0175 -0.4305 -0.4405
  749MOL0     C  999  -0.730   9.281   1.305  0.0486 -0.4353  0.6164
  749MOL0     C 1000  -0.869   9.302   1.283 -0.3913  0.0846  0.6163
  749MOL0     C 1001  -0.902   9.436   1.236 -0.4803  0.0549 -0.0380
  749MOL0     C 1002  -1.052   9.457   1.213 -0.2048  0.2586  0.0271
  749MOL0     C 1003  -1.133   9.454   1.350  0.4141 -0.4594 -0.2043
  749MOL0     O 1004  -1.275   9.471   1.330 -0.1030  0.1198 -0.2329
  749MOL0     C 1005  -1.348   9.369   1.270  0.5478 -0.3672  0.2090
  749MOL0     C 1006  -1.474   9.388   1.229  0.5888 -0.4580  0.2241
  749MOL0     C 1007  -1.554   9.283   1.160  0.3359  0.0767  1.0287
  749MOL0     C 1008  -1.692   9.324   1.110 -0.6976 -0.1437 -0.6280
  749MOL0     C 1009  -1.490   9.167   1.119 -0.8571  0.7541 -0.1734
  749MOL0     C 1010  -1.561   9.050   1.052 -0.3454  0.0749  0.6630
  749MOL0     O 1011  -1.697   9.060   1.028  0.5100 -0.4463  0.3700
  749MOL0     C 1012  -1.772   8.960   0.975 -0.8325  0.0963 -0.2711
  749MOL0     C 1013  -1.829   8.968   0.845 -0.1562 -0.0499 -0.1770
  749MOL0     C 1014  -1.881   8.853   0.789  1.3319 -0.5014  0.3389
  749MOL0     C 1015  -1.880   8.736   0.862 -0.0423 -0.1620  0.0865
  749MOL0     O 1016  -1.934   8.616   0.816 -0.6414 -0.0614  0.0359
  749MOL0     C 1017  -2.053   8.626   0.747  1.1588 -0.1316 -0.3642
  749MOL0     C 1018  -2.115   8.499   0.721  0.0000  0.3083  0.0587
  749MOL0     C 1019  -2.134   8.412   0.853 -0.0648 -0.8750 -0.6899
  749MOL0     C 1020  -2.161   8.277   0.812 -0.3432  0.1984 -0.1673
  749MOL0     C 1021  -2.194   8.180   0.923 -0.6160 -0.0523 -0.4316
  749MOL0     C 1022  -2.340   8.165   0.945  0.0033  0.4240 -0.2906
  749MOL0     C 1023  -2.370   8.046   1.028 -0.2053  0.0115  0.0037
  749MOL0     C 1024  -2.521   8.000   1.014 -1.0553 -0.3336 -0.3163
  749MOL0    Cl 1025  -2.626   8.144   1.014  0.0755 -0.0982 -0.0576
  749MOL0     C 1026  -1.820   8.726   0.988  0.1904 -0.6979  0.0671
  749MOL0     C 1027  -1.773   8.836   1.050 -0.2020 -0.6873  0.0016
  749MOL0     O 1028  -1.492   8.954   1.027 -0.2572  0.0302  0.1020
  749MOL0     C 1029  -1.358   9.148   1.160 -0.0836 -0.2594 -0.2310
  749MOL0     C 1030  -1.293   9.243   1.246  0.1661  0.1702 -1.1555
  749MOL0     N 1031  -0.637   9.220   1.223  0.1669 -0.2870  0.1102
  749MOL0     N 1032  -0.527   9.224   1.274  0.3053  0.9182 -0.8223
  749MOL0     C 1033   0.535   9.558   1.119 -0.5323 -0.0538  0.1672
  749MOL0     C 1034   0.664   9.592   1.080 -0.4376 -0.4956  0.6757
  749MOL0     C 1035   1.125   9.578   1.086 -0.6881  0.2369 -1.3573
  749MOL0     C 1036   1.224   9.599   1.188  0.4234 -0.0614 -0.4851
  749MOL0     C 1037   1.341   9.670   1.175  0.3898  0.3233  0.2436
  749MOL0     C 1038   1.376   9.725   1.051  0.7717 -0.5222 -0.3206
  749MOL0     O 1039   1.499   9.774   1.027  0.0896 -0.3419  0.0888
  749MOL0     C 1040   1.609   9.752   1.119  0.0482 -0.3824  0.6061
  749MOL0     C 1041   1.733   9.756   1.032 -0.4087  0.3634  0.8325
  749MOL0     C 1042   1.757   9.887   0.957 -1.0987 -0.2924 -0.1594
  749MOL0     C 1043   1.803  10.007   1.050 -0.3486 -1.1436  0.3033
  749MOL0     C 1044   1.943  10.044   1.018  0.1710  0.0148  0.0868
  749MOL0     C 1045   2.064  10.061   0.996  0.1031 -0.1633 -0.7103
  749MOL0     C 1046   1.272   9.712   0.947  0.1772 -0.3437  0.7301
  749MOL0     C 1047   1.152   9.640   0.962  0.0687 -0.4838 -1.0349
  749MOL0     H 1048   0.810   9.298   1.102 -0.0759  0.7155 -4.0089
  749MOL0     H 1049   0.580   9.231   1.190  1.2883  0.1341  2.8856
  749MOL0     H 1050   0.395   9.465   1.417  0.5488  2.4978  0.1640
  749MOL0     H 1051   0.311   9.570   1.306 -3.1951  0.2756  0.5227
  749MOL0     H 1052   0.128   9.431   1.272 -5.1565  0.8077  3.7216
  749MOL0     H 1053   0.208   9.293   1.353 -1.3817 -0.5405 -1.3456
  749MOL0     H 1054   0.200   9.438   1.563  1.4837  2.3121 -1.3757
  749MOL0     H 1055   0.091   9.554   1.500 -1.0295  0.0641 -2.0212
  749MOL0     H 1056   0.030   9.260   1.523 -0.4824  1.2505  7.2652
  749MOL0     H 1057  -0.051   9.387   1.604  1.4752  2.6931  0.7981
  749MOL0     H 1058  -0.053   9.459   1.330  0.4282 -1.3285 -0.6080
  749MOL0     H 1059  -0.078   9.290   1.325  3.5049 -0.8936  3.0212
  749MOL0     H 1060  -0.234   9.452   1.527 -1.5361  2.9042 -2.2031
  749MOL0     H 1061  -0.293   9.455   1.361 -0.9001  2.6923  1.5124
  749MOL0     H 1062  -0.291   9.202   1.364  2.8439  0.5412 -0.5372
  749MOL0     H 1063  -0.223   9.207   1.528  2.9113  2.0469 -0.8409
  749MOL0     H 1064  -0.460   9.346   1.579 -3.1045 -0.1333 -0.4203
  749MOL0     H 1065  -0.456   9.167   1.568  1.3254 -0.9064 -1.1877
  749MOL0     H 1066  -0.713   9.347   1.502  1.2585  0.8552 -0.3104
  749MOL0     H 1067  -0.909   9.233   1.207  0.4286  0.9805 -0.6781
  749MOL0     H 1068  -0.920   9.288   1.379 -1.3505 -1.9337 -0.1240
  749MOL0     H 1069  -0.852   9.462   1.143 -0.5093  4.1771  0.9075
  749MOL0     H 1070  -0.864   9.511   1.306  0.8110  0.2830 -0.9622
  749MOL0     H 1071  -1.095   9.382   1.147 -0.2901  1.0926 -0.9002
  749MOL0     H 1072  -1.061   9.555   1.164  1.4608  0.4470  0.0128
  749MOL0     H 1073  -1.108   9.533   1.420 -2.8248 -1.1776  2.0012
  749MOL0     H 1074  -1.111   9.356   1.395  3.9635 -0.8369 -2.3343
  749MOL0     H 1075  -1.496   9.490   1.258 -0.6784 -1.0041  1.2968
  749MOL0     H 1076  -1.687   9.303   1.002  2.2983  0.4315 -0.6846
  749MOL0     H 1077  -1.768   9.261   1.156  0.7572 -1.6231 -0.1707
  749MOL0     H 1078  -1.720   9.428   1.125 -0.4504 -0.0227 -0.9722
  749MOL0     H 1079  -1.823   9.058   0.785 -1.6623  0.9698  1.1342
  749MOL0     H 1080  -1.935   8.855   0.695 -3.7295 -0.3355  2.8792
  749MOL0     H 1081  -2.120   8.683   0.812  1.7112 -1.0321  1.0242
  749MOL0     H 1082  -2.043   8.683   0.654 -2.6993  2.9380  0.8300
  749MOL0     H 1083  -2.216   8.509   0.680  0.3043 -3.0550 -1.9241
  749MOL0     H 1084  -2.052   8.446   0.649 -1.0823  1.0011 -1.4365
  749MOL0     H 1085  -2.217   8.448   0.914  1.3208  0.9438  0.2366
  749MOL0     H 1086  -2.046   8.418   0.918 -1.7115  0.7150  1.5263
  749MOL0     H 1087  -2.239   8.275   0.735 -0.2262 -0.4563 -0.2677
  749MOL0     H 1088  -2.068   8.239   0.771 -1.7282 -1.4302 -2.0079
  749MOL0     H 1089  -2.151   8.205   1.020 -2.4908 -0.4288  0.5528
  749MOL0     H 1090  -2.154   8.084   0.890 -3.5002 -1.4872 -0.1238
  749MOL0     H 1091  -2.385   8.255   0.989  0.3262 -0.5784  2.2555
  749MOL0     H 1092  -2.388   8.150   0.848  1.5992 -0.3032 -1.0024
  749MOL0     H 1093  -2.348   8.066   1.133  2.7017  2.9575 -0.9729
  749MOL0     H 1094  -2.303   7.962   1.007 -2.3816 -1.6353 -0.7191
  749MOL0     H 1095  -2.536   7.939   1.103 -0.1206  1.0517  0.8395
  749MOL0     H 1096  -2.544   7.936   0.928  0.1006  2.0699 -2.5520
  749MOL0     H 1097  -1.820   8.627   1.031 -1.3590 -0.9029 -0.3158
  749MOL0     H 1098  -1.717   8.824   1.143  2.9441 -0.0459 -1.6675
  749MOL0     H 1099  -1.307   9.056   1.134  1.5736  0.6443 -0.3534
  749MOL0     H 1100  -1.187   9.223   1.258  0.4748  1.1680 -2.0722
  749MOL0     H 1101   0.450   9.622   1.099 -2.0883 -2.5816 -1.9854
  749MOL0     H 1102   0.683   9.697   1.064  2.3858 -1.2094 -1.5110
  749MOL0     H 1103   1.202   9.557   1.286 -1.0930 -1.4723 -1.3894
  749MOL0     H 1104   1.406   9.676   1.262  0.9224  0.3826 -0.1597
  749MOL0     H 1105   1.605   9.827   1.198 -0.3798  0.8297 -0.5342
  749MOL0     H 1106   1.593   9.652   1.162 -3.6027  0.0163  0.4900
  749MOL0     H 1107   1.729   9.679   0.955  1.1923  1.2268 -0.1783
  749MOL0     H 1108   1.825   9.739   1.089  1.1116  0.5257 -1.4337
  749MOL0     H 1109   1.667   9.911   0.900 -0.5248 -1.5083 -1.6685
  749MOL0     H 1110   1.839   9.872   0.885  0.1401  1.7360  0.7293
  749MOL0     H 1111   1.789   9.991   1.157 -2.3709  0.7469  0.3764
  749MOL0     H 1112   1.738  10.088   1.017  3.1548  1.6080 -0.4843
  749MOL0     H 1113   2.167  10.076   0.969 -0.0769 -2.3515 -3.0030
  749MOL0     H 1114   1.302   9.768   0.858  0.9491  0.1533  1.2939
  749MOL0     H 1115   1.081   9.637   0.879 -1.3393  0.3817  0.0833
  750MOL0     O 1116   9.266   1.647   8.907 -0.5446 -0.2522  0.4581
  750MOL0     C 1117   9.321   1.663   8.798  0.1889  0.5217 -0.0881
  750MOL0     O 1118   9.265   1.716   8.685  0.3235 -0.6502 -0.5327
  750MOL0     C 1119   9.129   1.721   8.666  0.7638  0.5862  0.7479
  750MOL0     C 1120   9.090   1.742   8.538  0.9782 -0.4036  0.9588
  750MOL0     C 1121   8.963   1.784   8.495  0.6115 -0.5948 -0.3812
  750MOL0     C 1122   8.861   1.778   8.596  0.1267 -0.0595  0.3416
  750MOL0     O 1123   8.730   1.822   8.582 -0.3334  0.1564  0.5653
  750MOL0     C 1124   8.691   1.879   8.457  0.0157 -0.3738  0.7054
  750MOL0     C 1125   8.540   1.895   8.441 -0.0307 -0.5185  0.5309
  750MOL0     C 1126   8.501   1.973   8.316  0.5640 -0.4305 -0.0279
  750MOL0     C 1127   8.352   1.970   8.301  0.4563 -0.0130  0.3221
  750MOL0     C 1128   8.308   2.063   8.194  0.1261  0.4874  0.5213
  750MOL0     C 1129   8.159   2.050   8.161 -0.3867 -0.2379 -0.2386
  750MOL0     C 1130   8.110   1.919   8.101 -0.1730 -0.7637  0.5372
  750MOL0     C 1131   7.963   1.942   8.052  0.2423 -0.0621 -0.1079
  750MOL0     N 1132   7.949   2.036   7.941  0.3771 -0.3772 -0.2264
  750MOL0     C 1133   8.021   2.037   7.827 -0.9188 -0.3623  0.6668
  750MOL0     C 1134   7.979   2.143   7.756  0.1857 -0.0307  0.9503
  750MOL0     C 1135   8.033   2.198   7.628  0.6868  0.5960  0.5281
  750MOL0     C 1136   8.188   2.213   7.627 -0.0603 -0.8024 -1.2290
  750MOL0     C 1137   8.235   2.327   7.730  0.1121  0.0745  0.0663
  750MOL0     C 1138   8.369   2.385   7.684  0.3472 -0.0740  0.4975
  750MOL0     O 1139   8.455   2.284   7.725  0.7987  1.0969  0.2791
  750MOL0     C 1140   8.570   2.256   7.658 -0.3286 -0.0072 -1.4923
  750MOL0     C 1141   8.634   2.359   7.593  0.1902 -0.0357  0.7378
  750MOL0     C 1142   8.757   2.341   7.528 -0.2766  0.0669  0.7429
  750MOL0     C 1143   8.815   2.462   7.446  0.4418  0.1564 -0.6192
  750MOL0     C 1144   8.831   2.215   7.548  0.4372  0.0950  0.5253
  750MOL0     C 1145   8.954   2.182   7.474 -0.3292 -0.0869  0.3792
  750MOL0     O 1146   9.010   2.272   7.391 -0.9772  0.6886  0.4034
  750MOL0     C 1147   9.124   2.245   7.323 -0.7889  0.1226  1.5323
  750MOL0     C 1148   9.230   2.333   7.334  0.0425  0.6326 -0.4013
  750MOL0     C 1149   9.346   2.320   7.255  0.2362 -0.1785  0.8192
  750MOL0     C 1150   9.370   2.205   7.174 -0.4388 -0.8658  0.7322
  750MOL0     O 1151   9.472   2.172   7.086  0.3913 -0.0015 -0.8610
  750MOL0     C 1152   9.553   2.282   7.046  0.4952  0.1886 -0.3225
  750MOL0     C 1153   9.644   2.242   6.927  0.5935  0.0886  0.0656
  750MOL0     C 1154   9.746   2.132   6.964  0.0896 -0.7395 -0.0946
  750MOL0     C 1155   9.844   2.096   6.846  1.3331 -0.5631  0.4652
  750MOL0     C 1156   9.962   2.020   6.897  0.4797 -0.1678 -0.7413
  750MOL0     C 1157  10.073   2.022   6.798 -1.3056  0.3048  0.1451
  750MOL0     C 1158  10.060   1.931   6.676  0.3230  0.3587 -0.0426
  750MOL0     C 1159  10.197   1.910   6.604  0.0839  0.1852  0.3467
  750MOL0    Cl 1160  10.172   1.789   6.477  0.0379 -0.1082  0.0207
  750MOL0     C 1161   9.268   2.108   7.183 -0.6960  0.3560 -1.1165
  750MOL0     C 1162   9.143   2.126   7.245 -0.3004  0.0542  0.5040
  750MOL0     O 1163   9.010   2.073   7.499 -0.6348 -0.2597 -0.0708
  750MOL0     C 1164   8.766   2.114   7.626  0.1965  1.0570 -0.3560
  750MOL0     C 1165   8.636   2.135   7.677 -0.4734  0.2216 -1.0274
  750MOL0     N 1166   7.899   2.219   7.838  0.2217  0.5588 -0.1776
  750MOL0     N 1167   7.877   2.157   7.951  0.1181 -0.3559  0.6139
  750MOL0     C 1168   8.892   1.745   8.723  0.2692 -0.0783  0.2366
  750MOL0     C 1169   9.023   1.720   8.759 -1.1125 -0.0454  0.4788
  750MOL0     C 1170   9.470   1.660   8.810 -0.1463  0.4345  0.4343
  750MOL0     C 1171   9.555   1.644   8.699 -0.3398  0.1996  0.8532
  750MOL0     C 1172   9.700   1.627   8.702 -0.2097 -1.2911  0.3483
  750MOL0     C 1173   9.763   1.645   8.821  0.2710 -0.1431 -0.0636
  750MOL0     O 1174   9.889   1.612   8.840 -0.1682 -0.0437  0.2729
  750MOL0     C 1175   9.972   1.589   8.727 -0.1653  0.3767 -1.0818
  750MOL0     C 1176  10.108   1.559   8.779  0.3678  0.6502 -0.1506
  750MOL0     C 1177  10.197   1.546   8.663 -0.7841 -0.1197  0.7312
  750MOL0     C 1178  10.348   1.520   8.715  0.6528 -1.0023 -0.2227
  750MOL0     C 1179  10.406   1.631   8.786 -0.4682  0.2968  1.0116
  750MOL0     C 1180  10.456   1.721   8.852 -0.1335  0.6028  0.9884
  750MOL0     C 1181   9.682   1.677   8.936  0.4428 -0.1558 -0.7267
  750MOL0     C 1182   9.541   1.689   8.931  0.8893 -0.8595 -0.1537
  750MOL0     H 1183   9.171   1.741   8.466 -0.4808  1.0944 -0.7917
  750MOL0     H 1184   8.937   1.807   8.392 -0.0574 -1.5973 -0.4508
  750MOL0     H 1185   8.742   1.974   8.441  3.1576 -1.8144  1.3784
  750MOL0     H 1186   8.734   1.835   8.366 -0.6103  2.7250 -1.2651
  750MOL0     H 1187   8.492   1.797   8.438  2.2892 -1.7279  0.5019
  750MOL0     H 1188   8.496   1.942   8.529 -1.1795 -1.3712  0.4335
  750MOL0     H 1189   8.536   2.076   8.324  0.6852 -0.2772 -2.0255
  750MOL0     H 1190   8.555   1.942   8.227 -0.8605  1.5593 -1.6830
  750MOL0     H 1191   8.332   1.869   8.264  3.0993 -0.4208 -0.2073
  750MOL0     H 1192   8.307   1.992   8.397  0.8803  0.7017  0.3652
  750MOL0     H 1193   8.339   2.166   8.214  1.3888  1.0272 -3.3938
  750MOL0     H 1194   8.362   2.033   8.103 -0.4139  2.7478 -0.6310
  750MOL0     H 1195   8.092   2.069   8.245  1.2929  0.0129  1.0825
  750MOL0     H 1196   8.141   2.136   8.097  0.5345 -0.0893 -0.3074
  750MOL0     H 1197   8.167   1.883   8.015 -2.1829 -0.0904 -1.1701
  750MOL0     H 1198   8.104   1.832   8.168  0.1264 -2.8078 -1.9222
  750MOL0     H 1199   7.905   1.986   8.133  0.7958  1.3299 -0.4366
  750MOL0     H 1200   7.927   1.841   8.027  1.0190 -0.4908  0.4715
  750MOL0     H 1201   8.089   1.958   7.796 -0.5966 -0.6795  2.1254
  750MOL0     H 1202   8.005   2.141   7.539 -2.3139 -0.5396  2.0601
  750MOL0     H 1203   7.985   2.294   7.606 -0.4694 -0.3068 -1.1338
  750MOL0     H 1204   8.208   2.258   7.530  0.1893 -2.2332 -1.8630
  750MOL0     H 1205   8.233   2.115   7.648  1.3276  0.2701  1.3459
  750MOL0     H 1206   8.234   2.294   7.834  1.1078  0.4200  0.1916
  750MOL0     H 1207   8.163   2.408   7.712  0.6483  0.5651  0.0761
  750MOL0     H 1208   8.394   2.469   7.750 -0.4441 -2.3311  3.9466
  750MOL0     H 1209   8.378   2.404   7.577  1.2025 -4.1961 -0.3131
  750MOL0     H 1210   8.593   2.459   7.581 -0.2137 -0.3014 -0.1633
  750MOL0     H 1211   8.902   2.494   7.504 -1.5232  1.8276  1.6143
  750MOL0     H 1212   8.830   2.426   7.344 -1.7280 -1.4700 -0.4190
  750MOL0     H 1213   8.749   2.548   7.439 -1.6176 -0.9849  2.6476
  750MOL0     H 1214   9.211   2.423   7.391  0.6558  0.8845 -0.5899
  750MOL0     H 1215   9.411   2.406   7.267 -2.4562  1.8893  1.6161
  750MOL0     H 1216   9.489   2.366   7.016 -2.3050 -1.8236 -0.3954
  750MOL0     H 1217   9.616   2.328   7.122  0.2912  1.9252 -1.1600
  750MOL0     H 1218   9.581   2.209   6.844  2.8140 -1.7045 -1.0157
  750MOL0     H 1219   9.701   2.327   6.889  0.0204 -1.6567 -5.5957
  750MOL0     H 1220   9.698   2.039   6.997 -3.6911 -0.3551 -3.6142
  750MOL0     H 1221   9.810   2.162   7.047  0.0929  0.3150 -0.4664
  750MOL0     H 1222   9.787   2.029   6.781 -3.0734  0.0919  3.1816
  750MOL0     H 1223   9.874   2.189   6.798 -0.2850 -1.1887 -1.9388
  750MOL0     H 1224   9.930   1.918   6.922 -2.2569  0.6215 -0.7332
  750MOL0     H 1225   9.994   2.085   6.979  0.7397  0.7752 -1.5822
  750MOL0     H 1226  10.098   2.126   6.775 -0.4703  0.8172  2.9880
  750MOL0     H 1227  10.156   1.979   6.856 -0.7791 -0.6631 -1.2750
  750MOL0     H 1228   9.977   1.974   6.618 -0.4024 -0.8746  0.0402
  750MOL0     H 1229  10.027   1.829   6.698 -0.7460  0.2109 -2.0975
  750MOL0     H 1230  10.269   1.875   6.678 -1.2016 -2.1897  0.5746
  750MOL0     H 1231  10.234   2.001   6.556  2.3055 -0.3949  0.8652
  750MOL0     H 1232   9.275   2.016   7.125  0.4987  0.6178 -1.4187
  750MOL0     H 1233   9.074   2.042   7.243 -2.4665  1.7310  0.4698
  750MOL0     H 1234   8.809   2.018   7.655  0.1029  0.8350 -0.9222
  750MOL0     H 1235   8.587   2.059   7.736  2.8376 -0.5838  0.9943
  750MOL0     H 1236   8.822   1.748   8.806 -1.5174 -1.8984 -1.1200
  750MOL0     H 1237   9.051   1.701   8.862  1.4255 -3.0379 -0.6075
  750MOL0     H 1238   9.516   1.652   8.598  0.7810  1.1757  0.4772
  750MOL0     H 1239   9.753   1.596   8.613 -0.1666 -2.6763  0.8336
  750MOL0     H 1240   9.940   1.503   8.667  0.3414  0.6382 -1.7433
  750MOL0     H 1241   9.976   1.677   8.661 -1.3202 -0.5742 -2.4978
  750MOL0     H 1242  10.103   1.469   8.841 -2.8308  1.5091  1.0295
  750MOL0     H 1243  10.157   1.627   8.848  3.4896 -1.8814  0.3742
  750MOL0     H 1244  10.202   1.642   8.612 -1.2802  0.1632  1.2076
  750MOL0     H 1245  10.168   1.468   8.592 -1.4146 -0.2924  1.1741
  750MOL0     H 1246  10.417   1.482   8.639  0.0120  1.5603 -2.2328
  750MOL0     H 1247  10.354   1.441   8.790 -0.3695 -0.3398  0.5846
  750MOL0     H 1248  10.496   1.807   8.902  2.0659  0.4422 -0.3379
  750MOL0     H 1249   9.737   1.689   9.029  2.1079 -0.9721 -1.5561
  750MOL0     H 1250   9.477   1.713   9.015 -0.0866 -0.1519 -1.0789
  751MOL0     O 1251   6.514   4.838   5.918  0.0318  0.4233  0.5540
  751MOL0     C 1252   6.540   4.849   6.038  0.0510 -0.6620  0.3980
  751MOL0     O 1253   6.665   4.866   6.091 -0.1903 -0.3570  1.1974
  751MOL0     C 1254   6.773   4.912   6.024 -0.0724  0.6381  0.1488
  751MOL0     C 1255   6.760   5.006   5.919 -0.0740  0.5712 -0.2875
  751MOL0     C 1256   6.875   5.058   5.857  0.3725  0.5836 -0.1878
  751MOL0     C 1257   7.006   5.019   5.899  1.2412 -0.4617  0.4415
  751MOL0     O 1258   7.118   5.072   5.836 -0.1912  0.0973 -0.0345
  751MOL0     C 1259   7.230   5.103   5.914  0.4732  0.2117 -0.8883
  751MOL0     C 1260   7.250   5.256   5.904  0.4813 -0.1959 -0.0369
  751MOL0     C 1261   7.348   5.308   6.015  0.4106 -0.8067 -0.1802
  751MOL0     C 1262   7.485   5.257   5.984 -0.5358  0.1866  1.0253
  751MOL0     C 1263   7.604   5.306   6.074 -0.2051  0.1088  0.5495
  751MOL0     C 1264   7.599   5.458   6.088 -0.6671  0.7385  0.0081
  751MOL0     C 1265   7.745   5.506   6.133  0.5988  0.1523 -0.3092
  751MOL0     C 1266   7.756   5.652   6.161 -0.6292  0.5166  0.6160
  751MOL0     N 1267   7.668   5.736   6.078 -0.0398 -0.3502  0.6878
  751MOL0     C 1268   7.552   5.805   6.108  0.0548  0.1049  0.7522
  751MOL0     C 1269   7.507   5.852   5.989  0.4745  0.9180  0.2198
  751MOL0     C 1270   7.391   5.946   5.954  0.5747 -1.0604 -0.0347
  751MOL0     C 1271   7.257   5.890   5.937 -0.5687 -0.3230 -0.4642
  751MOL0     C 1272   7.262   5.781   5.829 -0.6609  1.2225  0.2512
  751MOL0     C 1273   7.138   5.685   5.850 -0.0942  0.4997  0.0029
  751MOL0     O 1274   7.152   5.564   5.778  0.4868 -0.0440 -0.0887
  751MOL0     C 1275   7.040   5.492   5.729 -0.1962  0.6868  0.4941
  751MOL0     C 1276   7.062   5.412   5.626 -0.3549  0.8504 -0.5144
  751MOL0     C 1277   6.958   5.331   5.575  0.2174  1.0347  0.1621
  751MOL0     C 1278   6.995   5.229   5.469 -0.5824 -0.4469 -0.3310
  751MOL0     C 1279   6.827   5.346   5.620  0.6864 -0.0737 -0.6338
  751MOL0     C 1280   6.706   5.286   5.565  0.1082  0.4078  0.2737
  751MOL0     O 1281   6.592   5.361   5.589 -0.2103  0.0781 -0.2490
  751MOL0     C 1282   6.473   5.306   5.555 -0.0324  0.0072 -0.4158
  751MOL0     C 1283   6.406   5.212   5.638 -0.3647  0.1260  1.0500
  751MOL0     C 1284   6.274   5.166   5.610 -0.6638 -0.4679  0.3554
  751MOL0     C 1285   6.212   5.214   5.486  0.0174  0.1833  0.0292
  751MOL0     O 1286   6.083   5.162   5.461  0.0969  0.0515 -0.4438
  751MOL0     C 1287   6.007   5.188   5.341  0.0023 -0.5476  0.5400
  751MOL0     C 1288   5.877   5.093   5.331 -0.9417 -0.5601 -0.2261
  751MOL0     C 1289   5.779   5.122   5.436 -0.3033 -0.2563  1.0033
  751MOL0     C 1290   5.659   5.036   5.445  0.3910  0.3540  0.0921
  751MOL0     C 1291   5.592   5.042   5.579 -0.0531  0.3916  0.5020
  751MOL0     C 1292   5.470   4.950   5.577 -0.1678 -0.5414  0.6584
  751MOL0     C 1293   5.506   4.800   5.597 -0.9842  0.2112 -0.3924
  751MOL0     C 1294   5.385   4.702   5.587  0.5897  0.5894  0.8364
  751MOL0    Cl 1295   5.285   4.743   5.439  0.0599  0.1675 -0.0756
  751MOL0     C 1296   6.279   5.301   5.399 -0.4482 -0.1484  0.7378
  751MOL0     C 1297   6.409   5.344   5.434 -0.6384 -0.1569 -0.2632
  751MOL0     O 1298   6.705   5.179   5.510 -0.5459  0.3310  0.1451
  751MOL0     C 1299   6.803   5.425   5.734 -0.0028 -0.3729 -0.4920
  751MOL0     C 1300   6.913   5.492   5.786 -0.5478 -0.3310  0.4457
  751MOL0     N 1301   7.587   5.806   5.889  0.1300 -0.0901  0.3052
  751MOL0     N 1302   7.689   5.752   5.940  0.3272 -0.0481  0.0457
  751MOL0     C 1303   7.017   4.926   6.002  0.1364  0.4806 -0.6419
  751MOL0     C 1304   6.901   4.869   6.059  1.2766 -0.2546  0.2448
  751MOL0     C 1305   6.424   4.846   6.134 -0.1608  0.0671 -0.0527
  751MOL0     C 1306   6.303   4.803   6.080 -0.0324 -0.2709 -0.6002
  751MOL0     C 1307   6.193   4.784   6.167 -0.7433  0.2198 -0.0758
  751MOL0     C 1308   6.195   4.816   6.301  0.4798 -0.1126  0.2160
  751MOL0     O 1309   6.082   4.801   6.373  0.4451  0.3862 -0.3178
  751MOL0     C 1310   6.053   4.877   6.494  0.6312  1.3589 -0.0684
  751MOL0     C 1311   5.895   4.912   6.501  0.0836  0.0466  0.2703
  751MOL0     C 1312   5.794   4.814   6.554 -0.1044 -0.0651 -0.3849
  751MOL0     C 1313   5.796   4.792   6.709  0.0676  0.3446 -0.1659
  751MOL0     C 1314   5.725   4.899   6.782  0.5101  0.5019 -0.7805
  751MOL0     C 1315   5.646   4.956   6.849 -0.1162  0.6544  0.0701
  751MOL0     C 1316   6.316   4.872   6.348  0.3870 -0.2723 -0.5267
  751MOL0     C 1317   6.428   4.880   6.272 -0.0413  0.3644 -0.3776
  751MOL0     H 1318   6.662   5.035   5.884 -0.5487 -1.5059 -0.8206
  751MOL0     H 1319   6.878   5.125   5.772 -2.1629 -0.0071 -0.8134
  751MOL0     H 1320   7.216   5.069   6.017  0.9382 -1.7498 -1.4237
  751MOL0     H 1321   7.316   5.048   5.876 -0.8644 -1.9341 -0.9405
  751MOL0     H 1322   7.287   5.276   5.803 -1.9270 -2.0336 -1.3794
  751MOL0     H 1323   7.153   5.304   5.917 -1.1377 -3.3198  0.5951
  751MOL0     H 1324   7.348   5.417   6.022 -1.6006 -0.8116  0.4185
  751MOL0     H 1325   7.323   5.266   6.113  0.4093  1.0621  0.6786
  751MOL0     H 1326   7.487   5.148   5.975  2.1379  0.0608  2.2531
  751MOL0     H 1327   7.517   5.305   5.891  0.6969  0.0826  1.3779
  751MOL0     H 1328   7.608   5.258   6.173 -2.0536 -0.7124  0.2774
  751MOL0     H 1329   7.696   5.268   6.029 -2.1231 -0.8286 -2.9640
  751MOL0     H 1330   7.583   5.494   5.985  1.8255 -2.7783 -1.8120
  751MOL0     H 1331   7.530   5.502   6.160 -0.2463  3.0210 -0.8807
  751MOL0     H 1332   7.777   5.449   6.220 -0.5070 -0.3590 -0.2251
  751MOL0     H 1333   7.806   5.484   6.044 -0.7508  1.2926 -1.5745
  751MOL0     H 1334   7.862   5.672   6.147 -0.1332 -1.5290  1.0948
  751MOL0     H 1335   7.738   5.655   6.269  2.0912 -1.4487  1.2219
  751MOL0     H 1336   7.523   5.843   6.205 -2.8913 -0.8287  0.3510
  751MOL0     H 1337   7.382   6.028   6.025 -1.7463  0.1524 -1.6266
  751MOL0     H 1338   7.416   5.989   5.856 -1.2807  1.1230  0.3976
  751MOL0     H 1339   7.192   5.972   5.906  1.0664  0.8929 -0.8234
  751MOL0     H 1340   7.217   5.852   6.032 -1.9698  1.0804 -0.4468
  751MOL0     H 1341   7.353   5.724   5.848 -1.3751  0.9075  3.1729
  751MOL0     H 1342   7.256   5.820   5.727 -2.1453 -2.1631 -1.1024
  751MOL0     H 1343   7.048   5.742   5.823 -1.8127 -0.7163  2.6894
  751MOL0     H 1344   7.128   5.654   5.955  4.0767 -0.3469  0.3212
  751MOL0     H 1345   7.159   5.402   5.578 -2.1407  0.3063 -4.3889
  751MOL0     H 1346   6.958   5.127   5.477 -1.2404 -0.0973  2.0354
  751MOL0     H 1347   6.978   5.274   5.371  3.6805  1.7882 -0.3072
  751MOL0     H 1348   7.105   5.226   5.463 -0.5821  0.6267 -1.2798
  751MOL0     H 1349   6.446   5.163   5.726  2.6186 -1.2509 -0.9183
  751MOL0     H 1350   6.233   5.090   5.676  1.1997 -1.9724 -0.1095
  751MOL0     H 1351   5.975   5.292   5.348 -1.8731 -0.7393 -2.9579
  751MOL0     H 1352   6.063   5.175   5.248 -1.4496  0.9377 -0.5844
  751MOL0     H 1353   5.826   5.110   5.236 -2.8759 -2.0675  0.4732
  751MOL0     H 1354   5.903   4.988   5.347 -1.3858 -0.6098  0.1881
  751MOL0     H 1355   5.739   5.221   5.411 -0.4580  0.1807  2.8021
  751MOL0     H 1356   5.834   5.131   5.531  2.7297 -2.9450 -0.3103
  751MOL0     H 1357   5.593   5.059   5.361  0.9425  1.0517 -0.1615
  751MOL0     H 1358   5.692   4.932   5.430  1.6796  1.0052 -2.1048
  751MOL0     H 1359   5.563   5.146   5.598  2.9198  0.9556  2.6357
  751MOL0     H 1360   5.656   5.023   5.666  0.5700  1.5930  0.3338
  751MOL0     H 1361   5.396   4.983   5.651  0.1286 -0.8109  1.0828
  751MOL0     H 1362   5.427   4.959   5.477  1.3764 -0.1768 -0.0021
  751MOL0     H 1363   5.530   4.783   5.702 -0.8823 -3.1216 -0.8380
  751MOL0     H 1364   5.592   4.762   5.542  0.1097  0.5360  1.0391
  751MOL0     H 1365   5.326   4.717   5.678 -1.0709  0.3116 -0.1414
  751MOL0     H 1366   5.415   4.598   5.591  0.1413  0.3416 -1.2349
  751MOL0     H 1367   6.239   5.325   5.301 -0.8768  2.9443  1.5721
  751MOL0     H 1368   6.466   5.409   5.368 -0.6212 -0.7226 -0.8038
  751MOL0     H 1369   6.707   5.435   5.785  0.0600 -1.7038 -0.0773
  751MOL0     H 1370   6.891   5.551   5.874 -1.8006  0.7149 -0.5366
  751MOL0     H 1371   7.107   4.910   6.061 -0.8582  2.4825  1.5666
  751MOL0     H 1372   6.907   4.814   6.152  0.2641  1.0572  1.1338
  751MOL0     H 1373   6.291   4.782   5.974  1.7375  0.6936 -1.0251
  751MOL0     H 1374   6.095   4.752   6.133 -1.1962  0.2070  1.2215
  751MOL0     H 1375   6.072   4.815   6.582  1.8678 -1.0106 -1.9108
  751MOL0     H 1376   6.114   4.968   6.495  0.9057  1.2665 -2.7142
  751MOL0     H 1377   5.862   4.919   6.397 -1.4640 -1.3649  0.6243
  751MOL0     H 1378   5.878   5.014   6.536 -2.4825  1.1272 -3.4072
  751MOL0     H 1379   5.818   4.718   6.508 -1.7425 -0.9486  0.5242
  751MOL0     H 1380   5.693   4.845   6.528 -0.8483 -1.5728  0.5495
  751MOL0     H 1381   5.901   4.794   6.737  0.6172 -2.1210 -1.7822
  751MOL0     H 1382   5.757   4.697   6.746  1.0724  1.0822  3.0628
  751MOL0     H 1383   5.563   5.006   6.895  0.3678  1.2143  0.3478
  751MOL0     H 1384   6.330   4.899   6.453  0.4679 -1.2166 -0.2838
  751MOL0     H 1385   6.521   4.902   6.324 -2.1069  2.9942  2.6829
  752MOL0     O 1386   4.794   1.951   1.391  0.5501  0.6506  0.4688
  752MOL0     C 1387   4.803   1.883   1.497 -1.1994  0.7120  0.3306
  752MOL0     O 1388   4.727   1.775   1.532 -0.0735  0.3501  0.4430
  752MOL0     C 1389   4.640   1.699   1.448 -0.0603  0.7812 -0.1085
  752MOL0     C 1390   4.651   1.685   1.313 -0.5556  0.3271 -0.1803
  752MOL0     C 1391   4.583   1.598   1.238 -0.4365  0.2286  0.5325
  752MOL0     C 1392   4.504   1.501   1.303  0.5313  0.2658  0.1218
  752MOL0     O 1393   4.417   1.411   1.246  0.5211  0.3578 -0.2424
  752MOL0     C 1394   4.398   1.425   1.106 -0.7353  0.7427  0.5588
  752MOL0     C 1395   4.320   1.299   1.067 -0.7070  0.2121  0.3321
  752MOL0     C 1396   4.178   1.295   1.126  0.5436 -1.0299  0.0597
  752MOL0     C 1397   4.112   1.151   1.108  0.3136  0.0522 -0.3538
  752MOL0     C 1398   3.973   1.157   1.172 -0.7067 -0.7935 -0.5591
  752MOL0     C 1399   3.905   1.014   1.176 -0.6983 -0.5089 -0.4337
  752MOL0     C 1400   3.753   1.035   1.185 -0.5060  0.5097 -0.4927
  752MOL0     C 1401   3.680   0.910   1.135  0.2730  0.8116 -0.3881
  752MOL0     N 1402   3.539   0.923   1.179 -0.4811 -0.2672  0.3791
  752MOL0     C 1403   3.439   1.008   1.118  0.4681 -0.3411 -0.0799
  752MOL0     C 1404   3.324   0.994   1.190  0.1371 -0.1467  0.0513
  752MOL0     C 1405   3.187   1.021   1.136 -0.6169 -0.7757 -0.3234
  752MOL0     C 1406   3.076   0.960   1.225  0.2215  0.0470  0.9466
  752MOL0     C 1407   2.947   1.034   1.204  0.2829  0.5175  0.7186
  752MOL0     C 1408   2.824   0.961   1.260 -0.6816 -0.1286 -0.2486
  752MOL0     O 1409   2.706   1.018   1.211 -0.2375 -0.0918  0.1047
  752MOL0     C 1410   2.582   0.960   1.239 -0.4244 -0.4360  0.8484
  752MOL0     C 1411   2.473   1.006   1.171  0.6273  0.3608  0.3127
  752MOL0     C 1412   2.346   0.965   1.206 -0.1537  0.0168 -0.0827
  752MOL0     C 1413   2.226   1.015   1.121 -0.3210  0.6688 -0.5466
  752MOL0     C 1414   2.330   0.864   1.307 -0.7570 -0.4792  0.0592
  752MOL0     C 1415   2.195   0.817   1.360  0.2289  0.8286  0.5886
  752MOL0     O 1416   2.083   0.881   1.318 -0.5367  0.0989 -0.4372
  752MOL0     C 1417   1.957   0.812   1.329  0.6307  0.5894 -0.7499
  752MOL0     C 1418   1.841   0.894   1.342 -0.9294  0.4217 -0.0560
  752MOL0     C 1419   1.712   0.845   1.338 -0.3508  0.2303  0.2378
  752MOL0     C 1420   1.697   0.709   1.337 -0.0626  0.9219  0.8851
  752MOL0     O 1421   1.564   0.675   1.345 -0.2706  0.2100  0.6205
  752MOL0     C 1422   1.524   0.553   1.398  0.3777  0.7116 -0.2452
  752MOL0     C 1423   1.375   0.534   1.416  0.2997  0.1108  0.7773
  752MOL0     C 1424   1.289   0.555   1.294  0.4113 -0.2200  0.0966
  752MOL0     C 1425   1.142   0.519   1.307 -0.1941  0.2443  0.9845
  752MOL0     C 1426   1.068   0.583   1.196  0.0654 -1.1528 -0.5329
  752MOL0     C 1427   0.923   0.572   1.227 -0.0486  0.4450 -0.0254
  752MOL0     C 1428   0.848   0.640   1.120 -0.2345 -0.2531  0.0894
  752MOL0     C 1429   0.704   0.634   1.175 -0.3328  0.2473  0.7159
  752MOL0    Cl 1430   0.607   0.692   1.047  0.0269 -0.2964 -0.1775
  752MOL0     C 1431   1.807   0.623   1.342 -0.9176 -0.0535  0.8081
  752MOL0     C 1432   1.931   0.676   1.335 -1.1420 -0.5153  0.8682
  752MOL0     O 1433   2.197   0.738   1.452  0.2908 -0.6629 -0.4941
  752MOL0     C 1434   2.447   0.810   1.359  0.9209 -0.2301 -1.1328
  752MOL0     C 1435   2.566   0.856   1.331 -0.4353 -0.7752 -0.2049
  752MOL0     N 1436   3.356   0.904   1.296  0.3515 -0.2866 -0.2797
  752MOL0     N 1437   3.474   0.857   1.275  0.0033 -0.6746 -0.3453
  752MOL0     C 1438   4.491   1.513   1.444  0.2988 -0.1197 -0.3329
  752MOL0     C 1439   4.567   1.600   1.518  0.8814  0.2905 -0.3264
  752MOL0     C 1440   4.902   1.928   1.596 -0.3513  0.6178 -0.4532
  752MOL0     C 1441   4.924   1.850   1.711 -0.6351 -0.0522 -0.5953
  752MOL0     C 1442   5.019   1.892   1.806  0.4814  0.0980 -0.0940
  752MOL0     C 1443   5.093   2.008   1.789 -0.4828  0.6999  0.0451
  752MOL0     O 1444   5.181   2.068   1.876 -0.0185  0.2303 -0.7958
  752MOL0     C 1445   5.231   1.998   1.999  0.8214  0.0931  0.2587
  752MOL0     C 1446   5.328   2.079   2.084  0.6135 -0.0996 -0.2332
  752MOL0     C 1447   5.269   2.213   2.139  0.1363 -0.3764  0.2005
  752MOL0     C 1448   5.304   2.320   2.038 -0.9685  0.0457  0.0746
  752MOL0     C 1449   5.265   2.448   2.089 -0.1227  0.1438 -0.1109
  752MOL0     C 1450   5.244   2.563   2.118  0.0177  0.7621 -0.4594
  752MOL0     C 1451   5.066   2.087   1.672 -0.9827  0.3558 -0.2276
  752MOL0     C 1452   4.975   2.044   1.574 -0.2795  0.2942 -0.4803
  752MOL0     H 1453   4.720   1.746   1.255 -0.9741  0.7601 -0.2350
  752MOL0     H 1454   4.602   1.586   1.132  1.7141  0.0154  0.8824
  752MOL0     H 1455   4.333   1.510   1.087 -2.0763 -0.8119 -2.4286
  752MOL0     H 1456   4.497   1.434   1.059 -0.5837 -0.6331  0.5828
  752MOL0     H 1457   4.305   1.312   0.959 -1.9395  0.8210  0.5571
  752MOL0     H 1458   4.389   1.215   1.073 -2.0701 -1.0877 -0.9587
  752MOL0     H 1459   4.180   1.320   1.233  3.8461 -2.2803  0.4317
  752MOL0     H 1460   4.123   1.375   1.077  1.1249  0.1689  1.3004
  752MOL0     H 1461   4.093   1.120   1.005 -1.3321  1.1014 -0.3968
  752MOL0     H 1462   4.173   1.077   1.161 -2.8788 -0.8446  2.4596
  752MOL0     H 1463   3.972   1.189   1.276  0.7579 -1.2730 -0.3752
  752MOL0     H 1464   3.911   1.224   1.112 -1.9085  0.3455  1.8108
  752MOL0     H 1465   3.937   0.971   1.081  2.1045  2.3736 -0.9521
  752MOL0     H 1466   3.943   0.954   1.259 -0.2665  0.1791 -0.1214
  752MOL0     H 1467   3.712   1.059   1.283  0.4705 -1.2077  0.3896
  752MOL0     H 1468   3.736   1.107   1.105 -0.0373  0.3337 -0.7577
  752MOL0     H 1469   3.720   0.815   1.174  2.5034  1.3669 -1.1762
  752MOL0     H 1470   3.688   0.899   1.026  1.0784  0.5518 -0.3103
  752MOL0     H 1471   3.447   1.050   1.019  0.1993 -0.0418  0.0228
  752MOL0     H 1472   3.176   1.129   1.126  1.4892 -0.4844 -0.0001
  752MOL0     H 1473   3.186   0.983   1.034  1.1835  2.1709 -1.5757
  752MOL0     H 1474   3.095   0.975   1.332  3.1176  0.1866  0.4775
  752MOL0     H 1475   3.071   0.852   1.205  0.6701  0.4728 -1.8933
  752MOL0     H 1476   2.935   1.045   1.096 -0.1009 -1.1706  0.5546
  752MOL0     H 1477   2.959   1.136   1.242  0.7248  1.7549 -2.4560
  752MOL0     H 1478   2.833   0.970   1.368  0.9948 -0.4346 -0.3386
  752MOL0     H 1479   2.832   0.853   1.242 -0.0780 -0.3412  1.1737
  752MOL0     H 1480   2.498   1.073   1.089  3.4264 -0.0637  0.7136
  752MOL0     H 1481   2.171   0.930   1.081 -2.2524  2.3891 -1.7745
  752MOL0     H 1482   2.160   1.071   1.187  0.0319  1.8807 -1.1791
  752MOL0     H 1483   2.258   1.069   1.031  1.4089  0.3174 -0.1741
  752MOL0     H 1484   1.855   1.002   1.341  1.0907  0.2039  0.2971
  752MOL0     H 1485   1.626   0.911   1.325 -0.2208  0.0274 -1.9297
  752MOL0     H 1486   1.554   0.468   1.336 -2.7939 -1.2077  0.5889
  752MOL0     H 1487   1.575   0.544   1.494  0.1189  3.1240  0.1696
  752MOL0     H 1488   1.359   0.430   1.448  0.0297 -0.9163 -2.3626
  752MOL0     H 1489   1.338   0.608   1.487  0.6198  0.3285  0.7176
  752MOL0     H 1490   1.327   0.505   1.204  1.5199  1.3556 -0.3435
  752MOL0     H 1491   1.285   0.660   1.264 -3.7390 -0.6495 -1.4408
  752MOL0     H 1492   1.126   0.410   1.304 -0.4506  0.3005 -0.3194
  752MOL0     H 1493   1.106   0.548   1.406  0.5967  0.3479  1.2424
  752MOL0     H 1494   1.100   0.550   1.096 -0.2738  1.2391 -1.5173
  752MOL0     H 1495   1.088   0.691   1.198 -1.4310 -0.8159  2.3881
  752MOL0     H 1496   0.882   0.471   1.239 -2.6966  1.6392  1.8854
  752MOL0     H 1497   0.903   0.620   1.323 -0.9201  1.8565 -0.8679
  752MOL0     H 1498   0.861   0.585   1.026  1.0803  1.3373 -0.7124
  752MOL0     H 1499   0.878   0.745   1.109 -1.0925 -0.2181 -2.7948
  752MOL0     H 1500   0.697   0.704   1.259 -0.6240  0.6673  0.3457
  752MOL0     H 1501   0.661   0.534   1.190 -1.7323  0.7921  0.4693
  752MOL0     H 1502   1.792   0.515   1.342 -0.3678 -0.2142 -2.4671
  752MOL0     H 1503   2.020   0.614   1.332  1.5360  3.0000 -2.1778
  752MOL0     H 1504   2.440   0.725   1.425 -1.6429  0.6521 -0.1172
  752MOL0     H 1505   2.648   0.813   1.388 -0.7201  1.9294  2.4981
  752MOL0     H 1506   4.421   1.446   1.491  0.1554  1.4787  1.9226
  752MOL0     H 1507   4.570   1.593   1.626 -2.3492 -0.0520 -0.1659
  752MOL0     H 1508   4.872   1.756   1.726  1.0990 -0.6271  3.1836
  752MOL0     H 1509   5.049   1.841   1.897  2.0973  2.1360  0.5822
  752MOL0     H 1510   5.141   1.969   2.055 -0.1417  0.5056 -1.0065
  752MOL0     H 1511   5.263   1.897   1.972 -3.6889 -1.0253 -2.0013
  752MOL0     H 1512   5.416   2.103   2.023  1.5168  2.9828  2.0243
  752MOL0     H 1513   5.370   2.019   2.165 -1.8659  0.7179  1.7951
  752MOL0     H 1514   5.318   2.241   2.233  1.1832 -2.1732  0.2298
  752MOL0     H 1515   5.165   2.187   2.162 -0.2106 -0.4074 -1.3266
  752MOL0     H 1516   5.263   2.290   1.941  1.2328 -1.8469 -0.3408
  752MOL0     H 1517   5.412   2.329   2.030 -0.3873 -1.5122  3.9903
  752MOL0     H 1518   5.243   2.667   2.142 -3.4052  1.0451 -1.3759
  752MOL0     H 1519   5.123   2.178   1.657 -2.1352  0.9118 -1.5516
  752MOL0     H 1520   4.969   2.101   1.482  1.5600  2.1845  0.4965
  753MOL0     O 1521   6.428  10.079   2.898  0.3698  0.3680  0.1948
  753MOL0     C 1522   6.478  10.185   2.889  0.2274  0.6641  0.0270
  753MOL0     O 1523   6.411  10.301   2.882  0.0076  0.8894  0.0254
  753MOL0     C 1524   6.270  10.283   2.896 -0.7046  0.4545 -0.8015
  753MOL0     C 1525   6.199  10.257   3.019 -0.9426  0.4479  0.8918
  753MOL0     C 1526   6.063  10.241   3.031 -0.3002 -0.1348 -0.5757
  753MOL0     C 1527   5.990  10.238   2.914  0.1198 -0.6445  0.8179
  753MOL0     O 1528   5.845  10.226   2.928 -0.8309 -0.0885  0.5113
  753MOL0     C 1529   5.792  10.141   2.830 -0.5463  0.3539  0.7476
  753MOL0     C 1530   5.650  10.092   2.866 -0.9737 -0.5423  0.7128
  753MOL0     C 1531   5.537  10.190   2.842 -1.1618  0.1805  0.4811
  753MOL0     C 1532   5.436  10.193   2.961 -0.0031 -0.2698 -0.0761
  753MOL0     C 1533   5.331  10.307   2.958  0.2279  0.7089 -0.6542
  753MOL0     C 1534   5.260  10.317   3.093 -0.9796 -0.3183 -0.4242
  753MOL0     C 1535   5.163  10.195   3.109  1.2205 -0.2491  0.6846
  753MOL0     C 1536   5.112  10.193   3.250  0.2274 -0.1534 -0.9568
  753MOL0     N 1537   5.003  10.088   3.264 -0.5866  0.2919 -0.3334
  753MOL0     C 1538   4.987  10.006   3.377 -0.1324 -0.0284  0.2950
  753MOL0     C 1539   4.870   9.958   3.370  0.8631  1.3117  0.0640
  753MOL0     C 1540   4.797   9.864   3.461  0.1470  1.0066  0.3354
  753MOL0     C 1541   4.830   9.719   3.433 -1.6351  0.1667  0.9875
  753MOL0     C 1542   4.752   9.671   3.305 -0.1272 -0.6192 -0.7111
  753MOL0     C 1543   4.760   9.525   3.272  0.3251  0.8449  0.6816
  753MOL0     O 1544   4.697   9.439   3.370 -0.8629  0.0925  0.3268
  753MOL0     C 1545   4.559   9.402   3.348 -0.3907  0.4648  0.3202
  753MOL0     C 1546   4.459   9.476   3.275  0.3210  0.2051  0.0873
  753MOL0     C 1547   4.319   9.457   3.285 -0.0336 -0.3487 -0.4793
  753MOL0     C 1548   4.224   9.550   3.213 -0.5285 -0.6999  1.0322
  753MOL0     C 1549   4.274   9.362   3.375  0.1391  0.7293  0.8464
  753MOL0     C 1550   4.129   9.321   3.388  0.4933 -0.7628  0.3412
  753MOL0     O 1551   4.058   9.302   3.268 -0.1364 -0.3284 -0.3446
  753MOL0     C 1552   3.926   9.282   3.288  0.5455 -0.1021 -0.0665
  753MOL0     C 1553   3.836   9.389   3.298  0.3596  0.5410  0.0790
  753MOL0     C 1554   3.693   9.362   3.301 -0.1815 -0.4161  0.0825
  753MOL0     C 1555   3.642   9.234   3.296  0.8750 -0.3832 -0.1846
  753MOL0     O 1556   3.508   9.221   3.304 -0.4226 -0.1109  0.3414
  753MOL0     C 1557   3.451   9.086   3.298  0.9425 -0.3931 -0.4305
  753MOL0     C 1558   3.302   9.115   3.293 -0.8085 -0.2246  0.4820
  753MOL0     C 1559   3.229   8.990   3.248  0.1921  0.4480 -0.0550
  753MOL0     C 1560   3.241   8.970   3.092 -0.3421 -0.3941  0.7780
  753MOL0     C 1561   3.129   8.881   3.043 -0.1403  0.9859 -0.2466
  753MOL0     C 1562   3.128   8.850   2.890  0.4448 -0.2288 -0.6178
  753MOL0     C 1563   3.027   8.734   2.858  0.2144  0.0982 -0.0285
  753MOL0     C 1564   3.102   8.604   2.869  0.2520 -0.3224 -0.4458
  753MOL0    Cl 1565   3.220   8.598   2.738 -0.0735 -0.0996  0.1819
  753MOL0     C 1566   3.730   9.127   3.294  0.0220  0.7393 -0.7802
  753MOL0     C 1567   3.869   9.150   3.300 -0.1104  0.0341 -0.4506
  753MOL0     O 1568   4.082   9.288   3.499  0.1147  0.4780 -0.5406
  753MOL0     C 1569   4.374   9.283   3.446  0.1613  0.7216  0.6018
  753MOL0     C 1570   4.510   9.299   3.425 -0.3306  0.7314 -0.6344
  753MOL0     N 1571   4.808  10.016   3.257  0.9356 -0.7672  0.6804
  753MOL0     N 1572   4.890  10.097   3.200  0.2179  0.1992  0.8207
  753MOL0     C 1573   6.056  10.269   2.791 -0.2257 -0.2758 -0.2539
  753MOL0     C 1574   6.199  10.277   2.781  0.2211  0.0570  0.3384
  753MOL0     C 1575   6.626  10.185   2.903 -0.6043 -0.7424  0.0615
  753MOL0     C 1576   6.689  10.070   2.934  0.2878  0.2797 -0.3198
  753MOL0     C 1577   6.825  10.071   2.956 -0.1127 -0.2589  0.2519
  753MOL0     C 1578   6.898  10.192   2.939 -0.7216  0.6067 -0.4075
  753MOL0     O 1579   7.036  10.183   2.974  0.3467  0.0236 -0.2163
  753MOL0     C 1580   7.110  10.082   2.899  1.0744 -0.4775  0.3127
  753MOL0     C 1581   7.161   9.961   2.981 -0.1816  0.5199  0.3957
  753MOL0     C 1582   7.238   9.852   2.893 -0.7787 -0.5963  0.2987
  753MOL0     C 1583   7.266   9.731   2.975 -0.3800 -0.5284  0.7597
  753MOL0     C 1584   7.367   9.640   2.914  0.5058  0.4985 -0.8973
  753MOL0     C 1585   7.441   9.562   2.870 -0.4880 -0.9979  0.8049
  753MOL0     C 1586   6.832  10.311   2.910  0.2671  0.0957 -0.5082
  753MOL0     C 1587   6.693  10.306   2.891 -0.5177 -0.1533  0.2102
  753MOL0     H 1588   6.267  10.260   3.103  0.6817 -0.8722 -0.3060
  753MOL0     H 1589   6.010  10.235   3.125  1.5923 -0.7715  0.4944
  753MOL0     H 1590   5.785  10.197   2.736  4.7775  0.0267 -0.1583
  753MOL0     H 1591   5.858  10.055   2.817 -2.7478 -1.2255 -0.6317
  753MOL0     H 1592   5.636   9.997   2.814 -1.9313  0.5082 -1.0742
  753MOL0     H 1593   5.646  10.064   2.971 -2.0627  3.3631  1.8730
  753MOL0     H 1594   5.576  10.291   2.824  0.2195 -0.5838 -1.1398
  753MOL0     H 1595   5.480  10.158   2.755  0.3479  2.6148 -1.5621
  753MOL0     H 1596   5.390  10.096   2.982  1.3224 -0.5550  1.8229
  753MOL0     H 1597   5.508  10.213   3.041  0.3932 -1.3163 -0.1610
  753MOL0     H 1598   5.394  10.395   2.942 -0.0380  1.6509  2.6651
  753MOL0     H 1599   5.256  10.288   2.882 -2.4494 -0.5254  2.0835
  753MOL0     H 1600   5.334  10.300   3.172  1.5798  1.1155 -2.3875
  753MOL0     H 1601   5.213  10.416   3.099  0.5329  0.4088 -0.2425
  753MOL0     H 1602   5.074  10.211   3.047  0.2433  1.0372  2.3464
  753MOL0     H 1603   5.209  10.099   3.084 -1.1226 -1.0011 -1.0904
  753MOL0     H 1604   5.062  10.288   3.271  0.0230  0.0194 -2.1419
  753MOL0     H 1605   5.193  10.189   3.323  0.0652 -1.6737 -0.8356
  753MOL0     H 1606   5.058   9.980   3.454 -3.6506 -3.5550  2.7592
  753MOL0     H 1607   4.827   9.886   3.564  0.5402 -0.2984  0.5199
  753MOL0     H 1608   4.690   9.884   3.452 -0.2062 -1.3257 -1.5473
  753MOL0     H 1609   4.809   9.652   3.516 -0.2615  0.4816  1.6122
  753MOL0     H 1610   4.939   9.718   3.428 -1.6248 -2.2223 -2.9061
  753MOL0     H 1611   4.791   9.730   3.222  2.1832 -2.5716 -1.1282
  753MOL0     H 1612   4.646   9.694   3.320  0.1491  0.7626 -0.8007
  753MOL0     H 1613   4.865   9.495   3.259 -0.2455 -2.3788  2.5377
  753MOL0     H 1614   4.723   9.519   3.169  1.0773 -0.2025  0.4534
  753MOL0     H 1615   4.480   9.559   3.208 -4.5558  0.3812 -1.5857
  753MOL0     H 1616   4.157   9.487   3.154  3.4531 -2.0124 -2.6103
  753MOL0     H 1617   4.168   9.615   3.282  0.5387  1.5643 -0.1254
  753MOL0     H 1618   4.278   9.610   3.139  0.3497 -0.4087  1.8911
  753MOL0     H 1619   3.882   9.487   3.307 -0.0436  0.7474 -0.0517
  753MOL0     H 1620   3.631   9.451   3.314  1.4989  0.7581  0.3578
  753MOL0     H 1621   3.475   9.035   3.205 -1.2760  1.3937 -2.0948
  753MOL0     H 1622   3.483   9.020   3.379  2.1772  2.4513  1.5972
  753MOL0     H 1623   3.271   9.151   3.391  0.3743 -0.6104  1.0131
  753MOL0     H 1624   3.286   9.192   3.216  3.3588  0.1497 -0.2263
  753MOL0     H 1625   3.125   9.000   3.280  0.1672 -0.7884  0.2635
  753MOL0     H 1626   3.260   8.899   3.300 -1.3461 -1.1140 -1.7629
  753MOL0     H 1627   3.229   9.063   3.035  1.6114 -0.0454  0.8558
  753MOL0     H 1628   3.344   8.940   3.072  0.1522  0.6310  1.6928
  753MOL0     H 1629   3.033   8.917   3.079  0.1896  0.2607  1.4861
  753MOL0     H 1630   3.127   8.778   3.082 -0.9263 -0.3046 -3.3536
  753MOL0     H 1631   3.108   8.943   2.836  0.0633  0.3644  0.5178
  753MOL0     H 1632   3.230   8.822   2.861  0.7167  1.1328 -1.0765
  753MOL0     H 1633   2.999   8.735   2.752 -0.8853 -2.3438  0.1550
  753MOL0     H 1634   2.941   8.736   2.925 -1.4765  0.3394 -2.0987
  753MOL0     H 1635   3.042   8.516   2.845  0.0558 -0.3254  0.0528
  753MOL0     H 1636   3.162   8.613   2.960  1.4500  1.4216 -1.3525
  753MOL0     H 1637   3.704   9.022   3.292  0.9449  0.4889 -3.1665
  753MOL0     H 1638   3.939   9.067   3.309  0.5165  0.6237  0.3376
  753MOL0     H 1639   4.334   9.211   3.516 -3.8849  2.8250  0.7598
  753MOL0     H 1640   4.583   9.234   3.472 -1.1281  0.3323  0.0796
  753MOL0     H 1641   6.000  10.290   2.700 -0.5861 -0.2194 -0.0169
  753MOL0     H 1642   6.261  10.290   2.693  1.2635  0.7740  1.1526
  753MOL0     H 1643   6.639   9.974   2.947 -1.4150  1.3216  1.3376
  753MOL0     H 1644   6.867   9.980   2.998  0.6813 -0.1843 -0.3561
  753MOL0     H 1645   7.057  10.058   2.806  1.2031 -0.7477  0.3105
  753MOL0     H 1646   7.203  10.129   2.867  1.7583 -0.8071  1.7362
  753MOL0     H 1647   7.069   9.916   3.019  2.0347 -3.5779  1.4676
  753MOL0     H 1648   7.232  10.001   3.054  1.2749  0.0490 -0.7004
  753MOL0     H 1649   7.331   9.904   2.868 -1.9252  2.1207  1.2224
  753MOL0     H 1650   7.177   9.827   2.806  0.6002 -3.4022  0.0625
  753MOL0     H 1651   7.172   9.675   2.989 -0.7399  0.2528  1.5402
  753MOL0     H 1652   7.300   9.765   3.073  0.9999  0.7675 -0.1334
  753MOL0     H 1653   7.517   9.489   2.853 -0.4652 -0.9414  0.6598
  753MOL0     H 1654   6.892  10.400   2.921  2.1422 -1.2883  1.0546
  753MOL0     H 1655   6.637  10.398   2.875  0.8733  0.5310 -0.9733
  754MOL0     O 1656   9.901   5.992   2.181  0.0677 -0.2242 -0.4687
  754MOL0     C 1657   9.891   6.101   2.114  0.0415  0.6046 -0.4457
  754MOL0     O 1658   9.782   6.177   2.115  0.2304 -0.6084 -0.1863
  754MOL0     C 1659   9.671   6.138   2.188 -0.4473 -0.2877  0.2088
  754MOL0     C 1660   9.676   6.094   2.323 -0.2714  0.1247 -0.3906
  754MOL0     C 1661   9.557   6.062   2.389  1.1167 -0.6285 -0.6634
  754MOL0     C 1662   9.433   6.078   2.322 -0.4693 -0.0794 -0.3481
  754MOL0     O 1663   9.317   6.064   2.397  0.0894 -0.0701  0.2958
  754MOL0     C 1664   9.312   6.001   2.529 -1.1526  0.1357  0.0400
  754MOL0     C 1665   9.171   5.996   2.600  0.4454  0.3370  1.2475
  754MOL0     C 1666   9.071   5.907   2.521  0.1507  0.3982 -0.0254
  754MOL0     C 1667   8.994   5.822   2.610 -0.2263 -0.3799 -0.6180
  754MOL0     C 1668   8.882   5.748   2.543 -0.1178  0.1862 -0.4247
  754MOL0     C 1669   8.764   5.839   2.481 -0.2546  0.3706 -0.3668
  754MOL0     C 1670   8.783   5.855   2.322 -0.0803  0.6513 -0.6470
  754MOL0     C 1671   8.680   5.950   2.264 -0.4292 -0.0863  0.6348
  754MOL0     N 1672   8.710   5.972   2.122 -0.4500  0.4034  0.4962
  754MOL0     C 1673   8.611   5.951   2.026 -0.5212  0.1830 -0.2933
  754MOL0     C 1674   8.664   5.998   1.908 -0.4519  0.3667 -0.4938
  754MOL0     C 1675   8.601   5.998   1.768 -0.6877 -0.0638  0.8602
  754MOL0     C 1676   8.451   6.002   1.764  0.5455  0.1043  0.4958
  754MOL0     C 1677   8.411   6.034   1.611 -1.3052  0.2526  0.0320
  754MOL0     C 1678   8.256   6.044   1.596 -0.1391  0.0887  0.8729
  754MOL0     O 1679   8.226   6.071   1.452  0.1697  0.1333 -0.0070
  754MOL0     C 1680   8.095   6.084   1.416  0.0216  0.1009 -0.8547
  754MOL0     C 1681   8.066   6.089   1.279  0.5522 -0.6932 -0.0218
  754MOL0     C 1682   7.922   6.104   1.236  0.1946 -0.3037 -0.6545
  754MOL0     C 1683   7.892   6.112   1.092  0.1695  0.0622  0.5306
  754MOL0     C 1684   7.818   6.121   1.335 -0.8187 -0.1114  0.8705
  754MOL0     C 1685   7.667   6.132   1.312 -0.5482  0.4846 -0.0682
  754MOL0     O 1686   7.597   6.129   1.419  0.1272  0.0518  0.0632
  754MOL0     C 1687   7.461   6.142   1.420 -0.5373  0.0693 -0.1071
  754MOL0     C 1688   7.371   6.060   1.346 -0.6793 -0.0557  0.3164
  754MOL0     C 1689   7.231   6.072   1.364  0.1985  0.1856  0.0769
  754MOL0     C 1690   7.176   6.163   1.453  0.1401 -0.1458  1.1203
  754MOL0     O 1691   7.038   6.157   1.461  0.0470 -0.3663 -0.0658
  754MOL0     C 1692   6.986   6.246   1.569 -0.2832 -0.5721  0.8237
  754MOL0     C 1693   6.835   6.262   1.560 -0.4909  0.0029 -0.0280
  754MOL0     C 1694   6.793   6.327   1.427 -0.2446 -0.1538 -0.7366
  754MOL0     C 1695   6.642   6.305   1.402 -0.5213 -0.4287  0.4081
  754MOL0     C 1696   6.586   6.401   1.290 -0.1256  0.5116 -0.1037
  754MOL0     C 1697   6.438   6.384   1.260  0.5983 -0.2980 -0.1340
  754MOL0     C 1698   6.408   6.468   1.120 -0.1891  0.5976 -0.3075
  754MOL0     C 1699   6.260   6.425   1.075 -0.9224 -0.1622 -0.0939
  754MOL0    Cl 1700   6.140   6.502   1.160  0.1694  0.1508  0.6147
  754MOL0     C 1701   7.270   6.255   1.517  0.8859  0.5847  0.2371
  754MOL0     C 1702   7.406   6.238   1.503 -0.2436  0.0887 -0.1586
  754MOL0     O 1703   7.625   6.160   1.201 -0.0312 -0.0722  0.0094
  754MOL0     C 1704   7.857   6.124   1.471 -0.7025  0.6478  0.2444
  754MOL0     C 1705   7.989   6.106   1.505 -0.0161  0.1622 -0.4490
  754MOL0     N 1706   8.797   6.045   1.939  0.1935  0.4066 -0.2217
  754MOL0     N 1707   8.817   6.027   2.069  0.5361  0.2808  0.6144
  754MOL0     C 1708   9.421   6.119   2.193 -0.7520  0.5787  0.2598
  754MOL0     C 1709   9.549   6.145   2.127  0.3694 -0.0473  0.1278
  754MOL0     C 1710   9.995   6.156   2.030  0.0169  0.5843  1.0816
  754MOL0     C 1711   9.965   6.266   1.947 -0.5707 -0.2975  0.0927
  754MOL0     C 1712  10.073   6.324   1.877 -0.3496 -0.5013 -0.7607
  754MOL0     C 1713  10.210   6.274   1.881 -0.6333  0.1143 -1.0734
  754MOL0     O 1714  10.310   6.338   1.822 -0.2129  0.3787 -0.1368
  754MOL0     C 1715  10.430   6.336   1.903 -0.1842  0.3393  0.1946
  754MOL0     C 1716  10.532   6.256   1.824 -0.6555  0.3183  0.1476
  754MOL0     C 1717  10.670   6.312   1.838 -0.4840  0.1610 -0.2809
  754MOL0     C 1718  10.776   6.241   1.756  0.4697  1.0754 -0.3275
  754MOL0     C 1719  10.894   6.328   1.729  0.4078  1.2177 -0.0984
  754MOL0     C 1720  10.989   6.399   1.700 -0.0306  0.4933 -0.4076
  754MOL0     C 1721  10.225   6.143   1.948 -0.1684 -0.8391 -0.3654
  754MOL0     C 1722  10.123   6.100   2.034  1.0946  0.5836  0.2557
  754MOL0     H 1723   9.767   6.118   2.377  1.7658  0.0338 -3.4877
  754MOL0     H 1724   9.560   6.025   2.491 -0.7068 -1.1482 -0.7667
  754MOL0     H 1725   9.361   5.904   2.523 -3.0342 -0.9955  1.6597
  754MOL0     H 1726   9.375   6.067   2.589 -2.1480  1.6030 -0.4544
  754MOL0     H 1727   9.173   5.951   2.699 -1.0842  1.0797  1.6440
  754MOL0     H 1728   9.147   6.103   2.604 -0.2983  0.5827 -3.5197
  754MOL0     H 1729   9.012   5.966   2.451 -2.1174 -0.0315  1.4417
  754MOL0     H 1730   9.134   5.840   2.461  0.4797 -1.6696  2.4322
  754MOL0     H 1731   9.056   5.744   2.655  1.8682  0.5874 -1.7192
  754MOL0     H 1732   8.961   5.889   2.690  0.6262 -0.7294  0.0323
  754MOL0     H 1733   8.925   5.687   2.463 -0.2325  1.2470 -1.3167
  754MOL0     H 1734   8.831   5.675   2.607  4.8540 -2.3827  1.1334
  754MOL0     H 1735   8.671   5.785   2.499  0.6192 -0.3393  2.4805
  754MOL0     H 1736   8.748   5.937   2.527 -2.5712  0.4928 -1.3258
  754MOL0     H 1737   8.873   5.914   2.302 -0.7018  1.5537 -0.8682
  754MOL0     H 1738   8.778   5.761   2.266  1.4356  0.5661 -0.6710
  754MOL0     H 1739   8.684   6.049   2.310  2.0457  1.3233 -2.2895
  754MOL0     H 1740   8.578   5.911   2.278 -0.4688 -1.0752 -1.9628
  754MOL0     H 1741   8.514   5.903   2.033 -0.3124 -0.0040  2.2823
  754MOL0     H 1742   8.630   6.094   1.724 -0.2539 -1.7205 -2.8263
  754MOL0     H 1743   8.639   5.922   1.699  0.5307  3.5230 -2.8666
  754MOL0     H 1744   8.412   6.080   1.830 -0.0007 -1.2135  1.7840
  754MOL0     H 1745   8.411   5.910   1.809 -0.6462  0.3862  0.0574
  754MOL0     H 1746   8.458   5.960   1.547  0.7703  1.1134  0.4987
  754MOL0     H 1747   8.458   6.131   1.594  1.7821 -0.5786  2.9392
  754MOL0     H 1748   8.221   6.126   1.660  0.0729  1.9661 -1.3020
  754MOL0     H 1749   8.210   5.950   1.629  0.6994 -1.6114 -2.3634
  754MOL0     H 1750   8.152   6.079   1.214  0.4783  0.9398 -0.4142
  754MOL0     H 1751   7.986   6.103   1.037 -0.3025  0.3096 -0.3361
  754MOL0     H 1752   7.818   6.037   1.062  2.1493 -1.2722 -1.3467
  754MOL0     H 1753   7.851   6.212   1.076  0.3861  0.1378  0.4423
  754MOL0     H 1754   7.410   5.988   1.274  0.6295  1.0705 -0.1507
  754MOL0     H 1755   7.186   5.997   1.300  3.7166 -2.4171  0.3835
  754MOL0     H 1756   7.002   6.213   1.672 -0.3204  1.9067  1.6745
  754MOL0     H 1757   7.029   6.346   1.563 -0.5524 -0.3344  2.3504
  754MOL0     H 1758   6.796   6.161   1.576  0.3442 -0.0878  1.6347
  754MOL0     H 1759   6.793   6.325   1.639  0.6566  1.9525 -0.9057
  754MOL0     H 1760   6.851   6.288   1.343  0.6360 -0.7333  0.1195
  754MOL0     H 1761   6.821   6.432   1.439 -1.0770  0.0239 -0.2149
  754MOL0     H 1762   6.608   6.202   1.386 -0.7096 -0.4975  1.2266
  754MOL0     H 1763   6.588   6.330   1.493 -1.1365  2.1005 -0.5704
  754MOL0     H 1764   6.640   6.378   1.197  0.0998 -0.1707  0.1908
  754MOL0     H 1765   6.608   6.506   1.308 -0.8997  0.4555  1.3067
  754MOL0     H 1766   6.423   6.280   1.231  0.1103 -0.2682 -0.0010
  754MOL0     H 1767   6.385   6.431   1.343  0.5065  0.5739 -0.6701
  754MOL0     H 1768   6.483   6.431   1.051 -0.2900 -2.0219  0.8813
  754MOL0     H 1769   6.417   6.576   1.136  0.7233  0.4143  0.4223
  754MOL0     H 1770   6.247   6.316   1.080 -2.7326  0.0440  0.3087
  754MOL0     H 1771   6.257   6.459   0.972  3.7445  0.2571 -0.3040
  754MOL0     H 1772   7.243   6.332   1.589 -0.3651  0.8465 -0.4841
  754MOL0     H 1773   7.470   6.300   1.565 -1.4388 -0.1625  1.3746
  754MOL0     H 1774   7.782   6.150   1.545 -2.0505  0.7495 -1.1086
  754MOL0     H 1775   8.016   6.126   1.608  0.2103 -0.3450 -0.4083
  754MOL0     H 1776   9.326   6.147   2.148 -0.9934  1.6149  1.3713
  754MOL0     H 1777   9.553   6.198   2.033 -0.2654  0.1448  0.2038
  754MOL0     H 1778   9.865   6.306   1.937 -0.1450  1.6252  2.6077
  754MOL0     H 1779  10.060   6.418   1.824  0.0582 -0.9654 -1.7056
  754MOL0     H 1780  10.463   6.439   1.920  0.1034  0.2097  0.4233
  754MOL0     H 1781  10.424   6.289   2.001  1.4295  1.0530  0.6672
  754MOL0     H 1782  10.509   6.244   1.717 -2.6568 -0.1965  0.5906
  754MOL0     H 1783  10.520   6.152   1.856  1.6446  0.4526  1.6101
  754MOL0     H 1784  10.705   6.305   1.942 -2.4230  2.1599  0.5988
  754MOL0     H 1785  10.664   6.415   1.803 -2.3314  0.5402  0.9853
  754MOL0     H 1786  10.741   6.207   1.658  1.2657 -0.2549 -0.1846
  754MOL0     H 1787  10.803   6.151   1.812 -2.1920 -0.3740 -1.2058
  754MOL0     H 1788  11.076   6.457   1.677  0.2728 -0.9565 -3.4337
  754MOL0     H 1789  10.323   6.095   1.948  0.9228  1.2461  0.5910
  754MOL0     H 1790  10.135   6.016   2.102  3.2413  0.2818 -0.4308
  755MOL0     O 1791  10.669   8.455   5.003  0.4310  0.0013 -0.0924
  755MOL0     C 1792  10.782   8.417   5.046  0.9888 -0.9497 -0.6416
  755MOL0     O 1793  10.804   8.336   5.155  0.3532  0.1862 -0.2440
  755MOL0     C 1794  10.698   8.287   5.229 -0.4483  0.0327  0.3379
  755MOL0     C 1795  10.574   8.251   5.187  0.8278  0.0027 -0.0646
  755MOL0     C 1796  10.469   8.214   5.270  0.4702  0.1971  0.2558
  755MOL0     C 1797  10.488   8.216   5.412  0.4478  0.3137  0.1396
  755MOL0     O 1798  10.391   8.197   5.513 -0.0726 -0.4036 -0.1052
  755MOL0     C 1799  10.256   8.163   5.473  0.0390  0.0051 -0.0432
  755MOL0     C 1800  10.152   8.121   5.586 -0.5697  0.6852 -0.5269
  755MOL0     C 1801  10.007   8.097   5.530  0.6177 -0.8512  0.3574
  755MOL0     C 1802  10.013   7.990   5.420  0.2176  0.8704  0.4998
  755MOL0     C 1803   9.875   7.965   5.354  0.5802  0.0142  0.2692
  755MOL0     C 1804   9.887   7.830   5.267  0.4279 -0.2450 -0.0963
  755MOL0     C 1805   9.770   7.785   5.183 -0.2400  0.0103 -0.3285
  755MOL0     C 1806   9.715   7.884   5.077 -0.6219 -0.2990  0.3777
  755MOL0     N 1807   9.604   7.827   4.989  0.6116 -0.2066  0.4024
  755MOL0     C 1808   9.501   7.749   5.029 -0.9145 -0.3450 -0.1268
  755MOL0     C 1809   9.417   7.745   4.925  0.6679 -0.2405  0.2832
  755MOL0     C 1810   9.282   7.681   4.934  0.7526 -0.6669  0.1241
  755MOL0     C 1811   9.170   7.766   4.856  0.2074 -0.1144 -0.0293
  755MOL0     C 1812   9.028   7.745   4.897  1.0329  0.5883 -0.0255
  755MOL0     C 1813   8.930   7.816   4.809  0.3456 -0.0743  0.4673
  755MOL0     O 1814   8.900   7.745   4.689  0.1053  0.7891 -0.1738
  755MOL0     C 1815   8.779   7.772   4.628 -0.9753  0.3112 -0.2714
  755MOL0     C 1816   8.711   7.673   4.568 -0.1531 -0.3972  0.1979
  755MOL0     C 1817   8.589   7.701   4.491  0.0560  0.4209 -0.6401
  755MOL0     C 1818   8.517   7.578   4.439 -1.1271 -0.3659  0.5290
  755MOL0     C 1819   8.546   7.832   4.468  0.1235 -0.4401  0.4793
  755MOL0     C 1820   8.441   7.883   4.378  0.7779  0.2726  0.0445
  755MOL0     O 1821   8.394   8.005   4.412 -0.4910 -0.5427 -0.2230
  755MOL0     C 1822   8.310   8.076   4.336  0.8471 -0.2650  0.5268
  755MOL0     C 1823   8.176   8.035   4.304 -0.5428  0.2053 -0.0167
  755MOL0     C 1824   8.098   8.113   4.220 -0.0288 -0.6355  0.2623
  755MOL0     C 1825   8.142   8.234   4.159  0.1688  0.1965 -0.2471
  755MOL0     O 1826   8.080   8.321   4.071  0.1328  0.1401 -0.1415
  755MOL0     C 1827   7.998   8.244   3.974 -1.1340 -0.0660 -0.6199
  755MOL0     C 1828   8.023   8.301   3.835 -0.4437 -0.2561  0.0677
  755MOL0     C 1829   7.908   8.248   3.736 -0.6069  0.0404  0.8036
  755MOL0     C 1830   7.781   8.338   3.731 -1.0517 -0.3281  0.2705
  755MOL0     C 1831   7.673   8.260   3.666  0.4274  0.1249 -0.0387
  755MOL0     C 1832   7.548   8.346   3.646 -0.1008  0.7026 -0.2390
  755MOL0     C 1833   7.445   8.260   3.592  0.4068 -0.7097  0.5359
  755MOL0     C 1834   7.310   8.328   3.598  0.2204  0.8576 -0.7354
  755MOL0    Cl 1835   7.232   8.328   3.759  0.0327  0.0096  0.0827
  755MOL0     C 1836   8.267   8.283   4.198  0.4049  0.7295  0.6940
  755MOL0     C 1837   8.347   8.203   4.275 -0.8467  0.1950 -0.7064
  755MOL0     O 1838   8.410   7.817   4.281 -0.4974 -0.2890 -0.0734
  755MOL0     C 1839   8.613   7.928   4.546 -0.7646  0.4899 -0.4194
  755MOL0     C 1840   8.730   7.898   4.626  0.2384 -0.6037  0.5676
  755MOL0     N 1841   9.479   7.805   4.820 -0.2890 -0.2848  0.4298
  755MOL0     N 1842   9.590   7.858   4.862 -0.4718  0.4213 -0.4891
  755MOL0     C 1843  10.618   8.248   5.461 -0.5265  0.4859 -0.4003
  755MOL0     C 1844  10.711   8.289   5.367  0.2629  1.0535  1.3312
  755MOL0     C 1845  10.909   8.461   4.982 -0.1833  0.3467 -0.3863
  755MOL0     C 1846  11.036   8.424   5.042 -0.2189 -0.3178 -0.4602
  755MOL0     C 1847  11.151   8.474   4.986  0.4605 -0.4348  0.4195
  755MOL0     C 1848  11.148   8.563   4.870  0.6395 -0.5412 -0.7823
  755MOL0     O 1849  11.257   8.619   4.813 -0.0681  0.1095 -0.2967
  755MOL0     C 1850  11.324   8.529   4.718 -0.9087  0.0922 -0.5500
  755MOL0     C 1851  11.435   8.609   4.643 -0.2071 -0.4010  0.3049
  755MOL0     C 1852  11.556   8.526   4.608 -0.1060  0.2570 -0.1916
  755MOL0     C 1853  11.653   8.600   4.517 -0.4945  0.3047 -0.2254
  755MOL0     C 1854  11.747   8.503   4.472 -0.2506  0.9672  0.1792
  755MOL0     C 1855  11.825   8.422   4.425  1.0981 -0.0508 -0.1556
  755MOL0     C 1856  11.023   8.603   4.821  0.1080 -0.4843  0.1408
  755MOL0     C 1857  10.907   8.555   4.875  0.1345 -0.8612  0.1124
  755MOL0     H 1858  10.551   8.243   5.081  0.7065 -0.6432  0.0066
  755MOL0     H 1859  10.381   8.177   5.217  0.8916 -1.0989  0.4381
  755MOL0     H 1860  10.213   8.246   5.416  1.5730 -0.3388 -1.7868
  755MOL0     H 1861  10.266   8.075   5.409  3.2110 -1.7838  2.5910
  755MOL0     H 1862  10.185   8.024   5.626  1.2578  1.2583 -0.5590
  755MOL0     H 1863  10.168   8.190   5.669 -2.7502 -0.3661  0.8573
  755MOL0     H 1864   9.947   8.056   5.612  0.5847 -0.6610  0.4279
  755MOL0     H 1865   9.964   8.188   5.488  2.0953  0.3363  1.3196
  755MOL0     H 1866  10.074   8.010   5.332 -0.8870  2.7100  0.1028
  755MOL0     H 1867  10.050   7.894   5.459 -0.0984  0.3810 -0.3900
  755MOL0     H 1868   9.796   7.958   5.429 -1.6469 -0.7129 -2.0111
  755MOL0     H 1869   9.849   8.049   5.290  2.3812 -0.2663 -0.8989
  755MOL0     H 1870   9.966   7.860   5.197  1.6598  2.1918  2.1378
  755MOL0     H 1871   9.921   7.748   5.331 -0.3562 -0.4661  0.0443
  755MOL0     H 1872   9.808   7.698   5.129  1.6630  1.4821 -1.4923
  755MOL0     H 1873   9.682   7.764   5.244 -2.1979  1.9489 -2.2869
  755MOL0     H 1874   9.791   7.924   5.010  1.2683 -2.5755  1.0193
  755MOL0     H 1875   9.678   7.972   5.129 -1.1216  0.8570 -1.8132
  755MOL0     H 1876   9.490   7.702   5.127  0.4757 -0.2027  0.1278
  755MOL0     H 1877   9.275   7.584   4.883  1.7672  1.0754 -3.7315
  755MOL0     H 1878   9.258   7.674   5.040 -4.7483  2.6577 -0.5119
  755MOL0     H 1879   9.174   7.733   4.752  1.2540  2.0202 -0.7182
  755MOL0     H 1880   9.192   7.873   4.862  0.2908 -0.1537  0.3885
  755MOL0     H 1881   9.012   7.769   5.002 -0.7713 -1.9514  0.3752
  755MOL0     H 1882   9.011   7.637   4.897  3.4182  0.1135  1.9640
  755MOL0     H 1883   8.974   7.914   4.789  2.2474 -0.8034  0.8567
  755MOL0     H 1884   8.832   7.813   4.858  0.3030  1.1462  0.4925
  755MOL0     H 1885   8.750   7.572   4.565 -4.1612 -2.1221 -1.4893
  755MOL0     H 1886   8.530   7.565   4.331  1.9467  0.4250  0.7146
  755MOL0     H 1887   8.554   7.483   4.479 -0.1255 -0.8723 -1.4640
  755MOL0     H 1888   8.411   7.601   4.453 -0.7855  1.0289  0.9645
  755MOL0     H 1889   8.132   7.943   4.341  0.8760 -0.2935  0.4929
  755MOL0     H 1890   7.998   8.087   4.188  0.0198 -3.3135  2.0169
  755MOL0     H 1891   8.029   8.140   3.979  0.2246  0.3343 -0.2645
  755MOL0     H 1892   7.891   8.255   3.995 -0.9275  0.8909 -0.0121
  755MOL0     H 1893   8.011   8.409   3.848 -0.5173 -0.2761  0.1749
  755MOL0     H 1894   8.124   8.279   3.799 -0.2443  1.6358 -0.6146
  755MOL0     H 1895   7.883   8.144   3.762  3.1169 -1.1805  0.1561
  755MOL0     H 1896   7.941   8.241   3.632 -3.6070 -1.0032 -0.1880
  755MOL0     H 1897   7.753   8.375   3.830 -1.5900 -1.2527  0.4782
  755MOL0     H 1898   7.802   8.424   3.666 -1.5063 -0.2143  0.2702
  755MOL0     H 1899   7.655   8.165   3.717  2.3453 -0.0742  0.3453
  755MOL0     H 1900   7.710   8.220   3.571  0.7764  0.6332 -0.1202
  755MOL0     H 1901   7.517   8.391   3.741  2.6742 -2.2020  2.2716
  755MOL0     H 1902   7.572   8.419   3.569  0.6509 -0.7816 -1.4496
  755MOL0     H 1903   7.440   8.159   3.635 -1.1447 -1.3546 -1.0206
  755MOL0     H 1904   7.462   8.241   3.486 -1.2478 -1.5755  0.3878
  755MOL0     H 1905   7.244   8.266   3.537 -2.3390 -2.8514  4.9099
  755MOL0     H 1906   7.318   8.428   3.553 -0.8232  0.8622 -0.9307
  755MOL0     H 1907   8.323   8.358   4.144  0.6284 -0.4596 -0.8097
  755MOL0     H 1908   8.440   8.249   4.306 -1.7867  1.7192 -0.0460
  755MOL0     H 1909   8.572   8.024   4.575 -1.1946 -0.2616  1.6008
  755MOL0     H 1910   8.788   7.974   4.678 -2.5331  0.2906  2.5519
  755MOL0     H 1911  10.628   8.255   5.569 -0.4448 -1.2666 -0.2691
  755MOL0     H 1912  10.803   8.328   5.409  0.5016  1.3828  0.5155
  755MOL0     H 1913  11.042   8.367   5.134 -1.7167  1.1420  0.6095
  755MOL0     H 1914  11.251   8.462   5.026  0.6836  1.9872  0.7801
  755MOL0     H 1915  11.362   8.451   4.784 -0.2487  0.9294  0.0714
  755MOL0     H 1916  11.256   8.485   4.644  0.0983 -1.0917 -0.7982
  755MOL0     H 1917  11.487   8.685   4.702  0.6663  1.0440 -2.1548
  755MOL0     H 1918  11.399   8.657   4.551  0.7184 -0.0555  0.1112
  755MOL0     H 1919  11.509   8.442   4.556 -1.6433  1.8098 -1.4462
  755MOL0     H 1920  11.602   8.493   4.701 -1.1948  1.4419  0.8022
  755MOL0     H 1921  11.708   8.676   4.574  0.5861 -3.0860  3.8490
  755MOL0     H 1922  11.600   8.647   4.434 -0.8693 -4.0483 -2.7290
  755MOL0     H 1923  11.902   8.357   4.389  2.9734  1.6842  0.4894
  755MOL0     H 1924  11.017   8.669   4.734 -1.9113  0.8486  1.1968
  755MOL0     H 1925  10.814   8.590   4.831  1.2020  0.8833 -0.8116
  756MOL0     O 1926   0.731   3.983   7.026 -0.3318 -0.0209 -0.3799
  756MOL0     C 1927   0.737   4.015   7.149 -0.7435 -0.0750  0.8097
  756MOL0     O 1928   0.639   4.061   7.225  0.7567 -0.2423 -0.3329
  756MOL0     C 1929   0.521   3.998   7.200  0.0730 -0.0196  0.4787
  756MOL0     C 1930   0.482   3.888   7.280 -0.2993 -0.4521 -0.2961
  756MOL0     C 1931   0.356   3.835   7.265  0.1973  0.0950  0.3901
  756MOL0     C 1932   0.261   3.895   7.177 -0.5274 -0.1988 -0.5801
  756MOL0     O 1933   0.133   3.848   7.154  0.1994 -0.3878  0.4639
  756MOL0     C 1934   0.111   3.711   7.189 -1.1526 -0.7736  0.9662
  756MOL0     C 1935  -0.028   3.673   7.141  0.2975  0.7623  0.8263
  756MOL0     C 1936  -0.141   3.766   7.196  0.7313  1.0375  0.0985
  756MOL0     C 1937  -0.278   3.739   7.131  0.4967  0.6619  0.1413
  756MOL0     C 1938  -0.395   3.829   7.183 -0.3502  0.0358 -0.5741
  756MOL0     C 1939  -0.530   3.816   7.112 -0.0732  0.5964  0.0115
  756MOL0     C 1940  -0.632   3.892   7.189  0.3316 -0.6850  0.4489
  756MOL0     C 1941  -0.755   3.925   7.102  0.8349  0.2753  0.6963
  756MOL0     N 1942  -0.880   3.838   7.129 -0.3651 -0.4325 -0.1244
  756MOL0     C 1943  -1.000   3.876   7.175  0.8247 -0.0532 -0.3705
  756MOL0     C 1944  -1.068   3.761   7.186 -0.4760  0.0218 -0.1825
  756MOL0     C 1945  -1.210   3.739   7.223  0.1945  0.3794  0.1320
  756MOL0     C 1946  -1.255   3.804   7.353 -0.2727 -0.6388  1.2254
  756MOL0     C 1947  -1.166   3.775   7.473  0.6278 -0.3959 -0.4329
  756MOL0     C 1948  -1.222   3.822   7.608 -0.2401 -0.4339  0.7991
  756MOL0     O 1949  -1.202   3.968   7.593 -0.5959  0.5267 -0.3843
  756MOL0     C 1950  -1.193   4.039   7.714  0.4501 -0.0746  1.0246
  756MOL0     C 1951  -1.154   4.182   7.720 -0.7483  1.0442  0.2787
  756MOL0     C 1952  -1.115   4.257   7.837 -0.2840 -0.0578 -0.3851
  756MOL0     C 1953  -1.068   4.403   7.829 -0.3720  0.6207 -0.1973
  756MOL0     C 1954  -1.123   4.191   7.965 -0.3662 -1.0176 -0.3008
  756MOL0     C 1955  -1.073   4.249   8.094 -0.6995 -0.7125 -0.3522
  756MOL0     O 1956  -1.105   4.378   8.105  0.4912  0.6651 -0.7457
  756MOL0     C 1957  -1.075   4.448   8.215 -0.4216 -1.3695 -0.3015
  756MOL0     C 1958  -1.014   4.578   8.196 -0.2095  1.3142  0.4264
  756MOL0     C 1959  -0.985   4.657   8.298 -0.3554  0.0857  0.2745
  756MOL0     C 1960  -1.037   4.640   8.425  0.0785 -0.4871  0.7290
  756MOL0     O 1961  -1.039   4.746   8.507  0.0246 -0.4597 -0.3657
  756MOL0     C 1962  -1.118   4.744   8.625  0.0955 -0.6562  0.3769
  756MOL0     C 1963  -1.274   4.736   8.597 -0.0494 -0.4815 -0.8757
  756MOL0     C 1964  -1.328   4.843   8.498 -0.8331  0.5246  0.0833
  756MOL0     C 1965  -1.399   4.962   8.568 -0.7280  0.0017  0.1891
  756MOL0     C 1966  -1.462   5.060   8.465 -0.6090  1.1868 -0.6888
  756MOL0     C 1967  -1.544   5.166   8.539 -0.7672  0.3180  0.7189
  756MOL0     C 1968  -1.571   5.287   8.438 -0.6862  0.7214 -0.8472
  756MOL0     C 1969  -1.677   5.371   8.492 -0.9240  0.6493 -0.3362
  756MOL0    Cl 1970  -1.683   5.518   8.398  0.4134 -0.0688  0.3562
  756MOL0     C 1971  -1.084   4.511   8.456 -0.0988  0.5052  0.0228
  756MOL0     C 1972  -1.108   4.422   8.351  0.7921 -0.2262  0.0896
  756MOL0     O 1973  -1.013   4.185   8.172 -0.4405 -0.0727  0.3887
  756MOL0     C 1974  -1.170   4.054   7.964 -0.6843 -1.1544 -0.5465
  756MOL0     C 1975  -1.206   3.984   7.842  0.3112 -0.6090 -0.5274
  756MOL0     N 1976  -0.997   3.655   7.133 -0.7236  0.2944 -0.1130
  756MOL0     N 1977  -0.877   3.704   7.117 -0.2397 -0.6913  0.3300
  756MOL0     C 1978   0.297   4.010   7.104  0.4172 -0.1745  0.7201
  756MOL0     C 1979   0.426   4.061   7.116  0.3922  1.0604  0.4378
  756MOL0     C 1980   0.876   4.014   7.206 -0.2350  0.2052  0.7630
  756MOL0     C 1981   0.995   4.014   7.123  0.1084  0.3766  0.8239
  756MOL0     C 1982   1.125   4.009   7.180  0.9562 -0.2459 -0.1474
  756MOL0     C 1983   1.135   4.004   7.324  0.4179  0.6062 -0.4763
  756MOL0     O 1984   1.254   4.003   7.394 -0.3171 -0.1962 -0.0570
  756MOL0     C 1985   1.362   3.937   7.327 -0.5705  0.1122  1.0934
  756MOL0     C 1986   1.475   3.923   7.431 -0.2035 -0.4134  0.1103
  756MOL0     C 1987   1.617   3.912   7.359 -0.3005 -0.4710  0.0143
  756MOL0     C 1988   1.707   4.018   7.417 -0.1000  0.0142  0.2299
  756MOL0     C 1989   1.852   3.996   7.385  0.1513 -1.0778  0.0960
  756MOL0     C 1990   1.964   3.974   7.345 -0.6939 -0.3751  0.6036
  756MOL0     C 1991   1.021   4.003   7.407  0.3353 -0.5762  0.2703
  756MOL0     C 1992   0.893   4.003   7.345 -0.5670  0.2055 -0.7265
  756MOL0     H 1993   0.559   3.847   7.345 -0.2028 -0.8653 -0.6679
  756MOL0     H 1994   0.338   3.751   7.332 -0.9400  0.2957  0.3384
  756MOL0     H 1995   0.185   3.651   7.136 -2.5933 -0.7616 -1.1673
  756MOL0     H 1996   0.121   3.695   7.297  0.8502 -0.8108  0.8193
  756MOL0     H 1997  -0.029   3.682   7.032 -1.3035  0.4630  0.7996
  756MOL0     H 1998  -0.061   3.569   7.155 -0.0193  0.6795 -0.4309
  756MOL0     H 1999  -0.154   3.749   7.304  2.3776 -3.8047 -0.2049
  756MOL0     H 2000  -0.116   3.871   7.184  2.4728  0.5671 -0.7263
  756MOL0     H 2001  -0.269   3.762   7.025  0.4076  3.0316  0.5937
  756MOL0     H 2002  -0.312   3.636   7.142 -1.2339  1.0432 -1.1293
  756MOL0     H 2003  -0.400   3.812   7.291 -0.2553 -3.1161 -0.9689
  756MOL0     H 2004  -0.366   3.935   7.183 -1.9014  0.4973  0.1654
  756MOL0     H 2005  -0.517   3.852   7.010  1.7548  1.1209  0.3995
  756MOL0     H 2006  -0.557   3.711   7.099 -0.1594  0.6992 -0.6902
  756MOL0     H 2007  -0.649   3.852   7.290  1.0178  1.8763  1.6667
  756MOL0     H 2008  -0.580   3.985   7.215  0.6639 -0.2279 -1.6930
  756MOL0     H 2009  -0.732   3.906   6.997 -0.7659 -1.5916  0.6290
  756MOL0     H 2010  -0.787   4.026   7.129 -0.9796  0.6309 -2.3554
  756MOL0     H 2011  -1.047   3.972   7.196 -1.9456 -1.2220 -0.7087
  756MOL0     H 2012  -1.274   3.787   7.148 -1.2160  0.6000  1.4315
  756MOL0     H 2013  -1.222   3.633   7.247  2.6014 -0.9007 -3.5427
  756MOL0     H 2014  -1.357   3.780   7.385 -0.1406  0.9310  2.9870
  756MOL0     H 2015  -1.253   3.906   7.315 -0.8146 -0.7748  0.8065
  756MOL0     H 2016  -1.068   3.822   7.458  1.0066 -1.1918 -0.4924
  756MOL0     H 2017  -1.149   3.668   7.491 -1.5047 -0.4643  1.6580
  756MOL0     H 2018  -1.164   3.776   7.688 -1.6037 -3.4480  0.2021
  756MOL0     H 2019  -1.328   3.795   7.617 -0.6211  0.2751 -1.0717
  756MOL0     H 2020  -1.159   4.214   7.617 -1.3361 -0.1958 -0.1007
  756MOL0     H 2021  -1.025   4.424   7.731 -0.9867 -1.4740 -0.9717
  756MOL0     H 2022  -1.159   4.461   7.845 -0.6038  0.1910  0.0589
  756MOL0     H 2023  -0.997   4.423   7.911  0.0399  0.0798 -0.4129
  756MOL0     H 2024  -0.988   4.618   8.099 -2.1909  1.0917 -0.2313
  756MOL0     H 2025  -0.930   4.747   8.272  1.9770 -0.9151  1.4227
  756MOL0     H 2026  -1.074   4.674   8.696  1.4816  3.6592  4.3054
  756MOL0     H 2027  -1.091   4.841   8.668  4.5062 -0.2544 -2.5617
  756MOL0     H 2028  -1.288   4.636   8.557 -0.2097 -1.3434  1.1901
  756MOL0     H 2029  -1.334   4.729   8.688 -0.8777  1.5950 -1.1941
  756MOL0     H 2030  -1.398   4.785   8.437  0.1364 -1.7453  1.0228
  756MOL0     H 2031  -1.248   4.880   8.434  0.6619 -0.3255  1.4017
  756MOL0     H 2032  -1.475   4.920   8.635 -1.2355  2.1210  1.0279
  756MOL0     H 2033  -1.331   5.023   8.629  1.7334 -1.4685 -0.9315
  756MOL0     H 2034  -1.532   5.006   8.400  0.3827 -1.7806  0.5204
  756MOL0     H 2035  -1.376   5.086   8.403  2.3130 -4.6883  0.1121
  756MOL0     H 2036  -1.628   5.110   8.581 -0.8881 -2.5232 -2.7814
  756MOL0     H 2037  -1.491   5.210   8.624  0.6303 -1.3716  0.7832
  756MOL0     H 2038  -1.594   5.244   8.340 -2.6995  1.0842 -0.5928
  756MOL0     H 2039  -1.481   5.346   8.420  0.4636 -0.8238 -0.3388
  756MOL0     H 2040  -1.668   5.394   8.599 -1.5789  0.8384 -0.3143
  756MOL0     H 2041  -1.773   5.319   8.490 -0.2352 -0.6750 -0.0792
  756MOL0     H 2042  -1.109   4.486   8.558  2.0952  1.5823  0.9014
  756MOL0     H 2043  -1.167   4.334   8.374  1.1227  0.1967  3.0828
  756MOL0     H 2044  -1.182   4.002   8.058 -0.1967 -3.0922 -1.5029
  756MOL0     H 2045  -1.246   3.885   7.864  0.3127  0.1559  3.9793
  756MOL0     H 2046   0.230   4.061   7.035  3.0213  2.4756 -0.0439
  756MOL0     H 2047   0.456   4.150   7.061  0.2608  1.1169  0.4563
  756MOL0     H 2048   1.005   3.997   7.016  1.3588  0.7128  0.8710
  756MOL0     H 2049   1.213   4.000   7.117  0.3212 -0.7944 -0.9642
  756MOL0     H 2050   1.356   3.835   7.287  4.3438  0.1411 -0.4458
  756MOL0     H 2051   1.387   4.002   7.243 -1.6495  1.1119  1.5349
  756MOL0     H 2052   1.461   3.833   7.492  2.2448 -0.6162  0.4688
  756MOL0     H 2053   1.479   4.013   7.493  2.6738 -0.8763  0.7496
  756MOL0     H 2054   1.599   3.935   7.254  1.5060  2.4060  0.2082
  756MOL0     H 2055   1.664   3.813   7.367 -0.6601 -0.4883  3.2263
  756MOL0     H 2056   1.691   4.001   7.524 -1.3498  0.9611  0.2186
  756MOL0     H 2057   1.668   4.117   7.392 -1.2553  0.3236  2.8981
  756MOL0     H 2058   2.067   3.974   7.314 -1.3894 -2.0206 -2.1124
  756MOL0     H 2059   1.031   3.999   7.515  2.2434  0.1721  0.1599
  756MOL0     H 2060   0.805   4.009   7.410  0.1435 -0.2060  0.3039
  757MOL0     O 2061  11.188   3.692   9.538  0.2073 -0.4663  0.0225
  757MOL0     C 2062  11.200   3.586   9.478 -0.3200  0.1776 -0.2231
  757MOL0     O 2063  11.103   3.504   9.440  0.7600  0.1327 -0.2403
  757MOL0     C 2064  10.974   3.529   9.488  0.1761 -0.2722  0.6208
  757MOL0     C 2065  10.932   3.528   9.616  0.4480  0.2181 -0.8744
  757MOL0     C 2066  10.803   3.562   9.649 -0.2453 -0.6897 -0.1346
  757MOL0     C 2067  10.709   3.567   9.552  0.6305 -0.5231 -0.1375
  757MOL0     O 2068  10.578   3.591   9.590  0.2031 -0.7506 -0.5712
  757MOL0     C 2069  10.475   3.492   9.552  0.8448  0.1413 -1.2657
  757MOL0     C 2070  10.351   3.580   9.532 -1.0389 -0.0436 -0.2099
  757MOL0     C 2071  10.225   3.492   9.526  0.1019 -0.5627 -0.2152
  757MOL0     C 2072  10.111   3.578   9.463  0.7990  0.2915 -0.2789
  757MOL0     C 2073   9.987   3.491   9.441 -0.1305 -0.0843  0.7231
  757MOL0     C 2074  10.009   3.385   9.325 -0.1991  1.1683  0.0746
  757MOL0     C 2075  10.035   3.437   9.184  0.3510  0.5163 -1.1481
  757MOL0     C 2076   9.916   3.516   9.142  0.6031  0.4018  0.0063
  757MOL0     N 2077   9.894   3.479   9.002 -0.2961  0.0102 -0.4368
  757MOL0     C 2078   9.982   3.506   8.897 -1.2310  0.1865  0.4028
  757MOL0     C 2079   9.912   3.467   8.784 -0.8976 -0.0159 -0.2256
  757MOL0     C 2080   9.967   3.460   8.640 -0.1052  1.0016 -0.1193
  757MOL0     C 2081   9.870   3.510   8.545  0.5909  0.9189 -0.1021
  757MOL0     C 2082   9.921   3.530   8.401 -0.3428 -0.7897  0.7730
  757MOL0     C 2083   9.808   3.579   8.313 -0.4380  0.0765  0.0648
  757MOL0     O 2084   9.710   3.473   8.290 -1.0613 -0.3642  0.1846
  757MOL0     C 2085   9.717   3.380   8.186  0.4374  0.4726  0.2567
  757MOL0     C 2086   9.603   3.312   8.171  0.0437  0.2435 -0.0356
  757MOL0     C 2087   9.600   3.200   8.087 -0.6212  0.3383  0.3310
  757MOL0     C 2088   9.470   3.116   8.069  0.1852  0.0597  0.2215
  757MOL0     C 2089   9.716   3.170   7.999  0.6467 -0.0758 -0.4987
  757MOL0     C 2090   9.713   3.059   7.904 -0.4845 -0.5358 -0.1758
  757MOL0     O 2091   9.780   3.088   7.797  0.3952 -0.0330 -0.1067
  757MOL0     C 2092   9.818   2.997   7.697  0.7342  0.5048  0.4614
  757MOL0     C 2093   9.878   3.061   7.591  0.1721 -0.2769  0.0763
  757MOL0     C 2094   9.927   3.001   7.475  0.4245  0.1712 -0.0698
  757MOL0     C 2095   9.941   2.862   7.470  0.6776 -0.4501 -0.9554
  757MOL0     O 2096   9.991   2.783   7.365  0.1869 -0.4441 -0.3541
  757MOL0     C 2097  10.103   2.843   7.297  0.3465  0.6154  0.5098
  757MOL0     C 2098  10.179   2.732   7.237  0.0067  0.4798  0.2512
  757MOL0     C 2099  10.226   2.620   7.330 -0.2726 -0.3611  1.4259
  757MOL0     C 2100  10.317   2.658   7.439  0.0223 -0.7243 -0.1472
  757MOL0     C 2101  10.362   2.540   7.516 -0.5580  0.2137  0.2874
  757MOL0     C 2102  10.499   2.491   7.468 -0.0661  0.1128 -0.3776
  757MOL0     C 2103  10.517   2.342   7.510 -0.3689  1.2996  0.6637
  757MOL0     C 2104  10.663   2.307   7.554  0.5870  0.3564 -0.1267
  757MOL0    Cl 2105  10.754   2.328   7.401  0.0733 -0.2724 -0.6388
  757MOL0     C 2106   9.868   2.791   7.573 -0.3665 -0.3158 -0.0019
  757MOL0     C 2107   9.801   2.855   7.683 -0.1279 -0.0669  0.4955
  757MOL0     O 2108   9.652   2.949   7.922  0.5405  0.0824 -0.1404
  757MOL0     C 2109   9.825   3.256   8.013  0.2551 -0.1871  0.3041
  757MOL0     C 2110   9.829   3.363   8.096 -0.3884  0.6042 -0.3752
  757MOL0     N 2111   9.784   3.439   8.816 -0.1264  0.6287 -0.1642
  757MOL0     N 2112   9.769   3.445   8.941 -0.6999 -0.7161 -0.1503
  757MOL0     C 2113  10.748   3.583   9.421  0.0350 -0.0425  0.6655
  757MOL0     C 2114  10.883   3.568   9.389  0.8215 -0.6241 -0.3839
  757MOL0     C 2115  11.330   3.557   9.433 -0.3494  0.0818  0.3726
  757MOL0     C 2116  11.361   3.420   9.392  0.5687 -0.4373  0.2562
  757MOL0     C 2117  11.481   3.381   9.364  0.0483 -0.0528 -0.3752
  757MOL0     C 2118  11.588   3.470   9.368  0.1698  0.4271 -1.1090
  757MOL0     O 2119  11.721   3.439   9.360  0.7349 -0.1942  0.7050
  757MOL0     C 2120  11.765   3.317   9.295 -0.5882  0.5292  0.1418
  757MOL0     C 2121  11.828   3.212   9.394  0.5763 -0.0989  0.5136
  757MOL0     C 2122  11.723   3.164   9.501  0.5260  0.1815 -0.7333
  757MOL0     C 2123  11.640   3.055   9.444 -0.8231  0.0233 -0.5026
  757MOL0     C 2124  11.709   2.928   9.464 -0.1905 -0.1019  0.2346
  757MOL0     C 2125  11.768   2.820   9.480 -0.2641  0.3154  0.2806
  757MOL0     C 2126  11.565   3.602   9.393  0.0250  0.2882 -0.2446
  757MOL0     C 2127  11.435   3.643   9.431  1.3223 -1.9938  0.1389
  757MOL0     H 2128  11.004   3.534   9.697 -1.5060  0.3243  0.9559
  757MOL0     H 2129  10.778   3.589   9.752  2.5264  1.8791 -0.0048
  757MOL0     H 2130  10.497   3.445   9.456  0.5668 -1.0367 -0.7751
  757MOL0     H 2131  10.468   3.414   9.629  1.9567  1.3659  0.1483
  757MOL0     H 2132  10.349   3.653   9.614  0.4982 -1.6814  1.3785
  757MOL0     H 2133  10.367   3.636   9.439 -0.1675 -1.6983 -1.1012
  757MOL0     H 2134  10.256   3.402   9.473 -0.1846 -1.9163  1.7762
  757MOL0     H 2135  10.187   3.466   9.626 -2.3191  0.3118 -0.8475
  757MOL0     H 2136  10.075   3.661   9.526 -1.0258 -1.5018  1.1691
  757MOL0     H 2137  10.149   3.637   9.379  3.4784  0.7762  1.1397
  757MOL0     H 2138   9.949   3.441   9.531 -3.1480  1.1137  0.2328
  757MOL0     H 2139   9.904   3.556   9.412  0.3767 -0.8834 -3.0103
  757MOL0     H 2140  10.092   3.318   9.351 -2.6335 -1.5352  1.3873
  757MOL0     H 2141   9.921   3.320   9.323  1.4617 -1.2245 -1.0714
  757MOL0     H 2142  10.112   3.514   9.176 -1.4938  2.5001 -0.8593
  757MOL0     H 2143  10.049   3.352   9.116  0.5213 -0.1569 -0.2858
  757MOL0     H 2144   9.935   3.623   9.152 -2.0180  0.8227  1.0011
  757MOL0     H 2145   9.820   3.499   9.191  1.3781 -0.2731  1.3237
  757MOL0     H 2146  10.083   3.546   8.897 -1.5753  1.1308  1.9233
  757MOL0     H 2147  10.062   3.515   8.631  1.2733 -1.5085 -2.5281
  757MOL0     H 2148   9.978   3.354   8.615 -0.9268  1.4946 -2.9997
  757MOL0     H 2149   9.835   3.608   8.579  3.5840  1.9368  0.3093
  757MOL0     H 2150   9.782   3.445   8.539  0.7558  0.6229  0.5330
  757MOL0     H 2151   9.975   3.442   8.366 -0.2010 -0.5458  0.3691
  757MOL0     H 2152   9.996   3.610   8.398 -0.3404 -0.5817  3.5438
  757MOL0     H 2153   9.837   3.618   8.216 -3.0696  2.0086 -0.0498
  757MOL0     H 2154   9.760   3.655   8.375  3.7271  1.7563  1.5428
  757MOL0     H 2155   9.522   3.339   8.237  0.6807  2.1188  0.0615
  757MOL0     H 2156   9.433   3.141   7.969 -1.4274 -0.7244  0.5945
  757MOL0     H 2157   9.499   3.011   8.076  1.9412  0.4996  0.1337
  757MOL0     H 2158   9.390   3.143   8.138  0.7532 -3.1676  2.3482
  757MOL0     H 2159   9.876   3.168   7.607 -0.8461  0.3306 -3.2521
  757MOL0     H 2160   9.964   3.057   7.389 -0.3975 -2.9105 -2.6336
  757MOL0     H 2161  10.061   2.902   7.216  2.7120 -0.3373 -1.5242
  757MOL0     H 2162  10.166   2.899   7.367  2.0990 -1.6613  0.8691
  757MOL0     H 2163  10.110   2.690   7.162  1.0437  0.2239 -0.5874
  757MOL0     H 2164  10.263   2.771   7.179 -0.5515 -0.9805 -1.6792
  757MOL0     H 2165  10.275   2.539   7.274  0.8708 -0.1279  2.0586
  757MOL0     H 2166  10.132   2.581   7.370 -1.3523  0.4090 -0.2704
  757MOL0     H 2167  10.408   2.714   7.417  0.5109  0.5961  4.2571
  757MOL0     H 2168  10.263   2.734   7.496  2.7909 -0.2585  2.0547
  757MOL0     H 2169  10.289   2.459   7.520 -0.0418 -0.3915 -1.5678
  757MOL0     H 2170  10.373   2.586   7.615  0.2696  0.4836  0.0797
  757MOL0     H 2171  10.512   2.486   7.359  2.8829 -1.0749 -0.0717
  757MOL0     H 2172  10.577   2.557   7.507  1.6927 -1.9672 -0.1524
  757MOL0     H 2173  10.480   2.280   7.428  0.3304  0.2950  1.0934
  757MOL0     H 2174  10.453   2.311   7.593  3.2658 -1.1747  2.7592
  757MOL0     H 2175  10.671   2.209   7.602 -1.9389  0.8753  1.5832
  757MOL0     H 2176  10.688   2.384   7.628 -0.3302 -0.5672  1.1968
  757MOL0     H 2177   9.856   2.683   7.576 -3.3981 -0.0497  1.7714
  757MOL0     H 2178   9.756   2.801   7.766 -1.3646 -0.5253 -0.4440
  757MOL0     H 2179   9.897   3.240   7.932 -1.4829 -0.8161 -1.1954
  757MOL0     H 2180   9.912   3.433   8.103  0.6177 -0.6071  5.3139
  757MOL0     H 2181  10.678   3.622   9.348  0.6743  3.2826  1.6505
  757MOL0     H 2182  10.914   3.569   9.285 -0.4881  0.5856 -0.7986
  757MOL0     H 2183  11.290   3.339   9.400 -0.6827 -0.0307 -3.9306
  757MOL0     H 2184  11.496   3.275   9.345 -1.6626 -0.5089  0.6578
  757MOL0     H 2185  11.687   3.273   9.233  0.1502  1.1301 -1.2629
  757MOL0     H 2186  11.845   3.344   9.226 -2.0795  3.5397 -0.5770
  757MOL0     H 2187  11.917   3.252   9.443  0.2689  2.6380 -0.9584
  757MOL0     H 2188  11.858   3.126   9.335  1.4340 -0.9152  2.0810
  757MOL0     H 2189  11.657   3.250   9.520  2.7566  1.5400  1.4464
  757MOL0     H 2190  11.774   3.130   9.592 -1.6575 -0.5206  0.3099
  757MOL0     H 2191  11.608   3.067   9.341 -1.5898 -1.8158 -0.5119
  757MOL0     H 2192  11.556   3.052   9.514 -0.2814 -0.0389  0.1546
  757MOL0     H 2193  11.816   2.730   9.512  0.8151  0.5032 -0.7240
  757MOL0     H 2194  11.650   3.667   9.374  1.6257 -1.4978  0.4815
  757MOL0     H 2195  11.406   3.746   9.448  0.8419 -2.1181  0.0952
  758MOL0     O 2196   8.467  10.054   7.509 -0.2602  0.0309  0.4986
  758MOL0     C 2197   8.396   9.985   7.430  0.6028 -0.7981  1.0912
  758MOL0     O 2198   8.448   9.923   7.319  0.4181 -0.5692  0.6056
  758MOL0     C 2199   8.549   9.983   7.261  0.0768  0.0324 -0.0762
  758MOL0     C 2200   8.681   9.930   7.255 -0.0676 -0.2319  0.2936
  758MOL0     C 2201   8.790  10.000   7.199  0.9494 -1.3700  0.6105
  758MOL0     C 2202   8.764  10.124   7.137 -0.1947  1.0339  0.1575
  758MOL0     O 2203   8.860  10.198   7.074  0.7557 -0.5924 -0.1788
  758MOL0     C 2204   8.975  10.235   7.157 -0.8602  0.4130  0.8222
  758MOL0     C 2205   9.110  10.197   7.092 -0.7035 -0.0344 -0.1997
  758MOL0     C 2206   9.229  10.244   7.174 -0.8641  0.6618 -0.7658
  758MOL0     C 2207   9.357  10.196   7.113 -0.3692 -0.4200  0.1447
  758MOL0     C 2208   9.480  10.244   7.207  1.1660 -0.3421  0.5673
  758MOL0     C 2209   9.616  10.203   7.148 -0.3651  0.3138 -0.1505
  758MOL0     C 2210   9.726  10.187   7.263 -0.0847  0.2074  0.1875
  758MOL0     C 2211   9.871  10.159   7.226 -0.4260  0.7169  0.1910
  758MOL0     N 2212   9.894  10.023   7.191 -0.0973 -0.2642  0.2952
  758MOL0     C 2213   9.847   9.956   7.082 -0.3673  0.0953  0.8350
  758MOL0     C 2214   9.886   9.829   7.100 -0.0239  0.3073 -0.0413
  758MOL0     C 2215   9.864   9.718   7.009 -0.3698  0.5887 -0.3157
  758MOL0     C 2216   9.724   9.689   6.957  0.3946 -0.0054  0.2138
  758MOL0     C 2217   9.618   9.659   7.066 -0.2551  0.0878 -0.5894
  758MOL0     C 2218   9.498   9.593   7.010  0.3989  0.0592 -0.5037
  758MOL0     O 2219   9.436   9.687   6.920  0.3281 -0.4170  0.1067
  758MOL0     C 2220   9.302   9.678   6.902  0.8373  0.3949  0.2931
  758MOL0     C 2221   9.240   9.790   6.868  0.7923 -0.4897 -0.4945
  758MOL0     C 2222   9.101   9.801   6.870  0.6776  1.1128 -0.2594
  758MOL0     C 2223   9.050   9.933   6.811 -0.1482  0.1943  0.6079
  758MOL0     C 2224   9.022   9.693   6.914  0.3109  0.6621  0.4564
  758MOL0     C 2225   8.872   9.708   6.923  0.1202 -0.6230 -0.3273
  758MOL0     O 2226   8.813   9.676   7.040  0.0501 -0.5633  0.2343
  758MOL0     C 2227   8.674   9.666   7.056  0.0994  0.2520  1.2789
  758MOL0     C 2228   8.590   9.764   6.996  0.2679  1.2270  0.3712
  758MOL0     C 2229   8.450   9.754   7.016 -0.1283  0.4897  0.4168
  758MOL0     C 2230   8.397   9.651   7.100 -0.3143 -0.2983  0.0139
  758MOL0     O 2231   8.268   9.640   7.128  0.3729  0.3599  0.0020
  758MOL0     C 2232   8.170   9.640   7.023  0.4124  0.2887  0.5750
  758MOL0     C 2233   8.051   9.553   7.070 -0.7740  0.5641 -0.7385
  758MOL0     C 2234   7.939   9.550   6.972  0.3800 -0.3877  1.6043
  758MOL0     C 2235   7.863   9.410   6.986 -1.0670  0.2593  0.0619
  758MOL0     C 2236   7.748   9.393   6.896  0.0610  0.0111 -0.0110
  758MOL0     C 2237   7.702   9.246   6.886 -1.4414  0.1885 -0.3972
  758MOL0     C 2238   7.595   9.220   6.791  0.3497  0.7531  1.0372
  758MOL0     C 2239   7.575   9.068   6.756 -0.2167 -0.4307 -0.2562
  758MOL0    Cl 2240   7.398   9.055   6.712 -0.3055  0.1410 -0.2485
  758MOL0     C 2241   8.485   9.552   7.155 -0.2123 -0.7619 -0.3791
  758MOL0     C 2242   8.621   9.565   7.135 -0.1807  0.2605  0.0405
  758MOL0     O 2243   8.810   9.719   6.821  0.7117  0.3572 -0.1713
  758MOL0     C 2244   9.089   9.575   6.940  1.0459  0.5940 -0.2384
  758MOL0     C 2245   9.223   9.564   6.931 -0.1496 -0.9378 -0.6275
  758MOL0     N 2246   9.963   9.817   7.220  0.4435  0.1459  0.0320
  758MOL0     N 2247   9.966   9.938   7.266  0.6829  0.5360  0.4547
  758MOL0     C 2248   8.637  10.173   7.132 -0.3032  0.0045 -1.0043
  758MOL0     C 2249   8.527  10.111   7.197  0.9883  0.2610  0.5087
  758MOL0     C 2250   8.250   9.979   7.451  0.0932  0.2187  0.4895
  758MOL0     C 2251   8.183  10.071   7.544 -0.9956  0.2417 -0.2632
  758MOL0     C 2252   8.047  10.044   7.563  0.1067  0.4839 -0.1683
  758MOL0     C 2253   7.974   9.948   7.498  0.4708 -0.4983  0.2054
  758MOL0     O 2254   7.843   9.939   7.546 -0.0745  0.8999  0.2589
  758MOL0     C 2255   7.752   9.859   7.478  0.3931 -0.6219 -0.8573
  758MOL0     C 2256   7.642   9.814   7.576  0.1695  0.7403 -0.1245
  758MOL0     C 2257   7.545   9.936   7.607  0.7007  0.1482 -0.1677
  758MOL0     C 2258   7.396   9.897   7.632 -1.0326  1.1592 -0.0050
  758MOL0     C 2259   7.350   9.816   7.520  0.1827  0.4108 -0.7160
  758MOL0     C 2260   7.294   9.753   7.429 -0.1794 -0.9180 -0.5779
  758MOL0     C 2261   8.040   9.872   7.405  0.2250  0.2047 -0.7203
  758MOL0     C 2262   8.176   9.883   7.379  0.8655  0.0653 -0.0450
  758MOL0     H 2263   8.706   9.835   7.300  2.0626  0.6412  1.0778
  758MOL0     H 2264   8.890   9.957   7.204  1.7809  0.0128 -1.8782
  758MOL0     H 2265   8.977  10.344   7.170 -1.7223  0.2706  2.3794
  758MOL0     H 2266   8.978  10.196   7.259  0.8988 -2.8036 -0.3297
  758MOL0     H 2267   9.105  10.088   7.097 -1.4125 -0.0433 -0.9847
  758MOL0     H 2268   9.130  10.236   6.992  1.0326 -3.6753 -1.4376
  758MOL0     H 2269   9.220  10.353   7.180 -0.5148  0.6223  1.7423
  758MOL0     H 2270   9.229  10.206   7.277 -1.5827  1.6161 -0.3958
  758MOL0     H 2271   9.368  10.087   7.107  0.4754 -0.4272  1.3353
  758MOL0     H 2272   9.366  10.234   7.011  1.6185  0.8611  0.7406
  758MOL0     H 2273   9.485  10.352   7.224  0.7073 -0.0171 -1.2136
  758MOL0     H 2274   9.465  10.191   7.302  0.8077  1.6164  1.6714
  758MOL0     H 2275   9.617  10.102   7.105  4.2078  0.9017 -2.0354
  758MOL0     H 2276   9.651  10.266   7.066  2.4722 -1.0007 -0.0532
  758MOL0     H 2277   9.731  10.282   7.316  0.3303  1.3068 -1.7078
  758MOL0     H 2278   9.691  10.117   7.339  2.1802 -1.8828 -0.5895
  758MOL0     H 2279   9.932  10.191   7.310 -0.8658 -2.5447  1.9342
  758MOL0     H 2280   9.896  10.222   7.140  3.4396  2.1427  2.1309
  758MOL0     H 2281   9.790   9.992   6.996 -0.2151  2.0461  1.4929
  758MOL0     H 2282   9.919   9.744   6.918 -1.4424 -0.5791 -1.3436
  758MOL0     H 2283   9.901   9.624   7.050 -0.5321  0.1010 -1.2512
  758MOL0     H 2284   9.730   9.594   6.902  2.2252 -1.8223  3.2567
  758MOL0     H 2285   9.693   9.781   6.907  0.0746 -0.1781  0.0884
  758MOL0     H 2286   9.595   9.751   7.121 -0.9073 -0.3299 -0.1497
  758MOL0     H 2287   9.670   9.590   7.133 -0.1850 -0.5603 -1.2927
  758MOL0     H 2288   9.430   9.554   7.087  3.0285 -4.0985  0.0527
  758MOL0     H 2289   9.531   9.511   6.946 -2.0821 -0.0384 -1.7758
  758MOL0     H 2290   9.289   9.884   6.844  0.0401  0.3410  1.0828
  758MOL0     H 2291   9.102   9.965   6.721 -0.5821  1.1038  0.6664
  758MOL0     H 2292   8.944   9.923   6.784  0.7948  1.1414 -4.4308
  758MOL0     H 2293   9.063  10.004   6.894 -1.9997  0.1247  0.9959
  758MOL0     H 2294   8.631   9.846   6.937 -0.6515  1.5477  0.1590
  758MOL0     H 2295   8.379   9.827   6.977  0.4352  0.2150 -1.2169
  758MOL0     H 2296   8.129   9.740   7.009 -0.7849 -0.2920 -0.2416
  758MOL0     H 2297   8.207   9.605   6.926 -0.1160  3.4606 -0.8924
  758MOL0     H 2298   8.089   9.452   7.090 -0.1423  0.7419 -0.9975
  758MOL0     H 2299   8.014   9.585   7.168 -0.5286 -0.4245 -0.3119
  758MOL0     H 2300   7.981   9.558   6.871 -1.2511 -0.4281  0.8884
  758MOL0     H 2301   7.866   9.630   6.992 -1.9129 -2.3260  1.4290
  758MOL0     H 2302   7.940   9.332   6.978 -1.1531  0.0924  0.7809
  758MOL0     H 2303   7.820   9.422   7.085  0.3747 -0.8442  0.8779
  758MOL0     H 2304   7.778   9.436   6.800 -1.7816  0.5598 -0.3892
  758MOL0     H 2305   7.667   9.451   6.943  0.2694  0.4525 -0.2005
  758MOL0     H 2306   7.788   9.188   6.853 -0.4207  0.4518  1.6773
  758MOL0     H 2307   7.663   9.212   6.982 -2.6523  0.9445 -0.5977
  758MOL0     H 2308   7.607   9.276   6.697  0.6560 -2.9385 -1.3035
  758MOL0     H 2309   7.500   9.256   6.833 -0.4978  0.9996 -0.9463
  758MOL0     H 2310   7.606   8.997   6.833  1.0662 -1.7730 -1.9113
  758MOL0     H 2311   7.629   9.048   6.662 -3.0832  1.2026 -2.3986
  758MOL0     H 2312   8.444   9.480   7.226 -2.2897  2.5555  2.0489
  758MOL0     H 2313   8.679   9.488   7.185  0.0867  0.2097 -0.3413
  758MOL0     H 2314   9.025   9.489   6.957  0.9473  0.1179 -2.6522
  758MOL0     H 2315   9.268   9.465   6.928  3.4203  0.5596 -0.2157
  758MOL0     H 2316   8.634  10.266   7.077 -1.7566  1.2320  1.0244
  758MOL0     H 2317   8.426  10.150   7.187 -0.2989 -2.0384  3.0784
  758MOL0     H 2318   8.238  10.141   7.606  0.5419 -0.1024 -1.2099
  758MOL0     H 2319   8.001  10.118   7.627  0.3997  0.4385  0.0941
  758MOL0     H 2320   7.712   9.917   7.394  0.7440 -0.5308 -0.9629
  758MOL0     H 2321   7.805   9.770   7.443  0.7066 -0.1116 -1.7162
  758MOL0     H 2322   7.672   9.769   7.671 -0.3651  0.2017 -0.2046
  758MOL0     H 2323   7.588   9.731   7.528 -0.6230 -0.5033  2.6746
  758MOL0     H 2324   7.550  10.005   7.523 -0.5749 -0.1817 -0.5388
  758MOL0     H 2325   7.584   9.992   7.692 -0.9434 -0.4770  1.0645
  758MOL0     H 2326   7.333   9.986   7.637 -1.0277  1.2312 -1.1763
  758MOL0     H 2327   7.404   9.860   7.735  2.0199 -2.8151 -1.3987
  758MOL0     H 2328   7.242   9.712   7.345 -1.5069  0.0374 -0.2698
  758MOL0     H 2329   7.981   9.799   7.351 -1.3245  0.7449  0.1511
  758MOL0     H 2330   8.227   9.813   7.314 -2.3565 -0.6081 -2.0751
  759MOL0     O 2331   4.772   4.230  11.226  0.1894  0.0415 -0.9946
  759MOL0     C 2332   4.857   4.275  11.150 -0.5342 -0.5017  0.1257
  759MOL0     O 2333   4.843   4.381  11.072  0.6242 -0.4559 -0.7222
  759MOL0     C 2334   4.727   4.436  11.037  0.2348 -0.2555  0.4622
  759MOL0     C 2335   4.602   4.371  11.051  1.0135  0.0482 -0.2516
  759MOL0     C 2336   4.495   4.429  10.990 -0.0017  0.3943 -0.2757
  759MOL0     C 2337   4.503   4.549  10.918  0.2682  0.9444 -0.6123
  759MOL0     O 2338   4.401   4.617  10.869  0.0477 -0.5465 -0.0835
  759MOL0     C 2339   4.288   4.609  10.956  0.1059 -0.2226  0.0257
  759MOL0     C 2340   4.187   4.711  10.897 -0.9414  0.0241 -0.7526
  759MOL0     C 2341   4.106   4.661  10.775 -0.2820 -0.1809  0.1028
  759MOL0     C 2342   4.014   4.770  10.722  0.4120  0.2663 -0.0297
  759MOL0     C 2343   3.911   4.725  10.613  0.2725 -0.3736  0.1184
  759MOL0     C 2344   3.816   4.835  10.561 -0.4419  0.0939  0.3955
  759MOL0     C 2345   3.752   4.789  10.428 -0.7408  0.6068  0.1433
  759MOL0     C 2346   3.664   4.906  10.368  0.8940  0.9764 -0.7742
  759MOL0     N 2347   3.530   4.900  10.435 -0.6221  0.2214 -0.7314
  759MOL0     C 2348   3.425   4.846  10.376  0.5509  0.9637 -0.2587
  759MOL0     C 2349   3.314   4.914  10.427 -0.6227  0.0614 -0.1445
  759MOL0     C 2350   3.165   4.884  10.403  0.0919 -0.5045  0.6820
  759MOL0     C 2351   3.103   4.986  10.306 -0.6313  0.2122  0.5856
  759MOL0     C 2352   3.099   5.127  10.363  0.6904 -0.3037  0.4959
  759MOL0     C 2353   2.980   5.160  10.456  0.0369 -0.1699  0.7153
  759MOL0     O 2354   2.999   5.297  10.483  0.4830  0.3226  0.2493
  759MOL0     C 2355   2.895   5.353  10.554  0.3122  0.0806  0.7254
  759MOL0     C 2356   2.917   5.487  10.599  0.5998  0.1527 -0.6068
  759MOL0     C 2357   2.816   5.557  10.676 -0.6640  0.1398  0.4695
  759MOL0     C 2358   2.861   5.695  10.714  0.1495 -0.1110  0.1389
  759MOL0     C 2359   2.697   5.492  10.707  0.0275  0.1043 -0.2547
  759MOL0     C 2360   2.594   5.570  10.790 -0.2097 -0.9349 -0.1147
  759MOL0     O 2361   2.468   5.535  10.759 -0.1695  0.4090 -0.3689
  759MOL0     C 2362   2.366   5.628  10.799 -0.0233  0.5530  1.0402
  759MOL0     C 2363   2.339   5.632  10.934  0.1001  0.8196  0.2383
  759MOL0     C 2364   2.257   5.734  10.987 -0.6053 -0.1965  0.7449
  759MOL0     C 2365   2.189   5.815  10.904 -0.7997  0.3488  0.1774
  759MOL0     O 2366   2.093   5.907  10.947 -0.2494  0.6076  0.3724
  759MOL0     C 2367   2.027   5.888  11.074  0.7022 -0.0230  0.4554
  759MOL0     C 2368   1.882   5.937  11.078 -0.5514  0.8148 -0.3233
  759MOL0     C 2369   1.785   5.881  10.985 -0.2662  0.1389  0.5785
  759MOL0     C 2370   1.735   5.746  11.027 -0.1348  0.2693  0.1823
  759MOL0     C 2371   1.597   5.723  10.974  0.2757 -0.4860 -0.2293
  759MOL0     C 2372   1.583   5.724  10.819 -0.6662 -0.2558  0.8304
  759MOL0     C 2373   1.440   5.680  10.777  0.0125  0.7006  0.7355
  759MOL0     C 2374   1.338   5.798  10.805 -0.0201  0.1326  0.0223
  759MOL0    Cl 2375   1.197   5.761  10.712  0.1274  0.3539  0.4187
  759MOL0     C 2376   2.213   5.805  10.771  1.1408 -0.3835 -0.1748
  759MOL0     C 2377   2.303   5.719  10.711  0.8652 -0.3242  0.5247
  759MOL0     O 2378   2.629   5.657  10.875 -0.1425  0.0290 -0.7601
  759MOL0     C 2379   2.681   5.362  10.662  1.4696  0.6611  0.0796
  759MOL0     C 2380   2.769   5.297  10.577 -0.4163 -0.2406  0.5099
  759MOL0     N 2381   3.360   4.989  10.524  0.3100  0.4365 -0.2709
  759MOL0     N 2382   3.484   4.977  10.538 -0.1125  0.0570  0.1046
  759MOL0     C 2383   4.625   4.608  10.913 -0.0398  0.0571 -0.5298
  759MOL0     C 2384   4.742   4.560  10.962  0.2493 -0.1207 -0.0490
  759MOL0     C 2385   4.985   4.212  11.173  0.7502  0.2181  0.5908
  759MOL0     C 2386   5.108   4.280  11.143 -0.3757 -0.3878 -0.6076
  759MOL0     C 2387   5.226   4.230  11.183  0.7115 -0.4138 -0.0850
  759MOL0     C 2388   5.241   4.104  11.240  0.5761  0.0885 -0.1643
  759MOL0     O 2389   5.373   4.061  11.275 -1.0367 -0.4166  0.5587
  759MOL0     C 2390   5.395   3.928  11.300 -0.5622  0.1535  0.4271
  759MOL0     C 2391   5.408   3.838  11.167 -0.0091 -0.4979  0.4106
  759MOL0     C 2392   5.524   3.867  11.083  0.2141 -1.1121  0.7162
  759MOL0     C 2393   5.653   3.812  11.157  0.2695 -0.3108  0.3271
  759MOL0     C 2394   5.652   3.671  11.179  0.6994  0.6876 -0.1069
  759MOL0     C 2395   5.659   3.550  11.210 -0.5625 -0.3254 -0.4338
  759MOL0     C 2396   5.125   4.024  11.252  1.8320  0.1678  0.2409
  759MOL0     C 2397   5.001   4.081  11.230 -0.2722  0.4773 -0.8866
  759MOL0     H 2398   4.586   4.271  11.090  1.6393 -0.3491 -0.9872
  759MOL0     H 2399   4.403   4.372  11.001  0.1391  0.4004  1.0670
  759MOL0     H 2400   4.248   4.508  10.944  2.2721 -0.9805 -1.3320
  759MOL0     H 2401   4.313   4.641  11.058 -1.6922  1.5386 -0.0227
  759MOL0     H 2402   4.112   4.729  10.975 -1.1512  3.0059 -1.5052
  759MOL0     H 2403   4.232   4.811  10.886 -0.5344 -0.2921 -2.0803
  759MOL0     H 2404   4.177   4.632  10.697 -1.2055 -2.7533  0.1503
  759MOL0     H 2405   4.044   4.574  10.797 -2.7957  1.6136  0.4915
  759MOL0     H 2406   3.955   4.810  10.805  2.8120  1.5287  1.1871
  759MOL0     H 2407   4.072   4.861  10.706 -1.8015  1.9246  0.7690
  759MOL0     H 2408   3.966   4.674  10.533  1.3970  0.8324  0.0792
  759MOL0     H 2409   3.849   4.647  10.656 -1.7273  0.6828 -0.7202
  759MOL0     H 2410   3.738   4.860  10.633  1.6386  0.3812  2.6987
  759MOL0     H 2411   3.871   4.929  10.550 -1.0682  0.3398 -0.8989
  759MOL0     H 2412   3.837   4.777  10.361  0.4599  3.2700  1.0254
  759MOL0     H 2413   3.694   4.698  10.445 -0.0414  0.0684 -0.3443
  759MOL0     H 2414   3.658   4.890  10.260  1.7976  0.3316 -0.7467
  759MOL0     H 2415   3.703   5.005  10.395 -1.1525  1.5849  0.1182
  759MOL0     H 2416   3.432   4.776  10.293  3.5601 -3.0456  2.9924
  759MOL0     H 2417   3.162   4.788  10.351  1.3741 -1.7279  2.7239
  759MOL0     H 2418   3.109   4.870  10.496 -0.2979 -2.5085  0.1824
  759MOL0     H 2419   2.998   4.957  10.293 -0.1981 -1.1145 -0.1833
  759MOL0     H 2420   3.161   4.999  10.215 -0.6988  0.8619  0.6305
  759MOL0     H 2421   3.087   5.191  10.275  1.4040 -1.6659 -0.6309
  759MOL0     H 2422   3.195   5.157  10.406  1.3594  1.1833 -1.8581
  759MOL0     H 2423   2.974   5.096  10.545 -1.1844 -0.4896  0.4192
  759MOL0     H 2424   2.895   5.145  10.389  1.2617 -0.8923 -0.7265
  759MOL0     H 2425   3.016   5.531  10.595  0.5883  0.0933 -1.9948
  759MOL0     H 2426   2.954   5.717  10.662 -1.1994 -2.3436 -3.6438
  759MOL0     H 2427   2.792   5.775  10.686  1.9249  1.0606 -1.1016
  759MOL0     H 2428   2.881   5.700  10.822 -4.0274 -0.2738  1.0855
  759MOL0     H 2429   2.396   5.553  10.982  1.2750  0.8634 -1.0301
  759MOL0     H 2430   2.245   5.731  11.095 -0.2324 -1.6811  0.7636
  759MOL0     H 2431   2.022   5.780  11.092  0.1116 -0.2792 -1.0779
  759MOL0     H 2432   2.088   5.940  11.148  2.4182 -0.1006 -0.8472
  759MOL0     H 2433   1.838   5.938  11.178  0.4296 -0.0976  0.1448
  759MOL0     H 2434   1.872   6.045  11.064 -0.0796  0.6313 -2.4058
  759MOL0     H 2435   1.808   5.880  10.878 -2.0131  2.6119  0.1034
  759MOL0     H 2436   1.703   5.953  10.998 -1.7080 -0.4072 -3.7443
  759MOL0     H 2437   1.799   5.670  10.982  0.1709  1.3820 -1.3667
  759MOL0     H 2438   1.737   5.719  11.133 -0.5267 -2.0746 -0.3441
  759MOL0     H 2439   1.529   5.803  11.005 -0.9290 -2.1444  1.6103
  759MOL0     H 2440   1.565   5.627  11.015  0.8888 -0.3066  0.6972
  759MOL0     H 2441   1.610   5.822  10.778 -1.5478 -2.0373 -4.8563
  759MOL0     H 2442   1.661   5.662  10.772 -1.6506  0.3222 -1.7441
  759MOL0     H 2443   1.417   5.591  10.835  0.5008 -0.8387 -1.3301
  759MOL0     H 2444   1.449   5.667  10.669 -1.0481  3.8997  0.1568
  759MOL0     H 2445   1.376   5.897  10.778  0.1518 -0.1955 -0.9719
  759MOL0     H 2446   1.314   5.806  10.911 -1.3468 -0.8834 -0.1701
  759MOL0     H 2447   2.154   5.869  10.707 -0.9927  0.6554  2.6281
  759MOL0     H 2448   2.330   5.726  10.606 -0.2017  1.5602  0.3328
  759MOL0     H 2449   2.584   5.317  10.677  0.7688  1.9237 -0.5673
  759MOL0     H 2450   2.754   5.191  10.562 -1.2573 -0.3496  1.9216
  759MOL0     H 2451   4.630   4.706  10.866  0.5436  1.2187  1.7943
  759MOL0     H 2452   4.831   4.621  10.957  0.8813 -0.7359  2.2965
  759MOL0     H 2453   5.102   4.379  11.099 -2.3261  0.2852  1.0329
  759MOL0     H 2454   5.320   4.279  11.162  0.7560 -0.4241  0.0923
  759MOL0     H 2455   5.472   3.912  11.375 -0.5986 -0.3806  0.3573
  759MOL0     H 2456   5.315   3.889  11.364 -0.0929  0.2035  1.0462
  759MOL0     H 2457   5.308   3.854  11.126 -0.5852  0.2891  2.0287
  759MOL0     H 2458   5.413   3.735  11.203  0.3924 -1.3619 -1.9568
  759MOL0     H 2459   5.527   3.972  11.054  3.1589 -0.7479  2.0741
  759MOL0     H 2460   5.509   3.822  10.984  0.9841 -1.1024  0.5944
  759MOL0     H 2461   5.653   3.870  11.250 -2.5044 -1.0654  0.8895
  759MOL0     H 2462   5.735   3.842  11.091 -1.3234 -0.0107 -1.6004
  759MOL0     H 2463   5.653   3.446  11.233 -2.5266  0.2062  1.8589
  759MOL0     H 2464   5.122   3.924  11.294 -1.9113 -0.0555 -0.2123
  759MOL0     H 2465   4.908   4.029  11.252  0.2106 -0.3802 -0.8314
  760MOL0     O 2466   0.063   4.677   9.393  0.2955 -0.3705  0.0607
  760MOL0     C 2467   0.129   4.724   9.484  0.1651  0.0710 -0.0420
  760MOL0     O 2468   0.112   4.850   9.542 -0.3938  0.2035 -0.6436
  760MOL0     C 2469   0.005   4.928   9.508 -0.4399  0.0628 -0.4846
  760MOL0     C 2470  -0.030   4.950   9.378  0.4121  0.0779 -0.4871
  760MOL0     C 2471  -0.144   5.031   9.345 -0.1495  0.2984 -0.4769
  760MOL0     C 2472  -0.225   5.074   9.452  0.5557 -0.1766 -0.2662
  760MOL0     O 2473  -0.351   5.134   9.430 -0.6000  0.2083 -0.7048
  760MOL0     C 2474  -0.379   5.220   9.329  0.7136 -0.4471 -0.1494
  760MOL0     C 2475  -0.468   5.339   9.373 -0.9532  0.7996  1.1205
  760MOL0     C 2476  -0.615   5.345   9.329  0.4897  1.0615  0.4430
  760MOL0     C 2477  -0.639   5.339   9.178  0.2008  0.1781 -0.0843
  760MOL0     C 2478  -0.778   5.400   9.147  0.2811  0.6840 -1.1089
  760MOL0     C 2479  -0.793   5.406   8.998  0.6720 -0.4150 -0.1938
  760MOL0     C 2480  -0.944   5.433   8.977 -0.0309  0.8291  0.1197
  760MOL0     C 2481  -0.965   5.477   8.838  0.0753 -0.0101 -0.2564
  760MOL0     N 2482  -1.109   5.448   8.793 -0.5206  0.6288 -0.0874
  760MOL0     C 2483  -1.216   5.471   8.876  0.4174 -0.2430  0.4251
  760MOL0     C 2484  -1.328   5.454   8.804 -0.1634  0.0361  0.3614
  760MOL0     C 2485  -1.471   5.485   8.846  0.0261 -0.2982 -0.3153
  760MOL0     C 2486  -1.508   5.635   8.817 -0.1536  0.0416 -0.4421
  760MOL0     C 2487  -1.646   5.689   8.859 -0.4721  1.0897  0.4278
  760MOL0     C 2488  -1.763   5.626   8.791 -0.1625  0.3473  0.0331
  760MOL0     O 2489  -1.777   5.501   8.854  0.3396 -0.7887 -0.6058
  760MOL0     C 2490  -1.875   5.412   8.815 -0.5703 -0.3607 -0.0031
  760MOL0     C 2491  -1.953   5.446   8.697 -0.1817  0.0591  0.1147
  760MOL0     C 2492  -2.038   5.344   8.643 -0.8427 -0.1410  0.3572
  760MOL0     C 2493  -2.086   5.365   8.499  0.1923  0.1011  0.1442
  760MOL0     C 2494  -2.059   5.220   8.711 -1.4038 -0.3079 -0.4136
  760MOL0     C 2495  -2.162   5.115   8.668 -1.0657 -0.1598 -0.0084
  760MOL0     O 2496  -2.248   5.145   8.562  0.6257  0.6226 -0.0039
  760MOL0     C 2497  -2.341   5.049   8.524 -0.2579 -0.4090  0.1803
  760MOL0     C 2498  -2.337   4.911   8.533 -0.1129  0.1044 -0.4805
  760MOL0     C 2499  -2.456   4.835   8.512 -0.5574  0.4242  0.9926
  760MOL0     C 2500  -2.582   4.897   8.487  0.3084 -0.5669  0.0266
  760MOL0     O 2501  -2.706   4.825   8.482  0.3076  0.5760  0.3174
  760MOL0     C 2502  -2.701   4.685   8.469 -0.1388 -0.5960 -0.0313
  760MOL0     C 2503  -2.835   4.613   8.483  0.6514 -0.3402 -0.6805
  760MOL0     C 2504  -2.946   4.654   8.384 -0.2616 -0.9360 -0.2130
  760MOL0     C 2505  -3.072   4.574   8.403  0.5548 -0.9828  0.0763
  760MOL0     C 2506  -3.154   4.623   8.522 -0.0808 -0.4161  0.0693
  760MOL0     C 2507  -3.294   4.561   8.519  0.5547  0.5469 -0.0650
  760MOL0     C 2508  -3.393   4.639   8.594 -0.6157  0.1077 -0.5267
  760MOL0     C 2509  -3.544   4.616   8.577  1.0412  0.7373 -0.0407
  760MOL0    Cl 2510  -3.599   4.669   8.421  0.3868 -0.1545 -0.0615
  760MOL0     C 2511  -2.586   5.033   8.483 -0.4849 -0.9071 -0.6084
  760MOL0     C 2512  -2.466   5.113   8.496 -0.8901 -0.7181 -0.1568
  760MOL0     O 2513  -2.165   5.010   8.733  0.0045 -0.5287 -0.1194
  760MOL0     C 2514  -1.982   5.198   8.834  0.7070  0.1961  0.1591
  760MOL0     C 2515  -1.897   5.294   8.885 -0.3644  0.0415 -0.7108
  760MOL0     N 2516  -1.280   5.389   8.684  0.4530 -0.2798 -0.0812
  760MOL0     N 2517  -1.152   5.381   8.682  0.3807 -0.1841  0.5789
  760MOL0     C 2518  -0.188   5.048   9.588  0.2605 -0.5706  1.1110
  760MOL0     C 2519  -0.071   4.980   9.618 -0.3150 -0.8636  0.1879
  760MOL0     C 2520   0.249   4.661   9.535  0.6854  0.2862 -0.3056
  760MOL0     C 2521   0.310   4.708   9.655 -0.2550  0.5088 -0.0127
  760MOL0     C 2522   0.425   4.642   9.694  0.5186 -1.1271 -0.0116
  760MOL0     C 2523   0.488   4.547   9.618  0.0940 -0.1912  0.5728
  760MOL0     O 2524   0.598   4.493   9.678 -0.6017 -0.4163 -0.6592
  760MOL0     C 2525   0.680   4.394   9.607  0.3980 -0.2820  0.3805
  760MOL0     C 2526   0.795   4.346   9.686 -0.3022  0.1805 -0.0495
  760MOL0     C 2527   0.919   4.434   9.693 -0.1489  0.6675  0.3955
  760MOL0     C 2528   1.004   4.433   9.569 -0.2955 -0.2233  0.7761
  760MOL0     C 2529   1.091   4.310   9.549  0.9374 -0.7363 -0.2233
  760MOL0     C 2530   1.163   4.220   9.521  0.5725  0.6357  0.1633
  760MOL0     C 2531   0.444   4.509   9.490 -0.3537 -0.4759 -0.1940
  760MOL0     C 2532   0.320   4.567   9.451  0.0144  0.1609 -0.3769
  760MOL0     H 2533   0.030   4.905   9.299  0.8165 -1.1999  0.5345
  760MOL0     H 2534  -0.194   5.040   9.249  0.0367  0.3270 -0.5726
  760MOL0     H 2535  -0.288   5.257   9.281  0.2135 -0.5035 -1.1645
  760MOL0     H 2536  -0.442   5.161   9.261  0.0469 -4.7765  3.6968
  760MOL0     H 2537  -0.470   5.344   9.482  3.1837 -0.8418  1.4615
  760MOL0     H 2538  -0.418   5.432   9.344  1.9162 -0.8114  0.4961
  760MOL0     H 2539  -0.653   5.249   9.364  1.7571  0.7022  0.8655
  760MOL0     H 2540  -0.667   5.431   9.373 -1.8165 -0.3515  0.6459
  760MOL0     H 2541  -0.563   5.395   9.122  0.2841  2.0069  1.7298
  760MOL0     H 2542  -0.632   5.235   9.144  0.1418 -0.1112  0.7571
  760MOL0     H 2543  -0.862   5.349   9.195 -2.2544  1.3180 -4.4760
  760MOL0     H 2544  -0.772   5.504   9.179  1.2572  0.2126  0.3605
  760MOL0     H 2545  -0.723   5.477   8.951 -0.1931  0.7264  0.2051
  760MOL0     H 2546  -0.767   5.307   8.958 -1.1757 -0.9875 -0.0365
  760MOL0     H 2547  -0.994   5.337   8.992  1.0433  0.1264 -0.6379
  760MOL0     H 2548  -0.980   5.504   9.052  0.8602 -0.4357  1.8091
  760MOL0     H 2549  -0.896   5.427   8.769  0.9075 -1.4731  1.5533
  760MOL0     H 2550  -0.945   5.584   8.825 -2.2973  0.7523  1.5651
  760MOL0     H 2551  -1.219   5.525   8.969 -0.0429 -0.8123  0.7476
  760MOL0     H 2552  -1.534   5.411   8.796  0.2875 -0.5806 -0.2325
  760MOL0     H 2553  -1.483   5.465   8.953 -1.2090  1.0987 -0.1626
  760MOL0     H 2554  -1.495   5.666   8.713 -0.2714  1.7138  0.0284
  760MOL0     H 2555  -1.441   5.692   8.882  0.6708 -2.8123  1.4581
  760MOL0     H 2556  -1.646   5.796   8.835  1.3463  0.8061 -1.0109
  760MOL0     H 2557  -1.661   5.677   8.967 -1.2740 -0.4806  0.1674
  760MOL0     H 2558  -1.736   5.608   8.686  0.5122  0.8608  0.1109
  760MOL0     H 2559  -1.851   5.690   8.801 -0.4778 -0.3799  2.5852
  760MOL0     H 2560  -1.939   5.535   8.637  1.5650  0.3691  0.9351
  760MOL0     H 2561  -2.053   5.465   8.470 -1.3395  2.1860  4.7390
  760MOL0     H 2562  -2.047   5.286   8.434 -2.0448 -0.6138 -0.4153
  760MOL0     H 2563  -2.194   5.378   8.492  0.5453  3.9265 -0.7483
  760MOL0     H 2564  -2.247   4.852   8.549  0.5946  0.9449 -1.2452
  760MOL0     H 2565  -2.445   4.727   8.513 -0.4743  0.4318  0.7732
  760MOL0     H 2566  -2.655   4.651   8.376 -0.4762 -1.6574  0.1719
  760MOL0     H 2567  -2.653   4.626   8.547 -2.8133 -1.4512  1.0668
  760MOL0     H 2568  -2.827   4.504   8.480  0.6327 -0.3942  0.5839
  760MOL0     H 2569  -2.883   4.645   8.577 -1.1552  0.2693 -1.7549
  760MOL0     H 2570  -2.907   4.627   8.285  0.4642 -0.2398 -0.1293
  760MOL0     H 2571  -2.970   4.761   8.389 -1.3457 -1.1515 -0.5436
  760MOL0     H 2572  -3.123   4.591   8.308  0.8449 -1.5236 -0.1779
  760MOL0     H 2573  -3.065   4.466   8.419 -0.8130 -1.2145 -0.7715
  760MOL0     H 2574  -3.152   4.730   8.542  1.5637 -0.4820  0.4205
  760MOL0     H 2575  -3.108   4.578   8.611  2.9056 -0.0633 -1.1669
  760MOL0     H 2576  -3.342   4.544   8.422 -0.6385 -1.8000  0.8834
  760MOL0     H 2577  -3.293   4.464   8.569  1.8073  0.9982  0.8318
  760MOL0     H 2578  -3.375   4.744   8.567  2.0016 -0.7803 -2.6753
  760MOL0     H 2579  -3.361   4.634   8.699 -1.6076 -0.5465 -0.2372
  760MOL0     H 2580  -3.609   4.667   8.648 -1.6745 -1.0442 -1.0715
  760MOL0     H 2581  -3.562   4.508   8.587  0.9048  0.5508 -1.9242
  760MOL0     H 2582  -2.676   5.091   8.469 -0.8873 -1.0928  1.0209
  760MOL0     H 2583  -2.465   5.221   8.507  1.4958 -0.6388 -0.5157
  760MOL0     H 2584  -2.011   5.112   8.894 -1.8435  0.8415 -0.0532
  760MOL0     H 2585  -1.852   5.264   8.980 -1.1309 -1.4238 -0.7735
  760MOL0     H 2586  -0.251   5.090   9.665 -1.5911  1.6935 -1.4717
  760MOL0     H 2587  -0.059   4.960   9.724  1.0883 -0.1178  0.1977
  760MOL0     H 2588   0.264   4.788   9.712  0.9063  0.6597  0.7521
  760MOL0     H 2589   0.459   4.669   9.793  0.9655 -2.0908  0.1070
  760MOL0     H 2590   0.615   4.309   9.581 -2.0025  0.8975  2.1772
  760MOL0     H 2591   0.711   4.442   9.514 -2.6826  1.5274  0.1380
  760MOL0     H 2592   0.833   4.258   9.633  0.0831 -0.1723  0.7953
  760MOL0     H 2593   0.766   4.313   9.786  2.0708  0.5651  0.8205
  760MOL0     H 2594   0.976   4.398   9.779 -0.5790  0.8895  0.7774
  760MOL0     H 2595   0.893   4.537   9.719  0.2409  0.9474 -0.3036
  760MOL0     H 2596   1.073   4.518   9.575  0.1308 -0.6768  3.8749
  760MOL0     H 2597   0.943   4.439   9.479  0.4573  0.0500  0.2726
  760MOL0     H 2598   1.231   4.140   9.503  0.6873  0.6902  0.3537
  760MOL0     H 2599   0.496   4.455   9.412  0.7949  2.0560 -1.3153
  760MOL0     H 2600   0.297   4.533   9.350  3.4105 -0.5571 -1.0458
  761MOL0     O 2601   5.001   6.134   5.134 -0.5046  0.6788  0.2284
  761MOL0     C 2602   5.028   6.250   5.118 -0.3034 -0.5764 -0.8512
  761MOL0     O 2603   4.941   6.351   5.126 -0.1325 -0.8261 -0.3249
  761MOL0     C 2604   4.811   6.338   5.173 -0.6320 -0.3167 -0.4536
  761MOL0     C 2605   4.762   6.242   5.266 -0.8151 -0.3473  0.0047
  761MOL0     C 2606   4.628   6.229   5.295 -0.5218 -0.7710  0.4651
  761MOL0     C 2607   4.533   6.319   5.239 -0.1343 -0.2091  0.1813
  761MOL0     O 2608   4.396   6.312   5.248 -0.0042 -0.4185 -0.3804
  761MOL0     C 2609   4.356   6.257   5.379 -0.0909 -0.1787  0.1438
  761MOL0     C 2610   4.203   6.275   5.406 -0.0126  0.1416 -0.5078
  761MOL0     C 2611   4.158   6.220   5.540 -0.2823  0.3426 -0.1434
  761MOL0     C 2612   4.191   6.311   5.667 -0.7535  0.3166  0.2812
  761MOL0     C 2613   4.102   6.264   5.791 -0.6347 -0.4628 -1.1241
  761MOL0     C 2614   4.147   6.130   5.852 -0.3227 -0.6003 -1.1280
  761MOL0     C 2615   4.286   6.137   5.920 -0.7623  0.0656 -0.1203
  761MOL0     C 2616   4.306   6.021   6.022  0.3140 -0.8738  0.2585
  761MOL0     N 2617   4.424   6.027   6.103 -0.0793  0.7759 -0.7169
  761MOL0     C 2618   4.471   6.124   6.195  0.7027  0.7651  0.0489
  761MOL0     C 2619   4.598   6.091   6.211  0.6160  0.8962 -0.5341
  761MOL0     C 2620   4.686   6.188   6.279  0.1888  0.0497  0.1626
  761MOL0     C 2621   4.755   6.127   6.399 -0.0820 -0.3795  0.1325
  761MOL0     C 2622   4.877   6.206   6.434  0.8566 -0.3949  0.2335
  761MOL0     C 2623   4.955   6.140   6.548 -0.3703  0.5467  0.3439
  761MOL0     O 2624   5.032   6.023   6.516 -0.2262  0.1752 -0.4032
  761MOL0     C 2625   5.082   5.947   6.621 -0.2912 -0.0387  0.5051
  761MOL0     C 2626   5.084   5.989   6.757  0.1211  0.9875  1.0097
  761MOL0     C 2627   5.129   5.900   6.853 -0.3163  0.8361  0.6016
  761MOL0     C 2628   5.113   5.949   6.994 -0.2162  0.6245  0.4252
  761MOL0     C 2629   5.181   5.775   6.823  0.4964 -0.3486 -0.5304
  761MOL0     C 2630   5.254   5.685   6.914  0.1475  0.3335 -0.1349
  761MOL0     O 2631   5.278   5.553   6.869 -0.4216  0.5550  0.2171
  761MOL0     C 2632   5.381   5.483   6.924  0.1251  0.8410  0.5993
  761MOL0     C 2633   5.363   5.352   6.969  0.1875 -0.0463  0.2991
  761MOL0     C 2634   5.472   5.271   7.018  0.6934  1.3355 -0.7392
  761MOL0     C 2635   5.603   5.318   7.019  0.2574 -0.0271  0.9250
  761MOL0     O 2636   5.709   5.243   7.065  0.0998  0.7245  0.1591
  761MOL0     C 2637   5.839   5.298   7.078  0.1058 -0.2938  0.3562
  761MOL0     C 2638   5.936   5.176   7.110  0.4688  0.0542  0.1574
  761MOL0     C 2639   5.958   5.091   6.982  0.0637 -0.4641  0.1320
  761MOL0     C 2640   6.109   5.083   6.955 -1.1264 -0.6735 -0.1848
  761MOL0     C 2641   6.141   4.984   6.841 -0.2196  0.6684 -0.3593
  761MOL0     C 2642   6.294   4.983   6.801  0.4947 -0.0873  0.3334
  761MOL0     C 2643   6.370   4.973   6.930  0.6421  0.2460  1.1974
  761MOL0     C 2644   6.513   4.914   6.904  1.2865 -0.9759  0.5529
  761MOL0    Cl 2645   6.585   4.910   7.074  0.0536  0.2019 -0.0216
  761MOL0     C 2646   5.624   5.457   6.975 -1.0401  0.3028 -0.1900
  761MOL0     C 2647   5.513   5.530   6.925 -0.3881  0.3986 -0.4300
  761MOL0     O 2648   5.293   5.725   7.022  0.0417 -0.5486  0.5601
  761MOL0     C 2649   5.179   5.735   6.682 -0.4177  0.7720 -0.3919
  761MOL0     C 2650   5.122   5.817   6.590 -0.4855 -0.2813 -0.9094
  761MOL0     N 2651   4.628   5.975   6.142 -0.0009 -0.2856  0.6162
  761MOL0     N 2652   4.514   5.932   6.093 -0.9499  0.5715  0.3009
  761MOL0     C 2653   4.582   6.416   5.152 -0.3796 -0.1276  0.8902
  761MOL0     C 2654   4.719   6.436   5.130  0.1661  0.0603 -0.1530
  761MOL0     C 2655   5.165   6.283   5.085  0.2015 -0.0815 -0.8282
  761MOL0     C 2656   5.264   6.184   5.108  0.1625  0.1739 -0.8882
  761MOL0     C 2657   5.400   6.215   5.084  0.4197 -0.0176  0.0335
  761MOL0     C 2658   5.446   6.345   5.051  0.7225  0.0540 -0.4725
  761MOL0     O 2659   5.580   6.354   5.046 -0.9077 -0.9258  0.0847
  761MOL0     C 2660   5.645   6.487   5.031  0.2620  0.9295 -0.7568
  761MOL0     C 2661   5.796   6.476   5.002  0.1459  0.2119  0.0196
  761MOL0     C 2662   5.881   6.456   5.136 -0.2268 -0.7506 -0.0974
  761MOL0     C 2663   5.858   6.321   5.205 -0.1937 -1.4441 -0.0909
  761MOL0     C 2664   5.914   6.319   5.341 -0.7141 -0.0908 -0.3181
  761MOL0     C 2665   5.984   6.334   5.440 -0.0261 -0.8395  0.0083
  761MOL0     C 2666   5.344   6.444   5.032 -0.1812  0.7255  0.1677
  761MOL0     C 2667   5.207   6.411   5.048  0.2843  0.2203 -0.9554
  761MOL0     H 2668   4.828   6.160   5.291  0.0661  0.2460 -0.3077
  761MOL0     H 2669   4.600   6.148   5.361 -1.1314  0.2313  1.4612
  761MOL0     H 2670   4.376   6.149   5.381  1.7194  0.1302  1.3660
  761MOL0     H 2671   4.408   6.305   5.462 -0.8568  0.6830  0.1288
  761MOL0     H 2672   4.164   6.377   5.397 -1.3161 -0.3329 -0.4547
  761MOL0     H 2673   4.143   6.219   5.333 -1.6677 -0.4440  1.2281
  761MOL0     H 2674   4.051   6.204   5.528 -0.1030 -0.5111 -0.6967
  761MOL0     H 2675   4.202   6.122   5.561 -2.7937 -0.7412  0.3016
  761MOL0     H 2676   4.296   6.290   5.688 -0.7539  0.0409  0.0222
  761MOL0     H 2677   4.176   6.414   5.635  0.2653  0.5474  0.5042
  761MOL0     H 2678   4.111   6.340   5.869  2.5991  0.5271 -2.2807
  761MOL0     H 2679   3.997   6.247   5.765 -0.6521 -2.5548  0.1118
  761MOL0     H 2680   4.078   6.104   5.934  1.2469 -0.1505  0.3836
  761MOL0     H 2681   4.139   6.048   5.780  0.3181 -0.6067 -1.1915
  761MOL0     H 2682   4.357   6.131   5.837 -1.4281 -0.5846 -0.6663
  761MOL0     H 2683   4.296   6.228   5.980 -1.7992 -0.9599  1.7148
  761MOL0     H 2684   4.294   5.931   5.961 -2.8848  0.9545 -2.0680
  761MOL0     H 2685   4.214   6.036   6.079  0.4098  0.6156  0.0607
  761MOL0     H 2686   4.411   6.208   6.228 -2.8265  0.2706 -4.1497
  761MOL0     H 2687   4.765   6.206   6.206 -0.9316  1.0098 -0.8430
  761MOL0     H 2688   4.632   6.281   6.300 -0.5745  0.4017 -2.8843
  761MOL0     H 2689   4.781   6.022   6.389 -1.3343 -1.1697  3.6100
  761MOL0     H 2690   4.683   6.138   6.482 -2.1605  0.5455 -1.6917
  761MOL0     H 2691   4.851   6.302   6.481  1.4812 -0.5483  0.9295
  761MOL0     H 2692   4.952   6.224   6.356  1.2353  2.5099  1.1234
  761MOL0     H 2693   4.888   6.111   6.629 -0.8120  4.5261  1.6611
  761MOL0     H 2694   5.026   6.218   6.578  1.4432 -0.8099 -0.2517
  761MOL0     H 2695   5.044   6.086   6.782  0.2612  1.0744  0.8978
  761MOL0     H 2696   5.030   6.018   7.008 -0.2423  1.6612 -3.5261
  761MOL0     H 2697   5.093   5.871   7.068  1.5835 -0.2026  0.0950
  761MOL0     H 2698   5.211   5.990   7.023 -1.0244  2.8582  0.1905
  761MOL0     H 2699   5.264   5.308   6.973  0.4034 -0.7489 -1.4026
  761MOL0     H 2700   5.452   5.173   7.061 -1.2323  2.0338  0.0364
  761MOL0     H 2701   5.873   5.333   6.980 -0.8759 -4.0953 -1.5058
  761MOL0     H 2702   5.835   5.367   7.163 -1.7865 -1.4696  1.2874
  761MOL0     H 2703   6.034   5.204   7.151 -0.6251  2.4674  1.3045
  761MOL0     H 2704   5.887   5.116   7.187 -2.7498 -0.0606 -1.7998
  761MOL0     H 2705   5.901   5.128   6.896  0.6292  1.7841  0.6745
  761MOL0     H 2706   5.915   4.991   6.999  1.4243 -0.9029  1.1666
  761MOL0     H 2707   6.142   5.181   6.918  1.8022 -0.9042  1.5216
  761MOL0     H 2708   6.150   5.054   7.052 -3.3866  0.5588  1.2272
  761MOL0     H 2709   6.088   4.989   6.746  1.4179 -3.5238 -1.7356
  761MOL0     H 2710   6.120   4.884   6.882 -0.8375  0.6213 -0.7901
  761MOL0     H 2711   6.321   4.904   6.730  0.0014  0.9182 -1.0236
  761MOL0     H 2712   6.313   5.081   6.756 -1.1141 -0.6651 -1.7602
  761MOL0     H 2713   6.315   4.904   6.993  0.6741 -2.2657 -1.3484
  761MOL0     H 2714   6.369   5.074   6.973  2.6466 -0.8124  4.0864
  761MOL0     H 2715   6.570   4.979   6.837 -1.8156 -0.4410 -1.8119
  761MOL0     H 2716   6.503   4.818   6.852 -0.0933  0.6719 -2.4846
  761MOL0     H 2717   5.724   5.498   6.963 -0.0074 -2.1618 -0.5650
  761MOL0     H 2718   5.537   5.624   6.876  2.1514 -0.3397 -0.7157
  761MOL0     H 2719   5.219   5.638   6.655  1.0430  0.6262  2.0841
  761MOL0     H 2720   5.120   5.774   6.491 -2.9349 -2.5522 -0.0017
  761MOL0     H 2721   4.504   6.478   5.109 -0.4398 -0.5321  0.4042
  761MOL0     H 2722   4.759   6.517   5.070  2.5344  0.3620  1.6875
  761MOL0     H 2723   5.253   6.079   5.132  2.1372  0.3392  0.9978
  761MOL0     H 2724   5.482   6.146   5.103  1.2681  1.3945  1.8663
  761MOL0     H 2725   5.593   6.535   4.948 -1.0512 -2.6317 -2.2054
  761MOL0     H 2726   5.622   6.546   5.121  1.0139  1.7587 -1.0916
  761MOL0     H 2727   5.843   6.569   4.969  1.1393 -0.7844 -1.4820
  761MOL0     H 2728   5.812   6.384   4.946 -0.3256 -0.4951  1.0137
  761MOL0     H 2729   5.859   6.542   5.200 -2.0600 -1.0709 -0.2262
  761MOL0     H 2730   5.989   6.460   5.121 -0.3038  0.9614 -0.2926
  761MOL0     H 2731   5.892   6.241   5.140  2.2816 -0.5184 -0.0485
  761MOL0     H 2732   5.749   6.307   5.210 -0.6035  0.3981 -2.1731
  761MOL0     H 2733   6.047   6.342   5.527 -1.1081 -1.5942  0.8914
  761MOL0     H 2734   5.377   6.537   4.986 -0.3482 -0.4822 -2.5469
  761MOL0     H 2735   5.126   6.482   5.035 -2.4021 -2.1661  1.3913
  762MOL0     O 2736   5.984   1.814   6.754  0.4371 -0.0702  1.4461
  762MOL0     C 2737   6.059   1.725   6.783  0.6402 -0.5034 -0.6467
  762MOL0     O 2738   6.037   1.593   6.774  0.2555 -0.3649 -0.4379
  762MOL0     C 2739   5.929   1.535   6.710  0.8098  0.4091  0.2799
  762MOL0     C 2740   5.866   1.414   6.754  0.0095  0.8283  0.7998
  762MOL0     C 2741   5.752   1.370   6.688  0.5330  0.3279  1.2480
  762MOL0     C 2742   5.693   1.438   6.577  0.6561 -0.3424 -0.2940
  762MOL0     O 2743   5.574   1.409   6.521  0.2363 -0.3102  1.3915
  762MOL0     C 2744   5.478   1.325   6.581  0.7136 -0.3758  0.8980
  762MOL0     C 2745   5.350   1.314   6.494 -0.4882 -0.5108  0.6918
  762MOL0     C 2746   5.221   1.296   6.567 -0.3049 -0.3495  0.2770
  762MOL0     C 2747   5.104   1.344   6.484 -1.0934 -0.3492 -0.1883
  762MOL0     C 2748   4.970   1.352   6.564  0.5982  0.9786  0.5465
  762MOL0     C 2749   4.897   1.219   6.547 -0.3754  0.8755  0.0950
  762MOL0     C 2750   4.766   1.202   6.619  0.7905 -0.3154 -0.4406
  762MOL0     C 2751   4.704   1.059   6.584 -0.4770 -0.1035 -0.9481
  762MOL0     N 2752   4.581   1.028   6.651  0.2157 -0.1199 -1.1035
  762MOL0     C 2753   4.469   1.057   6.583  0.5616 -1.2856 -0.2923
  762MOL0     C 2754   4.374   1.017   6.670 -0.1887 -0.3695  0.2646
  762MOL0     C 2755   4.223   1.026   6.648 -0.2007  0.3326 -0.1238
  762MOL0     C 2756   4.165   1.170   6.629 -0.1905 -0.1355 -0.7901
  762MOL0     C 2757   4.034   1.163   6.556 -0.0454 -0.6346  0.0815
  762MOL0     C 2758   3.976   1.310   6.545  0.0703  0.1926  0.1408
  762MOL0     O 2759   3.834   1.299   6.529  0.5704  0.0963 -0.3462
  762MOL0     C 2760   3.762   1.417   6.521  0.1214  0.1805 -0.0461
  762MOL0     C 2761   3.803   1.551   6.548 -0.1203 -0.2864  0.4967
  762MOL0     C 2762   3.726   1.666   6.526  0.3806 -0.1552  0.2344
  762MOL0     C 2763   3.785   1.810   6.539  0.7656 -0.7032 -0.9823
  762MOL0     C 2764   3.598   1.648   6.477  0.6679 -0.7333  0.5292
  762MOL0     C 2765   3.525   1.757   6.423  0.2085 -0.2735 -0.3269
  762MOL0     O 2766   3.484   1.855   6.505 -0.3393  0.0221 -0.3982
  762MOL0     C 2767   3.408   1.952   6.453 -0.0013  0.5914 -0.1142
  762MOL0     C 2768   3.275   1.961   6.458  0.0047 -1.3294 -0.8031
  762MOL0     C 2769   3.207   2.079   6.409 -0.0464 -0.1742 -0.9606
  762MOL0     C 2770   3.280   2.186   6.362 -0.5229  0.1178  0.4046
  762MOL0     O 2771   3.226   2.306   6.321  0.0894 -0.1471 -0.6080
  762MOL0     C 2772   3.085   2.328   6.340  0.0572 -0.3877 -0.3476
  762MOL0     C 2773   3.023   2.451   6.276 -0.5914  0.5794 -0.2608
  762MOL0     C 2774   3.055   2.476   6.119  0.5173  0.0060  0.2227
  762MOL0     C 2775   3.003   2.352   6.048 -0.2062  0.3244  0.3716
  762MOL0     C 2776   3.025   2.348   5.900  0.6584  0.6599  0.5822
  762MOL0     C 2777   3.179   2.355   5.862 -0.0267  0.1990  0.0355
  762MOL0     C 2778   3.193   2.308   5.718 -0.6988 -1.0630 -0.7354
  762MOL0     C 2779   3.341   2.344   5.675  0.0343  0.1599  0.3151
  762MOL0    Cl 2780   3.383   2.293   5.504  0.0818 -0.0092  0.1834
  762MOL0     C 2781   3.423   2.176   6.353  0.5912 -0.0694 -0.4577
  762MOL0     C 2782   3.485   2.055   6.400  0.4835 -0.4469 -0.2269
  762MOL0     O 2783   3.511   1.760   6.305 -0.1287 -0.8744 -0.4554
  762MOL0     C 2784   3.546   1.518   6.455 -0.3662 -0.2157 -0.5271
  762MOL0     C 2785   3.623   1.401   6.490 -0.3824 -0.1568 -0.5718
  762MOL0     N 2786   4.434   0.961   6.783 -0.0072  0.0054 -0.8098
  762MOL0     N 2787   4.556   0.976   6.771 -0.0341  0.7257 -0.7051
  762MOL0     C 2788   5.762   1.546   6.524  0.2924 -0.4240 -0.3065
  762MOL0     C 2789   5.882   1.584   6.588 -0.1962  1.1459 -0.4655
  762MOL0     C 2790   6.196   1.761   6.826 -0.0104 -0.2325  0.3612
  762MOL0     C 2791   6.282   1.656   6.864  0.3589 -0.1277  0.0528
  762MOL0     C 2792   6.407   1.683   6.917 -0.1199 -0.1490  0.4586
  762MOL0     C 2793   6.440   1.811   6.939  0.9629 -0.1172 -0.8920
  762MOL0     O 2794   6.560   1.826   7.004 -0.1713 -0.1129  0.2255
  762MOL0     C 2795   6.615   1.958   7.025 -0.3035 -1.0342 -0.0955
  762MOL0     C 2796   6.742   1.956   7.108 -0.7794 -0.2653  0.4977
  762MOL0     C 2797   6.864   1.870   7.056 -0.6964  0.2526 -0.4036
  762MOL0     C 2798   7.007   1.915   7.096  0.1771  0.4068 -0.0086
  762MOL0     C 2799   7.033   1.887   7.237 -0.7493  0.6758 -0.6450
  762MOL0     C 2800   7.072   1.863   7.352 -0.1370 -0.2066  0.4135
  762MOL0     C 2801   6.360   1.916   6.902  0.1652  0.6482 -0.5163
  762MOL0     C 2802   6.239   1.889   6.840  0.6225 -0.2687 -0.1753
  762MOL0     H 2803   5.912   1.363   6.838  1.5889  0.5937 -0.1684
  762MOL0     H 2804   5.722   1.277   6.735 -0.5803  1.0698  2.0570
  762MOL0     H 2805   5.519   1.224   6.580 -0.7069 -1.0082 -1.3732
  762MOL0     H 2806   5.452   1.359   6.681 -1.9925  0.6624 -0.0575
  762MOL0     H 2807   5.347   1.411   6.445  1.4726 -0.0858  1.3004
  762MOL0     H 2808   5.363   1.242   6.413 -0.0719 -0.9620  1.1485
  762MOL0     H 2809   5.216   1.187   6.581  2.1841 -0.6440 -0.5631
  762MOL0     H 2810   5.211   1.354   6.659 -0.0761  1.9724 -1.0861
  762MOL0     H 2811   5.127   1.445   6.451  0.2182 -0.4236  0.4394
  762MOL0     H 2812   5.093   1.285   6.392  3.3941 -2.0138  0.0951
  762MOL0     H 2813   4.993   1.372   6.669  0.2302  0.3639  0.7563
  762MOL0     H 2814   4.917   1.437   6.521  1.3882 -0.0282 -2.6531
  762MOL0     H 2815   4.882   1.206   6.440 -0.4850 -4.4308  0.4630
  762MOL0     H 2816   4.960   1.135   6.578 -1.8933 -0.9149 -1.3936
  762MOL0     H 2817   4.779   1.212   6.727 -1.7048 -0.9333 -0.0086
  762MOL0     H 2818   4.704   1.284   6.579 -0.0816 -1.0648 -0.6595
  762MOL0     H 2819   4.782   0.990   6.616  1.8678  2.7536 -0.0397
  762MOL0     H 2820   4.697   1.064   6.475  2.3229 -0.5622 -1.2395
  762MOL0     H 2821   4.451   1.104   6.487  1.7010 -1.0441 -0.4032
  762MOL0     H 2822   4.201   0.958   6.565  1.1161 -1.9785  1.3131
  762MOL0     H 2823   4.176   0.989   6.740  0.4865  0.9537  0.4848
  762MOL0     H 2824   4.239   1.236   6.583 -1.3403  2.0201  0.3041
  762MOL0     H 2825   4.161   1.214   6.729  1.0890  0.2866 -0.9053
  762MOL0     H 2826   3.957   1.113   6.615 -1.0288  1.2859  0.4950
  762MOL0     H 2827   4.048   1.110   6.461  0.4049 -2.8342  1.3090
  762MOL0     H 2828   4.012   1.354   6.451  0.8466 -1.7458 -0.5161
  762MOL0     H 2829   4.005   1.384   6.620 -2.0028  1.6009 -0.3454
  762MOL0     H 2830   3.907   1.560   6.578  0.3283 -1.3802 -0.6487
  762MOL0     H 2831   3.783   1.855   6.439 -0.6709  1.0684 -0.2047
  762MOL0     H 2832   3.727   1.874   6.606 -1.2513 -3.1482 -0.2317
  762MOL0     H 2833   3.888   1.808   6.574  1.5502 -3.3053 -3.0714
  762MOL0     H 2834   3.209   1.894   6.514  0.0442  1.6796  3.2681
  762MOL0     H 2835   3.099   2.078   6.422 -0.2296 -1.4909 -2.2903
  762MOL0     H 2836   3.031   2.246   6.293 -0.2972 -3.0086  4.0458
  762MOL0     H 2837   3.056   2.323   6.446  1.8441 -2.5362  0.1105
  762MOL0     H 2838   2.920   2.452   6.311  0.0905  2.2279  1.9200
  762MOL0     H 2839   3.064   2.541   6.323  2.4180 -1.0368  0.5188
  762MOL0     H 2840   3.162   2.478   6.101  0.6556 -0.0788  0.9891
  762MOL0     H 2841   3.018   2.570   6.077  1.7548 -0.1349 -1.2470
  762MOL0     H 2842   3.060   2.271   6.095 -3.7802 -1.8224  1.3752
  762MOL0     H 2843   2.899   2.328   6.072 -0.1597 -0.3513 -0.0929
  762MOL0     H 2844   2.967   2.427   5.850  0.3794  0.1148  0.0431
  762MOL0     H 2845   2.986   2.250   5.873 -0.1532  1.3961 -1.0747
  762MOL0     H 2846   3.219   2.456   5.862  3.2617 -0.9804 -0.5295
  762MOL0     H 2847   3.248   2.292   5.920  0.3572  1.0094  0.4646
  762MOL0     H 2848   3.129   2.375   5.659  1.2502  1.9727  0.3252
  762MOL0     H 2849   3.166   2.204   5.699  0.1577 -1.1895 -1.2847
  762MOL0     H 2850   3.427   2.315   5.736  1.1787  1.3045 -0.7095
  762MOL0     H 2851   3.346   2.453   5.677 -1.0376  0.2242  1.8293
  762MOL0     H 2852   3.487   2.252   6.308  1.3845 -0.5601 -0.1842
  762MOL0     H 2853   3.593   2.047   6.410  0.3990 -1.2922  0.1008
  762MOL0     H 2854   3.449   1.500   6.409 -0.6426 -1.0631  0.3528
  762MOL0     H 2855   3.571   1.307   6.471  0.1049 -0.7218  0.7551
  762MOL0     H 2856   5.715   1.587   6.435 -1.8764 -0.4679  0.7431
  762MOL0     H 2857   5.924   1.671   6.538 -2.8180  3.1431  0.5422
  762MOL0     H 2858   6.248   1.554   6.853  0.0447  0.1461 -1.7879
  762MOL0     H 2859   6.459   1.593   6.946 -0.7243 -0.6445  0.0342
  762MOL0     H 2860   6.649   2.010   6.934  1.0518 -0.3690  0.7506
  762MOL0     H 2861   6.543   2.019   7.079  0.7680  0.9146 -0.7509
  762MOL0     H 2862   6.715   1.923   7.208 -0.8866  0.5896  0.7584
  762MOL0     H 2863   6.780   2.059   7.113  3.0790 -1.5556  1.7061
  762MOL0     H 2864   6.868   1.877   6.947  0.5668 -1.6075 -0.5262
  762MOL0     H 2865   6.856   1.765   7.086  0.9171 -0.1267 -1.1892
  762MOL0     H 2866   7.023   2.023   7.085 -0.9891  0.5783 -0.0918
  762MOL0     H 2867   7.080   1.859   7.037  1.3010 -0.3732  2.0400
  762MOL0     H 2868   7.087   1.834   7.454 -1.3439 -2.8592 -0.0825
  762MOL0     H 2869   6.398   2.017   6.904  0.3428  0.5878  1.0724
  762MOL0     H 2870   6.192   1.973   6.790  0.5621 -1.7253 -2.7387
  763MOL0     O 2871   5.232   4.908   8.844 -0.0305  0.9911 -0.1128
  763MOL0     C 2872   5.275   4.958   8.946  0.0926  0.3915 -0.5796
  763MOL0     O 2873   5.194   4.970   9.066  0.0378  1.0007  0.4838
  763MOL0     C 2874   5.061   4.929   9.058 -0.7843 -0.5338  0.2762
  763MOL0     C 2875   4.972   5.024   9.003  0.3767 -0.5134 -0.8806
  763MOL0     C 2876   4.838   4.982   8.981  0.1430  0.6460  0.9043
  763MOL0     C 2877   4.792   4.854   9.028  0.1037 -0.6495  0.5260
  763MOL0     O 2878   4.664   4.809   8.999  0.1512 -0.1446  0.3167
  763MOL0     C 2879   4.601   4.851   8.880  0.1415 -0.2573  1.1270
  763MOL0     C 2880   4.507   4.730   8.835 -0.8797  0.3259 -0.2509
  763MOL0     C 2881   4.385   4.697   8.929 -0.2985  0.1198  0.6555
  763MOL0     C 2882   4.280   4.797   8.901  0.0716  0.1701 -0.7495
  763MOL0     C 2883   4.165   4.779   8.991 -0.1451 -0.2413 -0.8391
  763MOL0     C 2884   4.085   4.905   9.010 -0.2391  0.1461  0.0178
  763MOL0     C 2885   3.989   4.868   9.129 -0.5782 -0.4227  0.6762
  763MOL0     C 2886   3.906   4.999   9.151  0.1133 -0.2912 -0.4306
  763MOL0     N 2887   3.804   4.989   9.259 -0.2852  0.2238 -0.2267
  763MOL0     C 2888   3.835   5.001   9.393  0.2511  0.9703  0.1077
  763MOL0     C 2889   3.740   4.932   9.461  0.4552 -0.4784  0.4301
  763MOL0     C 2890   3.745   4.908   9.613 -0.5663 -0.2292  0.6173
  763MOL0     C 2891   3.609   4.864   9.664 -0.1678 -0.2096  0.1272
  763MOL0     C 2892   3.611   4.840   9.815  0.0949 -0.1552 -0.0752
  763MOL0     C 2893   3.486   4.778   9.873 -0.2887  0.2466 -0.7651
  763MOL0     O 2894   3.389   4.881   9.882  0.8554 -0.5717 -0.2691
  763MOL0     C 2895   3.261   4.861   9.932  0.0281 -0.1310 -0.0924
  763MOL0     C 2896   3.224   4.751  10.007 -0.3112  0.7144  0.2259
  763MOL0     C 2897   3.085   4.740  10.041 -0.1886 -0.0428 -0.3994
  763MOL0     C 2898   3.040   4.613  10.114 -0.5979  0.1073  0.3442
  763MOL0     C 2899   2.986   4.835   9.994  0.2064  0.8468 -0.3917
  763MOL0     C 2900   2.843   4.814  10.019  0.1832 -0.4974  1.1294
  763MOL0     O 2901   2.762   4.886   9.934 -0.5469  0.3059 -0.1189
  763MOL0     C 2902   2.621   4.893   9.961 -0.1208  0.0871 -0.0422
  763MOL0     C 2903   2.551   4.772   9.974 -0.5348 -0.1896  0.0034
  763MOL0     C 2904   2.414   4.783   9.993  0.6374 -1.0356 -0.2168
  763MOL0     C 2905   2.341   4.905   9.988  0.1449  0.1496 -0.9626
  763MOL0     O 2906   2.203   4.913  10.007 -0.5114  0.3775 -0.3758
  763MOL0     C 2907   2.138   5.034   9.973  0.1942  0.0724  0.1328
  763MOL0     C 2908   1.984   5.009   9.956 -0.6052 -0.4696 -0.1126
  763MOL0     C 2909   1.912   5.122   9.880  0.2338  0.0474  0.4039
  763MOL0     C 2910   1.767   5.097   9.844 -0.3497  0.4531 -0.4299
  763MOL0     C 2911   1.670   5.098   9.965  0.6177 -0.5013  0.4223
  763MOL0     C 2912   1.522   5.070   9.931  0.0446 -0.8312 -0.6411
  763MOL0     C 2913   1.461   5.160   9.820  0.6853  0.1382  0.0561
  763MOL0     C 2914   1.309   5.145   9.803  0.3732  0.3692  0.2725
  763MOL0    Cl 2915   1.240   5.278   9.710 -0.3311  0.2652 -0.6215
  763MOL0     C 2916   2.416   5.025   9.987 -0.3775 -0.2164 -0.1771
  763MOL0     C 2917   2.553   5.018   9.959 -0.6377  0.3536 -0.3873
  763MOL0     O 2918   2.799   4.756  10.115  0.0948  0.4179 -0.2815
  763MOL0     C 2919   3.028   4.937   9.916  0.1245  0.3265 -0.2521
  763MOL0     C 2920   3.168   4.958   9.891  0.0039 -1.2752  0.0050
  763MOL0     N 2921   3.662   4.861   9.368  0.7004 -0.7344  1.3379
  763MOL0     N 2922   3.701   4.899   9.253  0.3678  0.3013  0.1452
  763MOL0     C 2923   4.883   4.773   9.086 -0.1814  0.0030 -0.4320
  763MOL0     C 2924   5.014   4.802   9.094 -0.1907  0.2371  0.4847
  763MOL0     C 2925   5.416   4.995   8.951 -0.2339 -0.5449 -0.1567
  763MOL0     C 2926   5.508   4.967   8.850 -1.1024 -0.1263  0.6209
  763MOL0     C 2927   5.653   5.000   8.877 -0.0437 -0.2670  0.6280
  763MOL0     C 2928   5.692   5.056   9.006  0.4378  0.5024  0.7165
  763MOL0     O 2929   5.821   5.086   9.040  0.1331  0.8679  0.4809
  763MOL0     C 2930   5.914   5.084   8.925 -0.0489 -0.7290 -0.1605
  763MOL0     C 2931   6.026   5.173   8.973 -0.9086  0.4572  0.4937
  763MOL0     C 2932   5.992   5.324   8.946  0.1051  0.4809 -0.0403
  763MOL0     C 2933   6.102   5.420   9.005 -0.5159 -0.3625  0.4250
  763MOL0     C 2934   6.235   5.396   8.947  0.7671 -0.5060 -0.5233
  763MOL0     C 2935   6.350   5.387   8.910 -0.0932  0.2960 -0.5797
  763MOL0     C 2936   5.592   5.084   9.097  0.3783  0.1458 -0.0146
  763MOL0     C 2937   5.456   5.057   9.071  0.3538 -0.1543  0.2442
  763MOL0     H 2938   5.011   5.121   8.974 -0.0421  0.0220  0.2692
  763MOL0     H 2939   4.781   5.055   8.924  2.1899 -0.0099 -2.2418
  763MOL0     H 2940   4.546   4.945   8.889  1.6031  0.5571  1.9473
  763MOL0     H 2941   4.665   4.870   8.794 -1.3525 -2.0742 -0.5055
  763MOL0     H 2942   4.464   4.746   8.736  1.8432  2.9093 -1.1350
  763MOL0     H 2943   4.571   4.642   8.822 -0.3606  0.5233  0.8460
  763MOL0     H 2944   4.351   4.597   8.900 -0.8328 -0.2581  2.4578
  763MOL0     H 2945   4.425   4.694   9.030 -0.6448  0.5904  0.8128
  763MOL0     H 2946   4.313   4.898   8.928  0.6168 -0.3170  0.4784
  763MOL0     H 2947   4.252   4.802   8.795 -0.6105  0.5064 -0.5579
  763MOL0     H 2948   4.099   4.704   8.946  1.0240 -0.6173 -1.9646
  763MOL0     H 2949   4.192   4.735   9.088 -0.0579  1.0085 -0.2855
  763MOL0     H 2950   4.144   4.993   9.038 -0.4860  0.5916 -0.8018
  763MOL0     H 2951   4.032   4.931   8.918  0.4746  1.0913 -0.1521
  763MOL0     H 2952   3.923   4.784   9.110  0.1918 -1.2765  1.6654
  763MOL0     H 2953   4.061   4.846   9.208  1.3780  1.8520 -0.3517
  763MOL0     H 2954   3.861   5.039   9.060 -1.9431 -1.3275  0.0702
  763MOL0     H 2955   3.971   5.081   9.185 -0.7082 -0.5677  1.9437
  763MOL0     H 2956   3.931   5.045   9.420  0.4773  0.7535 -0.3376
  763MOL0     H 2957   3.823   4.834   9.634 -2.8680 -3.4846 -1.4178
  763MOL0     H 2958   3.765   5.003   9.663  0.3275 -1.4330  2.6906
  763MOL0     H 2959   3.579   4.773   9.612  0.2992 -0.0123 -0.4885
  763MOL0     H 2960   3.541   4.943   9.632 -0.4871 -0.9335 -1.0214
  763MOL0     H 2961   3.636   4.926   9.877  0.9722  0.9522 -1.8665
  763MOL0     H 2962   3.690   4.766   9.828  0.1029 -0.1544 -0.1191
  763MOL0     H 2963   3.492   4.723   9.968 -1.6012 -3.4670 -2.6530
  763MOL0     H 2964   3.464   4.699   9.800  5.2129 -0.5542 -2.0683
  763MOL0     H 2965   3.307   4.688  10.036 -0.0564  0.1869 -1.4813
  763MOL0     H 2966   3.011   4.625  10.219  0.4988 -1.5027  0.8851
  763MOL0     H 2967   2.952   4.567  10.069 -0.5287  1.3985 -1.1532
  763MOL0     H 2968   3.123   4.542  10.126  1.6860  2.4685 -0.6489
  763MOL0     H 2969   2.603   4.677   9.967 -0.6516 -0.3101  0.6937
  763MOL0     H 2970   2.352   4.695  10.000  1.9402 -1.9182  0.7504
  763MOL0     H 2971   2.147   5.114  10.046 -2.0570 -0.4316  1.0426
  763MOL0     H 2972   2.178   5.080   9.882 -1.1455 -0.2036 -0.6296
  763MOL0     H 2973   1.978   4.920   9.894  0.7783  0.0461 -1.0459
  763MOL0     H 2974   1.944   4.988  10.055  0.7016 -5.0951 -0.3847
  763MOL0     H 2975   1.956   5.138   9.781  1.4839 -2.4020  0.4803
  763MOL0     H 2976   1.913   5.217   9.934  1.2851  0.7166 -0.7384
  763MOL0     H 2977   1.744   5.185   9.784  2.1805 -0.2280 -2.5586
  763MOL0     H 2978   1.762   5.009   9.780  3.2958 -0.2972  0.0731
  763MOL0     H 2979   1.681   5.194  10.017  1.2004 -0.0260 -0.5253
  763MOL0     H 2980   1.716   5.032  10.039  0.2648  0.0012  1.1041
  763MOL0     H 2981   1.501   4.964   9.915 -0.6077 -0.8544  0.2644
  763MOL0     H 2982   1.476   5.102  10.025  1.3698  1.2921 -0.6595
  763MOL0     H 2983   1.499   5.127   9.723 -0.6069  1.1188 -0.8199
  763MOL0     H 2984   1.493   5.263   9.835  2.6939 -0.7217  2.2140
  763MOL0     H 2985   1.250   5.141   9.895 -1.2622 -1.4381 -0.7912
  763MOL0     H 2986   1.288   5.050   9.752  1.9512 -0.6015  1.3503
  763MOL0     H 2987   2.370   5.122   9.996 -2.4708 -1.1943  0.3686
  763MOL0     H 2988   2.612   5.104   9.929  1.7873 -1.6317 -1.7224
  763MOL0     H 2989   2.948   5.004   9.885 -0.9091 -1.4423 -1.5319
  763MOL0     H 2990   3.201   5.036   9.824 -1.3771 -1.5235 -0.9885
  763MOL0     H 2991   4.864   4.673   9.121 -1.5970  0.6326  0.7094
  763MOL0     H 2992   5.090   4.730   9.123  0.0659 -0.3983 -1.6162
  763MOL0     H 2993   5.482   4.918   8.757  2.6400  1.9613 -1.7771
  763MOL0     H 2994   5.723   4.979   8.796 -0.5731 -2.7730  0.7139
  763MOL0     H 2995   5.943   4.982   8.897 -0.2700 -0.4304 -1.5565
  763MOL0     H 2996   5.863   5.120   8.835 -1.3903 -1.2567  0.3550
  763MOL0     H 2997   6.118   5.166   8.914  0.1719  1.2624  2.0217
  763MOL0     H 2998   6.055   5.147   9.075  0.3781 -2.8306 -0.6006
  763MOL0     H 2999   5.901   5.361   8.995  0.1279  1.8862 -0.9967
  763MOL0     H 3000   5.967   5.344   8.842 -3.4304 -0.2607  0.5293
  763MOL0     H 3001   6.104   5.404   9.113 -0.5697 -1.1711  0.3100
  763MOL0     H 3002   6.072   5.522   8.978  0.6444 -0.7348 -2.7270
  763MOL0     H 3003   6.448   5.370   8.872 -0.1874  0.8978 -1.1014
  763MOL0     H 3004   5.626   5.132   9.188  2.5453  0.0889 -0.7315
  763MOL0     H 3005   5.382   5.083   9.146  1.2472 -0.8967  1.4277
  764MOL0     O 3006   0.381   8.359   3.658  0.3724 -0.5448  0.2926
  764MOL0     C 3007   0.358   8.454   3.726 -0.2261 -0.1040  0.2728
  764MOL0     O 3008   0.240   8.480   3.802  0.4478  0.7368 -0.2788
  764MOL0     C 3009   0.144   8.385   3.799  0.2985 -0.1625 -0.1385
  764MOL0     C 3010   0.103   8.326   3.920 -0.2350  0.2782 -0.2370
  764MOL0     C 3011   0.009   8.221   3.925 -0.2477  0.1065  0.3731
  764MOL0     C 3012  -0.051   8.180   3.803  0.5661 -0.8269 -0.2270
  764MOL0     O 3013  -0.135   8.073   3.786 -0.0756 -0.2585  0.0141
  764MOL0     C 3014  -0.169   7.996   3.903 -0.3954 -0.5767 -0.0718
  764MOL0     C 3015  -0.233   7.865   3.844  0.0118 -0.6985 -0.0552
  764MOL0     C 3016  -0.285   7.792   3.963 -0.0033 -0.0028  0.1997
  764MOL0     C 3017  -0.351   7.660   3.931 -0.2778 -0.4172  0.8279
  764MOL0     C 3018  -0.425   7.595   4.050  0.2550  0.8295  0.4372
  764MOL0     C 3019  -0.327   7.535   4.158  0.6180  0.6706  1.3057
  764MOL0     C 3020  -0.291   7.393   4.091 -0.9357 -0.1197 -0.0794
  764MOL0     C 3021  -0.188   7.327   4.181  0.5513  0.3238  0.7005
  764MOL0     N 3022  -0.223   7.327   4.327 -0.4261  0.7026 -0.2725
  764MOL0     C 3023  -0.310   7.233   4.383  0.3223  0.7202 -0.9404
  764MOL0     C 3024  -0.321   7.276   4.512 -0.2636 -0.1591  0.0607
  764MOL0     C 3025  -0.409   7.220   4.623  0.2115 -0.2128 -1.0609
  764MOL0     C 3026  -0.546   7.291   4.634  0.1001 -0.9379 -0.3618
  764MOL0     C 3027  -0.669   7.201   4.608  0.0605  0.7665  0.1553
  764MOL0     C 3028  -0.680   7.098   4.723 -0.9954  0.6092  0.1943
  764MOL0     O 3029  -0.768   6.989   4.694 -0.3524  0.3443  0.0254
  764MOL0     C 3030  -0.900   7.006   4.710 -0.4801 -0.6133 -0.5517
  764MOL0     C 3031  -0.969   6.887   4.708  0.0196 -0.1658  0.1574
  764MOL0     C 3032  -1.105   6.881   4.748 -0.3305  0.7097  0.7737
  764MOL0     C 3033  -1.172   6.743   4.735 -0.4466 -0.2280 -0.5303
  764MOL0     C 3034  -1.178   7.000   4.785 -0.5226 -0.1819 -0.0190
  764MOL0     C 3035  -1.322   7.005   4.800  0.2583 -0.4182  0.2702
  764MOL0     O 3036  -1.404   6.949   4.699  0.0992 -0.0990  0.3439
  764MOL0     C 3037  -1.546   6.956   4.693  0.6373 -1.4324  0.3492
  764MOL0     C 3038  -1.630   7.023   4.786 -0.0265  0.3351  0.1505
  764MOL0     C 3039  -1.768   7.025   4.762  0.5960 -0.2036  0.3906
  764MOL0     C 3040  -1.829   6.971   4.647 -0.7783  0.0824 -0.0555
  764MOL0     O 3041  -1.961   6.964   4.615 -0.1466  0.7703 -0.2088
  764MOL0     C 3042  -2.055   7.008   4.712  0.1224 -0.2356 -0.0645
  764MOL0     C 3043  -2.199   7.032   4.662 -0.4641 -0.3407 -0.6044
  764MOL0     C 3044  -2.285   6.912   4.645 -0.4134  0.0500  0.5288
  764MOL0     C 3045  -2.434   6.949   4.626 -0.2379 -0.7999  0.1872
  764MOL0     C 3046  -2.529   6.825   4.614  0.8985  0.3445 -0.5542
  764MOL0     C 3047  -2.672   6.860   4.631  0.5953 -0.6918 -0.8752
  764MOL0     C 3048  -2.765   6.741   4.633 -0.5411 -0.0192 -0.2100
  764MOL0     C 3049  -2.897   6.802   4.686  0.2477  0.1790  0.1434
  764MOL0    Cl 3050  -3.033   6.692   4.646 -0.1420  0.1038 -0.2232
  764MOL0     C 3051  -1.745   6.909   4.552 -1.0287  0.2191  0.1851
  764MOL0     C 3052  -1.609   6.905   4.573  0.2084 -0.3799 -0.1274
  764MOL0     O 3053  -1.361   7.025   4.917  0.5062 -0.0036 -0.3427
  764MOL0     C 3054  -1.105   7.123   4.788 -0.0429  0.0112  0.0752
  764MOL0     C 3055  -0.966   7.123   4.752  0.0611  0.4249 -0.3129
  764MOL0     N 3056  -0.226   7.376   4.541 -0.0731 -0.5664 -0.0830
  764MOL0     N 3057  -0.172   7.417   4.426  0.8572 -0.4662  0.3576
  764MOL0     C 3058  -0.012   8.237   3.686  0.1074 -0.6231  0.2397
  764MOL0     C 3059   0.083   8.339   3.688  0.4386 -0.2073 -0.3663
  764MOL0     C 3060   0.460   8.566   3.733  0.0167  0.6452 -0.5658
  764MOL0     C 3061   0.585   8.542   3.670 -0.5440 -0.2678  0.3492
  764MOL0     C 3062   0.678   8.647   3.661  0.1587  0.1293  0.0464
  764MOL0     C 3063   0.655   8.771   3.725 -0.0280  0.3900  0.6588
  764MOL0     O 3064   0.751   8.865   3.712  0.0355 -0.6903 -0.0976
  764MOL0     C 3065   0.734   8.944   3.594 -0.1998 -0.8225  0.0304
  764MOL0     C 3066   0.847   9.052   3.579 -0.0853  0.8324 -0.5573
  764MOL0     C 3067   0.841   9.162   3.694 -0.2983 -0.6016  0.3737
  764MOL0     C 3068   0.798   9.300   3.632  0.2738  0.1873  0.0055
  764MOL0     C 3069   0.690   9.292   3.530 -0.2603 -0.1893  0.3475
  764MOL0     C 3070   0.617   9.248   3.450  1.1255 -0.7742 -0.4961
  764MOL0     C 3071   0.534   8.791   3.797 -0.6578  0.3974  0.8356
  764MOL0     C 3072   0.436   8.694   3.794  0.2756 -0.4222  0.3109
  764MOL0     H 3073   0.145   8.364   4.013 -3.6225 -1.3068  2.1700
  764MOL0     H 3074  -0.011   8.180   4.023 -0.6670 -1.2449 -0.2449
  764MOL0     H 3075  -0.080   7.961   3.956 -0.9073 -0.8835  0.5933
  764MOL0     H 3076  -0.239   8.051   3.967 -1.3735 -0.8024 -0.9090
  764MOL0     H 3077  -0.318   7.891   3.780  1.1055 -1.4574 -1.8861
  764MOL0     H 3078  -0.173   7.795   3.785 -2.5658 -4.0142  0.9346
  764MOL0     H 3079  -0.211   7.772   4.041  0.5083 -2.8162 -0.8730
  764MOL0     H 3080  -0.360   7.859   4.005  0.1507 -2.1580  4.4210
  764MOL0     H 3081  -0.419   7.679   3.848 -0.8694  1.2506  1.6515
  764MOL0     H 3082  -0.282   7.586   3.889  0.3956  0.3227  0.5939
  764MOL0     H 3083  -0.489   7.671   4.096 -2.5186 -1.8020  1.2859
  764MOL0     H 3084  -0.491   7.514   4.017  1.4332 -1.4704  3.2850
  764MOL0     H 3085  -0.240   7.597   4.180 -0.6199  3.0746 -0.1209
  764MOL0     H 3086  -0.393   7.507   4.241 -0.7901 -1.1491 -0.3314
  764MOL0     H 3087  -0.377   7.326   4.083 -1.2192  0.3891 -1.5040
  764MOL0     H 3088  -0.235   7.397   3.998  2.7272  0.1526  1.9585
  764MOL0     H 3089  -0.086   7.367   4.171  2.3376 -3.8217  0.2613
  764MOL0     H 3090  -0.171   7.227   4.141  3.8924  1.0309  0.0395
  764MOL0     H 3091  -0.360   7.145   4.342  1.2279 -0.0354 -0.4461
  764MOL0     H 3092  -0.404   7.112   4.607  0.8066 -0.3435 -0.0914
  764MOL0     H 3093  -0.368   7.244   4.722  1.0446 -1.7187 -1.0051
  764MOL0     H 3094  -0.545   7.377   4.567 -0.3840 -1.9832 -1.7563
  764MOL0     H 3095  -0.553   7.327   4.737  0.8366 -1.9955  0.0739
  764MOL0     H 3096  -0.655   7.149   4.513  2.3188  0.1398  0.7722
  764MOL0     H 3097  -0.762   7.258   4.604  0.0693  0.7311 -0.6389
  764MOL0     H 3098  -0.705   7.145   4.819  1.2239  2.5304 -0.0839
  764MOL0     H 3099  -0.584   7.050   4.745 -0.3712  1.9789  0.5166
  764MOL0     H 3100  -0.914   6.800   4.675 -0.1401  0.3505 -1.5540
  764MOL0     H 3101  -1.165   6.697   4.636 -0.7865 -1.1774 -0.1225
  764MOL0     H 3102  -1.112   6.672   4.793  0.4899  0.5672 -0.4936
  764MOL0     H 3103  -1.279   6.748   4.758 -0.4549  0.8092 -0.7406
  764MOL0     H 3104  -1.613   7.062   4.886 -2.1269  0.8734  0.3453
  764MOL0     H 3105  -1.832   7.075   4.834 -1.4738  0.0280 -1.5330
  764MOL0     H 3106  -2.067   6.938   4.795  1.0404  0.1828  0.4444
  764MOL0     H 3107  -2.022   7.107   4.747 -0.6998 -0.2854  0.9126
  764MOL0     H 3108  -2.249   7.088   4.742 -0.4767 -2.0253  0.6313
  764MOL0     H 3109  -2.199   7.082   4.565  0.1633 -0.6748 -0.7816
  764MOL0     H 3110  -2.269   6.853   4.736 -0.1216 -0.8846 -0.1108
  764MOL0     H 3111  -2.249   6.849   4.564 -1.2183  0.7353 -0.3851
  764MOL0     H 3112  -2.458   7.017   4.708 -2.4088  1.5029 -2.1817
  764MOL0     H 3113  -2.436   7.011   4.537  0.1334  0.8865  1.3013
  764MOL0     H 3114  -2.496   6.751   4.688 -0.3026  1.6367  1.3803
  764MOL0     H 3115  -2.517   6.788   4.512  2.5831 -0.3306 -0.1420
  764MOL0     H 3116  -2.674   6.921   4.722  1.6787 -1.6417 -0.1760
  764MOL0     H 3117  -2.704   6.920   4.546  0.5165 -0.5409 -0.7397
  764MOL0     H 3118  -2.742   6.654   4.695  0.7708 -2.1692 -3.5021
  764MOL0     H 3119  -2.771   6.707   4.529  0.9538  3.4329 -1.5711
  764MOL0     H 3120  -2.922   6.900   4.644 -1.4256  1.0994  3.0546
  764MOL0     H 3121  -2.898   6.818   4.794 -1.5453 -1.5069  0.4366
  764MOL0     H 3122  -1.781   6.869   4.458 -3.9890 -0.3226  1.4502
  764MOL0     H 3123  -1.555   6.853   4.494  0.3489  0.6156 -0.7108
  764MOL0     H 3124  -1.151   7.216   4.819  0.3349  0.1710  0.1621
  764MOL0     H 3125  -0.915   7.217   4.770 -1.0362  1.0816 -0.5327
  764MOL0     H 3126  -0.048   8.203   3.590  2.5495 -2.4541 -0.1451
  764MOL0     H 3127   0.102   8.399   3.600 -0.9671  4.0369  1.9381
  764MOL0     H 3128   0.606   8.451   3.615  0.2268  0.6539 -0.9209
  764MOL0     H 3129   0.771   8.628   3.607  0.6836 -1.8029  1.5325
  764MOL0     H 3130   0.731   8.888   3.501 -0.0530  1.2783 -1.3053
  764MOL0     H 3131   0.637   8.994   3.609 -0.1969 -0.9781  0.5984
  764MOL0     H 3132   0.841   9.098   3.480 -0.5207  2.6383  0.2637
  764MOL0     H 3133   0.945   9.005   3.596 -0.6125  0.7814  3.3462
  764MOL0     H 3134   0.939   9.174   3.739  0.0438 -2.5866  0.2433
  764MOL0     H 3135   0.762   9.138   3.766 -1.2650  2.1208  0.3277
  764MOL0     H 3136   0.881   9.357   3.590  1.4354 -2.7208 -2.0239
  764MOL0     H 3137   0.763   9.359   3.717 -0.0819 -0.6180  0.4310
  764MOL0     H 3138   0.536   9.214   3.389 -1.8320  0.5781  2.3790
  764MOL0     H 3139   0.524   8.884   3.851  0.9425  0.7277  0.5930
  764MOL0     H 3140   0.340   8.717   3.838 -1.0264 -1.2970 -1.9066
  765MOL0     O 3141   2.135   5.696   2.228  0.1375  0.5714  0.9404
  765MOL0     C 3142   2.064   5.792   2.220 -0.6533 -0.0467  0.4180
  765MOL0     O 3143   1.927   5.797   2.187  0.1997  0.0063  0.2560
  765MOL0     C 3144   1.871   5.682   2.151  0.6627 -0.1915  0.6424
  765MOL0     C 3145   1.809   5.670   2.020  0.5290  0.1832 -0.1338
  765MOL0     C 3146   1.748   5.553   1.979  0.1865 -0.3314  0.4158
  765MOL0     C 3147   1.747   5.438   2.060 -0.6884 -0.6630  0.0114
  765MOL0     O 3148   1.689   5.323   2.005  0.7580 -0.0122  0.8914
  765MOL0     C 3149   1.683   5.200   2.078 -0.0458  0.0271  0.3590
  765MOL0     C 3150   1.544   5.144   2.120 -0.0190 -0.0795  0.0871
  765MOL0     C 3151   1.472   5.108   1.991 -0.0706 -0.6015 -0.1025
  765MOL0     C 3152   1.326   5.071   2.022  0.3394  0.8028 -0.3915
  765MOL0     C 3153   1.244   5.024   1.891  0.1253  0.0969  0.3356
  765MOL0     C 3154   1.212   5.125   1.787  0.1417 -0.5396 -0.0864
  765MOL0     C 3155   1.104   5.085   1.675 -0.3253 -1.2605  0.2428
  765MOL0     C 3156   1.121   5.174   1.548 -0.2664 -0.5248  1.3036
  765MOL0     N 3157   1.078   5.314   1.568 -0.4300  0.0479 -0.6999
  765MOL0     C 3158   0.966   5.366   1.633 -0.2018 -0.5603  0.3871
  765MOL0     C 3159   0.973   5.505   1.610 -0.4585 -0.0824 -0.8284
  765MOL0     C 3160   0.876   5.607   1.660  0.1042 -0.7767  0.3667
  765MOL0     C 3161   0.737   5.554   1.642 -0.0573 -0.5769 -0.0343
  765MOL0     C 3162   0.625   5.651   1.679  0.7026  0.4266 -0.2256
  765MOL0     C 3163   0.604   5.658   1.834  0.7475  0.5060  0.3417
  765MOL0     O 3164   0.476   5.726   1.850 -0.2736  0.2563 -0.2200
  765MOL0     C 3165   0.399   5.710   1.962 -0.7034 -0.7259 -0.6254
  765MOL0     C 3166   0.431   5.715   2.100 -0.5225  0.3901 -0.8516
  765MOL0     C 3167   0.335   5.691   2.197 -0.1482  1.0028  0.2862
  765MOL0     C 3168   0.396   5.692   2.332 -0.1420 -0.1288  0.3199
  765MOL0     C 3169   0.195   5.687   2.168 -0.2351  0.3059  0.0654
  765MOL0     C 3170   0.086   5.665   2.272  0.7210  0.1998  0.3329
  765MOL0     O 3171  -0.033   5.736   2.230  0.4768  0.2181 -0.2878
  765MOL0     C 3172  -0.136   5.740   2.329  0.5202  0.7702 -0.1662
  765MOL0     C 3173  -0.193   5.620   2.390  0.3640 -0.1541  0.1807
  765MOL0     C 3174  -0.287   5.624   2.485 -0.0561 -0.0397  0.2116
  765MOL0     C 3175  -0.338   5.741   2.533  0.3946 -0.6825 -0.0588
  765MOL0     O 3176  -0.433   5.756   2.626 -0.2811  0.9030  0.6315
  765MOL0     C 3177  -0.513   5.648   2.655  0.2815  0.4339 -0.1956
  765MOL0     C 3178  -0.644   5.704   2.703 -0.5882 -0.2016  0.6157
  765MOL0     C 3179  -0.758   5.601   2.718  0.2191  0.0634 -0.3945
  765MOL0     C 3180  -0.713   5.495   2.815  0.0314  0.1231  0.4151
  765MOL0     C 3181  -0.824   5.393   2.852  0.1175 -0.3932 -0.8114
  765MOL0     C 3182  -0.771   5.272   2.925  0.6226 -0.2007 -1.2183
  765MOL0     C 3183  -0.880   5.193   2.997  1.5414 -0.3997  0.7411
  765MOL0     C 3184  -0.838   5.046   3.030  0.6486  1.2509  0.7793
  765MOL0    Cl 3185  -0.982   4.971   3.104 -0.0635  0.4470  0.0641
  765MOL0     C 3186  -0.288   5.863   2.489 -0.8890  0.4652 -0.1547
  765MOL0     C 3187  -0.183   5.861   2.387 -0.1518 -0.1654 -1.1506
  765MOL0     O 3188   0.095   5.583   2.366 -0.3416  0.5445 -0.1226
  765MOL0     C 3189   0.163   5.708   2.028  0.0733  0.7502  0.0377
  765MOL0     C 3190   0.262   5.716   1.939 -0.3727 -0.1335  0.1677
  765MOL0     N 3191   1.086   5.521   1.532 -0.0911  1.4296 -0.6688
  765MOL0     N 3192   1.145   5.416   1.505  0.6348  0.3856 -0.4230
  765MOL0     C 3193   1.806   5.450   2.190  0.4403  0.2195  0.3009
  765MOL0     C 3194   1.859   5.568   2.234 -0.2577 -0.4496 -0.3900
  765MOL0     C 3195   2.131   5.921   2.255 -0.1112 -0.6334  0.3635
  765MOL0     C 3196   2.268   5.931   2.242  0.3071 -0.8447 -0.2772
  765MOL0     C 3197   2.327   6.049   2.276 -0.4986 -1.1712 -0.0330
  765MOL0     C 3198   2.256   6.155   2.333 -1.1628  0.6052 -0.3642
  765MOL0     O 3199   2.320   6.270   2.379  0.4523 -0.1083  0.7066
  765MOL0     C 3200   2.293   6.387   2.294 -0.1335 -0.2076 -0.0454
  765MOL0     C 3201   2.392   6.385   2.180 -0.4263 -0.5278  0.4396
  765MOL0     C 3202   2.535   6.423   2.219 -0.8415 -1.3664 -0.3536
  765MOL0     C 3203   2.572   6.578   2.235 -0.1793  0.0818  0.4703
  765MOL0     C 3204   2.708   6.604   2.286 -0.0320  0.8648 -1.0132
  765MOL0     C 3205   2.825   6.620   2.325  0.0503 -0.2780  1.0052
  765MOL0     C 3206   2.125   6.136   2.363 -0.2516  0.6038  0.6084
  765MOL0     C 3207   2.062   6.024   2.313 -0.0564  0.8136 -0.9662
  765MOL0     H 3208   1.812   5.756   1.953  2.0592 -0.9643 -1.6201
  765MOL0     H 3209   1.703   5.548   1.880 -0.8953  1.8120  0.7382
  765MOL0     H 3210   1.719   5.130   2.002 -0.6104  1.1409 -0.9882
  765MOL0     H 3211   1.752   5.187   2.162  0.5040 -1.5569 -0.3008
  765MOL0     H 3212   1.559   5.052   2.177  3.0563 -0.2633 -0.8316
  765MOL0     H 3213   1.484   5.213   2.180 -0.6145  0.6170 -1.2578
  765MOL0     H 3214   1.472   5.191   1.919  0.1247  0.5450  1.1776
  765MOL0     H 3215   1.516   5.019   1.944 -3.0055 -2.0835 -0.2193
  765MOL0     H 3216   1.312   4.996   2.100  1.1865  0.6505 -0.3822
  765MOL0     H 3217   1.266   5.157   2.056 -1.8446 -0.7551 -0.0993
  765MOL0     H 3218   1.289   4.929   1.858 -0.4560 -0.9219  2.2986
  765MOL0     H 3219   1.149   4.990   1.934  0.0049 -0.2593 -0.2074
  765MOL0     H 3220   1.188   5.220   1.836  1.6694  0.4151 -1.0885
  765MOL0     H 3221   1.304   5.146   1.731 -1.6215  0.4574 -2.8041
  765MOL0     H 3222   1.126   4.981   1.646  1.2057 -1.6713  2.5526
  765MOL0     H 3223   1.009   5.089   1.729  1.0715 -1.0038  2.8642
  765MOL0     H 3224   1.065   5.129   1.465  0.0785 -0.6645  1.1439
  765MOL0     H 3225   1.228   5.180   1.525 -0.6578  0.9757 -0.2834
  765MOL0     H 3226   0.885   5.313   1.683  0.2534  0.7655  2.6831
  765MOL0     H 3227   0.902   5.638   1.762  4.4072  0.6854 -0.9695
  765MOL0     H 3228   0.883   5.701   1.605  0.6836 -0.4881  0.9204
  765MOL0     H 3229   0.725   5.465   1.704  1.7888 -1.2094 -0.5161
  765MOL0     H 3230   0.732   5.520   1.539  0.0927 -0.9064  0.0671
  765MOL0     H 3231   0.528   5.622   1.638  0.8234 -1.4318  0.6905
  765MOL0     H 3232   0.641   5.752   1.641 -2.5033  0.8586 -0.7252
  765MOL0     H 3233   0.682   5.721   1.876  2.9934 -1.4213 -0.6883
  765MOL0     H 3234   0.610   5.566   1.892  2.3850  2.6263  3.8375
  765MOL0     H 3235   0.537   5.726   2.123 -0.3353 -1.0119 -0.9850
  765MOL0     H 3236   0.328   5.686   2.418  1.8356  3.2630  2.3873
  765MOL0     H 3237   0.462   5.606   2.345 -1.4014 -1.0338  0.9928
  765MOL0     H 3238   0.438   5.792   2.351 -0.8362 -0.1749  2.3519
  765MOL0     H 3239  -0.160   5.522   2.359  1.4918 -0.0180  0.9031
  765MOL0     H 3240  -0.330   5.528   2.512 -2.4747  0.5511 -1.2600
  765MOL0     H 3241  -0.535   5.581   2.570  0.5954 -0.5178  0.4568
  765MOL0     H 3242  -0.455   5.599   2.733  3.0930  4.1593  0.3074
  765MOL0     H 3243  -0.632   5.753   2.800  1.4544  1.4429 -0.3683
  765MOL0     H 3244  -0.691   5.770   2.629 -3.2317 -1.3108  1.2069
  765MOL0     H 3245  -0.786   5.561   2.620 -0.8174 -0.2245  0.0098
  765MOL0     H 3246  -0.842   5.657   2.760  1.3344  1.4010  0.1366
  765MOL0     H 3247  -0.625   5.442   2.781 -0.5118  0.0703 -0.9661
  765MOL0     H 3248  -0.692   5.535   2.915  0.2762  1.8208 -0.2813
  765MOL0     H 3249  -0.863   5.349   2.760 -0.7903 -0.2495 -0.4966
  765MOL0     H 3250  -0.901   5.441   2.912  1.2878  0.9591 -0.3202
  765MOL0     H 3251  -0.722   5.205   2.853 -1.0422 -3.1224  0.1825
  765MOL0     H 3252  -0.697   5.291   3.003 -0.8211 -0.3940  0.2494
  765MOL0     H 3253  -0.973   5.194   2.939  0.7656 -0.2150  1.9576
  765MOL0     H 3254  -0.895   5.236   3.097  0.1706  0.5472  0.1561
  765MOL0     H 3255  -0.755   5.043   3.101 -0.9912  2.8969  2.8884
  765MOL0     H 3256  -0.809   4.989   2.941 -2.1528  0.0612  0.5038
  765MOL0     H 3257  -0.322   5.955   2.536 -1.2709 -1.0370  2.6511
  765MOL0     H 3258  -0.142   5.953   2.349 -0.1961 -0.5343 -2.1174
  765MOL0     H 3259   0.065   5.725   1.985  0.7011  0.2097 -1.6704
  765MOL0     H 3260   0.236   5.740   1.836 -0.4355 -1.4116 -0.1337
  765MOL0     H 3261   1.794   5.373   2.265 -1.0270 -0.2000 -0.3272
  765MOL0     H 3262   1.898   5.562   2.335 -1.9278 -2.9646  0.2129
  765MOL0     H 3263   2.328   5.853   2.196 -0.8847 -2.6014  1.0116
  765MOL0     H 3264   2.432   6.069   2.255 -0.9852 -0.5675 -2.1915
  765MOL0     H 3265   2.191   6.372   2.261 -0.1266  1.1101 -0.7115
  765MOL0     H 3266   2.302   6.477   2.356  0.0261  0.9647 -1.7275
  765MOL0     H 3267   2.363   6.439   2.089 -1.0890  0.9856  1.5083
  765MOL0     H 3268   2.392   6.284   2.138 -0.1593 -0.7792  1.0298
  765MOL0     H 3269   2.603   6.386   2.142 -0.2163  1.0493 -1.0617
  765MOL0     H 3270   2.557   6.365   2.308  1.0521 -0.3678 -0.1193
  765MOL0     H 3271   2.510   6.629   2.310  1.1164  1.5260  0.5912
  765MOL0     H 3272   2.557   6.629   2.140 -1.9103  0.9633  1.1599
  765MOL0     H 3273   2.925   6.633   2.361  0.7571  0.7686 -1.1773
  765MOL0     H 3274   2.066   6.217   2.405  0.2577  0.0947  2.4161
  765MOL0     H 3275   1.956   6.007   2.329  0.4288 -1.4164  0.2025
  766MOL0     O 3276  10.472   0.844  11.276 -0.0847 -0.0329  0.0945
  766MOL0     C 3277  10.480   0.967  11.290  0.1027 -0.2535  0.1348
  766MOL0     O 3278  10.381   1.053  11.289 -0.2739  0.2723  0.4537
  766MOL0     C 3279  10.256   1.002  11.270 -0.0579 -0.3588  0.2472
  766MOL0     C 3280  10.161   1.037  11.360  0.3044  0.2947  0.1526
  766MOL0     C 3281  10.027   1.002  11.333  0.6812  0.4580  0.6417
  766MOL0     C 3282   9.993   0.926  11.220  0.1986 -0.8065  1.3430
  766MOL0     O 3283   9.858   0.909  11.199  0.1604  0.3003  0.4193
  766MOL0     C 3284   9.820   0.895  11.062 -0.1803 -0.0743 -0.1418
  766MOL0     C 3285   9.661   0.922  11.050 -0.8422 -0.2384 -0.0965
  766MOL0     C 3286   9.601   0.892  10.910 -0.9394  0.0848  0.6458
  766MOL0     C 3287   9.463   0.944  10.886  0.7125 -0.2141 -0.6003
  766MOL0     C 3288   9.411   0.922  10.758  1.3163 -0.4171  1.1159
  766MOL0     C 3289   9.348   0.788  10.726 -0.2061 -0.7031 -0.1800
  766MOL0     C 3290   9.254   0.783  10.607 -0.2254 -0.8196  0.0343
  766MOL0     C 3291   9.192   0.645  10.584 -0.4125  0.2586  0.1641
  766MOL0     N 3292   9.283   0.556  10.500  0.4919 -0.5382 -0.4572
  766MOL0     C 3293   9.327   0.579  10.374  0.7502 -0.2125  0.7364
  766MOL0     C 3294   9.351   0.463  10.320 -0.7310  0.7990  0.1179
  766MOL0     C 3295   9.372   0.440  10.172  0.8579 -1.0268 -0.0074
  766MOL0     C 3296   9.260   0.485  10.087  0.3779 -0.4224 -0.2487
  766MOL0     C 3297   9.129   0.430  10.129  0.3821  0.1245 -0.1578
  766MOL0     C 3298   9.104   0.291  10.081  0.3482  0.2956  0.6426
  766MOL0     O 3299   9.116   0.272   9.942 -0.4078  0.5060  0.0967
  766MOL0     C 3300   8.994   0.251   9.873 -0.2259 -0.7047 -0.6596
  766MOL0     C 3301   8.898   0.346   9.849 -0.3680 -1.5068  0.3022
  766MOL0     C 3302   8.771   0.327   9.811  1.1549  0.4154  0.4593
  766MOL0     C 3303   8.673   0.434   9.832 -0.0682 -0.4375 -0.5848
  766MOL0     C 3304   8.731   0.197   9.765  0.1579 -0.0612 -0.9799
  766MOL0     C 3305   8.616   0.181   9.686 -1.2690 -0.7640  0.2396
  766MOL0     O 3306   8.585   0.046   9.662 -0.1880 -0.4473  0.7018
  766MOL0     C 3307   8.469   0.028   9.598 -0.1439 -0.3074  0.6126
  766MOL0     C 3308   8.366  -0.043   9.659 -0.0995 -0.7604  0.4361
  766MOL0     C 3309   8.251  -0.076   9.577 -0.7402  0.1609 -0.0957
  766MOL0     C 3310   8.241  -0.038   9.439  0.9541  0.6421  1.1962
  766MOL0     O 3311   8.131  -0.070   9.356 -0.5605 -0.8718 -0.2195
  766MOL0     C 3312   8.084   0.016   9.258 -0.4295  0.0108  0.0890
  766MOL0     C 3313   8.115  -0.042   9.111  1.1345  0.6123 -0.0115
  766MOL0     C 3314   8.010   0.019   9.006 -0.4648 -1.2445  0.4294
  766MOL0     C 3315   8.040  -0.018   8.866  0.3493 -0.0665 -0.1957
  766MOL0     C 3316   7.931   0.033   8.773 -0.6136  0.5691 -0.1963
  766MOL0     C 3317   7.798  -0.043   8.791 -0.3776 -0.4388 -0.4351
  766MOL0     C 3318   7.701  -0.005   8.681  0.7258 -0.7525  0.4972
  766MOL0     C 3319   7.601  -0.115   8.667  0.5320 -0.0799 -0.2114
  766MOL0    Cl 3320   7.480  -0.115   8.788  0.3023  0.5663 -0.1433
  766MOL0     C 3321   8.339   0.031   9.385  0.7185 -0.5503 -0.4707
  766MOL0     C 3322   8.455   0.061   9.455  0.5891  0.8636 -0.2430
  766MOL0     O 3323   8.556   0.275   9.647  0.1731 -0.5815  0.6376
  766MOL0     C 3324   8.824   0.094   9.781 -0.3049  0.5110 -0.2005
  766MOL0     C 3325   8.956   0.117   9.836  0.3301 -0.2079  0.5710
  766MOL0     N 3326   9.323   0.366  10.410 -0.2517  0.8767  0.3435
  766MOL0     N 3327   9.289   0.424  10.526 -0.3550 -0.1253  0.9299
  766MOL0     C 3328  10.091   0.888  11.130 -0.3136 -0.3227  0.5499
  766MOL0     C 3329  10.220   0.941  11.149  0.4493  0.3214 -0.0786
  766MOL0     C 3330  10.612   1.024  11.309  0.3231 -0.3731  0.1593
  766MOL0     C 3331  10.627   1.163  11.335  0.4544  0.0253 -0.8914
  766MOL0     C 3332  10.750   1.216  11.374  0.2959  0.2891  0.1817
  766MOL0     C 3333  10.863   1.132  11.391 -0.2531  1.2222 -0.5513
  766MOL0     O 3334  10.975   1.198  11.437  0.7531  0.5365  0.9922
  766MOL0     C 3335  11.103   1.124  11.417  0.1788  0.3457  0.3140
  766MOL0     C 3336  11.151   1.105  11.274  0.1664  0.0869 -0.4358
  766MOL0     C 3337  11.170   1.239  11.200 -0.0413 -0.5073  0.2494
  766MOL0     C 3338  11.289   1.328  11.243  0.6297  0.0427  0.3861
  766MOL0     C 3339  11.347   1.375  11.116 -0.9895  0.5920 -1.1380
  766MOL0     C 3340  11.392   1.452  11.033  1.5001  0.3695 -0.5712
  766MOL0     C 3341  10.842   0.992  11.366  0.5517 -0.2050 -0.3586
  766MOL0     C 3342  10.723   0.942  11.320  0.0064  0.3516 -0.3369
  766MOL0     H 3343  10.194   1.096  11.444  0.5225  2.7280 -1.5342
  766MOL0     H 3344   9.943   1.028  11.397 -0.9265  1.3352 -1.6749
  766MOL0     H 3345   9.883   0.965  11.006  1.0190  1.2881  2.6980
  766MOL0     H 3346   9.840   0.793  11.027 -0.4943 -0.0881 -0.2937
  766MOL0     H 3347   9.604   0.864  11.123 -0.6809  0.1702  0.3619
  766MOL0     H 3348   9.645   1.029  11.070  1.9523  0.7250 -2.2902
  766MOL0     H 3349   9.664   0.940  10.835 -2.1227  1.0891  0.2500
  766MOL0     H 3350   9.602   0.789  10.874 -0.1227  0.8011 -1.5650
  766MOL0     H 3351   9.388   0.896  10.949  0.9735 -2.0446 -1.6140
  766MOL0     H 3352   9.451   1.051  10.908 -2.2739 -0.2551 -1.5260
  766MOL0     H 3353   9.331   0.996  10.752  2.1018  0.3619 -1.1966
  766MOL0     H 3354   9.492   0.949  10.688  0.3633 -1.8493 -0.6281
  766MOL0     H 3355   9.427   0.713  10.713  1.2157  0.1784  2.6107
  766MOL0     H 3356   9.285   0.750  10.807 -0.7749 -0.9727 -0.7466
  766MOL0     H 3357   9.172   0.850  10.633 -2.4489 -3.2600 -0.2534
  766MOL0     H 3358   9.304   0.820  10.517 -1.8337 -0.3755 -0.7105
  766MOL0     H 3359   9.103   0.657  10.521  0.2327  3.0392 -0.3324
  766MOL0     H 3360   9.163   0.604  10.681  3.0893 -2.3197  0.3406
  766MOL0     H 3361   9.311   0.676  10.327  1.0736  0.4642  1.9892
  766MOL0     H 3362   9.462   0.494  10.143  0.8008 -0.5281  0.7129
  766MOL0     H 3363   9.386   0.334  10.149 -0.8176 -0.9598 -1.5178
  766MOL0     H 3364   9.278   0.456   9.983 -2.0027 -1.9088 -0.3088
  766MOL0     H 3365   9.261   0.595  10.088 -0.9935 -0.3705 -1.4168
  766MOL0     H 3366   9.049   0.495  10.092 -1.8117 -0.4015  3.1276
  766MOL0     H 3367   9.122   0.441  10.238 -3.3976  1.1874 -0.3527
  766MOL0     H 3368   9.007   0.253  10.115  0.3226 -0.2827 -0.0418
  766MOL0     H 3369   9.179   0.225  10.126 -0.4259 -0.9378  0.1667
  766MOL0     H 3370   8.915   0.448   9.882 -3.7519 -0.6940 -0.1051
  766MOL0     H 3371   8.666   0.488   9.737  3.5640  2.4294  0.5549
  766MOL0     H 3372   8.575   0.405   9.871 -0.3630  2.3577  0.9686
  766MOL0     H 3373   8.711   0.505   9.905  1.9998 -1.6561 -0.4171
  766MOL0     H 3374   8.364  -0.071   9.764 -1.4752 -1.5325  0.2230
  766MOL0     H 3375   8.156  -0.116   9.612 -0.8226 -0.8185 -1.3639
  766MOL0     H 3376   7.975   0.018   9.264 -0.8478 -1.7773 -3.6525
  766MOL0     H 3377   8.103   0.124   9.266  0.3899 -0.0420 -0.9034
  766MOL0     H 3378   8.218  -0.027   9.077  1.8621  0.1220  1.8593
  766MOL0     H 3379   8.094  -0.149   9.109 -0.9884  0.9515 -2.3469
  766MOL0     H 3380   8.021   0.127   9.020 -1.5580 -0.8921 -1.1817
  766MOL0     H 3381   7.910  -0.017   9.032 -0.6646 -1.0436 -0.0457
  766MOL0     H 3382   8.138   0.029   8.849  0.1418  0.9117  1.1290
  766MOL0     H 3383   8.040  -0.125   8.841 -0.8275 -0.0499 -0.3020
  766MOL0     H 3384   7.960   0.017   8.669 -0.0818  3.1206 -0.4849
  766MOL0     H 3385   7.920   0.141   8.779 -1.5231  0.4496  0.4574
  766MOL0     H 3386   7.818  -0.151   8.799 -0.1959 -0.4523 -1.0396
  766MOL0     H 3387   7.756  -0.006   8.885  0.6211 -1.7942  0.6048
  766MOL0     H 3388   7.748   0.008   8.583 -0.8067  0.4534 -0.1242
  766MOL0     H 3389   7.655   0.092   8.701  0.8007 -0.7335  0.5759
  766MOL0     H 3390   7.661  -0.207   8.660 -0.5733 -0.7575 -1.0708
  766MOL0     H 3391   7.543  -0.097   8.576  1.5198  2.7055 -0.3897
  766MOL0     H 3392   8.335   0.071   9.284  2.1098  1.7549  0.3022
  766MOL0     H 3393   8.540   0.109   9.407  1.3003 -0.8381 -0.7731
  766MOL0     H 3394   8.791  -0.008   9.763 -0.6247  0.5686  0.0572
  766MOL0     H 3395   9.027   0.035   9.835  0.8348  0.2019 -1.1443
  766MOL0     H 3396  10.070   0.842  11.034  1.4722  2.9300 -1.5905
  766MOL0     H 3397  10.296   0.933  11.073  2.0219 -0.5539  1.5035
  766MOL0     H 3398  10.540   1.227  11.332 -1.7919 -2.5171  2.2158
  766MOL0     H 3399  10.768   1.321  11.393 -1.2801  0.6401 -0.1352
  766MOL0     H 3400  11.171   1.179  11.484  1.0854 -0.4035  0.0329
  766MOL0     H 3401  11.095   1.027  11.467 -3.1333 -0.0562 -0.7475
  766MOL0     H 3402  11.070   1.054  11.222 -0.2922  0.4019 -0.0397
  766MOL0     H 3403  11.246   1.051  11.265  0.6075  0.6382  0.6329
  766MOL0     H 3404  11.076   1.294  11.201 -1.9307 -3.4729  1.1457
  766MOL0     H 3405  11.176   1.210  11.094 -2.7128 -1.7188  0.3488
  766MOL0     H 3406  11.357   1.263  11.298  0.6173  1.4640  2.2025
  766MOL0     H 3407  11.254   1.405  11.314 -2.2116 -2.7314  2.2872
  766MOL0     H 3408  11.418   1.515  10.950  1.4037 -0.1199 -0.9729
  766MOL0     H 3409  10.932   0.932  11.359  1.4764  0.9926  0.6875
  766MOL0     H 3410  10.709   0.834  11.312 -4.0184  0.6671  0.1609
  767MOL0     O 3411   9.127   1.189   2.741 -0.2014 -0.5301  0.2672
  767MOL0     C 3412   9.164   1.107   2.650 -0.3368 -0.7654  0.0550
  767MOL0     O 3413   9.098   1.038   2.559  0.3268  0.5424  0.4171
  767MOL0     C 3414   8.974   1.079   2.518 -0.1134  0.3393 -0.6561
  767MOL0     C 3415   8.925   1.008   2.410  0.0259  0.0951 -0.6250
  767MOL0     C 3416   8.794   1.029   2.358 -0.4273 -0.2747  0.6186
  767MOL0     C 3417   8.714   1.127   2.422  0.2612  0.0511  0.9627
  767MOL0     O 3418   8.587   1.171   2.384 -0.5696  0.3148  0.8536
  767MOL0     C 3419   8.553   1.132   2.249  0.3089 -0.5738 -0.8926
  767MOL0     C 3420   8.409   1.174   2.226 -0.2774 -0.3152 -0.2320
  767MOL0     C 3421   8.352   1.138   2.089  1.0057  0.5687  0.5351
  767MOL0     C 3422   8.206   1.198   2.069 -0.7559 -0.4410 -0.2340
  767MOL0     C 3423   8.118   1.190   2.186 -0.5291 -0.3543 -0.7572
  767MOL0     C 3424   7.970   1.224   2.156 -1.2426  0.4139  0.6579
  767MOL0     C 3425   7.886   1.236   2.272  0.1744 -0.2326 -0.4965
  767MOL0     C 3426   7.754   1.313   2.263 -0.1677  1.4833 -0.3933
  767MOL0     N 3427   7.650   1.235   2.204 -0.3430 -0.9209 -0.0842
  767MOL0     C 3428   7.648   1.193   2.072 -0.3898 -0.2082 -0.1210
  767MOL0     C 3429   7.530   1.125   2.067 -0.6213  0.8266 -0.0688
  767MOL0     C 3430   7.496   1.062   1.935  0.1858 -0.2753  0.8825
  767MOL0     C 3431   7.380   1.124   1.867 -0.6183 -0.0165 -0.1473
  767MOL0     C 3432   7.260   1.140   1.960 -0.4824  0.0428  0.3813
  767MOL0     C 3433   7.144   1.205   1.888  0.2003  0.5302 -0.2733
  767MOL0     O 3434   7.022   1.206   1.963 -0.2660  0.3183  0.5255
  767MOL0     C 3435   6.909   1.273   1.915 -0.5296  0.0539  0.2765
  767MOL0     C 3436   6.904   1.350   1.801 -0.1650 -0.6868  0.0537
  767MOL0     C 3437   6.791   1.429   1.777  0.3673  0.6147  0.3589
  767MOL0     C 3438   6.787   1.497   1.639 -0.6456  0.0757  0.6725
  767MOL0     C 3439   6.675   1.428   1.869 -0.1865  1.2680 -0.3073
  767MOL0     C 3440   6.551   1.505   1.851 -0.8511 -1.1604 -0.6825
  767MOL0     O 3441   6.444   1.450   1.909 -0.2463  0.1822 -0.0220
  767MOL0     C 3442   6.321   1.497   1.878 -0.4754  0.0171  0.1492
  767MOL0     C 3443   6.238   1.430   1.792  0.4070  0.5653 -0.1200
  767MOL0     C 3444   6.120   1.488   1.747 -0.4973  0.3046 -0.2455
  767MOL0     C 3445   6.088   1.617   1.783 -0.6382 -0.0789 -0.5140
  767MOL0     O 3446   5.979   1.689   1.731 -0.1818 -0.3067 -0.2524
  767MOL0     C 3447   5.875   1.621   1.662  0.4976  0.7779  0.1827
  767MOL0     C 3448   5.764   1.714   1.618  0.2335 -0.0568 -0.4233
  767MOL0     C 3449   5.629   1.633   1.622  0.2274 -1.0373 -0.8731
  767MOL0     C 3450   5.514   1.682   1.538 -0.1220 -1.0351 -0.6465
  767MOL0     C 3451   5.498   1.841   1.528  0.1589 -1.2124  0.3518
  767MOL0     C 3452   5.392   1.876   1.419  0.3258 -0.2058 -0.2656
  767MOL0     C 3453   5.345   2.023   1.424  0.3103 -1.0497 -0.2113
  767MOL0     C 3454   5.327   2.091   1.292  0.0243 -0.4890  1.3475
  767MOL0    Cl 3455   5.185   2.024   1.206  0.8663 -0.0938 -0.1206
  767MOL0     C 3456   6.169   1.680   1.884  0.3041  0.4688 -0.9794
  767MOL0     C 3457   6.284   1.621   1.930 -0.1019 -0.5541  0.3236
  767MOL0     O 3458   6.558   1.604   1.782  0.3753  0.7759 -0.0369
  767MOL0     C 3459   6.683   1.335   1.973  0.3759  0.1209 -1.1023
  767MOL0     C 3460   6.799   1.250   1.996  1.0453  0.9099  0.4473
  767MOL0     N 3461   7.469   1.118   2.188 -0.0273  0.7562 -0.0039
  767MOL0     N 3462   7.546   1.180   2.277 -0.0183  0.1165  0.7300
  767MOL0     C 3463   8.759   1.177   2.540  0.2056  0.4388 -0.5228
  767MOL0     C 3464   8.890   1.164   2.578  0.2987 -0.3289 -0.5598
  767MOL0     C 3465   9.308   1.069   2.653 -0.1465  0.6929  0.6281
  767MOL0     C 3466   9.398   1.145   2.730 -0.1027  1.1983 -0.2451
  767MOL0     C 3467   9.533   1.104   2.737 -1.0976  0.6879 -0.4190
  767MOL0     C 3468   9.585   0.988   2.671  1.3467 -0.0713 -0.6268
  767MOL0     O 3469   9.716   0.954   2.679 -0.7169 -0.2651 -0.6999
  767MOL0     C 3470   9.815   1.005   2.769  0.2371  0.2190 -0.3469
  767MOL0     C 3471   9.818   0.930   2.903 -0.1216 -0.1225 -0.7033
  767MOL0     C 3472   9.949   0.964   2.975 -0.0213  0.4733 -0.3064
  767MOL0     C 3473   9.962   0.895   3.118 -0.4725 -0.1774  0.8431
  767MOL0     C 3474  10.001   0.754   3.103 -1.0431 -0.6279 -0.1090
  767MOL0     C 3475  10.049   0.644   3.088  0.1370  0.0846  0.6147
  767MOL0     C 3476   9.491   0.905   2.606  0.1904  0.7519  0.1547
  767MOL0     C 3477   9.355   0.947   2.587 -0.2407  0.2535  0.7323
  767MOL0     H 3478   8.981   0.925   2.367  2.1681  1.2498 -0.2300
  767MOL0     H 3479   8.758   0.981   2.268 -0.5793  1.0267 -0.0468
  767MOL0     H 3480   8.622   1.176   2.177  0.2588  1.1603  0.0652
  767MOL0     H 3481   8.555   1.023   2.255  2.1566 -0.5686 -0.8602
  767MOL0     H 3482   8.344   1.146   2.310 -2.4902  1.1106 -1.3986
  767MOL0     H 3483   8.403   1.283   2.230  0.9267 -0.2592  1.1421
  767MOL0     H 3484   8.412   1.180   2.007 -0.7283  0.6079 -0.7787
  767MOL0     H 3485   8.337   1.030   2.080 -1.5414  0.7584  1.5674
  767MOL0     H 3486   8.221   1.298   2.029 -0.9840  0.1801  1.1650
  767MOL0     H 3487   8.155   1.139   1.993  1.3406 -2.3600 -0.2826
  767MOL0     H 3488   8.118   1.088   2.226 -2.3563  0.0289  0.3166
  767MOL0     H 3489   8.153   1.262   2.260 -0.2366  3.1308 -4.0217
  767MOL0     H 3490   7.966   1.320   2.105  0.0216  0.5416  0.7635
  767MOL0     H 3491   7.920   1.161   2.082 -2.2971  1.8516  0.1037
  767MOL0     H 3492   7.851   1.138   2.305 -1.8166 -0.4810 -3.0156
  767MOL0     H 3493   7.946   1.288   2.347  0.9841 -1.0765 -0.5568
  767MOL0     H 3494   7.765   1.396   2.194 -0.5024  3.1765  1.4943
  767MOL0     H 3495   7.717   1.347   2.360  0.2701 -4.7469  2.4461
  767MOL0     H 3496   7.710   1.215   1.985  1.5726  0.9882  1.4691
  767MOL0     H 3497   7.588   1.072   1.877 -0.7635 -1.2162 -0.8711
  767MOL0     H 3498   7.473   0.956   1.944  0.1783 -0.3248  0.3027
  767MOL0     H 3499   7.359   1.052   1.787  0.7928 -2.0924  1.2541
  767MOL0     H 3500   7.409   1.225   1.835 -0.4345  0.7388  2.2088
  767MOL0     H 3501   7.300   1.213   2.031  1.8868  0.7002 -1.4832
  767MOL0     H 3502   7.220   1.054   2.015 -4.3873  1.5661  0.2356
  767MOL0     H 3503   7.129   1.143   1.799 -1.4749  1.8620 -0.9894
  767MOL0     H 3504   7.174   1.302   1.848 -0.3868  1.3798  1.2544
  767MOL0     H 3505   6.995   1.346   1.741  0.4410 -3.7688  0.9867
  767MOL0     H 3506   6.870   1.459   1.578 -0.9232 -0.6367  0.7325
  767MOL0     H 3507   6.701   1.470   1.578 -0.4650  2.8881 -0.9890
  767MOL0     H 3508   6.809   1.604   1.639 -0.1681 -0.0189  0.4926
  767MOL0     H 3509   6.254   1.328   1.760  0.6800  1.7346 -4.4474
  767MOL0     H 3510   6.060   1.432   1.677 -0.3428 -0.4043  0.1725
  767MOL0     H 3511   5.913   1.568   1.574  0.2455  0.7474  0.0901
  767MOL0     H 3512   5.829   1.540   1.718 -0.2698  1.6278  0.8136
  767MOL0     H 3513   5.765   1.794   1.693  3.0652 -0.2988 -0.1002
  767MOL0     H 3514   5.778   1.750   1.516 -0.5623 -1.3669 -1.0123
  767MOL0     H 3515   5.594   1.654   1.723  1.7063  0.2038 -0.5839
  767MOL0     H 3516   5.649   1.528   1.602  1.1639 -0.5180 -2.9816
  767MOL0     H 3517   5.527   1.646   1.436  2.2848  0.8697 -1.1002
  767MOL0     H 3518   5.418   1.648   1.579 -0.7511  0.9802 -0.3175
  767MOL0     H 3519   5.591   1.897   1.518  0.0339 -1.2989 -1.6564
  767MOL0     H 3520   5.456   1.876   1.623  1.0355 -0.4111  0.4523
  767MOL0     H 3521   5.448   1.871   1.325  0.5627  0.7596 -0.1859
  767MOL0     H 3522   5.305   1.810   1.416  0.9002 -1.0500  0.9067
  767MOL0     H 3523   5.421   2.080   1.479 -3.1960 -0.5166  4.7490
  767MOL0     H 3524   5.254   2.024   1.485  1.2262  0.6038  1.2065
  767MOL0     H 3525   5.417   2.077   1.232 -1.1177  3.3338 -1.6231
  767MOL0     H 3526   5.310   2.198   1.307  0.9966  0.2811 -2.1048
  767MOL0     H 3527   6.146   1.781   1.914 -2.5693  0.4007 -2.5366
  767MOL0     H 3528   6.350   1.672   1.999 -0.3152  1.7319 -1.0693
  767MOL0     H 3529   6.608   1.312   2.049  2.2619 -2.7074  0.0799
  767MOL0     H 3530   6.778   1.187   2.082 -1.0552  0.4559 -0.3382
  767MOL0     H 3531   8.702   1.248   2.599  0.1625  1.5544 -1.8671
  767MOL0     H 3532   8.913   1.235   2.657 -1.5937  2.6641 -2.4903
  767MOL0     H 3533   9.374   1.230   2.793  3.2688 -0.0898  3.1279
  767MOL0     H 3534   9.592   1.165   2.804 -1.0536 -1.4712  1.6684
  767MOL0     H 3535   9.912   0.993   2.720  0.3195  0.2258 -0.1839
  767MOL0     H 3536   9.803   1.112   2.784 -0.5032 -0.1884  2.6176
  767MOL0     H 3537   9.800   0.824   2.883 -3.8236  0.2552 -0.0514
  767MOL0     H 3538   9.737   0.946   2.975  2.2226 -0.7354  2.2956
  767MOL0     H 3539   9.950   1.071   2.997  0.1730  0.3817  0.1375
  767MOL0     H 3540  10.031   0.925   2.915 -1.2744 -3.8303  0.3897
  767MOL0     H 3541   9.868   0.918   3.169 -0.0664  3.6621  0.1455
  767MOL0     H 3542  10.035   0.955   3.173 -0.2739  0.2976  0.0744
  767MOL0     H 3543  10.100   0.555   3.055  1.8768  1.2554 -0.0360
  767MOL0     H 3544   9.530   0.815   2.559  1.4021  0.9423  0.7575
  767MOL0     H 3545   9.283   0.874   2.551 -1.2165  2.4256 -2.0638
  768MOL0     O 3546   4.543   8.585   2.221 -0.7362 -0.7326 -0.1962
  768MOL0     C 3547   4.569   8.507   2.123 -0.6469 -0.6813 -0.9657
  768MOL0     O 3548   4.479   8.428   2.064  0.3014  0.9975  0.8426
  768MOL0     C 3549   4.345   8.457   2.063 -0.5408 -1.0760 -0.6599
  768MOL0     C 3550   4.300   8.572   2.005  0.2566 -1.5427 -1.0034
  768MOL0     C 3551   4.160   8.599   1.999  0.4473  0.2730 -0.2630
  768MOL0     C 3552   4.078   8.511   2.074 -0.2721 -0.4845 -0.0249
  768MOL0     O 3553   3.942   8.498   2.062  0.2458 -0.2813 -0.1098
  768MOL0     C 3554   3.866   8.603   2.015  0.0994  0.0876  0.1464
  768MOL0     C 3555   3.713   8.576   2.016 -0.2455 -0.1367  0.8721
  768MOL0     C 3556   3.655   8.557   2.149  0.7221 -0.3559 -0.2831
  768MOL0     C 3557   3.504   8.570   2.145  0.2775 -0.2115  0.0400
  768MOL0     C 3558   3.445   8.528   2.278 -0.1140 -0.5553 -0.2166
  768MOL0     C 3559   3.300   8.486   2.270 -0.1110  0.3807 -0.2996
  768MOL0     C 3560   3.250   8.433   2.412  0.1786  0.3276  0.5460
  768MOL0     C 3561   3.112   8.375   2.407 -0.1922 -0.1026 -0.1350
  768MOL0     N 3562   3.108   8.249   2.327 -0.3116 -0.2528 -0.1930
  768MOL0     C 3563   3.156   8.132   2.380  0.0034  0.0229  0.2471
  768MOL0     C 3564   3.097   8.035   2.301 -0.0813  0.5809 -0.2377
  768MOL0     C 3565   3.131   7.893   2.302 -0.3457 -0.5148 -0.4233
  768MOL0     C 3566   3.008   7.806   2.303  0.2132 -0.0095 -0.6426
  768MOL0     C 3567   2.951   7.780   2.447 -0.0778 -0.0379 -0.5640
  768MOL0     C 3568   2.831   7.682   2.444 -0.1350  0.4439 -0.1898
  768MOL0     O 3569   2.706   7.747   2.418  0.1544 -0.7021 -0.8911
  768MOL0     C 3570   2.605   7.668   2.375  0.2157 -0.2594  0.0466
  768MOL0     C 3571   2.537   7.587   2.464 -0.3642  0.2307 -0.1664
  768MOL0     C 3572   2.449   7.498   2.422  0.4553 -0.0139  0.6308
  768MOL0     C 3573   2.381   7.405   2.519 -0.0741 -0.1419 -0.0562
  768MOL0     C 3574   2.414   7.484   2.280 -0.6365 -0.7276 -0.2076
  768MOL0     C 3575   2.327   7.395   2.214  0.6705 -0.3895  0.7320
  768MOL0     O 3576   2.249   7.456   2.121  0.2300 -0.6436 -1.1369
  768MOL0     C 3577   2.165   7.387   2.039  0.4831  0.1966  0.6895
  768MOL0     C 3578   2.121   7.462   1.929 -0.6161  0.2470  1.1235
  768MOL0     C 3579   2.022   7.418   1.840 -0.5649  0.0356  0.0374
  768MOL0     C 3580   1.962   7.290   1.851  0.6055 -0.2071  1.0681
  768MOL0     O 3581   1.873   7.236   1.759 -0.1029 -0.3783  0.1347
  768MOL0     C 3582   1.761   7.313   1.724  0.1931  1.0408  0.3913
  768MOL0     C 3583   1.624   7.234   1.725  0.0980 -0.0347 -0.4889
  768MOL0     C 3584   1.625   7.100   1.640 -0.5727 -0.6473  0.0490
  768MOL0     C 3585   1.612   7.119   1.493  0.0916  0.3497 -0.0549
  768MOL0     C 3586   1.634   6.991   1.423  0.6317  0.8156 -0.9757
  768MOL0     C 3587   1.609   7.024   1.273 -0.2669 -0.2713  0.9288
  768MOL0     C 3588   1.712   7.107   1.199 -0.0662 -0.1077 -0.1506
  768MOL0     C 3589   1.640   7.148   1.070 -0.1788 -0.2924  0.1186
  768MOL0    Cl 3590   1.571   7.006   0.971  0.1957  0.7049 -0.3538
  768MOL0     C 3591   2.003   7.212   1.959  1.5859  0.1821  0.5708
  768MOL0     C 3592   2.106   7.260   2.046 -0.7135  0.1609 -0.1611
  768MOL0     O 3593   2.314   7.274   2.256  0.1840 -0.0548 -0.6819
  768MOL0     C 3594   2.479   7.578   2.190  0.3405  0.6834  0.0514
  768MOL0     C 3595   2.579   7.666   2.236  0.3023 -0.4599 -0.7865
  768MOL0     N 3596   3.012   8.089   2.212  0.0447  0.3831 -0.1617
  768MOL0     N 3597   3.010   8.218   2.239 -0.2839  0.0984 -0.1523
  768MOL0     C 3598   4.128   8.414   2.157 -0.0119  0.1481 -0.3850
  768MOL0     C 3599   4.260   8.387   2.148 -0.0924 -0.1833  0.1899
  768MOL0     C 3600   4.706   8.486   2.071  0.6388 -0.1393 -0.0773
  768MOL0     C 3601   4.815   8.531   2.140 -0.5397  0.1612 -0.4270
  768MOL0     C 3602   4.935   8.530   2.069  0.1135  0.0597  0.1755
  768MOL0     C 3603   4.952   8.485   1.939  0.2460  0.4737 -0.9272
  768MOL0     O 3604   5.066   8.474   1.870  0.3310  0.1209 -0.0130
  768MOL0     C 3605   5.184   8.531   1.930  0.2618  0.1002 -0.6324
  768MOL0     C 3606   5.299   8.475   1.852 -0.3801 -0.3676 -0.1166
  768MOL0     C 3607   5.443   8.514   1.908  0.2405 -0.3805  0.3634
  768MOL0     C 3608   5.540   8.399   1.946 -0.1254  0.8172  0.5769
  768MOL0     C 3609   5.673   8.462   1.942 -0.3677  0.3712 -0.0378
  768MOL0     C 3610   5.789   8.499   1.950 -0.0935 -0.4240 -0.4634
  768MOL0     C 3611   4.835   8.432   1.885  0.5590 -0.5229  0.4379
  768MOL0     C 3612   4.709   8.437   1.943 -0.1544  0.0621 -0.4235
  768MOL0     H 3613   4.374   8.637   1.959  1.1377 -3.0994 -1.8620
  768MOL0     H 3614   4.115   8.681   1.944 -1.5842 -0.3640  0.3515
  768MOL0     H 3615   3.885   8.687   2.083  0.8503 -0.3931  0.5427
  768MOL0     H 3616   3.897   8.623   1.912 -1.0787  3.0958  0.2616
  768MOL0     H 3617   3.660   8.663   1.977 -0.4169  0.0026  1.3971
  768MOL0     H 3618   3.697   8.485   1.957 -1.0552 -0.5514  1.7101
  768MOL0     H 3619   3.683   8.460   2.191  1.2217 -1.3104 -2.6849
  768MOL0     H 3620   3.688   8.632   2.221 -0.7562 -0.9715  1.0849
  768MOL0     H 3621   3.463   8.670   2.130  1.1602  0.3755  1.4118
  768MOL0     H 3622   3.462   8.510   2.063  0.5899  0.4145 -0.5784
  768MOL0     H 3623   3.503   8.439   2.304 -0.6107 -1.4048 -1.8698
  768MOL0     H 3624   3.463   8.609   2.350 -1.2209  0.4268 -1.0111
  768MOL0     H 3625   3.240   8.571   2.234  0.1568  0.6865 -0.0280
  768MOL0     H 3626   3.276   8.410   2.196  0.9535 -0.2988  0.0353
  768MOL0     H 3627   3.322   8.359   2.448 -2.6608 -1.8241  2.2506
  768MOL0     H 3628   3.246   8.521   2.477 -0.0186 -1.0179  2.4317
  768MOL0     H 3629   3.041   8.451   2.371 -1.3860 -0.1485  1.9621
  768MOL0     H 3630   3.084   8.357   2.511  1.3142  1.2414  0.5407
  768MOL0     H 3631   3.239   8.123   2.449  0.4404  2.1950  0.0475
  768MOL0     H 3632   3.184   7.874   2.208 -0.5942 -0.1753 -0.6383
  768MOL0     H 3633   3.191   7.875   2.392 -0.0884 -0.6664 -0.6237
  768MOL0     H 3634   3.030   7.710   2.257 -3.6294 -1.1157 -0.5058
  768MOL0     H 3635   2.927   7.837   2.236  1.0126 -0.9969 -2.1172
  768MOL0     H 3636   2.923   7.869   2.504  0.2031  0.5504 -1.3275
  768MOL0     H 3637   3.035   7.727   2.493  0.3770 -0.4602 -1.8340
  768MOL0     H 3638   2.814   7.629   2.537  0.2798 -1.9985 -1.4260
  768MOL0     H 3639   2.853   7.604   2.371  2.2326 -1.2216  2.1240
  768MOL0     H 3640   2.570   7.591   2.567 -1.2009  1.9739  0.0840
  768MOL0     H 3641   2.440   7.387   2.610  0.3309  0.0369 -0.2793
  768MOL0     H 3642   2.283   7.450   2.535 -0.7936 -0.4693 -2.9539
  768MOL0     H 3643   2.357   7.304   2.484 -0.1061  0.1373 -0.8396
  768MOL0     H 3644   2.161   7.559   1.902  0.9292 -1.1928 -2.5218
  768MOL0     H 3645   2.000   7.492   1.764  0.1008  0.7350  0.5037
  768MOL0     H 3646   1.743   7.396   1.793  0.0397 -0.0160  1.6552
  768MOL0     H 3647   1.786   7.366   1.631  3.6205  1.6012  1.5179
  768MOL0     H 3648   1.606   7.209   1.830 -2.5135  1.6897 -0.4101
  768MOL0     H 3649   1.540   7.296   1.690 -1.7840 -1.8371  0.6187
  768MOL0     H 3650   1.529   7.052   1.661 -1.2449  1.3448  1.8657
  768MOL0     H 3651   1.706   7.032   1.667 -1.1376 -1.0825  0.6715
  768MOL0     H 3652   1.511   7.159   1.480  0.9914  3.2182  0.9572
  768MOL0     H 3653   1.683   7.197   1.466  1.2273 -0.2498  1.0656
  768MOL0     H 3654   1.560   6.920   1.463  0.9732  0.7522 -0.4539
  768MOL0     H 3655   1.730   6.940   1.433  0.1543 -0.0942 -0.8510
  768MOL0     H 3656   1.603   6.930   1.217  1.3381  1.3717 -2.2703
  768MOL0     H 3657   1.507   7.061   1.267 -0.8956 -2.0860 -3.4468
  768MOL0     H 3658   1.798   7.042   1.179  0.5142  0.5941  0.0381
  768MOL0     H 3659   1.749   7.193   1.255 -0.4016 -0.1231  0.0977
  768MOL0     H 3660   1.713   7.202   1.009 -0.0579 -1.0712 -0.4436
  768MOL0     H 3661   1.561   7.220   1.092  0.5923  1.1062 -1.4399
  768MOL0     H 3662   1.955   7.117   1.981  0.3090  0.7265  0.2110
  768MOL0     H 3663   2.121   7.208   2.140 -0.6482  0.4548 -0.0090
  768MOL0     H 3664   2.463   7.571   2.083  0.9882 -0.3356  0.0074
  768MOL0     H 3665   2.629   7.731   2.165  1.9997 -0.9920 -0.1151
  768MOL0     H 3666   4.067   8.346   2.216 -1.4568  0.6543 -1.2449
  768MOL0     H 3667   4.299   8.326   2.229  1.5027  2.3774  1.4523
  768MOL0     H 3668   4.798   8.561   2.243  1.2857  1.2564 -0.4039
  768MOL0     H 3669   5.020   8.560   2.128 -0.1828  1.1692  0.0692
  768MOL0     H 3670   5.179   8.640   1.921  1.0731  0.0667 -1.6887
  768MOL0     H 3671   5.194   8.515   2.038 -0.9320  1.1223 -0.3429
  768MOL0     H 3672   5.291   8.505   1.747  1.8426  4.0776  0.7191
  768MOL0     H 3673   5.287   8.367   1.856  0.1006 -0.3841  1.9215
  768MOL0     H 3674   5.428   8.573   1.999 -0.3991 -0.2219  0.1629
  768MOL0     H 3675   5.490   8.574   1.830 -1.4481  1.3108  0.5794
  768MOL0     H 3676   5.535   8.306   1.889 -2.2739 -0.0580  2.0525
  768MOL0     H 3677   5.524   8.363   2.048 -0.5106 -0.9750 -0.0856
  768MOL0     H 3678   5.887   8.543   1.956 -0.2174  0.3152 -2.8638
  768MOL0     H 3679   4.836   8.396   1.783 -2.1207  0.6121 -0.0587
  768MOL0     H 3680   4.625   8.397   1.888 -0.5893 -1.9302  1.5142
  769MOL0     O 3681   0.514   6.682   5.792  0.5860 -1.0029  0.2643
  769MOL0     C 3682   0.525   6.805   5.811 -0.1672  1.3661  0.0807
  769MOL0     O 3683   0.425   6.893   5.803 -0.8589 -0.8589 -0.2525
  769MOL0     C 3684   0.304   6.842   5.755  0.4427 -0.4623  0.1597
  769MOL0     C 3685   0.288   6.792   5.624  0.5907  0.6533  0.1561
  769MOL0     C 3686   0.159   6.748   5.584 -0.0108 -0.1839 -0.1479
  769MOL0     C 3687   0.051   6.753   5.669  0.1448  0.1388 -0.5884
  769MOL0     O 3688  -0.075   6.710   5.632  0.0157  0.3183 -0.1645
  769MOL0     C 3689  -0.102   6.684   5.490 -0.4813 -0.9805 -0.6858
  769MOL0     C 3690  -0.246   6.648   5.471  0.2975 -1.1105 -0.2957
  769MOL0     C 3691  -0.262   6.592   5.332 -0.7137  0.8041 -0.5886
  769MOL0     C 3692  -0.403   6.582   5.266  0.8309 -0.3938 -0.6147
  769MOL0     C 3693  -0.524   6.508   5.348 -0.9249 -0.1584  0.2799
  769MOL0     C 3694  -0.654   6.576   5.303  0.3740  0.4122 -0.2784
  769MOL0     C 3695  -0.775   6.520   5.376 -0.3530  0.4740  0.7743
  769MOL0     C 3696  -0.902   6.599   5.344  0.6200 -1.4882  0.5652
  769MOL0     N 3697  -0.999   6.576   5.454 -0.6487  0.7970 -0.4582
  769MOL0     C 3698  -1.071   6.464   5.463  0.4170  0.5414 -0.6924
  769MOL0     C 3699  -1.130   6.477   5.589 -0.3262 -0.0244  0.7895
  769MOL0     C 3700  -1.241   6.390   5.637 -0.1201 -0.4674  0.0746
  769MOL0     C 3701  -1.346   6.455   5.720 -0.0396  0.5221 -0.1122
  769MOL0     C 3702  -1.455   6.362   5.761 -0.2133 -0.2961 -0.3754
  769MOL0     C 3703  -1.578   6.430   5.830 -0.0983  0.0251 -0.3834
  769MOL0     O 3704  -1.652   6.324   5.896 -0.0557 -0.6656 -0.1466
  769MOL0     C 3705  -1.755   6.255   5.835  1.2091  0.2188  0.3217
  769MOL0     C 3706  -1.784   6.267   5.698  0.3237  0.2846  0.0577
  769MOL0     C 3707  -1.918   6.244   5.657 -0.1026  1.2079  0.7709
  769MOL0     C 3708  -1.936   6.256   5.505 -0.1776  0.7737 -0.3671
  769MOL0     C 3709  -2.014   6.192   5.740 -0.9658 -0.1855 -0.2951
  769MOL0     C 3710  -2.162   6.161   5.697 -0.0606  0.7480  0.0334
  769MOL0     O 3711  -2.218   6.229   5.600  0.5911  0.3596  0.0835
  769MOL0     C 3712  -2.329   6.184   5.535 -0.6099  0.3319 -1.0546
  769MOL0     C 3713  -2.353   6.051   5.500  1.1101 -0.1929  0.4137
  769MOL0     C 3714  -2.476   6.025   5.430 -0.1347  0.5867  0.6886
  769MOL0     C 3715  -2.570   6.126   5.394 -0.2176  0.3270 -0.4279
  769MOL0     O 3716  -2.689   6.115   5.328 -0.2667 -0.3199  0.4725
  769MOL0     C 3717  -2.742   5.982   5.315 -0.3655 -0.5351 -0.2360
  769MOL0     C 3718  -2.873   5.977   5.234 -0.9488 -0.7321 -0.0677
  769MOL0     C 3719  -2.991   5.984   5.331  0.0963 -0.5789  0.0928
  769MOL0     C 3720  -3.117   5.977   5.253  0.4550 -0.6116  0.4811
  769MOL0     C 3721  -3.246   5.988   5.341 -1.2018 -0.5493  0.4079
  769MOL0     C 3722  -3.378   5.977   5.263  0.8611  0.0000 -0.4572
  769MOL0     C 3723  -3.498   5.981   5.365  0.3744  0.2786  0.9089
  769MOL0     C 3724  -3.617   5.914   5.306 -0.5057 -0.0450  0.0496
  769MOL0    Cl 3725  -3.591   5.729   5.272  0.1151 -0.1321 -0.0098
  769MOL0     C 3726  -2.530   6.254   5.422 -0.0652 -0.2445 -0.1621
  769MOL0     C 3727  -2.417   6.287   5.500  0.4013  0.2769 -0.2476
  769MOL0     O 3728  -2.218   6.067   5.758 -0.0622 -0.2952 -0.3451
  769MOL0     C 3729  -1.978   6.173   5.878  0.0601 -0.2415  0.1842
  769MOL0     C 3730  -1.848   6.200   5.922  0.4160 -0.0720  0.1901
  769MOL0     N 3731  -1.096   6.603   5.642  0.1843  0.0073 -0.5822
  769MOL0     N 3732  -1.011   6.664   5.559  0.4547 -0.3799 -0.1710
  769MOL0     C 3733   0.066   6.806   5.796  0.8295 -0.1121 -0.0186
  769MOL0     C 3734   0.191   6.851   5.839  0.2627 -0.0171 -0.8161
  769MOL0     C 3735   0.656   6.869   5.825 -0.7912 -0.8857 -0.2220
  769MOL0     C 3736   0.695   6.983   5.763  0.1382 -0.1359  0.4462
  769MOL0     C 3737   0.828   7.040   5.772  0.5563 -0.7758 -0.3503
  769MOL0     C 3738   0.918   6.975   5.851 -0.8381 -0.1363 -0.0593
  769MOL0     O 3739   1.040   7.039   5.861 -0.7838  0.5959  0.0718
  769MOL0     C 3740   1.086   7.051   5.990 -0.8357 -0.3418  0.5340
  769MOL0     C 3741   1.087   7.205   6.025  0.0184  0.7535  0.4678
  769MOL0     C 3742   1.191   7.205   6.136 -0.1171  0.2330  0.3845
  769MOL0     C 3743   1.333   7.236   6.081  1.3082  0.0170  0.4311
  769MOL0     C 3744   1.436   7.161   6.161  0.9049  0.9924  0.3963
  769MOL0     C 3745   1.515   7.108   6.238 -1.0186 -0.2316 -0.2576
  769MOL0     C 3746   0.880   6.853   5.924 -0.0465 -0.6302 -0.3308
  769MOL0     C 3747   0.753   6.804   5.903  0.2994  0.0021  0.2393
  769MOL0     H 3748   0.378   6.786   5.564  1.3681 -1.1543  1.4165
  769MOL0     H 3749   0.150   6.702   5.486  1.0179 -3.5366  1.1722
  769MOL0     H 3750  -0.076   6.772   5.430 -0.8639  1.1453  2.0762
  769MOL0     H 3751  -0.041   6.599   5.458 -0.1900 -0.4498 -1.5656
  769MOL0     H 3752  -0.275   6.575   5.548  0.6792 -0.1493  0.7772
  769MOL0     H 3753  -0.301   6.740   5.489  0.5264 -1.2110  1.0019
  769MOL0     H 3754  -0.212   6.660   5.262  3.4144 -0.5380  0.7671
  769MOL0     H 3755  -0.224   6.491   5.315 -0.6841  0.9750 -1.5986
  769MOL0     H 3756  -0.427   6.686   5.244  0.1889  0.4286  3.2480
  769MOL0     H 3757  -0.396   6.523   5.173  1.7349 -2.1389  0.5061
  769MOL0     H 3758  -0.533   6.403   5.319 -2.0714  0.3118 -1.2154
  769MOL0     H 3759  -0.503   6.519   5.454  2.4125  3.2444 -0.4900
  769MOL0     H 3760  -0.641   6.681   5.330 -0.2638  0.4043  0.0865
  769MOL0     H 3761  -0.673   6.568   5.196  0.1429 -1.6941 -0.1087
  769MOL0     H 3762  -0.792   6.415   5.351  1.6804 -0.1917  2.0004
  769MOL0     H 3763  -0.746   6.512   5.482  2.5922 -2.0694 -0.0929
  769MOL0     H 3764  -0.944   6.563   5.249 -3.3756  0.3708  1.4146
  769MOL0     H 3765  -0.880   6.706   5.334 -2.2194 -0.7570  1.2321
  769MOL0     H 3766  -1.068   6.386   5.387 -2.0925 -0.1345 -0.1716
  769MOL0     H 3767  -1.284   6.340   5.550 -1.5446  2.3310 -0.9409
  769MOL0     H 3768  -1.202   6.314   5.706  0.1655 -0.2053  0.2009
  769MOL0     H 3769  -1.391   6.542   5.672 -3.5473  1.7796  4.7452
  769MOL0     H 3770  -1.291   6.497   5.805 -0.3591 -0.1845  0.4527
  769MOL0     H 3771  -1.402   6.300   5.835 -0.4354 -1.1030 -0.8810
  769MOL0     H 3772  -1.492   6.300   5.679 -0.4917 -0.3266 -0.2284
  769MOL0     H 3773  -1.636   6.487   5.756  0.4434  0.6683 -0.3252
  769MOL0     H 3774  -1.541   6.508   5.898  1.8268 -0.8096 -0.4153
  769MOL0     H 3775  -1.708   6.306   5.631  1.1534  1.5711  1.6552
  769MOL0     H 3776  -1.987   6.170   5.463 -0.7290  0.3440  1.1060
  769MOL0     H 3777  -1.995   6.343   5.477 -0.6335  0.3041 -0.8664
  769MOL0     H 3778  -1.838   6.260   5.455  0.9284 -1.9634  1.3206
  769MOL0     H 3779  -2.277   5.973   5.504 -0.0791 -1.3893  0.1239
  769MOL0     H 3780  -2.489   5.923   5.396  0.3300  1.5360 -2.6834
  769MOL0     H 3781  -2.672   5.909   5.275 -1.0979 -2.1358  1.2881
  769MOL0     H 3782  -2.769   5.947   5.415  0.6806 -1.9677 -0.4417
  769MOL0     H 3783  -2.878   6.051   5.154  0.7109 -0.6282 -0.1011
  769MOL0     H 3784  -2.877   5.888   5.170  1.4655 -0.4608 -0.6676
  769MOL0     H 3785  -2.982   6.074   5.392  0.4074 -1.0813  0.8031
  769MOL0     H 3786  -3.003   5.900   5.400  1.7533 -1.7192 -0.9277
  769MOL0     H 3787  -3.112   6.052   5.173  0.3496  0.3470  1.3434
  769MOL0     H 3788  -3.115   5.880   5.204 -0.2254 -0.2402 -0.2980
  769MOL0     H 3789  -3.253   6.085   5.392  0.7810 -0.0712 -0.1311
  769MOL0     H 3790  -3.247   5.905   5.411 -3.9144 -1.5534 -0.6715
  769MOL0     H 3791  -3.381   6.055   5.186 -1.3424  0.8580  0.4041
  769MOL0     H 3792  -3.375   5.885   5.204 -4.5562  1.3041 -3.4613
  769MOL0     H 3793  -3.511   6.084   5.402 -2.8207  1.0491 -1.8762
  769MOL0     H 3794  -3.474   5.913   5.447  2.3245 -1.6570 -1.1148
  769MOL0     H 3795  -3.642   5.972   5.216 -2.0743 -0.2618  0.3209
  769MOL0     H 3796  -3.706   5.918   5.370 -0.5208 -2.2566  0.2206
  769MOL0     H 3797  -2.604   6.327   5.391  0.1757  0.1576  0.2001
  769MOL0     H 3798  -2.401   6.394   5.515 -2.5005  0.7885 -0.2477
  769MOL0     H 3799  -2.051   6.127   5.943 -0.3668  2.1586  1.5113
  769MOL0     H 3800  -1.841   6.200   6.030 -2.3020  1.9393  0.4760
  769MOL0     H 3801  -0.017   6.805   5.866  2.1989  3.3243  1.9014
  769MOL0     H 3802   0.203   6.872   5.945  0.5153 -0.1540 -0.8160
  769MOL0     H 3803   0.615   7.034   5.711 -0.1407 -0.7740  0.2354
  769MOL0     H 3804   0.847   7.132   5.717 -3.4897  0.7916  0.5301
  769MOL0     H 3805   1.023   6.994   6.058 -0.6501 -2.5779 -1.0839
  769MOL0     H 3806   1.188   7.012   5.982  0.1242  2.0961 -0.3902
  769MOL0     H 3807   0.984   7.212   6.061 -0.4383 -0.7992 -0.4514
  769MOL0     H 3808   1.101   7.280   5.947 -1.9069 -0.5934 -1.2577
  769MOL0     H 3809   1.199   7.114   6.197 -2.6798 -0.5016 -0.2685
  769MOL0     H 3810   1.160   7.285   6.203 -0.0384  1.5161 -1.0691
  769MOL0     H 3811   1.352   7.339   6.111 -0.8823  0.1771  1.4846
  769MOL0     H 3812   1.349   7.213   5.976 -2.5790  0.0252 -0.2989
  769MOL0     H 3813   1.584   7.058   6.304 -0.5250  2.2013  1.1785
  769MOL0     H 3814   0.958   6.807   5.984  1.2941  2.2088  0.2871
  769MOL0     H 3815   0.729   6.717   5.963 -1.1021  1.3054  1.6329
  770MOL0     O 3816   2.337  10.933  11.012  0.3945 -0.1578 -0.9084
  770MOL0     C 3817   2.276  10.982  10.926  0.1333  0.1519 -0.3083
  770MOL0     O 3818   2.330  11.039  10.818 -0.3030  0.0426 -0.2454
  770MOL0     C 3819   2.464  11.045  10.790 -0.2347  0.9011 -0.3699
  770MOL0     C 3820   2.559  10.940  10.825  0.5050 -1.2218 -1.0679
  770MOL0     C 3821   2.682  10.945  10.762 -0.1864 -0.5347  0.2086
  770MOL0     C 3822   2.722  11.049  10.680  0.0513  0.2959  0.3506
  770MOL0     O 3823   2.844  11.031  10.629 -0.2386  0.5165  0.0753
  770MOL0     C 3824   2.897  11.130  10.537 -0.7272 -0.1124  0.0482
  770MOL0     C 3825   3.032  11.083  10.484 -0.0713 -0.1456 -0.3158
  770MOL0     C 3826   3.077  11.168  10.372  0.6835  0.2829  0.6954
  770MOL0     C 3827   3.201  11.114  10.298  0.3082 -0.3479 -0.1564
  770MOL0     C 3828   3.254  11.210  10.197  0.1512 -0.9007  0.0812
  770MOL0     C 3829   3.391  11.168  10.152 -0.4547  0.1307 -0.6723
  770MOL0     C 3830   3.450  11.277  10.082 -0.4128 -0.1881 -0.0271
  770MOL0     C 3831   3.595  11.234  10.038 -1.1739 -0.2599 -0.3338
  770MOL0     N 3832   3.622  11.284   9.904 -0.3883 -0.2843 -0.1114
  770MOL0     C 3833   3.537  11.258   9.803  0.4249  0.3374  1.0882
  770MOL0     C 3834   3.604  11.315   9.695  0.4627  0.1061 -0.4669
  770MOL0     C 3835   3.556  11.309   9.556 -0.2929 -1.0878 -0.7762
  770MOL0     C 3836   3.445  11.409   9.517 -0.1378 -0.0875 -0.1259
  770MOL0     C 3837   3.317  11.366   9.575  0.7999 -0.4799  0.1915
  770MOL0     C 3838   3.194  11.460   9.549 -0.0124 -0.5355  0.2217
  770MOL0     O 3839   3.075  11.412   9.604  0.6825 -0.3215 -0.0986
  770MOL0     C 3840   3.050  11.433   9.740  0.5811 -0.4947  0.8104
  770MOL0     C 3841   2.946  11.362   9.789 -0.1674 -0.0126 -0.4671
  770MOL0     C 3842   2.907  11.362   9.917 -0.1214 -0.3128 -0.7521
  770MOL0     C 3843   2.778  11.290   9.950  0.6733  0.3981  0.6269
  770MOL0     C 3844   2.964  11.456  10.011 -0.8075  0.2095 -0.2555
  770MOL0     C 3845   2.913  11.476  10.150  0.3847 -0.4840  0.9196
  770MOL0     O 3846   2.962  11.595  10.217 -0.4253  0.3163 -0.8610
  770MOL0     C 3847   2.913  11.607  10.348 -0.5845 -0.0321  0.3890
  770MOL0     C 3848   2.775  11.628  10.371 -0.1477 -0.2247 -0.3896
  770MOL0     C 3849   2.724  11.639  10.499 -0.0397  0.0938  0.6566
  770MOL0     C 3850   2.809  11.628  10.607  0.2713 -1.0085  0.0272
  770MOL0     O 3851   2.753  11.633  10.738  0.3109 -0.3654  0.1432
  770MOL0     C 3852   2.759  11.507  10.803  0.4524 -0.1012  0.5344
  770MOL0     C 3853   2.678  11.529  10.930 -0.7009  0.0590 -0.3443
  770MOL0     C 3854   2.676  11.397  11.000 -0.4328  0.4740  0.1815
  770MOL0     C 3855   2.601  11.397  11.140  0.1870 -0.2862 -0.5281
  770MOL0     C 3856   2.493  11.290  11.132 -0.0464 -0.4419 -0.1390
  770MOL0     C 3857   2.388  11.302  11.239  0.6218 -0.4383 -0.0433
  770MOL0     C 3858   2.294  11.178  11.219  0.1802 -0.1767  0.0586
  770MOL0     C 3859   2.163  11.198  11.292  0.1806  0.6055  0.4893
  770MOL0    Cl 3860   2.064  11.325  11.214  0.1740  0.5993  0.2957
  770MOL0     C 3861   2.946  11.611  10.584  0.2615 -0.5184 -0.3552
  770MOL0     C 3862   2.995  11.603  10.457  0.1333  0.0943 -0.7631
  770MOL0     O 3863   2.825  11.405  10.198  0.1800 -0.4873  0.3281
  770MOL0     C 3864   3.071  11.536   9.957 -0.0270  0.7259  0.1239
  770MOL0     C 3865   3.115  11.518   9.829 -0.3750  0.2904  0.1348
  770MOL0     N 3866   3.719  11.375   9.745 -0.2005 -0.1595  0.2012
  770MOL0     N 3867   3.735  11.344   9.865 -0.2761  0.1459  0.1802
  770MOL0     C 3868   2.635  11.151  10.649  1.3658  0.1184 -0.3711
  770MOL0     C 3869   2.506  11.147  10.706 -0.7145  0.1887  0.9338
  770MOL0     C 3870   2.130  10.944  10.920  0.1857 -0.4482 -0.2106
  770MOL0     C 3871   2.048  10.981  10.815 -0.3695 -0.3541  0.4352
  770MOL0     C 3872   1.917  10.936  10.797 -0.2221  0.0971 -0.4134
  770MOL0     C 3873   1.866  10.840  10.895 -0.3755 -0.2564 -0.2467
  770MOL0     O 3874   1.739  10.783  10.893 -0.7631 -0.3997 -0.4141
  770MOL0     C 3875   1.634  10.855  10.846 -0.0649 -0.4051  0.0188
  770MOL0     C 3876   1.549  10.907  10.965 -0.2929  0.1353 -0.5112
  770MOL0     C 3877   1.619  11.010  11.051 -0.2632  0.4371 -0.0443
  770MOL0     C 3878   1.532  11.068  11.157  0.4212 -0.1884 -0.3862
  770MOL0     C 3879   1.624  11.157  11.228  0.3451 -0.0369  0.0680
  770MOL0     C 3880   1.705  11.219  11.290 -0.0959 -0.5676 -0.0919
  770MOL0     C 3881   1.949  10.808  11.003 -0.3075 -0.9172 -0.6898
  770MOL0     C 3882   2.076  10.854  11.019  0.3707 -0.2399 -0.6481
  770MOL0     H 3883   2.527  10.857  10.887  0.2925 -1.4622 -1.4940
  770MOL0     H 3884   2.745  10.857  10.769  0.8555 -0.0480 -2.0092
  770MOL0     H 3885   2.827  11.153  10.457 -0.8680 -0.3551  0.1004
  770MOL0     H 3886   2.922  11.224  10.588  0.4095 -1.1129  1.4212
  770MOL0     H 3887   3.105  11.091  10.564  1.6120 -0.8691 -1.7224
  770MOL0     H 3888   3.029  10.976  10.462  1.6464 -0.9806  2.8925
  770MOL0     H 3889   2.998  11.171  10.296  0.6363 -3.2860  0.4742
  770MOL0     H 3890   3.095  11.265  10.420 -1.9000  1.1675  0.0487
  770MOL0     H 3891   3.285  11.104  10.368  1.6897  2.1667 -1.3422
  770MOL0     H 3892   3.171  11.024  10.244 -2.1960  1.0604 -1.2720
  770MOL0     H 3893   3.178  11.213  10.117  1.0417  1.1552 -0.7456
  770MOL0     H 3894   3.255  11.314  10.231 -1.7870 -0.2867 -1.5209
  770MOL0     H 3895   3.455  11.138  10.235  3.9194  0.3894 -3.6482
  770MOL0     H 3896   3.385  11.087  10.078  0.0305 -0.3214 -0.2233
  770MOL0     H 3897   3.384  11.294   9.996 -2.4375 -2.8979  0.8568
  770MOL0     H 3898   3.453  11.373  10.135 -1.7263  1.0382 -2.0021
  770MOL0     H 3899   3.611  11.127  10.028 -0.2077 -0.1874  0.2432
  770MOL0     H 3900   3.675  11.284  10.094 -0.3871 -0.3263 -1.3679
  770MOL0     H 3901   3.445  11.201   9.810  0.2285 -0.0666 -2.7770
  770MOL0     H 3902   3.648  11.334   9.502 -1.0003 -0.5396 -1.7679
  770MOL0     H 3903   3.528  11.205   9.536 -0.9261 -1.5032  1.8346
  770MOL0     H 3904   3.433  11.406   9.408  2.7484  2.9708 -0.6796
  770MOL0     H 3905   3.470  11.512   9.541 -1.3687  0.9335 -2.7974
  770MOL0     H 3906   3.343  11.383   9.680  0.7863  1.5413 -0.0938
  770MOL0     H 3907   3.297  11.266   9.536 -1.1030  0.0828 -0.3798
  770MOL0     H 3908   3.172  11.480   9.444 -0.3157 -1.1209  0.1650
  770MOL0     H 3909   3.229  11.557   9.585 -0.2314 -1.1566  2.2723
  770MOL0     H 3910   2.901  11.303   9.710 -1.5202  1.3914 -0.7821
  770MOL0     H 3911   2.787  11.231  10.041  1.4546  0.5666  0.6640
  770MOL0     H 3912   2.691  11.352   9.972  0.6776 -0.7064  4.3907
  770MOL0     H 3913   2.758  11.223   9.865 -0.0975  0.8846  0.4134
  770MOL0     H 3914   2.706  11.622  10.287 -1.5505 -1.6963  0.7963
  770MOL0     H 3915   2.621  11.669  10.518 -0.0348  0.7458 -0.3025
  770MOL0     H 3916   2.731  11.428  10.732  4.1640  0.4911 -1.9038
  770MOL0     H 3917   2.863  11.493  10.833  0.2277 -2.5702  0.3589
  770MOL0     H 3918   2.729  11.603  10.992 -0.7751 -1.6681  1.9117
  770MOL0     H 3919   2.576  11.564  10.912 -0.2427  0.6774 -1.8107
  770MOL0     H 3920   2.777  11.359  11.018  0.2366  1.4753 -1.2235
  770MOL0     H 3921   2.624  11.332  10.929  1.2043  0.6634 -1.2690
  770MOL0     H 3922   2.667  11.370  11.223  0.7956  0.5945 -0.7051
  770MOL0     H 3923   2.560  11.496  11.160  0.2519  0.2463 -2.6968
  770MOL0     H 3924   2.540  11.192  11.141 -1.6791 -1.0347  4.3121
  770MOL0     H 3925   2.450  11.290  11.031  0.0995  0.6194 -0.2170
  770MOL0     H 3926   2.438  11.288  11.335  2.5638  1.8794 -0.6223
  770MOL0     H 3927   2.335  11.397  11.248  2.1919  0.5495 -0.7362
  770MOL0     H 3928   2.345  11.087  11.251  2.6899  1.4324  0.9509
  770MOL0     H 3929   2.273  11.171  11.112  2.2489  0.1652 -0.4098
  770MOL0     H 3930   2.193  11.217  11.396  1.2518 -0.5905  0.4112
  770MOL0     H 3931   2.099  11.110  11.283  2.0437 -1.0677  2.5796
  770MOL0     H 3932   3.016  11.623  10.666 -0.3688  0.8191  0.0157
  770MOL0     H 3933   3.097  11.566  10.450  0.1545  0.1399 -0.6870
  770MOL0     H 3934   3.128  11.607  10.016  1.2146 -0.5158  0.4592
  770MOL0     H 3935   3.197  11.584   9.804  0.2630 -0.2263  0.8003
  770MOL0     H 3936   2.671  11.231  10.584  3.5545  0.1147  0.7613
  770MOL0     H 3937   2.430  11.223  10.691  1.0649  1.5921 -1.8014
  770MOL0     H 3938   2.081  11.051  10.739 -1.0852  1.1681  1.4699
  770MOL0     H 3939   1.852  10.966  10.715  0.0494 -1.9844 -1.4580
  770MOL0     H 3940   1.660  10.932  10.773 -1.7558  0.2366  0.0471
  770MOL0     H 3941   1.580  10.782  10.786 -0.5398 -0.0231 -0.0286
  770MOL0     H 3942   1.510  10.823  11.024 -4.2827  2.1017  0.0368
  770MOL0     H 3943   1.459  10.951  10.921 -0.6902 -1.0330 -0.9046
  770MOL0     H 3944   1.647  11.091  10.982 -1.4319  0.6033 -0.3400
  770MOL0     H 3945   1.714  10.976  11.092  0.6427  1.6493 -1.0531
  770MOL0     H 3946   1.507  10.989  11.228 -0.5476  0.8261  0.4598
  770MOL0     H 3947   1.443  11.120  11.120  0.8573  0.3582 -0.6760
  770MOL0     H 3948   1.779  11.273  11.345  0.0991 -2.4931  1.6731
  770MOL0     H 3949   1.910  10.746  11.083 -1.2511 -0.0346 -0.4497
  770MOL0     H 3950   2.138  10.821  11.102  1.0281 -0.4339 -1.2068
  771MOL0     O 3951   3.268   2.948   0.633  0.6807 -0.2150  0.1074
  771MOL0     C 3952   3.285   2.868   0.537  0.2800  0.3244 -0.4592
  771MOL0     O 3953   3.250   2.891   0.404  0.3197 -0.0920 -0.1833
  771MOL0     C 3954   3.166   2.985   0.376 -0.1177 -0.3380  0.4201
  771MOL0     C 3955   3.060   2.968   0.287 -0.0809  0.2634 -0.0210
  771MOL0     C 3956   2.972   3.075   0.260 -0.4690  0.1626  0.2974
  771MOL0     C 3957   2.985   3.202   0.308 -0.0411 -0.6853  0.6675
  771MOL0     O 3958   2.895   3.298   0.272  0.2038 -0.7152 -0.6814
  771MOL0     C 3959   2.911   3.437   0.312  0.1296 -0.1615  0.4428
  771MOL0     C 3960   2.844   3.535   0.212  0.0405 -0.0482  0.6348
  771MOL0     C 3961   2.695   3.509   0.205 -0.2360  0.3249 -0.8981
  771MOL0     C 3962   2.632   3.594   0.093  0.7039  0.8045 -0.3587
  771MOL0     C 3963   2.478   3.596   0.098 -0.4307 -0.0234 -0.0988
  771MOL0     C 3964   2.416   3.672  -0.014 -0.3438 -0.2294  0.9174
  771MOL0     C 3965   2.270   3.690   0.008  0.2494  0.2446  0.1583
  771MOL0     C 3966   2.197   3.717  -0.121 -0.5271 -0.6902  0.2909
  771MOL0     N 3967   2.254   3.835  -0.197  0.6491  0.0956  0.3172
  771MOL0     C 3968   2.181   3.951  -0.204 -0.4082 -0.2708  0.8170
  771MOL0     C 3969   2.232   4.012  -0.312 -0.0888 -0.3825  0.1850
  771MOL0     C 3970   2.186   4.147  -0.378 -0.5665 -0.3565  0.4687
  771MOL0     C 3971   2.288   4.183  -0.486  0.9606 -0.1366 -0.5058
  771MOL0     C 3972   2.244   4.322  -0.536 -0.4715 -0.1103 -0.8520
  771MOL0     C 3973   2.131   4.324  -0.640 -0.1809  1.1327 -0.8181
  771MOL0     O 3974   1.999   4.306  -0.578 -0.2550  0.2414 -0.0064
  771MOL0     C 3975   1.925   4.408  -0.536 -0.1350  0.0723 -0.6616
  771MOL0     C 3976   1.966   4.470  -0.427  0.5737 -0.2403 -1.0168
  771MOL0     C 3977   1.896   4.584  -0.383 -0.3020 -0.1705 -0.0843
  771MOL0     C 3978   1.958   4.664  -0.278 -0.7926 -0.4003 -0.1115
  771MOL0     C 3979   1.774   4.629  -0.439  0.5656 -0.3779  0.6213
  771MOL0     C 3980   1.691   4.749  -0.397  0.0322 -0.3361 -0.9454
  771MOL0     O 3981   1.583   4.776  -0.476 -0.5350 -0.0627  0.7664
  771MOL0     C 3982   1.462   4.780  -0.422 -0.0382  0.7460 -0.0764
  771MOL0     C 3983   1.358   4.790  -0.515 -0.1598 -0.3403  0.1549
  771MOL0     C 3984   1.225   4.764  -0.482  0.2238  0.4448  0.5178
  771MOL0     C 3985   1.186   4.752  -0.347 -0.6079  0.3920 -0.1016
  771MOL0     O 3986   1.060   4.734  -0.332  0.7817  0.1702 -0.3709
  771MOL0     C 3987   1.007   4.820  -0.231  0.0340 -1.2735  0.1107
  771MOL0     C 3988   0.961   4.730  -0.119  0.3944 -0.7265 -0.1569
  771MOL0     C 3989   0.857   4.630  -0.163  1.1594  0.0021  0.2396
  771MOL0     C 3990   0.733   4.692  -0.238  0.4419  0.7801  0.5318
  771MOL0     C 3991   0.625   4.586  -0.254  0.6268  0.1590  0.3585
  771MOL0     C 3992   0.534   4.562  -0.134  0.4256  1.1149 -1.4405
  771MOL0     C 3993   0.434   4.444  -0.154 -0.7336 -0.0213 -0.5678
  771MOL0     C 3994   0.327   4.463  -0.264 -0.2161 -0.1589  0.2845
  771MOL0    Cl 3995   0.219   4.325  -0.272  0.0529  0.0654  0.2487
  771MOL0     C 3996   1.285   4.753  -0.246 -0.4657  0.2351 -1.0666
  771MOL0     C 3997   1.419   4.770  -0.284 -0.5360 -0.3401 -1.1782
  771MOL0     O 3998   1.720   4.812  -0.301 -0.2910  0.0972 -0.1451
  771MOL0     C 3999   1.735   4.550  -0.550  0.0325 -0.8930  0.2860
  771MOL0     C 4000   1.815   4.449  -0.595 -0.1578 -0.8358 -0.0838
  771MOL0     N 4001   2.337   3.937  -0.356  0.4793 -0.5460  0.1641
  771MOL0     N 4002   2.355   3.829  -0.288  0.1529  0.6353  0.1715
  771MOL0     C 4003   3.093   3.224   0.397  0.0432  1.6053  0.4641
  771MOL0     C 4004   3.179   3.122   0.424 -0.2458  0.7943 -0.3213
  771MOL0     C 4005   3.346   2.740   0.575 -0.3100  0.1585 -0.0084
  771MOL0     C 4006   3.417   2.664   0.485  0.2108 -0.2365 -0.0516
  771MOL0     C 4007   3.478   2.548   0.524 -0.4930 -0.3070 -0.4473
  771MOL0     C 4008   3.464   2.494   0.658  0.5962 -0.1940  0.5279
  771MOL0     O 4009   3.538   2.382   0.676  0.0901  0.5089 -0.4367
  771MOL0     C 4010   3.518   2.309   0.800  0.1097 -0.3621 -0.3729
  771MOL0     C 4011   3.603   2.181   0.799  0.3797  0.1963  1.1582
  771MOL0     C 4012   3.616   2.110   0.931 -0.8722  1.2965 -0.7415
  771MOL0     C 4013   3.697   1.975   0.923 -0.1242 -0.0547  0.9432
  771MOL0     C 4014   3.742   1.942   1.058  0.0791 -0.2433 -0.5856
  771MOL0     C 4015   3.786   1.909   1.171  1.0825 -0.7994 -0.8542
  771MOL0     C 4016   3.388   2.572   0.750 -0.5443 -0.0931 -0.1719
  771MOL0     C 4017   3.336   2.694   0.710  0.2840  0.0338 -0.1781
  771MOL0     H 4018   3.054   2.874   0.232 -0.7354 -0.3883  1.1343
  771MOL0     H 4019   2.882   3.043   0.208 -0.4813 -0.3587  0.6343
  771MOL0     H 4020   2.846   3.453   0.399  0.1535 -0.3905  0.5043
  771MOL0     H 4021   3.015   3.462   0.334  0.3434  1.5270 -2.1494
  771MOL0     H 4022   2.863   3.637   0.246 -2.3835  0.7398 -0.2304
  771MOL0     H 4023   2.889   3.513   0.114  1.2643  2.4174  0.5721
  771MOL0     H 4024   2.686   3.402   0.182 -1.6762  0.3772 -0.6555
  771MOL0     H 4025   2.642   3.537   0.296 -0.0393 -2.4625  0.1939
  771MOL0     H 4026   2.668   3.697   0.101 -0.0833  1.0989 -0.5937
  771MOL0     H 4027   2.668   3.547   0.000  1.7489  2.3554 -0.7773
  771MOL0     H 4028   2.454   3.490   0.086  2.6257 -1.0633  1.8546
  771MOL0     H 4029   2.432   3.639   0.188 -1.2797  1.7748 -1.3265
  771MOL0     H 4030   2.458   3.771  -0.033  1.2334 -0.9511  0.5138
  771MOL0     H 4031   2.435   3.612  -0.104 -1.2024  0.8449 -0.0150
  771MOL0     H 4032   2.234   3.602   0.062  1.5725 -2.1383 -2.4979
  771MOL0     H 4033   2.265   3.769   0.083  3.5000 -1.4665  2.4842
  771MOL0     H 4034   2.091   3.735  -0.101 -0.4024 -0.3081  0.6141
  771MOL0     H 4035   2.200   3.627  -0.184 -1.2715  0.6264 -1.7411
  771MOL0     H 4036   2.100   3.993  -0.144  2.0867  2.1565  2.7266
  771MOL0     H 4037   2.088   4.124  -0.422 -1.6068 -1.4265  3.1352
  771MOL0     H 4038   2.173   4.214  -0.293 -3.1424 -2.3489  1.7889
  771MOL0     H 4039   2.276   4.108  -0.566 -0.6846  0.3998 -0.8033
  771MOL0     H 4040   2.390   4.187  -0.448  0.5502  1.3864  0.5072
  771MOL0     H 4041   2.329   4.369  -0.587 -0.8006 -0.7736 -2.0267
  771MOL0     H 4042   2.217   4.384  -0.450 -1.2769  1.7538 -2.3784
  771MOL0     H 4043   2.149   4.242  -0.710  1.3116 -1.8930  2.7271
  771MOL0     H 4044   2.133   4.419  -0.694  0.2385  1.9653  0.5889
  771MOL0     H 4045   2.049   4.443  -0.362 -0.3208  0.0236  0.2694
  771MOL0     H 4046   1.954   4.772  -0.294  0.4660 -0.5085 -1.2833
  771MOL0     H 4047   1.911   4.636  -0.184  1.8723 -3.4720  0.4817
  771MOL0     H 4048   2.064   4.640  -0.279 -0.8831 -0.8515 -1.8106
  771MOL0     H 4049   1.383   4.807  -0.619  2.4423 -1.7142  0.4474
  771MOL0     H 4050   1.157   4.774  -0.566  2.1421  1.0564 -1.0319
  771MOL0     H 4051   1.078   4.895  -0.195 -0.8848 -0.8336  1.0829
  771MOL0     H 4052   0.922   4.878  -0.270  0.2885 -1.6109 -0.9848
  771MOL0     H 4053   1.038   4.664  -0.078  0.1846 -3.8686 -4.2510
  771MOL0     H 4054   0.917   4.798  -0.045 -0.0832  0.6669 -1.6669
  771MOL0     H 4055   0.817   4.575  -0.077  1.6207 -0.3411  0.2369
  771MOL0     H 4056   0.914   4.562  -0.227 -0.9164 -0.8990 -0.7449
  771MOL0     H 4057   0.693   4.785  -0.198  1.6536  0.5448  2.4290
  771MOL0     H 4058   0.776   4.726  -0.333  2.0584 -3.5035 -0.4879
  771MOL0     H 4059   0.672   4.493  -0.288  0.4714 -0.7617  2.4629
  771MOL0     H 4060   0.556   4.628  -0.327  2.3630  3.2554  0.3467
  771MOL0     H 4061   0.596   4.526  -0.051 -0.9814 -0.1882 -0.9008
  771MOL0     H 4062   0.491   4.658  -0.107  1.2374  1.6221 -1.8957
  771MOL0     H 4063   0.378   4.428  -0.062 -2.3260  0.6762 -1.3625
  771MOL0     H 4064   0.487   4.350  -0.169  3.4305  1.7071  1.6451
  771MOL0     H 4065   0.394   4.479  -0.349 -0.7222 -0.5263 -0.1943
  771MOL0     H 4066   0.269   4.552  -0.237 -0.8543 -0.1869 -0.8796
  771MOL0     H 4067   1.264   4.739  -0.140 -0.8905 -0.7606 -1.2764
  771MOL0     H 4068   1.494   4.772  -0.205  0.9570 -0.3110 -2.5581
  771MOL0     H 4069   1.650   4.590  -0.604  0.0762 -2.6393 -1.2033
  771MOL0     H 4070   1.790   4.407  -0.692 -2.0953  2.9661 -1.4375
  771MOL0     H 4071   3.101   3.319   0.449 -0.1902  0.6278  2.3720
  771MOL0     H 4072   3.264   3.150   0.486  1.2171  1.1987 -2.3862
  771MOL0     H 4073   3.430   2.693   0.381  3.3863  1.7273  0.7509
  771MOL0     H 4074   3.530   2.485   0.452 -0.8175 -0.4086 -0.5954
  771MOL0     H 4075   3.550   2.372   0.883  0.9383 -1.2054 -0.0410
  771MOL0     H 4076   3.416   2.272   0.818 -0.4566  0.4538 -1.7323
  771MOL0     H 4077   3.702   2.221   0.774  0.3522  1.8123  3.4064
  771MOL0     H 4078   3.571   2.122   0.712  1.3013  2.6205 -0.9368
  771MOL0     H 4079   3.520   2.090   0.978  1.1682  1.4438  4.0656
  771MOL0     H 4080   3.656   2.179   1.006 -1.6800  3.2956 -2.0556
  771MOL0     H 4081   3.781   1.989   0.854 -2.1294  1.7529 -1.2842
  771MOL0     H 4082   3.633   1.895   0.885 -0.2481  1.1180 -1.5185
  771MOL0     H 4083   3.832   1.872   1.261 -3.9297 -0.7962  2.0460
  771MOL0     H 4084   3.363   2.529   0.847  1.4747 -0.6935  0.1252
  771MOL0     H 4085   3.266   2.747   0.773 -2.3161 -2.7987 -0.4454
  772MOL0     O 4086   6.606   0.588   6.941 -0.2004 -0.5009  0.7144
  772MOL0     C 4087   6.645   0.498   7.010  0.3183  0.2035 -0.5449
  772MOL0     O 4088   6.562   0.423   7.098  0.0585 -0.0141  0.8321
  772MOL0     C 4089   6.434   0.459   7.129 -0.0082 -0.3015 -0.0606
  772MOL0     C 4090   6.343   0.358   7.145  0.6293  0.4168 -0.3748
  772MOL0     C 4091   6.210   0.386   7.189 -0.2088 -0.3565 -0.3502
  772MOL0     C 4092   6.173   0.522   7.205 -0.2044 -0.8896  0.7249
  772MOL0     O 4093   6.046   0.557   7.247 -0.2862  0.9098 -0.2503
  772MOL0     C 4094   5.945   0.538   7.146  0.0941 -0.3805  0.3798
  772MOL0     C 4095   5.810   0.572   7.215 -0.5114 -0.8017  0.0880
  772MOL0     C 4096   5.713   0.593   7.098  0.3855  0.0759 -0.8003
  772MOL0     C 4097   5.577   0.626   7.155  0.6045  0.5819  0.4392
  772MOL0     C 4098   5.488   0.697   7.057  0.6745  0.1381  0.5709
  772MOL0     C 4099   5.450   0.635   6.914 -0.3445 -0.3103 -0.2998
  772MOL0     C 4100   5.409   0.493   6.933 -0.9770 -0.6128 -0.4577
  772MOL0     C 4101   5.327   0.429   6.816  0.5468  1.1929 -0.8232
  772MOL0     N 4102   5.200   0.489   6.794 -0.0299 -0.1909 -0.7866
  772MOL0     C 4103   5.149   0.563   6.690 -0.5437 -0.3707 -0.9032
  772MOL0     C 4104   5.047   0.636   6.742 -0.5692  0.1305  0.1212
  772MOL0     C 4105   4.960   0.728   6.668 -0.3691 -0.9697 -0.3663
  772MOL0     C 4106   4.867   0.650   6.570  0.0292  0.1509  0.6290
  772MOL0     C 4107   4.768   0.565   6.657 -0.1686  0.0665 -0.2769
  772MOL0     C 4108   4.642   0.511   6.575  0.5598  0.5732  0.2111
  772MOL0     O 4109   4.573   0.615   6.505  0.0104  0.7402  0.8443
  772MOL0     C 4110   4.436   0.607   6.491  0.1931 -0.1772  0.3220
  772MOL0     C 4111   4.339   0.519   6.544 -0.4939 -0.4204  0.0422
  772MOL0     C 4112   4.202   0.546   6.515 -0.2071  0.1234 -0.5498
  772MOL0     C 4113   4.107   0.431   6.567 -0.6793  0.7017 -0.4562
  772MOL0     C 4114   4.153   0.659   6.444 -0.4274  0.4687 -0.0492
  772MOL0     C 4115   4.011   0.693   6.419  0.3230 -0.9085  0.5702
  772MOL0     O 4116   3.995   0.815   6.344  0.0914  0.1356 -0.4043
  772MOL0     C 4117   3.880   0.885   6.318 -0.1687  0.2519  0.5717
  772MOL0     C 4118   3.759   0.871   6.388 -0.4104  0.7164  0.2777
  772MOL0     C 4119   3.644   0.937   6.339 -0.3455 -0.8587  0.0827
  772MOL0     C 4120   3.641   1.014   6.217 -0.2927  0.4452 -0.0920
  772MOL0     O 4121   3.528   1.068   6.160 -0.1363 -0.2065 -0.4220
  772MOL0     C 4122   3.420   1.109   6.252 -0.0895  0.3818  0.7964
  772MOL0     C 4123   3.354   1.237   6.187  0.4885 -0.3441 -0.2279
  772MOL0     C 4124   3.210   1.254   6.251  0.0356 -1.1034 -0.1007
  772MOL0     C 4125   3.152   1.401   6.220 -0.8498 -0.8302  0.5337
  772MOL0     C 4126   3.000   1.414   6.245 -0.1863  0.0248 -0.1448
  772MOL0     C 4127   2.947   1.543   6.188  0.1471 -0.3037  0.3797
  772MOL0     C 4128   2.791   1.553   6.204 -0.7223 -0.1173 -0.3006
  772MOL0     C 4129   2.723   1.443   6.129 -0.6842  0.2195 -0.0860
  772MOL0    Cl 4130   2.554   1.484   6.118 -0.5762 -0.0760  0.0820
  772MOL0     C 4131   3.765   1.019   6.154  0.9578 -0.6357 -0.3014
  772MOL0     C 4132   3.876   0.957   6.199 -0.1844 -0.5920 -0.4072
  772MOL0     O 4133   3.917   0.627   6.465 -0.6580  0.1900  0.0607
  772MOL0     C 4134   4.251   0.738   6.392 -0.0243  0.9795  0.5791
  772MOL0     C 4135   4.389   0.716   6.408  0.5065  0.3129  0.4377
  772MOL0     N 4136   5.021   0.579   6.864  0.7962 -0.4740 -0.1499
  772MOL0     N 4137   5.112   0.488   6.895  0.2907  1.0542 -0.3227
  772MOL0     C 4138   6.268   0.625   7.181  0.4164 -0.7465 -0.5403
  772MOL0     C 4139   6.397   0.595   7.147  0.0214  0.4620 -0.4926
  772MOL0     C 4140   6.789   0.460   6.996 -0.0432  0.5878 -0.3868
  772MOL0     C 4141   6.871   0.541   6.916  0.8535  0.0045  0.1876
  772MOL0     C 4142   7.011   0.522   6.927 -0.2047  0.1149  0.1156
  772MOL0     C 4143   7.065   0.404   6.983 -0.2418 -0.1117  0.0414
  772MOL0     O 4144   7.193   0.388   7.000 -0.5775  0.3245  0.5254
  772MOL0     C 4145   7.301   0.406   6.909 -0.5130 -0.0161  0.3330
  772MOL0     C 4146   7.345   0.281   6.830 -1.1383  0.4325  0.3721
  772MOL0     C 4147   7.438   0.195   6.924 -0.8894  0.1465  0.7737
  772MOL0     C 4148   7.591   0.215   6.881  0.1241  0.0301 -0.0297
  772MOL0     C 4149   7.645   0.350   6.910 -0.2155  0.9439  0.7678
  772MOL0     C 4150   7.692   0.461   6.919 -0.0921  0.4711 -0.3959
  772MOL0     C 4151   6.980   0.327   7.058 -0.2485 -0.4049 -0.6589
  772MOL0     C 4152   6.842   0.347   7.062 -0.1830 -0.2024 -0.0277
  772MOL0     H 4153   6.368   0.258   7.112 -0.5324  0.1904 -0.6041
  772MOL0     H 4154   6.130   0.314   7.204 -2.2054  1.9491  0.8304
  772MOL0     H 4155   5.968   0.608   7.065  0.8365  0.4923  1.3204
  772MOL0     H 4156   5.952   0.438   7.101  0.4844 -0.3048  0.2622
  772MOL0     H 4157   5.781   0.498   7.290 -0.8539 -0.3002  0.4542
  772MOL0     H 4158   5.829   0.667   7.266 -0.9657 -0.0804 -1.0380
  772MOL0     H 4159   5.736   0.678   7.033 -2.4322  0.4510 -1.4074
  772MOL0     H 4160   5.708   0.502   7.037 -2.2141 -0.3249 -0.1027
  772MOL0     H 4161   5.535   0.529   7.182  2.2404 -0.3429 -0.1887
  772MOL0     H 4162   5.595   0.690   7.241  0.1671 -0.9025  1.6837
  772MOL0     H 4163   5.395   0.719   7.109  1.3189 -1.3274  2.4789
  772MOL0     H 4164   5.532   0.795   7.038  0.0965  0.5469  1.3279
  772MOL0     H 4165   5.370   0.693   6.868  1.5581  0.9797 -2.1761
  772MOL0     H 4166   5.541   0.636   6.853 -0.6339  3.2766 -0.9004
  772MOL0     H 4167   5.499   0.436   6.955  1.0492  2.3735 -0.4740
  772MOL0     H 4168   5.356   0.482   7.028 -1.6483 -0.5542 -0.8172
  772MOL0     H 4169   5.316   0.321   6.830  0.1882  1.1968 -1.0692
  772MOL0     H 4170   5.390   0.439   6.727 -1.1010 -2.5579 -2.6283
  772MOL0     H 4171   5.202   0.560   6.595  0.8232 -2.0567 -0.1442
  772MOL0     H 4172   4.897   0.783   6.738  3.2946  2.7300  0.4268
  772MOL0     H 4173   5.027   0.802   6.623  1.3380 -0.5383  2.6669
  772MOL0     H 4174   4.915   0.589   6.494 -0.3612  1.7013 -0.9417
  772MOL0     H 4175   4.804   0.721   6.514 -0.9088 -0.2974  1.0956
  772MOL0     H 4176   4.733   0.622   6.744  0.4594  0.3969 -0.2326
  772MOL0     H 4177   4.819   0.473   6.686  0.0464 -0.1632 -1.3470
  772MOL0     H 4178   4.583   0.450   6.645  1.6176  1.5562  2.0455
  772MOL0     H 4179   4.679   0.443   6.498  1.7344 -1.1480  2.1792
  772MOL0     H 4180   4.375   0.441   6.610  0.0319  1.2513  1.8255
  772MOL0     H 4181   4.171   0.361   6.621  0.8196  1.2305 -1.4775
  772MOL0     H 4182   4.035   0.470   6.639 -1.3853 -3.5714  1.4515
  772MOL0     H 4183   4.063   0.378   6.483 -0.8303  0.9840 -0.5575
  772MOL0     H 4184   3.752   0.819   6.483 -0.5430 -2.7237 -1.4775
  772MOL0     H 4185   3.554   0.937   6.400 -0.0823 -0.5314  0.4868
  772MOL0     H 4186   3.348   1.026   6.249 -0.3403  0.5541 -3.4194
  772MOL0     H 4187   3.440   1.128   6.358 -2.5174  0.5044  1.2998
  772MOL0     H 4188   3.416   1.325   6.203  0.9439 -0.9043  1.2162
  772MOL0     H 4189   3.334   1.220   6.080 -0.5096  1.4465 -0.3456
  772MOL0     H 4190   3.220   1.242   6.360  1.8969 -1.1267 -0.2304
  772MOL0     H 4191   3.140   1.185   6.204  2.0066 -0.7509 -3.9759
  772MOL0     H 4192   3.212   1.467   6.282 -1.8072  0.7759 -0.2016
  772MOL0     H 4193   3.173   1.416   6.114  1.2873  1.7116  1.2115
  772MOL0     H 4194   2.981   1.419   6.353 -0.1177  2.3552 -0.1997
  772MOL0     H 4195   2.946   1.326   6.209 -0.3527 -0.6479  1.6416
  772MOL0     H 4196   2.989   1.626   6.247 -0.7526  0.0040  0.6066
  772MOL0     H 4197   2.977   1.548   6.083  1.6607  1.3250  0.8159
  772MOL0     H 4198   2.753   1.649   6.169  0.5629  0.0243 -1.3902
  772MOL0     H 4199   2.776   1.550   6.312  1.4916  0.3513  0.0730
  772MOL0     H 4200   2.747   1.345   6.170  0.3615 -0.3062 -1.8100
  772MOL0     H 4201   2.763   1.442   6.027 -1.7633  0.7984 -0.5318
  772MOL0     H 4202   3.778   1.076   6.062  0.2308  1.1282  0.6581
  772MOL0     H 4203   3.969   0.948   6.144 -0.7324 -0.3741 -1.3875
  772MOL0     H 4204   4.231   0.831   6.340  0.7616  1.2829  0.7903
  772MOL0     H 4205   4.466   0.778   6.363  4.2665 -3.9338  0.3098
  772MOL0     H 4206   6.238   0.728   7.196  0.9924 -0.6852  0.2439
  772MOL0     H 4207   6.461   0.681   7.129 -0.9320  1.8185  2.0270
  772MOL0     H 4208   6.821   0.616   6.855  0.2908 -0.2514  0.3320
  772MOL0     H 4209   7.067   0.598   6.873  2.5219 -1.6916  0.2075
  772MOL0     H 4210   7.252   0.470   6.835 -2.4705 -0.0916  1.4837
  772MOL0     H 4211   7.388   0.459   6.951 -0.2908 -0.4323  0.3993
  772MOL0     H 4212   7.396   0.300   6.735  1.0015 -0.3441  1.3114
  772MOL0     H 4213   7.255   0.222   6.812 -0.8332 -0.2328  1.0001
  772MOL0     H 4214   7.411   0.089   6.918 -0.6966  0.1428 -0.1776
  772MOL0     H 4215   7.428   0.227   7.028 -3.0443 -1.1571  1.0344
  772MOL0     H 4216   7.614   0.188   6.777  2.5281  2.9351 -0.3972
  772MOL0     H 4217   7.649   0.142   6.938 -0.9708 -0.4116  0.5363
  772MOL0     H 4218   7.758   0.544   6.936  1.9640 -1.2804  0.6829
  772MOL0     H 4219   7.017   0.236   7.104 -3.5716 -1.2894  0.5487
  772MOL0     H 4220   6.775   0.284   7.119  1.4818  0.0792  2.3663
  773MOL0     O 4221  10.762  11.331   8.121  0.0262 -0.6928 -0.4352
  773MOL0     C 4222  10.690  11.242   8.098  1.2222 -0.1997  0.6026
  773MOL0     O 4223  10.559  11.253   8.055 -0.0341  0.5778 -0.3040
  773MOL0     C 4224  10.495  11.368   8.072  1.3188  0.3094  0.2740
  773MOL0     C 4225  10.515  11.482   7.992 -0.2066 -0.2792 -0.4996
  773MOL0     C 4226  10.438  11.598   8.002 -0.4841  1.0292  0.2635
  773MOL0     C 4227  10.349  11.610   8.115  0.1668 -0.2498 -0.0966
  773MOL0     O 4228  10.280  11.724   8.150  0.2236 -0.5717  0.3114
  773MOL0     C 4229  10.346  11.843   8.106  0.6294 -0.1930 -0.4917
  773MOL0     C 4230  10.294  11.970   8.176 -0.1772 -0.0049 -0.2938
  773MOL0     C 4231  10.163  12.029   8.122 -0.1852 -0.2128 -1.0283
  773MOL0     C 4232  10.114  12.143   8.213 -0.4274 -0.2089 -0.6367
  773MOL0     C 4233   9.990  12.213   8.161 -0.4649  0.0488  0.5956
  773MOL0     C 4234   9.862  12.126   8.172 -0.4323 -0.3543  0.8860
  773MOL0     C 4235   9.800  12.154   8.303 -0.6758  0.5337  0.2106
  773MOL0     C 4236   9.681  12.059   8.326 -0.0464  0.0805 -0.3835
  773MOL0     N 4237   9.607  12.094   8.454 -0.6570  0.1169  0.6347
  773MOL0     C 4238   9.473  12.106   8.476 -0.0995  0.1170  0.2093
  773MOL0     C 4239   9.463  12.147   8.596  0.2542 -0.0150 -0.8624
  773MOL0     C 4240   9.328  12.167   8.651 -0.6812 -0.7322  0.4982
  773MOL0     C 4241   9.254  12.265   8.570 -0.0133 -0.6983 -0.3669
  773MOL0     C 4242   9.141  12.348   8.641 -0.7579  0.3024 -0.7863
  773MOL0     C 4243   9.061  12.255   8.722 -0.1474 -0.5397  0.9558
  773MOL0     O 4244   8.949  12.330   8.775 -0.2261 -0.4638 -0.4685
  773MOL0     C 4245   8.827  12.297   8.729 -0.1243 -0.2793 -0.5416
  773MOL0     C 4246   8.739  12.235   8.812 -0.0238 -0.5546  0.0478
  773MOL0     C 4247   8.619  12.179   8.778 -0.4734 -0.4384  0.8209
  773MOL0     C 4248   8.540  12.114   8.895  0.5394  0.5848  0.5003
  773MOL0     C 4249   8.567  12.202   8.649  0.2538  0.3544 -0.2237
  773MOL0     C 4250   8.431  12.153   8.590 -0.0198  0.4890 -0.0070
  773MOL0     O 4251   8.391  12.212   8.482 -0.7456 -0.0719  0.1691
  773MOL0     C 4252   8.286  12.190   8.400 -0.0217  0.3878  0.4184
  773MOL0     C 4253   8.264  12.273   8.294  0.5110 -0.8942  0.4444
  773MOL0     C 4254   8.159  12.254   8.208  0.2805 -0.1793  0.6151
  773MOL0     C 4255   8.075  12.142   8.214  0.1336 -0.6447 -0.0211
  773MOL0     O 4256   7.976  12.121   8.133  0.1164 -0.7886  0.8006
  773MOL0     C 4257   7.951  12.208   8.021  0.4935 -0.4878 -0.7457
  773MOL0     C 4258   7.805  12.175   7.975  0.0143 -0.0254  0.2073
  773MOL0     C 4259   7.780  12.237   7.839  0.2223  0.6318  0.7019
  773MOL0     C 4260   7.636  12.215   7.799  0.0798 -0.1215 -0.4518
  773MOL0     C 4261   7.600  12.265   7.657  0.3616  0.4012  0.3760
  773MOL0     C 4262   7.448  12.300   7.640 -0.2315 -0.3468 -0.5138
  773MOL0     C 4263   7.424  12.356   7.495  0.3463  0.5379 -0.5695
  773MOL0     C 4264   7.280  12.350   7.449  0.3275  0.6901 -0.3249
  773MOL0    Cl 4265   7.268  12.400   7.278  0.0052  0.4576  0.5132
  773MOL0     C 4266   8.089  12.060   8.322 -0.4082  1.1905  0.1486
  773MOL0     C 4267   8.198  12.076   8.412  0.1425 -0.1887 -0.0453
  773MOL0     O 4268   8.361  12.079   8.662  0.0798  0.5192 -0.1107
  773MOL0     C 4269   8.656  12.273   8.557 -0.6206  1.1907 -0.2822
  773MOL0     C 4270   8.782  12.316   8.603  0.0921 -0.2084  0.6845
  773MOL0     N 4271   9.586  12.158   8.662  0.1420 -0.3944 -0.1132
  773MOL0     N 4272   9.672  12.117   8.569 -1.0444 -0.9485 -0.0875
  773MOL0     C 4273  10.329  11.488   8.198  0.5940  0.3157 -0.2050
  773MOL0     C 4274  10.398  11.372   8.172 -0.3099 -0.5285 -0.1546
  773MOL0     C 4275  10.729  11.103   8.136  0.1123  0.7169 -0.1063
  773MOL0     C 4276  10.853  11.069   8.195  0.0443  0.1138  0.3616
  773MOL0     C 4277  10.884  10.935   8.224 -0.3238 -0.2860  0.3010
  773MOL0     C 4278  10.787  10.828   8.191  0.1065 -0.8397  0.5356
  773MOL0     O 4279  10.797  10.695   8.213 -0.2108 -0.1496  0.3143
  773MOL0     C 4280  10.929  10.641   8.233  1.1468  0.3304  0.5574
  773MOL0     C 4281  10.967  10.653   8.385  0.1341  0.0173  0.3506
  773MOL0     C 4282  11.090  10.573   8.439 -0.3615 -0.1606 -0.9220
  773MOL0     C 4283  11.099  10.425   8.419 -0.9714  0.1717  0.2590
  773MOL0     C 4284  10.985  10.348   8.474 -0.0215 -0.2538  0.6948
  773MOL0     C 4285  10.893  10.287   8.525 -0.1549 -0.5508 -0.0147
  773MOL0     C 4286  10.661  10.870   8.156  0.8174  0.4157  0.3508
  773MOL0     C 4287  10.628  11.003   8.128 -0.5242 -0.1609  0.6908
  773MOL0     H 4288  10.595  11.491   7.920  1.6547  1.2778  1.6378
  773MOL0     H 4289  10.468  11.683   7.942  2.0742  0.2349  0.2690
  773MOL0     H 4290  10.448  11.829   8.144  0.2129 -1.7255  0.1503
  773MOL0     H 4291  10.334  11.856   7.998 -1.2837  2.3903 -0.0627
  773MOL0     H 4292  10.295  11.952   8.284  3.9491 -0.3721 -0.2508
  773MOL0     H 4293  10.375  12.042   8.161  0.9432 -1.3933 -1.1772
  773MOL0     H 4294  10.193  12.058   8.021  0.6921  0.5809 -0.5516
  773MOL0     H 4295  10.084  11.954   8.111 -0.1136 -0.7070  1.3857
  773MOL0     H 4296  10.086  12.095   8.308 -0.3048  2.7790  1.0408
  773MOL0     H 4297  10.195  12.214   8.235 -0.2984 -0.9489  1.5331
  773MOL0     H 4298   9.981  12.313   8.204  2.6427  1.0813 -0.8501
  773MOL0     H 4299  10.011  12.231   8.055  2.5451  1.4104  1.3273
  773MOL0     H 4300   9.796  12.137   8.085 -0.7862  1.2987  1.3337
  773MOL0     H 4301   9.888  12.020   8.168 -1.3151 -0.6967  3.0986
  773MOL0     H 4302   9.874  12.136   8.382  0.7247  1.2349 -0.8746
  773MOL0     H 4303   9.774  12.260   8.304 -0.8594  0.4884  0.0877
  773MOL0     H 4304   9.702  11.954   8.345  0.9701  0.7837  3.0756
  773MOL0     H 4305   9.613  12.058   8.240 -0.8887  0.2690  0.2717
  773MOL0     H 4306   9.386  12.081   8.416  0.9780  0.3642 -1.5201
  773MOL0     H 4307   9.280  12.069   8.644  0.7082 -1.3384 -2.6381
  773MOL0     H 4308   9.335  12.181   8.759  2.2506 -2.5242  0.6583
  773MOL0     H 4309   9.210  12.213   8.485  0.8535 -1.6718 -0.2511
  773MOL0     H 4310   9.327  12.333   8.527  0.2158 -1.8191 -1.8284
  773MOL0     H 4311   9.082  12.413   8.576 -1.5432  0.7748  0.3765
  773MOL0     H 4312   9.188  12.413   8.716  2.8418 -1.5487 -1.1967
  773MOL0     H 4313   9.113  12.219   8.811 -0.3433 -3.3368  0.0245
  773MOL0     H 4314   9.021  12.167   8.670 -0.0902 -0.9102  1.5337
  773MOL0     H 4315   8.773  12.234   8.915  2.6628  0.9026 -0.7432
  773MOL0     H 4316   8.531  12.005   8.891  0.9424  0.5730 -2.8721
  773MOL0     H 4317   8.576  12.142   8.994 -1.1240  2.4191  0.6589
  773MOL0     H 4318   8.438  12.155   8.892  0.8527  1.3211 -1.2223
  773MOL0     H 4319   8.340  12.341   8.255 -0.0187  1.5000  3.1855
  773MOL0     H 4320   8.150  12.325   8.127 -0.8018  0.8952  1.6234
  773MOL0     H 4321   7.950  12.317   8.034 -0.6903 -0.6287  0.4588
  773MOL0     H 4322   8.017  12.180   7.938  0.6198  1.5984 -1.4263
  773MOL0     H 4323   7.806  12.066   7.973  2.6202 -0.0894  1.0759
  773MOL0     H 4324   7.724  12.213   8.038 -1.5097  0.4230 -1.8923
  773MOL0     H 4325   7.857  12.213   7.765  0.7617  1.7569  0.8680
  773MOL0     H 4326   7.796  12.345   7.843  1.2619  0.6902 -2.4077
  773MOL0     H 4327   7.626  12.106   7.789 -2.1020  0.0764 -0.8277
  773MOL0     H 4328   7.568  12.256   7.874 -0.1596  0.1877 -0.8382
  773MOL0     H 4329   7.639  12.193   7.584  1.4995  0.2297  1.1197
  773MOL0     H 4330   7.654  12.360   7.649 -0.5998  0.8759 -0.6893
  773MOL0     H 4331   7.383  12.216   7.665  0.4297 -0.2841  1.5837
  773MOL0     H 4332   7.406  12.368   7.714 -2.4600 -2.1997  0.0358
  773MOL0     H 4333   7.476  12.292   7.424  0.9154  1.9802 -1.4948
  773MOL0     H 4334   7.467  12.453   7.469  3.8729 -0.6683  0.2361
  773MOL0     H 4335   7.212  12.415   7.505  1.2743  2.9305 -1.6429
  773MOL0     H 4336   7.238  12.249   7.454  0.0805  0.5900 -3.0822
  773MOL0     H 4337   8.014  11.983   8.331 -0.5123  1.1107 -1.2345
  773MOL0     H 4338   8.195  12.009   8.498 -1.8118 -1.6948 -1.1932
  773MOL0     H 4339   8.628  12.302   8.456 -3.6593  0.3204  0.1936
  773MOL0     H 4340   8.838  12.367   8.525 -2.7909  3.7641  0.8807
  773MOL0     H 4341  10.260  11.494   8.282  0.7587  3.6445 -0.1619
  773MOL0     H 4342  10.374  11.290   8.240 -2.5353  0.4239  0.3162
  773MOL0     H 4343  10.929  11.146   8.205  1.6071 -0.5232 -4.2318
  773MOL0     H 4344  10.982  10.900   8.255  1.0322  3.0121  0.1137
  773MOL0     H 4345  10.945  10.543   8.188 -0.7401  0.7585 -1.2511
  773MOL0     H 4346  11.001  10.699   8.174  0.0008  0.0718 -1.1528
  773MOL0     H 4347  10.879  10.622   8.443 -1.4859  0.5650 -1.6913
  773MOL0     H 4348  10.993  10.751   8.426  1.7993 -1.4828  3.2131
  773MOL0     H 4349  11.089  10.593   8.546 -5.0671 -1.6089 -0.4433
  773MOL0     H 4350  11.176  10.630   8.404 -1.2791  0.7365 -1.8267
  773MOL0     H 4351  11.193  10.386   8.459 -0.4974  1.4970  0.5054
  773MOL0     H 4352  11.104  10.403   8.312  1.2348  3.0423 -0.3829
  773MOL0     H 4353  10.800  10.258   8.569 -1.0369  1.3453 -0.4760
  773MOL0     H 4354  10.589  10.790   8.146  3.4799 -2.3808  1.8010
  773MOL0     H 4355  10.525  11.031   8.108 -0.9328 -0.5250  2.1801
  774MOL0     O 4356   9.944   5.286   2.567  0.1039 -0.3363 -0.0630
  774MOL0     C 4357   9.951   5.357   2.471  0.3788  0.2315  0.5825
  774MOL0     O 4358   9.845   5.395   2.390 -0.3711 -0.3253  0.0644
  774MOL0     C 4359   9.714   5.387   2.435 -0.4797  0.8166 -0.3042
  774MOL0     C 4360   9.610   5.349   2.347 -0.8784  0.3235  0.5090
  774MOL0     C 4361   9.473   5.362   2.374  0.7360 -0.1676 -0.1402
  774MOL0     C 4362   9.438   5.416   2.505  0.6440  0.0555 -0.3474
  774MOL0     O 4363   9.307   5.439   2.542 -0.2274 -0.5100 -0.3161
  774MOL0     C 4364   9.195   5.397   2.453  0.6150 -0.0176  1.6564
  774MOL0     C 4365   9.060   5.425   2.534 -1.1677 -0.2995  0.2174
  774MOL0     C 4366   8.919   5.384   2.476 -0.4487 -0.0235 -0.5856
  774MOL0     C 4367   8.904   5.240   2.419  0.1278  0.4543 -0.2883
  774MOL0     C 4368   8.779   5.220   2.343 -0.0694 -0.4240  0.6626
  774MOL0     C 4369   8.752   5.068   2.323 -0.0765 -0.6900 -0.4222
  774MOL0     C 4370   8.632   5.045   2.240 -0.4433  0.0493 -0.5256
  774MOL0     C 4371   8.657   5.083   2.094 -0.6233 -0.5758 -0.1758
  774MOL0     N 4372   8.525   5.090   2.029  0.5251 -0.0274 -0.1034
  774MOL0     C 4373   8.427   5.189   2.049 -0.4500  0.0707  0.7573
  774MOL0     C 4374   8.328   5.150   1.966  0.0634 -0.3254  0.6811
  774MOL0     C 4375   8.204   5.227   1.934  0.1726 -1.1239  0.6023
  774MOL0     C 4376   8.236   5.349   1.851  0.3403  0.8398 -0.1476
  774MOL0     C 4377   8.115   5.412   1.790 -0.7735 -0.5534 -0.6117
  774MOL0     C 4378   8.155   5.517   1.686 -0.5105 -0.0440 -0.0946
  774MOL0     O 4379   8.059   5.616   1.660  0.7232  0.0002 -0.2216
  774MOL0     C 4380   7.941   5.574   1.595  0.1735 -0.9312 -0.2054
  774MOL0     C 4381   7.905   5.640   1.481  0.5016  0.4031 -0.0052
  774MOL0     C 4382   7.774   5.655   1.428 -0.2379  0.5336 -0.2843
  774MOL0     C 4383   7.742   5.754   1.321  1.0674  0.1002 -0.2526
  774MOL0     C 4384   7.670   5.589   1.500  0.5183  0.1862 -0.2599
  774MOL0     C 4385   7.519   5.606   1.469 -0.5996  0.1411  0.4186
  774MOL0     O 4386   7.433   5.578   1.572  0.3897  0.6824  0.0609
  774MOL0     C 4387   7.298   5.605   1.550 -0.6724  0.4160 -0.5908
  774MOL0     C 4388   7.232   5.680   1.634  0.1886  0.0638 -0.4075
  774MOL0     C 4389   7.099   5.698   1.636  0.5710  0.0175  0.0914
  774MOL0     C 4390   7.024   5.642   1.533  0.5328 -0.7032  1.0382
  774MOL0     O 4391   6.885   5.646   1.537 -0.5810 -0.6696  1.0831
  774MOL0     C 4392   6.829   5.597   1.662  0.3017 -0.2821  0.0731
  774MOL0     C 4393   6.879   5.454   1.692  0.0757  0.0982 -0.2281
  774MOL0     C 4394   6.802   5.375   1.797  0.1682  0.7975 -0.0572
  774MOL0     C 4395   6.884   5.265   1.867 -0.6701  0.0048 -0.0421
  774MOL0     C 4396   6.799   5.183   1.955 -0.3808  0.8751  0.9675
  774MOL0     C 4397   6.862   5.042   1.998 -0.0845 -0.4430  1.1015
  774MOL0     C 4398   6.998   5.054   2.071  0.1327  0.8189 -0.3091
  774MOL0     C 4399   7.038   4.911   2.095  0.2732  0.6845  0.2695
  774MOL0    Cl 4400   6.938   4.823   2.203 -0.5637  0.1001  0.1181
  774MOL0     C 4401   7.090   5.559   1.442  0.3783  0.2980  0.4717
  774MOL0     C 4402   7.228   5.525   1.455 -0.2273 -0.0527  0.3881
  774MOL0     O 4403   7.476   5.652   1.364  0.4521  0.4442 -0.4421
  774MOL0     C 4404   7.701   5.521   1.621  0.7615 -0.0050 -0.2837
  774MOL0     C 4405   7.836   5.509   1.659 -0.6583  0.4498 -0.4579
  774MOL0     N 4406   8.368   5.030   1.902  0.6488 -0.2113  0.6688
  774MOL0     N 4407   8.490   5.003   1.935  0.0544  0.3648 -0.3362
  774MOL0     C 4408   9.542   5.444   2.593 -0.4447 -0.4712  0.2784
  774MOL0     C 4409   9.678   5.432   2.564  0.2951  0.4577 -0.0495
  774MOL0     C 4410  10.087   5.416   2.435 -0.0891  0.1882 -0.5047
  774MOL0     C 4411  10.203   5.390   2.511  0.2482 -0.3679  0.2876
  774MOL0     C 4412  10.331   5.438   2.475  0.2181  0.3813 -0.8843
  774MOL0     C 4413  10.340   5.510   2.352  1.0114  1.2209 -0.4539
  774MOL0     O 4414  10.458   5.547   2.290 -0.1886  0.2962 -0.1949
  774MOL0     C 4415  10.575   5.468   2.319 -0.0568 -0.6831  0.5595
  774MOL0     C 4416  10.686   5.506   2.222 -1.2328  0.1241  0.2294
  774MOL0     C 4417  10.663   5.482   2.072  0.7633 -0.2671 -0.4325
  774MOL0     C 4418  10.665   5.323   2.056  0.2343 -0.0597 -0.6658
  774MOL0     C 4419  10.790   5.243   2.070 -0.7512  0.3537  1.5087
  774MOL0     C 4420  10.883   5.166   2.069  0.0148  0.1627  0.7833
  774MOL0     C 4421  10.223   5.538   2.277 -0.1467 -0.5750 -0.1109
  774MOL0     C 4422  10.096   5.496   2.318  0.4493 -0.5190 -0.1926
  774MOL0     H 4423   9.652   5.317   2.252 -0.8613  0.6284  0.4110
  774MOL0     H 4424   9.406   5.324   2.298 -0.6470  0.2213  0.8407
  774MOL0     H 4425   9.190   5.461   2.364  2.3657 -2.8860 -0.7238
  774MOL0     H 4426   9.191   5.295   2.413  3.0858  0.6525 -0.6252
  774MOL0     H 4427   9.075   5.362   2.622 -2.8023 -0.1002  0.6709
  774MOL0     H 4428   9.066   5.526   2.576 -1.0597  0.2503 -1.0835
  774MOL0     H 4429   8.850   5.403   2.558 -0.4503  1.3093 -0.8661
  774MOL0     H 4430   8.893   5.461   2.403 -1.5020 -1.4232 -1.7589
  774MOL0     H 4431   8.990   5.218   2.355  0.2085  0.7188 -0.2722
  774MOL0     H 4432   8.909   5.163   2.497 -3.2166 -2.7415 -2.8882
  774MOL0     H 4433   8.697   5.275   2.389  1.1791 -0.1704  2.7042
  774MOL0     H 4434   8.799   5.273   2.249 -0.1899 -0.8140  0.4140
  774MOL0     H 4435   8.836   5.018   2.273  0.2382 -2.4998  1.7622
  774MOL0     H 4436   8.736   5.017   2.418 -1.6691  1.8391  0.7665
  774MOL0     H 4437   8.597   4.942   2.242 -1.2237  0.3064 -0.5768
  774MOL0     H 4438   8.549   5.101   2.286 -0.1722  0.4270 -0.4857
  774MOL0     H 4439   8.718   5.007   2.042  1.3573 -0.0838  1.2925
  774MOL0     H 4440   8.701   5.183   2.086  1.8913 -1.7117 -2.9417
  774MOL0     H 4441   8.430   5.282   2.104 -2.1208 -0.1718  1.3411
  774MOL0     H 4442   8.134   5.166   1.877 -0.8028  1.2799 -0.9047
  774MOL0     H 4443   8.157   5.262   2.027  0.3476 -1.8292  0.9674
  774MOL0     H 4444   8.303   5.330   1.767 -1.2296 -0.7863 -1.1087
  774MOL0     H 4445   8.286   5.423   1.914 -2.5612  0.7035  2.5653
  774MOL0     H 4446   8.065   5.471   1.868  2.1781  2.2842 -0.6265
  774MOL0     H 4447   8.037   5.343   1.757 -2.7298  0.6071  1.2774
  774MOL0     H 4448   8.199   5.464   1.602 -0.6642  0.9646 -0.8324
  774MOL0     H 4449   8.233   5.578   1.733 -0.1722 -1.0127  0.6277
  774MOL0     H 4450   7.986   5.696   1.433  1.5584 -3.1699 -2.8256
  774MOL0     H 4451   7.825   5.817   1.288  0.1793  1.0844 -0.6823
  774MOL0     H 4452   7.697   5.707   1.233  0.0216  1.3513 -0.4160
  774MOL0     H 4453   7.666   5.820   1.366 -0.6178 -2.4792  0.8854
  774MOL0     H 4454   7.283   5.734   1.713 -2.3395  1.2954  0.4891
  774MOL0     H 4455   7.046   5.747   1.717  2.0564  2.0935 -0.0852
  774MOL0     H 4456   6.860   5.667   1.740 -0.6324 -0.7863  0.9312
  774MOL0     H 4457   6.719   5.598   1.657  0.2972 -0.0470  0.1774
  774MOL0     H 4458   6.872   5.401   1.597 -0.5130  0.8636 -0.6235
  774MOL0     H 4459   6.985   5.471   1.711 -0.3242  3.1611 -0.2601
  774MOL0     H 4460   6.716   5.331   1.747 -1.5587  1.3142  2.2636
  774MOL0     H 4461   6.753   5.446   1.864  0.2867  0.5185  0.3286
  774MOL0     H 4462   6.931   5.213   1.783 -0.4047 -0.0622  0.1449
  774MOL0     H 4463   6.972   5.302   1.920 -0.0882  0.4634 -1.2774
  774MOL0     H 4464   6.706   5.165   1.901  0.6574 -0.7987 -0.3514
  774MOL0     H 4465   6.792   5.245   2.045 -0.5980  2.6761 -0.2221
  774MOL0     H 4466   6.784   4.995   2.058 -0.8777  0.6549  0.9743
  774MOL0     H 4467   6.881   4.988   1.905 -1.5198  0.7941  0.0216
  774MOL0     H 4468   7.001   5.110   2.165  0.7291  0.6887 -0.2437
  774MOL0     H 4469   7.070   5.094   2.000  2.1046  2.1995  2.2613
  774MOL0     H 4470   7.133   4.928   2.147  0.2041  1.8364  0.0500
  774MOL0     H 4471   7.057   4.859   2.001  0.5413  0.6524  0.3418
  774MOL0     H 4472   7.045   5.533   1.346  2.1057  1.1492 -0.6218
  774MOL0     H 4473   7.283   5.454   1.394  1.2710  1.6146 -0.3084
  774MOL0     H 4474   7.628   5.478   1.687 -0.6005  2.1287 -0.2947
  774MOL0     H 4475   7.871   5.453   1.746  2.9642 -0.7486 -2.4730
  774MOL0     H 4476   9.518   5.494   2.686  3.9518 -0.7862  1.8451
  774MOL0     H 4477   9.748   5.463   2.641  0.3952  1.4328 -0.5157
  774MOL0     H 4478  10.188   5.331   2.601 -3.4003 -0.1810 -0.0451
  774MOL0     H 4479  10.414   5.416   2.540  0.2377 -0.3406 -1.1505
  774MOL0     H 4480  10.584   5.488   2.427  0.5833  0.4464  0.3135
  774MOL0     H 4481  10.566   5.359   2.312 -0.3714 -0.8087  2.2758
  774MOL0     H 4482  10.770   5.448   2.261  0.9132  1.6092 -1.9040
  774MOL0     H 4483  10.708   5.612   2.239  1.5407 -0.1633 -0.9395
  774MOL0     H 4484  10.734   5.533   2.007 -0.2725 -2.9974 -3.9755
  774MOL0     H 4485  10.561   5.518   2.057  0.1532 -1.6682  0.1916
  774MOL0     H 4486  10.617   5.318   1.958 -1.4091  1.7629 -0.0204
  774MOL0     H 4487  10.593   5.279   2.125 -0.7915 -1.4058 -2.4946
  774MOL0     H 4488  10.969   5.104   2.056 -0.5168 -0.1768 -1.6223
  774MOL0     H 4489  10.240   5.585   2.181  0.3061 -1.5184 -0.5120
  774MOL0     H 4490  10.010   5.529   2.260  0.1475 -1.7069 -0.4481
  775MOL0     O 4491   5.582   4.684   8.479 -0.0782 -0.4920 -0.1450
  775MOL0     C 4492   5.643   4.663   8.581 -0.0636 -0.3552 -0.2418
  775MOL0     O 4493   5.630   4.561   8.672 -0.2017 -0.0920  0.4841
  775MOL0     C 4494   5.532   4.468   8.643  0.2051  0.2655 -0.2762
  775MOL0     C 4495   5.559   4.356   8.574  0.1284  0.2903  1.7351
  775MOL0     C 4496   5.458   4.273   8.514  0.1666 -0.1251 -1.4065
  775MOL0     C 4497   5.323   4.298   8.552  0.2319 -0.4518  0.2267
  775MOL0     O 4498   5.206   4.229   8.510  0.4531  0.1432 -0.0876
  775MOL0     C 4499   5.207   4.122   8.412 -0.3017 -0.1986 -0.0597
  775MOL0     C 4500   5.058   4.077   8.386 -0.1699 -0.8039 -0.4232
  775MOL0     C 4501   5.049   3.938   8.334 -0.4777  0.2514  0.2922
  775MOL0     C 4502   4.904   3.912   8.307  0.1051  0.1872 -0.1108
  775MOL0     C 4503   4.887   3.759   8.310 -0.5575 -0.6081  0.3580
  775MOL0     C 4504   4.899   3.704   8.459  0.5559 -0.3367 -0.3326
  775MOL0     C 4505   4.852   3.557   8.482  0.0057  0.1988 -0.5492
  775MOL0     C 4506   4.927   3.463   8.397  0.0737 -0.3424  0.0540
  775MOL0     N 4507   5.072   3.463   8.418 -0.3165 -0.2309 -0.2770
  775MOL0     C 4508   5.143   3.447   8.532  0.0293  0.3861  0.3139
  775MOL0     C 4509   5.274   3.442   8.499 -1.0715  0.1275 -0.6149
  775MOL0     C 4510   5.367   3.429   8.619  0.4665 -0.3027  0.4395
  775MOL0     C 4511   5.385   3.575   8.669  0.1390 -0.0096 -0.3148
  775MOL0     C 4512   5.445   3.576   8.808 -0.5477 -0.6248  0.0137
  775MOL0     C 4513   5.594   3.544   8.811  0.5151 -0.5940 -0.1151
  775MOL0     O 4514   5.641   3.588   8.937  0.2380 -0.0991 -0.1242
  775MOL0     C 4515   5.771   3.561   8.966  0.4807  0.5918  0.0136
  775MOL0     C 4516   5.801   3.503   9.087  0.7823  1.0101  0.0827
  775MOL0     C 4517   5.936   3.482   9.128  1.1329  0.9219 -0.5702
  775MOL0     C 4518   5.952   3.431   9.272  0.2074 -0.7235  0.7340
  775MOL0     C 4519   6.041   3.501   9.034  0.0788 -0.2929  0.0264
  775MOL0     C 4520   6.189   3.465   9.043 -0.2394  0.4960 -0.1586
  775MOL0     O 4521   6.282   3.514   8.946 -0.5111 -0.1437 -0.6392
  775MOL0     C 4522   6.418   3.495   8.982 -1.2618  0.5181  0.5806
  775MOL0     C 4523   6.470   3.489   9.114 -0.1530 -0.5141  0.5436
  775MOL0     C 4524   6.605   3.472   9.142 -0.8027 -0.0268  0.0806
  775MOL0     C 4525   6.692   3.451   9.028 -0.9084  0.2211 -0.2258
  775MOL0     O 4526   6.827   3.447   9.040  0.3893 -0.7795 -0.1744
  775MOL0     C 4527   6.884   3.404   9.166  0.5968  0.3405 -0.7075
  775MOL0     C 4528   7.041   3.414   9.154  0.3562 -0.1572 -0.0560
  775MOL0     C 4529   7.085   3.561   9.141  0.0797 -0.3514 -0.8753
  775MOL0     C 4530   7.234   3.571   9.134 -0.3741  0.5873  0.3424
  775MOL0     C 4531   7.272   3.703   9.076 -0.1277  0.3688  0.4411
  775MOL0     C 4532   7.425   3.721   9.054 -0.4263  0.4496 -0.5595
  775MOL0     C 4533   7.493   3.740   9.186 -0.3819  0.7144 -0.2017
  775MOL0     C 4534   7.650   3.758   9.163  0.2825 -0.0675 -0.3368
  775MOL0    Cl 4535   7.691   3.912   9.089 -0.1835 -0.1556 -0.0363
  775MOL0     C 4536   6.643   3.456   8.903  0.0591  0.3685 -0.6709
  775MOL0     C 4537   6.507   3.484   8.879  0.6028  0.3153 -0.2456
  775MOL0     O 4538   6.209   3.366   9.115 -0.0124  0.5777 -0.0016
  775MOL0     C 4539   6.004   3.563   8.916 -0.3374 -0.6815 -0.8124
  775MOL0     C 4540   5.875   3.595   8.883  0.6842  0.0830  0.2924
  775MOL0     N 4541   5.282   3.485   8.367 -0.5534 -0.2707 -0.0516
  775MOL0     N 4542   5.162   3.492   8.323 -0.3102  0.4608  0.0428
  775MOL0     C 4543   5.301   4.397   8.638 -0.4602  0.0492 -0.4126
  775MOL0     C 4544   5.392   4.493   8.678  0.4173  0.4595  0.9987
  775MOL0     C 4545   5.748   4.757   8.610  0.8703  0.3116  0.1670
  775MOL0     C 4546   5.845   4.721   8.707  0.0922 -0.4716 -0.1943
  775MOL0     C 4547   5.960   4.800   8.717  0.5624 -0.6343 -0.2229
  775MOL0     C 4548   5.973   4.926   8.650 -0.7061  0.7192 -0.7724
  775MOL0     O 4549   6.076   5.019   8.660 -0.3369  0.1799  0.0502
  775MOL0     C 4550   6.194   4.972   8.719  0.6352  0.2265 -0.4273
  775MOL0     C 4551   6.279   5.090   8.696 -0.7709  0.5229 -0.0088
  775MOL0     C 4552   6.310   5.111   8.544  0.1252  1.1937 -0.0253
  775MOL0     C 4553   6.306   5.254   8.502 -0.1772  0.4799  1.6435
  775MOL0     C 4554   6.419   5.333   8.556 -0.1467 -0.4845 -0.6580
  775MOL0     C 4555   6.495   5.411   8.614 -0.4487  0.2613 -0.1111
  775MOL0     C 4556   5.874   4.969   8.572  0.4590 -0.5559  0.1164
  775MOL0     C 4557   5.758   4.883   8.548 -1.1896  0.2900  0.6106
  775MOL0     H 4558   5.657   4.347   8.528 -1.3951  1.6375 -2.2227
  775MOL0     H 4559   5.484   4.192   8.446 -2.1499 -0.6444 -1.7671
  775MOL0     H 4560   5.254   4.154   8.319  2.2154  0.7524  1.4026
  775MOL0     H 4561   5.258   4.031   8.447 -1.7751 -1.2490 -0.5897
  775MOL0     H 4562   5.000   4.079   8.479 -0.2941 -1.9104 -0.4566
  775MOL0     H 4563   5.012   4.160   8.332  3.4267  0.6079 -1.6198
  775MOL0     H 4564   5.098   3.906   8.242 -2.2864 -2.0584  0.0445
  775MOL0     H 4565   5.086   3.873   8.414 -2.3110  0.6161  1.4874
  775MOL0     H 4566   4.842   3.957   8.385 -0.5008 -3.6440  1.8381
  775MOL0     H 4567   4.869   3.953   8.212  1.2889  2.0540  0.2006
  775MOL0     H 4568   4.790   3.737   8.264 -0.3822 -2.7413  0.8756
  775MOL0     H 4569   4.961   3.714   8.243 -2.7085 -3.2392 -0.4118
  775MOL0     H 4570   4.996   3.708   8.509  0.1470  2.8724  0.4288
  775MOL0     H 4571   4.828   3.760   8.522 -0.3642  1.4535 -2.8093
  775MOL0     H 4572   4.862   3.517   8.583 -1.9612 -3.5872 -1.6525
  775MOL0     H 4573   4.746   3.553   8.456 -0.0207  2.1935 -0.9214
  775MOL0     H 4574   4.913   3.505   8.297 -0.6787  2.0647  1.1027
  775MOL0     H 4575   4.878   3.365   8.407 -3.2327  1.2200  0.2556
  775MOL0     H 4576   5.099   3.427   8.629 -0.6310 -2.0790 -0.4024
  775MOL0     H 4577   5.325   3.385   8.710  1.8100  2.5340  2.5911
  775MOL0     H 4578   5.463   3.379   8.601  1.1241  0.9743  0.2649
  775MOL0     H 4579   5.288   3.626   8.674  0.2557  0.1410  0.7479
  775MOL0     H 4580   5.437   3.630   8.590 -0.5631  0.3661 -0.5208
  775MOL0     H 4581   5.389   3.506   8.870 -2.3722  0.1376 -0.6986
  775MOL0     H 4582   5.424   3.672   8.857  1.1586 -1.2621  2.1244
  775MOL0     H 4583   5.644   3.588   8.725  0.8956 -0.6877  0.0580
  775MOL0     H 4584   5.606   3.435   8.814  0.3573 -0.6529 -1.2138
  775MOL0     H 4585   5.724   3.475   9.158  1.5831  0.6337  0.8371
  775MOL0     H 4586   5.915   3.509   9.340 -0.3921 -0.6812  0.3729
  775MOL0     H 4587   5.898   3.336   9.284  0.2760 -0.9335 -0.5078
  775MOL0     H 4588   6.057   3.426   9.299 -0.1547 -0.7021  2.2593
  775MOL0     H 4589   6.395   3.506   9.191  1.2924  1.2663  1.6384
  775MOL0     H 4590   6.631   3.459   9.246 -2.9601 -1.1604  0.5455
  775MOL0     H 4591   6.858   3.468   9.251 -1.4164 -0.6289 -0.5356
  775MOL0     H 4592   6.857   3.301   9.191 -3.4551  1.4089  0.0431
  775MOL0     H 4593   7.075   3.376   9.251  0.4658 -0.5922 -0.2657
  775MOL0     H 4594   7.078   3.355   9.071 -0.8251 -0.3464 -0.4648
  775MOL0     H 4595   7.057   3.624   9.225  0.4750  0.8168 -1.6005
  775MOL0     H 4596   7.034   3.611   9.059 -0.4256  0.4058 -0.1089
  775MOL0     H 4597   7.274   3.555   9.235  0.5103  0.9676  0.0633
  775MOL0     H 4598   7.271   3.483   9.080  0.1695  1.8196 -1.3513
  775MOL0     H 4599   7.241   3.781   9.146 -1.2613 -0.6814  1.1477
  775MOL0     H 4600   7.222   3.723   8.981  2.5687 -0.8269 -1.3555
  775MOL0     H 4601   7.459   3.631   9.002  0.4536  1.3523 -1.6148
  775MOL0     H 4602   7.443   3.806   8.988  0.6565  1.4537  0.9799
  775MOL0     H 4603   7.487   3.648   9.245 -1.4725  0.0659 -1.2539
  775MOL0     H 4604   7.464   3.830   9.240  0.2915  0.4552  0.6117
  775MOL0     H 4605   7.674   3.671   9.102 -1.3301 -1.7093  1.2398
  775MOL0     H 4606   7.703   3.752   9.259 -1.3064  1.5767  0.7315
  775MOL0     H 4607   6.706   3.449   8.815 -1.4497 -0.1197 -1.7603
  775MOL0     H 4608   6.469   3.487   8.777 -0.1791 -0.3766  0.0184
  775MOL0     H 4609   6.077   3.567   8.835  0.7579  1.2634  0.2004
  775MOL0     H 4610   5.859   3.634   8.783  0.9895 -3.2108 -1.1834
  775MOL0     H 4611   5.201   4.426   8.666 -0.2971  0.8913 -0.6549
  775MOL0     H 4612   5.365   4.584   8.731 -2.1695 -1.2015  2.7506
  775MOL0     H 4613   5.846   4.630   8.766 -0.0089  0.1264  0.7449
  775MOL0     H 4614   6.033   4.777   8.793  0.7119  1.9137  0.4962
  775MOL0     H 4615   6.189   4.943   8.824 -0.9257 -1.0044 -0.8129
  775MOL0     H 4616   6.243   4.890   8.666  0.9692 -1.3755  2.1938
  775MOL0     H 4617   6.378   5.080   8.742  0.7562  4.3582 -1.9700
  775MOL0     H 4618   6.239   5.181   8.742  0.5530  0.0767  2.1549
  775MOL0     H 4619   6.245   5.056   8.476 -0.1054 -0.8001  1.6976
  775MOL0     H 4620   6.410   5.073   8.519 -0.5671  0.3216 -1.6547
  775MOL0     H 4621   6.210   5.296   8.532 -1.0571  0.1447 -0.5000
  775MOL0     H 4622   6.310   5.255   8.392  0.0921  0.2434  1.6502
  775MOL0     H 4623   6.561   5.478   8.666 -1.6533  0.7005  0.9266
  775MOL0     H 4624   5.875   5.073   8.542  0.3775 -1.2682 -2.6702
  775MOL0     H 4625   5.679   4.907   8.478 -0.2269 -2.6071 -1.6932
  776MOL0     O 4626   1.125   5.769   7.577 -0.1783  0.0144 -0.0856
  776MOL0     C 4627   1.211   5.861   7.568  0.8809 -0.5376 -0.0408
  776MOL0     O 4628   1.191   5.979   7.506  0.1050  0.2700  0.4542
  776MOL0     C 4629   1.085   5.987   7.417 -0.2015 -0.7273 -0.5999
  776MOL0     C 4630   0.974   6.061   7.455 -0.2636 -0.3551  0.6503
  776MOL0     C 4631   0.856   6.058   7.388 -0.0957  0.0124  0.5237
  776MOL0     C 4632   0.839   5.981   7.273  0.0514  0.8480  0.8503
  776MOL0     O 4633   0.720   5.956   7.207 -0.8502 -0.3294 -0.0758
  776MOL0     C 4634   0.607   6.016   7.259 -0.1360 -0.0045 -0.5035
  776MOL0     C 4635   0.491   5.932   7.197  0.1654  0.4960 -0.1093
  776MOL0     C 4636   0.352   5.995   7.219 -0.8653  0.2925  1.2233
  776MOL0     C 4637   0.298   6.066   7.097  0.5007 -0.6747  0.4937
  776MOL0     C 4638   0.160   6.119   7.135  0.5562 -0.0081 -0.5101
  776MOL0     C 4639   0.086   6.191   7.029  0.1685 -0.5045 -0.5522
  776MOL0     C 4640   0.033   6.095   6.915  0.1180  0.1321 -0.2073
  776MOL0     C 4641  -0.041   6.171   6.808 -0.9104  0.2163 -0.4662
  776MOL0     N 4642  -0.180   6.213   6.828  0.0192  0.0824  0.5538
  776MOL0     C 4643  -0.252   6.191   6.941  0.5260 -0.5963  0.0025
  776MOL0     C 4644  -0.367   6.263   6.934 -0.0717 -0.5154  0.7187
  776MOL0     C 4645  -0.475   6.282   7.028  0.1121 -0.4072  0.1290
  776MOL0     C 4646  -0.619   6.285   6.978 -0.1863 -0.4050  0.3585
  776MOL0     C 4647  -0.653   6.145   6.937  0.5225 -0.3534  0.1969
  776MOL0     C 4648  -0.804   6.136   6.921 -0.8182 -0.2134 -0.2338
  776MOL0     O 4649  -0.832   6.008   6.867 -0.1916  0.5808  0.1432
  776MOL0     C 4650  -0.968   5.977   6.853 -0.4792  0.1636 -0.9887
  776MOL0     C 4651  -0.998   5.841   6.831 -0.4065  0.2176  0.9810
  776MOL0     C 4652  -1.131   5.793   6.815 -0.4127  0.1639 -1.1412
  776MOL0     C 4653  -1.142   5.646   6.775 -0.2420  0.1328 -0.5955
  776MOL0     C 4654  -1.240   5.891   6.821  0.5647  0.7020  0.3182
  776MOL0     C 4655  -1.385   5.856   6.789 -0.1777  0.0861  0.7553
  776MOL0     O 4656  -1.475   5.956   6.803  0.0589 -0.1935  0.4965
  776MOL0     C 4657  -1.612   5.941   6.791 -1.2237 -0.3078 -0.6018
  776MOL0     C 4658  -1.686   5.831   6.813 -0.5409 -0.1478 -1.0088
  776MOL0     C 4659  -1.826   5.826   6.793  0.2800 -0.2472 -0.6869
  776MOL0     C 4660  -1.894   5.944   6.748  1.0826 -0.3235  0.2023
  776MOL0     O 4661  -2.029   5.946   6.722 -0.6071  0.2075 -0.0864
  776MOL0     C 4662  -2.104   5.820   6.721 -0.3629 -0.3943  0.3414
  776MOL0     C 4663  -2.246   5.831   6.655 -0.1308  0.4431 -0.4943
  776MOL0     C 4664  -2.344   5.726   6.702 -0.2725  0.2510  0.3062
  776MOL0     C 4665  -2.490   5.732   6.648  0.0005  0.3862  0.4031
  776MOL0     C 4666  -2.592   5.648   6.721  0.2610  0.6005 -0.0821
  776MOL0     C 4667  -2.570   5.497   6.688 -0.0894 -0.3859 -0.9123
  776MOL0     C 4668  -2.696   5.416   6.727 -0.3125  0.6863 -0.0377
  776MOL0     C 4669  -2.674   5.264   6.709 -0.0975 -0.7803  0.2896
  776MOL0    Cl 4670  -2.823   5.169   6.764  0.5385  0.1473 -0.6698
  776MOL0     C 4671  -1.821   6.061   6.733 -0.9848 -0.4920  0.1661
  776MOL0     C 4672  -1.682   6.056   6.754 -0.5519  0.1166 -0.2644
  776MOL0     O 4673  -1.417   5.742   6.753 -0.7404 -0.0507  0.3629
  776MOL0     C 4674  -1.203   6.026   6.839  0.3004 -0.2100 -0.2791
  776MOL0     C 4675  -1.069   6.068   6.863 -0.0059 -0.0122  0.3412
  776MOL0     N 4676  -0.353   6.332   6.817 -0.8562  0.0287  0.8202
  776MOL0     N 4677  -0.247   6.303   6.745 -0.0751 -0.1004 -0.3372
  776MOL0     C 4678   0.949   5.914   7.226 -0.4444  0.3625  1.1522
  776MOL0     C 4679   1.068   5.910   7.300  0.0466 -0.9209  0.1902
  776MOL0     C 4680   1.333   5.838   7.637 -1.0962  0.6433 -0.6208
  776MOL0     C 4681   1.339   5.756   7.756 -0.7829  0.3333 -0.2444
  776MOL0     C 4682   1.456   5.724   7.821  0.0292  0.5045 -1.3265
  776MOL0     C 4683   1.575   5.764   7.759 -0.9202 -0.5016  0.2738
  776MOL0     O 4684   1.686   5.707   7.816  0.2912  1.0828  0.2296
  776MOL0     C 4685   1.814   5.772   7.838  1.0598  0.3454  0.4232
  776MOL0     C 4686   1.917   5.669   7.886  0.9262 -0.5526 -0.3409
  776MOL0     C 4687   2.058   5.695   7.850 -0.5706  0.2129  0.1913
  776MOL0     C 4688   2.130   5.595   7.931  0.2284 -0.5305  0.1837
  776MOL0     C 4689   2.275   5.608   7.925 -0.0660  0.7044  0.1250
  776MOL0     C 4690   2.397   5.614   7.929  0.6925 -0.7181  0.0440
  776MOL0     C 4691   1.575   5.851   7.650  0.3172 -0.5102 -0.5504
  776MOL0     C 4692   1.456   5.883   7.583  0.2753 -0.3170 -0.1181
  776MOL0     H 4693   0.980   6.124   7.543  1.8333 -0.1281  0.3876
  776MOL0     H 4694   0.775   6.111   7.438  0.2375 -1.1582  2.4048
  776MOL0     H 4695   0.603   6.008   7.368  0.7961 -1.2997 -0.5543
  776MOL0     H 4696   0.582   6.118   7.226  0.1608 -0.0132 -0.7580
  776MOL0     H 4697   0.513   5.917   7.090  2.5498  1.7140  0.1441
  776MOL0     H 4698   0.483   5.832   7.239  0.9449 -0.2629 -1.6826
  776MOL0     H 4699   0.280   5.915   7.243 -2.8194  1.0431 -1.6364
  776MOL0     H 4700   0.353   6.064   7.304 -1.0061  0.8740  0.7541
  776MOL0     H 4701   0.359   6.154   7.074 -3.7953  1.6206 -4.1427
  776MOL0     H 4702   0.299   6.013   7.001  1.5777 -0.6365  0.4732
  776MOL0     H 4703   0.094   6.038   7.165  0.4867  0.0567 -0.4884
  776MOL0     H 4704   0.168   6.185   7.222 -3.0324 -0.1895  0.0786
  776MOL0     H 4705   0.012   6.252   7.082  1.6268 -0.5368  1.6893
  776MOL0     H 4706   0.152   6.266   6.984  1.2265 -0.1759  1.3933
  776MOL0     H 4707   0.117   6.042   6.868  0.1923 -1.3517  1.5116
  776MOL0     H 4708  -0.026   6.016   6.963 -2.1243  3.3472  2.8532
  776MOL0     H 4709  -0.038   6.107   6.719 -0.8644 -2.4202  1.3385
  776MOL0     H 4710   0.016   6.259   6.777 -0.5418 -0.0625 -0.5910
  776MOL0     H 4711  -0.230   6.127   7.026 -0.6752 -0.9566  0.0639
  776MOL0     H 4712  -0.467   6.200   7.100 -3.5415 -0.4716  0.6514
  776MOL0     H 4713  -0.465   6.376   7.083 -1.1422 -0.2288  0.0784
  776MOL0     H 4714  -0.628   6.364   6.903  3.4488 -0.3787 -0.2306
  776MOL0     H 4715  -0.671   6.317   7.070  1.9750  3.8407  0.3440
  776MOL0     H 4716  -0.624   6.071   7.012 -2.7873 -2.2027 -0.1666
  776MOL0     H 4717  -0.606   6.122   6.841  1.8435  0.8864  0.5097
  776MOL0     H 4718  -0.838   6.219   6.857 -1.0132  1.2414  1.6480
  776MOL0     H 4719  -0.858   6.147   7.015 -2.3215 -2.3609 -0.7775
  776MOL0     H 4720  -0.917   5.769   6.832 -0.8486 -0.3071  0.4895
  776MOL0     H 4721  -1.189   5.640   6.676 -0.3200  1.1501 -0.6325
  776MOL0     H 4722  -1.039   5.607   6.778  0.9350  3.0703  1.8741
  776MOL0     H 4723  -1.209   5.587   6.839  1.5235  0.2411  1.4590
  776MOL0     H 4724  -1.645   5.737   6.847 -0.8692  0.4914  1.3576
  776MOL0     H 4725  -1.890   5.739   6.801  0.5103 -0.2650  1.4361
  776MOL0     H 4726  -2.045   5.745   6.668  0.3912  1.1590 -1.1248
  776MOL0     H 4727  -2.115   5.779   6.822  0.7616 -0.6297  0.3831
  776MOL0     H 4728  -2.285   5.929   6.685  1.5541  0.5673  1.4587
  776MOL0     H 4729  -2.233   5.829   6.546 -0.0166 -1.8833 -0.4815
  776MOL0     H 4730  -2.356   5.719   6.810 -1.1257 -3.0285  0.1021
  776MOL0     H 4731  -2.308   5.627   6.675 -2.1654 -0.3761 -0.0097
  776MOL0     H 4732  -2.545   5.826   6.654 -0.6079  0.0467  0.2545
  776MOL0     H 4733  -2.492   5.717   6.540 -0.3390 -0.7444  0.5581
  776MOL0     H 4734  -2.678   5.680   6.661  2.0177  3.3991 -1.3278
  776MOL0     H 4735  -2.601   5.663   6.829  0.3444  0.6835 -0.0864
  776MOL0     H 4736  -2.563   5.477   6.581  1.7445 -1.2316 -0.6671
  776MOL0     H 4737  -2.484   5.453   6.738 -1.7843 -1.7098  1.0201
  776MOL0     H 4738  -2.774   5.449   6.657 -0.4803 -0.5531 -0.4623
  776MOL0     H 4739  -2.738   5.435   6.827 -1.1991 -0.8250 -0.0871
  776MOL0     H 4740  -2.598   5.234   6.781  0.9954 -2.0302 -1.3161
  776MOL0     H 4741  -2.646   5.234   6.608 -4.6488  1.7639 -2.0712
  776MOL0     H 4742  -1.871   6.154   6.707 -0.4643 -0.4645 -0.7494
  776MOL0     H 4743  -1.625   6.149   6.744  2.0025 -1.3868 -0.5213
  776MOL0     H 4744  -1.277   6.105   6.836 -0.9528 -1.3410  0.0681
  776MOL0     H 4745  -1.051   6.176   6.858 -2.3740  0.4402  0.6445
  776MOL0     H 4746   0.936   5.843   7.145 -1.1481  0.4656  1.1744
  776MOL0     H 4747   1.142   5.837   7.269  2.8945  0.9811  2.0311
  776MOL0     H 4748   1.245   5.717   7.795 -0.9399  1.4530  0.5376
  776MOL0     H 4749   1.450   5.660   7.908  0.5459  2.0935 -0.0782
  776MOL0     H 4750   1.850   5.818   7.746 -1.4559  2.7396  0.4661
  776MOL0     H 4751   1.794   5.842   7.920  0.3586  0.1986  0.3869
  776MOL0     H 4752   1.887   5.570   7.849  1.3256 -1.6229  2.0427
  776MOL0     H 4753   1.896   5.661   7.993 -1.6155 -1.6652 -0.8571
  776MOL0     H 4754   2.085   5.799   7.871 -0.3961  0.2562 -0.2439
  776MOL0     H 4755   2.066   5.672   7.743 -0.8154 -1.6244  0.5304
  776MOL0     H 4756   2.098   5.493   7.905  1.7586 -0.8015 -0.8026
  776MOL0     H 4757   2.098   5.607   8.034 -0.7733 -1.1562 -0.0428
  776MOL0     H 4758   2.502   5.624   7.948  0.9469 -1.7358 -0.7113
  776MOL0     H 4759   1.666   5.885   7.602 -0.3615 -0.4702 -1.8643
  776MOL0     H 4760   1.463   5.933   7.487  0.2147 -0.3569 -0.1431
  777MOL0     O 4761  10.403   6.192   1.442  0.0823  0.4056 -0.1106
  777MOL0     C 4762  10.374   6.310   1.439 -0.0538  0.4923  1.0526
  777MOL0     O 4763  10.259   6.359   1.375 -0.4493 -0.1250  0.6577
  777MOL0     C 4764  10.159   6.268   1.354 -0.0143  0.5609 -1.1442
  777MOL0     C 4765  10.154   6.185   1.251  0.1298  0.4296 -0.1036
  777MOL0     C 4766  10.027   6.125   1.219  0.3637  0.5943 -0.2198
  777MOL0     C 4767   9.915   6.120   1.306 -0.4571 -0.9946  1.4533
  777MOL0     O 4768   9.795   6.055   1.268  0.1799 -0.2124  0.5613
  777MOL0     C 4769   9.718   6.023   1.379  0.8134 -0.6277  0.5627
  777MOL0     C 4770   9.590   5.946   1.347 -1.1436 -0.2502 -0.5578
  777MOL0     C 4771   9.504   6.019   1.255 -0.3575 -0.2362 -0.4874
  777MOL0     C 4772   9.359   5.994   1.266 -0.4746 -0.0096  0.0560
  777MOL0     C 4773   9.299   6.060   1.141  0.3605  0.0649 -0.2483
  777MOL0     C 4774   9.147   6.062   1.151 -0.7462  0.1951  0.0748
  777MOL0     C 4775   9.078   6.100   1.021  0.8248 -0.1369 -0.3565
  777MOL0     C 4776   8.928   6.054   1.029 -0.5354 -1.0173 -0.2956
  777MOL0     N 4777   8.859   6.126   0.921  0.0039  0.9666 -0.2572
  777MOL0     C 4778   8.844   6.262   0.901  0.1669 -0.4642  0.4409
  777MOL0     C 4779   8.770   6.261   0.782  0.1886  0.4915 -0.2801
  777MOL0     C 4780   8.722   6.383   0.708 -0.0853 -0.1436  0.1777
  777MOL0     C 4781   8.578   6.418   0.747 -0.6887  0.1666  0.2807
  777MOL0     C 4782   8.478   6.305   0.710 -0.0857 -0.0262  0.0715
  777MOL0     C 4783   8.335   6.360   0.683 -0.2126 -0.0116 -0.6309
  777MOL0     O 4784   8.311   6.436   0.801  0.7149  0.4510 -0.5306
  777MOL0     C 4785   8.181   6.451   0.840  0.5924  0.2333  0.1018
  777MOL0     C 4786   8.158   6.498   0.969  0.1778 -0.3485 -0.1318
  777MOL0     C 4787   8.029   6.530   1.021  0.4964 -0.2241 -0.1639
  777MOL0     C 4788   8.009   6.563   1.168  0.0682  0.1772 -0.0417
  777MOL0     C 4789   7.916   6.500   0.937  0.2775  0.4454 -0.0846
  777MOL0     C 4790   7.772   6.518   0.970 -0.6079  0.4269 -0.5161
  777MOL0     O 4791   7.682   6.470   0.880  0.1804  0.3564 -0.3049
  777MOL0     C 4792   7.555   6.503   0.908  0.6690  0.2159 -0.0903
  777MOL0     C 4793   7.484   6.421   1.005 -0.4211  0.0853 -0.6607
  777MOL0     C 4794   7.364   6.463   1.061 -0.6026 -0.1898  0.7029
  777MOL0     C 4795   7.299   6.578   1.008 -0.0904 -0.2270  0.3083
  777MOL0     O 4796   7.179   6.621   1.054  0.2629  0.1077 -0.3469
  777MOL0     C 4797   7.105   6.546   1.157  0.4343 -0.2531  0.1566
  777MOL0     C 4798   6.964   6.616   1.185 -0.3620  0.1776 -0.7086
  777MOL0     C 4799   6.881   6.635   1.064 -0.2335 -0.3477 -0.3677
  777MOL0     C 4800   6.788   6.758   1.083 -0.2291 -0.3778  0.4060
  777MOL0     C 4801   6.724   6.785   0.951 -0.1031  0.0667  0.5392
  777MOL0     C 4802   6.642   6.918   0.955  0.2618  0.7545 -0.3049
  777MOL0     C 4803   6.581   6.944   0.820 -0.3797 -0.5268  0.7327
  777MOL0     C 4804   6.672   7.004   0.713 -0.0744 -0.0941  0.4977
  777MOL0    Cl 4805   6.589   7.081   0.565 -0.0496  0.1999  0.0528
  777MOL0     C 4806   7.364   6.650   0.913  0.5908  0.3366 -0.6502
  777MOL0     C 4807   7.492   6.621   0.869  0.6782 -0.5581  0.6994
  777MOL0     O 4808   7.738   6.558   1.080 -0.1953  0.5560  0.2166
  777MOL0     C 4809   7.939   6.449   0.806  0.5351  0.9743  1.0643
  777MOL0     C 4810   8.067   6.431   0.761  0.4018  0.1348 -0.0471
  777MOL0     N 4811   8.732   6.127   0.749 -0.4194 -0.6245 -0.3795
  777MOL0     N 4812   8.787   6.048   0.841 -0.1078 -0.6435  0.5999
  777MOL0     C 4813   9.938   6.195   1.421  0.5277 -0.3710 -0.4599
  777MOL0     C 4814  10.059   6.261   1.448  0.3069  1.0149  0.4943
  777MOL0     C 4815  10.462   6.415   1.499 -0.3388  0.8481  0.0797
  777MOL0     C 4816  10.595   6.407   1.471 -0.3709 -0.4252 -0.2753
  777MOL0     C 4817  10.676   6.518   1.510  0.2452  0.0019 -0.3749
  777MOL0     C 4818  10.623   6.627   1.587  0.1334  0.1622  0.0300
  777MOL0     O 4819  10.695   6.737   1.628  0.0734 -0.0206 -0.4663
  777MOL0     C 4820  10.839   6.739   1.632  0.1510  0.0321  0.0008
  777MOL0     C 4821  10.878   6.845   1.736 -0.1819 -0.1829  0.4884
  777MOL0     C 4822  11.028   6.872   1.723 -1.3610  0.9327  0.6751
  777MOL0     C 4823  11.072   6.967   1.608  0.0746  0.3915  0.7026
  777MOL0     C 4824  11.011   7.099   1.612  0.7293  0.0943 -0.0315
  777MOL0     C 4825  10.951   7.210   1.601  0.8677 -0.0248 -0.0751
  777MOL0     C 4826  10.482   6.637   1.604  1.3336  0.3038  0.2486
  777MOL0     C 4827  10.404   6.521   1.564 -0.1724 -0.0193  0.3695
  777MOL0     H 4828  10.241   6.188   1.186 -0.3516  2.2034 -0.7514
  777MOL0     H 4829  10.011   6.066   1.129 -0.7719 -0.7281  0.8086
  777MOL0     H 4830   9.771   5.961   1.452  0.6072  0.7871  1.9663
  777MOL0     H 4831   9.686   6.116   1.426  1.5892  0.9252 -1.8456
  777MOL0     H 4832   9.617   5.851   1.301 -2.8676  0.0751 -2.3595
  777MOL0     H 4833   9.539   5.933   1.443 -1.7497 -0.8639 -0.9634
  777MOL0     H 4834   9.513   6.126   1.272 -2.0635 -0.3394  1.2876
  777MOL0     H 4835   9.534   6.001   1.151 -0.3694  1.3694 -0.7949
  777MOL0     H 4836   9.331   5.889   1.280 -1.1482  0.5956  5.3800
  777MOL0     H 4837   9.323   6.050   1.353  0.1924 -1.6868  1.4818
  777MOL0     H 4838   9.329   6.165   1.130  1.9404 -0.4333 -0.9899
  777MOL0     H 4839   9.327   6.018   1.044  1.9172 -0.2543  0.3173
  777MOL0     H 4840   9.110   5.965   1.184 -0.7219  0.0417 -0.3473
  777MOL0     H 4841   9.125   6.138   1.227 -0.1715  2.1516 -1.6346
  777MOL0     H 4842   9.088   6.209   1.012  0.0768  0.6086  4.8018
  777MOL0     H 4843   9.118   6.047   0.934  2.1786 -0.1106  0.2357
  777MOL0     H 4844   8.894   6.095   1.125 -1.3639 -0.2557 -0.8992
  777MOL0     H 4845   8.922   5.947   1.008 -1.2208 -0.6225 -2.4163
  777MOL0     H 4846   8.877   6.354   0.948 -2.2704  0.2479  0.9088
  777MOL0     H 4847   8.787   6.470   0.723 -1.1613  0.8420 -0.7152
  777MOL0     H 4848   8.724   6.365   0.601  2.5423 -2.0352  0.4433
  777MOL0     H 4849   8.555   6.514   0.700 -0.1892 -0.0100 -0.3442
  777MOL0     H 4850   8.582   6.449   0.852  4.9295  0.8854  0.1663
  777MOL0     H 4851   8.484   6.234   0.792 -1.7332 -1.8719 -1.3030
  777MOL0     H 4852   8.515   6.255   0.620  1.0402  1.7564 -0.5141
  777MOL0     H 4853   8.264   6.278   0.667  0.5941 -0.5234 -1.7170
  777MOL0     H 4854   8.335   6.415   0.589 -0.3373 -1.5999 -1.5948
  777MOL0     H 4855   8.248   6.527   1.021 -1.0120  1.0098  1.2597
  777MOL0     H 4856   7.976   6.667   1.176  0.5792  0.2418  1.6634
  777MOL0     H 4857   7.943   6.492   1.218 -0.3301 -1.4563 -2.6651
  777MOL0     H 4858   8.098   6.547   1.229 -0.2552 -0.8492  0.1716
  777MOL0     H 4859   7.538   6.335   1.045 -0.7763 -0.1806 -0.7506
  777MOL0     H 4860   7.326   6.407   1.146 -2.1083 -1.4497 -0.7341
  777MOL0     H 4861   7.080   6.450   1.112  1.3791 -1.0003  1.1713
  777MOL0     H 4862   7.155   6.521   1.251  2.2367 -4.5417 -1.7057
  777MOL0     H 4863   6.919   6.551   1.261  1.0441  1.2866  1.1549
  777MOL0     H 4864   6.989   6.712   1.230  2.5758 -0.8436  0.1122
  777MOL0     H 4865   6.823   6.544   1.045 -0.4696 -0.2044 -0.3489
  777MOL0     H 4866   6.953   6.663   0.987 -0.8209  2.7195  0.0542
  777MOL0     H 4867   6.713   6.737   1.161 -0.4339  2.8389  1.2361
  777MOL0     H 4868   6.845   6.844   1.120 -0.3215  0.5858 -1.5654
  777MOL0     H 4869   6.661   6.698   0.933 -0.2312  0.3651 -0.5190
  777MOL0     H 4870   6.803   6.802   0.878 -2.2513  2.6895 -1.4142
  777MOL0     H 4871   6.562   6.920   1.030 -0.9735 -2.2826 -1.4105
  777MOL0     H 4872   6.720   6.990   0.979  1.3696 -0.3556 -0.5086
  777MOL0     H 4873   6.496   7.012   0.832  1.0011  0.9979  2.3265
  777MOL0     H 4874   6.528   6.857   0.778 -3.3526  2.0149 -1.3106
  777MOL0     H 4875   6.740   6.922   0.689  1.9446  1.5697  0.2787
  777MOL0     H 4876   6.737   7.079   0.759  1.2906 -0.2847 -1.0400
  777MOL0     H 4877   7.325   6.745   0.877  0.6070  0.9233  0.7956
  777MOL0     H 4878   7.527   6.689   0.793 -0.3797 -0.6167  0.1385
  777MOL0     H 4879   7.858   6.412   0.743 -0.0825 -0.1504  2.4769
  777MOL0     H 4880   8.078   6.402   0.657  0.6057  2.5552 -0.7665
  777MOL0     H 4881   9.860   6.206   1.496 -0.4035  1.6121 -1.6317
  777MOL0     H 4882  10.070   6.320   1.539 -2.5960  2.9231 -0.2500
  777MOL0     H 4883  10.632   6.319   1.419 -1.4494 -0.0558 -1.7537
  777MOL0     H 4884  10.782   6.505   1.492  0.0878 -1.6666 -0.3137
  777MOL0     H 4885  10.880   6.639   1.651 -0.6035  0.0306  1.9020
  777MOL0     H 4886  10.881   6.764   1.534 -1.0231  0.6593 -0.3638
  777MOL0     H 4887  10.873   6.805   1.837  5.8479 -3.3817 -0.0094
  777MOL0     H 4888  10.820   6.938   1.728  0.1083 -0.1039 -0.9911
  777MOL0     H 4889  11.075   6.774   1.707  2.2377  2.8321 -1.9605
  777MOL0     H 4890  11.062   6.900   1.823  1.9566 -1.1083  0.2541
  777MOL0     H 4891  11.041   6.930   1.510 -1.3182  1.5082  0.6951
  777MOL0     H 4892  11.179   6.988   1.596 -0.0327  0.8612  0.5414
  777MOL0     H 4893  10.888   7.296   1.602 -1.3314 -1.5651  0.7781
  777MOL0     H 4894  10.425   6.720   1.646  1.0813  0.7688 -0.9839
  777MOL0     H 4895  10.297   6.528   1.581 -0.6380 -1.8414 -1.4985
  778MOL0     O 4896   8.886   6.404   3.203  0.3724 -0.2259 -0.3744
  778MOL0     C 4897   8.953   6.421   3.311  0.7132  1.0238  1.1954
  778MOL0     O 4898   8.902   6.407   3.435  0.3437 -0.1832 -0.2998
  778MOL0     C 4899   8.777   6.361   3.438  0.0653  0.0203 -0.4078
  778MOL0     C 4900   8.671   6.453   3.439 -0.8623 -0.2308  0.1469
  778MOL0     C 4901   8.542   6.410   3.461 -0.5314 -0.0955 -0.7468
  778MOL0     C 4902   8.513   6.275   3.496 -0.5874  0.6245  0.4257
  778MOL0     O 4903   8.383   6.247   3.518 -0.1444  0.0569  0.0882
  778MOL0     C 4904   8.349   6.104   3.539 -1.4402  0.0065  0.0043
  778MOL0     C 4905   8.207   6.078   3.583  0.3247 -0.7032  0.4694
  778MOL0     C 4906   8.147   6.189   3.657  0.2486  0.2514 -0.4700
  778MOL0     C 4907   8.010   6.140   3.733 -0.5893  0.3342  0.8670
  778MOL0     C 4908   7.904   6.103   3.625  0.4613  0.0972  0.3062
  778MOL0     C 4909   7.777   6.060   3.701 -0.9060 -0.0240  0.8472
  778MOL0     C 4910   7.663   6.028   3.603  0.7704  1.2882 -0.1411
  778MOL0     C 4911   7.527   5.975   3.672  0.1207 -0.4353  0.6840
  778MOL0     N 4912   7.448   6.080   3.734  0.5023 -0.8054  0.4585
  778MOL0     C 4913   7.364   6.180   3.675  0.2649 -0.7905  0.0672
  778MOL0     C 4914   7.337   6.270   3.777  0.1669 -0.0011  0.8809
  778MOL0     C 4915   7.252   6.397   3.766 -0.7600  0.0431 -0.2715
  778MOL0     C 4916   7.098   6.357   3.793 -1.0260 -0.1600  0.3886
  778MOL0     C 4917   7.009   6.483   3.780 -0.2955 -0.0529  0.2481
  778MOL0     C 4918   6.864   6.439   3.770 -0.5794 -0.0894 -0.0502
  778MOL0     O 4919   6.798   6.535   3.690  0.0129  0.5052  0.0958
  778MOL0     C 4920   6.660   6.517   3.686 -0.2963 -0.2394  0.8848
  778MOL0     C 4921   6.597   6.640   3.679  0.0345  0.5465  0.1207
  778MOL0     C 4922   6.456   6.650   3.703  0.5425  0.1851  0.1357
  778MOL0     C 4923   6.393   6.782   3.681 -0.6190  0.4567  0.3432
  778MOL0     C 4924   6.385   6.524   3.716  0.2128 -0.3555 -0.4530
  778MOL0     C 4925   6.235   6.520   3.729 -0.6441  0.2969 -0.1428
  778MOL0     O 4926   6.177   6.416   3.802 -0.1543 -0.0064  0.2531
  778MOL0     C 4927   6.036   6.408   3.803 -0.2206 -0.4042  0.6739
  778MOL0     C 4928   5.977   6.299   3.734 -0.0499 -0.0455 -0.1748
  778MOL0     C 4929   5.836   6.285   3.713  0.4301  0.7576 -0.4886
  778MOL0     C 4930   5.758   6.388   3.770  0.1929 -0.2665 -0.6858
  778MOL0     O 4931   5.623   6.399   3.747 -0.4179 -0.6342  0.5560
  778MOL0     C 4932   5.573   6.354   3.619  0.3135 -0.2815 -1.0096
  778MOL0     C 4933   5.430   6.402   3.617 -0.3261 -0.9043 -0.8070
  778MOL0     C 4934   5.344   6.334   3.716  0.5919 -0.3415  0.1674
  778MOL0     C 4935   5.211   6.402   3.740  0.0238 -0.7910  0.2668
  778MOL0     C 4936   5.111   6.392   3.626  1.0650 -0.3772  0.2840
  778MOL0     C 4937   4.967   6.434   3.679  0.4068  0.2523 -0.9102
  778MOL0     C 4938   4.864   6.436   3.561  0.3146 -0.4639  0.4592
  778MOL0     C 4939   4.709   6.426   3.609  0.2404  0.0169  0.4163
  778MOL0    Cl 4940   4.607   6.498   3.460 -0.3268 -0.1562 -0.5626
  778MOL0     C 4941   5.810   6.484   3.854  0.0351  0.2415 -0.0036
  778MOL0     C 4942   5.948   6.496   3.859 -0.0292  0.1296 -0.1682
  778MOL0     O 4943   6.168   6.596   3.657 -0.4505  0.0744 -0.7212
  778MOL0     C 4944   6.448   6.403   3.699 -0.0147 -0.0132 -0.6818
  778MOL0     C 4945   6.585   6.397   3.684  1.4614 -0.0586  0.3283
  778MOL0     N 4946   7.395   6.222   3.891  1.0290  0.4546  0.2834
  778MOL0     N 4947   7.464   6.116   3.860  0.6560  0.4714  0.5880
  778MOL0     C 4948   8.622   6.183   3.495 -0.5969 -0.0577 -0.4742
  778MOL0     C 4949   8.749   6.226   3.460  0.0268 -0.7303 -0.9751
  778MOL0     C 4950   9.088   6.461   3.302 -0.1455 -0.6463 -0.4406
  778MOL0     C 4951   9.129   6.534   3.195  0.4696  0.3576  0.5920
  778MOL0     C 4952   9.267   6.571   3.174  0.2327 -0.0069 -0.9541
  778MOL0     C 4953   9.364   6.539   3.273 -0.3444  0.6662  0.4978
  778MOL0     O 4954   9.495   6.571   3.256 -0.2017  0.3238 -0.2986
  778MOL0     C 4955   9.558   6.561   3.128  0.5992  0.3886  1.1121
  778MOL0     C 4956   9.538   6.414   3.068  0.1760 -1.7520 -1.1525
  778MOL0     C 4957   9.587   6.406   2.924  0.1356  0.1165 -0.5745
  778MOL0     C 4958   9.585   6.264   2.862 -1.1231 -0.2535 -0.2365
  778MOL0     C 4959   9.459   6.193   2.872  0.8250  0.0845 -0.6246
  778MOL0     C 4960   9.361   6.127   2.890  0.2898  0.1991  0.8571
  778MOL0     C 4961   9.322   6.463   3.382 -0.6143 -0.7079 -0.5704
  778MOL0     C 4962   9.188   6.426   3.397 -0.6759  1.3631  0.3564
  778MOL0     H 4963   8.688   6.558   3.417  2.1650 -0.8342 -0.8196
  778MOL0     H 4964   8.455   6.475   3.464 -0.8030 -0.4812  1.1510
  778MOL0     H 4965   8.370   6.047   3.448  2.7888  1.2706 -0.0049
  778MOL0     H 4966   8.416   6.078   3.621 -0.9131  0.9644 -0.1001
  778MOL0     H 4967   8.145   6.078   3.493  2.3154  2.5259 -1.0811
  778MOL0     H 4968   8.206   5.988   3.646  1.9444 -0.4476  0.9075
  778MOL0     H 4969   8.211   6.220   3.740 -1.2799  0.0453  0.8378
  778MOL0     H 4970   8.129   6.275   3.592  0.3043  0.6074 -0.0156
  778MOL0     H 4971   8.024   6.053   3.798  1.7985 -0.2858 -0.3641
  778MOL0     H 4972   7.979   6.215   3.806  0.2791  0.5993  0.9668
  778MOL0     H 4973   7.883   6.197   3.573  4.9173  0.7727 -0.6770
  778MOL0     H 4974   7.947   6.031   3.555  1.2169  0.7688  0.0676
  778MOL0     H 4975   7.804   5.964   3.746 -0.5069 -0.9739 -1.2800
  778MOL0     H 4976   7.740   6.130   3.777 -0.9152 -0.1759  0.9829
  778MOL0     H 4977   7.647   6.127   3.560  1.0578  1.3959 -0.0059
  778MOL0     H 4978   7.692   5.954   3.527  1.0857  0.6691  0.5632
  778MOL0     H 4979   7.553   5.903   3.751  0.5896  1.0231  1.9204
  778MOL0     H 4980   7.471   5.926   3.592 -0.8822 -0.4955  1.3934
  778MOL0     H 4981   7.341   6.197   3.570  3.2559  0.0540 -0.5651
  778MOL0     H 4982   7.292   6.470   3.837 -0.2114 -3.7817  3.7700
  778MOL0     H 4983   7.269   6.440   3.667  0.5494  0.5332  0.1449
  778MOL0     H 4984   7.084   6.325   3.896  0.2371  1.2043  1.0171
  778MOL0     H 4985   7.073   6.280   3.720 -0.1342  1.4716 -1.7599
  778MOL0     H 4986   7.037   6.536   3.688  0.0510  2.1194  1.5549
  778MOL0     H 4987   7.024   6.555   3.860 -1.0817  1.2413 -0.7189
  778MOL0     H 4988   6.818   6.422   3.867  0.2633 -2.4541  0.0057
  778MOL0     H 4989   6.868   6.344   3.717  1.4686 -1.2335  1.9731
  778MOL0     H 4990   6.662   6.725   3.663  2.2518 -0.5640  2.5768
  778MOL0     H 4991   6.476   6.853   3.686  0.3934 -0.7574  3.7120
  778MOL0     H 4992   6.341   6.791   3.585 -4.4161  3.6647  2.4054
  778MOL0     H 4993   6.324   6.817   3.759 -0.0867  2.7770 -0.1483
  778MOL0     H 4994   6.027   6.212   3.692  1.3165 -0.5257  2.2214
  778MOL0     H 4995   5.795   6.206   3.651  2.0607  2.0714 -3.4470
  778MOL0     H 4996   5.625   6.400   3.535  0.3138  0.0754 -0.8213
  778MOL0     H 4997   5.574   6.245   3.616  0.8488 -0.3222  0.0646
  778MOL0     H 4998   5.420   6.510   3.629 -0.0532 -1.0329  0.8118
  778MOL0     H 4999   5.382   6.372   3.523  1.6487 -2.0700 -1.5025
  778MOL0     H 5000   5.397   6.354   3.810  4.2758  0.8186 -1.9327
  778MOL0     H 5001   5.326   6.228   3.695 -0.9503 -0.0952  0.0983
  778MOL0     H 5002   5.167   6.356   3.829 -0.4425 -1.1109 -0.1265
  778MOL0     H 5003   5.230   6.509   3.752 -0.8935 -0.6535  0.5814
  778MOL0     H 5004   5.112   6.292   3.581 -2.0393 -1.3381  2.1257
  778MOL0     H 5005   5.142   6.461   3.547  4.9369 -1.4306  0.6553
  778MOL0     H 5006   4.933   6.363   3.755  2.4654 -1.0781 -1.1515
  778MOL0     H 5007   4.967   6.534   3.724 -2.4658 -0.8214  1.8093
  778MOL0     H 5008   4.873   6.360   3.482  2.4266 -1.1904  1.3361
  778MOL0     H 5009   4.883   6.525   3.500  0.9526 -2.1660 -2.0001
  778MOL0     H 5010   4.673   6.479   3.698 -0.2233 -0.4729  0.5303
  778MOL0     H 5011   4.683   6.324   3.640  1.5971  0.2341  2.4367
  778MOL0     H 5012   5.747   6.557   3.905 -0.6863  1.9806 -3.1389
  778MOL0     H 5013   5.982   6.584   3.913 -0.2720  0.3018 -0.2951
  778MOL0     H 5014   6.391   6.311   3.704 -1.4434  0.8711  0.5633
  778MOL0     H 5015   6.628   6.298   3.671  1.5037 -0.0866  0.6732
  778MOL0     H 5016   8.603   6.080   3.526  2.0876 -0.2661  0.7134
  778MOL0     H 5017   8.823   6.147   3.458 -1.3041 -2.0573 -0.0605
  778MOL0     H 5018   9.051   6.551   3.122 -0.4336  2.5805  1.9724
  778MOL0     H 5019   9.301   6.622   3.085 -1.9746 -0.7132 -2.2808
  778MOL0     H 5020   9.510   6.637   3.067 -1.8453 -0.4474  1.8587
  778MOL0     H 5021   9.665   6.581   3.134  0.8593 -0.6817  0.2447
  778MOL0     H 5022   9.436   6.376   3.082 -0.2136 -0.0854  1.2260
  778MOL0     H 5023   9.609   6.361   3.133  1.0054  0.9859  0.3651
  778MOL0     H 5024   9.677   6.467   2.909 -1.7496  2.4133 -4.2820
  778MOL0     H 5025   9.502   6.456   2.876 -1.9872 -1.2693  1.5475
  778MOL0     H 5026   9.663   6.199   2.904 -0.7790 -0.4380 -1.1348
  778MOL0     H 5027   9.622   6.278   2.760 -2.7956  0.9154 -0.7244
  778MOL0     H 5028   9.264   6.081   2.896  0.5400 -0.2738  1.4780
  778MOL0     H 5029   9.395   6.432   3.456 -0.2889 -0.3275 -0.7260
  778MOL0     H 5030   9.163   6.357   3.476  1.0192 -2.5414 -2.1999
  779MOL0     O 5031   3.630   5.969   8.837  0.1603  0.3470 -1.1667
  779MOL0     C 5032   3.741   5.996   8.893  1.1589 -0.6123 -0.3088
  779MOL0     O 5033   3.750   6.057   9.012 -0.4415 -0.2494 -0.1460
  779MOL0     C 5034   3.636   6.119   9.080  0.3005 -0.7855  0.0854
  779MOL0     C 5035   3.643   6.126   9.217  0.6416 -0.1233 -0.6174
  779MOL0     C 5036   3.531   6.182   9.293 -0.8266 -0.6041 -0.1086
  779MOL0     C 5037   3.412   6.220   9.243  0.2814 -0.8045  0.4084
  779MOL0     O 5038   3.311   6.263   9.329  0.2938  0.2939 -0.1593
  779MOL0     C 5039   3.205   6.331   9.273  0.4416  0.0738  0.6067
  779MOL0     C 5040   3.124   6.396   9.384  0.0486 -0.6172  0.4049
  779MOL0     C 5041   3.015   6.495   9.331 -0.5119  0.3404 -0.2772
  779MOL0     C 5042   2.894   6.514   9.417 -0.2339 -0.9467 -0.0871
  779MOL0     C 5043   2.776   6.437   9.378  0.0992  0.8950  0.7771
  779MOL0     C 5044   2.649   6.470   9.466 -0.3563 -0.0260 -0.2533
  779MOL0     C 5045   2.530   6.371   9.441 -0.4440  0.2970 -0.1445
  779MOL0     C 5046   2.550   6.225   9.477 -0.0529 -0.4039 -0.9583
  779MOL0     N 5047   2.451   6.131   9.421 -0.4233 -0.5484 -0.2964
  779MOL0     C 5048   2.410   6.131   9.290 -0.3988 -0.3832  0.6692
  779MOL0     C 5049   2.309   6.050   9.287  0.2315 -0.3060  0.2248
  779MOL0     C 5050   2.227   6.024   9.164 -0.4370 -0.7870  0.6997
  779MOL0     C 5051   2.114   6.121   9.146 -0.2470 -0.3781  0.1674
  779MOL0     C 5052   2.017   6.100   9.261  0.3209 -0.5830  0.0352
  779MOL0     C 5053   1.892   6.181   9.220 -0.5894 -0.2859  0.6245
  779MOL0     O 5054   1.806   6.186   9.334  0.7546 -0.2916  0.3102
  779MOL0     C 5055   1.686   6.260   9.331 -0.0346  0.1394  0.3230
  779MOL0     C 5056   1.619   6.313   9.218  0.1086  0.3996  0.4441
  779MOL0     C 5057   1.492   6.367   9.227  0.0011 -0.3884 -0.6919
  779MOL0     C 5058   1.424   6.441   9.111  0.3579 -0.7953  0.1831
  779MOL0     C 5059   1.429   6.377   9.355  1.4688  0.3313 -0.6996
  779MOL0     C 5060   1.291   6.430   9.387  0.3580 -0.1327 -0.1020
  779MOL0     O 5061   1.262   6.444   9.518  0.2227  0.0125 -0.4210
  779MOL0     C 5062   1.137   6.502   9.563  0.4432 -0.1564  0.3406
  779MOL0     C 5063   1.106   6.479   9.698 -0.9865  0.2906  0.7978
  779MOL0     C 5064   0.979   6.533   9.752 -0.1503  0.7119 -1.0291
  779MOL0     C 5065   0.895   6.614   9.675 -0.4826 -0.6909  0.1319
  779MOL0     O 5066   0.782   6.650   9.739  0.1918 -0.2346 -0.7852
  779MOL0     C 5067   0.688   6.724   9.665  0.0420 -0.3221  0.0269
  779MOL0     C 5068   0.585   6.791   9.761  0.5001 -1.6112  0.0222
  779MOL0     C 5069   0.516   6.908   9.700 -0.7534 -0.4198 -0.0434
  779MOL0     C 5070   0.405   6.865   9.608 -0.1355 -0.1382  0.0501
  779MOL0     C 5071   0.325   6.995   9.587 -0.1788 -0.8080  0.9453
  779MOL0     C 5072   0.188   6.961   9.537  0.1855 -0.7649 -0.3980
  779MOL0     C 5073   0.105   7.079   9.498  0.1443 -0.8626 -0.4239
  779MOL0     C 5074  -0.048   7.054   9.482  0.4242 -0.9341  0.4342
  779MOL0    Cl 5075  -0.141   7.189   9.418  0.1553 -0.0448  0.0467
  779MOL0     C 5076   0.937   6.632   9.545  0.5175 -0.4929  0.0540
  779MOL0     C 5077   1.047   6.576   9.491  0.0676  0.3830 -0.4715
  779MOL0     O 5078   1.210   6.416   9.300  0.0064  0.3227  0.0576
  779MOL0     C 5079   1.496   6.324   9.470 -0.8000 -0.1288  1.0338
  779MOL0     C 5080   1.626   6.269   9.465  0.1069  0.3428 -0.4754
  779MOL0     N 5081   2.303   5.989   9.413 -0.5347  0.2882  0.3458
  779MOL0     N 5082   2.381   6.041   9.491 -0.5126  0.8323  0.2011
  779MOL0     C 5083   3.407   6.222   9.098  0.7909  0.4056 -0.6914
  779MOL0     C 5084   3.512   6.165   9.019  0.1924 -0.2901  0.3306
  779MOL0     C 5085   3.870   5.950   8.826  0.1234 -1.1835  0.4959
  779MOL0     C 5086   3.870   5.881   8.706  0.8626 -0.4575  0.2707
  779MOL0     C 5087   3.991   5.852   8.636  0.2024 -1.0048  1.1317
  779MOL0     C 5088   4.113   5.886   8.694  1.4911 -0.3279  0.6472
  779MOL0     O 5089   4.225   5.856   8.628 -0.2244 -0.0116  0.2564
  779MOL0     C 5090   4.277   5.722   8.653 -0.3801 -0.4420  0.3540
  779MOL0     C 5091   4.410   5.710   8.576  0.0481  0.3777 -0.1751
  779MOL0     C 5092   4.526   5.781   8.654  0.1675  0.1569  0.3124
  779MOL0     C 5093   4.652   5.790   8.576 -0.0911 -0.1126  0.4625
  779MOL0     C 5094   4.706   5.652   8.553 -0.4309  0.2586 -1.0163
  779MOL0     C 5095   4.752   5.542   8.530 -0.1373 -0.2665 -0.1199
  779MOL0     C 5096   4.111   5.952   8.809  0.3169 -0.3339  0.8193
  779MOL0     C 5097   3.997   5.978   8.883  0.3676 -0.3636 -0.1529
  779MOL0     H 5098   3.726   6.085   9.274  0.8240  2.3132  1.0159
  779MOL0     H 5099   3.541   6.203   9.399 -2.4833 -0.7637  0.1072
  779MOL0     H 5100   3.244   6.396   9.193 -1.6174  1.8255  0.9415
  779MOL0     H 5101   3.136   6.266   9.219  1.1150 -0.7543  0.7253
  779MOL0     H 5102   3.078   6.327   9.455 -2.0419 -0.9644 -1.2072
  779MOL0     H 5103   3.191   6.467   9.432 -0.7371 -0.3886  1.1841
  779MOL0     H 5104   3.072   6.586   9.312  0.3278  1.1229  4.5054
  779MOL0     H 5105   2.984   6.452   9.235 -0.3041 -1.5561  0.4467
  779MOL0     H 5106   2.920   6.484   9.519 -2.0912 -3.4831 -0.2841
  779MOL0     H 5107   2.869   6.620   9.420 -0.3392 -0.8825 -2.0369
  779MOL0     H 5108   2.748   6.453   9.273 -2.5295  0.6557  1.3673
  779MOL0     H 5109   2.809   6.334   9.389  1.1766  1.0959 -0.3670
  779MOL0     H 5110   2.682   6.461   9.570 -0.0524 -5.0882 -0.5141
  779MOL0     H 5111   2.613   6.569   9.438 -0.2075 -0.4828 -2.1787
  779MOL0     H 5112   2.441   6.409   9.492 -0.1228  0.8413  0.0158
  779MOL0     H 5113   2.511   6.376   9.333  0.6193  1.0821 -0.3068
  779MOL0     H 5114   2.537   6.208   9.585 -1.0458 -0.3929 -1.0688
  779MOL0     H 5115   2.651   6.198   9.445  0.8384  0.1059  1.2331
  779MOL0     H 5116   2.459   6.192   9.214 -0.4882  0.8441  1.5721
  779MOL0     H 5117   2.283   6.036   9.071 -0.7919  1.7503  0.7609
  779MOL0     H 5118   2.176   5.927   9.168  0.9558 -1.6103 -0.5631
  779MOL0     H 5119   2.070   6.099   9.048  1.4694  0.8610 -0.9328
  779MOL0     H 5120   2.143   6.226   9.135 -0.6192 -0.1303  1.4123
  779MOL0     H 5121   2.069   6.135   9.350  0.6635 -1.0832  0.0404
  779MOL0     H 5122   1.986   5.996   9.277 -0.5883 -0.1709  1.0970
  779MOL0     H 5123   1.836   6.134   9.138  0.8236 -1.9612  0.5652
  779MOL0     H 5124   1.925   6.285   9.215  0.6684 -0.6160  1.4221
  779MOL0     H 5125   1.669   6.297   9.123  0.4286 -2.7115  1.0211
  779MOL0     H 5126   1.506   6.481   9.050 -0.3763  1.2907  0.4934
  779MOL0     H 5127   1.358   6.373   9.057 -0.4969  0.1778 -0.0154
  779MOL0     H 5128   1.366   6.523   9.153  3.1142  0.5414  1.6727
  779MOL0     H 5129   1.170   6.413   9.756 -2.1312 -0.8273  0.8430
  779MOL0     H 5130   0.957   6.512   9.856  1.0054 -3.1418 -1.4240
  779MOL0     H 5131   0.739   6.804   9.611 -1.3432 -1.5037 -3.2781
  779MOL0     H 5132   0.647   6.649   9.596  1.0591 -1.6716  0.8317
  779MOL0     H 5133   0.518   6.706   9.779  1.0752 -1.6041  2.4500
  779MOL0     H 5134   0.623   6.825   9.857 -1.0716  0.2423  0.0624
  779MOL0     H 5135   0.588   6.967   9.642 -0.3388 -1.7930 -0.9947
  779MOL0     H 5136   0.477   6.965   9.785  1.2011  1.2317 -0.1849
  779MOL0     H 5137   0.435   6.823   9.511 -1.4551 -0.8296 -0.0963
  779MOL0     H 5138   0.343   6.785   9.651  2.6963 -1.7434  1.4322
  779MOL0     H 5139   0.373   7.061   9.515 -0.8392 -1.4979 -0.1509
  779MOL0     H 5140   0.320   7.060   9.675  3.2061  2.1937 -0.8304
  779MOL0     H 5141   0.192   6.900   9.446 -0.0402  0.0634 -0.9761
  779MOL0     H 5142   0.137   6.906   9.616  0.7066  0.8358  1.1123
  779MOL0     H 5143   0.144   7.107   9.399  0.4468 -0.4275 -0.1827
  779MOL0     H 5144   0.118   7.160   9.570  0.2782 -1.1790 -0.0888
  779MOL0     H 5145  -0.087   7.050   9.584 -0.1382  0.9253  0.3317
  779MOL0     H 5146  -0.071   6.958   9.436 -1.3154  0.0821 -1.0074
  779MOL0     H 5147   0.872   6.687   9.478  1.2410  0.6671  0.2569
  779MOL0     H 5148   1.061   6.611   9.389  0.0298  0.3854 -0.4757
  779MOL0     H 5149   1.457   6.336   9.570 -0.9448 -0.3360  1.0016
  779MOL0     H 5150   1.674   6.240   9.558  0.5617  2.3953 -0.0194
  779MOL0     H 5151   3.312   6.247   9.052 -1.3242 -2.4556  1.6778
  779MOL0     H 5152   3.489   6.148   8.914  3.4963 -2.7657 -0.1553
  779MOL0     H 5153   3.777   5.857   8.654  0.5155  5.1451 -2.5751
  779MOL0     H 5154   3.996   5.828   8.530  1.9253  3.0196  0.0865
  779MOL0     H 5155   4.305   5.722   8.758  0.8738  1.4804  0.0600
  779MOL0     H 5156   4.199   5.646   8.639 -1.9768  1.2254 -0.3857
  779MOL0     H 5157   4.402   5.750   8.474 -1.5985 -0.3382 -0.3447
  779MOL0     H 5158   4.432   5.604   8.586  1.1265  0.6300  0.2548
  779MOL0     H 5159   4.540   5.727   8.748  0.6398  0.4339  0.4056
  779MOL0     H 5160   4.492   5.883   8.673  1.9999  0.6933  0.8547
  779MOL0     H 5161   4.728   5.855   8.621 -1.6036  2.4871 -0.4934
  779MOL0     H 5162   4.633   5.837   8.479  2.2648 -1.2887 -0.6656
  779MOL0     H 5163   4.803   5.455   8.493  1.2618 -0.3456  1.8010
  779MOL0     H 5164   4.208   5.976   8.852  1.2368 -2.9011  0.3152
  779MOL0     H 5165   4.002   6.024   8.981  0.3100  0.4828 -0.5392
  780MOL0     O 5166   3.219   5.713   3.705 -0.6106 -0.1991  0.2948
  780MOL0     C 5167   3.183   5.760   3.599 -0.0485  0.1244 -0.2944
  780MOL0     O 5168   3.074   5.716   3.528 -0.2286  0.0791  0.0980
  780MOL0     C 5169   2.983   5.635   3.599 -0.7945 -0.3415  0.6608
  780MOL0     C 5170   3.021   5.505   3.643  0.2024 -0.2078  0.0678
  780MOL0     C 5171   2.917   5.415   3.673 -0.0005 -0.1589 -1.1204
  780MOL0     C 5172   2.797   5.455   3.713  1.3839 -0.0941  0.5271
  780MOL0     O 5173   2.717   5.365   3.768  0.0292  0.0627  0.0985
  780MOL0     C 5174   2.592   5.402   3.812  0.5165 -1.3643  0.3937
  780MOL0     C 5175   2.523   5.273   3.844 -1.6466  0.1449 -0.5317
  780MOL0     C 5176   2.385   5.291   3.909  0.0925  0.3438 -0.1905
  780MOL0     C 5177   2.282   5.331   3.803 -0.0202  1.2585 -1.2498
  780MOL0     C 5178   2.148   5.286   3.865 -0.2828 -0.1017 -0.7254
  780MOL0     C 5179   2.034   5.367   3.795 -0.3015 -0.2181 -0.2257
  780MOL0     C 5180   1.893   5.333   3.852 -0.2922  0.3629 -0.1330
  780MOL0     C 5181   1.794   5.435   3.797  0.6525  0.6244  0.0198
  780MOL0     N 5182   1.652   5.418   3.850  0.2820  0.2496 -0.4174
  780MOL0     C 5183   1.558   5.521   3.871  0.4323  0.0658 -0.4760
  780MOL0     C 5184   1.450   5.460   3.919  0.1319 -0.1254  0.5473
  780MOL0     C 5185   1.331   5.533   3.976  0.4165 -0.7362  0.4814
  780MOL0     C 5186   1.259   5.633   3.869 -0.4130 -0.5175 -0.9312
  780MOL0     C 5187   1.154   5.566   3.778 -0.7421  0.5220  0.0009
  780MOL0     C 5188   1.035   5.504   3.854  0.7973 -0.1498  0.0681
  780MOL0     O 5189   0.954   5.602   3.910  0.4082 -0.2051  0.4152
  780MOL0     C 5190   0.837   5.567   3.976  0.7356 -0.6964  0.8426
  780MOL0     C 5191   0.726   5.638   3.948  0.1382  0.0852  0.6129
  780MOL0     C 5192   0.598   5.624   4.009 -0.3689  0.1085  0.3230
  780MOL0     C 5193   0.475   5.711   3.985 -0.2824  0.0605  0.4426
  780MOL0     C 5194   0.590   5.527   4.107 -0.0198 -0.0850 -0.9740
  780MOL0     C 5195   0.459   5.490   4.162 -0.2568 -0.2447 -1.4148
  780MOL0     O 5196   0.357   5.459   4.078  0.4000 -0.6109 -0.3216
  780MOL0     C 5197   0.225   5.495   4.115  0.5303 -0.7623  1.0109
  780MOL0     C 5198   0.128   5.425   4.042 -0.3462  0.7924  0.1008
  780MOL0     C 5199  -0.011   5.449   4.058  0.1525 -0.2231  1.0869
  780MOL0     C 5200  -0.051   5.554   4.145  1.0738 -0.8235  0.3722
  780MOL0     O 5201  -0.187   5.576   4.145 -0.8382  0.2809 -0.3041
  780MOL0     C 5202  -0.252   5.602   4.264 -0.2350 -0.4040  0.4664
  780MOL0     C 5203  -0.406   5.611   4.237 -0.3821  0.5370  0.7323
  780MOL0     C 5204  -0.475   5.618   4.378  0.0816  0.1412 -0.3981
  780MOL0     C 5205  -0.625   5.639   4.347 -0.3271 -0.9804  0.0973
  780MOL0     C 5206  -0.703   5.659   4.475  0.2445  0.7033 -0.3917
  780MOL0     C 5207  -0.706   5.538   4.577  0.3262 -0.1789  0.5881
  780MOL0     C 5208  -0.808   5.551   4.689 -0.0407 -0.4710  0.3714
  780MOL0     C 5209  -0.824   5.430   4.783 -0.6399  0.1848  0.1759
  780MOL0    Cl 5210  -0.659   5.386   4.853  0.1799  0.2257 -0.0502
  780MOL0     C 5211   0.049   5.631   4.214 -0.1924  0.9048  0.9626
  780MOL0     C 5212   0.177   5.606   4.184  0.2214  0.8488 -0.0712
  780MOL0     O 5213   0.452   5.481   4.283 -0.4530 -0.3413  0.2545
  780MOL0     C 5214   0.709   5.461   4.140  0.3766  0.1852 -0.3659
  780MOL0     C 5215   0.828   5.473   4.077 -0.3170  0.2973  0.2864
  780MOL0     N 5216   1.481   5.322   3.937  0.6828  0.2421 -0.5321
  780MOL0     N 5217   1.607   5.307   3.906  0.4790 -0.4033 -0.4382
  780MOL0     C 5218   2.765   5.588   3.683  0.2078 -0.6807  1.0955
  780MOL0     C 5219   2.856   5.681   3.621  0.2516  0.6879 -0.7583
  780MOL0     C 5220   3.273   5.853   3.526  0.0677 -0.1696 -0.2799
  780MOL0     C 5221   3.400   5.905   3.579 -0.5697 -0.2690  0.0974
  780MOL0     C 5222   3.474   5.994   3.502 -0.2013 -0.2226 -0.1643
  780MOL0     C 5223   3.433   6.051   3.386 -0.0395  0.2033 -0.2320
  780MOL0     O 5224   3.486   6.167   3.333 -0.3253  0.6231  0.0906
  780MOL0     C 5225   3.551   6.146   3.202 -0.2101 -0.9239 -0.5168
  780MOL0     C 5226   3.577   6.282   3.149  0.3671 -0.1861  0.3335
  780MOL0     C 5227   3.617   6.270   3.008 -0.2449 -0.5378  0.4862
  780MOL0     C 5228   3.647   6.406   2.943  0.2287 -0.0506 -0.4823
  780MOL0     C 5229   3.525   6.482   2.943 -0.1069  0.3656 -0.8396
  780MOL0     C 5230   3.425   6.548   2.950 -0.1072 -0.5021  0.5261
  780MOL0     C 5231   3.309   6.001   3.342 -0.9024 -0.6947  0.5439
  780MOL0     C 5232   3.235   5.902   3.403  0.6496  0.5644 -0.5881
  780MOL0     H 5233   3.121   5.462   3.635 -0.5899 -2.2520  0.4056
  780MOL0     H 5234   2.952   5.313   3.678  1.0051  0.0225 -3.2214
  780MOL0     H 5235   2.599   5.466   3.901 -1.5073 -0.3276 -0.1241
  780MOL0     H 5236   2.523   5.457   3.748  0.7538  0.2352  1.4386
  780MOL0     H 5237   2.513   5.211   3.755 -3.2866 -1.4682  0.6919
  780MOL0     H 5238   2.588   5.218   3.913 -0.2378  0.8951 -1.2305
  780MOL0     H 5239   2.359   5.191   3.944  0.7983  0.1646 -0.1485
  780MOL0     H 5240   2.394   5.352   3.999  0.6151  1.7210 -1.1367
  780MOL0     H 5241   2.284   5.437   3.776 -2.9578  1.4827 -0.8647
  780MOL0     H 5242   2.290   5.277   3.708 -0.9466  1.7304 -1.6122
  780MOL0     H 5243   2.133   5.177   3.868 -2.0613  0.0976  3.2656
  780MOL0     H 5244   2.143   5.311   3.971  2.6780  0.6633 -0.6612
  780MOL0     H 5245   2.050   5.475   3.805  0.3924  0.1325 -3.8156
  780MOL0     H 5246   2.032   5.350   3.687 -1.2217  3.1772 -0.8638
  780MOL0     H 5247   1.870   5.230   3.823 -0.2449 -0.4106  2.3855
  780MOL0     H 5248   1.890   5.346   3.960 -1.5578 -1.9196  0.1636
  780MOL0     H 5249   1.789   5.431   3.688 -0.8746 -0.5333  0.1025
  780MOL0     H 5250   1.836   5.530   3.832  0.1308  1.0311 -0.4377
  780MOL0     H 5251   1.560   5.625   3.841  1.6662  0.5240  1.0318
  780MOL0     H 5252   1.258   5.462   4.017 -1.6778  0.4097 -1.1050
  780MOL0     H 5253   1.370   5.600   4.054  0.5882 -1.3209  0.9103
  780MOL0     H 5254   1.340   5.681   3.813 -1.5271  1.0285 -1.2468
  780MOL0     H 5255   1.215   5.709   3.934 -0.4862 -0.4058 -1.1124
  780MOL0     H 5256   1.200   5.484   3.722 -0.0293  0.5895  0.4765
  780MOL0     H 5257   1.115   5.642   3.709 -2.4617  0.4133  0.8309
  780MOL0     H 5258   1.067   5.438   3.935  0.8233 -3.2181 -2.2090
  780MOL0     H 5259   0.980   5.439   3.784  2.6631 -0.7002 -0.9468
  780MOL0     H 5260   0.746   5.721   3.880  0.9422  2.2369  3.3096
  780MOL0     H 5261   0.498   5.809   3.942  2.3555 -1.6397 -2.5025
  780MOL0     H 5262   0.395   5.672   3.921 -1.4045  0.3206  1.6330
  780MOL0     H 5263   0.412   5.724   4.073  0.9933 -1.2793  1.6035
  780MOL0     H 5264   0.152   5.341   3.978 -3.3867  1.1289 -1.7037
  780MOL0     H 5265  -0.085   5.387   4.008  1.7859 -1.4488  0.0775
  780MOL0     H 5266  -0.214   5.532   4.339 -2.1261 -0.9960  0.9236
  780MOL0     H 5267  -0.218   5.702   4.292  0.8181 -0.8102  0.6721
  780MOL0     H 5268  -0.438   5.691   4.169 -3.5095  0.6721  2.1655
  780MOL0     H 5269  -0.436   5.519   4.184 -0.8792  0.4526  1.1552
  780MOL0     H 5270  -0.437   5.700   4.440 -0.2302  0.4367 -0.6029
  780MOL0     H 5271  -0.464   5.514   4.411 -0.4173 -0.4130 -1.8962
  780MOL0     H 5272  -0.634   5.731   4.288 -1.8338 -0.8366  0.5068
  780MOL0     H 5273  -0.668   5.552   4.298 -1.1437 -0.8272  0.5387
  780MOL0     H 5274  -0.805   5.679   4.441 -0.3086  1.2497  1.4792
  780MOL0     H 5275  -0.677   5.744   4.540 -0.8753  1.6644 -1.1584
  780MOL0     H 5276  -0.741   5.447   4.526 -1.0046  0.8600 -0.4473
  780MOL0     H 5277  -0.606   5.516   4.614  1.1889 -2.3492 -2.5522
  780MOL0     H 5278  -0.903   5.570   4.638  0.3326  3.0336  0.7040
  780MOL0     H 5279  -0.780   5.636   4.752  2.4622 -0.6774 -0.3479
  780MOL0     H 5280  -0.863   5.344   4.727 -2.0633  0.0060  1.3894
  780MOL0     H 5281  -0.899   5.458   4.858  0.0259  1.1586  0.5028
  780MOL0     H 5282   0.027   5.713   4.282  1.8494  1.6526  0.7908
  780MOL0     H 5283   0.249   5.668   4.236  1.9140  0.6047 -2.0266
  780MOL0     H 5284   0.713   5.383   4.216 -1.8841 -1.6088 -1.9630
  780MOL0     H 5285   0.912   5.416   4.115 -2.5587 -1.9281  2.2248
  780MOL0     H 5286   2.666   5.627   3.704  0.2518  1.4904 -2.0002
  780MOL0     H 5287   2.824   5.784   3.604 -1.4065  0.3124 -0.1536
  780MOL0     H 5288   3.433   5.869   3.676  4.5649 -0.9086 -1.5656
  780MOL0     H 5289   3.561   6.040   3.548 -0.0974 -0.0066 -0.5749
  780MOL0     H 5290   3.647   6.094   3.210 -0.7684 -1.7555  1.2618
  780MOL0     H 5291   3.481   6.095   3.134  0.0767 -1.5839 -0.3329
  780MOL0     H 5292   3.660   6.330   3.201  0.5155 -0.7475  0.6175
  780MOL0     H 5293   3.489   6.347   3.159 -0.2863 -0.8473 -0.8024
  780MOL0     H 5294   3.547   6.215   2.945  0.9604 -3.1608  1.3049
  780MOL0     H 5295   3.712   6.216   3.007  0.6723  0.7312 -3.7951
  780MOL0     H 5296   3.697   6.399   2.846 -2.0050  2.0665 -1.9257
  780MOL0     H 5297   3.715   6.457   3.012  0.8559 -0.5584 -0.7213
  780MOL0     H 5298   3.334   6.597   2.980  0.7653  0.2888  2.0198
  780MOL0     H 5299   3.265   6.051   3.256  0.0992 -0.8004 -0.0461
  780MOL0     H 5300   3.138   5.875   3.364 -0.5421 -0.9726  3.0364
  781MOL0     O 5301   0.169  10.072   9.412  0.2491 -1.1087 -0.2611
  781MOL0     C 5302   0.159  10.194   9.393 -0.2902 -0.0269 -0.2300
  781MOL0     O 5303   0.255  10.263   9.336 -0.1429  0.0116 -0.6323
  781MOL0     C 5304   0.358  10.196   9.290  0.1242  0.4771  0.9479
  781MOL0     C 5305   0.346  10.097   9.192 -0.4669 -0.4443 -0.1678
  781MOL0     C 5306   0.460  10.037   9.137 -1.0561  0.4624  1.2495
  781MOL0     C 5307   0.584  10.055   9.204  0.2917 -0.5788  0.7792
  781MOL0     O 5308   0.705   9.999   9.163  0.0826  0.1702 -0.4724
  781MOL0     C 5309   0.692   9.854   9.134 -0.2883  0.1087 -0.0057
  781MOL0     C 5310   0.826   9.787   9.092  0.0289  0.4988 -0.5434
  781MOL0     C 5311   0.910   9.861   8.996 -0.6052  0.1646  1.0223
  781MOL0     C 5312   1.023   9.780   8.944 -0.0517  0.3365 -0.4769
  781MOL0     C 5313   1.130   9.869   8.888 -0.3190 -0.0175  1.0513
  781MOL0     C 5314   1.251   9.785   8.831 -0.3311  0.1995 -0.3477
  781MOL0     C 5315   1.379   9.887   8.828 -0.3632 -0.5373  0.1577
  781MOL0     C 5316   1.497   9.835   8.740  0.6101 -0.3485 -0.5232
  781MOL0     N 5317   1.627   9.907   8.747  0.0676 -0.2078  0.2374
  781MOL0     C 5318   1.711   9.899   8.859  0.4135  0.7845 -1.0423
  781MOL0     C 5319   1.820   9.962   8.811  0.2528 -0.1767  0.2216
  781MOL0     C 5320   1.950   9.994   8.884 -0.2230 -0.5200 -0.2581
  781MOL0     C 5321   2.041   9.863   8.908 -0.9576 -0.0676 -0.2000
  781MOL0     C 5322   2.054   9.827   9.050 -0.1585  0.8644  0.0267
  781MOL0     C 5323   2.127   9.920   9.152 -1.1325  0.3395  0.2204
  781MOL0     O 5324   2.146   9.860   9.283 -0.5029  0.3293 -0.1751
  781MOL0     C 5325   2.037   9.830   9.364 -0.1429 -0.2031  0.2044
  781MOL0     C 5326   2.073   9.746   9.465  0.1424 -0.3970 -0.1593
  781MOL0     C 5327   1.973   9.692   9.549 -0.1188  0.2900 -0.4318
  781MOL0     C 5328   2.025   9.601   9.657  0.8656  0.0558 -0.7148
  781MOL0     C 5329   1.832   9.730   9.529 -0.4565  0.2541 -0.1575
  781MOL0     C 5330   1.731   9.702   9.631 -0.0190 -0.0175 -0.5769
  781MOL0     O 5331   1.610   9.738   9.594  0.3942 -0.0612  0.1846
  781MOL0     C 5332   1.503   9.671   9.636  0.4579  0.9259 -0.4250
  781MOL0     C 5333   1.377   9.737   9.614 -0.4564  0.4041  0.2132
  781MOL0     C 5334   1.254   9.678   9.650 -0.3667 -0.5292  1.4558
  781MOL0     C 5335   1.252   9.548   9.688 -0.1776  0.2626  0.3189
  781MOL0     O 5336   1.135   9.475   9.690  0.1443  0.0412  1.1522
  781MOL0     C 5337   1.019   9.550   9.730 -0.9752 -1.1373  0.6301
  781MOL0     C 5338   0.917   9.462   9.797 -0.6971  0.2564 -0.7267
  781MOL0     C 5339   0.792   9.544   9.824  0.9325  0.2501  0.0130
  781MOL0     C 5340   0.661   9.465   9.808 -0.0742 -0.7805  0.5426
  781MOL0     C 5341   0.555   9.538   9.895  0.0079 -0.4811 -0.0138
  781MOL0     C 5342   0.425   9.461   9.882  0.1830  0.1303  0.7211
  781MOL0     C 5343   0.297   9.539   9.926 -0.0302 -0.1946 -0.4487
  781MOL0     C 5344   0.171   9.464   9.897  0.3621 -0.4285  0.3357
  781MOL0    Cl 5345   0.031   9.551   9.986 -0.2816  0.1071  0.6382
  781MOL0     C 5346   1.377   9.488   9.723  0.2922  0.6308  0.1016
  781MOL0     C 5347   1.505   9.548   9.701  0.6251  0.3478 -0.2020
  781MOL0     O 5348   1.764   9.670   9.748 -0.3828  0.0068  0.2961
  781MOL0     C 5349   1.800   9.805   9.414  0.1370 -0.4181 -0.1190
  781MOL0     C 5350   1.902   9.857   9.342 -0.0411  0.1910  0.6519
  781MOL0     N 5351   1.805   9.997   8.677 -0.2707  0.4046 -0.0539
  781MOL0     N 5352   1.688   9.959   8.636  0.0763 -0.2090 -0.1065
  781MOL0     C 5353   0.596  10.157   9.299 -0.2240  0.5634 -0.4024
  781MOL0     C 5354   0.484  10.227   9.335 -0.3261 -0.0337 -1.0495
  781MOL0     C 5355   0.030  10.260   9.434 -0.6970 -1.0699  0.1937
  781MOL0     C 5356   0.023  10.404   9.417 -0.7716 -1.0020  0.1297
  781MOL0     C 5357  -0.096  10.469   9.437 -0.2661  0.1953  0.2904
  781MOL0     C 5358  -0.201  10.397   9.497  0.3097 -0.2953  0.5570
  781MOL0     O 5359  -0.317  10.474   9.529  0.0533  0.5898  0.1455
  781MOL0     C 5360  -0.368  10.452   9.664  0.5710 -0.2430  0.0375
  781MOL0     C 5361  -0.500  10.534   9.698  0.0355 -0.3797 -0.1574
  781MOL0     C 5362  -0.625  10.501   9.611 -0.0548  0.3627  0.2503
  781MOL0     C 5363  -0.734  10.587   9.655 -0.0991  0.0181  0.0970
  781MOL0     C 5364  -0.866  10.531   9.618  0.0515  0.2094 -0.2379
  781MOL0     C 5365  -0.981  10.497   9.581 -0.4772  0.2295  0.7007
  781MOL0     C 5366  -0.190  10.261   9.525  0.7392  0.1182 -0.1734
  781MOL0     C 5367  -0.076  10.194   9.492  0.7007 -0.0610 -0.0018
  781MOL0     H 5368   0.256  10.070   9.138 -0.9318 -0.7087  0.7252
  781MOL0     H 5369   0.456   9.967   9.055  0.7808  1.9476 -0.2012
  781MOL0     H 5370   0.637   9.802   9.212 -0.6880  2.0560  1.0865
  781MOL0     H 5371   0.642   9.838   9.038  1.6087 -4.6427 -0.4479
  781MOL0     H 5372   0.896   9.759   9.171  2.1595 -0.1124 -2.5342
  781MOL0     H 5373   0.796   9.691   9.049  2.9879 -0.7491 -0.0460
  781MOL0     H 5374   0.852   9.886   8.907 -0.0377 -0.3468  0.5018
  781MOL0     H 5375   0.950   9.959   9.025  1.6498  0.0597 -1.3308
  781MOL0     H 5376   1.071   9.727   9.026 -0.8462 -0.2066 -0.3498
  781MOL0     H 5377   0.991   9.703   8.874  0.3801  0.7850 -1.1833
  781MOL0     H 5378   1.086   9.918   8.801 -2.7186 -1.3536  1.4276
  781MOL0     H 5379   1.167   9.941   8.962 -0.3266  1.2443 -0.1404
  781MOL0     H 5380   1.280   9.705   8.899  1.6215 -0.2138 -1.5829
  781MOL0     H 5381   1.230   9.752   8.729  3.2147 -3.7347 -0.0733
  781MOL0     H 5382   1.351   9.989   8.799  2.7987  0.6891  1.0533
  781MOL0     H 5383   1.411   9.904   8.931  2.2514 -1.0129 -0.5222
  781MOL0     H 5384   1.458   9.835   8.638  1.0578  0.0307 -0.6970
  781MOL0     H 5385   1.518   9.734   8.775 -1.3809 -0.8812 -0.7631
  781MOL0     H 5386   1.694   9.855   8.956  0.1901  0.7438 -1.0976
  781MOL0     H 5387   2.023  10.059   8.835  2.0129 -3.5057 -1.1864
  781MOL0     H 5388   1.914  10.019   8.984 -0.5527 -0.2440 -0.4437
  781MOL0     H 5389   2.142   9.882   8.870  0.0528 -2.2209  1.1718
  781MOL0     H 5390   2.001   9.775   8.856  0.0916 -0.6599 -0.0342
  781MOL0     H 5391   2.097   9.727   9.061 -2.2853  0.0177  1.5172
  781MOL0     H 5392   1.949   9.815   9.079  0.6514 -1.4468  2.4753
  781MOL0     H 5393   2.073  10.013   9.176 -1.4407 -0.1624  1.5474
  781MOL0     H 5394   2.226   9.944   9.112  0.6024 -1.7419  2.9069
  781MOL0     H 5395   2.180   9.736   9.480  0.3043  1.5618  0.2222
  781MOL0     H 5396   1.972   9.507   9.672 -0.5409  1.1081  1.3045
  781MOL0     H 5397   2.132   9.580   9.643  0.3016 -3.1125 -0.8530
  781MOL0     H 5398   2.022   9.660   9.749  1.4923  3.8858 -2.8972
  781MOL0     H 5399   1.361   9.825   9.552 -1.6159 -0.4888 -0.8304
  781MOL0     H 5400   1.160   9.726   9.624 -0.3427 -2.3454 -2.7487
  781MOL0     H 5401   1.052   9.619   9.808 -0.0181 -1.8223  0.8498
  781MOL0     H 5402   0.972   9.597   9.643 -0.9519  2.2536  2.3050
  781MOL0     H 5403   0.888   9.374   9.738  1.7019 -0.0636 -1.5141
  781MOL0     H 5404   0.955   9.407   9.884 -0.6918  1.6283  0.1682
  781MOL0     H 5405   0.781   9.637   9.768 -2.5058  1.1010  1.7717
  781MOL0     H 5406   0.799   9.567   9.931 -1.0238 -1.3688  0.5690
  781MOL0     H 5407   0.619   9.464   9.707 -2.1364  0.1200  1.3248
  781MOL0     H 5408   0.678   9.361   9.835  0.9224 -0.7594  0.0042
  781MOL0     H 5409   0.548   9.641   9.859 -0.3258 -0.9199 -1.2912
  781MOL0     H 5410   0.574   9.539  10.002 -3.2989  0.3022  0.6789
  781MOL0     H 5411   0.422   9.440   9.775  2.3591 -2.2549  1.0331
  781MOL0     H 5412   0.425   9.362   9.927  1.1400 -0.1470  0.1426
  781MOL0     H 5413   0.291   9.639   9.880 -0.4112  2.2257  4.3037
  781MOL0     H 5414   0.303   9.568  10.031  0.6501  0.9226 -0.7672
  781MOL0     H 5415   0.180   9.360   9.928  1.4950  0.0514  1.7290
  781MOL0     H 5416   0.150   9.459   9.790  0.9812 -2.5833  0.2711
  781MOL0     H 5417   1.380   9.385   9.754  1.2931  0.7250  0.3601
  781MOL0     H 5418   1.592   9.489   9.729  0.7146  0.8713  0.6339
  781MOL0     H 5419   1.703   9.845   9.388  1.1339  1.2531 -1.4658
  781MOL0     H 5420   1.879   9.920   9.257 -0.2533 -0.8609 -0.0919
  781MOL0     H 5421   0.687  10.169   9.356 -0.9329 -0.4610  1.0187
  781MOL0     H 5422   0.493  10.305   9.410 -1.0152 -2.2935  1.5710
  781MOL0     H 5423   0.104  10.454   9.365 -1.9917 -0.1748 -1.0263
  781MOL0     H 5424  -0.107  10.576   9.421  3.5038  0.4783 -1.2575
  781MOL0     H 5425  -0.393  10.346   9.664 -2.8356  0.4566  0.7221
  781MOL0     H 5426  -0.286  10.482   9.729  1.5217 -2.8076  0.1299
  781MOL0     H 5427  -0.482  10.640   9.677 -1.5781 -0.2199 -0.9504
  781MOL0     H 5428  -0.522  10.525   9.805 -0.4535 -1.8056 -0.3578
  781MOL0     H 5429  -0.649  10.395   9.617  1.4209  0.0436  1.2532
  781MOL0     H 5430  -0.595  10.523   9.509  1.1775 -2.4930 -0.1090
  781MOL0     H 5431  -0.713  10.680   9.602 -0.8631  1.3337  1.9839
  781MOL0     H 5432  -0.741  10.598   9.764  0.5220 -2.5703  0.4595
  781MOL0     H 5433  -1.066  10.450   9.535  0.8581  1.8073 -3.9323
  781MOL0     H 5434  -0.269  10.202   9.571  3.0024 -1.7274  1.5874
  781MOL0     H 5435  -0.076  10.088   9.518 -2.2720 -0.3764 -0.8939
  782MOL0     O 5436   9.216   0.382   5.529  0.1935 -0.2032  0.1720
  782MOL0     C 5437   9.280   0.452   5.609 -0.6947 -0.0179 -0.0411
  782MOL0     O 5438   9.244   0.488   5.739  0.0321 -0.7480  0.5551
  782MOL0     C 5439   9.115   0.445   5.784 -0.4606  0.2002 -0.0213
  782MOL0     C 5440   9.072   0.313   5.789 -0.3693 -0.2140  0.5700
  782MOL0     C 5441   8.943   0.285   5.816 -1.0085 -0.9024 -0.0757
  782MOL0     C 5442   8.855   0.390   5.848  0.0946 -0.8109  0.4055
  782MOL0     O 5443   8.724   0.360   5.875  0.6982  0.0030 -0.7752
  782MOL0     C 5444   8.655   0.261   5.787  0.6952 -0.4316  0.1853
  782MOL0     C 5445   8.510   0.280   5.830  0.1540  0.0247  0.8293
  782MOL0     C 5446   8.409   0.201   5.739 -0.1195 -0.5931 -0.4326
  782MOL0     C 5447   8.266   0.250   5.767 -0.4769 -0.2645  0.2092
  782MOL0     C 5448   8.152   0.183   5.694  0.1561 -0.1056  0.6047
  782MOL0     C 5449   8.111   0.041   5.741 -0.8934 -0.7251 -0.5727
  782MOL0     C 5450   8.033  -0.032   5.639  0.1445 -0.1849 -0.2119
  782MOL0     C 5451   7.880  -0.008   5.658  0.1061  0.3038 -0.1313
  782MOL0     N 5452   7.834   0.115   5.597  0.6948  1.0625  1.0115
  782MOL0     C 5453   7.784   0.221   5.658 -0.2419  0.5296  0.7479
  782MOL0     C 5454   7.777   0.320   5.557 -0.3268  1.0085 -0.1461
  782MOL0     C 5455   7.744   0.464   5.572  0.0855 -0.6470 -1.0853
  782MOL0     C 5456   7.608   0.488   5.529 -0.6493 -0.2055 -0.5374
  782MOL0     C 5457   7.555   0.619   5.572  0.7111  0.8634  0.5447
  782MOL0     C 5458   7.416   0.637   5.495  0.3096  0.5647  0.2907
  782MOL0     O 5459   7.350   0.729   5.577  0.4438 -0.7304 -0.0361
  782MOL0     C 5460   7.237   0.797   5.548  0.0530  0.1951 -0.5740
  782MOL0     C 5461   7.194   0.891   5.643 -0.3040 -0.3507 -0.5058
  782MOL0     C 5462   7.085   0.969   5.618  0.3177  0.0946  0.5855
  782MOL0     C 5463   7.061   1.087   5.719 -0.3323 -0.5236  0.4808
  782MOL0     C 5464   7.001   0.937   5.509  0.1211  0.6590  1.3080
  782MOL0     C 5465   6.865   0.997   5.481 -0.1458  0.1736  0.4341
  782MOL0     O 5466   6.793   1.032   5.586  0.4385  0.5296 -0.1667
  782MOL0     C 5467   6.676   1.098   5.574 -0.2092 -0.0416 -0.0677
  782MOL0     C 5468   6.587   1.050   5.680  0.8710  0.6629 -0.3298
  782MOL0     C 5469   6.456   1.106   5.670 -0.4132  0.4601 -0.3362
  782MOL0     C 5470   6.420   1.195   5.567  0.2577 -0.3213  0.2958
  782MOL0     O 5471   6.288   1.229   5.571 -0.5465  0.2192 -0.1329
  782MOL0     C 5472   6.248   1.348   5.492 -0.2300  0.1666  0.2175
  782MOL0     C 5473   6.230   1.310   5.341  0.2128 -0.6792  0.1195
  782MOL0     C 5474   6.266   1.425   5.250 -0.5546 -0.0843  0.2560
  782MOL0     C 5475   6.223   1.396   5.104 -0.1786 -0.2907  0.3181
  782MOL0     C 5476   6.325   1.455   5.009  0.1767  0.0879  1.2812
  782MOL0     C 5477   6.427   1.349   4.969  0.1309  0.6002  0.1042
  782MOL0     C 5478   6.540   1.413   4.889 -0.0235 -0.3054 -0.0857
  782MOL0     C 5479   6.659   1.313   4.861  0.0447 -0.4081  0.3749
  782MOL0    Cl 5480   6.756   1.266   4.997 -0.1173 -0.2839 -0.2977
  782MOL0     C 5481   6.516   1.250   5.480  0.0270  0.3827  0.1730
  782MOL0     C 5482   6.651   1.203   5.476  0.3488 -0.0054 -0.1024
  782MOL0     O 5483   6.824   1.007   5.366 -0.0527  0.1202  0.1308
  782MOL0     C 5484   7.045   0.832   5.421 -0.1229  0.1619  0.0643
  782MOL0     C 5485   7.164   0.767   5.433  0.0364  0.0235  0.0595
  782MOL0     N 5486   7.818   0.265   5.439  0.3978  0.2713 -0.2402
  782MOL0     N 5487   7.855   0.144   5.465  0.2433  0.3084 -0.4775
  782MOL0     C 5488   8.903   0.519   5.859 -0.3334 -0.8613 -0.0996
  782MOL0     C 5489   9.035   0.553   5.818  0.5944 -0.2289 -0.0724
  782MOL0     C 5490   9.419   0.490   5.568 -0.6157 -0.2847 -0.2506
  782MOL0     C 5491   9.476   0.442   5.445 -0.0097 -0.0424 -0.3012
  782MOL0     C 5492   9.605   0.470   5.419 -0.2588  0.2114  0.5835
  782MOL0     C 5493   9.683   0.545   5.503  0.6844 -0.5864  0.6327
  782MOL0     O 5494   9.810   0.588   5.480 -0.1510 -0.5759  0.9495
  782MOL0     C 5495   9.878   0.537   5.363  0.6598 -0.5802  0.1086
  782MOL0     C 5496  10.030   0.572   5.376  0.8782 -0.0199 -0.4250
  782MOL0     C 5497  10.102   0.511   5.254  0.0996  0.1982  0.1731
  782MOL0     C 5498  10.225   0.597   5.211  0.1298 -0.0365 -0.5645
  782MOL0     C 5499  10.345   0.567   5.286  0.2052  0.6090 -0.4622
  782MOL0     C 5500  10.442   0.556   5.355  0.0653  1.1058  0.4592
  782MOL0     C 5501   9.623   0.601   5.619  0.0057 -0.1528 -0.5079
  782MOL0     C 5502   9.488   0.575   5.656  0.2295  0.1205  0.2442
  782MOL0     H 5503   9.144   0.233   5.775  0.3388  0.4257  0.5078
  782MOL0     H 5504   8.912   0.184   5.793  0.1329 -0.4783 -4.1887
  782MOL0     H 5505   8.667   0.283   5.681 -0.9490 -2.1867 -0.4157
  782MOL0     H 5506   8.696   0.162   5.810  1.1753 -0.0228  1.1686
  782MOL0     H 5507   8.495   0.261   5.937  1.6949  1.7610  1.4118
  782MOL0     H 5508   8.491   0.385   5.805  2.3598  0.2822  0.0201
  782MOL0     H 5509   8.434   0.221   5.634 -3.0427 -0.9100 -1.2651
  782MOL0     H 5510   8.417   0.094   5.760  1.8254 -0.1804  1.2349
  782MOL0     H 5511   8.247   0.236   5.873  5.0134 -2.3498  1.2300
  782MOL0     H 5512   8.261   0.356   5.741 -0.5485 -0.3367 -0.0771
  782MOL0     H 5513   8.061   0.241   5.677 -1.4321 -2.8950 -1.3225
  782MOL0     H 5514   8.180   0.181   5.588 -1.0089 -0.3790  0.2841
  782MOL0     H 5515   8.201  -0.016   5.768 -2.1366 -3.1709 -1.2251
  782MOL0     H 5516   8.048   0.038   5.830 -1.2476 -0.5109 -0.8157
  782MOL0     H 5517   8.072  -0.006   5.540 -0.7192  0.7635 -0.3187
  782MOL0     H 5518   8.049  -0.138   5.659  1.5234  0.3366  1.7133
  782MOL0     H 5519   7.842  -0.033   5.758 -3.4055  0.6994 -1.2057
  782MOL0     H 5520   7.832  -0.088   5.601 -0.5068  0.8994 -0.4709
  782MOL0     H 5521   7.776   0.244   5.763  0.9002 -1.6525  1.3537
  782MOL0     H 5522   7.743   0.489   5.679  0.2594 -0.8947 -1.0262
  782MOL0     H 5523   7.817   0.529   5.523 -0.8211 -1.0116 -3.0008
  782MOL0     H 5524   7.543   0.411   5.570  0.4779 -1.4023 -0.9280
  782MOL0     H 5525   7.601   0.484   5.420  3.2760  0.5813 -0.9721
  782MOL0     H 5526   7.625   0.699   5.546  0.8623  0.8127  0.7860
  782MOL0     H 5527   7.556   0.625   5.682  3.8324 -2.9034  0.9315
  782MOL0     H 5528   7.361   0.544   5.480 -0.3233  1.1781 -1.4965
  782MOL0     H 5529   7.436   0.679   5.396 -0.8789 -0.1591 -0.2837
  782MOL0     H 5530   7.253   0.907   5.733 -3.1692 -0.4807  1.5496
  782MOL0     H 5531   7.157   1.122   5.758  0.2500 -0.2427 -1.1465
  782MOL0     H 5532   7.017   1.170   5.663  3.1648  0.2888 -1.2769
  782MOL0     H 5533   6.990   1.049   5.794 -1.8442  1.6866  0.2759
  782MOL0     H 5534   6.608   0.976   5.756  0.9828 -0.3896 -1.3647
  782MOL0     H 5535   6.368   1.078   5.727  0.0048  0.2215  0.2030
  782MOL0     H 5536   6.162   1.391   5.544 -0.3212 -1.4340  1.4559
  782MOL0     H 5537   6.317   1.433   5.499  1.6750 -1.3857  1.5379
  782MOL0     H 5538   6.309   1.242   5.309  0.7385 -1.1054  2.1998
  782MOL0     H 5539   6.129   1.270   5.327  0.0674 -0.3004  0.0451
  782MOL0     H 5540   6.373   1.448   5.253  0.0724 -2.5895 -0.4968
  782MOL0     H 5541   6.229   1.523   5.281  2.3623  0.3677  2.8003
  782MOL0     H 5542   6.211   1.291   5.075  0.2289 -0.6020  1.2229
  782MOL0     H 5543   6.129   1.451   5.097 -0.0883 -0.3605 -2.8027
  782MOL0     H 5544   6.353   1.555   5.045 -0.5659  1.0104 -0.5629
  782MOL0     H 5545   6.272   1.475   4.916  2.8600  1.5966 -0.0167
  782MOL0     H 5546   6.462   1.295   5.058 -4.1146  1.5559  2.6064
  782MOL0     H 5547   6.382   1.275   4.902 -1.1621  0.4138  1.1558
  782MOL0     H 5548   6.581   1.501   4.940  1.7523 -1.4915  0.5841
  782MOL0     H 5549   6.502   1.446   4.791 -0.4708  2.6839  0.9707
  782MOL0     H 5550   6.722   1.359   4.784 -0.6322 -1.3192 -0.7473
  782MOL0     H 5551   6.620   1.216   4.830 -0.5753  0.3855 -1.4846
  782MOL0     H 5552   6.498   1.336   5.417  1.7421  1.8633  1.6085
  782MOL0     H 5553   6.730   1.221   5.404 -0.1771  0.2833 -0.6214
  782MOL0     H 5554   6.985   0.808   5.334 -2.5824  1.1085  1.4066
  782MOL0     H 5555   7.181   0.687   5.361 -1.9826 -0.5288  0.1476
  782MOL0     H 5556   8.836   0.589   5.907  1.4829  0.4669  0.6072
  782MOL0     H 5557   9.067   0.656   5.830 -1.7094  0.4493  0.8591
  782MOL0     H 5558   9.431   0.388   5.362  2.2920 -0.1389 -1.5453
  782MOL0     H 5559   9.640   0.427   5.325  0.4819 -0.8704  1.3309
  782MOL0     H 5560   9.856   0.430   5.366 -0.1871 -0.4142  0.0250
  782MOL0     H 5561   9.836   0.587   5.276  1.8293  0.1714 -0.0531
  782MOL0     H 5562  10.075   0.527   5.465  4.2259  0.6116 -1.6696
  782MOL0     H 5563  10.046   0.680   5.376 -1.4119  0.3878  0.8086
  782MOL0     H 5564  10.029   0.503   5.173 -1.4662 -2.5299  1.7063
  782MOL0     H 5565  10.138   0.410   5.272  0.8467  0.0575 -1.9147
  782MOL0     H 5566  10.203   0.704   5.214  0.2395 -0.0128 -0.5778
  782MOL0     H 5567  10.256   0.584   5.107  0.8485  1.6940 -0.6089
  782MOL0     H 5568  10.533   0.542   5.410 -1.3839 -2.2365  2.2905
  782MOL0     H 5569   9.681   0.668   5.681  0.4027 -0.8435 -0.1180
  782MOL0     H 5570   9.442   0.619   5.745  1.4692 -1.1392  1.5567
  783MOL0     O 5571   3.575   2.487  11.142 -0.9206  0.7866 -0.6241
  783MOL0     C 5572   3.639   2.402  11.085 -0.2317  0.1572  1.3475
  783MOL0     O 5573   3.587   2.282  11.033  0.0811 -0.6180 -0.1237
  783MOL0     C 5574   3.455   2.247  11.061 -0.6833 -0.2450  0.4568
  783MOL0     C 5575   3.340   2.329  11.056 -0.4727  0.1976 -0.6908
  783MOL0     C 5576   3.212   2.270  11.071 -0.1520 -1.0346  0.4725
  783MOL0     C 5577   3.194   2.134  11.094  0.7437  0.8057  0.2442
  783MOL0     O 5578   3.065   2.081  11.109 -0.4722 -0.6515 -0.7852
  783MOL0     C 5579   3.050   1.962  11.191 -0.1173  0.5877 -0.1842
  783MOL0     C 5580   2.903   1.933  11.232  0.4242  0.5122 -0.7141
  783MOL0     C 5581   2.819   2.044  11.299 -0.6080 -0.4306  0.5393
  783MOL0     C 5582   2.897   2.129  11.404  0.3382  0.1338  0.3433
  783MOL0     C 5583   2.798   2.243  11.461 -0.3342  0.2042  0.1067
  783MOL0     C 5584   2.822   2.269  11.612  0.2049 -0.8272  0.0730
  783MOL0     C 5585   2.713   2.358  11.656  0.5466  0.1611 -0.2413
  783MOL0     C 5586   2.744   2.388  11.799 -0.0861 -0.2220 -0.9333
  783MOL0     N 5587   2.624   2.435  11.866 -0.0941 -0.1554 -0.0010
  783MOL0     C 5588   2.550   2.534  11.818  0.4724  0.4322 -0.2370
  783MOL0     C 5589   2.447   2.555  11.906 -0.7868  0.2926 -0.1962
  783MOL0     C 5590   2.363   2.669  11.919  0.4478 -0.0692 -0.2469
  783MOL0     C 5591   2.261   2.658  11.803  0.3626  0.9535  0.3664
  783MOL0     C 5592   2.117   2.695  11.854 -0.2135  0.6099 -0.2175
  783MOL0     C 5593   2.096   2.851  11.868  0.1939  0.6269  0.8379
  783MOL0     O 5594   2.089   2.917  11.735  0.0545  0.7828  0.1760
  783MOL0     C 5595   1.974   2.923  11.666 -0.6072 -0.5491  0.5407
  783MOL0     C 5596   1.959   2.832  11.562 -0.5142  0.5954  0.3339
  783MOL0     C 5597   1.841   2.816  11.496 -0.4722 -0.1266 -0.2657
  783MOL0     C 5598   1.840   2.709  11.387 -0.3324  0.1154  0.5472
  783MOL0     C 5599   1.724   2.892  11.545 -0.3839 -0.1775 -0.3967
  783MOL0     C 5600   1.586   2.883  11.488 -0.0234  0.3289  0.6925
  783MOL0     O 5601   1.481   2.924  11.565 -0.2795  0.6672  0.3463
  783MOL0     C 5602   1.347   2.921  11.528 -0.5313  0.8098 -0.1415
  783MOL0     C 5603   1.270   3.033  11.501  0.7525  0.2507  0.6541
  783MOL0     C 5604   1.129   3.021  11.473 -1.2467  0.1099 -0.0388
  783MOL0     C 5605   1.066   2.893  11.472 -1.3864  0.3137 -1.1747
  783MOL0     O 5606   0.939   2.878  11.436 -0.4649  0.1661  0.8087
  783MOL0     C 5607   0.895   2.745  11.384 -0.9265 -0.0464 -0.3903
  783MOL0     C 5608   0.756   2.756  11.316 -0.2063 -0.5925 -0.3396
  783MOL0     C 5609   0.760   2.856  11.200  0.3383  0.0184 -0.0401
  783MOL0     C 5610   0.613   2.857  11.130  0.4259 -0.2069 -0.2791
  783MOL0     C 5611   0.570   2.729  11.063 -0.4482 -0.9206  0.5523
  783MOL0     C 5612   0.558   2.755  10.913 -0.1302  0.7243 -0.0147
  783MOL0     C 5613   0.700   2.778  10.855  0.1826 -0.6662 -0.4050
  783MOL0     C 5614   0.700   2.780  10.700 -0.5299  0.7000 -0.4694
  783MOL0    Cl 5615   0.876   2.799  10.656  0.0543 -0.9782 -0.0670
  783MOL0     C 5616   1.150   2.781  11.501  0.0739  0.9802 -0.4487
  783MOL0     C 5617   1.287   2.791  11.531 -1.0662 -0.3565 -0.1066
  783MOL0     O 5618   1.574   2.825  11.382  0.4845  0.1455  0.5316
  783MOL0     C 5619   1.744   2.981  11.648 -0.0012 -0.1644  0.8695
  783MOL0     C 5620   1.869   3.006  11.695 -0.3533 -0.4881  0.1323
  783MOL0     N 5621   2.453   2.451  11.999  0.3558 -0.2874 -0.4061
  783MOL0     N 5622   2.556   2.370  11.965  0.6454  0.1303 -0.4802
  783MOL0     C 5623   3.309   2.053  11.096 -0.4238 -0.4642 -0.1803
  783MOL0     C 5624   3.441   2.111  11.075 -0.3944  0.7878 -0.3929
  783MOL0     C 5625   3.767   2.450  11.029 -0.7005  0.9974  0.9634
  783MOL0     C 5626   3.837   2.359  10.946  0.5429  0.2100  0.0784
  783MOL0     C 5627   3.952   2.401  10.879  0.1187  0.2848 -0.1502
  783MOL0     C 5628   4.010   2.527  10.916  0.6723 -0.7687 -0.6495
  783MOL0     O 5629   4.137   2.571  10.878  0.1694 -0.3640 -0.2988
  783MOL0     C 5630   4.212   2.483  10.789  0.4908 -0.5357 -0.6425
  783MOL0     C 5631   4.347   2.549  10.743  0.5806  1.0955  0.0612
  783MOL0     C 5632   4.459   2.532  10.841  0.7355 -0.4939  0.1162
  783MOL0     C 5633   4.602   2.534  10.786  0.3790  0.2573  0.8017
  783MOL0     C 5634   4.634   2.425  10.699 -0.4131 -0.0306  0.7968
  783MOL0     C 5635   4.644   2.310  10.655  0.6219 -0.1802 -0.3338
  783MOL0     C 5636   3.932   2.611  11.002 -0.7263 -0.3538  0.0868
  783MOL0     C 5637   3.812   2.576  11.043 -0.0688  1.2756 -0.0673
  783MOL0     H 5638   3.346   2.435  11.033  1.2777 -0.3808 -3.3389
  783MOL0     H 5639   3.130   2.341  11.074  1.2081  0.7572 -1.4547
  783MOL0     H 5640   3.086   1.881  11.128 -0.0133 -1.0297  1.8503
  783MOL0     H 5641   3.107   1.958  11.284 -2.5637  0.2266  1.4024
  783MOL0     H 5642   2.845   1.912  11.142 -1.0738 -1.6436  0.6708
  783MOL0     H 5643   2.896   1.842  11.292  0.0074  0.7862 -0.3383
  783MOL0     H 5644   2.780   2.111  11.222 -0.0618 -1.7601 -0.9542
  783MOL0     H 5645   2.735   1.991  11.345 -1.7065 -0.7467 -1.6854
  783MOL0     H 5646   2.928   2.059  11.482  3.7297 -0.0626 -1.0243
  783MOL0     H 5647   2.989   2.171  11.362 -0.0044 -1.8920 -2.7908
  783MOL0     H 5648   2.810   2.336  11.406 -1.0896 -0.4929 -1.3054
  783MOL0     H 5649   2.690   2.226  11.452 -0.1878 -0.2671 -0.9531
  783MOL0     H 5650   2.820   2.174  11.666 -0.7007 -0.8748 -0.0288
  783MOL0     H 5651   2.916   2.320  11.633 -0.9656  0.3100  3.0366
  783MOL0     H 5652   2.721   2.436  11.580 -2.7188 -1.7214 -2.7751
  783MOL0     H 5653   2.616   2.309  11.644  0.2760  0.5464  0.3378
  783MOL0     H 5654   2.834   2.449  11.800  1.2623 -2.0048 -3.1399
  783MOL0     H 5655   2.771   2.300  11.858 -5.1389 -2.5702 -1.5342
  783MOL0     H 5656   2.558   2.598  11.731 -0.5789  1.9107  0.6983
  783MOL0     H 5657   2.300   2.657  12.007 -0.3537  2.0698 -0.4687
  783MOL0     H 5658   2.418   2.764  11.923  0.6614 -0.2376  1.4590
  783MOL0     H 5659   2.253   2.559  11.757 -2.1781  0.5316  1.5103
  783MOL0     H 5660   2.296   2.727  11.727  0.7699  1.4030  0.9512
  783MOL0     H 5661   2.102   2.641  11.948 -3.8331 -3.5998 -2.8269
  783MOL0     H 5662   2.038   2.650  11.793 -1.0861  1.4425  0.2735
  783MOL0     H 5663   2.177   2.901  11.921  0.4000 -1.4120  2.6046
  783MOL0     H 5664   2.004   2.879  11.921  0.9024  1.0136  1.8912
  783MOL0     H 5665   2.044   2.770  11.534  0.2717  0.9026  1.9093
  783MOL0     H 5666   1.917   2.635  11.410  1.3754  0.8535 -2.2983
  783MOL0     H 5667   1.748   2.653  11.371  2.3307 -4.9426  0.9613
  783MOL0     H 5668   1.856   2.753  11.288 -1.4353  2.0041  1.1461
  783MOL0     H 5669   1.313   3.132  11.497 -0.7552  0.9195 -3.0823
  783MOL0     H 5670   1.076   3.109  11.439 -0.1483  0.2618 -1.4717
  783MOL0     H 5671   0.974   2.703  11.322 -0.8444 -0.7457  0.1703
  783MOL0     H 5672   0.886   2.678  11.470  0.5323  1.0331  0.6614
  783MOL0     H 5673   0.744   2.655  11.275  0.4982 -1.2795  1.0747
  783MOL0     H 5674   0.671   2.773  11.382  0.5398 -0.9251  0.7456
  783MOL0     H 5675   0.829   2.839  11.117 -2.4962  1.8012 -2.9695
  783MOL0     H 5676   0.770   2.958  11.237  3.2506 -0.0162 -0.5152
  783MOL0     H 5677   0.540   2.885  11.207 -2.6752  0.8644 -3.3610
  783MOL0     H 5678   0.600   2.939  11.059 -0.8967 -0.9294 -0.8987
  783MOL0     H 5679   0.468   2.715  11.099 -0.6648 -3.1901 -0.7982
  783MOL0     H 5680   0.641   2.649  11.084 -0.2602 -1.1884 -0.9893
  783MOL0     H 5681   0.517   2.665  10.866 -1.6060  1.4914 -0.2346
  783MOL0     H 5682   0.504   2.847  10.888 -0.9056  0.7702  1.7248
  783MOL0     H 5683   0.762   2.699  10.900 -0.1934 -0.3712  0.6612
  783MOL0     H 5684   0.742   2.874  10.888 -3.6834  0.3777  2.1110
  783MOL0     H 5685   0.651   2.868  10.657  2.0280  2.5361  0.0736
  783MOL0     H 5686   0.649   2.696  10.652  1.3686 -0.5961 -0.3654
  783MOL0     H 5687   1.115   2.678  11.496 -1.4049  1.4634 -0.7552
  783MOL0     H 5688   1.347   2.701  11.540  4.2575  2.8624  0.5645
  783MOL0     H 5689   1.662   3.045  11.681  0.0215 -0.6751  1.9561
  783MOL0     H 5690   1.900   3.078  11.769  2.5533  0.4687 -1.8213
  783MOL0     H 5691   3.312   1.944  11.100 -0.1129 -0.4532 -0.0866
  783MOL0     H 5692   3.535   2.056  11.075 -2.0995 -2.3804 -2.0950
  783MOL0     H 5693   3.793   2.261  10.930  0.2066  0.4435 -0.4460
  783MOL0     H 5694   3.998   2.328  10.814  1.3298  1.6529 -0.8743
  783MOL0     H 5695   4.226   2.388  10.842 -0.9412 -0.2531  0.3124
  783MOL0     H 5696   4.149   2.470  10.701 -0.6712 -1.5379  0.2960
  783MOL0     H 5697   4.334   2.655  10.722  2.3699  1.9172  2.7172
  783MOL0     H 5698   4.381   2.499  10.652 -2.1649  0.2484 -0.6055
  783MOL0     H 5699   4.449   2.441  10.902  1.4884 -0.2686  0.5896
  783MOL0     H 5700   4.447   2.597  10.928  0.7411 -2.0974  1.3797
  783MOL0     H 5701   4.667   2.537  10.874 -1.3958 -0.2890  2.1905
  783MOL0     H 5702   4.613   2.623  10.723 -1.7448  1.1978  1.6668
  783MOL0     H 5703   4.641   2.209  10.621 -2.2685 -0.0151 -0.8499
  783MOL0     H 5704   3.976   2.704  11.037  2.5517 -0.8649 -2.2090
  783MOL0     H 5705   3.761   2.651  11.102  0.4028  2.7155 -1.4147
  784MOL0     O 5706   2.416   8.160   2.742 -0.2321 -0.4166 -0.8764
  784MOL0     C 5707   2.400   8.092   2.845 -0.6825 -0.0525  0.0025
  784MOL0     O 5708   2.326   7.977   2.853  0.6193  0.2422 -0.0385
  784MOL0     C 5709   2.262   7.943   2.739  0.7569  0.9819 -0.5597
  784MOL0     C 5710   2.328   7.875   2.635  0.2292  0.0838 -0.1667
  784MOL0     C 5711   2.264   7.842   2.509 -0.6842 -0.1666 -1.5273
  784MOL0     C 5712   2.124   7.863   2.502  0.0931  0.1060  0.6966
  784MOL0     O 5713   2.049   7.823   2.390 -0.6338 -0.1646  0.6479
  784MOL0     C 5714   2.113   7.745   2.283 -0.6752 -0.1193 -0.1912
  784MOL0     C 5715   2.020   7.719   2.165 -0.0285  0.6554  0.4748
  784MOL0     C 5716   2.012   7.840   2.082  0.9651 -0.1293 -0.8189
  784MOL0     C 5717   1.896   7.835   1.978 -0.1832 -0.1136 -0.8691
  784MOL0     C 5718   1.896   7.962   1.895  0.7799 -0.2142  0.0246
  784MOL0     C 5719   1.784   7.964   1.788 -0.1405 -0.2272 -0.5411
  784MOL0     C 5720   1.813   8.060   1.668 -0.3670 -0.1219 -0.3179
  784MOL0     C 5721   1.921   8.021   1.567 -0.4271 -0.0470  0.0797
  784MOL0     N 5722   1.902   7.882   1.523 -0.8750 -0.6021 -0.3598
  784MOL0     C 5723   1.793   7.826   1.444 -0.2406  0.8716  0.2711
  784MOL0     C 5724   1.827   7.698   1.421 -0.0901  0.5251  0.6301
  784MOL0     C 5725   1.752   7.602   1.330 -0.0781  0.3735 -0.8437
  784MOL0     C 5726   1.616   7.573   1.392 -0.0163 -0.2145 -0.7168
  784MOL0     C 5727   1.530   7.475   1.306  0.1602 -0.5439 -0.0688
  784MOL0     C 5728   1.376   7.491   1.328 -1.0648  0.4516 -0.4856
  784MOL0     O 5729   1.337   7.626   1.317 -0.7752 -0.4507 -0.8067
  784MOL0     C 5730   1.209   7.647   1.339  0.0433  0.6630  0.2003
  784MOL0     C 5731   1.109   7.583   1.258  0.0196  0.8760 -1.0863
  784MOL0     C 5732   0.975   7.608   1.292  0.4069 -0.7881 -0.0432
  784MOL0     C 5733   0.874   7.529   1.216  0.7556  1.2680  0.0514
  784MOL0     C 5734   0.947   7.705   1.392 -0.1550 -0.9026 -0.3195
  784MOL0     C 5735   0.811   7.736   1.432  0.4121  0.3773  0.3942
  784MOL0     O 5736   0.708   7.729   1.342  0.3187  0.1805  0.6794
  784MOL0     C 5737   0.578   7.743   1.387 -0.0057 -0.5846 -0.3946
  784MOL0     C 5738   0.546   7.860   1.458 -0.5055 -0.5755 -0.0200
  784MOL0     C 5739   0.414   7.899   1.477  1.0462 -0.4220 -0.9413
  784MOL0     C 5740   0.304   7.815   1.436  0.0530 -0.7111  0.6435
  784MOL0     O 5741   0.173   7.854   1.457 -0.0626  0.0689 -0.6293
  784MOL0     C 5742   0.073   7.826   1.361 -0.4655  0.8002 -0.7814
  784MOL0     C 5743  -0.043   7.770   1.445  0.0175  0.3823 -0.4037
  784MOL0     C 5744  -0.174   7.757   1.379  0.6199 -0.1559 -0.5859
  784MOL0     C 5745  -0.284   7.663   1.437 -0.3180  0.1048 -0.8760
  784MOL0     C 5746  -0.410   7.651   1.358  0.0574 -0.9272 -0.5665
  784MOL0     C 5747  -0.520   7.569   1.439 -0.1620 -0.6192  0.4993
  784MOL0     C 5748  -0.624   7.501   1.354 -0.5536  0.3137 -0.2772
  784MOL0     C 5749  -0.740   7.436   1.426  0.2795 -0.1588  0.1969
  784MOL0    Cl 5750  -0.841   7.558   1.505  0.1506  0.0822  0.2703
  784MOL0     C 5751   0.337   7.692   1.378  0.6183  0.5236  0.2464
  784MOL0     C 5752   0.475   7.654   1.346  0.6358  0.3060 -0.0234
  784MOL0     O 5753   0.799   7.748   1.553  0.2880  0.1017 -0.2537
  784MOL0     C 5754   1.054   7.769   1.461 -0.0436 -1.4687  0.5704
  784MOL0     C 5755   1.181   7.735   1.436 -0.0290  0.2574  1.0175
  784MOL0     N 5756   1.941   7.663   1.493  0.0471  0.4207 -0.6714
  784MOL0     N 5757   1.976   7.774   1.558 -0.9157  0.1585  0.6545
  784MOL0     C 5758   2.061   7.925   2.609 -0.9081 -0.0774  0.5802
  784MOL0     C 5759   2.124   7.968   2.721  1.2205  0.2051  0.7397
  784MOL0     C 5760   2.469   8.142   2.966  0.1847  0.3727  0.0739
  784MOL0     C 5761   2.442   8.081   3.089  0.0719  0.1004 -0.0836
  784MOL0     C 5762   2.497   8.125   3.210 -0.2301 -0.8126 -0.3007
  784MOL0     C 5763   2.586   8.232   3.210  0.5094 -0.0755  0.4780
  784MOL0     O 5764   2.632   8.292   3.330  0.3450  0.2014  0.8626
  784MOL0     C 5765   2.592   8.236   3.450 -0.2342 -0.1995 -0.5996
  784MOL0     C 5766   2.631   8.315   3.574 -0.3044  0.0739 -0.5061
  784MOL0     C 5767   2.504   8.334   3.670 -0.6050  0.2249  0.3637
  784MOL0     C 5768   2.521   8.392   3.813  0.3823 -0.5353  0.4077
  784MOL0     C 5769   2.608   8.507   3.819 -0.1361  0.2040 -0.4809
  784MOL0     C 5770   2.696   8.594   3.821  1.1366  0.2294 -0.4665
  784MOL0     C 5771   2.613   8.291   3.088  0.6807 -0.0856 -0.2971
  784MOL0     C 5772   2.560   8.248   2.965 -0.5678 -0.0735 -0.2976
  784MOL0     H 5773   2.434   7.852   2.646  0.4246  0.4519 -1.1454
  784MOL0     H 5774   2.322   7.806   2.424 -1.1374  1.7844 -2.7420
  784MOL0     H 5775   2.191   7.806   2.237  0.7221 -1.5186  0.2218
  784MOL0     H 5776   2.157   7.651   2.316  0.0554  0.5965  0.9568
  784MOL0     H 5777   2.055   7.626   2.119 -0.6946  1.4133 -1.6525
  784MOL0     H 5778   1.923   7.687   2.206  1.0837 -2.1319  1.1820
  784MOL0     H 5779   2.007   7.935   2.135  3.7632  1.3103 -2.8717
  784MOL0     H 5780   2.108   7.849   2.031  1.5551 -1.2232  0.0743
  784MOL0     H 5781   1.902   7.744   1.916 -1.9977  0.2860 -1.6934
  784MOL0     H 5782   1.807   7.830   2.041 -0.1951  1.1064 -0.7672
  784MOL0     H 5783   1.884   8.053   1.954  0.8535 -1.4561  2.0235
  784MOL0     H 5784   1.989   7.964   1.838  1.2068 -0.5587  0.6984
  784MOL0     H 5785   1.782   7.859   1.758  2.9353 -0.4433 -0.3155
  784MOL0     H 5786   1.691   7.988   1.840 -1.1798  0.9146 -2.7634
  784MOL0     H 5787   1.725   8.068   1.604 -0.3932 -0.7283 -0.3622
  784MOL0     H 5788   1.824   8.161   1.708 -1.1684 -0.0004 -0.3791
  784MOL0     H 5789   2.016   8.034   1.620  0.7449  2.9399 -2.4341
  784MOL0     H 5790   1.918   8.099   1.490 -2.6508  1.8812  1.9889
  784MOL0     H 5791   1.705   7.880   1.410 -0.0666  1.3516  0.5826
  784MOL0     H 5792   1.739   7.629   1.224 -1.8485 -0.4247 -0.8673
  784MOL0     H 5793   1.814   7.513   1.317  2.9956  2.2295  0.1387
  784MOL0     H 5794   1.568   7.671   1.391  1.3367  0.5172  0.8831
  784MOL0     H 5795   1.627   7.536   1.494  2.5513  0.1774 -0.7831
  784MOL0     H 5796   1.560   7.371   1.323 -1.4474 -0.6702  2.5429
  784MOL0     H 5797   1.542   7.500   1.201 -1.8348 -1.8396 -0.6678
  784MOL0     H 5798   1.357   7.458   1.430 -1.7213  2.0781 -0.0585
  784MOL0     H 5799   1.319   7.432   1.256 -1.6602  0.1372  0.2327
  784MOL0     H 5800   1.138   7.513   1.181  1.6662  0.4123 -0.0912
  784MOL0     H 5801   0.809   7.588   1.151  0.1711 -0.9172 -1.4273
  784MOL0     H 5802   0.919   7.445   1.162 -0.2419  0.2623  0.7550
  784MOL0     H 5803   0.810   7.479   1.289  2.0146  0.7848  0.8580
  784MOL0     H 5804   0.618   7.934   1.490 -1.8980  1.1441 -0.6827
  784MOL0     H 5805   0.404   7.996   1.524  1.4290 -2.6133  4.3139
  784MOL0     H 5806   0.042   7.922   1.319  1.3166  0.8212 -2.1987
  784MOL0     H 5807   0.102   7.749   1.289  0.4603  1.1470 -0.8006
  784MOL0     H 5808  -0.008   7.672   1.478 -2.3585 -0.1516  0.7735
  784MOL0     H 5809  -0.056   7.826   1.539 -0.4317  2.0692 -1.4262
  784MOL0     H 5810  -0.155   7.707   1.283  1.2909 -3.0386  0.9182
  784MOL0     H 5811  -0.215   7.857   1.371  0.4996 -0.0086  1.4049
  784MOL0     H 5812  -0.254   7.559   1.449 -2.1427 -0.2923  0.6650
  784MOL0     H 5813  -0.304   7.697   1.539 -0.6048  1.5194 -1.3743
  784MOL0     H 5814  -0.392   7.591   1.268 -2.4473 -1.0214 -1.0886
  784MOL0     H 5815  -0.450   7.751   1.339  2.0260  0.1400  0.6252
  784MOL0     H 5816  -0.479   7.482   1.491  1.1015 -1.2122 -1.3906
  784MOL0     H 5817  -0.569   7.645   1.501  2.1737 -0.2856  2.0592
  784MOL0     H 5818  -0.570   7.433   1.288  5.8115  4.9223 -0.7951
  784MOL0     H 5819  -0.666   7.576   1.286 -0.9447 -0.6327 -1.1020
  784MOL0     H 5820  -0.702   7.365   1.501  1.5622 -0.2692 -0.5286
  784MOL0     H 5821  -0.800   7.384   1.351  2.6588  0.1857 -2.1100
  784MOL0     H 5822   0.255   7.624   1.359 -0.3957  1.6722  0.3604
  784MOL0     H 5823   0.487   7.569   1.281  3.1986  1.0486 -0.6622
  784MOL0     H 5824   1.025   7.833   1.544  1.5825  1.0876 -0.7043
  784MOL0     H 5825   1.257   7.777   1.500  1.4770 -2.1990  0.9624
  784MOL0     H 5826   1.961   7.966   2.597  0.0547  2.0142 -1.0943
  784MOL0     H 5827   2.061   8.019   2.793  0.2095 -0.5591  0.4235
  784MOL0     H 5828   2.372   7.999   3.081 -0.9906  1.0545 -0.7788
  784MOL0     H 5829   2.470   8.070   3.300 -1.9066 -1.1120 -0.9605
  784MOL0     H 5830   2.484   8.226   3.457 -0.4078  1.8231  0.3079
  784MOL0     H 5831   2.630   8.134   3.459 -0.4217 -0.1100  1.5632
  784MOL0     H 5832   2.674   8.410   3.542 -2.5105  0.3200 -3.1655
  784MOL0     H 5833   2.715   8.260   3.618  1.1015  1.6247 -1.1536
  784MOL0     H 5834   2.457   8.238   3.690  0.2380 -0.2969 -0.1118
  784MOL0     H 5835   2.431   8.401   3.624  2.8724  4.0645 -0.2708
  784MOL0     H 5836   2.561   8.313   3.878  0.5174  0.4223  1.5385
  784MOL0     H 5837   2.424   8.418   3.855  0.8354  2.1664 -0.0669
  784MOL0     H 5838   2.783   8.655   3.821  1.5934 -0.4092 -0.1354
  784MOL0     H 5839   2.697   8.359   3.094  0.5700  0.0938 -0.7265
  784MOL0     H 5840   2.588   8.305   2.877  0.8378 -1.2070 -0.6256
  785MOL0     O 5841   5.077  11.314  11.363  0.2565 -0.4596 -0.5147
  785MOL0     C 5842   5.164  11.336  11.453  0.4850 -0.0749  0.1093
  785MOL0     O 5843   5.146  11.368  11.582 -0.1993 -0.2219 -0.4397
  785MOL0     C 5844   5.017  11.346  11.627  0.5331  0.2807 -0.2421
  785MOL0     C 5845   4.988  11.243  11.723 -0.6707 -1.1795 -0.0376
  785MOL0     C 5846   4.861  11.226  11.765  0.1620  0.0546 -0.3788
  785MOL0     C 5847   4.755  11.304  11.720  0.1257  0.4892 -0.4912
  785MOL0     O 5848   4.623  11.270  11.747  0.2604 -0.3248 -0.2008
  785MOL0     C 5849   4.603  11.150  11.828  0.3113 -0.0435 -0.0720
  785MOL0     C 5850   4.460  11.124  11.873  0.1081 -0.0299  0.7861
  785MOL0     C 5851   4.375  11.068  11.757  0.0222 -0.0204 -0.5157
  785MOL0     C 5852   4.250  10.995  11.814  0.4616  0.0681  0.2399
  785MOL0     C 5853   4.159  10.928  11.705 -0.0939  0.6811 -0.5805
  785MOL0     C 5854   4.170  10.776  11.703  0.2256 -0.4429  0.5915
  785MOL0     C 5855   4.043  10.715  11.644  0.7281 -0.1832  0.8132
  785MOL0     C 5856   4.056  10.563  11.611 -0.2807 -0.8663  0.2089
  785MOL0     N 5857   4.053  10.484  11.731  0.4480  0.7360 -0.0430
  785MOL0     C 5858   3.950  10.406  11.768 -1.1216  0.4309  0.5637
  785MOL0     C 5859   4.006  10.326  11.857 -0.2919  0.1791 -1.1260
  785MOL0     C 5860   3.933  10.212  11.918  0.1418 -0.0206 -0.2385
  785MOL0     C 5861   3.859  10.112  11.827  1.2754 -0.4435 -0.1081
  785MOL0     C 5862   3.763  10.032  11.904 -0.4810  1.1110 -0.6039
  785MOL0     C 5863   3.622  10.085  11.913 -1.3310 -0.3950  1.1948
  785MOL0     O 5864   3.563  10.050  11.783  0.2588 -0.2200  0.4976
  785MOL0     C 5865   3.422  10.049  11.778  0.3224  0.0813  0.0741
  785MOL0     C 5866   3.365   9.945  11.694  0.2682 -0.6506 -0.1484
  785MOL0     C 5867   3.222   9.930  11.679 -0.6294 -0.4453  0.4915
  785MOL0     C 5868   3.179   9.816  11.594  0.1301 -0.0430 -0.8403
  785MOL0     C 5869   3.140  10.010  11.760  0.2251  0.6109 -0.3056
  785MOL0     C 5870   2.999   9.996  11.758  0.8938 -0.7608 -0.0234
  785MOL0     O 5871   2.932  10.018  11.883  0.2717  0.1000  0.0567
  785MOL0     C 5872   2.795  10.013  11.874  1.1057 -0.2069  0.2590
  785MOL0     C 5873   2.728   9.890  11.901  0.8018  0.8686  0.8271
  785MOL0     C 5874   2.583   9.893  11.896 -0.2586 -0.6504 -0.8810
  785MOL0     C 5875   2.511  10.022  11.879 -1.0669  1.2693 -0.1121
  785MOL0     O 5876   2.373  10.014  11.897  0.2604 -0.1142 -0.0300
  785MOL0     C 5877   2.310  10.134  11.946 -0.2247 -0.4967  0.1565
  785MOL0     C 5878   2.175  10.099  11.994  0.5877  0.8772  0.2837
  785MOL0     C 5879   2.073  10.081  11.887  0.1922  0.9953  0.3620
  785MOL0     C 5880   1.934  10.047  11.956 -0.3577  0.1565 -0.0998
  785MOL0     C 5881   1.837   9.989  11.856 -0.1593 -0.4893 -0.2781
  785MOL0     C 5882   1.700   9.946  11.926 -0.4484  0.1233 -0.2557
  785MOL0     C 5883   1.621  10.061  11.979 -0.2746 -0.5706  0.4093
  785MOL0     C 5884   1.504  10.015  12.074 -0.1540  0.3496 -0.3961
  785MOL0    Cl 5885   1.358  10.048  11.987  0.0348  0.2299  0.0535
  785MOL0     C 5886   2.579  10.137  11.851 -0.3658 -0.3996  0.2191
  785MOL0     C 5887   2.724  10.130  11.839  0.0738 -0.3863 -0.5504
  785MOL0     O 5888   2.938   9.971  11.656 -0.0654  0.5692  0.4306
  785MOL0     C 5889   3.195  10.107  11.851 -0.6663  0.2215  0.0990
  785MOL0     C 5890   3.335  10.131  11.855  0.4852  0.2413  0.5414
  785MOL0     N 5891   4.135  10.364  11.885 -0.3967 -0.4593  0.5092
  785MOL0     N 5892   4.169  10.462  11.807 -0.0519 -0.5457  0.1278
  785MOL0     C 5893   4.782  11.414  11.635  0.5899 -0.7712  0.6511
  785MOL0     C 5894   4.912  11.442  11.597 -0.0562  0.1959  0.1594
  785MOL0     C 5895   5.304  11.329  11.417  0.9268  1.1917  0.2762
  785MOL0     C 5896   5.341  11.251  11.308 -0.3071  0.3700 -0.4430
  785MOL0     C 5897   5.477  11.229  11.293  0.4032  0.4307 -0.1891
  785MOL0     C 5898   5.576  11.281  11.375  0.3544 -0.6609  0.4111
  785MOL0     O 5899   5.714  11.260  11.353  0.5631 -0.5368 -0.5536
  785MOL0     C 5900   5.766  11.172  11.253  0.5594  0.0064 -0.3436
  785MOL0     C 5901   5.901  11.113  11.293  0.1040  0.1789  0.7809
  785MOL0     C 5902   5.983  11.063  11.164 -0.4406  0.2761  0.7443
  785MOL0     C 5903   5.917  10.948  11.094  0.9667  0.7202  0.2520
  785MOL0     C 5904   6.001  10.845  11.029  0.0828  0.8253 -0.9816
  785MOL0     C 5905   6.068  10.753  10.988 -0.0587 -0.0072  0.3533
  785MOL0     C 5906   5.537  11.358  11.477 -0.2154 -0.7230  0.1711
  785MOL0     C 5907   5.403  11.388  11.496  0.1335  0.5385 -0.2923
  785MOL0     H 5908   5.061  11.171  11.759  0.8148  0.0532 -0.4714
  785MOL0     H 5909   4.845  11.138  11.825  0.2940 -0.2692 -0.8102
  785MOL0     H 5910   4.632  11.063  11.769  1.1958 -0.7160  1.3062
  785MOL0     H 5911   4.655  11.152  11.924  0.6036  0.8224 -0.2369
  785MOL0     H 5912   4.462  11.057  11.960 -1.0562 -0.6118  0.3878
  785MOL0     H 5913   4.413  11.219  11.900  0.1705  0.2739 -0.1269
  785MOL0     H 5914   4.343  11.152  11.694 -2.3958  0.2012  0.8892
  785MOL0     H 5915   4.441  11.008  11.694 -1.4157 -1.2458 -0.9119
  785MOL0     H 5916   4.307  10.921  11.871  1.6074  0.6288 -0.1614
  785MOL0     H 5917   4.193  11.062  11.879  1.6649  2.0515 -0.6801
  785MOL0     H 5918   4.054  10.953  11.723  0.3981  0.5544  3.2876
  785MOL0     H 5919   4.179  10.965  11.604 -1.2042 -2.0642 -1.9097
  785MOL0     H 5920   4.251  10.738  11.640 -0.3199 -2.3120  0.9625
  785MOL0     H 5921   4.189  10.732  11.801 -0.6499  0.2353  1.0734
  785MOL0     H 5922   3.959  10.726  11.713 -0.2695 -1.1979 -0.1921
  785MOL0     H 5923   4.036  10.768  11.549 -0.9251  0.1692  1.0914
  785MOL0     H 5924   4.149  10.545  11.557  0.3463  3.6046 -0.6138
  785MOL0     H 5925   3.971  10.534  11.549 -0.2535  0.8469 -0.7241
  785MOL0     H 5926   3.847  10.402  11.735 -1.4418  0.0149  1.5730
  785MOL0     H 5927   3.992  10.168  11.999 -0.9583  0.6876  0.9831
  785MOL0     H 5928   3.856  10.264  11.976  2.7432  1.2139  2.3970
  785MOL0     H 5929   3.922  10.040  11.773  0.7326  0.0481 -1.4325
  785MOL0     H 5930   3.810  10.161  11.743 -1.3057 -2.1134  0.3111
  785MOL0     H 5931   3.790  10.007  12.007 -1.1744 -0.3400 -0.7406
  785MOL0     H 5932   3.755   9.937  11.851  0.6982  0.3918  0.4421
  785MOL0     H 5933   3.614  10.194  11.922 -3.2824  0.0317 -2.9578
  785MOL0     H 5934   3.576  10.030  11.996 -2.1321 -2.2540 -0.3885
  785MOL0     H 5935   3.414   9.877  11.625 -2.0492 -2.1139 -0.4548
  785MOL0     H 5936   3.136   9.744  11.666  3.1045 -1.2398 -0.1251
  785MOL0     H 5937   3.109   9.846  11.515 -0.1039  1.9420  0.0603
  785MOL0     H 5938   3.264   9.766  11.548  0.1924  1.4467 -2.4200
  785MOL0     H 5939   2.780   9.797  11.921 -1.8284 -0.5554  1.5764
  785MOL0     H 5940   2.528   9.807  11.933  0.6509 -0.7729  0.2460
  785MOL0     H 5941   2.357  10.175  12.036 -0.9456 -2.0477  1.2814
  785MOL0     H 5942   2.307  10.205  11.863  0.9153 -1.0145 -0.3561
  785MOL0     H 5943   2.179  10.014  12.062  1.0829  0.3511 -0.4033
  785MOL0     H 5944   2.140  10.183  12.056 -0.7439 -0.5330  1.5056
  785MOL0     H 5945   2.103  10.008  11.810  2.0262  0.9562  1.0568
  785MOL0     H 5946   2.074  10.171  11.825  2.2151  1.5152  1.0867
  785MOL0     H 5947   1.951   9.977  12.039 -0.6162  0.0360 -0.1502
  785MOL0     H 5948   1.883  10.135  11.996 -4.8261 -0.4844 -3.6495
  785MOL0     H 5949   1.877   9.897  11.813 -0.9482  0.2017 -2.6628
  785MOL0     H 5950   1.827  10.043  11.761 -0.3591 -1.6078 -0.9177
  785MOL0     H 5951   1.646   9.881  11.856  0.6185  1.5598 -2.5539
  785MOL0     H 5952   1.721   9.881  12.011 -1.6699 -0.0537 -0.0625
  785MOL0     H 5953   1.579  10.112  11.892  1.3743 -0.1783 -0.1975
  785MOL0     H 5954   1.687  10.125  12.039  1.6794 -3.2973  1.3789
  785MOL0     H 5955   1.504  10.072  12.167 -0.0050 -0.2829 -0.0044
  785MOL0     H 5956   1.509   9.908  12.096  0.4283  0.4863  0.1608
  785MOL0     H 5957   2.530  10.232  11.833 -0.0151 -0.8621 -4.3176
  785MOL0     H 5958   2.790  10.216  11.829  3.6099 -3.0394 -2.3188
  785MOL0     H 5959   3.129  10.157  11.922 -0.0093 -0.9814  1.6082
  785MOL0     H 5960   3.381  10.209  11.916  1.1535 -0.0534  0.4205
  785MOL0     H 5961   4.706  11.482  11.598  0.2840 -1.2273  0.4459
  785MOL0     H 5962   4.944  11.526  11.536  1.3061 -0.7518 -0.4861
  785MOL0     H 5963   5.258  11.208  11.252 -1.3364  2.2932 -0.4814
  785MOL0     H 5964   5.500  11.162  11.211  0.6713  0.0642  0.1807
  785MOL0     H 5965   5.695  11.090  11.236  0.5893 -0.1144  0.0809
  785MOL0     H 5966   5.779  11.236  11.166 -2.9305  1.5776  0.0958
  785MOL0     H 5967   5.890  11.031  11.365 -2.5749  2.3124  3.0308
  785MOL0     H 5968   5.958  11.182  11.355 -0.7314  0.6211  1.0736
  785MOL0     H 5969   6.073  11.020  11.209  0.1767 -0.0828 -0.7827
  785MOL0     H 5970   6.012  11.138  11.091 -2.4409 -1.0543 -1.5851
  785MOL0     H 5971   5.863  11.001  11.015  1.6148  1.0546  0.0188
  785MOL0     H 5972   5.850  10.895  11.162  1.1759 -0.0974 -0.1638
  785MOL0     H 5973   6.137  10.680  10.949  0.2969  0.0590  0.8500
  785MOL0     H 5974   5.606  11.405  11.547 -1.4034  0.6861  0.4333
  785MOL0     H 5975   5.379  11.423  11.596  1.5351 -1.6858  0.8962
  786MOL0     O 5976   0.696   5.481   2.228  0.1291  0.5335  0.1750
  786MOL0     C 5977   0.770   5.440   2.135  0.3295  0.0492 -0.4996
  786MOL0     O 5978   0.741   5.332   2.053  0.0600  0.4066  0.2210
  786MOL0     C 5979   0.629   5.246   2.085 -0.0950 -0.0659  0.0521
  786MOL0     C 5980   0.651   5.154   2.180  0.7744  0.0381  0.2743
  786MOL0     C 5981   0.555   5.058   2.209 -0.0011 -0.3059 -0.0156
  786MOL0     C 5982   0.427   5.061   2.142 -0.1800  0.5088 -0.2941
  786MOL0     O 5983   0.318   4.983   2.156  0.9623  0.7813 -0.0484
  786MOL0     C 5984   0.338   4.857   2.231 -0.5624 -0.8786 -0.0545
  786MOL0     C 5985   0.235   4.753   2.215 -0.5376  0.8778 -0.7927
  786MOL0     C 5986   0.086   4.797   2.245 -0.1367 -0.0172  0.3050
  786MOL0     C 5987   0.006   4.670   2.285 -0.3344 -0.4220  1.3406
  786MOL0     C 5988  -0.084   4.677   2.403  0.2390 -0.0536  0.9262
  786MOL0     C 5989  -0.158   4.543   2.432  0.4689 -0.0276 -0.2568
  786MOL0     C 5990  -0.057   4.434   2.487 -0.5869 -0.5386 -0.5271
  786MOL0     C 5991  -0.135   4.338   2.575 -0.6050 -0.6320  0.2158
  786MOL0     N 5992  -0.237   4.259   2.500  0.0929  0.1377  0.0045
  786MOL0     C 5993  -0.270   4.124   2.532 -0.4971 -0.2634 -0.1410
  786MOL0     C 5994  -0.404   4.108   2.497 -0.8799 -0.0322  0.5306
  786MOL0     C 5995  -0.466   3.975   2.501 -0.2308 -0.9152  0.3608
  786MOL0     C 5996  -0.514   3.928   2.367 -0.2512 -0.1127  0.5195
  786MOL0     C 5997  -0.621   3.826   2.379 -0.2051  0.4263 -0.1698
  786MOL0     C 5998  -0.657   3.765   2.234 -0.5318 -0.5052 -0.8031
  786MOL0     O 5999  -0.592   3.643   2.212 -0.3075 -0.1850 -0.8866
  786MOL0     C 6000  -0.658   3.524   2.174 -0.7642 -0.8382  0.1372
  786MOL0     C 6001  -0.740   3.528   2.065  0.9619  0.8759 -0.4813
  786MOL0     C 6002  -0.805   3.409   2.014 -0.0129 -0.3693  0.0883
  786MOL0     C 6003  -0.911   3.428   1.906 -0.2221  0.0517 -0.3261
  786MOL0     C 6004  -0.795   3.287   2.095 -0.0568  0.3647 -0.1517
  786MOL0     C 6005  -0.879   3.164   2.070 -0.0271 -0.0172  0.0367
  786MOL0     O 6006  -0.842   3.049   2.141 -0.0173 -0.2971 -0.0319
  786MOL0     C 6007  -0.933   2.957   2.184 -0.0084 -0.3103  0.0268
  786MOL0     C 6008  -1.073   2.986   2.194 -0.2468  0.6543 -0.5569
  786MOL0     C 6009  -1.161   2.889   2.239  0.1798 -0.1407 -0.1879
  786MOL0     C 6010  -1.107   2.773   2.300  0.5726 -0.0723  0.3543
  786MOL0     O 6011  -1.185   2.682   2.363 -0.3888  0.2863 -0.4381
  786MOL0     C 6012  -1.322   2.707   2.389  0.2541  0.3468  0.0990
  786MOL0     C 6013  -1.371   2.592   2.460  0.5234  0.3002 -0.0172
  786MOL0     C 6014  -1.311   2.591   2.601 -0.4482 -0.3137  1.3916
  786MOL0     C 6015  -1.384   2.499   2.696 -0.8114 -0.2015 -0.6369
  786MOL0     C 6016  -1.331   2.526   2.839  1.0065  0.5481  0.0099
  786MOL0     C 6017  -1.418   2.473   2.950 -0.2067  0.5073  0.0236
  786MOL0     C 6018  -1.423   2.318   2.962  0.0463 -0.4184 -0.5082
  786MOL0     C 6019  -1.506   2.260   3.073  0.2974  0.2495 -1.0661
  786MOL0    Cl 6020  -1.675   2.298   3.045 -0.1419 -0.0325 -0.2453
  786MOL0     C 6021  -0.970   2.748   2.291  0.9736 -0.9437 -0.2557
  786MOL0     C 6022  -0.883   2.840   2.236  0.5905 -0.2389 -0.2626
  786MOL0     O 6023  -0.981   3.174   2.005 -0.4307 -0.2676 -0.1311
  786MOL0     C 6024  -0.700   3.296   2.197  1.5135 -0.2748  0.3808
  786MOL0     C 6025  -0.617   3.405   2.230  0.5427 -0.0216  0.1731
  786MOL0     N 6026  -0.450   4.234   2.448 -0.9987  0.2815 -0.0280
  786MOL0     N 6027  -0.348   4.317   2.441  0.3683 -0.1434 -1.2085
  786MOL0     C 6028   0.408   5.167   2.053 -0.4826 -1.3287 -0.9245
  786MOL0     C 6029   0.502   5.272   2.033 -0.2016  0.5514  0.3779
  786MOL0     C 6030   0.900   5.509   2.097  0.1271 -0.3333 -1.1410
  786MOL0     C 6031   0.967   5.595   2.186  0.2410 -0.1602 -0.0878
  786MOL0     C 6032   1.104   5.635   2.157  0.6620  0.0542  0.5429
  786MOL0     C 6033   1.169   5.584   2.044 -0.2371 -0.4739  1.0365
  786MOL0     O 6034   1.303   5.611   2.019 -0.2210  0.0852 -0.3165
  786MOL0     C 6035   1.374   5.569   1.910  0.3284  0.3644  0.3389
  786MOL0     C 6036   1.332   5.661   1.793  0.0957 -0.1983  0.3323
  786MOL0     C 6037   1.370   5.807   1.819  0.0411  0.3404 -0.6992
  786MOL0     C 6038   1.333   5.908   1.706 -0.8576 -0.1775 -0.4186
  786MOL0     C 6039   1.186   5.931   1.688 -0.3073 -0.5323 -0.2668
  786MOL0     C 6040   1.065   5.927   1.683 -0.2653  0.1497 -0.4074
  786MOL0     C 6041   1.098   5.499   1.955 -0.0324  0.3079  0.0108
  786MOL0     C 6042   0.961   5.469   1.974 -0.8501 -0.3090 -0.3243
  786MOL0     H 6043   0.750   5.167   2.224  0.2158  1.7394  1.0974
  786MOL0     H 6044   0.586   4.984   2.281 -0.3985  0.7179  1.2396
  786MOL0     H 6045   0.435   4.810   2.214  0.4725  1.9661 -3.2228
  786MOL0     H 6046   0.343   4.891   2.335  1.2109  0.2937 -0.4764
  786MOL0     H 6047   0.254   4.708   2.118  0.7167  0.1754 -0.2484
  786MOL0     H 6048   0.262   4.673   2.285 -1.3907 -0.9371 -2.4342
  786MOL0     H 6049   0.077   4.874   2.322  1.4046  0.3782  0.1286
  786MOL0     H 6050   0.039   4.839   2.156 -0.3982 -0.0578  0.4235
  786MOL0     H 6051  -0.053   4.650   2.195 -0.6269  2.9897  0.6377
  786MOL0     H 6052   0.073   4.586   2.306 -1.3123 -0.6213  4.1016
  786MOL0     H 6053  -0.022   4.708   2.487 -0.6885 -0.5342  1.8179
  786MOL0     H 6054  -0.161   4.753   2.384  1.3681  1.1636  1.0845
  786MOL0     H 6055  -0.220   4.563   2.520 -0.5784  0.5781 -1.1117
  786MOL0     H 6056  -0.222   4.517   2.348 -1.9996  1.4339  1.0542
  786MOL0     H 6057  -0.002   4.394   2.401  1.4482  2.7297 -0.9189
  786MOL0     H 6058   0.016   4.474   2.558 -1.2719  2.3187 -1.3330
  786MOL0     H 6059  -0.186   4.401   2.649  1.2802 -0.8893  1.8018
  786MOL0     H 6060  -0.072   4.270   2.632 -3.7680 -1.4938  2.9836
  786MOL0     H 6061  -0.196   4.058   2.576  1.4494  0.6761 -1.7969
  786MOL0     H 6062  -0.397   3.905   2.549  2.3874  2.4187  1.8423
  786MOL0     H 6063  -0.546   3.984   2.576 -0.7031  3.1191 -0.3992
  786MOL0     H 6064  -0.424   3.896   2.312  1.3752  1.3760  2.1761
  786MOL0     H 6065  -0.561   4.014   2.320 -1.7903 -0.7592  0.8012
  786MOL0     H 6066  -0.708   3.874   2.424  0.6260  1.2197  0.6330
  786MOL0     H 6067  -0.604   3.746   2.452 -1.6399  0.2407  0.0001
  786MOL0     H 6068  -0.627   3.832   2.153 -1.7259 -0.2113 -1.0251
  786MOL0     H 6069  -0.766   3.756   2.232 -0.4742 -1.4327 -0.3931
  786MOL0     H 6070  -0.764   3.621   2.015 -0.4838  0.5715 -0.3822
  786MOL0     H 6071  -0.920   3.336   1.849 -0.0300 -0.9725  1.2461
  786MOL0     H 6072  -1.009   3.447   1.950  0.9569 -0.5328  2.8526
  786MOL0     H 6073  -0.884   3.520   1.852  2.0020 -0.8479 -0.8775
  786MOL0     H 6074  -1.127   3.069   2.150 -0.1865  1.8085  1.4549
  786MOL0     H 6075  -1.266   2.914   2.227 -0.0332 -0.4559  0.8828
  786MOL0     H 6076  -1.336   2.796   2.452 -3.8564  0.0346 -0.0621
  786MOL0     H 6077  -1.370   2.727   2.293  1.2407  3.4251  0.1236
  786MOL0     H 6078  -1.478   2.613   2.463  0.0393 -1.8691 -0.9160
  786MOL0     H 6079  -1.350   2.500   2.405  0.9158  2.1885 -3.2613
  786MOL0     H 6080  -1.304   2.696   2.630  2.1589 -0.8753  3.1217
  786MOL0     H 6081  -1.208   2.554   2.590  0.7691  3.2153 -1.1235
  786MOL0     H 6082  -1.488   2.531   2.690 -0.7192  0.8285  2.0291
  786MOL0     H 6083  -1.380   2.397   2.658  0.9200 -0.4265  0.0684
  786MOL0     H 6084  -1.313   2.633   2.851  4.5422  0.2251 -1.2802
  786MOL0     H 6085  -1.227   2.493   2.843  0.4004 -1.4719  0.3929
  786MOL0     H 6086  -1.387   2.507   3.050 -2.1229 -3.4140  2.2108
  786MOL0     H 6087  -1.512   2.526   2.934  1.7891  3.5544 -3.0053
  786MOL0     H 6088  -1.324   2.273   2.971  1.5139  1.7384 -3.8300
  786MOL0     H 6089  -1.461   2.271   2.871 -1.8807 -0.0162  0.0473
  786MOL0     H 6090  -1.477   2.292   3.174  2.6485 -2.6525 -0.6928
  786MOL0     H 6091  -1.502   2.151   3.074 -0.1238  0.2306 -1.0413
  786MOL0     H 6092  -0.937   2.660   2.346 -2.0236 -2.2143 -0.3256
  786MOL0     H 6093  -0.777   2.817   2.232  1.0328  1.6374 -0.2340
  786MOL0     H 6094  -0.686   3.207   2.258  0.6608 -0.4331  0.3528
  786MOL0     H 6095  -0.540   3.418   2.305 -0.2289  0.3376  0.9203
  786MOL0     H 6096   0.316   5.172   1.997 -1.7630 -0.6685  1.1373
  786MOL0     H 6097   0.478   5.354   1.966  0.3923 -0.1715 -0.7452
  786MOL0     H 6098   0.919   5.623   2.279  1.7081  2.2864  0.0473
  786MOL0     H 6099   1.155   5.688   2.237 -0.3380  0.8199  0.6842
  786MOL0     H 6100   1.483   5.576   1.923  0.3033  0.3648  0.5473
  786MOL0     H 6101   1.350   5.465   1.883 -0.0759  0.0565  1.8256
  786MOL0     H 6102   1.225   5.664   1.769  0.7584  1.9758 -2.9893
  786MOL0     H 6103   1.377   5.627   1.699  1.4037  2.5118 -0.1016
  786MOL0     H 6104   1.479   5.811   1.825  0.0224  0.7671 -0.6014
  786MOL0     H 6105   1.331   5.843   1.915  1.4856 -1.2071  0.5175
  786MOL0     H 6106   1.368   5.881   1.606 -2.1677 -1.2926 -0.6000
  786MOL0     H 6107   1.383   6.001   1.735  2.1028 -0.8337 -2.9334
  786MOL0     H 6108   0.960   5.914   1.668 -0.6469  1.6061  0.8809
  786MOL0     H 6109   1.138   5.460   1.862  0.7320  1.2668 -0.0826
  786MOL0     H 6110   0.902   5.403   1.912  0.3694 -2.1650  0.4289
  787MOL0     O 6111   7.348   8.084   9.584 -0.1856 -0.3903 -0.2515
  787MOL0     C 6112   7.451   8.097   9.525 -0.2360 -0.2977  0.0906
  787MOL0     O 6113   7.501   8.016   9.421  0.0658 -0.1060 -0.0467
  787MOL0     C 6114   7.437   7.891   9.434 -0.3681 -0.9089  0.7433
  787MOL0     C 6115   7.359   7.848   9.338  0.4284  0.5036 -0.4162
  787MOL0     C 6116   7.277   7.735   9.368 -0.5535 -0.2829  0.3221
  787MOL0     C 6117   7.298   7.655   9.483 -0.2364  0.4385 -0.2969
  787MOL0     O 6118   7.207   7.560   9.507 -0.4513  0.0639  0.1667
  787MOL0     C 6119   7.155   7.557   9.640 -0.0528 -0.1314 -1.1545
  787MOL0     C 6120   7.088   7.684   9.693  0.2146  0.4041 -0.3146
  787MOL0     C 6121   6.990   7.662   9.814 -0.9250 -0.0017  0.4672
  787MOL0     C 6122   7.061   7.652   9.953 -0.4949 -0.2096  0.8451
  787MOL0     C 6123   6.978   7.669  10.067  0.3346  0.6416  0.5358
  787MOL0     C 6124   6.885   7.549  10.105 -0.6833 -0.3296 -0.5088
  787MOL0     C 6125   6.746   7.548  10.038 -0.4667  0.1697 -0.4798
  787MOL0     C 6126   6.666   7.439  10.106 -0.1019  0.0223  0.3952
  787MOL0     N 6127   6.659   7.444  10.247 -0.7032 -0.0748 -0.3466
  787MOL0     C 6128   6.583   7.533  10.319 -0.3793  0.1253 -0.0673
  787MOL0     C 6129   6.598   7.492  10.445 -0.4344  0.6197  0.6942
  787MOL0     C 6130   6.516   7.550  10.562 -0.3450  0.1455  0.3997
  787MOL0     C 6131   6.565   7.682  10.621 -0.5249 -0.8034 -0.8061
  787MOL0     C 6132   6.692   7.662  10.709  0.3487 -0.1063 -0.5697
  787MOL0     C 6133   6.817   7.626  10.629 -0.9167  0.2350 -0.7788
  787MOL0     O 6134   6.845   7.719  10.526 -0.1897  0.4238 -0.0270
  787MOL0     C 6135   6.980   7.731  10.494 -0.1223 -0.9391  0.0551
  787MOL0     C 6136   7.053   7.630  10.434  0.0601  0.1437 -0.0639
  787MOL0     C 6137   7.187   7.656  10.402  0.0533  0.0454  0.0720
  787MOL0     C 6138   7.257   7.544  10.329 -0.1791  0.5620  0.1404
  787MOL0     C 6139   7.245   7.786  10.428  0.5406  0.1251  0.0569
  787MOL0     C 6140   7.383   7.817  10.405 -1.0025 -0.4836  0.2090
  787MOL0     O 6141   7.411   7.954  10.414 -0.0787  0.1706 -0.5460
  787MOL0     C 6142   7.533   8.005  10.435 -1.3895  0.5120  0.3216
  787MOL0     C 6143   7.651   7.945  10.373 -0.1827 -0.2595  0.0285
  787MOL0     C 6144   7.771   8.013  10.377 -0.2371 -0.5905 -0.4720
  787MOL0     C 6145   7.787   8.111  10.479 -0.7636  0.1901  0.7138
  787MOL0     O 6146   7.907   8.175  10.488 -0.7802 -0.2578  0.5271
  787MOL0     C 6147   8.035   8.099  10.480  0.2312  0.4696  0.1153
  787MOL0     C 6148   8.105   8.112  10.346 -0.2506  1.0669 -0.7604
  787MOL0     C 6149   8.129   8.259  10.295 -0.0315  0.3791 -0.7522
  787MOL0     C 6150   8.230   8.335  10.387  0.5420  1.4743  0.6407
  787MOL0     C 6151   8.307   8.431  10.300  1.3010  0.1349  0.5751
  787MOL0     C 6152   8.408   8.506  10.387  1.3183  0.1903  0.7424
  787MOL0     C 6153   8.514   8.575  10.300  0.4859  0.3037  0.3890
  787MOL0     C 6154   8.649   8.610  10.376 -0.1068 -0.1916  1.0973
  787MOL0    Cl 6155   8.712   8.465  10.466 -0.2425 -0.2864  0.3455
  787MOL0     C 6156   7.675   8.167  10.546  0.0084  0.6849 -0.5969
  787MOL0     C 6157   7.551   8.106  10.526  0.1049  0.1485 -0.0275
  787MOL0     O 6158   7.464   7.728  10.404 -0.0848  0.1387  0.7525
  787MOL0     C 6159   7.169   7.886  10.485  1.1581  0.1023 -0.4592
  787MOL0     C 6160   7.036   7.854  10.521  0.3437 -0.7513  0.7753
  787MOL0     N 6161   6.676   7.372  10.456 -0.0102 -0.7351 -0.1158
  787MOL0     N 6162   6.712   7.349  10.335 -0.1662 -0.3297  0.4869
  787MOL0     C 6163   7.393   7.701   9.580  0.3792  0.7665 -0.2179
  787MOL0     C 6164   7.465   7.813   9.552  0.6673 -0.1428 -0.2747
  787MOL0     C 6165   7.515   8.237   9.535 -0.2037 -0.1085  0.3204
  787MOL0     C 6166   7.642   8.256   9.475 -0.1652 -0.5859 -0.5833
  787MOL0     C 6167   7.709   8.384   9.487  0.6068  0.5433  0.5878
  787MOL0     C 6168   7.655   8.490   9.557  0.4414 -0.4126 -0.3931
  787MOL0     O 6169   7.724   8.599   9.594 -0.1165  0.2463  0.0825
  787MOL0     C 6170   7.839   8.636   9.517 -0.2540  0.1149  0.1844
  787MOL0     C 6171   7.869   8.775   9.562 -1.0478 -0.4827 -0.0069
  787MOL0     C 6172   7.995   8.839   9.485  0.1289 -0.3047 -0.3848
  787MOL0     C 6173   8.060   8.949   9.574 -0.2013  0.1865 -0.7959
  787MOL0     C 6174   8.134   9.040   9.493 -0.8667  0.3536  0.8724
  787MOL0     C 6175   8.199   9.114   9.416  1.0572  0.3418 -0.8592
  787MOL0     C 6176   7.532   8.462   9.622 -0.6969 -0.3350 -0.7417
  787MOL0     C 6177   7.463   8.339   9.613 -0.6973  0.7128  0.6278
  787MOL0     H 6178   7.338   7.910   9.252 -0.6932  0.5760 -0.1127
  787MOL0     H 6179   7.192   7.715   9.304  0.7926  0.8608 -1.9480
  787MOL0     H 6180   7.081   7.476   9.641  1.8171 -1.9413  1.0776
  787MOL0     H 6181   7.232   7.537   9.715 -0.6311  0.2745 -0.4438
  787MOL0     H 6182   7.174   7.745   9.724  0.2859  1.3213 -2.1783
  787MOL0     H 6183   7.041   7.730   9.606  1.7393 -0.0763 -1.4227
  787MOL0     H 6184   6.924   7.748   9.828 -1.8327 -0.7007  0.5449
  787MOL0     H 6185   6.936   7.568   9.800  0.4030 -0.6527 -0.4892
  787MOL0     H 6186   7.113   7.558   9.969  2.0417  1.2149  1.5661
  787MOL0     H 6187   7.144   7.723   9.961  1.9367 -2.5603 -1.4568
  787MOL0     H 6188   7.047   7.685  10.151 -0.1545 -0.2624  1.1300
  787MOL0     H 6189   6.924   7.764  10.061  1.9264  1.6765  1.7394
  787MOL0     H 6190   6.924   7.448  10.090  0.4143  0.1960 -1.3640
  787MOL0     H 6191   6.876   7.560  10.214  3.3672  2.3827 -0.2253
  787MOL0     H 6192   6.704   7.648  10.054  0.8221  0.7238 -0.4598
  787MOL0     H 6193   6.762   7.525   9.932 -0.5913 -1.0115 -0.2521
  787MOL0     H 6194   6.693   7.340  10.068  1.8818 -0.4489  2.7971
  787MOL0     H 6195   6.563   7.455  10.073 -0.0553 -0.4799  0.0041
  787MOL0     H 6196   6.530   7.616  10.273  0.7990 -0.1900 -2.1202
  787MOL0     H 6197   6.416   7.573  10.525  1.3416  4.9410 -2.1301
  787MOL0     H 6198   6.505   7.482  10.647 -1.1580 -0.7768 -0.4254
  787MOL0     H 6199   6.491   7.717  10.693  1.5787  4.2397 -0.6884
  787MOL0     H 6200   6.577   7.751  10.537 -1.3135  2.6977  1.7447
  787MOL0     H 6201   6.674   7.588  10.787  0.9459 -0.2253 -0.5428
  787MOL0     H 6202   6.724   7.754  10.758 -0.0214  0.0747 -0.6623
  787MOL0     H 6203   6.818   7.530  10.577 -0.5036  1.0448 -2.3145
  787MOL0     H 6204   6.902   7.632  10.697 -0.5083  1.5728 -1.3801
  787MOL0     H 6205   6.998   7.538  10.418  2.3450 -1.0626 -1.5851
  787MOL0     H 6206   7.190   7.463  10.300  1.3539 -0.1678 -1.5712
  787MOL0     H 6207   7.288   7.596  10.238 -1.1003  0.7131 -0.1006
  787MOL0     H 6208   7.342   7.500  10.381 -0.5455 -1.1019 -0.5971
  787MOL0     H 6209   7.641   7.857  10.310 -0.9530 -0.6255  0.6345
  787MOL0     H 6210   7.851   7.979  10.312 -0.8712 -0.3651 -1.3816
  787MOL0     H 6211   8.097   8.154  10.550 -2.5431  3.6223  0.3228
  787MOL0     H 6212   8.030   7.994  10.509 -1.2955  0.4236 -0.2361
  787MOL0     H 6213   8.199   8.057  10.353 -1.3724 -0.6429  3.5494
  787MOL0     H 6214   8.051   8.049  10.274 -1.4440 -2.1883  2.6703
  787MOL0     H 6215   8.031   8.307  10.281 -0.8039 -0.8410  0.2362
  787MOL0     H 6216   8.159   8.241  10.192 -1.6107 -2.7322 -0.7761
  787MOL0     H 6217   8.169   8.381  10.465 -5.3702 -3.7382 -0.1233
  787MOL0     H 6218   8.295   8.269  10.444  0.0787 -1.7869 -2.2628
  787MOL0     H 6219   8.239   8.498  10.246  0.0008  1.2252  3.3691
  787MOL0     H 6220   8.369   8.379  10.227  1.3808  2.3695 -1.0499
  787MOL0     H 6221   8.352   8.586  10.436  1.4038  0.9504 -0.3571
  787MOL0     H 6222   8.452   8.441  10.463 -1.6220 -2.0977  0.7202
  787MOL0     H 6223   8.465   8.659  10.250  1.3998  1.3183  1.1477
  787MOL0     H 6224   8.540   8.503  10.222 -1.5270 -1.0519  0.9094
  787MOL0     H 6225   8.631   8.701  10.435 -0.3937  0.1711  0.4572
  787MOL0     H 6226   8.719   8.642  10.299 -3.0473  2.9193 -0.5324
  787MOL0     H 6227   7.675   8.252  10.614 -0.3727  0.2588 -0.0540
  787MOL0     H 6228   7.474   8.163  10.577  0.2141  0.8232 -0.6109
  787MOL0     H 6229   7.206   7.988  10.492  0.9771  0.1134  0.4044
  787MOL0     H 6230   6.984   7.944  10.553  2.0022  0.9268 -1.0291
  787MOL0     H 6231   7.411   7.656   9.677  0.1011 -0.9624 -0.9321
  787MOL0     H 6232   7.541   7.843   9.624  0.5919  1.7368 -0.9189
  787MOL0     H 6233   7.702   8.187   9.415 -1.9785 -3.8597  1.0869
  787MOL0     H 6234   7.806   8.405   9.442  0.3782  0.4291  0.0441
  787MOL0     H 6235   7.925   8.568   9.521 -0.6229 -0.2874  1.7843
  787MOL0     H 6236   7.811   8.640   9.411  2.1783  0.9548 -0.4857
  787MOL0     H 6237   7.883   8.784   9.670 -1.8874 -1.4911  0.2146
  787MOL0     H 6238   7.779   8.834   9.541 -1.6277  0.0878  3.5048
  787MOL0     H 6239   7.947   8.875   9.394 -1.9106 -2.3082 -0.1825
  787MOL0     H 6240   8.063   8.756   9.464 -0.4435 -0.3038 -2.3706
  787MOL0     H 6241   8.122   8.891   9.642 -3.0403 -0.0843  1.8125
  787MOL0     H 6242   7.980   9.002   9.628 -0.0997  1.6108 -2.0015
  787MOL0     H 6243   8.251   9.185   9.355  4.2428 -0.2429  0.9532
  787MOL0     H 6244   7.497   8.549   9.677  2.2132 -0.0860  0.9231
  787MOL0     H 6245   7.365   8.321   9.657 -2.6883  2.5687 -2.6308
  788MOL0     O 6246   8.838   9.392   8.988  0.7872 -0.6949  0.1360
  788MOL0     C 6247   8.851   9.309   9.079  0.3925 -0.6045  0.2602
  788MOL0     O 6248   8.760   9.220   9.127 -0.6717  0.6564 -0.3127
  788MOL0     C 6249   8.635   9.205   9.073  0.1824  0.2323 -0.3239
  788MOL0     C 6250   8.584   9.235   8.947 -0.1574  0.1074 -0.4886
  788MOL0     C 6251   8.453   9.215   8.912  0.2876 -0.3947  0.1777
  788MOL0     C 6252   8.360   9.164   8.998 -0.2587 -0.1794  0.2265
  788MOL0     O 6253   8.226   9.148   8.955 -0.1625  0.3839  0.3902
  788MOL0     C 6254   8.131   9.168   9.064 -0.1748 -0.1381 -0.4570
  788MOL0     C 6255   8.001   9.209   9.002  1.3582 -0.5126 -0.4028
  788MOL0     C 6256   7.878   9.217   9.101 -0.7052  0.8629 -0.1592
  788MOL0     C 6257   7.865   9.110   9.208  0.8833 -1.0513 -0.9169
  788MOL0     C 6258   7.722   9.092   9.256  0.1729 -0.5708 -0.1658
  788MOL0     C 6259   7.667   9.223   9.313  0.5530  0.7259  0.2548
  788MOL0     C 6260   7.556   9.213   9.416 -0.5301  0.3964 -0.9960
  788MOL0     C 6261   7.607   9.145   9.551 -0.3834 -0.4706  0.0380
  788MOL0     N 6262   7.692   9.236   9.629 -0.5332  0.0099 -0.1147
  788MOL0     C 6263   7.831   9.249   9.634  0.3189 -0.2882  0.5980
  788MOL0     C 6264   7.859   9.338   9.725  0.1718 -0.1322 -0.2799
  788MOL0     C 6265   7.991   9.412   9.750 -1.2464  0.6221 -0.9636
  788MOL0     C 6266   8.118   9.320   9.743  0.5301  0.0766  0.3013
  788MOL0     C 6267   8.127   9.237   9.865 -0.0282  0.4925 -0.9336
  788MOL0     C 6268   8.248   9.149   9.845  0.1953 -0.4077  0.3943
  788MOL0     O 6269   8.290   9.073   9.959 -0.6512 -0.8747  0.3210
  788MOL0     C 6270   8.204   8.980  10.019  0.7561  0.2108  0.4155
  788MOL0     C 6271   8.069   8.937   9.980  0.0895  1.0591 -0.4057
  788MOL0     C 6272   7.995   8.850  10.064  0.5763  0.2512  0.4342
  788MOL0     C 6273   7.859   8.808  10.007  1.2095 -0.3239 -0.1588
  788MOL0     C 6274   8.048   8.811  10.185  0.4473 -1.5740 -0.1267
  788MOL0     C 6275   7.982   8.725  10.281  0.1653 -0.5911 -0.1511
  788MOL0     O 6276   7.996   8.769  10.413  0.0390  0.0814 -0.0947
  788MOL0     C 6277   7.938   8.691  10.516 -0.2729  0.0055 -1.0465
  788MOL0     C 6278   7.906   8.752  10.637 -0.4372 -0.3748  0.1313
  788MOL0     C 6279   7.863   8.684  10.751  0.0141 -0.0030 -0.5813
  788MOL0     C 6280   7.841   8.548  10.743  0.3950 -0.0129  0.0425
  788MOL0     O 6281   7.791   8.489  10.852 -0.3666 -0.4066 -1.0421
  788MOL0     C 6282   7.645   8.472  10.842 -0.2968 -0.3411  0.6518
  788MOL0     C 6283   7.585   8.409  10.965  0.6961  0.3824 -0.1782
  788MOL0     C 6284   7.428   8.392  10.973 -0.2399  0.1512  0.2554
  788MOL0     C 6285   7.360   8.311  10.854 -0.1435  0.4075 -0.0883
  788MOL0     C 6286   7.221   8.266  10.874 -0.1427 -0.0960  0.0119
  788MOL0     C 6287   7.127   8.386  10.858 -0.0564  0.5064  0.2031
  788MOL0     C 6288   7.114   8.431  10.715  0.6309  0.0446  0.0274
  788MOL0     C 6289   7.030   8.550  10.689  0.0271  0.4326  0.2139
  788MOL0    Cl 6290   6.861   8.502  10.703  0.0838  0.2448 -0.0662
  788MOL0     C 6291   7.896   8.482  10.635 -0.4551  0.7125 -0.7883
  788MOL0     C 6292   7.939   8.553  10.522  1.0216  0.0514 -0.0774
  788MOL0     O 6293   7.913   8.628  10.248  0.5181  0.1972  0.2762
  788MOL0     C 6294   8.180   8.853  10.223 -0.6010  0.0449  1.1445
  788MOL0     C 6295   8.255   8.932  10.137  0.5884 -0.3133  0.0067
  788MOL0     N 6296   7.743   9.384   9.782 -1.0159 -0.2941 -0.5736
  788MOL0     N 6297   7.648   9.319   9.732 -0.0374  0.0935  0.0302
  788MOL0     C 6298   8.403   9.125   9.122  0.8258  0.0353  0.6059
  788MOL0     C 6299   8.542   9.137   9.153  0.3451  0.8267  0.4934
  788MOL0     C 6300   8.981   9.307   9.156  0.0136 -0.3390 -0.1443
  788MOL0     C 6301   8.987   9.235   9.279 -0.1227 -1.2970  0.3456
  788MOL0     C 6302   9.098   9.227   9.351 -0.2604 -0.9195 -0.0306
  788MOL0     C 6303   9.217   9.288   9.313  0.0535  0.1448 -0.0004
  788MOL0     O 6304   9.325   9.306   9.403  0.3921 -0.5326  0.3217
  788MOL0     C 6305   9.418   9.200   9.401 -0.5340  0.1476  0.2860
  788MOL0     C 6306   9.498   9.219   9.273 -0.2166  0.6316  0.2512
  788MOL0     C 6307   9.627   9.139   9.296 -0.7159 -0.1946  0.0189
  788MOL0     C 6308   9.679   9.054   9.176  0.8411  0.7120 -0.1033
  788MOL0     C 6309   9.565   8.960   9.126  0.2443 -0.7507 -0.0392
  788MOL0     C 6310   9.489   8.890   9.070 -0.2289  0.6004 -0.1222
  788MOL0     C 6311   9.226   9.354   9.192 -0.2794  0.8788  0.0681
  788MOL0     C 6312   9.107   9.370   9.118  1.1804 -0.2717  0.3051
  788MOL0     H 6313   8.652   9.291   8.882 -1.5331  0.8766 -1.3031
  788MOL0     H 6314   8.420   9.256   8.817 -1.7866 -0.8976  0.6408
  788MOL0     H 6315   8.125   9.081   9.131 -2.5204  0.8863  0.7851
  788MOL0     H 6316   8.159   9.255   9.123 -3.6672  1.7318 -1.2506
  788MOL0     H 6317   8.010   9.303   8.948  1.4143 -1.6430 -2.4647
  788MOL0     H 6318   7.975   9.133   8.927  1.7029  0.8800 -1.9823
  788MOL0     H 6319   7.886   9.313   9.154  1.4525 -0.2476  1.7120
  788MOL0     H 6320   7.783   9.223   9.048 -1.5278 -0.1932  1.1121
  788MOL0     H 6321   7.883   9.015   9.157  2.3639  0.0011 -2.4634
  788MOL0     H 6322   7.943   9.121   9.284  2.1944 -2.1712 -2.0280
  788MOL0     H 6323   7.654   9.046   9.184 -2.9836 -0.0801  2.2992
  788MOL0     H 6324   7.724   9.012   9.332 -1.1981 -0.6893 -0.2339
  788MOL0     H 6325   7.753   9.273   9.360  2.5354 -4.4112  2.8379
  788MOL0     H 6326   7.626   9.279   9.229  1.9382 -0.9021 -1.5901
  788MOL0     H 6327   7.523   9.315   9.438 -1.4350  0.3067 -1.8761
  788MOL0     H 6328   7.472   9.157   9.375  0.2561  1.1676 -3.9141
  788MOL0     H 6329   7.654   9.051   9.521 -2.3330 -1.1158 -1.1993
  788MOL0     H 6330   7.523   9.124   9.618 -1.8539  1.6841 -1.0442
  788MOL0     H 6331   7.899   9.210   9.559  1.4810  0.7701  1.0607
  788MOL0     H 6332   8.008   9.494   9.679 -0.6630  0.8594 -0.5602
  788MOL0     H 6333   7.976   9.455   9.849  1.7055  0.9158 -0.5322
  788MOL0     H 6334   8.196   9.396   9.744  1.8856 -1.2322  2.5174
  788MOL0     H 6335   8.111   9.259   9.652  0.7561 -1.0032  0.9923
  788MOL0     H 6336   8.036   9.179   9.884  1.8391 -2.8112 -1.2849
  788MOL0     H 6337   8.146   9.290   9.959  1.0140  0.6314 -1.2140
  788MOL0     H 6338   8.330   9.219   9.825  0.6087 -0.5818  1.4083
  788MOL0     H 6339   8.239   9.083   9.758  1.9626 -2.4335  1.6131
  788MOL0     H 6340   8.020   8.963   9.886 -0.8970 -1.6296 -0.7004
  788MOL0     H 6341   7.857   8.711   9.957 -2.8164 -2.4107  3.4073
  788MOL0     H 6342   7.789   8.797  10.091  0.4999  0.1329 -0.6740
  788MOL0     H 6343   7.827   8.891   9.943  0.9829  0.1834  0.5919
  788MOL0     H 6344   7.922   8.859  10.638 -1.4246 -0.1252 -2.9066
  788MOL0     H 6345   7.828   8.740  10.838  0.4232 -1.3681  0.4975
  788MOL0     H 6346   7.600   8.571  10.828  0.0178 -0.2437  0.3204
  788MOL0     H 6347   7.630   8.410  10.754 -2.4918  3.8963 -2.2885
  788MOL0     H 6348   7.619   8.306  10.984 -2.6513 -0.9584 -0.8660
  788MOL0     H 6349   7.607   8.477  11.047  0.4966  1.1722 -0.7685
  788MOL0     H 6350   7.381   8.490  10.981  0.9562  0.9051 -1.4789
  788MOL0     H 6351   7.404   8.344  11.069  0.0296  1.7299  1.1465
  788MOL0     H 6352   7.388   8.354  10.758  1.2560 -0.2391  0.0063
  788MOL0     H 6353   7.418   8.218  10.849  1.4927  1.4392 -1.9611
  788MOL0     H 6354   7.211   8.211  10.968 -1.1867 -0.4426 -0.2900
  788MOL0     H 6355   7.207   8.199  10.788  0.5613 -0.0289 -0.1677
  788MOL0     H 6356   7.033   8.349  10.900 -0.7548  0.8827 -1.0017
  788MOL0     H 6357   7.166   8.472  10.914  5.4469 -0.4280 -1.6085
  788MOL0     H 6358   7.079   8.345  10.657  0.0871  1.4597 -1.8413
  788MOL0     H 6359   7.212   8.445  10.668  0.9018  0.3078  0.6588
  788MOL0     H 6360   7.047   8.592  10.589  0.4727 -2.2168 -0.9063
  788MOL0     H 6361   7.046   8.635  10.756 -1.5924 -0.7267  2.1954
  788MOL0     H 6362   7.894   8.373  10.626 -1.5730  0.7107 -0.6488
  788MOL0     H 6363   7.965   8.494  10.434 -0.2106 -1.9631  0.8237
  788MOL0     H 6364   8.228   8.814  10.311 -1.8741 -2.2028  0.9022
  788MOL0     H 6365   8.353   8.972  10.161  0.4267  1.4611 -2.0104
  788MOL0     H 6366   8.345   9.072   9.197  1.2852  0.0673  0.9909
  788MOL0     H 6367   8.578   9.096   9.247 -0.4908  0.0286  0.4728
  788MOL0     H 6368   8.896   9.196   9.323 -0.5539 -1.0154 -0.2739
  788MOL0     H 6369   9.099   9.183   9.450  4.0744  0.4571  0.7526
  788MOL0     H 6370   9.475   9.218   9.493  2.4301  2.5894 -1.7944
  788MOL0     H 6371   9.366   9.105   9.389 -0.8108  0.4310 -0.8317
  788MOL0     H 6372   9.523   9.325   9.261  1.6662  0.1040 -0.7960
  788MOL0     H 6373   9.447   9.192   9.180 -1.5189  3.1347  0.1537
  788MOL0     H 6374   9.606   9.071   9.379  1.3029 -0.5764  0.2768
  788MOL0     H 6375   9.709   9.204   9.328 -0.4577  0.5769 -2.0689
  788MOL0     H 6376   9.767   8.993   9.199  0.6233 -0.0942 -1.3357
  788MOL0     H 6377   9.718   9.116   9.095  2.9326 -2.9632 -2.2095
  788MOL0     H 6378   9.424   8.816   9.028  1.0739 -0.2022 -0.7714
  788MOL0     H 6379   9.323   9.388   9.155 -0.9190  1.6077 -0.9814
  788MOL0     H 6380   9.115   9.414   9.019 -2.5763  1.4093  0.5649
  789MOL0     O 6381   0.458   3.839   8.259  0.1201  0.3543 -0.2329
  789MOL0     C 6382   0.477   3.717   8.269 -0.6452 -0.8680 -0.6300
  789MOL0     O 6383   0.383   3.625   8.301  0.2657 -0.0312  0.6334
  789MOL0     C 6384   0.262   3.680   8.352 -0.9090 -0.1951  0.1018
  789MOL0     C 6385   0.137   3.623   8.318 -0.4926  0.3637  0.4207
  789MOL0     C 6386   0.018   3.661   8.378  0.4029  0.5806  0.1266
  789MOL0     C 6387   0.018   3.756   8.476  0.4976 -0.2240 -0.4877
  789MOL0     O 6388  -0.106   3.791   8.522  0.5546  0.1194  0.5617
  789MOL0     C 6389  -0.121   3.819   8.655 -0.3525 -1.2997  0.0550
  789MOL0     C 6390  -0.277   3.795   8.690 -1.1052  0.3653  0.5362
  789MOL0     C 6391  -0.311   3.660   8.643  1.1026  0.5620  0.3926
  789MOL0     C 6392  -0.457   3.606   8.667 -0.3141  0.6821  0.0178
  789MOL0     C 6393  -0.476   3.469   8.596  0.4627 -0.4551  0.2173
  789MOL0     C 6394  -0.609   3.406   8.638 -0.2336  0.2128 -0.7100
  789MOL0     C 6395  -0.644   3.271   8.565  0.0679 -0.6692 -0.2387
  789MOL0     C 6396  -0.765   3.219   8.634 -0.5176  0.1909 -0.0701
  789MOL0     N 6397  -0.795   3.082   8.593  0.0968 -0.6475 -0.1408
  789MOL0     C 6398  -0.851   3.058   8.471  0.4000 -0.7299 -0.0744
  789MOL0     C 6399  -0.861   2.921   8.469 -0.4637  0.0457  0.6156
  789MOL0     C 6400  -0.914   2.848   8.348 -0.0328 -0.7829 -0.8087
  789MOL0     C 6401  -0.937   2.697   8.374 -0.6217 -0.0146 -0.4773
  789MOL0     C 6402  -0.997   2.645   8.506 -0.1219  0.1689 -0.0551
  789MOL0     C 6403  -1.117   2.736   8.547  0.1132 -0.0191 -0.5706
  789MOL0     O 6404  -1.205   2.766   8.435 -0.3908 -0.2369  0.2254
  789MOL0     C 6405  -1.289   2.661   8.404  0.3862  0.0362  0.1540
  789MOL0     C 6406  -1.347   2.675   8.274 -1.0092  0.5122 -0.5535
  789MOL0     C 6407  -1.431   2.583   8.222  0.4391  0.6197  1.2711
  789MOL0     C 6408  -1.498   2.624   8.095  0.3608 -0.6557  0.3921
  789MOL0     C 6409  -1.455   2.457   8.284  1.2190 -0.1446 -0.0766
  789MOL0     C 6410  -1.532   2.341   8.224 -0.3721 -0.3232 -0.4742
  789MOL0     O 6411  -1.548   2.343   8.090 -0.6276 -0.2894 -0.3162
  789MOL0     C 6412  -1.565   2.227   8.022  0.3749  0.3399 -0.8117
  789MOL0     C 6413  -1.493   2.224   7.905  0.1284 -0.8867  0.4009
  789MOL0     C 6414  -1.500   2.111   7.823  0.6067 -0.9912 -0.5882
  789MOL0     C 6415  -1.591   2.006   7.867  0.2991  0.5230 -0.2844
  789MOL0     O 6416  -1.594   1.887   7.802  0.6871 -0.6352  0.1877
  789MOL0     C 6417  -1.590   1.905   7.662 -0.2307  0.7717  0.3067
  789MOL0     C 6418  -1.604   1.759   7.590  0.1179 -0.9663 -0.9328
  789MOL0     C 6419  -1.475   1.686   7.595  0.3742  0.7795 -0.2359
  789MOL0     C 6420  -1.362   1.743   7.516  1.0192  0.3154  0.6743
  789MOL0     C 6421  -1.252   1.658   7.484  0.1749  0.4399  0.3514
  789MOL0     C 6422  -1.162   1.638   7.604 -0.4803  0.5212 -0.8429
  789MOL0     C 6423  -1.016   1.590   7.558  1.4419 -0.6394  0.3378
  789MOL0     C 6424  -1.012   1.441   7.594 -0.5632 -0.0817 -0.6314
  789MOL0    Cl 6425  -0.847   1.406   7.579 -0.0270 -0.2996 -0.1711
  789MOL0     C 6426  -1.676   2.024   7.977 -0.1764  0.0830 -0.1294
  789MOL0     C 6427  -1.663   2.133   8.054  0.3153  0.3800  0.2064
  789MOL0     O 6428  -1.563   2.247   8.298 -0.2687  0.7741  0.4244
  789MOL0     C 6429  -1.401   2.443   8.413 -1.2881 -0.1430 -0.0456
  789MOL0     C 6430  -1.318   2.540   8.474 -0.8583 -0.8308  0.1679
  789MOL0     N 6431  -0.799   2.865   8.578 -0.1651 -0.8216  0.3877
  789MOL0     N 6432  -0.761   2.967   8.651  0.2248  0.1746  0.0777
  789MOL0     C 6433   0.139   3.809   8.522 -0.4357  0.4275  0.0440
  789MOL0     C 6434   0.261   3.776   8.453 -0.1778  0.0400 -0.0146
  789MOL0     C 6435   0.612   3.668   8.244 -0.1577  0.2051 -0.2970
  789MOL0     C 6436   0.723   3.755   8.200  0.0361 -0.0148  0.0956
  789MOL0     C 6437   0.844   3.698   8.169  0.4148  0.1371 -0.3751
  789MOL0     C 6438   0.867   3.561   8.191  0.4419  0.4943  0.3948
  789MOL0     O 6439   0.992   3.506   8.158 -0.0497 -0.4840  0.0152
  789MOL0     C 6440   1.120   3.569   8.198 -0.2628  0.7695  0.1889
  789MOL0     C 6441   1.205   3.592   8.076 -0.3914 -0.7470 -0.1382
  789MOL0     C 6442   1.127   3.647   7.953  0.2676  0.4959 -0.5877
  789MOL0     C 6443   1.223   3.650   7.843 -0.3824  0.6772  0.4372
  789MOL0     C 6444   1.174   3.687   7.709  0.1510  0.3216  0.2733
  789MOL0     C 6445   1.143   3.731   7.599  0.6838 -0.3857 -0.3864
  789MOL0     C 6446   0.774   3.475   8.254 -0.5980 -0.1773 -0.9465
  789MOL0     C 6447   0.646   3.532   8.267 -0.1381 -0.9455  0.3813
  789MOL0     H 6448   0.125   3.548   8.240 -2.2092  0.4874  0.5290
  789MOL0     H 6449  -0.082   3.625   8.356  0.4821  0.7564 -0.5136
  789MOL0     H 6450  -0.065   3.753   8.723 -1.0955  1.2554  3.3910
  789MOL0     H 6451  -0.094   3.921   8.684 -1.6181 -1.5752  2.4167
  789MOL0     H 6452  -0.279   3.793   8.799  2.5189  1.0785  0.7639
  789MOL0     H 6453  -0.340   3.876   8.653 -0.1515  0.9214  0.0716
  789MOL0     H 6454  -0.275   3.646   8.541 -2.1469  0.7129 -0.8816
  789MOL0     H 6455  -0.244   3.592   8.697 -0.0554  1.7767  3.6289
  789MOL0     H 6456  -0.462   3.584   8.774 -4.3993  2.4520  0.3917
  789MOL0     H 6457  -0.536   3.677   8.640 -0.5168  0.0430 -1.0996
  789MOL0     H 6458  -0.468   3.474   8.487  1.5359 -0.5105  0.2747
  789MOL0     H 6459  -0.397   3.399   8.625  1.0571 -1.0693 -2.6406
  789MOL0     H 6460  -0.603   3.388   8.746 -2.3439 -2.1509 -0.8900
  789MOL0     H 6461  -0.682   3.485   8.621 -0.5384 -0.4935 -2.9960
  789MOL0     H 6462  -0.659   3.292   8.458 -0.7638  2.2201  0.3515
  789MOL0     H 6463  -0.568   3.193   8.569  0.9133  0.0353 -1.6753
  789MOL0     H 6464  -0.843   3.291   8.609  0.4678  2.7603  3.4660
  789MOL0     H 6465  -0.746   3.220   8.741  4.6638  1.2721 -0.7162
  789MOL0     H 6466  -0.894   3.126   8.398 -3.2310 -1.4453  1.1461
  789MOL0     H 6467  -1.004   2.898   8.310 -0.0956 -1.3623 -1.4535
  789MOL0     H 6468  -0.835   2.842   8.272  1.0699  2.2059 -0.0476
  789MOL0     H 6469  -0.842   2.644   8.375 -0.2102  0.7097  0.4567
  789MOL0     H 6470  -1.011   2.664   8.300 -0.8209  2.2536 -1.3702
  789MOL0     H 6471  -0.915   2.665   8.576  0.1309  1.7578 -0.7696
  789MOL0     H 6472  -1.024   2.539   8.509  0.6975 -0.1008  4.0521
  789MOL0     H 6473  -1.093   2.834   8.588  3.9116  0.1798 -2.8346
  789MOL0     H 6474  -1.170   2.683   8.628 -0.0941 -0.2584 -0.8598
  789MOL0     H 6475  -1.321   2.757   8.208 -0.2526  0.1999 -0.6500
  789MOL0     H 6476  -1.453   2.708   8.041 -3.3185  1.6879  0.6363
  789MOL0     H 6477  -1.488   2.548   8.016 -1.5095 -1.7909  1.1521
  789MOL0     H 6478  -1.605   2.640   8.114  0.1573  1.2901 -1.8755
  789MOL0     H 6479  -1.433   2.311   7.877  0.5987 -0.7583  1.7576
  789MOL0     H 6480  -1.436   2.105   7.736  0.9647  3.1100 -0.8004
  789MOL0     H 6481  -1.684   1.948   7.627 -2.4093 -1.9121  2.4573
  789MOL0     H 6482  -1.506   1.964   7.622  0.3311 -0.0827  0.1943
  789MOL0     H 6483  -1.677   1.699   7.644  0.1199  0.8825  1.2932
  789MOL0     H 6484  -1.631   1.772   7.485  0.8478  1.0393 -0.9167
  789MOL0     H 6485  -1.486   1.580   7.569  2.7354  0.3325  0.3086
  789MOL0     H 6486  -1.452   1.692   7.702 -1.3418  0.2401  0.1972
  789MOL0     H 6487  -1.401   1.775   7.418  1.1126  1.8258  1.1001
  789MOL0     H 6488  -1.329   1.829   7.574  1.0566  1.5982 -1.1571
  789MOL0     H 6489  -1.193   1.709   7.408  0.2797  0.4381  0.4315
  789MOL0     H 6490  -1.284   1.560   7.445  3.1296 -0.5669  0.2057
  789MOL0     H 6491  -1.147   1.728   7.664 -0.9878 -1.0498  1.7560
  789MOL0     H 6492  -1.193   1.556   7.669  1.6706 -0.6209 -1.1427
  789MOL0     H 6493  -0.939   1.637   7.620  0.9172 -2.5870  2.6435
  789MOL0     H 6494  -0.992   1.591   7.452  0.0447 -0.6679 -0.0009
  789MOL0     H 6495  -1.073   1.381   7.526 -0.8426 -1.9525  1.2015
  789MOL0     H 6496  -1.050   1.419   7.694  0.6019  2.5631  0.4944
  789MOL0     H 6497  -1.733   1.934   7.998  0.5281 -1.0099 -2.5509
  789MOL0     H 6498  -1.720   2.145   8.146  0.5363 -0.8078  0.5042
  789MOL0     H 6499  -1.422   2.355   8.473 -0.1382 -0.0495  0.5257
  789MOL0     H 6500  -1.286   2.520   8.576 -3.2236  0.7038  1.3252
  789MOL0     H 6501   0.127   3.880   8.603 -1.1443  0.6930 -0.2796
  789MOL0     H 6502   0.355   3.821   8.486 -0.1362 -0.0568 -0.0007
  789MOL0     H 6503   0.696   3.861   8.198  1.0437  0.2475 -0.0227
  789MOL0     H 6504   0.917   3.772   8.138  0.6193 -0.4309 -1.2808
  789MOL0     H 6505   1.101   3.664   8.247  1.1702  0.9403  0.4556
  789MOL0     H 6506   1.183   3.509   8.264  2.1399  1.3628 -1.4595
  789MOL0     H 6507   1.255   3.497   8.055  1.2596  0.1267 -0.3269
  789MOL0     H 6508   1.285   3.665   8.089 -1.4945  1.1746 -3.0414
  789MOL0     H 6509   1.112   3.755   7.963  0.3532  0.4031  0.7425
  789MOL0     H 6510   1.032   3.596   7.933 -0.4378  1.9421 -1.1454
  789MOL0     H 6511   1.280   3.557   7.840 -1.5533 -0.0706  0.7671
  789MOL0     H 6512   1.300   3.726   7.859  2.2804 -1.7265 -0.0935
  789MOL0     H 6513   1.115   3.781   7.508  1.0332  3.4748  1.4725
  789MOL0     H 6514   0.812   3.378   8.285  2.5448 -0.0255 -3.7757
  789MOL0     H 6515   0.568   3.462   8.296  0.6682 -2.1417 -0.2108
  790MOL0     O 6516   1.204   3.192   6.957  0.4342 -0.4297  0.3060
  790MOL0     C 6517   1.307   3.217   6.892  0.5859 -0.4901 -0.8704
  790MOL0     O 6518   1.320   3.276   6.768  0.5887  0.8554  0.4302
  790MOL0     C 6519   1.210   3.348   6.705 -0.2076  0.0638  0.5083
  790MOL0     C 6520   1.081   3.381   6.764 -0.1248 -0.4399 -0.3804
  790MOL0     C 6521   0.981   3.441   6.697  0.5930  0.1409 -0.0010
  790MOL0     C 6522   1.019   3.492   6.574 -0.4305  0.9446 -0.0412
  790MOL0     O 6523   0.908   3.546   6.528 -0.5649 -0.1126  0.9744
  790MOL0     C 6524   0.914   3.596   6.388  0.0524  0.0035 -0.9175
  790MOL0     C 6525   0.781   3.669   6.355 -0.2794 -0.2168  0.6393
  790MOL0     C 6526   0.797   3.740   6.215  0.2711  0.1742  0.8622
  790MOL0     C 6527   0.778   3.638   6.095  0.3647  0.1007 -0.0108
  790MOL0     C 6528   0.636   3.569   6.083 -0.1812 -0.3942  0.4612
  790MOL0     C 6529   0.517   3.661   6.083 -0.4000 -0.3001 -0.0430
  790MOL0     C 6530   0.382   3.583   6.055 -0.7182 -0.8093 -0.6395
  790MOL0     C 6531   0.324   3.514   6.175  0.1394 -0.7535  0.2328
  790MOL0     N 6532   0.193   3.452   6.146 -0.4919 -0.6413 -0.2275
  790MOL0     C 6533   0.170   3.328   6.096 -0.0509  0.8308 -0.5075
  790MOL0     C 6534   0.038   3.317   6.080 -0.3294 -0.7841 -0.3267
  790MOL0     C 6535  -0.038   3.201   6.033  0.2316 -0.3425 -0.0483
  790MOL0     C 6536  -0.044   3.087   6.136  0.4957 -0.2217 -0.0974
  790MOL0     C 6537  -0.122   2.962   6.077  0.2369 -0.4610 -0.0308
  790MOL0     C 6538  -0.122   2.837   6.166 -0.0759 -0.3157 -0.3504
  790MOL0     O 6539  -0.230   2.847   6.260 -0.0924 -0.7689 -0.1473
  790MOL0     C 6540  -0.347   2.783   6.244  0.3859  0.2806  0.0365
  790MOL0     C 6541  -0.376   2.660   6.170 -0.3031 -0.7005  0.2418
  790MOL0     C 6542  -0.508   2.608   6.168  0.4330  0.2667  0.4656
  790MOL0     C 6543  -0.534   2.487   6.081  0.7165 -0.9776 -0.2655
  790MOL0     C 6544  -0.615   2.679   6.224  0.1406  0.5841 -0.0446
  790MOL0     C 6545  -0.756   2.635   6.213 -0.3955  0.1311 -0.0472
  790MOL0     O 6546  -0.851   2.735   6.202 -0.1451 -0.2933  1.0088
  790MOL0     C 6547  -0.986   2.710   6.198  0.9046  0.1375 -0.1506
  790MOL0     C 6548  -1.061   2.782   6.107  0.4677  0.1759  0.5769
  790MOL0     C 6549  -1.202   2.781   6.110 -0.4018  0.2195  0.8575
  790MOL0     C 6550  -1.264   2.702   6.196 -0.2090 -0.0638 -0.6934
  790MOL0     O 6551  -1.399   2.707   6.204 -0.7609 -0.0510 -0.2595
  790MOL0     C 6552  -1.468   2.596   6.259 -0.1192 -0.1136  0.1488
  790MOL0     C 6553  -1.618   2.591   6.201 -0.5723 -0.2865  0.0196
  790MOL0     C 6554  -1.712   2.685   6.286 -0.4543  0.0547 -0.6894
  790MOL0     C 6555  -1.863   2.676   6.239 -0.2148  0.8708  1.2440
  790MOL0     C 6556  -1.955   2.744   6.335  0.3631 -0.1713  0.3045
  790MOL0     C 6557  -1.933   2.903   6.329 -1.1976  0.9690 -0.5667
  790MOL0     C 6558  -2.050   2.971   6.379 -0.7710 -0.1182 -1.2731
  790MOL0     C 6559  -2.119   2.920   6.510 -0.4821 -0.8433  0.1795
  790MOL0    Cl 6560  -2.003   2.876   6.636 -0.4117  0.0843  0.2236
  790MOL0     C 6561  -1.184   2.618   6.281  0.8206 -0.4145  1.0127
  790MOL0     C 6562  -1.046   2.624   6.286 -0.1349 -0.3417 -0.6409
  790MOL0     O 6563  -0.783   2.519   6.201 -0.7971  0.2380  0.7896
  790MOL0     C 6564  -0.587   2.805   6.285 -0.2658 -0.5213 -0.5880
  790MOL0     C 6565  -0.457   2.847   6.306 -0.0996  0.1847 -0.0841
  790MOL0     N 6566  -0.021   3.443   6.117  0.5929  0.1186 -0.5206
  790MOL0     N 6567   0.073   3.515   6.159  0.4798  0.2273 -0.6109
  790MOL0     C 6568   1.141   3.464   6.505  0.1427  0.7307 -0.7347
  790MOL0     C 6569   1.237   3.393   6.583 -0.1106 -0.4025  0.0671
  790MOL0     C 6570   1.430   3.185   6.967  1.1562  0.3965 -0.3315
  790MOL0     C 6571   1.559   3.222   6.917  0.2434 -0.4216  0.8097
  790MOL0     C 6572   1.674   3.157   6.973 -0.4803  0.4105  0.2788
  790MOL0     C 6573   1.667   3.100   7.099 -0.8350  1.0481  0.4193
  790MOL0     O 6574   1.775   3.048   7.174 -0.1300  0.1221 -0.1312
  790MOL0     C 6575   1.908   3.075   7.143  0.2275 -0.1351  0.5080
  790MOL0     C 6576   1.990   3.032   7.258  0.7979  0.7745 -0.4798
  790MOL0     C 6577   2.131   3.081   7.228 -0.6152 -0.1966  0.5446
  790MOL0     C 6578   2.227   3.040   7.340 -0.6397  0.2073  0.7133
  790MOL0     C 6579   2.240   2.896   7.346  1.2319 -0.4954 -0.5192
  790MOL0     C 6580   2.249   2.778   7.357  1.0597 -0.0398 -0.3435
  790MOL0     C 6581   1.543   3.085   7.161 -0.1320 -0.5685  0.5451
  790MOL0     C 6582   1.427   3.126   7.094 -0.6066  0.6330  0.2493
  790MOL0     H 6583   1.057   3.341   6.863  2.0840  0.8250  0.7455
  790MOL0     H 6584   0.879   3.445   6.733  1.6238 -1.1617  3.5186
  790MOL0     H 6585   1.000   3.661   6.371 -0.9607  1.0059 -2.4855
  790MOL0     H 6586   0.932   3.516   6.316  2.6818  0.3091 -0.6924
  790MOL0     H 6587   0.691   3.606   6.359 -0.5000 -0.4266 -3.1404
  790MOL0     H 6588   0.772   3.745   6.432 -2.0946 -1.1369  1.4014
  790MOL0     H 6589   0.725   3.822   6.223  1.4766  1.3075  0.4002
  790MOL0     H 6590   0.895   3.787   6.205  1.0005 -1.6846 -1.7864
  790MOL0     H 6591   0.789   3.700   6.006  1.2380  0.1360  0.1125
  790MOL0     H 6592   0.852   3.558   6.096 -0.7339 -0.9449  0.8762
  790MOL0     H 6593   0.635   3.501   5.997 -0.6604 -0.6099  0.6320
  790MOL0     H 6594   0.623   3.507   6.173  0.1485 -1.1438  0.0038
  790MOL0     H 6595   0.528   3.729   6.168  2.3189 -1.5557  0.7224
  790MOL0     H 6596   0.526   3.726   5.996  1.7533 -0.2313  0.1758
  790MOL0     H 6597   0.301   3.653   6.030 -1.4923 -0.8175  1.6084
  790MOL0     H 6598   0.393   3.506   5.978 -1.6261  1.9935 -3.8257
  790MOL0     H 6599   0.311   3.592   6.250  0.8737  0.3168 -0.7158
  790MOL0     H 6600   0.392   3.431   6.197  1.3259 -0.2189 -1.2086
  790MOL0     H 6601   0.245   3.250   6.086 -0.7766 -0.0449  0.6402
  790MOL0     H 6602  -0.142   3.223   6.009 -0.5770 -1.2562  2.3544
  790MOL0     H 6603   0.008   3.163   5.941  2.9269 -0.8519  1.3922
  790MOL0     H 6604  -0.085   3.120   6.232 -2.0961 -0.2422 -1.1324
  790MOL0     H 6605   0.059   3.051   6.148 -0.0803 -2.0236 -0.3522
  790MOL0     H 6606  -0.087   2.943   5.974  1.0777 -1.7261  0.4589
  790MOL0     H 6607  -0.221   3.009   6.077  1.2424  1.8432 -0.9644
  790MOL0     H 6608  -0.027   2.826   6.219 -1.0084  1.9606  1.9905
  790MOL0     H 6609  -0.138   2.749   6.102 -0.2977  1.3227 -2.6686
  790MOL0     H 6610  -0.298   2.621   6.105 -0.2677 -0.4827  0.1504
  790MOL0     H 6611  -0.445   2.452   6.028  1.0295 -0.6636  0.0494
  790MOL0     H 6612  -0.566   2.399   6.137  0.4628 -0.0014  1.1805
  790MOL0     H 6613  -0.607   2.506   6.002 -0.8182 -1.0349  1.0924
  790MOL0     H 6614  -1.012   2.843   6.031  3.9326 -2.9022  0.0604
  790MOL0     H 6615  -1.244   2.852   6.038  2.2370  0.1813 -0.8754
  790MOL0     H 6616  -1.421   2.503   6.228  2.1552  1.2572 -0.7906
  790MOL0     H 6617  -1.470   2.620   6.366 -0.3244  5.0280 -0.7466
  790MOL0     H 6618  -1.627   2.616   6.095 -2.1750 -1.0247 -0.0423
  790MOL0     H 6619  -1.665   2.493   6.208 -0.7839 -0.2058 -0.2313
  790MOL0     H 6620  -1.672   2.786   6.298 -0.3762 -0.2826  2.9615
  790MOL0     H 6621  -1.705   2.641   6.386  0.4608 -0.5986 -1.0245
  790MOL0     H 6622  -1.872   2.733   6.146 -1.9558 -2.4260 -0.7908
  790MOL0     H 6623  -1.899   2.575   6.221 -0.6633  1.2029  0.2152
  790MOL0     H 6624  -1.935   2.712   6.438  1.2797 -1.3741 -0.2133
  790MOL0     H 6625  -2.050   2.727   6.284  0.5228 -2.0089  0.5489
  790MOL0     H 6626  -1.845   2.932   6.387  0.1769  0.7296 -2.4199
  790MOL0     H 6627  -1.919   2.930   6.224  0.1351  1.4452 -0.2771
  790MOL0     H 6628  -2.124   2.959   6.299 -0.1087  0.8233 -2.0604
  790MOL0     H 6629  -2.021   3.076   6.393  2.6760 -1.3315  2.8249
  790MOL0     H 6630  -2.176   2.828   6.494 -0.6006 -0.6094 -0.8680
  790MOL0     H 6631  -2.182   3.004   6.540 -0.8545 -0.8060 -0.6720
  790MOL0     H 6632  -1.231   2.550   6.351  0.5262 -1.2583  0.0205
  790MOL0     H 6633  -0.993   2.562   6.357  0.9347  1.2660  0.0360
  790MOL0     H 6634  -0.665   2.869   6.324 -0.7733 -2.7743  2.4657
  790MOL0     H 6635  -0.440   2.932   6.371  1.2222 -0.6868  0.7639
  790MOL0     H 6636   1.152   3.497   6.402 -3.3173  1.3265 -1.0139
  790MOL0     H 6637   1.326   3.360   6.530  1.1135  2.9495 -0.2229
  790MOL0     H 6638   1.566   3.268   6.819 -1.1887 -1.2784  0.2745
  790MOL0     H 6639   1.769   3.149   6.921 -1.9847 -0.4725 -2.6003
  790MOL0     H 6640   1.946   3.027   7.052  0.9494 -0.2161  0.8468
  790MOL0     H 6641   1.918   3.183   7.124 -0.5067 -0.0938  0.3128
  790MOL0     H 6642   1.986   2.923   7.259 -2.4191  0.7781 -0.7649
  790MOL0     H 6643   1.950   3.068   7.353 -0.6352 -2.2674  0.1838
  790MOL0     H 6644   2.140   3.185   7.195 -2.1968 -0.0965  0.3710
  790MOL0     H 6645   2.159   3.015   7.146 -3.1119  0.1863 -0.7033
  790MOL0     H 6646   2.184   3.067   7.437 -4.3934 -0.3018 -0.6339
  790MOL0     H 6647   2.324   3.090   7.335  0.8837 -2.2823  2.6862
  790MOL0     H 6648   2.247   2.672   7.365 -1.9361 -0.0304  0.1531
  790MOL0     H 6649   1.530   3.027   7.252 -3.0274 -1.3750 -0.2628
  790MOL0     H 6650   1.328   3.093   7.127 -1.1515  0.0150 -1.8501
  791MOL0     O 6651  10.840   2.140  10.285 -0.7836  0.4125 -0.5219
  791MOL0     C 6652  10.830   2.090  10.396 -0.4351 -0.2834  0.6089
  791MOL0     O 6653  10.748   1.987  10.428  0.5747  0.4455  0.1522
  791MOL0     C 6654  10.663   1.930  10.333 -0.3046  0.0603 -0.8584
  791MOL0     C 6655  10.667   1.788  10.311 -0.1699 -0.8976  0.6086
  791MOL0     C 6656  10.601   1.736  10.197  0.6534 -0.3106  0.2211
  791MOL0     C 6657  10.515   1.817  10.115  0.1477  0.9933 -0.6408
  791MOL0     O 6658  10.444   1.768  10.008 -0.2691 -0.7264 -0.8108
  791MOL0     C 6659  10.471   1.836   9.892  0.0785  0.3790 -0.2004
  791MOL0     C 6660  10.378   1.774   9.789  1.1302 -0.7494  0.1777
  791MOL0     C 6661  10.234   1.838   9.814  0.2577  0.2648  0.6853
  791MOL0     C 6662  10.136   1.759   9.724  0.3093  0.3825 -0.2469
  791MOL0     C 6663   9.993   1.789   9.764 -1.0065  0.6299 -0.0712
  791MOL0     C 6664   9.899   1.751   9.645 -0.3429  0.1439 -0.2456
  791MOL0     C 6665   9.749   1.770   9.691  0.0403  0.0002  0.5070
  791MOL0     C 6666   9.654   1.752   9.572  0.8004 -0.7777  0.4678
  791MOL0     N 6667   9.517   1.785   9.591 -0.1958 -1.2333  0.1430
  791MOL0     C 6668   9.473   1.912   9.600  0.1884  1.0787  0.6489
  791MOL0     C 6669   9.346   1.908   9.641  0.5002 -0.0124  0.0616
  791MOL0     C 6670   9.258   2.033   9.655 -0.2945 -0.0294 -0.3401
  791MOL0     C 6671   9.148   2.023   9.766  0.1395 -0.2013  0.7548
  791MOL0     C 6672   9.019   1.942   9.720 -0.1852 -0.5389  0.0670
  791MOL0     C 6673   8.918   1.924   9.836  0.6251  0.1824  0.4568
  791MOL0     O 6674   8.819   1.822   9.802 -0.1603  0.1256  0.4226
  791MOL0     C 6675   8.717   1.801   9.885 -0.2622  0.2358  0.2337
  791MOL0     C 6676   8.618   1.715   9.850  1.1599 -0.8441  0.3506
  791MOL0     C 6677   8.513   1.685   9.931  1.3725 -0.5597 -0.2719
  791MOL0     C 6678   8.410   1.602   9.863  0.1350  0.2850  0.0564
  791MOL0     C 6679   8.491   1.746  10.062 -0.7510 -0.2646 -0.2356
  791MOL0     C 6680   8.377   1.724  10.160 -0.5204 -0.1904  1.0331
  791MOL0     O 6681   8.381   1.789  10.282 -0.1119  0.5607  0.1001
  791MOL0     C 6682   8.268   1.768  10.361  0.0934  0.4603 -0.7290
  791MOL0     C 6683   8.195   1.887  10.394  0.1690 -0.0136 -0.6879
  791MOL0     C 6684   8.082   1.878  10.481 -0.5318 -0.7460 -1.0044
  791MOL0     C 6685   8.040   1.752  10.516  0.3393  0.2788 -0.5620
  791MOL0     O 6686   7.940   1.748  10.609 -0.3201 -0.4184 -0.4240
  791MOL0     C 6687   7.820   1.702  10.545 -0.6805 -0.2280 -0.0447
  791MOL0     C 6688   7.705   1.777  10.611 -0.4771  0.9571 -0.5490
  791MOL0     C 6689   7.562   1.748  10.575 -0.2255 -0.5790 -0.2495
  791MOL0     C 6690   7.522   1.602  10.571  1.1069  0.7324  0.9214
  791MOL0     C 6691   7.364   1.567  10.578  0.2109 -0.0148 -0.7065
  791MOL0     C 6692   7.306   1.600  10.714  1.0982 -0.2159 -0.7130
  791MOL0     C 6693   7.169   1.530  10.733 -0.3676  0.7017  0.4460
  791MOL0     C 6694   7.189   1.396  10.796  0.7945 -0.2233 -0.1673
  791MOL0    Cl 6695   7.036   1.319  10.836  0.2393 -0.2319  0.2812
  791MOL0     C 6696   8.123   1.633  10.489  0.4800  0.1438 -1.0865
  791MOL0     C 6697   8.238   1.644  10.411 -0.9051 -0.2238 -0.0197
  791MOL0     O 6698   8.294   1.646  10.124 -0.0434  0.0637  0.6191
  791MOL0     C 6699   8.591   1.835  10.100 -0.2040  0.2038 -0.5814
  791MOL0     C 6700   8.693   1.866  10.008 -0.4384 -0.2903 -0.5603
  791MOL0     N 6701   9.314   1.774   9.660 -0.5909 -0.2554  0.6562
  791MOL0     N 6702   9.423   1.708   9.639  0.7593  0.4098  0.4790
  791MOL0     C 6703  10.508   1.946  10.146  0.0124  0.1064  0.2655
  791MOL0     C 6704  10.578   2.001  10.255 -0.0038  0.9003  0.5550
  791MOL0     C 6705  10.934   2.126  10.497 -1.4979 -0.0459  0.7887
  791MOL0     C 6706  10.934   2.072  10.625  0.3713 -0.2620 -0.7982
  791MOL0     C 6707  11.026   2.121  10.723 -0.0421 -0.1976  0.5586
  791MOL0     C 6708  11.126   2.217  10.696  0.4851 -0.3448  0.1177
  791MOL0     O 6709  11.231   2.257  10.778  0.1830  0.0092 -0.2412
  791MOL0     C 6710  11.322   2.159  10.798  0.6681 -0.6881 -0.2117
  791MOL0     C 6711  11.429   2.214  10.880 -0.3871  0.2411  0.2844
  791MOL0     C 6712  11.392   2.232  11.026 -0.4830  0.2098 -0.3939
  791MOL0     C 6713  11.464   2.342  11.096  0.7752  0.1776 -0.1217
  791MOL0     C 6714  11.609   2.328  11.125  0.3718 -0.4081  0.2035
  791MOL0     C 6715  11.730   2.326  11.108  0.5755  0.1286 -0.3372
  791MOL0     C 6716  11.124   2.261  10.569 -0.4094 -0.6377  0.1834
  791MOL0     C 6717  11.028   2.234  10.469 -0.2021  1.0902 -0.4017
  791MOL0     H 6718  10.720   1.722  10.379 -2.6631 -2.4435  1.1699
  791MOL0     H 6719  10.596   1.629  10.179  1.0271 -0.6219  1.7724
  791MOL0     H 6720  10.466   1.945   9.886  0.3235  0.3496 -1.1585
  791MOL0     H 6721  10.572   1.811   9.858  0.1086  0.0662  0.1104
  791MOL0     H 6722  10.419   1.800   9.691  0.7771 -1.3350 -0.1269
  791MOL0     H 6723  10.374   1.665   9.791  3.1087 -0.8648 -0.1352
  791MOL0     H 6724  10.202   1.828   9.918 -2.5050 -0.2966 -0.1404
  791MOL0     H 6725  10.255   1.942   9.791 -0.2612 -0.1591 -2.0869
  791MOL0     H 6726  10.170   1.781   9.622  4.4616 -0.5543  0.7573
  791MOL0     H 6727  10.152   1.653   9.743 -1.5851  0.2292  0.6682
  791MOL0     H 6728   9.978   1.726   9.852  0.2731 -1.4499 -1.2553
  791MOL0     H 6729   9.977   1.895   9.783  0.2354  1.3449 -2.5969
  791MOL0     H 6730   9.924   1.809   9.556 -2.3159  1.1479 -0.2090
  791MOL0     H 6731   9.912   1.644   9.628  1.8478  0.2631  0.4243
  791MOL0     H 6732   9.722   1.707   9.776 -1.3997  0.6288  0.5361
  791MOL0     H 6733   9.731   1.872   9.723 -0.7413  0.2095 -0.5280
  791MOL0     H 6734   9.647   1.644   9.556 -2.5398 -0.7485  1.0414
  791MOL0     H 6735   9.691   1.813   9.489  0.3461  1.2311  1.6731
  791MOL0     H 6736   9.547   1.991   9.592  2.4135 -0.8298  1.2911
  791MOL0     H 6737   9.331   2.107   9.689  3.0196 -2.8633 -0.7349
  791MOL0     H 6738   9.223   2.070   9.557  3.0033 -1.9023 -2.4034
  791MOL0     H 6739   9.108   2.122   9.792 -0.1345 -0.4756  1.4011
  791MOL0     H 6740   9.195   1.978   9.853  3.0184  1.2271  0.0442
  791MOL0     H 6741   9.051   1.854   9.664  0.2384  0.4201 -1.2508
  791MOL0     H 6742   8.976   2.000   9.638  1.3361  0.7660  0.1453
  791MOL0     H 6743   8.871   2.022   9.832  1.4679  0.5496 -1.4873
  791MOL0     H 6744   8.966   1.888   9.927  0.6493 -1.8327 -0.2808
  791MOL0     H 6745   8.615   1.667   9.753 -3.1614 -2.8036  1.2314
  791MOL0     H 6746   8.416   1.578   9.757 -2.2126 -2.6890  0.4483
  791MOL0     H 6747   8.392   1.505   9.911 -1.5446 -0.7034 -2.3682
  791MOL0     H 6748   8.319   1.663   9.868  0.2847  0.6121 -1.0955
  791MOL0     H 6749   8.230   1.974  10.339  0.3973  1.3537  1.4829
  791MOL0     H 6750   8.027   1.967  10.510  1.9417  1.4966 -2.6769
  791MOL0     H 6751   7.810   1.715  10.437  1.6509 -0.0700 -0.2901
  791MOL0     H 6752   7.813   1.595  10.566 -0.3017 -0.6290 -1.7818
  791MOL0     H 6753   7.711   1.772  10.720 -2.6159 -1.7568 -0.4441
  791MOL0     H 6754   7.726   1.879  10.578  1.7613  0.6088 -0.3585
  791MOL0     H 6755   7.539   1.783  10.474  0.9322 -0.4702 -0.4902
  791MOL0     H 6756   7.496   1.799  10.645 -0.3900  0.4533 -1.1352
  791MOL0     H 6757   7.569   1.557  10.484  0.0085  0.9165  0.2128
  791MOL0     H 6758   7.564   1.562  10.664  0.4802  2.2343  1.8880
  791MOL0     H 6759   7.360   1.460  10.555 -1.7367  0.0236 -0.6916
  791MOL0     H 6760   7.309   1.625  10.503 -0.2861 -0.5096 -0.7215
  791MOL0     H 6761   7.378   1.551  10.780  2.6869  2.3736 -0.4059
  791MOL0     H 6762   7.307   1.708  10.731 -0.0760 -0.4847  1.3843
  791MOL0     H 6763   7.118   1.514  10.638  2.3039 -4.1956 -0.4826
  791MOL0     H 6764   7.105   1.586  10.802  0.4915  0.3615  1.5530
  791MOL0     H 6765   7.247   1.406  10.888  0.3224  2.5515 -0.0918
  791MOL0     H 6766   7.242   1.333  10.725  0.5141  0.8493 -1.3667
  791MOL0     H 6767   8.101   1.535  10.532  2.1245 -0.0147 -0.5400
  791MOL0     H 6768   8.285   1.547  10.395  0.4862 -0.5231  4.4231
  791MOL0     H 6769   8.577   1.899  10.187  1.5866 -1.3145  0.8872
  791MOL0     H 6770   8.754   1.954  10.028  1.0585 -1.3290 -0.3032
  791MOL0     H 6771  10.442   2.019  10.100  1.0740  0.7270 -0.3238
  791MOL0     H 6772  10.552   2.105  10.275 -2.5680  0.6082 -0.7939
  791MOL0     H 6773  10.858   2.004  10.662 -0.3448  1.6150  1.4736
  791MOL0     H 6774  11.023   2.074  10.821 -0.9597  0.9707  1.1106
  791MOL0     H 6775  11.275   2.080  10.857 -0.8331  0.3308  0.0138
  791MOL0     H 6776  11.358   2.117  10.704  1.4467  0.3190 -0.3838
  791MOL0     H 6777  11.464   2.311  10.843  1.1121 -0.1664  0.5681
  791MOL0     H 6778  11.521   2.157  10.865  0.8425  2.1143  0.3100
  791MOL0     H 6779  11.417   2.135  11.071 -1.4374 -0.1469 -0.6008
  791MOL0     H 6780  11.284   2.246  11.037 -0.9243 -2.7565 -0.1367
  791MOL0     H 6781  11.416   2.333  11.194  1.6032 -0.3326  0.2482
  791MOL0     H 6782  11.438   2.435  11.045 -2.7577  0.0955  1.2263
  791MOL0     H 6783  11.835   2.335  11.088  0.8369  0.5693  1.0649
  791MOL0     H 6784  11.197   2.338  10.544  0.2731 -0.3387  2.7845
  791MOL0     H 6785  11.034   2.278  10.370  1.7593 -0.6528 -1.1267
  792MOL0     O 6786  11.325  10.471   6.093  0.2659  0.8956 -0.0111
  792MOL0     C 6787  11.428  10.428   6.037 -0.4578 -0.4517 -0.0970
  792MOL0     O 6788  11.433  10.376   5.915  0.1039 -0.5237 -0.2444
  792MOL0     C 6789  11.318  10.368   5.846  0.1789  0.7092 -0.2716
  792MOL0     C 6790  11.216  10.271   5.862  0.4275  0.1282 -0.1389
  792MOL0     C 6791  11.112  10.265   5.772  0.4608  0.2098  0.4553
  792MOL0     C 6792  11.099  10.353   5.662 -0.1974 -0.5398 -0.1039
  792MOL0     O 6793  10.998  10.354   5.570 -0.8943  0.6045 -0.2336
  792MOL0     C 6794  10.862  10.324   5.612  0.7569  0.6257  0.4864
  792MOL0     C 6795  10.795  10.415   5.717 -0.4316 -0.5211 -0.4480
  792MOL0     C 6796  10.701  10.344   5.820  0.1302 -0.1613  0.0375
  792MOL0     C 6797  10.571  10.298   5.768  0.3829  0.5382 -0.2493
  792MOL0     C 6798  10.488  10.209   5.865 -0.2153 -0.2436 -0.4432
  792MOL0     C 6799  10.553  10.073   5.886 -0.7720 -0.2825 -0.6942
  792MOL0     C 6800  10.486   9.992   5.988  0.8396 -0.4451 -0.6973
  792MOL0     C 6801  10.527   9.843   5.986 -0.0310 -0.5959 -0.2062
  792MOL0     N 6802  10.677   9.826   5.988  0.2100 -0.2356 -0.3793
  792MOL0     C 6803  10.752   9.888   6.088  0.1726  1.1450 -0.6598
  792MOL0     C 6804  10.878   9.895   6.028  0.0404  0.0903 -0.0342
  792MOL0     C 6805  11.010   9.932   6.097  0.0576 -0.7532 -1.1137
  792MOL0     C 6806  11.002  10.045   6.196 -0.2834  0.0608  0.1337
  792MOL0     C 6807  10.917  10.175   6.145 -0.4305  0.4372 -0.2843
  792MOL0     C 6808  10.895  10.263   6.269 -0.1242  0.2281  0.3960
  792MOL0     O 6809  10.818  10.381   6.231 -0.6780 -0.7261 -0.4738
  792MOL0     C 6810  10.680  10.384   6.230  0.5160 -0.2450 -0.1654
  792MOL0     C 6811  10.595  10.296   6.295 -0.0876  0.1245 -0.4727
  792MOL0     C 6812  10.458  10.310   6.297  0.1484  0.2790  0.7592
  792MOL0     C 6813  10.377  10.192   6.353 -0.0584 -0.0630  0.0925
  792MOL0     C 6814  10.393  10.427   6.228 -0.6549  0.5982 -0.8856
  792MOL0     C 6815  10.246  10.463   6.241 -0.5675  0.3239  1.0233
  792MOL0     O 6816  10.201  10.565   6.156 -0.1595 -0.4077 -0.0713
  792MOL0     C 6817  10.069  10.593   6.143 -0.1214 -0.4280  0.3767
  792MOL0     C 6818  10.023  10.710   6.204 -0.7125 -0.7422  0.3579
  792MOL0     C 6819   9.898  10.757   6.191  0.0812  0.0477  0.2335
  792MOL0     C 6820   9.802  10.673   6.130 -0.0169 -0.8197 -0.1054
  792MOL0     O 6821   9.674  10.718   6.115  0.4113 -0.0076 -0.2995
  792MOL0     C 6822   9.575  10.635   6.045 -0.2245 -0.4726 -0.2360
  792MOL0     C 6823   9.463  10.626   6.148 -0.2351  0.3804  0.1855
  792MOL0     C 6824   9.394  10.752   6.198 -0.8916 -0.3388  0.9169
  792MOL0     C 6825   9.271  10.711   6.282 -0.4683  0.0447  0.0666
  792MOL0     C 6826   9.187  10.832   6.316 -0.0202  0.2065  0.7048
  792MOL0     C 6827   9.058  10.783   6.382  0.4365  0.1329  0.3738
  792MOL0     C 6828   8.969  10.903   6.416 -0.8474  0.3109  0.1024
  792MOL0     C 6829   9.004  10.967   6.556  0.9755  0.9460 -0.0428
  792MOL0    Cl 6830   8.985  10.839   6.694  0.1426  0.1769 -0.0117
  792MOL0     C 6831   9.845  10.548   6.066  0.0339  0.0057 -0.6244
  792MOL0     C 6832   9.976  10.508   6.080 -0.1923  0.8441 -0.5213
  792MOL0     O 6833  10.178  10.395   6.318 -0.0877 -0.7525 -0.5664
  792MOL0     C 6834  10.481  10.521   6.172 -0.1374  0.5236  0.6471
  792MOL0     C 6835  10.622  10.493   6.167  0.9807  0.4286 -0.0973
  792MOL0     N 6836  10.876   9.831   5.901 -0.2210 -0.5170 -1.2448
  792MOL0     N 6837  10.762   9.795   5.879  0.2421  0.2110 -0.2635
  792MOL0     C 6838  11.199  10.450   5.648 -0.3815  0.0474  0.2053
  792MOL0     C 6839  11.303  10.459   5.741 -0.3370  0.7273  0.3455
  792MOL0     C 6840  11.557  10.432   6.113 -0.0710 -0.9068  0.1380
  792MOL0     C 6841  11.679  10.379   6.070 -0.6923  0.2016  0.0321
  792MOL0     C 6842  11.796  10.393   6.143  0.2610 -0.1621  0.0881
  792MOL0     C 6843  11.800  10.472   6.264  0.1505 -0.0877 -0.4254
  792MOL0     O 6844  11.910  10.500   6.343  0.0112  0.0603  0.1809
  792MOL0     C 6845  12.028  10.449   6.287 -0.4023  0.4506 -0.3983
  792MOL0     C 6846  12.145  10.506   6.368 -0.2412  0.1169 -0.1403
  792MOL0     C 6847  12.151  10.662   6.358 -0.4000 -0.0010 -0.0851
  792MOL0     C 6848  12.280  10.719   6.423 -0.0349  0.2869 -0.6741
  792MOL0     C 6849  12.395  10.718   6.343  0.3560  0.1623  0.4524
  792MOL0     C 6850  12.501  10.707   6.276  0.4346  0.1254 -0.5222
  792MOL0     C 6851  11.672  10.523   6.311 -0.6527 -0.5075  0.5867
  792MOL0     C 6852  11.560  10.498   6.241 -0.1218  0.5375 -0.1454
  792MOL0     H 6853  11.226  10.212   5.952 -2.1583  0.4866  0.4717
  792MOL0     H 6854  11.033  10.195   5.796 -1.4958  2.0233 -0.3641
  792MOL0     H 6855  10.800  10.310   5.523  1.1515  1.9288 -0.0308
  792MOL0     H 6856  10.871  10.227   5.660 -1.9297  0.0834  0.0648
  792MOL0     H 6857  10.872  10.469   5.774 -2.9125  3.3540 -0.3917
  792MOL0     H 6858  10.744  10.498   5.668  3.0511  3.0882  1.5003
  792MOL0     H 6859  10.763  10.267   5.866 -1.6384 -0.9559  1.2077
  792MOL0     H 6860  10.687  10.416   5.901 -1.7773  1.2816 -1.4571
  792MOL0     H 6861  10.520  10.391   5.742  0.6107  0.3298 -1.5202
  792MOL0     H 6862  10.580  10.253   5.668 -1.2444  1.2518 -0.7552
  792MOL0     H 6863  10.481  10.257   5.963  0.4952 -1.3131  0.1427
  792MOL0     H 6864  10.388  10.185   5.828 -1.5675 -1.8265  3.6009
  792MOL0     H 6865  10.549  10.017   5.792  1.5257 -0.1158 -0.9426
  792MOL0     H 6866  10.658  10.088   5.909 -0.8085  1.2809 -1.3978
  792MOL0     H 6867  10.504  10.044   6.083  1.5135  1.5727 -1.8720
  792MOL0     H 6868  10.378   9.995   5.972  0.7913  0.1823 -0.2813
  792MOL0     H 6869  10.481   9.798   5.897 -2.5995  1.2748  0.0732
  792MOL0     H 6870  10.490   9.802   6.081 -0.6963  0.0632 -0.1756
  792MOL0     H 6871  10.712   9.905   6.187 -2.0441 -0.0704 -1.2847
  792MOL0     H 6872  11.045   9.851   6.161  3.9207 -0.0247 -2.0329
  792MOL0     H 6873  11.089   9.938   6.021 -0.8174  0.0681 -2.0007
  792MOL0     H 6874  11.103  10.076   6.226  0.1993 -1.1097 -0.2022
  792MOL0     H 6875  10.947  10.010   6.284 -0.6128  0.7293  0.1924
  792MOL0     H 6876  10.824  10.146   6.095  0.2770  1.4306 -2.2585
  792MOL0     H 6877  10.980  10.220   6.069 -2.0275  2.7802 -0.3317
  792MOL0     H 6878  10.987  10.308   6.307 -0.6538  1.8469 -0.1125
  792MOL0     H 6879  10.843  10.211   6.351 -0.5955 -2.1225 -1.3157
  792MOL0     H 6880  10.629  10.210   6.351 -1.7576  0.6185  1.3944
  792MOL0     H 6881  10.444  10.121   6.402  0.2854  1.2425  1.5720
  792MOL0     H 6882  10.312  10.226   6.435 -0.7366  0.0324 -0.4776
  792MOL0     H 6883  10.320  10.140   6.275 -0.4375  1.3803 -0.6190
  792MOL0     H 6884  10.092  10.768   6.264 -2.3967  1.0858  0.6242
  792MOL0     H 6885   9.868  10.846   6.245 -0.0225 -0.5522  1.1920
  792MOL0     H 6886   9.545  10.688   5.954  1.7650  1.7622  0.2906
  792MOL0     H 6887   9.598  10.531   6.019 -1.0056 -0.6450 -0.2532
  792MOL0     H 6888   9.388  10.557   6.107  0.8716 -0.8442  0.1575
  792MOL0     H 6889   9.500  10.575   6.238 -3.0611 -2.6631 -0.2036
  792MOL0     H 6890   9.355  10.819   6.122 -1.2438  0.4872  1.8092
  792MOL0     H 6891   9.468  10.813   6.249 -1.6560  1.4869 -0.0647
  792MOL0     H 6892   9.218  10.628   6.235 -0.0053 -0.6733  0.7765
  792MOL0     H 6893   9.300  10.662   6.375  2.5216  1.2498 -0.0909
  792MOL0     H 6894   9.159  10.874   6.219 -0.6298  0.6875  1.0777
  792MOL0     H 6895   9.241  10.903   6.380  1.0382 -0.9771  1.1603
  792MOL0     H 6896   8.986  10.729   6.321 -1.3756 -0.1492  2.6382
  792MOL0     H 6897   9.075  10.718   6.468 -0.6393  0.0865  0.5566
  792MOL0     H 6898   8.863  10.876   6.412 -1.7359  2.6569  3.7261
  792MOL0     H 6899   8.985  10.982   6.342 -1.0908  0.7073  0.4685
  792MOL0     H 6900   8.950  11.059   6.581  0.5805  0.3316  1.5089
  792MOL0     H 6901   9.102  11.014   6.562  2.4221 -1.7712 -0.8220
  792MOL0     H 6902   9.786  10.487   5.999  0.3445 -0.3976 -0.5335
  792MOL0     H 6903  10.004  10.419   6.025 -1.2522  0.9475 -1.2592
  792MOL0     H 6904  10.448  10.613   6.126  0.2111 -0.1283 -0.9875
  792MOL0     H 6905  10.688  10.559   6.112  1.4371 -0.6987 -0.9349
  792MOL0     H 6906  11.183  10.529   5.576 -2.7973 -0.3607  0.2120
  792MOL0     H 6907  11.357  10.552   5.745 -0.0959  0.6837 -1.2179
  792MOL0     H 6908  11.686  10.320   5.979  2.2898 -1.2767  1.0930
  792MOL0     H 6909  11.881  10.337   6.106 -0.3370  0.4908 -2.4701
  792MOL0     H 6910  12.037  10.340   6.288  1.6524  0.5934  0.8705
  792MOL0     H 6911  12.030  10.465   6.179 -3.0249  0.1609 -0.5501
  792MOL0     H 6912  12.242  10.477   6.327 -0.9390  1.0887 -2.6271
  792MOL0     H 6913  12.132  10.480   6.474  0.0342  0.0098 -0.1326
  792MOL0     H 6914  12.064  10.716   6.398 -1.1962 -0.0852 -1.6082
  792MOL0     H 6915  12.155  10.694   6.253 -2.8832  1.5478  0.2057
  792MOL0     H 6916  12.297  10.669   6.519 -1.7230  1.1550  0.1158
  792MOL0     H 6917  12.271  10.822   6.459 -0.1663 -0.2991  1.0569
  792MOL0     H 6918  12.597  10.710   6.231  1.0677 -0.9307  0.6880
  792MOL0     H 6919  11.670  10.588   6.398 -0.0313  2.6668 -1.6325
  792MOL0     H 6920  11.467  10.536   6.283 -0.4896  0.5107 -0.9135
  793MOL0     O 6921   1.255   4.537   5.192  0.8788  0.7219 -0.0713
  793MOL0     C 6922   1.361   4.585   5.234 -0.3746 -0.0921  0.3544
  793MOL0     O 6923   1.437   4.683   5.178  0.4791  0.0811  0.3166
  793MOL0     C 6924   1.394   4.723   5.049 -1.8084  0.0651  0.7973
  793MOL0     C 6925   1.276   4.790   5.032  0.1596  0.6216 -0.5240
  793MOL0     C 6926   1.235   4.814   4.899 -0.4996  0.1295  0.4070
  793MOL0     C 6927   1.317   4.785   4.790 -0.9500  0.5752  0.3389
  793MOL0     O 6928   1.287   4.814   4.656  0.2311 -0.0252 -0.2884
  793MOL0     C 6929   1.153   4.798   4.602  0.6431  0.3001 -0.3550
  793MOL0     C 6930   1.159   4.767   4.447  0.1042 -0.2005 -0.4060
  793MOL0     C 6931   1.021   4.779   4.377  0.2412 -0.7654 -0.8225
  793MOL0     C 6932   1.010   4.719   4.236 -0.2710  0.2802  0.7186
  793MOL0     C 6933   0.874   4.716   4.176  0.0644  0.8086  0.4168
  793MOL0     C 6934   0.765   4.651   4.271 -0.2053  0.2309  0.1806
  793MOL0     C 6935   0.623   4.639   4.209 -0.3783  0.3592  0.7087
  793MOL0     C 6936   0.526   4.583   4.304 -0.4508  0.1869 -0.1210
  793MOL0     N 6937   0.475   4.663   4.414 -0.7005  0.1247 -0.0333
  793MOL0     C 6938   0.364   4.741   4.383  0.0538 -0.8153 -0.1672
  793MOL0     C 6939   0.341   4.809   4.495  0.1828 -0.6782  0.1912
  793MOL0     C 6940   0.229   4.904   4.517 -0.2283 -0.0634  0.7856
  793MOL0     C 6941   0.093   4.838   4.484  0.5901  0.2687  0.0014
  793MOL0     C 6942  -0.015   4.909   4.570 -0.2130 -0.8243  0.2208
  793MOL0     C 6943  -0.153   4.845   4.563  0.1690  0.1329  0.4153
  793MOL0     O 6944  -0.204   4.877   4.430 -0.3691  0.6109  0.1492
  793MOL0     C 6945  -0.321   4.833   4.391 -0.4884  0.9447  0.1452
  793MOL0     C 6946  -0.405   4.734   4.454 -0.0995 -0.4319  0.1847
  793MOL0     C 6947  -0.531   4.702   4.408  0.6385  0.4339 -0.1764
  793MOL0     C 6948  -0.605   4.596   4.485  0.0840  0.3295 -0.1301
  793MOL0     C 6949  -0.581   4.762   4.287 -0.1682  0.0301  0.3135
  793MOL0     C 6950  -0.725   4.736   4.238 -0.0469  0.5671  0.4187
  793MOL0     O 6951  -0.805   4.658   4.304  0.5609 -0.1302  0.1286
  793MOL0     C 6952  -0.921   4.619   4.240  0.0977  0.4174 -0.6170
  793MOL0     C 6953  -0.954   4.484   4.221 -0.5660  0.0906  0.2343
  793MOL0     C 6954  -1.074   4.447   4.165 -0.3335  0.0969 -0.3642
  793MOL0     C 6955  -1.172   4.542   4.135 -0.0894 -0.4332 -0.5348
  793MOL0     O 6956  -1.294   4.493   4.098  0.5201 -0.1725 -0.1383
  793MOL0     C 6957  -1.417   4.546   4.149  0.7011 -0.6321 -0.1450
  793MOL0     C 6958  -1.469   4.674   4.078 -0.0735  0.2296  0.0370
  793MOL0     C 6959  -1.605   4.693   4.133  0.6334  0.3510 -0.3150
  793MOL0     C 6960  -1.673   4.812   4.060  0.3401  0.4325  1.1162
  793MOL0     C 6961  -1.793   4.868   4.140 -0.2465  0.7235  0.7737
  793MOL0     C 6962  -1.879   4.962   4.052  0.0984 -0.1987 -0.8421
  793MOL0     C 6963  -2.008   4.994   4.137  0.2022 -0.1719  0.6991
  793MOL0     C 6964  -2.114   5.052   4.044 -0.6662  0.3455 -0.4770
  793MOL0    Cl 6965  -2.163   4.928   3.917  0.0435  0.2549 -0.5110
  793MOL0     C 6966  -1.136   4.683   4.163  0.8915 -0.2198  1.0931
  793MOL0     C 6967  -1.017   4.716   4.217  0.1815 -0.3157  0.4609
  793MOL0     O 6968  -0.743   4.780   4.124  0.1336  0.7603 -0.2082
  793MOL0     C 6969  -0.490   4.850   4.224  0.4055 -0.7802 -0.0891
  793MOL0     C 6970  -0.369   4.892   4.275  0.9269 -0.5352 -0.6898
  793MOL0     N 6971   0.445   4.779   4.583  0.5595 -0.4432  0.0652
  793MOL0     N 6972   0.527   4.690   4.541 -0.0234 -0.1819  0.0726
  793MOL0     C 6973   1.445   4.731   4.814  0.2833  0.1358  0.1900
  793MOL0     C 6974   1.482   4.714   4.942 -1.1606  0.5043 -0.5120
  793MOL0     C 6975   1.409   4.544   5.366  0.2163 -0.1799 -0.8654
  793MOL0     C 6976   1.540   4.561   5.405 -0.4537 -0.0497 -1.0198
  793MOL0     C 6977   1.589   4.519   5.528  0.7792  0.1577  0.4779
  793MOL0     C 6978   1.510   4.444   5.620 -0.2051 -0.0189  1.0364
  793MOL0     O 6979   1.567   4.415   5.739  0.3386  0.0725 -0.3541
  793MOL0     C 6980   1.481   4.368   5.847 -0.3583 -0.3531  0.0355
  793MOL0     C 6981   1.473   4.219   5.854 -0.0286 -0.9534  0.6178
  793MOL0     C 6982   1.611   4.156   5.891  0.4192 -0.5190 -0.5885
  793MOL0     C 6983   1.654   4.201   6.033 -0.1484  0.4723  0.4436
  793MOL0     C 6984   1.764   4.118   6.085 -0.2456  0.6621 -0.2444
  793MOL0     C 6985   1.851   4.042   6.121  0.3699  1.0071 -0.6115
  793MOL0     C 6986   1.376   4.418   5.578  0.6346  0.2875  0.0152
  793MOL0     C 6987   1.330   4.467   5.455  0.5135  0.4376  0.3329
  793MOL0     H 6988   1.207   4.807   5.115 -0.4509  1.5047 -1.1912
  793MOL0     H 6989   1.139   4.862   4.882  0.3171  1.0481 -1.9582
  793MOL0     H 6990   1.095   4.727   4.661  0.5042  0.7003 -0.0058
  793MOL0     H 6991   1.109   4.898   4.605  0.4977  0.2538 -0.8471
  793MOL0     H 6992   1.227   4.842   4.404  2.1425 -0.0426  2.6956
  793MOL0     H 6993   1.207   4.670   4.438 -2.3678 -1.5049 -0.3102
  793MOL0     H 6994   0.948   4.732   4.444 -0.9031 -0.8733 -2.0939
  793MOL0     H 6995   0.983   4.881   4.367 -2.0243 -1.4300  0.1410
  793MOL0     H 6996   1.080   4.768   4.168 -0.4385 -3.1261 -2.2094
  793MOL0     H 6997   1.043   4.616   4.252  0.1669  0.4482  0.8905
  793MOL0     H 6998   0.846   4.821   4.166  2.9057  1.5966 -0.0445
  793MOL0     H 6999   0.887   4.668   4.079 -0.0945  0.2710  0.6557
  793MOL0     H 7000   0.793   4.548   4.294  1.5535  1.1220  2.4427
  793MOL0     H 7001   0.765   4.701   4.368  0.6741 -1.3938  1.0596
  793MOL0     H 7002   0.594   4.739   4.176  0.8247  1.7138  3.3493
  793MOL0     H 7003   0.616   4.569   4.126 -0.6914 -1.1769  1.9705
  793MOL0     H 7004   0.577   4.505   4.361 -2.8819 -1.3025  0.1512
  793MOL0     H 7005   0.449   4.535   4.243  1.4281 -0.6480 -1.9643
  793MOL0     H 7006   0.315   4.750   4.286  1.2055  2.0962 -0.5844
  793MOL0     H 7007   0.237   4.939   4.621 -0.8937  0.6229  0.6139
  793MOL0     H 7008   0.241   4.992   4.454 -0.4898 -1.8090 -1.8762
  793MOL0     H 7009   0.087   4.730   4.502  0.6009  0.1418 -0.7221
  793MOL0     H 7010   0.065   4.848   4.378  0.4579  1.1420  0.1092
  793MOL0     H 7011  -0.028   5.011   4.534  0.5989 -0.5527  0.6742
  793MOL0     H 7012   0.017   4.922   4.673 -0.1119  1.8043 -0.0918
  793MOL0     H 7013  -0.220   4.888   4.638 -0.7152  0.4033 -0.4968
  793MOL0     H 7014  -0.132   4.738   4.574 -1.4811 -0.1152  1.6095
  793MOL0     H 7015  -0.374   4.672   4.537 -0.5791 -2.7061 -1.2310
  793MOL0     H 7016  -0.533   4.550   4.553 -0.0044  0.1472 -0.1618
  793MOL0     H 7017  -0.684   4.649   4.538  1.7818  2.7953  0.1039
  793MOL0     H 7018  -0.630   4.519   4.411  4.3681  0.1725 -1.7493
  793MOL0     H 7019  -0.886   4.403   4.240 -0.0902  0.9688  2.5764
  793MOL0     H 7020  -1.108   4.346   4.146 -1.3795 -0.2377  2.6777
  793MOL0     H 7021  -1.485   4.462   4.131  1.8749 -1.0428 -3.2924
  793MOL0     H 7022  -1.400   4.567   4.255 -2.3056  1.9067 -0.0344
  793MOL0     H 7023  -1.404   4.760   4.096 -0.9648  0.7628  0.8080
  793MOL0     H 7024  -1.478   4.661   3.970 -0.0827 -1.3219  0.1942
  793MOL0     H 7025  -1.594   4.714   4.240  2.5639 -0.4463 -0.3314
  793MOL0     H 7026  -1.672   4.607   4.123 -0.1957  1.0901 -1.3947
  793MOL0     H 7027  -1.602   4.896   4.060  2.0437 -0.9258  1.9893
  793MOL0     H 7028  -1.696   4.786   3.957 -1.4000  0.4199  1.4871
  793MOL0     H 7029  -1.750   4.930   4.219  1.9877  3.8318 -2.5339
  793MOL0     H 7030  -1.859   4.788   4.175 -1.1530  0.8491 -0.5417
  793MOL0     H 7031  -1.827   5.054   4.023  0.4013 -0.2842 -0.5849
  793MOL0     H 7032  -1.902   4.904   3.963 -0.2306  0.1976 -1.0169
  793MOL0     H 7033  -1.987   5.072   4.211 -0.2610 -1.2192  1.9822
  793MOL0     H 7034  -2.043   4.912   4.201  1.6402 -0.4932  1.1222
  793MOL0     H 7035  -2.074   5.143   3.998 -1.1034  0.0258 -1.5320
  793MOL0     H 7036  -2.199   5.080   4.107 -1.1868  0.2701 -1.1359
  793MOL0     H 7037  -1.211   4.760   4.153  1.2218  0.0242  0.4810
  793MOL0     H 7038  -1.008   4.821   4.243 -2.3540  0.2668 -0.6856
  793MOL0     H 7039  -0.510   4.906   4.133  0.2855  1.6200  1.3129
  793MOL0     H 7040  -0.323   4.978   4.227 -1.0617  0.9137 -0.1348
  793MOL0     H 7041   1.512   4.707   4.732 -1.2183 -0.4854 -0.8944
  793MOL0     H 7042   1.580   4.675   4.969 -0.7634  1.5636 -0.3950
  793MOL0     H 7043   1.602   4.606   5.328  1.9200  1.8285  1.7994
  793MOL0     H 7044   1.689   4.542   5.563  0.5634 -0.0798  1.2722
  793MOL0     H 7045   1.511   4.420   5.938 -0.8771  1.5588 -0.8503
  793MOL0     H 7046   1.376   4.393   5.832 -0.7662 -1.4821  0.8588
  793MOL0     H 7047   1.426   4.186   5.761 -2.3848  1.0756  0.9904
  793MOL0     H 7048   1.396   4.197   5.928 -1.1134  0.6615  0.0214
  793MOL0     H 7049   1.682   4.197   5.818  2.3186  2.1778  2.4475
  793MOL0     H 7050   1.613   4.047   5.897 -2.5329 -0.5805  2.5119
  793MOL0     H 7051   1.580   4.186   6.112  1.9561 -1.2074  2.2478
  793MOL0     H 7052   1.683   4.307   6.033  0.0421  0.4395 -0.9150
  793MOL0     H 7053   1.920   3.973   6.166 -2.8976 -0.5945  2.4009
  793MOL0     H 7054   1.299   4.358   5.627  1.4337 -2.1810 -1.5763
  793MOL0     H 7055   1.228   4.442   5.426  0.6614  0.2667 -0.0396
  794MOL0     O 7056  10.553   9.222   7.438  0.1301 -0.5351  0.1442
  794MOL0     C 7057  10.650   9.204   7.509 -0.6511 -0.0347  1.0385
  794MOL0     O 7058  10.640   9.151   7.633  0.1582  0.4688 -0.0336
  794MOL0     C 7059  10.521   9.102   7.689 -0.0298 -0.2682 -0.5616
  794MOL0     C 7060  10.390   9.129   7.648  0.0582 -0.0528 -0.3201
  794MOL0     C 7061  10.285   9.063   7.707 -1.1953  0.1260 -0.6016
  794MOL0     C 7062  10.304   8.983   7.817  0.5786 -0.4672  0.5696
  794MOL0     O 7063  10.203   8.922   7.886  0.5891 -0.8295  0.4893
  794MOL0     C 7064  10.066   8.906   7.841 -0.0640  1.0466 -0.0133
  794MOL0     C 7065   9.983   8.858   7.965  1.1642  0.1965  0.3172
  794MOL0     C 7066   9.837   8.819   7.932 -0.1849 -0.6215  0.1010
  794MOL0     C 7067   9.817   8.723   7.819 -0.4900 -0.6842 -0.5092
  794MOL0     C 7068   9.673   8.687   7.766 -0.6372  0.2271  0.1791
  794MOL0     C 7069   9.685   8.610   7.637  0.3287  0.0294  0.2481
  794MOL0     C 7070   9.556   8.529   7.604 -0.8801 -0.6772 -0.5116
  794MOL0     C 7071   9.561   8.474   7.467  0.2688  0.5128 -0.8817
  794MOL0     N 7072   9.437   8.396   7.435 -0.4748 -0.7907 -0.2247
  794MOL0     C 7073   9.398   8.287   7.498  0.4789 -0.0009 -0.2851
  794MOL0     C 7074   9.297   8.239   7.412  0.2615 -0.3668  0.0607
  794MOL0     C 7075   9.222   8.108   7.442  0.7378  0.3795 -0.2832
  794MOL0     C 7076   9.227   7.999   7.337  0.9038 -0.5369 -0.2118
  794MOL0     C 7077   9.133   8.045   7.212 -0.6010  0.4341 -1.0383
  794MOL0     C 7078   9.101   7.915   7.136 -0.4808 -0.1152  0.0988
  794MOL0     O 7079   8.990   7.949   7.051 -0.8479  0.4072  0.9111
  794MOL0     C 7080   8.948   7.847   6.966 -0.4357 -0.2379 -0.8062
  794MOL0     C 7081   9.032   7.737   6.925  0.1377  0.3206 -0.5219
  794MOL0     C 7082   8.991   7.651   6.816  0.9955 -0.0830  0.4790
  794MOL0     C 7083   9.076   7.541   6.780  0.2667  0.4783  0.2554
  794MOL0     C 7084   8.860   7.663   6.766  0.0454 -0.3692  0.9077
  794MOL0     C 7085   8.791   7.575   6.668  0.2737 -0.5211 -0.3553
  794MOL0     O 7086   8.850   7.461   6.642  0.7640 -0.6488  0.3454
  794MOL0     C 7087   8.760   7.367   6.597 -0.4074  0.0761  0.9860
  794MOL0     C 7088   8.684   7.304   6.691 -0.3272 -0.3403 -1.1169
  794MOL0     C 7089   8.605   7.188   6.664  0.0246  0.9796  1.1039
  794MOL0     C 7090   8.606   7.146   6.533  0.7837  0.4550 -0.0679
  794MOL0     O 7091   8.521   7.034   6.514 -0.4402 -0.8552 -0.0318
  794MOL0     C 7092   8.549   6.953   6.405 -0.3188  0.0012 -0.9184
  794MOL0     C 7093   8.458   6.835   6.402  0.4686  0.0325 -0.4693
  794MOL0     C 7094   8.504   6.745   6.288  0.0367 -0.4735  0.2456
  794MOL0     C 7095   8.412   6.620   6.276 -0.3962  0.4971  0.0421
  794MOL0     C 7096   8.409   6.569   6.135 -0.4963  0.0957 -0.2729
  794MOL0     C 7097   8.304   6.636   6.045 -0.2300 -0.3494  0.2705
  794MOL0     C 7098   8.300   6.561   5.905  0.0343 -0.6772 -0.6003
  794MOL0     C 7099   8.248   6.416   5.908 -0.3483  0.0338 -0.5741
  794MOL0    Cl 7100   8.082   6.416   5.983  0.1599 -0.1466 -0.2516
  794MOL0     C 7101   8.668   7.225   6.434  0.4968  0.1399  0.3980
  794MOL0     C 7102   8.746   7.328   6.464 -0.4175 -0.0503 -0.3459
  794MOL0     O 7103   8.691   7.618   6.611 -0.7483 -0.4038  0.8312
  794MOL0     C 7104   8.783   7.764   6.815  1.2646 -0.0989 -0.4677
  794MOL0     C 7105   8.821   7.856   6.909 -0.2953 -0.1892 -0.2794
  794MOL0     N 7106   9.279   8.327   7.305  0.3418 -0.3715  0.3730
  794MOL0     N 7107   9.356   8.427   7.328  0.2261  0.8362  0.0692
  794MOL0     C 7108  10.432   8.959   7.868  0.3970 -0.1774 -0.0861
  794MOL0     C 7109  10.541   9.016   7.801 -0.0857  0.2064  0.6838
  794MOL0     C 7110  10.784   9.225   7.449 -0.0299 -0.4649 -0.0749
  794MOL0     C 7111  10.803   9.226   7.307  0.2743  0.0727  0.1225
  794MOL0     C 7112  10.928   9.268   7.248  0.0926  0.5339 -0.3292
  794MOL0     C 7113  11.039   9.283   7.327  0.0421 -0.1819 -0.3248
  794MOL0     O 7114  11.157   9.302   7.262 -0.3980 -0.0714 -0.0916
  794MOL0     C 7115  11.280   9.335   7.336  0.1418 -0.1677 -0.2374
  794MOL0     C 7116  11.346   9.204   7.393 -0.1686 -0.2660  0.0303
  794MOL0     C 7117  11.468   9.235   7.487  0.5075  0.6382  0.6878
  794MOL0     C 7118  11.431   9.223   7.632  0.9047  0.1283 -0.1295
  794MOL0     C 7119  11.338   9.323   7.680  0.1908  0.8583  0.1903
  794MOL0     C 7120  11.281   9.415   7.717 -0.3748 -0.1711  0.8370
  794MOL0     C 7121  11.019   9.275   7.465  0.2642 -0.4587  0.2913
  794MOL0     C 7122  10.897   9.257   7.522  0.6357 -0.4350 -0.1532
  794MOL0     H 7123  10.371   9.205   7.574  3.5811 -0.3704 -1.7287
  794MOL0     H 7124  10.188   9.082   7.662 -0.5283  0.2128 -2.0838
  794MOL0     H 7125  10.027   9.001   7.804 -0.3487  0.9989  0.1557
  794MOL0     H 7126  10.080   8.827   7.766  4.0243 -0.0720  1.6721
  794MOL0     H 7127  10.026   8.769   8.012  0.4218 -1.4024 -1.8448
  794MOL0     H 7128   9.979   8.947   8.027  1.3563 -0.3764  1.1707
  794MOL0     H 7129   9.793   8.788   8.027  1.7929  0.2446  1.3726
  794MOL0     H 7130   9.785   8.910   7.903 -1.4699 -1.0990  0.7989
  794MOL0     H 7131   9.879   8.760   7.737 -2.0117  2.1962 -0.4898
  794MOL0     H 7132   9.871   8.632   7.847  1.3920  0.7478  0.6543
  794MOL0     H 7133   9.622   8.628   7.842 -0.0855  0.5324  0.8000
  794MOL0     H 7134   9.623   8.783   7.750  0.4596  0.5834 -1.2986
  794MOL0     H 7135   9.702   8.686   7.560 -0.6491  0.6613  0.6448
  794MOL0     H 7136   9.767   8.537   7.642 -0.4532 -0.8547  0.3103
  794MOL0     H 7137   9.554   8.454   7.684 -0.1403  0.4206  0.5801
  794MOL0     H 7138   9.469   8.595   7.613 -1.0350 -0.8592 -0.6900
  794MOL0     H 7139   9.646   8.406   7.464  0.7590  1.1597 -2.8113
  794MOL0     H 7140   9.574   8.555   7.395  1.1754  1.6624  0.5114
  794MOL0     H 7141   9.431   8.255   7.597 -2.5716 -0.6699  0.6354
  794MOL0     H 7142   9.275   8.053   7.521  2.5512 -0.9211 -2.2987
  794MOL0     H 7143   9.117   8.124   7.465  0.7246  0.4697 -0.4097
  794MOL0     H 7144   9.187   7.908   7.383 -0.4461 -0.8295 -1.8464
  794MOL0     H 7145   9.334   7.992   7.318  0.9780 -2.2987  0.6701
  794MOL0     H 7146   9.167   8.125   7.145  1.1239 -0.1618 -0.9310
  794MOL0     H 7147   9.042   8.087   7.256 -0.1577 -1.7604  2.4186
  794MOL0     H 7148   9.084   7.822   7.193  0.1301 -0.3301 -0.0579
  794MOL0     H 7149   9.193   7.890   7.082 -1.4278 -1.2455 -1.0470
  794MOL0     H 7150   9.131   7.716   6.965  0.3851  2.9183  0.4564
  794MOL0     H 7151   9.040   7.449   6.827  1.5972 -0.4020 -0.3591
  794MOL0     H 7152   9.079   7.520   6.673 -4.1991  0.5803 -0.0577
  794MOL0     H 7153   9.182   7.556   6.806  0.3232  0.8413 -0.1764
  794MOL0     H 7154   8.695   7.340   6.793 -0.2343 -1.3689 -0.7420
  794MOL0     H 7155   8.551   7.137   6.743  0.8664 -2.5389 -0.4152
  794MOL0     H 7156   8.532   7.018   6.319 -2.8597  3.0257  1.6129
  794MOL0     H 7157   8.651   6.917   6.421 -0.1330  1.5012  1.7647
  794MOL0     H 7158   8.468   6.781   6.498  1.3386  1.0367  0.0288
  794MOL0     H 7159   8.358   6.868   6.374  0.6970  1.1839  0.0109
  794MOL0     H 7160   8.609   6.716   6.298  0.7742  1.2299 -1.8493
  794MOL0     H 7161   8.500   6.810   6.200 -0.9059  1.5500  1.7049
  794MOL0     H 7162   8.450   6.543   6.344 -2.7632 -1.2500 -0.4734
  794MOL0     H 7163   8.310   6.644   6.306 -0.2210  1.8468 -0.3840
  794MOL0     H 7164   8.376   6.465   6.146  2.2823 -1.0241 -1.6789
  794MOL0     H 7165   8.507   6.577   6.087 -0.6962  0.7721 -0.5918
  794MOL0     H 7166   8.211   6.645   6.101  0.5552  1.4396  1.3462
  794MOL0     H 7167   8.340   6.738   6.027  0.2019 -0.4938  0.3041
  794MOL0     H 7168   8.401   6.547   5.866  0.3118 -3.3900  0.8498
  794MOL0     H 7169   8.246   6.617   5.829 -2.8808 -0.7599  1.2529
  794MOL0     H 7170   8.317   6.365   5.976  1.4718  2.8365 -0.1797
  794MOL0     H 7171   8.237   6.373   5.808  1.2977 -1.3230 -0.2074
  794MOL0     H 7172   8.654   7.196   6.330  1.4055 -3.0058  1.0580
  794MOL0     H 7173   8.784   7.389   6.382 -0.9481  1.8132  0.7412
  794MOL0     H 7174   8.691   7.792   6.764  0.3323 -1.5110  0.3703
  794MOL0     H 7175   8.756   7.935   6.946 -3.0259 -2.9742  1.4802
  794MOL0     H 7176  10.444   8.888   7.950  4.3531  3.3639  2.8727
  794MOL0     H 7177  10.639   8.992   7.841 -0.6234 -1.4850  1.0686
  794MOL0     H 7178  10.728   9.204   7.232  1.0520 -1.6259 -0.1890
  794MOL0     H 7179  10.942   9.270   7.141  1.6630  0.1892 -0.1556
  794MOL0     H 7180  11.351   9.385   7.270  1.2498  0.6683  1.5270
  794MOL0     H 7181  11.256   9.404   7.418  2.1246  1.3057 -0.8195
  794MOL0     H 7182  11.375   9.139   7.310  0.1087  0.2088 -0.2503
  794MOL0     H 7183  11.273   9.151   7.455  0.6446 -3.0466 -1.1883
  794MOL0     H 7184  11.509   9.334   7.466  0.9234  0.4784  0.7392
  794MOL0     H 7185  11.535   9.151   7.467 -1.1833 -0.2221 -1.7415
  794MOL0     H 7186  11.518   9.222   7.698  1.4656 -0.8501 -0.8659
  794MOL0     H 7187  11.390   9.121   7.636  0.1132  0.3992 -0.9460
  794MOL0     H 7188  11.236   9.503   7.759 -2.2638 -0.2000 -0.9104
  794MOL0     H 7189  11.102   9.282   7.535  0.9110 -0.6205 -0.4533
  794MOL0     H 7190  10.893   9.257   7.631  3.0815  0.0020 -0.0090
  795MOL0     O 7191   0.572   6.021   6.714  0.3632 -0.4611  0.0182
  795MOL0     C 7192   0.651   6.030   6.618  0.7074 -0.2882  0.2959
  795MOL0     O 7193   0.630   6.086   6.486  0.4949 -0.0214 -0.3158
  795MOL0     C 7194   0.509   6.130   6.459 -1.0908  0.6247  0.3949
  795MOL0     C 7195   0.493   6.264   6.429 -0.1853 -0.3518  0.7094
  795MOL0     C 7196   0.369   6.323   6.395  0.2871 -0.0935  1.0959
  795MOL0     C 7197   0.256   6.230   6.390 -0.2326  0.2876 -0.0827
  795MOL0     O 7198   0.137   6.276   6.361 -0.1034 -0.5984 -0.2734
  795MOL0     C 7199   0.014   6.207   6.391  0.3572 -0.2383 -0.0441
  795MOL0     C 7200  -0.107   6.252   6.310 -0.5576 -0.5166  0.0450
  795MOL0     C 7201  -0.241   6.195   6.360  0.1167 -0.8163 -0.4512
  795MOL0     C 7202  -0.363   6.247   6.282  0.0864 -0.5053  0.6003
  795MOL0     C 7203  -0.498   6.190   6.332 -0.1080 -0.0992  0.0278
  795MOL0     C 7204  -0.529   6.214   6.489 -0.1948 -0.0050  0.1531
  795MOL0     C 7205  -0.559   6.357   6.519 -0.1262  0.1992 -0.1944
  795MOL0     C 7206  -0.686   6.411   6.446  0.1689 -0.3049 -0.6127
  795MOL0     N 7207  -0.812   6.333   6.472 -0.6055 -1.3321  0.3718
  795MOL0     C 7208  -0.866   6.249   6.378  0.8517 -0.0044  0.0462
  795MOL0     C 7209  -0.978   6.195   6.440  0.1220 -0.8125 -0.9754
  795MOL0     C 7210  -1.078   6.095   6.386 -0.9595  0.3817 -0.2906
  795MOL0     C 7211  -1.011   5.964   6.369 -0.0598 -0.1604  0.2371
  795MOL0     C 7212  -0.968   5.890   6.503  0.3608 -0.2101 -0.2201
  795MOL0     C 7213  -0.811   5.914   6.528 -0.1226  0.4911 -0.4282
  795MOL0     O 7214  -0.731   5.817   6.452  0.2021  0.3174  0.4920
  795MOL0     C 7215  -0.597   5.803   6.460  0.6374 -0.5444 -0.1501
  795MOL0     C 7216  -0.526   5.858   6.574  0.1394  0.4290 -0.5631
  795MOL0     C 7217  -0.383   5.858   6.581 -0.1179 -0.0432  0.3198
  795MOL0     C 7218  -0.309   5.924   6.695  0.4528 -0.3364  0.7544
  795MOL0     C 7219  -0.311   5.797   6.476  0.9549  0.1777 -1.4041
  795MOL0     C 7220  -0.162   5.797   6.465 -0.1933 -0.1026 -0.3237
  795MOL0     O 7221  -0.107   5.695   6.400 -0.0658  0.8326 -0.0316
  795MOL0     C 7222   0.031   5.696   6.384  0.3029  0.7645  0.1753
  795MOL0     C 7223   0.081   5.642   6.266  0.4565 -1.0638 -0.3876
  795MOL0     C 7224   0.218   5.613   6.262 -1.3946  1.0643 -0.5305
  795MOL0     C 7225   0.310   5.631   6.369  1.2663  0.1696  0.2038
  795MOL0     O 7226   0.434   5.568   6.370 -0.1185  0.0417 -0.8409
  795MOL0     C 7227   0.544   5.608   6.462 -0.8277  0.2162  0.0877
  795MOL0     C 7228   0.679   5.548   6.416  0.1641  0.5235 -0.0924
  795MOL0     C 7229   0.789   5.639   6.475  0.3782  1.2121 -0.7175
  795MOL0     C 7230   0.922   5.582   6.465  0.3179 -0.5757  0.1708
  795MOL0     C 7231   0.967   5.561   6.321 -0.1845 -0.4695 -0.0937
  795MOL0     C 7232   1.120   5.553   6.302  0.7120  0.2847  0.1664
  795MOL0     C 7233   1.162   5.428   6.372  0.1209  0.1192  0.1071
  795MOL0     C 7234   1.312   5.407   6.362  0.5014  0.2818 -0.3177
  795MOL0    Cl 7235   1.358   5.355   6.202  0.2157  0.4067  0.5398
  795MOL0     C 7236   0.252   5.692   6.487 -1.0800  0.6177 -0.4236
  795MOL0     C 7237   0.114   5.718   6.498 -1.0255  0.2209 -0.1985
  795MOL0     O 7238  -0.100   5.896   6.506  0.5372 -0.6390 -0.0425
  795MOL0     C 7239  -0.382   5.732   6.369 -0.4971 -0.2888 -1.4550
  795MOL0     C 7240  -0.519   5.738   6.360  0.2493 -0.3941  0.0076
  795MOL0     N 7241  -0.988   6.247   6.569 -0.2593  0.1369  0.8932
  795MOL0     N 7242  -0.887   6.330   6.587  0.8555 -0.3037 -0.3910
  795MOL0     C 7243   0.270   6.095   6.431 -0.8375  0.4642 -0.5671
  795MOL0     C 7244   0.401   6.049   6.468  0.5282  0.1242  0.3197
  795MOL0     C 7245   0.796   6.000   6.646  0.3643  0.2621 -0.0360
  795MOL0     C 7246   0.890   6.001   6.547 -1.1691  0.9591  0.6966
  795MOL0     C 7247   1.022   5.963   6.560 -0.2111 -0.1607  0.6266
  795MOL0     C 7248   1.067   5.938   6.683 -0.8139 -0.1649 -0.7585
  795MOL0     O 7249   1.201   5.912   6.689 -0.3426 -0.0809 -0.2105
  795MOL0     C 7250   1.255   5.821   6.786 -0.0787  0.2587  0.4056
  795MOL0     C 7251   1.329   5.902   6.884  0.0361 -0.0842 -1.1368
  795MOL0     C 7252   1.395   5.810   6.993  0.2822 -0.7910 -0.7894
  795MOL0     C 7253   1.486   5.901   7.077  0.5264 -0.3111  1.2258
  795MOL0     C 7254   1.553   5.818   7.177  0.3672 -1.1953 -0.5448
  795MOL0     C 7255   1.623   5.758   7.260  0.2465  0.2805 -0.0594
  795MOL0     C 7256   0.976   5.941   6.795 -0.7973 -0.1663 -0.7696
  795MOL0     C 7257   0.839   5.973   6.779 -0.8055  0.3261  0.0105
  795MOL0     H 7258   0.585   6.321   6.432 -0.2484  0.0823 -2.4358
  795MOL0     H 7259   0.363   6.428   6.370 -1.6735 -0.6112 -0.9760
  795MOL0     H 7260   0.027   6.098   6.389  1.6585 -0.0852 -1.7846
  795MOL0     H 7261  -0.008   6.242   6.493 -0.3032 -0.6354 -0.0398
  795MOL0     H 7262  -0.105   6.361   6.322 -1.2859 -0.5343  0.4087
  795MOL0     H 7263  -0.097   6.237   6.203  0.0353 -2.0547  0.2943
  795MOL0     H 7264  -0.235   6.086   6.360  0.8368 -0.7804 -0.9239
  795MOL0     H 7265  -0.239   6.218   6.467  2.4685  1.7773 -0.9280
  795MOL0     H 7266  -0.390   6.353   6.272 -1.6777 -1.1753 -3.4314
  795MOL0     H 7267  -0.349   6.219   6.178 -2.5618  1.9154 -0.5532
  795MOL0     H 7268  -0.584   6.216   6.269  0.6748  2.2824 -0.1720
  795MOL0     H 7269  -0.485   6.082   6.326 -3.4305 -0.5090 -2.6385
  795MOL0     H 7270  -0.615   6.163   6.533  0.5425  0.0259  1.6913
  795MOL0     H 7271  -0.441   6.185   6.547 -0.8552  1.6022  2.0713
  795MOL0     H 7272  -0.578   6.358   6.627 -2.8862 -1.5022 -0.5545
  795MOL0     H 7273  -0.472   6.420   6.499 -0.2597  0.9081  1.2883
  795MOL0     H 7274  -0.661   6.412   6.339 -0.5574  0.4586 -0.7847
  795MOL0     H 7275  -0.698   6.517   6.470  0.4048 -0.3941 -0.1037
  795MOL0     H 7276  -0.836   6.225   6.276  0.9314  0.2505  0.0074
  795MOL0     H 7277  -1.154   6.084   6.464  0.7001 -1.6200  1.1574
  795MOL0     H 7278  -1.108   6.122   6.284 -1.9210  1.1359  0.1733
  795MOL0     H 7279  -0.918   5.978   6.313  0.4749  0.0004  1.1461
  795MOL0     H 7280  -1.069   5.893   6.309  2.4151  1.0237 -3.9689
  795MOL0     H 7281  -0.982   5.782   6.491 -1.1479 -0.0122 -0.3747
  795MOL0     H 7282  -1.026   5.933   6.585  2.9256  2.3754  0.4182
  795MOL0     H 7283  -0.789   5.914   6.635 -3.0483  2.0152  0.2706
  795MOL0     H 7284  -0.790   6.018   6.503  3.4139 -0.3551 -1.6246
  795MOL0     H 7285  -0.572   5.899   6.663  0.2129  0.2703 -0.4519
  795MOL0     H 7286  -0.222   5.863   6.721 -0.0444 -1.3631  0.1043
  795MOL0     H 7287  -0.276   6.021   6.657  1.1739 -0.8196  0.1237
  795MOL0     H 7288  -0.378   5.939   6.779  1.3032  1.9799  1.1064
  795MOL0     H 7289   0.011   5.611   6.189  0.3857 -3.8583  0.6924
  795MOL0     H 7290   0.260   5.574   6.169 -0.0778 -0.8696  0.7984
  795MOL0     H 7291   0.549   5.718   6.456 -0.4578  0.1965  0.0463
  795MOL0     H 7292   0.539   5.580   6.568  2.2161  0.9929  0.5285
  795MOL0     H 7293   0.692   5.445   6.450  0.7177 -0.2750 -2.5289
  795MOL0     H 7294   0.675   5.546   6.307  1.9607  1.9309 -0.2300
  795MOL0     H 7295   0.766   5.659   6.580 -0.3733  3.0304 -1.1845
  795MOL0     H 7296   0.792   5.733   6.419  3.3952 -0.0040 -2.8515
  795MOL0     H 7297   0.988   5.633   6.537 -0.7934 -2.3279  2.5810
  795MOL0     H 7298   0.916   5.483   6.512  1.0587 -1.6367 -1.8615
  795MOL0     H 7299   0.935   5.641   6.254 -0.2035 -0.1554  0.2857
  795MOL0     H 7300   0.928   5.465   6.286 -2.3050 -0.0494  1.0131
  795MOL0     H 7301   1.155   5.534   6.200  1.0962  1.0859  0.1446
  795MOL0     H 7302   1.169   5.644   6.338 -1.5282  1.4096  0.5264
  795MOL0     H 7303   1.113   5.335   6.343 -0.2927 -0.0076  1.1808
  795MOL0     H 7304   1.139   5.445   6.478 -0.2442  2.7307 -0.3117
  795MOL0     H 7305   1.346   5.334   6.436  0.3084 -0.1511 -0.6491
  795MOL0     H 7306   1.360   5.501   6.391  0.3370 -0.2393  1.8075
  795MOL0     H 7307   0.316   5.720   6.570 -2.1074 -1.0537  1.0098
  795MOL0     H 7308   0.070   5.744   6.594 -0.5835 -2.0114  0.6834
  795MOL0     H 7309  -0.323   5.685   6.292  0.7388  0.8149 -1.2114
  795MOL0     H 7310  -0.574   5.706   6.272  0.6071  0.2195 -0.4506
  795MOL0     H 7311   0.202   6.011   6.446 -0.9636  0.6012 -0.3746
  795MOL0     H 7312   0.415   5.946   6.499  3.5184  0.2323 -0.4362
  795MOL0     H 7313   0.864   6.009   6.442  2.0162  2.0005 -0.1549
  795MOL0     H 7314   1.094   5.971   6.479 -2.0772  0.8633 -1.0428
  795MOL0     H 7315   1.177   5.762   6.833  0.0870 -0.1491  0.1753
  795MOL0     H 7316   1.330   5.747   6.756 -0.5612 -1.2127  2.5850
  795MOL0     H 7317   1.257   5.966   6.936 -0.4040 -1.2093 -0.3313
  795MOL0     H 7318   1.401   5.966   6.831 -0.1257  1.2081  0.1442
  795MOL0     H 7319   1.456   5.733   6.945 -0.9121 -1.2530 -1.6175
  795MOL0     H 7320   1.320   5.757   7.052  2.4415 -3.6697 -0.4166
  795MOL0     H 7321   1.429   5.979   7.128 -0.5095  0.0955 -0.4752
  795MOL0     H 7322   1.561   5.947   7.013  0.2219  1.4997  2.1067
  795MOL0     H 7323   1.690   5.713   7.331  0.8474  1.6474  0.2660
  795MOL0     H 7324   1.006   5.906   6.894 -1.4823 -3.6197 -1.6544
  795MOL0     H 7325   0.769   5.980   6.861  0.7359  0.6981  1.3598
  796MOL0     O 7326  10.140   2.435   6.603  0.1558  0.0466  0.7355
  796MOL0     C 7327  10.207   2.390   6.692 -0.0495 -0.0882  0.3361
  796MOL0     O 7328  10.168   2.370   6.817 -0.1074 -0.2889  0.0237
  796MOL0     C 7329  10.053   2.421   6.879  0.9173  0.1897 -0.1531
  796MOL0     C 7330  10.039   2.377   7.008 -0.2240 -1.0540  0.3547
  796MOL0     C 7331   9.948   2.432   7.100  0.7881  0.5697 -0.3001
  796MOL0     C 7332   9.860   2.534   7.055 -0.4648  0.5192 -0.3660
  796MOL0     O 7333   9.755   2.569   7.139  0.3749 -0.2270 -0.2986
  796MOL0     C 7334   9.691   2.692   7.128 -0.6789  0.0870  0.1710
  796MOL0     C 7335   9.623   2.734   7.258 -0.0040  0.1945 -0.0386
  796MOL0     C 7336   9.549   2.869   7.256  0.4857  0.6746  0.4784
  796MOL0     C 7337   9.506   2.908   7.400 -0.0583 -0.2530  0.0722
  796MOL0     C 7338   9.373   2.848   7.433  0.1625  0.1296 -0.2602
  796MOL0     C 7339   9.356   2.838   7.586  0.2944 -0.3857 -0.1971
  796MOL0     C 7340   9.376   2.970   7.664 -0.2741 -0.4569  0.6710
  796MOL0     C 7341   9.289   3.081   7.619 -0.2109  0.3533 -0.0059
  796MOL0     N 7342   9.160   3.066   7.678  0.4182  0.2511 -0.4198
  796MOL0     C 7343   9.124   3.113   7.805  0.5332 -0.2283 -0.1483
  796MOL0     C 7344   8.995   3.067   7.824 -0.8091  0.1014 -0.6102
  796MOL0     C 7345   8.889   3.099   7.930 -0.3167  0.0201  0.7358
  796MOL0     C 7346   8.779   3.188   7.888 -0.6773  0.3150  0.3681
  796MOL0     C 7347   8.806   3.309   7.784  0.0617 -0.8355  0.0981
  796MOL0     C 7348   8.668   3.370   7.752  0.2744 -0.2355 -0.2317
  796MOL0     O 7349   8.608   3.411   7.869  0.2456 -0.6104 -0.5858
  796MOL0     C 7350   8.472   3.426   7.874 -0.3248  0.5429 -0.3761
  796MOL0     C 7351   8.390   3.442   7.762 -0.8187 -0.5439 -0.2981
  796MOL0     C 7352   8.250   3.474   7.766  0.6263 -0.3428 -0.0693
  796MOL0     C 7353   8.179   3.481   7.629  0.0384  0.1542  0.3270
  796MOL0     C 7354   8.192   3.495   7.895 -0.7392 -0.7837  0.8347
  796MOL0     C 7355   8.047   3.537   7.912 -1.3600 -0.2936 -0.0435
  796MOL0     O 7356   7.970   3.581   7.810  0.3902 -0.0971 -0.1910
  796MOL0     C 7357   7.835   3.596   7.839  1.1115  0.8231 -0.0927
  796MOL0     C 7358   7.781   3.699   7.913 -1.1078  0.0956  0.2918
  796MOL0     C 7359   7.645   3.716   7.942 -1.0250  0.8104  0.6097
  796MOL0     C 7360   7.558   3.613   7.904  0.3150  0.1399 -0.5831
  796MOL0     O 7361   7.423   3.623   7.940  1.0109  0.2097  0.6116
  796MOL0     C 7362   7.330   3.514   7.906  1.1859 -0.2913 -0.0117
  796MOL0     C 7363   7.183   3.563   7.935  0.1203  0.5522  0.4006
  796MOL0     C 7364   7.096   3.451   7.890 -0.6567  0.4083  0.1542
  796MOL0     C 7365   6.955   3.485   7.890 -0.4405 -0.2830 -0.2935
  796MOL0     C 7366   6.873   3.364   7.836 -0.7475 -0.5018 -0.7929
  796MOL0     C 7367   6.743   3.422   7.768  0.0798  0.3103  0.2017
  796MOL0     C 7368   6.650   3.301   7.749 -0.3174 -0.0398 -0.1852
  796MOL0     C 7369   6.688   3.217   7.625 -0.2997 -0.8961  0.0524
  796MOL0    Cl 7370   6.540   3.106   7.559 -0.1746 -0.3562  0.4470
  796MOL0     C 7371   7.610   3.507   7.824  0.3499 -0.2351  0.3084
  796MOL0     C 7372   7.746   3.500   7.792 -0.4572 -0.2868  0.0313
  796MOL0     O 7373   8.010   3.516   8.026 -0.2829 -0.9575  0.4758
  796MOL0     C 7374   8.275   3.471   8.002 -0.5796  0.0420  0.1976
  796MOL0     C 7375   8.411   3.442   8.000 -0.0051 -0.0529 -0.2752
  796MOL0     N 7376   8.951   3.005   7.703  0.0132  0.1734 -0.9124
  796MOL0     N 7377   9.057   2.979   7.632  0.6414  0.3982  0.3268
  796MOL0     C 7378   9.884   2.592   6.929 -0.1809  0.4325 -0.3347
  796MOL0     C 7379   9.972   2.533   6.846 -0.9125 -0.0118  0.7167
  796MOL0     C 7380  10.332   2.308   6.659 -0.2512 -0.2550  0.3225
  796MOL0     C 7381  10.387   2.222   6.753 -0.1778 -0.6703  0.4239
  796MOL0     C 7382  10.501   2.147   6.730  0.0770 -0.9189  1.3085
  796MOL0     C 7383  10.556   2.171   6.602  0.8535  0.0212  0.4691
  796MOL0     O 7384  10.661   2.104   6.567  0.3832 -0.3262 -0.2142
  796MOL0     C 7385  10.635   1.968   6.551  0.5433  0.0659 -0.2125
  796MOL0     C 7386  10.577   1.933   6.413  0.3616 -0.9018 -0.2758
  796MOL0     C 7387  10.558   1.787   6.394  0.5750  0.6284 -0.7097
  796MOL0     C 7388  10.463   1.747   6.273 -0.4430 -0.1795  0.0615
  796MOL0     C 7389  10.509   1.794   6.136  0.2054 -0.2231  0.1675
  796MOL0     C 7390  10.552   1.815   6.024 -0.0845 -0.8259 -0.8719
  796MOL0     C 7391  10.495   2.244   6.503 -0.8714  0.4702 -0.2851
  796MOL0     C 7392  10.381   2.312   6.531 -0.7465 -0.3750 -0.1281
  796MOL0     H 7393  10.088   2.288   7.046 -0.7802 -2.3741 -1.8506
  796MOL0     H 7394   9.927   2.410   7.204 -0.9576 -0.0167 -0.7430
  796MOL0     H 7395   9.761   2.772   7.102  0.8566 -0.6960  1.7207
  796MOL0     H 7396   9.621   2.677   7.045  1.1804 -0.9228 -1.2978
  796MOL0     H 7397   9.554   2.656   7.291  0.4610 -0.1636  0.1048
  796MOL0     H 7398   9.707   2.741   7.328 -0.6733 -3.0576  1.3062
  796MOL0     H 7399   9.605   2.953   7.214  0.9251  0.7916  1.2928
  796MOL0     H 7400   9.461   2.852   7.192  0.3480 -2.5620  1.3606
  796MOL0     H 7401   9.576   2.875   7.478 -2.6501 -0.9118  2.2725
  796MOL0     H 7402   9.488   3.016   7.400 -3.8659 -0.7442  1.1055
  796MOL0     H 7403   9.296   2.899   7.374 -1.0502 -0.2573  0.9486
  796MOL0     H 7404   9.363   2.746   7.394 -2.1767  0.1988  0.0564
  796MOL0     H 7405   9.257   2.794   7.602  1.0663 -2.1591 -0.0019
  796MOL0     H 7406   9.428   2.765   7.626 -1.9979 -3.1792 -0.8273
  796MOL0     H 7407   9.361   2.954   7.772 -1.1564 -1.1418  0.4561
  796MOL0     H 7408   9.479   3.005   7.655 -0.0606 -0.5564  2.3314
  796MOL0     H 7409   9.267   3.086   7.512  2.0076  2.0080 -0.4547
  796MOL0     H 7410   9.316   3.182   7.649 -4.3351  1.2362  1.3638
  796MOL0     H 7411   9.178   3.180   7.872 -1.7398 -0.9230  2.6103
  796MOL0     H 7412   8.849   3.004   7.965  1.8400 -0.4595  2.1616
  796MOL0     H 7413   8.934   3.149   8.017 -1.9163 -2.0963  2.8968
  796MOL0     H 7414   8.736   3.223   7.982 -0.0591  2.0684  0.0327
  796MOL0     H 7415   8.705   3.121   7.844  0.9419 -0.7337 -0.8391
  796MOL0     H 7416   8.848   3.277   7.688  0.7375 -0.9501  0.4204
  796MOL0     H 7417   8.870   3.385   7.831 -1.3800 -0.2190  1.1255
  796MOL0     H 7418   8.610   3.304   7.686 -0.9533  2.4900 -2.0622
  796MOL0     H 7419   8.688   3.461   7.694 -0.2818  0.2694  0.3505
  796MOL0     H 7420   8.451   3.436   7.673 -0.8007 -1.9724 -0.2083
  796MOL0     H 7421   8.080   3.437   7.638 -0.7288  1.8673  0.5744
  796MOL0     H 7422   8.180   3.587   7.604  0.0785  0.9268  3.2393
  796MOL0     H 7423   8.226   3.422   7.550  0.7204 -0.8310  1.4294
  796MOL0     H 7424   7.850   3.774   7.951  2.5538 -2.4222 -0.8408
  796MOL0     H 7425   7.622   3.811   7.990  0.1948  0.5014  1.8566
  796MOL0     H 7426   7.345   3.480   7.804  3.8408 -1.2371  0.5925
  796MOL0     H 7427   7.352   3.431   7.974  2.6214  0.1598  0.1078
  796MOL0     H 7428   7.158   3.589   8.038 -0.7057  2.5357 -0.2557
  796MOL0     H 7429   7.162   3.659   7.887 -0.6063  0.7518  1.0988
  796MOL0     H 7430   7.117   3.362   7.950 -0.9955 -0.7052 -1.3103
  796MOL0     H 7431   7.116   3.429   7.784 -1.7213 -0.9389  0.2036
  796MOL0     H 7432   6.921   3.503   7.993 -0.2487  0.7741 -0.4018
  796MOL0     H 7433   6.940   3.582   7.841 -1.1367 -0.1919  0.0850
  796MOL0     H 7434   6.834   3.310   7.923  0.6221 -0.6783 -0.2691
  796MOL0     H 7435   6.936   3.294   7.781 -0.0460 -1.1108  0.7268
  796MOL0     H 7436   6.691   3.486   7.840  0.2477  0.0991  0.5161
  796MOL0     H 7437   6.775   3.472   7.677  1.2919 -1.4774 -0.4219
  796MOL0     H 7438   6.550   3.343   7.735  0.3295  1.4695 -0.4373
  796MOL0     H 7439   6.654   3.234   7.835  2.1587 -2.0982 -1.7620
  796MOL0     H 7440   6.769   3.149   7.651 -0.2874 -0.5605  0.9194
  796MOL0     H 7441   6.721   3.281   7.542  0.1268 -0.4753  0.5382
  796MOL0     H 7442   7.545   3.426   7.791 -1.4286  2.0883 -2.5415
  796MOL0     H 7443   7.778   3.410   7.741  1.1131  1.2612 -1.8705
  796MOL0     H 7444   8.240   3.484   8.104 -0.5081 -2.2670  0.5582
  796MOL0     H 7445   8.473   3.441   8.090  0.0772  0.2282 -0.3280
  796MOL0     H 7446   9.824   2.678   6.902 -1.3771 -0.0051  0.8545
  796MOL0     H 7447   9.981   2.581   6.749 -2.4266 -1.6669 -0.2928
  796MOL0     H 7448  10.351   2.197   6.852 -1.2039  0.7089  0.4299
  796MOL0     H 7449  10.527   2.088   6.817  2.4514 -1.2263  0.4469
  796MOL0     H 7450  10.732   1.917   6.556  0.0001 -0.8861  1.5626
  796MOL0     H 7451  10.586   1.926   6.639  2.9473 -0.5499  0.9173
  796MOL0     H 7452  10.638   1.971   6.331 -0.4727  1.0515 -0.0500
  796MOL0     H 7453  10.477   1.977   6.404  0.9898  0.8584  0.7743
  796MOL0     H 7454  10.515   1.754   6.489  3.0644 -1.1429 -0.0749
  796MOL0     H 7455  10.659   1.749   6.375  0.2291 -1.3585  1.1137
  796MOL0     H 7456  10.359   1.774   6.291  0.1742  0.2532  4.0269
  796MOL0     H 7457  10.466   1.637   6.272 -0.0187 -0.1806  0.6566
  796MOL0     H 7458  10.580   1.828   5.921  3.2513  1.0912  0.1200
  796MOL0     H 7459  10.552   2.260   6.412  1.3429  0.6331  1.0601
  796MOL0     H 7460  10.347   2.382   6.455  4.1862  1.0559 -1.4219
  797MOL0     O 7461   0.833  10.499  10.162 -0.1196  0.0781  0.0273
  797MOL0     C 7462   0.797  10.452  10.266  0.8712  0.0356 -0.0529
  797MOL0     O 7463   0.704  10.513  10.356  0.0889 -0.0702 -0.0717
  797MOL0     C 7464   0.626  10.619  10.297 -0.5127 -0.6531 -0.1688
  797MOL0     C 7465   0.687  10.742  10.284 -0.4632  0.7829 -0.0196
  797MOL0     C 7466   0.611  10.859  10.258 -0.4292 -0.0303 -0.2392
  797MOL0     C 7467   0.469  10.846  10.242 -0.7301  0.5074  0.5437
  797MOL0     O 7468   0.385  10.951  10.204  0.3372 -0.1215  0.4627
  797MOL0     C 7469   0.408  11.081  10.253  0.0242 -1.0705 -0.4530
  797MOL0     C 7470   0.276  11.146  10.267 -0.3214 -0.1273 -0.3245
  797MOL0     C 7471   0.294  11.300  10.288  0.5477  0.2393  0.2164
  797MOL0     C 7472   0.157  11.361  10.330  0.5430 -0.4416  0.5224
  797MOL0     C 7473   0.160  11.507  10.291  0.0551  0.2384 -0.6074
  797MOL0     C 7474   0.038  11.590  10.317  0.5206 -0.4715  0.3968
  797MOL0     C 7475   0.064  11.740  10.296  0.0832 -0.6340 -0.3333
  797MOL0     C 7476  -0.054  11.824  10.353  0.0086  0.6260  0.2727
  797MOL0     N 7477  -0.170  11.829  10.258 -0.2995  1.0163 -0.0531
  797MOL0     C 7478  -0.283  11.759  10.266  0.4861 -0.1149 -0.3300
  797MOL0     C 7479  -0.362  11.823  10.180 -0.0695  0.0162 -0.2643
  797MOL0     C 7480  -0.504  11.782  10.164  0.1346  0.1033 -0.1134
  797MOL0     C 7481  -0.526  11.686  10.040  0.6569  0.0593 -0.8544
  797MOL0     C 7482  -0.661  11.610  10.043 -0.3253  0.3540 -0.4117
  797MOL0     C 7483  -0.668  11.514   9.927 -0.1387  0.3025  0.5023
  797MOL0     O 7484  -0.808  11.482   9.911  0.1009  0.4247  0.1110
  797MOL0     C 7485  -0.837  11.347   9.927 -0.2787  0.0632 -0.8769
  797MOL0     C 7486  -0.806  11.276  10.047 -0.2781  0.9338  1.1677
  797MOL0     C 7487  -0.845  11.140  10.073  0.2574 -0.2268  0.7669
  797MOL0     C 7488  -0.834  11.090  10.219 -0.2030  0.8310 -0.8631
  797MOL0     C 7489  -0.915  11.066   9.973  0.1609  0.6087  0.0710
  797MOL0     C 7490  -0.952  10.921   9.993 -0.0432 -0.1417  0.1468
  797MOL0     O 7491  -0.970  10.854   9.875 -0.1313  0.5655 -0.8734
  797MOL0     C 7492  -1.037  10.730   9.887  0.6804  0.2623  0.3925
  797MOL0     C 7493  -1.169  10.728   9.844 -0.4725  0.3217  0.5892
  797MOL0     C 7494  -1.237  10.610   9.848 -0.3497 -0.4037  0.8904
  797MOL0     C 7495  -1.186  10.495   9.902 -0.1083 -0.5241 -0.2125
  797MOL0     O 7496  -1.252  10.376   9.894 -0.3895 -0.4855 -1.0609
  797MOL0     C 7497  -1.365  10.357   9.805 -0.3612 -0.0559 -0.6290
  797MOL0     C 7498  -1.409  10.208   9.825 -0.3173  0.0454  0.0525
  797MOL0     C 7499  -1.552  10.183   9.775  0.6215  0.8350  0.2969
  797MOL0     C 7500  -1.580  10.037   9.708  0.0575 -0.6878 -1.1702
  797MOL0     C 7501  -1.718  10.029   9.644  0.3543  0.3061 -0.3880
  797MOL0     C 7502  -1.824  10.032   9.754 -0.0642  0.4314 -0.8220
  797MOL0     C 7503  -1.964  10.014   9.696  0.3592  0.2737 -0.4009
  797MOL0     C 7504  -2.070  10.016   9.797 -0.1085 -0.0738  0.0255
  797MOL0    Cl 7505  -2.191   9.889   9.768 -0.5094 -0.2051 -0.2193
  797MOL0     C 7506  -1.050  10.494   9.928  0.0022 -0.7544  0.2655
  797MOL0     C 7507  -0.966  10.607   9.921 -0.1754 -0.0656 -0.3024
  797MOL0     O 7508  -0.976  10.873  10.105  0.5902 -0.4377  0.6404
  797MOL0     C 7509  -0.948  11.145   9.859  0.1018  0.4100  0.0186
  797MOL0     C 7510  -0.902  11.274   9.840 -0.0682  1.0429  0.3764
  797MOL0     N 7511  -0.287  11.901  10.100 -0.2834 -0.5715  0.1095
  797MOL0     N 7512  -0.169  11.914  10.148 -0.0128 -0.8022 -0.2287
  797MOL0     C 7513   0.409  10.716  10.241 -0.5727 -0.2174  0.3990
  797MOL0     C 7514   0.489  10.608  10.279 -0.3216 -0.4446  0.1171
  797MOL0     C 7515   0.888  10.344  10.319  0.4186  0.5636  0.2515
  797MOL0     C 7516   0.959  10.266  10.224 -1.1463  0.2484  0.3086
  797MOL0     C 7517   1.036  10.158  10.274  0.1412  1.4340  0.1006
  797MOL0     C 7518   1.046  10.137  10.411 -0.0014 -0.6140 -0.0732
  797MOL0     O 7519   1.099  10.016  10.454  0.1906 -0.6650 -0.2384
  797MOL0     C 7520   1.244  10.019  10.448  0.7066  0.1846 -0.8542
  797MOL0     C 7521   1.294  10.096  10.570  0.0647 -0.4167 -0.3801
  797MOL0     C 7522   1.444  10.073  10.594  0.1032  0.6935  0.0072
  797MOL0     C 7523   1.479  10.159  10.715  0.7477 -0.6344 -0.3473
  797MOL0     C 7524   1.620  10.153  10.754 -0.3154  0.1162  0.6220
  797MOL0     C 7525   1.739  10.174  10.779  0.3456 -0.0882 -0.5173
  797MOL0     C 7526   0.975  10.215  10.506  1.3951  1.1875  0.1610
  797MOL0     C 7527   0.902  10.317  10.450  0.2444 -0.7152 -0.8085
  797MOL0     H 7528   0.795  10.738  10.297 -0.6591  0.1069  1.5699
  797MOL0     H 7529   0.675  10.946  10.244  0.7592 -0.7399  0.5465
  797MOL0     H 7530   0.445  11.083  10.356 -1.6993  1.6007  0.2216
  797MOL0     H 7531   0.474  11.134  10.183  0.7428  0.7190  1.4885
  797MOL0     H 7532   0.206  11.124  10.186 -1.4180 -2.2544  1.1224
  797MOL0     H 7533   0.234  11.104  10.359 -0.7177  1.7793  0.4154
  797MOL0     H 7534   0.362  11.325  10.370 -0.6470  0.5844  1.1364
  797MOL0     H 7535   0.343  11.349  10.203  0.5781  2.1118  1.2600
  797MOL0     H 7536   0.081  11.314  10.265  2.0365  1.1256 -2.5812
  797MOL0     H 7537   0.143  11.354  10.438  3.5041 -0.6645  0.9668
  797MOL0     H 7538   0.245  11.557  10.338 -1.8415 -0.6860  4.4282
  797MOL0     H 7539   0.175  11.508  10.182 -0.6287  1.1416 -0.7055
  797MOL0     H 7540  -0.052  11.558  10.263 -0.7230  2.3441  0.6336
  797MOL0     H 7541   0.002  11.572  10.418 -2.1025  2.0184  0.0338
  797MOL0     H 7542   0.154  11.757  10.357 -0.6704  0.1683  0.5849
  797MOL0     H 7543   0.074  11.763  10.190 -0.4638  0.4302 -0.1698
  797MOL0     H 7544  -0.013  11.921  10.379  3.0879 -0.3317 -0.5441
  797MOL0     H 7545  -0.088  11.774  10.444  1.4347  0.0981  0.5402
  797MOL0     H 7546  -0.300  11.679  10.337  0.8867 -0.0295 -0.1330
  797MOL0     H 7547  -0.533  11.734  10.258  0.5897 -0.4950 -0.2778
  797MOL0     H 7548  -0.573  11.867  10.174 -0.2978 -0.3733  1.1849
  797MOL0     H 7549  -0.448  11.610  10.027 -2.2086 -3.3782  0.4819
  797MOL0     H 7550  -0.530  11.747   9.948 -0.8658  2.0124  0.4252
  797MOL0     H 7551  -0.746  11.678  10.027 -0.6603 -0.4608 -2.3732
  797MOL0     H 7552  -0.658  11.555  10.137  2.8839  3.4840  1.5783
  797MOL0     H 7553  -0.611  11.423   9.949 -2.1620 -0.9688  0.7529
  797MOL0     H 7554  -0.625  11.566   9.842  1.0421 -0.3917  0.6596
  797MOL0     H 7555  -0.748  11.327  10.123  0.9202 -2.4998  2.7579
  797MOL0     H 7556  -0.807  10.985  10.235  1.5691  1.0396 -2.1303
  797MOL0     H 7557  -0.748  11.135  10.269 -0.0686 -0.4938  0.1595
  797MOL0     H 7558  -0.933  11.110  10.261 -0.6051  0.2492 -1.5116
  797MOL0     H 7559  -1.226  10.813   9.807 -2.9193 -1.7590 -0.7154
  797MOL0     H 7560  -1.340  10.619   9.815  0.1802  0.7039 -0.5726
  797MOL0     H 7561  -1.451  10.419   9.831  0.3469 -0.0246  1.9523
  797MOL0     H 7562  -1.330  10.372   9.703  2.0398  1.3167  0.3041
  797MOL0     H 7563  -1.338  10.147   9.768  1.7758  1.2733  1.2430
  797MOL0     H 7564  -1.398  10.180   9.930  1.4748 -2.6939 -0.7595
  797MOL0     H 7565  -1.580  10.256   9.698 -0.1095  0.6962  0.4238
  797MOL0     H 7566  -1.613  10.191   9.866  1.0148 -0.7921  0.7229
  797MOL0     H 7567  -1.505  10.016   9.632  0.8789  1.6263 -1.0648
  797MOL0     H 7568  -1.584   9.960   9.785 -2.0838  0.2723 -0.2202
  797MOL0     H 7569  -1.729   9.943   9.577  0.1577  0.9839 -1.2495
  797MOL0     H 7570  -1.730  10.111   9.573 -1.7291  0.1968 -0.2230
  797MOL0     H 7571  -1.807   9.955   9.830  1.2602 -0.3747 -1.8892
  797MOL0     H 7572  -1.807  10.129   9.802  0.1478 -0.6728  1.5019
  797MOL0     H 7573  -1.973   9.917   9.646 -2.0139 -0.3485  1.1244
  797MOL0     H 7574  -1.990  10.084   9.616 -1.2684  0.4208  0.2276
  797MOL0     H 7575  -2.109  10.118   9.805  1.0920  0.2594  2.5923
  797MOL0     H 7576  -2.041  10.008   9.902 -0.0425  0.8331  0.0856
  797MOL0     H 7577  -0.998  10.403   9.958  0.9145 -0.9493 -1.7497
  797MOL0     H 7578  -0.865  10.605   9.959 -0.4015  0.9865  0.3839
  797MOL0     H 7579  -1.006  11.093   9.784  0.6695 -0.4421  0.1521
  797MOL0     H 7580  -0.916  11.321   9.744  0.1903  1.2488  0.4376
  797MOL0     H 7581   0.301  10.708  10.240 -0.9218  2.4123  2.6077
  797MOL0     H 7582   0.434  10.516  10.295  0.1475 -0.7495 -0.0163
  797MOL0     H 7583   0.964  10.300  10.121  0.4725  0.3882  0.4041
  797MOL0     H 7584   1.101  10.105  10.205  0.2748 -0.7447  1.7972
  797MOL0     H 7585   1.282   9.916  10.450  0.0315 -0.0890  1.6917
  797MOL0     H 7586   1.278  10.068  10.356 -1.1781  1.7316 -0.7929
  797MOL0     H 7587   1.243  10.072  10.664  1.0545 -2.4563 -0.3168
  797MOL0     H 7588   1.277  10.200  10.538 -1.9835 -0.8087 -0.6817
  797MOL0     H 7589   1.499  10.108  10.506 -1.5993  1.2543 -0.8765
  797MOL0     H 7590   1.476   9.969  10.604 -0.0132 -0.2461 -5.9580
  797MOL0     H 7591   1.425  10.128  10.805 -0.2325 -0.7201 -0.9548
  797MOL0     H 7592   1.461  10.262  10.681  2.6905 -1.1482 -3.2944
  797MOL0     H 7593   1.844  10.182  10.803 -0.1335 -1.5265  2.6057
  797MOL0     H 7594   0.981  10.194  10.612  0.2536 -0.2962 -0.0442
  797MOL0     H 7595   0.847  10.380  10.520  0.5074  0.0602 -1.2787
  798MOL0     O 7596   6.240   7.977   9.805 -0.6091  0.4093  0.4754
  798MOL0     C 7597   6.354   7.928   9.821 -0.0013  0.3175 -0.2217
  798MOL0     O 7598   6.465   7.979   9.767 -0.5055 -0.6575  0.1476
  798MOL0     C 7599   6.466   8.114   9.756 -1.5197 -0.3744 -0.2893
  798MOL0     C 7600   6.490   8.192   9.867 -0.0334  0.1178 -0.0020
  798MOL0     C 7601   6.507   8.338   9.849  0.4942  0.5400 -0.3115
  798MOL0     C 7602   6.504   8.393   9.720  0.4451  0.0735 -0.0217
  798MOL0     O 7603   6.546   8.520   9.683 -0.6105 -0.4813 -0.3858
  798MOL0     C 7604   6.574   8.615   9.787 -1.1340  1.0046 -0.7720
  798MOL0     C 7605   6.622   8.746   9.723  0.5458 -0.3336  0.4076
  798MOL0     C 7606   6.751   8.733   9.641 -0.1781 -0.3151  0.0496
  798MOL0     C 7607   6.869   8.794   9.709 -0.5211  0.6242 -0.2537
  798MOL0     C 7608   6.930   8.712   9.825  0.6147  0.2701 -0.3781
  798MOL0     C 7609   7.067   8.765   9.877 -0.5218  0.3384 -0.1345
  798MOL0     C 7610   7.178   8.754   9.768 -0.1161  0.9474 -0.4202
  798MOL0     C 7611   7.318   8.740   9.832 -0.1806 -0.5335  0.5712
  798MOL0     N 7612   7.389   8.864   9.856 -0.3248 -0.3291 -0.5227
  798MOL0     C 7613   7.352   8.977   9.920  0.3197 -0.2515  0.7863
  798MOL0     C 7614   7.467   9.064   9.909  0.6467  1.1023  0.5888
  798MOL0     C 7615   7.454   9.204   9.957  0.1131 -0.4081 -0.8037
  798MOL0     C 7616   7.357   9.276   9.868  0.3039 -0.8081  0.4383
  798MOL0     C 7617   7.373   9.429   9.899 -0.8174  0.3093  0.3047
  798MOL0     C 7618   7.318   9.500   9.775  0.5655 -0.3475  0.0142
  798MOL0     O 7619   7.178   9.477   9.770 -0.6415  0.2928 -0.3014
  798MOL0     C 7620   7.119   9.596   9.762  0.4452  0.3210 -0.7497
  798MOL0     C 7621   7.088   9.663   9.889 -0.3479 -0.5278  0.0461
  798MOL0     C 7622   7.001   9.772   9.896  0.7575  0.2654 -0.6976
  798MOL0     C 7623   6.971   9.827  10.026 -0.4014  0.3247 -0.2163
  798MOL0     C 7624   6.944   9.832   9.765 -0.8649 -0.2213 -0.5508
  798MOL0     C 7625   6.859   9.952   9.757  0.9022 -0.3653 -0.3734
  798MOL0     O 7626   6.786   9.971   9.639 -0.4662 -0.5863 -0.1263
  798MOL0     C 7627   6.654   9.992   9.641  0.8052 -0.5071 -0.8727
  798MOL0     C 7628   6.603  10.122   9.625  0.5933  0.6620  0.1803
  798MOL0     C 7629   6.463  10.144   9.628  0.2549 -0.2341  0.8521
  798MOL0     C 7630   6.376  10.040   9.637 -0.3593  0.1297  0.1378
  798MOL0     O 7631   6.240  10.051   9.659 -0.4653 -0.7562 -0.2207
  798MOL0     C 7632   6.157  10.040   9.544 -0.9916 -0.3159 -0.6131
  798MOL0     C 7633   6.050   9.940   9.555  0.3859 -0.1896  0.0727
  798MOL0     C 7634   5.949   9.931   9.447  0.3754  0.8696  0.2346
  798MOL0     C 7635   5.861  10.054   9.437  0.7162 -0.0702 -0.7090
  798MOL0     C 7636   5.740  10.036   9.354 -0.1287 -0.0084 -0.1351
  798MOL0     C 7637   5.625  10.146   9.379 -0.2803 -0.0961 -0.2426
  798MOL0     C 7638   5.568  10.168   9.517 -0.0246 -0.1570  0.2212
  798MOL0     C 7639   5.450  10.267   9.510  0.4682  0.3338  0.5133
  798MOL0    Cl 7640   5.302  10.198   9.439 -0.1474 -0.1316 -0.0088
  798MOL0     C 7641   6.426   9.908   9.646 -0.4366  0.1240  0.4144
  798MOL0     C 7642   6.563   9.889   9.650  0.9408  0.4467 -0.9075
  798MOL0     O 7643   6.850  10.023   9.845  0.8826 -0.5264 -0.3692
  798MOL0     C 7644   6.980   9.759   9.646  0.0895 -0.0870  0.2426
  798MOL0     C 7645   7.065   9.643   9.647 -0.5177  0.4039 -0.2523
  798MOL0     N 7646   7.566   8.997   9.848  1.0336  0.7406  0.0298
  798MOL0     N 7647   7.518   8.884   9.811 -0.2264 -0.5373  0.1662
  798MOL0     C 7648   6.481   8.308   9.616 -0.0027 -0.5896 -0.2417
  798MOL0     C 7649   6.463   8.173   9.631 -0.1201 -0.5512  0.2884
  798MOL0     C 7650   6.358   7.784   9.858  0.0462 -0.1061  0.3233
  798MOL0     C 7651   6.233   7.721   9.905 -0.6933 -0.8181 -1.3095
  798MOL0     C 7652   6.238   7.587   9.926 -0.9410  0.6447  0.5398
  798MOL0     C 7653   6.354   7.502   9.900  0.2582 -0.1676  0.0055
  798MOL0     O 7654   6.357   7.366   9.908  0.4835 -0.4499 -0.1600
  798MOL0     C 7655   6.286   7.304   9.801 -0.3155 -0.8863 -0.4925
  798MOL0     C 7656   6.375   7.211   9.711  0.3119 -0.7120  0.1706
  798MOL0     C 7657   6.452   7.113   9.798 -0.1229  0.3221  0.3947
  798MOL0     C 7658   6.499   6.995   9.716 -0.0180  0.2753  0.1742
  798MOL0     C 7659   6.594   6.906   9.776  0.0123 -0.5106  0.9232
  798MOL0     C 7660   6.678   6.840   9.835 -0.9312 -0.3900 -0.7861
  798MOL0     C 7661   6.467   7.570   9.854 -0.0316 -0.3039  0.6739
  798MOL0     C 7662   6.473   7.705   9.839  0.5997 -0.2866  0.1005
  798MOL0     H 7663   6.515   8.154   9.966  1.4838 -0.0511 -0.4116
  798MOL0     H 7664   6.545   8.399   9.931  2.6717 -1.0289 -0.0406
  798MOL0     H 7665   6.477   8.625   9.836  0.8968  0.5636  3.8962
  798MOL0     H 7666   6.648   8.595   9.866  0.0330 -1.6065 -2.3679
  798MOL0     H 7667   6.537   8.781   9.663 -0.2149 -1.1394  0.9935
  798MOL0     H 7668   6.624   8.825   9.798  1.2709  2.3333 -2.2219
  798MOL0     H 7669   6.769   8.630   9.609 -1.1033  0.0243 -1.6818
  798MOL0     H 7670   6.748   8.796   9.552  0.7899  1.0993  0.9580
  798MOL0     H 7671   6.943   8.815   9.631 -2.4721  2.1340 -1.7997
  798MOL0     H 7672   6.847   8.891   9.755  0.7386  3.2420 -4.6277
  798MOL0     H 7673   6.860   8.709   9.909  0.1196 -2.1225 -0.7984
  798MOL0     H 7674   6.951   8.612   9.785  1.4944  0.3796 -0.2217
  798MOL0     H 7675   7.055   8.868   9.912  0.1083  0.4774 -0.3336
  798MOL0     H 7676   7.084   8.697   9.961 -1.4832 -1.9471 -1.7026
  798MOL0     H 7677   7.166   8.661   9.712 -2.0841 -2.3123  4.7573
  798MOL0     H 7678   7.177   8.843   9.703 -0.8548 -1.0567 -3.3796
  798MOL0     H 7679   7.375   8.671   9.769  1.5184 -1.6906  3.2105
  798MOL0     H 7680   7.301   8.696   9.930 -1.4332  1.4962  1.3327
  798MOL0     H 7681   7.257   9.000   9.966 -0.7909 -2.4844 -0.2544
  798MOL0     H 7682   7.420   9.212  10.060  0.8772  0.3829 -0.6098
  798MOL0     H 7683   7.552   9.251   9.961  0.7583 -1.7585  0.2645
  798MOL0     H 7684   7.254   9.247   9.891 -0.6433  0.6713 -1.5315
  798MOL0     H 7685   7.381   9.257   9.763  0.7799 -0.5954  0.5074
  798MOL0     H 7686   7.475   9.462   9.921 -0.7569  0.7418 -0.5950
  798MOL0     H 7687   7.322   9.451   9.993 -0.8471  1.2408  0.0822
  798MOL0     H 7688   7.371   9.465   9.686  2.3142 -1.5885  1.4568
  798MOL0     H 7689   7.340   9.606   9.792 -2.6079  0.2797  0.9255
  798MOL0     H 7690   7.131   9.610   9.974 -1.9689 -2.6141 -0.3547
  798MOL0     H 7691   7.021   9.766  10.102  0.0867  1.9181  0.7851
  798MOL0     H 7692   7.008   9.929  10.033 -2.0292  0.8845  0.9617
  798MOL0     H 7693   6.863   9.827  10.047  0.1372 -0.8867  3.2892
  798MOL0     H 7694   6.665  10.210   9.608 -2.0814  2.4999 -0.6637
  798MOL0     H 7695   6.425  10.245   9.637 -1.5851 -0.9124  1.1376
  798MOL0     H 7696   6.117  10.140   9.523 -0.2327  0.1920  0.2830
  798MOL0     H 7697   6.223  10.015   9.461  1.8885  1.0177  1.1220
  798MOL0     H 7698   6.089   9.839   9.573 -1.3397 -1.3235 -2.0569
  798MOL0     H 7699   5.997   9.957   9.649  1.9426 -1.6199  1.2791
  798MOL0     H 7700   5.882   9.846   9.454  0.6412  0.5374 -0.9835
  798MOL0     H 7701   6.004   9.911   9.354  0.5489 -2.1668  0.9022
  798MOL0     H 7702   5.829  10.083   9.537 -0.9484 -0.2728 -1.1554
  798MOL0     H 7703   5.918  10.139   9.397 -0.5024  0.6472 -0.9664
  798MOL0     H 7704   5.690   9.940   9.371 -0.2887 -0.1983 -1.5635
  798MOL0     H 7705   5.761  10.044   9.247 -1.6875 -2.9700 -0.7907
  798MOL0     H 7706   5.663  10.243   9.346  0.4352  0.9481  3.2295
  798MOL0     H 7707   5.539  10.130   9.314 -0.3093  2.6333 -0.9907
  798MOL0     H 7708   5.650  10.203   9.580  0.1788  1.2529 -0.7790
  798MOL0     H 7709   5.547  10.067   9.553  1.0287 -0.4633  0.0056
  798MOL0     H 7710   5.479  10.360   9.461  1.4133 -0.1744  0.0645
  798MOL0     H 7711   5.432  10.312   9.608 -1.5254 -0.5719  0.6042
  798MOL0     H 7712   6.360   9.822   9.660 -0.6689  0.5064  1.8718
  798MOL0     H 7713   6.595   9.785   9.656 -0.3339  0.0821  0.0171
  798MOL0     H 7714   6.947   9.795   9.550 -1.4610 -5.1204 -1.4462
  798MOL0     H 7715   7.089   9.594   9.553  1.1795  0.2216  0.2546
  798MOL0     H 7716   6.486   8.361   9.522  1.2494  0.4380  0.3685
  798MOL0     H 7717   6.428   8.121   9.543  2.0889  0.2808 -1.1460
  798MOL0     H 7718   6.145   7.784   9.911 -0.1852 -0.0243 -1.9474
  798MOL0     H 7719   6.151   7.538   9.970 -1.3567  0.1212 -0.8297
  798MOL0     H 7720   6.204   7.252   9.851 -2.3506  1.3991 -1.2825
  798MOL0     H 7721   6.238   7.376   9.734 -0.1964  1.9073  2.2337
  798MOL0     H 7722   6.450   7.262   9.650  0.2844 -2.0434 -1.0267
  798MOL0     H 7723   6.310   7.160   9.639  0.7491  0.0131 -0.7701
  798MOL0     H 7724   6.387   7.058   9.865 -0.3366  2.5446  2.1234
  798MOL0     H 7725   6.530   7.162   9.858  1.5577 -0.1993 -1.2534
  798MOL0     H 7726   6.544   7.028   9.622  0.3489  0.0333  0.2651
  798MOL0     H 7727   6.413   6.937   9.681 -0.0872 -0.5676  1.6671
  798MOL0     H 7728   6.757   6.789   9.887  1.1710  1.5346 -1.8686
  798MOL0     H 7729   6.554   7.513   9.822 -0.7387  0.9447 -4.2723
  798MOL0     H 7730   6.557   7.754   9.791 -0.0325 -1.2422 -2.1092
  799MOL0     O 7731   2.236   7.051   6.160  0.0908  0.0823 -0.5693
  799MOL0     C 7732   2.276   7.154   6.213 -0.0027  0.2773  1.1405
  799MOL0     O 7733   2.210   7.274   6.201  0.8328  0.6533 -0.6157
  799MOL0     C 7734   2.095   7.290   6.115  0.6908  0.3894 -0.9790
  799MOL0     C 7735   1.969   7.282   6.173  0.8090  0.0884 -0.3115
  799MOL0     C 7736   1.855   7.288   6.087  0.4643 -0.1589  0.0010
  799MOL0     C 7737   1.867   7.297   5.951 -0.1054 -0.7812  0.1632
  799MOL0     O 7738   1.753   7.324   5.881  0.2590  0.2237  0.2004
  799MOL0     C 7739   1.724   7.214   5.791 -0.1034  0.6452  0.3933
  799MOL0     C 7740   1.573   7.206   5.772 -0.2114  0.1838  0.0422
  799MOL0     C 7741   1.521   7.298   5.656 -0.5691  0.1627  0.3672
  799MOL0     C 7742   1.371   7.319   5.655  0.1858  0.6709  0.1394
  799MOL0     C 7743   1.311   7.433   5.575 -0.0983 -0.0122  0.0952
  799MOL0     C 7744   1.154   7.420   5.566  0.0876  0.7278  0.2381
  799MOL0     C 7745   1.112   7.514   5.463 -0.6070  0.2203  0.2354
  799MOL0     C 7746   0.962   7.524   5.446  0.6465 -0.6416  0.6827
  799MOL0     N 7747   0.871   7.406   5.428 -0.3595 -1.0839 -0.1936
  799MOL0     C 7748   0.798   7.368   5.321 -0.2659 -0.7623 -0.2232
  799MOL0     C 7749   0.739   7.254   5.354  0.1386  0.2931  0.1121
  799MOL0     C 7750   0.645   7.177   5.264 -1.1180  0.2508  0.3664
  799MOL0     C 7751   0.526   7.109   5.340  0.3421  0.0067 -1.2928
  799MOL0     C 7752   0.434   7.209   5.416  0.7039  0.2957  0.4749
  799MOL0     C 7753   0.315   7.136   5.488 -0.2679  0.5855 -0.1884
  799MOL0     O 7754   0.228   7.090   5.384 -0.1331 -0.7009  0.9383
  799MOL0     C 7755   0.096   7.066   5.412  0.3353  0.1898  0.6761
  799MOL0     C 7756   0.038   7.079   5.542 -0.7334 -1.0320  0.8668
  799MOL0     C 7757  -0.097   7.092   5.551  1.3699 -0.6681 -0.1678
  799MOL0     C 7758  -0.154   7.105   5.698 -0.3544  0.2010 -0.4230
  799MOL0     C 7759  -0.181   7.071   5.440  0.2503  0.4356 -0.0348
  799MOL0     C 7760  -0.328   7.064   5.450 -0.4453 -0.4418  0.7709
  799MOL0     O 7761  -0.396   6.978   5.373  0.9672 -0.5633 -0.5824
  799MOL0     C 7762  -0.530   6.979   5.366  0.0004 -0.9970  0.6022
  799MOL0     C 7763  -0.594   7.037   5.250  0.5974 -1.3464  0.4859
  799MOL0     C 7764  -0.734   7.046   5.248  1.0145  0.4800  0.6346
  799MOL0     C 7765  -0.819   7.008   5.351  0.4649 -0.3419 -0.5733
  799MOL0     O 7766  -0.954   7.010   5.350 -0.4144 -0.1045  0.0230
  799MOL0     C 7767  -1.013   7.028   5.223  0.2421 -0.0799  0.0873
  799MOL0     C 7768  -1.163   6.998   5.223  0.1792  0.3713 -0.3718
  799MOL0     C 7769  -1.199   6.843   5.250 -0.9046 -0.1684  0.2631
  799MOL0     C 7770  -1.351   6.828   5.269  0.4436  0.9190 -0.0249
  799MOL0     C 7771  -1.390   6.678   5.298 -0.5223 -0.3198  1.1579
  799MOL0     C 7772  -1.541   6.661   5.323  0.2970 -0.5595 -0.7352
  799MOL0     C 7773  -1.568   6.517   5.365  0.1793 -0.4651  0.1763
  799MOL0     C 7774  -1.582   6.434   5.241 -0.4779 -0.1709 -0.4398
  799MOL0    Cl 7775  -1.634   6.261   5.280 -0.4117  0.0292  0.5987
  799MOL0     C 7776  -0.750   6.963   5.467 -0.8618 -0.3018  0.7091
  799MOL0     C 7777  -0.609   6.942   5.471  0.2209  0.0486 -0.0369
  799MOL0     O 7778  -0.374   7.141   5.534 -0.3235 -0.4010  0.2484
  799MOL0     C 7779  -0.124   7.049   5.311 -0.6192  0.0484  0.4261
  799MOL0     C 7780   0.009   7.055   5.298 -0.1683  0.6317  0.2181
  799MOL0     N 7781   0.766   7.232   5.485  0.7985  1.0636 -0.1258
  799MOL0     N 7782   0.846   7.320   5.526 -0.4580  0.2882 -0.1845
  799MOL0     C 7783   1.996   7.302   5.894 -0.1677 -0.1866  0.3886
  799MOL0     C 7784   2.109   7.296   5.979  0.7386 -1.1374  0.3858
  799MOL0     C 7785   2.391   7.147   6.306 -0.9062 -0.1822 -0.5252
  799MOL0     C 7786   2.464   7.262   6.332 -0.0376 -0.2936 -0.2952
  799MOL0     C 7787   2.567   7.266   6.430 -0.2702 -0.1193  0.1031
  799MOL0     C 7788   2.603   7.144   6.493  0.4213 -0.5056  0.3398
  799MOL0     O 7789   2.713   7.147   6.577 -0.6228 -0.4961  0.3675
  799MOL0     C 7790   2.791   7.035   6.583 -0.3570  0.4808 -0.1530
  799MOL0     C 7791   2.890   7.044   6.457  0.0842 -0.0383 -0.7152
  799MOL0     C 7792   3.031   6.998   6.494  0.8315 -0.2030  0.4241
  799MOL0     C 7793   3.109   7.004   6.360  0.1236  0.1187 -0.5037
  799MOL0     C 7794   3.255   7.014   6.394  0.5487 -0.3492  0.5812
  799MOL0     C 7795   3.371   7.014   6.428 -0.7938 -1.0189 -0.1862
  799MOL0     C 7796   2.522   7.030   6.469  0.7057 -0.2604 -0.2209
  799MOL0     C 7797   2.428   7.025   6.368  0.0547  0.4414  0.6630
  799MOL0     H 7798   1.947   7.285   6.279 -1.5480  0.1995 -0.7514
  799MOL0     H 7799   1.752   7.289   6.121  1.0318 -0.0978  1.8084
  799MOL0     H 7800   1.778   7.229   5.697  0.7709  2.9393  1.1931
  799MOL0     H 7801   1.763   7.119   5.829  2.0042  0.7051 -1.4212
  799MOL0     H 7802   1.539   7.105   5.748  0.5221  0.2322 -1.3118
  799MOL0     H 7803   1.525   7.241   5.864  0.2931  0.4660  0.2016
  799MOL0     H 7804   1.565   7.397   5.674 -1.9996  0.6819  1.1618
  799MOL0     H 7805   1.555   7.255   5.561  1.4933 -3.0448  2.3710
  799MOL0     H 7806   1.326   7.226   5.619 -2.2444  1.3312  1.2490
  799MOL0     H 7807   1.323   7.325   5.753 -3.6859  0.0443 -1.5065
  799MOL0     H 7808   1.349   7.531   5.604 -0.2110  0.2561 -0.6188
  799MOL0     H 7809   1.357   7.413   5.477  0.9616  1.0171  0.3683
  799MOL0     H 7810   1.125   7.316   5.554  1.8122  0.2020  0.2806
  799MOL0     H 7811   1.108   7.453   5.659 -0.0010 -1.4518  1.0161
  799MOL0     H 7812   1.143   7.617   5.487  0.6958 -0.3868  1.3234
  799MOL0     H 7813   1.157   7.488   5.366 -3.5352  0.5055 -1.3080
  799MOL0     H 7814   0.955   7.584   5.355 -0.5114  0.7330  1.6437
  799MOL0     H 7815   0.926   7.584   5.530 -2.2170 -0.2229 -0.7420
  799MOL0     H 7816   0.786   7.422   5.228 -1.0231 -0.3889  0.0801
  799MOL0     H 7817   0.594   7.239   5.190 -2.7656  0.0857  1.3168
  799MOL0     H 7818   0.705   7.099   5.215 -2.3171 -1.2843  1.2423
  799MOL0     H 7819   0.558   7.039   5.418 -1.7020  1.7947  1.2899
  799MOL0     H 7820   0.462   7.054   5.271 -0.8892 -3.1380  2.0348
  799MOL0     H 7821   0.391   7.283   5.348  1.5720  0.3710 -0.0053
  799MOL0     H 7822   0.501   7.268   5.479  0.9834  0.0485  0.4099
  799MOL0     H 7823   0.273   7.210   5.556 -1.0464 -1.5060  1.7267
  799MOL0     H 7824   0.343   7.047   5.545  2.0041 -0.5550 -2.8280
  799MOL0     H 7825   0.100   7.081   5.631 -2.3130  1.7853  2.0418
  799MOL0     H 7826  -0.157   7.211   5.725  2.0193  0.3867 -0.7235
  799MOL0     H 7827  -0.255   7.064   5.715 -0.6528  0.6473 -1.1026
  799MOL0     H 7828  -0.082   7.056   5.765 -2.0827 -0.3785  1.1209
  799MOL0     H 7829  -0.541   7.071   5.162 -0.4509 -1.6556 -0.2887
  799MOL0     H 7830  -0.776   7.081   5.155  0.3349  0.1854  0.8284
  799MOL0     H 7831  -0.982   7.128   5.190  1.3720 -1.0868 -2.1640
  799MOL0     H 7832  -0.968   6.960   5.150  0.8239  0.6755 -0.2738
  799MOL0     H 7833  -1.214   7.071   5.285 -0.5957  1.3044 -2.0280
  799MOL0     H 7834  -1.197   7.019   5.121 -0.2621  0.2087 -0.2650
  799MOL0     H 7835  -1.137   6.810   5.334  0.4578  0.5238 -0.4340
  799MOL0     H 7836  -1.155   6.795   5.162 -1.5557  1.9728 -1.3228
  799MOL0     H 7837  -1.386   6.896   5.348  2.0404  2.0041 -0.2096
  799MOL0     H 7838  -1.413   6.853   5.182 -1.4388 -2.0423  0.3078
  799MOL0     H 7839  -1.336   6.647   5.388 -0.3671  0.6642  1.4157
  799MOL0     H 7840  -1.355   6.620   5.212 -1.9244 -1.4204  1.2938
  799MOL0     H 7841  -1.568   6.727   5.406 -0.8799  0.3926 -1.8339
  799MOL0     H 7842  -1.599   6.688   5.234 -1.4723 -0.2064  0.4636
  799MOL0     H 7843  -1.662   6.498   5.417 -0.7021 -0.7500 -1.4528
  799MOL0     H 7844  -1.491   6.495   5.439  0.0739  0.8447  0.6975
  799MOL0     H 7845  -1.484   6.430   5.192 -0.9608  0.7825 -1.5367
  799MOL0     H 7846  -1.648   6.473   5.163 -2.5464 -4.1736 -0.9711
  799MOL0     H 7847  -0.803   6.934   5.557  1.0270 -1.1149  1.6149
  799MOL0     H 7848  -0.566   6.894   5.558  0.5557 -1.1200 -0.8180
  799MOL0     H 7849  -0.195   7.019   5.234 -0.2635 -0.4140  0.2729
  799MOL0     H 7850   0.043   7.054   5.195 -1.3357  0.6402 -0.1762
  799MOL0     H 7851   2.024   7.309   5.790 -1.6721 -1.0929 -0.1148
  799MOL0     H 7852   2.207   7.302   5.933  0.4606 -0.7170 -0.1758
  799MOL0     H 7853   2.429   7.354   6.288  2.9052  1.3630  0.5578
  799MOL0     H 7854   2.627   7.356   6.427  0.6352 -0.7399 -0.7304
  799MOL0     H 7855   2.850   7.035   6.675 -2.4478  0.6776  1.2440
  799MOL0     H 7856   2.740   6.938   6.582 -0.1517  0.3720 -0.0798
  799MOL0     H 7857   2.885   7.146   6.420  1.8261  0.6597  0.8288
  799MOL0     H 7858   2.845   6.980   6.380  0.1267  0.7708 -1.4195
  799MOL0     H 7859   3.034   6.894   6.529 -2.6419 -1.0198 -1.2236
  799MOL0     H 7860   3.076   7.073   6.559 -2.6313  3.9443 -1.4899
  799MOL0     H 7861   3.075   7.090   6.301  1.3597  1.9602  1.3406
  799MOL0     H 7862   3.087   6.915   6.299  2.5846 -0.8794 -0.0351
  799MOL0     H 7863   3.470   7.019   6.469 -1.2083 -0.3706  0.7652
  799MOL0     H 7864   2.546   6.941   6.527 -0.7689  0.9315  2.4038
  799MOL0     H 7865   2.391   6.925   6.349  0.5471  0.0818  1.5410
  800MOL0     O 7866   0.313   4.037   6.213 -0.1858 -0.0599 -0.4714
  800MOL0     C 7867   0.311   4.036   6.089 -0.4951 -0.3601  0.0017
  800MOL0     O 7868   0.201   4.020   6.014  0.0453  0.0513 -0.6799
  800MOL0     C 7869   0.085   3.988   6.067 -0.5637  0.4466 -0.6617
  800MOL0     C 7870   0.054   3.915   6.182  0.1436  0.4047 -0.0626
  800MOL0     C 7871  -0.079   3.901   6.215  0.3057 -0.6961  0.2911
  800MOL0     C 7872  -0.192   3.949   6.136  0.1552  0.1716 -1.2056
  800MOL0     O 7873  -0.327   3.940   6.171 -0.0544 -0.2087  0.2731
  800MOL0     C 7874  -0.353   3.919   6.306 -0.3921 -0.3068  1.6366
  800MOL0     C 7875  -0.364   3.767   6.339  0.2704 -0.5654  0.6492
  800MOL0     C 7876  -0.490   3.710   6.274  0.3751  0.3685 -0.1345
  800MOL0     C 7877  -0.587   3.673   6.383  0.1464  0.3493 -1.0175
  800MOL0     C 7878  -0.739   3.675   6.333  0.0530 -1.2403  0.2462
  800MOL0     C 7879  -0.840   3.627   6.433  0.4706 -0.2508 -0.6410
  800MOL0     C 7880  -0.975   3.639   6.358  0.5715  0.4599  0.3587
  800MOL0     C 7881  -1.087   3.630   6.471  0.1452  0.4124  0.6963
  800MOL0     N 7882  -1.222   3.644   6.420 -0.0500  0.3564  0.5709
  800MOL0     C 7883  -1.296   3.547   6.364 -0.2518  1.2206  1.1333
  800MOL0     C 7884  -1.418   3.606   6.329 -0.5524 -0.3660  0.2854
  800MOL0     C 7885  -1.543   3.530   6.275 -0.4894 -0.0413 -0.2295
  800MOL0     C 7886  -1.618   3.444   6.383  0.4694  0.1945 -0.0951
  800MOL0     C 7887  -1.707   3.328   6.345  0.3532 -0.5357  0.1694
  800MOL0     C 7888  -1.790   3.372   6.229  0.5360  0.1600 -0.3067
  800MOL0     O 7889  -1.925   3.408   6.275  0.3438  0.3444  0.5285
  800MOL0     C 7890  -2.034   3.332   6.250  0.1875  0.2792 -0.4898
  800MOL0     C 7891  -2.137   3.352   6.336  0.1120 -0.2931 -0.5908
  800MOL0     C 7892  -2.274   3.315   6.312  0.3665 -0.3009 -0.0610
  800MOL0     C 7893  -2.369   3.354   6.414 -0.0072 -0.2892 -0.5623
  800MOL0     C 7894  -2.290   3.228   6.198  0.7785 -0.5227 -0.6718
  800MOL0     C 7895  -2.420   3.167   6.169  0.0927  0.7194 -1.0656
  800MOL0     O 7896  -2.435   3.131   6.042 -0.2488  0.2623 -0.4796
  800MOL0     C 7897  -2.539   3.063   5.982 -1.1055  0.0104  0.2725
  800MOL0     C 7898  -2.602   3.128   5.876  0.1097 -0.1151 -0.2100
  800MOL0     C 7899  -2.715   3.065   5.820 -0.5162 -0.2422  0.3516
  800MOL0     C 7900  -2.761   2.943   5.845  0.0269 -0.2889  0.2473
  800MOL0     O 7901  -2.880   2.913   5.783  0.5267 -0.7409 -0.8159
  800MOL0     C 7902  -2.956   2.802   5.836 -0.0122  0.0756 -0.2294
  800MOL0     C 7903  -3.073   2.780   5.752 -0.6228  0.4822  1.3601
  800MOL0     C 7904  -3.176   2.898   5.741 -0.2705  0.1802 -0.3156
  800MOL0     C 7905  -3.288   2.898   5.641  0.3657 -0.3191  0.0448
  800MOL0     C 7906  -3.373   3.036   5.632 -0.8689  0.0723  0.0293
  800MOL0     C 7907  -3.483   3.038   5.523 -0.0224  0.4243 -1.1391
  800MOL0     C 7908  -3.578   3.158   5.536 -0.0573 -0.5719  0.7015
  800MOL0     C 7909  -3.637   3.185   5.404  0.2183  0.4921 -0.4938
  800MOL0    Cl 7910  -3.732   3.049   5.352 -0.5207 -0.0731  0.4286
  800MOL0     C 7911  -2.693   2.871   5.946  0.3795  0.4185  0.6979
  800MOL0     C 7912  -2.582   2.930   6.015 -0.4171  0.1505  0.5958
  800MOL0     O 7913  -2.507   3.163   6.250  0.0711  0.1208  0.0759
  800MOL0     C 7914  -2.189   3.208   6.107 -0.2875 -0.0083 -0.2038
  800MOL0     C 7915  -2.056   3.257   6.134 -0.1321 -0.3320  0.2760
  800MOL0     N 7916  -1.418   3.748   6.365  0.0905 -0.3030  0.1216
  800MOL0     N 7917  -1.296   3.762   6.414 -0.3793 -0.0081  0.3675
  800MOL0     C 7918  -0.158   4.024   6.027 -0.3877  0.1668  0.7869
  800MOL0     C 7919  -0.024   4.036   5.987 -0.7364  0.8117 -0.9197
  800MOL0     C 7920   0.438   4.021   6.019 -0.1916 -0.4837  0.6153
  800MOL0     C 7921   0.562   4.020   6.083 -0.2757  0.5316 -0.5689
  800MOL0     C 7922   0.675   4.003   6.015 -0.0567 -0.6672  0.1659
  800MOL0     C 7923   0.669   4.012   5.881 -0.6637  0.1362 -0.1912
  800MOL0     O 7924   0.797   3.995   5.828 -0.5675 -0.1267  0.3375
  800MOL0     C 7925   0.814   3.981   5.682 -0.2436 -0.0161 -0.8089
  800MOL0     C 7926   0.840   4.123   5.630 -0.2642 -0.7763 -0.1755
  800MOL0     C 7927   0.976   4.190   5.658 -0.2914 -0.1364  0.0602
  800MOL0     C 7928   1.090   4.122   5.584  0.3346 -0.1373 -0.7024
  800MOL0     C 7929   1.067   4.095   5.436  0.0084  0.1764 -1.0144
  800MOL0     C 7930   1.056   4.080   5.316 -0.5960 -0.2964 -0.2594
  800MOL0     C 7931   0.553   4.015   5.806  0.5137 -0.5708  0.2504
  800MOL0     C 7932   0.438   4.018   5.878  0.1516  0.1008 -0.5752
  800MOL0     H 7933   0.123   3.879   6.258 -1.1646  1.5041  1.7557
  800MOL0     H 7934  -0.098   3.856   6.312 -1.1402 -1.8434 -0.4718
  800MOL0     H 7935  -0.287   3.976   6.371 -0.3104  3.4153 -1.3504
  800MOL0     H 7936  -0.451   3.965   6.320 -1.2519 -1.7424  0.6256
  800MOL0     H 7937  -0.275   3.718   6.300  0.4485  1.6221 -2.0081
  800MOL0     H 7938  -0.371   3.749   6.447  2.3659 -0.0454  0.9023
  800MOL0     H 7939  -0.548   3.781   6.214  0.9262  0.6171 -0.3837
  800MOL0     H 7940  -0.458   3.630   6.208  0.3944  2.0754 -2.3136
  800MOL0     H 7941  -0.564   3.580   6.435 -0.6196  0.8062  0.2141
  800MOL0     H 7942  -0.590   3.751   6.460 -0.8309 -0.1055 -0.5797
  800MOL0     H 7943  -0.757   3.778   6.299  2.2870  0.3134  3.2749
  800MOL0     H 7944  -0.751   3.608   6.248 -2.3642 -1.6656  0.8620
  800MOL0     H 7945  -0.814   3.525   6.463 -0.5696  0.1217  1.6545
  800MOL0     H 7946  -0.844   3.691   6.521 -1.3868 -0.1615 -0.7627
  800MOL0     H 7947  -0.989   3.730   6.298  0.3439 -0.2671 -0.7202
  800MOL0     H 7948  -0.998   3.553   6.294 -0.2677  2.3744 -2.0741
  800MOL0     H 7949  -1.078   3.717   6.536  2.7818  0.9718 -0.2833
  800MOL0     H 7950  -1.074   3.539   6.529 -1.6454 -0.0398  0.4686
  800MOL0     H 7951  -1.263   3.443   6.359  0.3747  1.4367 -3.6907
  800MOL0     H 7952  -1.613   3.607   6.240 -1.4021 -0.4391  0.6529
  800MOL0     H 7953  -1.504   3.464   6.198 -0.9956  1.0656 -1.4725
  800MOL0     H 7954  -1.661   3.522   6.448 -2.2687 -0.3476 -1.1379
  800MOL0     H 7955  -1.549   3.397   6.454 -1.6606 -0.4521  1.6635
  800MOL0     H 7956  -1.769   3.303   6.431 -0.9540 -2.9565 -1.3540
  800MOL0     H 7957  -1.648   3.241   6.315  0.2069 -1.2866  1.9547
  800MOL0     H 7958  -1.785   3.287   6.160  1.6151 -1.3177  1.4920
  800MOL0     H 7959  -1.745   3.454   6.173  0.6490  0.2779 -0.0426
  800MOL0     H 7960  -2.124   3.404   6.431  0.6627 -1.4531 -0.0098
  800MOL0     H 7961  -2.366   3.279   6.493  1.8932 -1.8017 -1.9673
  800MOL0     H 7962  -2.336   3.446   6.463  0.8030  0.5920 -2.6507
  800MOL0     H 7963  -2.468   3.380   6.376 -0.6661  0.2536  1.4052
  800MOL0     H 7964  -2.565   3.219   5.830 -0.0444 -1.2118 -2.6453
  800MOL0     H 7965  -2.759   3.130   5.745  0.7333 -0.8810 -1.0094
  800MOL0     H 7966  -2.897   2.710   5.835 -1.9027 -1.1900 -1.1503
  800MOL0     H 7967  -2.986   2.817   5.940  0.5314 -1.3398  0.1595
  800MOL0     H 7968  -3.052   2.751   5.649  3.1105 -0.6607  2.2851
  800MOL0     H 7969  -3.121   2.697   5.806 -0.3723 -0.5282  0.0742
  800MOL0     H 7970  -3.110   2.982   5.717  0.9609  0.9964  4.6898
  800MOL0     H 7971  -3.217   2.909   5.842 -0.5771 -3.1678  0.0303
  800MOL0     H 7972  -3.246   2.859   5.548  0.9264 -0.3563  0.3104
  800MOL0     H 7973  -3.369   2.827   5.661  0.1216  0.0003  0.1931
  800MOL0     H 7974  -3.295   3.107   5.606 -0.5828  0.2834  1.4008
  800MOL0     H 7975  -3.430   3.068   5.720 -2.8131  2.3767 -1.9169
  800MOL0     H 7976  -3.433   3.031   5.426 -0.2741 -3.0536 -1.1384
  800MOL0     H 7977  -3.545   2.948   5.526 -1.7676  1.5623  1.8642
  800MOL0     H 7978  -3.514   3.245   5.557  0.8237 -0.0814 -3.1063
  800MOL0     H 7979  -3.664   3.146   5.602 -0.2860  2.9048  1.2468
  800MOL0     H 7980  -3.555   3.201   5.334  0.6662  2.9022  0.4765
  800MOL0     H 7981  -3.685   3.283   5.408  0.6936  0.7140 -0.0805
  800MOL0     H 7982  -2.705   2.766   5.967  1.5501 -0.0830 -0.9074
  800MOL0     H 7983  -2.526   2.877   6.091 -0.9949  0.4731  1.2596
  800MOL0     H 7984  -2.212   3.133   6.031 -3.2188 -0.5064  1.0263
  800MOL0     H 7985  -1.973   3.249   6.064 -0.6961 -2.3592 -0.2343
  800MOL0     H 7986  -0.231   4.052   5.953  0.9711 -2.5928 -1.8299
  800MOL0     H 7987   0.014   4.087   5.898 -1.9937 -1.4776 -2.8559
  800MOL0     H 7988   0.569   4.033   6.191  1.9719  1.7799 -0.8066
  800MOL0     H 7989   0.773   3.990   6.060  0.7602  0.0606 -1.3283
  800MOL0     H 7990   0.909   3.933   5.656  1.6581  3.9802 -2.1197
  800MOL0     H 7991   0.728   3.929   5.641  0.6214 -2.3762  0.2041
  800MOL0     H 7992   0.761   4.195   5.647  0.4453 -0.2144  0.8694
  800MOL0     H 7993   0.833   4.103   5.522  0.7987 -0.0435 -0.3955
  800MOL0     H 7994   0.999   4.178   5.765  1.3383  0.1631 -0.2343
  800MOL0     H 7995   0.962   4.295   5.630  0.2399  0.2084  1.0232
  800MOL0     H 7996   1.101   4.035   5.650  1.0452  1.4081  1.3329
  800MOL0     H 7997   1.178   4.185   5.590 -0.8350  1.5292 -0.4711
  800MOL0     H 7998   1.046   4.074   5.209 -1.9117  1.4030 -0.2644
  800MOL0     H 7999   0.557   4.016   5.697 -0.3268 -1.5537  0.1848
  800MOL0     H 8000   0.346   4.024   5.821  0.6501 -1.4604 -1.5760
  801MOL0     O 8001   2.536   7.232   5.324  0.4318  0.0386 -0.5407
  801MOL0     C 8002   2.619   7.274   5.249  0.2135 -0.1808 -0.3894
  801MOL0     O 8003   2.593   7.377   5.159 -0.4635 -0.2044 -0.2192
  801MOL0     C 8004   2.467   7.423   5.145  0.8609 -0.2627 -0.1052
  801MOL0     C 8005   2.383   7.480   5.244  0.3157 -0.6412  0.1625
  801MOL0     C 8006   2.254   7.528   5.215  0.2424 -0.1177  0.3028
  801MOL0     C 8007   2.204   7.513   5.083  0.2399 -0.6077  0.0526
  801MOL0     O 8008   2.067   7.529   5.070  1.1342 -0.0761 -0.3328
  801MOL0     C 8009   1.995   7.454   4.973 -0.5163 -0.6428  0.0121
  801MOL0     C 8010   1.847   7.443   5.013  0.4876 -0.1061 -0.7458
  801MOL0     C 8011   1.751   7.421   4.898  1.2708 -0.0016 -0.7895
  801MOL0     C 8012   1.613   7.374   4.949  0.8661 -0.1235 -1.2024
  801MOL0     C 8013   1.516   7.395   4.831 -0.2661  0.5734  0.0708
  801MOL0     C 8014   1.369   7.350   4.842  0.4133  0.6012  0.2628
  801MOL0     C 8015   1.341   7.196   4.848  0.4160  0.6433 -0.2557
  801MOL0     C 8016   1.278   7.146   4.724  0.7302 -0.4155 -0.0985
  801MOL0     N 8017   1.153   7.216   4.688  0.2333  0.2318 -0.0850
  801MOL0     C 8018   1.025   7.191   4.727 -0.2714  0.4054  0.1287
  801MOL0     C 8019   0.951   7.268   4.645  0.7024 -0.5534  0.0154
  801MOL0     C 8020   0.806   7.292   4.633 -0.4221  0.2397  0.1037
  801MOL0     C 8021   0.724   7.163   4.608 -0.6593  0.3789 -0.2796
  801MOL0     C 8022   0.704   7.073   4.734 -0.0273 -0.4670 -0.8129
  801MOL0     C 8023   0.601   6.957   4.712 -0.3776 -0.0476 -0.7051
  801MOL0     O 8024   0.471   6.996   4.756  0.5329 -0.2319 -0.3722
  801MOL0     C 8025   0.379   6.910   4.801  1.0823 -0.3813 -0.4545
  801MOL0     C 8026   0.354   6.909   4.940 -0.4350  0.5471 -0.8406
  801MOL0     C 8027   0.275   6.812   4.995  0.4160  0.0619  0.3519
  801MOL0     C 8028   0.248   6.830   5.150  0.2492 -0.2714 -0.0408
  801MOL0     C 8029   0.225   6.708   4.910 -0.5604 -0.7307  0.3262
  801MOL0     C 8030   0.136   6.596   4.958 -0.2595 -1.5321 -0.4558
  801MOL0     O 8031   0.061   6.529   4.862  0.5030 -0.0794 -0.5052
  801MOL0     C 8032  -0.029   6.434   4.906 -1.3173 -0.4728  1.5426
  801MOL0     C 8033   0.028   6.313   4.942 -0.1148  0.1597 -0.2678
  801MOL0     C 8034  -0.058   6.209   4.976 -0.1933 -0.4170  0.1112
  801MOL0     C 8035  -0.198   6.221   4.968 -0.4281 -0.3878 -0.8504
  801MOL0     O 8036  -0.281   6.122   4.997 -0.6157  0.5296 -0.1219
  801MOL0     C 8037  -0.311   6.111   5.142 -0.0679  1.0263  0.2001
  801MOL0     C 8038  -0.317   5.966   5.181  1.0633  0.5933 -0.2275
  801MOL0     C 8039  -0.194   5.882   5.154  0.1427 -0.0656  0.5747
  801MOL0     C 8040  -0.086   5.868   5.263  0.0362 -0.2433  0.4860
  801MOL0     C 8041   0.026   5.774   5.198  0.1547 -0.2413 -0.3924
  801MOL0     C 8042   0.174   5.806   5.236  0.4009 -0.3640  0.3604
  801MOL0     C 8043   0.282   5.714   5.181 -1.1498  0.0073 -0.7670
  801MOL0     C 8044   0.259   5.567   5.197 -0.5880 -0.5638  0.5253
  801MOL0    Cl 8045   0.239   5.522   5.373 -0.4014  0.3581 -0.0334
  801MOL0     C 8046  -0.252   6.345   4.929  1.4442  0.9081 -0.8281
  801MOL0     C 8047  -0.166   6.446   4.886  0.2014  0.0269  0.8078
  801MOL0     O 8048   0.151   6.571   5.074  0.1014  0.6423  0.0560
  801MOL0     C 8049   0.244   6.714   4.770  0.0668 -0.1011 -0.7963
  801MOL0     C 8050   0.324   6.820   4.713  0.2321  0.1171  0.6755
  801MOL0     N 8051   1.031   7.330   4.551 -0.8065  0.1490 -0.2069
  801MOL0     N 8052   1.149   7.295   4.583  0.1847 -0.0795  0.1708
  801MOL0     C 8053   2.292   7.466   4.987 -0.3943  0.5738 -0.3977
  801MOL0     C 8054   2.423   7.431   5.012  0.2834 -0.3530  0.0756
  801MOL0     C 8055   2.745   7.198   5.269 -0.4278 -0.7674 -0.3242
  801MOL0     C 8056   2.747   7.069   5.328  0.6552 -0.6000 -0.0220
  801MOL0     C 8057   2.869   6.998   5.328  0.3310 -0.2392 -1.2457
  801MOL0     C 8058   2.987   7.058   5.290  0.2405 -0.6882 -0.6593
  801MOL0     O 8059   3.094   6.986   5.327  0.2629 -0.0772  0.2406
  801MOL0     C 8060   3.220   7.030   5.274  0.5005  0.2291  0.1135
  801MOL0     C 8061   3.334   6.937   5.326 -0.7832  0.0145  0.6014
  801MOL0     C 8062   3.291   6.792   5.313 -0.4311  0.7745  0.8390
  801MOL0     C 8063   3.413   6.699   5.326 -0.2735  0.3910  0.1222
  801MOL0     C 8064   3.511   6.706   5.217  0.9199  0.1276  0.1548
  801MOL0     C 8065   3.584   6.688   5.124 -0.1561  0.9784 -0.0551
  801MOL0     C 8066   2.988   7.190   5.238  0.3366  0.2100 -0.2421
  801MOL0     C 8067   2.867   7.253   5.213  0.1677  0.1127  0.5096
  801MOL0     H 8068   2.413   7.499   5.347 -1.9143  0.7045  0.6534
  801MOL0     H 8069   2.183   7.578   5.279 -1.5333 -0.6445 -1.1560
  801MOL0     H 8070   2.000   7.503   4.875 -3.0837 -0.4620 -0.0988
  801MOL0     H 8071   2.039   7.355   4.958 -0.1776 -0.6387  0.9279
  801MOL0     H 8072   1.840   7.373   5.097 -1.7640 -0.4518 -1.1741
  801MOL0     H 8073   1.820   7.542   5.052  1.0518 -0.4291  0.5309
  801MOL0     H 8074   1.748   7.515   4.842  1.9386  0.3010 -0.3256
  801MOL0     H 8075   1.777   7.345   4.824 -0.7166 -0.2424 -1.2882
  801MOL0     H 8076   1.625   7.268   4.971  0.2717 -0.2118 -1.2771
  801MOL0     H 8077   1.585   7.421   5.044  0.3500 -1.8856 -0.4387
  801MOL0     H 8078   1.519   7.502   4.810  1.8045  0.6815  0.6706
  801MOL0     H 8079   1.557   7.343   4.743 -0.8564  2.2953 -1.2587
  801MOL0     H 8080   1.335   7.391   4.937 -0.3591 -0.9809  0.6995
  801MOL0     H 8081   1.313   7.403   4.765  1.4357  2.4037  0.7008
  801MOL0     H 8082   1.431   7.137   4.865  1.2435  1.7944 -0.5875
  801MOL0     H 8083   1.278   7.181   4.936 -0.0464  1.4203 -0.4448
  801MOL0     H 8084   1.265   7.039   4.741 -3.1740  0.0416  0.5583
  801MOL0     H 8085   1.356   7.168   4.650  1.1231 -0.7043  0.2290
  801MOL0     H 8086   0.985   7.140   4.813  1.6082  1.0404  1.4521
  801MOL0     H 8087   0.767   7.329   4.729  1.3287  1.5389  0.3591
  801MOL0     H 8088   0.787   7.363   4.552  3.0918 -1.5082 -2.5011
  801MOL0     H 8089   0.763   7.100   4.527 -0.3996 -1.3177  1.1025
  801MOL0     H 8090   0.624   7.199   4.582 -1.1028  0.3913  1.3396
  801MOL0     H 8091   0.684   7.124   4.829  1.6239 -3.6174  1.4139
  801MOL0     H 8092   0.797   7.017   4.750  1.3714  1.8956 -0.2158
  801MOL0     H 8093   0.644   6.873   4.767 -1.8557 -0.0746  0.4764
  801MOL0     H 8094   0.599   6.929   4.606 -1.2401  4.3450 -2.0514
  801MOL0     H 8095   0.405   6.984   4.999 -2.1741 -0.4258  2.1330
  801MOL0     H 8096   0.303   6.761   5.215 -0.1084  1.3210  2.0441
  801MOL0     H 8097   0.284   6.928   5.183 -2.1172 -0.4227  3.5721
  801MOL0     H 8098   0.139   6.821   5.157  0.2353 -1.0908 -1.0308
  801MOL0     H 8099   0.136   6.319   4.946 -0.2234  1.7679  1.3084
  801MOL0     H 8100  -0.023   6.115   5.018 -1.0742 -0.3129  1.1263
  801MOL0     H 8101  -0.236   6.158   5.206  2.4204  0.9005 -2.4361
  801MOL0     H 8102  -0.411   6.148   5.167 -1.1386 -1.1446 -0.6263
  801MOL0     H 8103  -0.358   5.951   5.282  0.9755  0.1740 -0.3222
  801MOL0     H 8104  -0.397   5.925   5.119  0.8624 -1.0684  1.0716
  801MOL0     H 8105  -0.164   5.917   5.055 -1.5017  1.1160  0.4420
  801MOL0     H 8106  -0.242   5.785   5.136  1.3094 -0.3213 -1.4649
  801MOL0     H 8107  -0.035   5.963   5.282  0.5546 -0.4734  0.2752
  801MOL0     H 8108  -0.138   5.816   5.344 -1.0132 -0.6257 -0.4046
  801MOL0     H 8109   0.010   5.783   5.090  0.1849 -0.5105 -0.4183
  801MOL0     H 8110  -0.005   5.675   5.233  1.1384  0.1908  1.8307
  801MOL0     H 8111   0.205   5.905   5.200 -0.7226  1.6653  4.3202
  801MOL0     H 8112   0.182   5.817   5.345  1.8025 -1.5721  0.4124
  801MOL0     H 8113   0.374   5.749   5.228 -1.8298  0.0078  0.6036
  801MOL0     H 8114   0.292   5.740   5.075 -0.0335 -0.6066 -0.8251
  801MOL0     H 8115   0.348   5.511   5.165  2.2020  3.6110  0.1565
  801MOL0     H 8116   0.177   5.538   5.131 -1.0972  1.6043  0.1346
  801MOL0     H 8117  -0.358   6.365   4.931  1.5333  1.4310 -1.1195
  801MOL0     H 8118  -0.213   6.538   4.854 -1.4460 -1.1022 -0.1513
  801MOL0     H 8119   0.198   6.635   4.712 -0.0339 -0.1861 -0.6033
  801MOL0     H 8120   0.338   6.827   4.606 -1.3618  2.8638  0.5519
  801MOL0     H 8121   2.262   7.445   4.885 -0.9022 -1.7763  0.1801
  801MOL0     H 8122   2.494   7.397   4.937  2.0564  2.5532  0.2918
  801MOL0     H 8123   2.659   7.024   5.372  1.2563 -2.9515 -1.0227
  801MOL0     H 8124   2.865   6.898   5.371 -0.4801  1.0965  2.1348
  801MOL0     H 8125   3.225   7.018   5.165  2.3026 -1.5366  0.3226
  801MOL0     H 8126   3.248   7.126   5.317 -1.6085 -0.1024  2.4099
  801MOL0     H 8127   3.367   6.973   5.424 -1.4641 -0.9121  1.1890
  801MOL0     H 8128   3.421   6.954   5.262  0.2361 -2.1436  1.2882
  801MOL0     H 8129   3.239   6.770   5.219  0.8642  0.1337  0.2292
  801MOL0     H 8130   3.223   6.774   5.396 -2.2514  1.9165 -0.3477
  801MOL0     H 8131   3.369   6.601   5.341 -4.5961  2.2967  1.5209
  801MOL0     H 8132   3.460   6.731   5.420  2.8686  0.8281 -1.4446
  801MOL0     H 8133   3.658   6.669   5.049 -1.1309 -0.8023 -0.6232
  801MOL0     H 8134   3.085   7.228   5.207  1.0697 -1.7858 -0.5684
  801MOL0     H 8135   2.860   7.353   5.171 -4.4650  0.3201  1.2714
  802MOL0     O 8136   2.928   8.410   1.574 -0.1408 -0.1595  0.4226
  802MOL0     C 8137   2.961   8.350   1.471 -0.1078  0.0451  0.7448
  802MOL0     O 8138   2.872   8.277   1.393 -0.3133 -0.2056 -0.1807
  802MOL0     C 8139   2.736   8.272   1.406  0.6467  1.0342 -0.1035
  802MOL0     C 8140   2.660   8.263   1.524 -0.4931 -0.2525 -0.0657
  802MOL0     C 8141   2.522   8.264   1.531  0.6179 -0.2529  0.4845
  802MOL0     C 8142   2.447   8.262   1.407 -0.2967  0.0051 -0.4867
  802MOL0     O 8143   2.315   8.252   1.407  1.0681 -0.1445 -0.3982
  802MOL0     C 8144   2.241   8.300   1.526 -0.5402 -0.0508  0.5318
  802MOL0     C 8145   2.106   8.336   1.468 -0.0232 -0.3847 -0.4069
  802MOL0     C 8146   2.009   8.370   1.586  0.1091 -0.3613 -0.2478
  802MOL0     C 8147   2.033   8.499   1.658 -0.3420  0.4558  0.5332
  802MOL0     C 8148   1.912   8.537   1.745  0.3199  0.6361  0.0295
  802MOL0     C 8149   1.911   8.689   1.776  0.4225 -0.0009  0.5902
  802MOL0     C 8150   1.811   8.720   1.887 -0.2136 -0.2824 -0.3574
  802MOL0     C 8151   1.822   8.871   1.926 -0.1044 -0.4877  0.4977
  802MOL0     N 8152   1.760   8.958   1.824 -0.3099  0.0130 -0.5796
  802MOL0     C 8153   1.629   9.009   1.825 -0.1000 -0.1324  0.5600
  802MOL0     C 8154   1.625   9.102   1.727 -0.6987  0.3074  0.7604
  802MOL0     C 8155   1.519   9.207   1.713  0.9004  0.7323  0.3991
  802MOL0     C 8156   1.383   9.169   1.789 -0.0748 -0.4381 -0.1370
  802MOL0     C 8157   1.298   9.056   1.721  0.6712 -0.4081  0.2524
  802MOL0     C 8158   1.159   9.040   1.779  0.6364  0.6782 -0.9666
  802MOL0     O 8159   1.169   8.980   1.911 -0.0127  0.2595 -0.3609
  802MOL0     C 8160   1.058   8.940   1.980  0.6573 -0.7021  0.1961
  802MOL0     C 8161   1.059   8.946   2.121  0.0288  0.4831  0.5423
  802MOL0     C 8162   0.944   8.910   2.189  0.1449  0.0224  0.5889
  802MOL0     C 8163   0.942   8.935   2.339 -0.5662 -0.6271 -0.3142
  802MOL0     C 8164   0.833   8.870   2.125 -0.1835  0.7897 -0.1444
  802MOL0     C 8165   0.718   8.816   2.192 -0.7063  0.3924  0.2706
  802MOL0     O 8166   0.663   8.897   2.282  0.3001  0.3398 -0.9098
  802MOL0     C 8167   0.536   8.873   2.329 -1.0500  0.5370 -0.3447
  802MOL0     C 8168   0.462   8.986   2.323  0.0699  1.0597  0.0542
  802MOL0     C 8169   0.326   8.974   2.361 -0.5816 -0.0144 -1.4866
  802MOL0     C 8170   0.271   8.858   2.415  0.3182 -0.0077 -0.8253
  802MOL0     O 8171   0.139   8.840   2.449 -0.6565  0.1308  0.9736
  802MOL0     C 8172   0.035   8.886   2.363  0.3447 -0.7496  0.4152
  802MOL0     C 8173  -0.085   8.783   2.351  0.2497 -0.6305  1.0155
  802MOL0     C 8174  -0.197   8.847   2.265  0.4826  1.0062  0.3608
  802MOL0     C 8175  -0.328   8.760   2.259  0.3457  0.1702 -0.2034
  802MOL0     C 8176  -0.437   8.831   2.179  0.4823  1.1322 -0.4570
  802MOL0     C 8177  -0.580   8.766   2.194 -0.8448 -0.4316 -0.1914
  802MOL0     C 8178  -0.690   8.833   2.097 -0.0186  1.1851  0.3093
  802MOL0     C 8179  -0.749   8.955   2.163  0.2563 -0.2416 -0.1846
  802MOL0    Cl 8180  -0.855   8.916   2.300  0.1033 -0.2405  0.3148
  802MOL0     C 8181   0.348   8.745   2.420 -0.2105  0.9714 -1.4421
  802MOL0     C 8182   0.481   8.743   2.372  0.5240 -0.5446 -0.1223
  802MOL0     O 8183   0.683   8.700   2.160 -0.5579  0.3893 -0.2532
  802MOL0     C 8184   0.833   8.880   1.986 -0.1278  0.3226 -0.8930
  802MOL0     C 8185   0.941   8.914   1.910 -0.2143 -0.1139  0.0688
  802MOL0     N 8186   1.744   9.098   1.654 -0.3147  0.3264  0.2033
  802MOL0     N 8187   1.827   9.019   1.716 -0.1609  0.3302  0.3280
  802MOL0     C 8188   2.515   8.242   1.290  0.5421 -0.4869  0.8006
  802MOL0     C 8189   2.657   8.264   1.287 -0.6868 -0.2792  0.7764
  802MOL0     C 8190   3.096   8.343   1.422  0.4051 -0.6153  0.0976
  802MOL0     C 8191   3.212   8.373   1.500  0.1833  0.2968 -0.3557
  802MOL0     C 8192   3.344   8.364   1.456  0.7367  0.8762 -0.4745
  802MOL0     C 8193   3.363   8.325   1.319  0.1160 -0.3389 -0.3998
  802MOL0     O 8194   3.494   8.308   1.270  0.0196  0.2827  0.4318
  802MOL0     C 8195   3.608   8.362   1.342  0.4017  0.4024  0.6995
  802MOL0     C 8196   3.735   8.300   1.284  0.6123  0.0029  0.1695
  802MOL0     C 8197   3.742   8.148   1.308  0.2236 -0.8731 -0.6203
  802MOL0     C 8198   3.821   8.112   1.432  0.4350 -0.8553  0.4486
  802MOL0     C 8199   3.823   7.973   1.481 -0.0447  0.7508  0.5729
  802MOL0     C 8200   3.852   7.859   1.520 -0.3910 -0.1442  0.6007
  802MOL0     C 8201   3.266   8.289   1.243 -0.1613 -0.4563  0.1804
  802MOL0     C 8202   3.136   8.301   1.294 -0.1393 -0.2252  0.2644
  802MOL0     H 8203   2.722   8.280   1.611  1.5316  3.2313 -1.9580
  802MOL0     H 8204   2.469   8.245   1.623 -0.3287  0.7720  0.1747
  802MOL0     H 8205   2.249   8.223   1.603 -0.4093  0.6183  1.2052
  802MOL0     H 8206   2.287   8.390   1.568 -1.8211  0.4147  0.9738
  802MOL0     H 8207   2.127   8.420   1.401  0.6390 -1.4071 -1.5510
  802MOL0     H 8208   2.062   8.264   1.398 -1.7013  0.4334 -0.2231
  802MOL0     H 8209   1.908   8.365   1.543 -0.3425 -0.6052  0.8180
  802MOL0     H 8210   1.999   8.284   1.652  0.9711 -1.4258 -1.4540
  802MOL0     H 8211   2.126   8.495   1.717  0.7263  0.5505 -1.0798
  802MOL0     H 8212   2.052   8.576   1.583  1.0242 -0.2136  0.1462
  802MOL0     H 8213   1.823   8.512   1.687  2.0096 -0.2030 -2.3574
  802MOL0     H 8214   1.915   8.487   1.842 -0.0476  3.6778  1.7495
  802MOL0     H 8215   2.010   8.722   1.807 -0.4085  3.5141 -0.0486
  802MOL0     H 8216   1.893   8.740   1.681 -3.6057  0.8125  1.6096
  802MOL0     H 8217   1.712   8.693   1.850  1.0298  0.4102 -4.6923
  802MOL0     H 8218   1.855   8.658   1.965  0.5597 -3.0187 -2.8019
  802MOL0     H 8219   1.930   8.884   1.928 -0.2368  0.9246 -0.1645
  802MOL0     H 8220   1.774   8.899   2.020 -1.7267 -0.1014 -0.3911
  802MOL0     H 8221   1.563   8.999   1.910 -1.7561  1.1515 -0.5213
  802MOL0     H 8222   1.561   9.294   1.762 -1.1519  1.8595  0.2814
  802MOL0     H 8223   1.498   9.228   1.608 -1.7492  2.0620  1.0983
  802MOL0     H 8224   1.320   9.259   1.793  0.9358  0.2546  1.7655
  802MOL0     H 8225   1.403   9.139   1.892 -3.6448 -1.6575  0.3277
  802MOL0     H 8226   1.365   8.971   1.738  0.0995 -0.6912  1.1199
  802MOL0     H 8227   1.286   9.072   1.613 -0.2536 -1.2606  0.2189
  802MOL0     H 8228   1.104   8.969   1.717  1.5930 -0.7962 -0.1766
  802MOL0     H 8229   1.093   9.127   1.782 -0.4437  0.0150 -3.4529
  802MOL0     H 8230   1.143   8.979   2.182 -0.8543 -0.7511  2.5486
  802MOL0     H 8231   0.916   8.840   2.388 -2.1868 -0.6032 -1.0773
  802MOL0     H 8232   1.042   8.963   2.372 -0.8683 -0.2603  0.3043
  802MOL0     H 8233   0.867   9.011   2.361  0.6143  1.6720 -3.5308
  802MOL0     H 8234   0.500   9.085   2.299 -0.1587  0.8205 -1.3716
  802MOL0     H 8235   0.262   9.062   2.353 -1.8041 -0.6695  0.5335
  802MOL0     H 8236   0.003   8.984   2.400 -2.7186 -1.5323  0.0794
  802MOL0     H 8237   0.078   8.900   2.263  1.6738  0.1447  1.0811
  802MOL0     H 8238  -0.040   8.696   2.304  2.5247  0.7584  0.4536
  802MOL0     H 8239  -0.121   8.760   2.452 -1.4148  0.0391  0.6092
  802MOL0     H 8240  -0.161   8.870   2.164  0.9824 -1.7903 -0.2049
  802MOL0     H 8241  -0.224   8.934   2.325  0.7442 -0.1911  2.2933
  802MOL0     H 8242  -0.299   8.664   2.214 -0.4709 -2.6279  4.5882
  802MOL0     H 8243  -0.369   8.729   2.355 -1.6115 -1.5514 -1.5059
  802MOL0     H 8244  -0.416   8.836   2.072 -3.6064 -0.9192 -1.5830
  802MOL0     H 8245  -0.445   8.928   2.228 -3.3411 -0.1023  1.8413
  802MOL0     H 8246  -0.577   8.657   2.178 -0.2724 -0.8729  2.4922
  802MOL0     H 8247  -0.605   8.776   2.300  3.9855  0.2138  1.1151
  802MOL0     H 8248  -0.775   8.764   2.088 -1.9261  3.3150  1.1090
  802MOL0     H 8249  -0.650   8.851   1.997 -1.1227  0.1794 -0.3384
  802MOL0     H 8250  -0.803   9.001   2.080  1.8070 -1.7798 -2.1824
  802MOL0     H 8251  -0.660   9.013   2.187  1.2686 -1.6646 -0.3146
  802MOL0     H 8252   0.306   8.650   2.453  0.5159  0.3408 -2.2845
  802MOL0     H 8253   0.543   8.654   2.371  0.9872 -0.2289  0.2526
  802MOL0     H 8254   0.738   8.866   1.934 -0.5361 -0.2602  0.0010
  802MOL0     H 8255   0.930   8.922   1.802 -2.0054  1.9332  0.3389
  802MOL0     H 8256   2.449   8.228   1.205 -0.7484 -0.4913  1.7564
  802MOL0     H 8257   2.714   8.270   1.195  2.0773 -1.9438  2.2546
  802MOL0     H 8258   3.214   8.384   1.608  1.8326 -1.4291 -0.1585
  802MOL0     H 8259   3.420   8.380   1.532  1.2542 -0.6474 -0.6357
  802MOL0     H 8260   3.612   8.469   1.316  2.7486 -0.3314 -2.5492
  802MOL0     H 8261   3.601   8.344   1.450 -0.9755 -0.1376  0.5440
  802MOL0     H 8262   3.822   8.353   1.324 -0.5827  1.1014  1.4279
  802MOL0     H 8263   3.726   8.312   1.176  0.8829  3.2832  0.4244
  802MOL0     H 8264   3.803   8.100   1.231  1.1175 -1.2404  0.3008
  802MOL0     H 8265   3.644   8.098   1.305  0.4871 -1.5545  0.9595
  802MOL0     H 8266   3.783   8.164   1.521  2.0560 -2.8302  2.4348
  802MOL0     H 8267   3.922   8.152   1.426  0.7058 -0.4363  4.5143
  802MOL0     H 8268   3.887   7.763   1.554  1.1729  0.2624  0.2233
  802MOL0     H 8269   3.277   8.235   1.149  0.3279  0.3000 -0.2018
  802MOL0     H 8270   3.067   8.255   1.225 -0.4615  0.9248 -0.2125
  803MOL0     O 8271   9.180   1.974  10.729 -0.0701  0.1304  0.2068
  803MOL0     C 8272   9.295   1.997  10.714  0.2428  0.7175  0.3851
  803MOL0     O 8273   9.398   1.965  10.800 -0.0355  0.4424 -0.1807
  803MOL0     C 8274   9.372   1.880  10.909 -0.7239 -0.4836  0.3677
  803MOL0     C 8275   9.312   1.943  11.019 -0.0367 -0.2370  0.4850
  803MOL0     C 8276   9.279   1.872  11.135 -0.1935  1.3943 -0.0231
  803MOL0     C 8277   9.329   1.740  11.145 -0.5420 -0.1872 -0.2372
  803MOL0     O 8278   9.313   1.681  11.271 -0.3004  0.2973  0.4044
  803MOL0     C 8279   9.369   1.554  11.304  0.1175  0.6609  0.5114
  803MOL0     C 8280   9.367   1.532  11.455  0.1545  1.1039  0.3080
  803MOL0     C 8281   9.215   1.534  11.513 -0.1211 -0.7704  0.8182
  803MOL0     C 8282   9.181   1.662  11.583 -0.5308  0.0730  0.6526
  803MOL0     C 8283   9.053   1.668  11.651 -0.7931  0.1490 -0.2929
  803MOL0     C 8284   8.948   1.584  11.592  0.6153  0.0069 -0.2003
  803MOL0     C 8285   8.815   1.596  11.688  0.6566 -0.1345 -0.2913
  803MOL0     C 8286   8.714   1.496  11.647  0.0916  0.2995 -0.4094
  803MOL0     N 8287   8.618   1.482  11.753  0.9354  0.4918  0.3577
  803MOL0     C 8288   8.599   1.378  11.840  0.4016  0.3273 -0.3003
  803MOL0     C 8289   8.489   1.400  11.909 -0.2315 -1.4430 -0.6374
  803MOL0     C 8290   8.434   1.325  12.022 -1.0276 -0.3240 -0.0744
  803MOL0     C 8291   8.305   1.251  11.995  0.4587 -0.5872  0.2972
  803MOL0     C 8292   8.259   1.188  12.123  0.1854  0.3238 -0.4239
  803MOL0     C 8293   8.129   1.116  12.098 -0.6130 -0.0477 -0.3140
  803MOL0     O 8294   8.083   1.060  12.225  0.3590  0.1600  0.1149
  803MOL0     C 8295   7.952   1.008  12.231  0.7288  0.1007  0.3211
  803MOL0     C 8296   7.914   0.957  12.356 -0.1228  0.6048 -0.0935
  803MOL0     C 8297   7.789   0.910  12.379  0.2711  0.2218 -0.6277
  803MOL0     C 8298   7.757   0.845  12.512  0.7245  0.2030  0.5700
  803MOL0     C 8299   7.685   0.917  12.280 -0.3612 -0.2618  0.0446
  803MOL0     C 8300   7.548   0.864  12.295  0.1865  0.5032  0.2932
  803MOL0     O 8301   7.446   0.931  12.227  0.0750  0.7424  0.4284
  803MOL0     C 8302   7.315   0.891  12.239 -0.2747 -0.0121 -0.2462
  803MOL0     C 8303   7.260   0.806  12.139  0.3580 -0.3666 -0.0608
  803MOL0     C 8304   7.126   0.781  12.140 -0.3072  0.7009 -0.4520
  803MOL0     C 8305   7.043   0.826  12.243  0.0874  0.0657 -0.2369
  803MOL0     O 8306   6.911   0.781  12.241 -0.4389 -0.2277  0.0195
  803MOL0     C 8307   6.826   0.802  12.356 -0.2462  0.5937  0.5185
  803MOL0     C 8308   6.695   0.758  12.297 -0.0110  0.0073 -1.2051
  803MOL0     C 8309   6.567   0.802  12.370 -0.9035 -0.6269  0.5034
  803MOL0     C 8310   6.444   0.770  12.281 -0.3447 -0.3548 -0.8390
  803MOL0     C 8311   6.323   0.826  12.335 -0.3935  0.0083 -0.2855
  803MOL0     C 8312   6.202   0.783  12.253  0.2236  0.1377  0.1406
  803MOL0     C 8313   6.095   0.886  12.272 -0.3036  0.4967 -0.1768
  803MOL0     C 8314   6.114   1.008  12.188 -0.1796  0.3508 -0.3657
  803MOL0    Cl 8315   5.962   1.105  12.143  0.0877 -0.4596  0.3845
  803MOL0     C 8316   7.099   0.897  12.346  0.2552 -0.4789 -0.1064
  803MOL0     C 8317   7.236   0.931  12.343 -0.3193 -0.1340  0.9069
  803MOL0     O 8318   7.533   0.759  12.356 -0.1532 -0.2217 -0.2693
  803MOL0     C 8319   7.717   0.982  12.153 -0.4861  0.0973 -0.5326
  803MOL0     C 8320   7.848   1.029  12.137 -0.0893  0.4837 -0.3851
  803MOL0     N 8321   8.425   1.513  11.858  0.3512 -0.0718  0.2547
  803MOL0     N 8322   8.507   1.562  11.771  0.6595 -0.3523 -0.0805
  803MOL0     C 8323   9.406   1.688  11.044 -0.1886 -1.0053 -0.2047
  803MOL0     C 8324   9.421   1.750  10.917  1.4571 -0.1605 -0.5158
  803MOL0     C 8325   9.311   2.086  10.597 -0.1870 -0.2816  0.1102
  803MOL0     C 8326   9.243   2.057  10.481  0.1023 -0.6136 -0.2383
  803MOL0     C 8327   9.247   2.144  10.380  0.6711 -0.3653  0.4641
  803MOL0     C 8328   9.335   2.256  10.384  1.1314 -0.6032 -0.1754
  803MOL0     O 8329   9.347   2.337  10.268 -0.0164  0.6228  0.4745
  803MOL0     C 8330   9.261   2.313  10.159  0.4012 -0.1803  0.2387
  803MOL0     C 8331   9.119   2.353  10.185 -0.4629  0.5571 -0.1430
  803MOL0     C 8332   9.031   2.323  10.059  0.5180  0.7266  0.1733
  803MOL0     C 8333   8.878   2.298  10.089 -0.7331  1.0224 -0.1495
  803MOL0     C 8334   8.816   2.408  10.147 -0.1188 -0.0056  0.5171
  803MOL0     C 8335   8.756   2.507  10.179 -0.5309  0.6395  0.2769
  803MOL0     C 8336   9.402   2.281  10.506  0.4210  0.4253  0.1192
  803MOL0     C 8337   9.391   2.200  10.617  0.4172  0.2300 -0.4077
  803MOL0     H 8338   9.266   2.040  11.002  0.9415  0.1487 -0.0651
  803MOL0     H 8339   9.229   1.906  11.225 -0.6655 -0.3213  0.4015
  803MOL0     H 8340   9.332   1.466  11.251 -0.1328  0.3975  1.1070
  803MOL0     H 8341   9.476   1.554  11.280  0.9176 -2.5838  3.2308
  803MOL0     H 8342   9.399   1.428  11.467  2.3191  1.7089  0.3049
  803MOL0     H 8343   9.433   1.601  11.508  0.4392 -1.1245  3.0868
  803MOL0     H 8344   9.144   1.515  11.432 -0.2607 -1.1088  1.0181
  803MOL0     H 8345   9.207   1.448  11.580  1.4542 -0.7314  1.0914
  803MOL0     H 8346   9.261   1.697  11.649  2.1245 -1.9811 -1.2586
  803MOL0     H 8347   9.178   1.733  11.499  1.7291  1.8473  1.9527
  803MOL0     H 8348   9.073   1.624  11.749 -2.2838  0.2116  0.0708
  803MOL0     H 8349   9.015   1.769  11.669 -1.4570  0.2109 -1.8600
  803MOL0     H 8350   8.928   1.606  11.487  2.5348 -0.5901 -0.7391
  803MOL0     H 8351   8.976   1.480  11.608 -1.9373 -1.0527 -1.9020
  803MOL0     H 8352   8.848   1.569  11.789 -0.9834 -0.0791  0.2890
  803MOL0     H 8353   8.780   1.700  11.687  3.7278  1.0193 -0.2550
  803MOL0     H 8354   8.754   1.397  11.625 -0.2659 -0.0472  0.4661
  803MOL0     H 8355   8.667   1.529  11.554 -0.7619 -1.1126 -0.5063
  803MOL0     H 8356   8.664   1.291  11.843 -0.5961 -0.4235  0.2574
  803MOL0     H 8357   8.509   1.255  12.061  0.2727 -0.1956 -2.2103
  803MOL0     H 8358   8.430   1.407  12.095  3.2262  2.0306 -2.1303
  803MOL0     H 8359   8.319   1.171  11.921  0.6786 -2.1566  1.9546
  803MOL0     H 8360   8.225   1.316  11.960 -1.1375 -1.2091  2.5699
  803MOL0     H 8361   8.234   1.267  12.194  1.0036 -0.4432  0.7405
  803MOL0     H 8362   8.336   1.124  12.166 -1.0155 -0.5899  0.4180
  803MOL0     H 8363   8.142   1.037  12.024  0.0175  0.1554 -0.4216
  803MOL0     H 8364   8.068   1.202  12.066  0.3339  1.2625  1.2774
  803MOL0     H 8365   7.992   0.939  12.429  0.6802 -1.6559 -1.4132
  803MOL0     H 8366   7.758   0.736  12.506 -0.9732  0.1572  0.6711
  803MOL0     H 8367   7.831   0.875  12.588  2.0039 -1.2775 -0.0291
  803MOL0     H 8368   7.660   0.877  12.550  1.1848  0.1613  1.8288
  803MOL0     H 8369   7.320   0.773  12.055 -0.3896  2.4133 -1.8165
  803MOL0     H 8370   7.087   0.708  12.070  1.6584 -2.4015  1.4442
  803MOL0     H 8371   6.855   0.729  12.432 -3.0078 -0.8263  0.3228
  803MOL0     H 8372   6.823   0.903  12.397 -1.0883  0.2790  1.2671
  803MOL0     H 8373   6.688   0.795  12.195  1.8695  1.9177 -0.7098
  803MOL0     H 8374   6.702   0.649  12.301  1.3928  0.0965 -0.7637
  803MOL0     H 8375   6.567   0.910  12.389 -2.9911 -0.5040  0.0920
  803MOL0     H 8376   6.551   0.760  12.470  0.2902  0.6171  1.2490
  803MOL0     H 8377   6.450   0.807  12.177  0.1927 -1.0023 -1.0444
  803MOL0     H 8378   6.438   0.661  12.288 -0.6105 -0.2624  0.6119
  803MOL0     H 8379   6.349   0.932  12.334  5.1137 -0.9956  0.3324
  803MOL0     H 8380   6.305   0.786  12.435  1.4942  1.7899  0.8560
  803MOL0     H 8381   6.225   0.766  12.147  1.6799 -0.9466  0.5928
  803MOL0     H 8382   6.164   0.686  12.283  0.8208  0.1366  0.9204
  803MOL0     H 8383   6.091   0.911  12.379 -1.9715  1.0292 -0.3283
  803MOL0     H 8384   5.995   0.848  12.247 -0.4252  0.9102 -0.3406
  803MOL0     H 8385   6.159   0.973  12.095  0.6311 -5.2856  1.7980
  803MOL0     H 8386   6.188   1.068  12.243 -1.7391 -0.3400  2.6721
  803MOL0     H 8387   7.041   0.933  12.431  0.1214 -0.9972  0.0265
  803MOL0     H 8388   7.277   0.984  12.429  0.3010  2.0691 -0.6340
  803MOL0     H 8389   7.637   1.002  12.083 -1.5059 -0.9075  0.3096
  803MOL0     H 8390   7.854   1.091  12.048  2.4778  1.1245  0.1550
  803MOL0     H 8391   9.452   1.591  11.062  0.1120 -0.8893 -0.3463
  803MOL0     H 8392   9.488   1.714  10.839  1.9300  0.3320 -0.3446
  803MOL0     H 8393   9.175   1.972  10.482  2.3509 -2.5642 -1.8514
  803MOL0     H 8394   9.185   2.116  10.295  0.6851 -0.0970  0.3646
  803MOL0     H 8395   9.295   2.383  10.083  0.2001  2.0981  2.1172
  803MOL0     H 8396   9.263   2.214  10.112 -1.1821  1.2012 -3.0920
  803MOL0     H 8397   9.125   2.462  10.199  3.2887  0.9200 -2.7949
  803MOL0     H 8398   9.075   2.304  10.272  0.2640 -1.4269 -0.8515
  803MOL0     H 8399   9.066   2.228  10.017  0.4566  1.2476 -1.0881
  803MOL0     H 8400   9.036   2.395   9.977 -1.6074  0.0483 -0.6259
  803MOL0     H 8401   8.870   2.226  10.170 -1.8673 -1.4797 -2.3470
  803MOL0     H 8402   8.814   2.258  10.010 -1.3547 -0.7974  1.2237
  803MOL0     H 8403   8.702   2.594  10.208 -1.2271  0.2921  0.0626
  803MOL0     H 8404   9.457   2.374  10.515  1.9973 -0.5454  0.8626
  803MOL0     H 8405   9.429   2.234  10.712  1.0900  0.5643 -0.7910
  804MOL0     O 8406  10.053   1.333   3.738 -0.3120  0.1176  0.1339
  804MOL0     C 8407   9.997   1.432   3.690  1.2840  0.7800 -0.1052
  804MOL0     O 8408  10.049   1.543   3.647 -0.1502 -0.3527  0.9557
  804MOL0     C 8409  10.181   1.574   3.658  0.0409  0.2060  0.0153
  804MOL0     C 8410  10.225   1.685   3.580  0.5034 -0.8103 -0.0625
  804MOL0     C 8411  10.360   1.728   3.581 -0.0436  0.2191  0.5052
  804MOL0     C 8412  10.450   1.666   3.668  0.1751 -0.7012  0.2286
  804MOL0     O 8413  10.573   1.719   3.686 -0.3876  0.5322 -0.6077
  804MOL0     C 8414  10.678   1.648   3.620  0.4807 -0.1336  0.6402
  804MOL0     C 8415  10.793   1.737   3.627  0.1106 -0.9227  0.1331
  804MOL0     C 8416  10.909   1.674   3.547  0.4800 -0.0717  0.3162
  804MOL0     C 8417  11.031   1.759   3.603 -0.0074 -0.2846  1.2482
  804MOL0     C 8418  11.167   1.709   3.544 -0.1114 -1.3046 -0.3500
  804MOL0     C 8419  11.286   1.799   3.595  0.1290  1.0394  0.5264
  804MOL0     C 8420  11.419   1.766   3.528  0.2538  0.5312  0.1848
  804MOL0     C 8421  11.528   1.791   3.626 -0.0006 -0.4232  0.8353
  804MOL0     N 8422  11.567   1.935   3.628  0.0695 -0.7201 -0.0221
  804MOL0     C 8423  11.522   2.018   3.726 -0.1811  0.0580 -0.6861
  804MOL0     C 8424  11.610   2.120   3.715  0.2657 -0.7797 -0.4788
  804MOL0     C 8425  11.609   2.249   3.805  0.4540 -0.6852 -0.2115
  804MOL0     C 8426  11.586   2.388   3.734  0.5940  1.1852 -0.1553
  804MOL0     C 8427  11.478   2.375   3.632  1.2834 -0.2155 -0.0396
  804MOL0     C 8428  11.337   2.341   3.687 -0.0699 -0.2377 -0.4576
  804MOL0     O 8429  11.258   2.320   3.573 -0.5570 -0.3434  0.2502
  804MOL0     C 8430  11.123   2.311   3.582  0.0842  0.9476 -0.1004
  804MOL0     C 8431  11.051   2.249   3.486 -0.7199  0.2286 -1.0673
  804MOL0     C 8432  10.917   2.224   3.488 -0.1412  0.1111  0.4840
  804MOL0     C 8433  10.856   2.136   3.381 -0.4374 -0.4763  0.7550
  804MOL0     C 8434  10.840   2.257   3.600  0.0585  0.3278 -0.8595
  804MOL0     C 8435  10.696   2.243   3.622  0.2921  0.0655 -0.0989
  804MOL0     O 8436  10.649   2.256   3.753 -0.2038  0.3435 -0.2978
  804MOL0     C 8437  10.527   2.198   3.787 -1.4901 -0.0948 -0.0668
  804MOL0     C 8438  10.440   2.265   3.879  0.0175  1.1055  0.5767
  804MOL0     C 8439  10.312   2.210   3.916  0.4055  0.1367 -0.5024
  804MOL0     C 8440  10.286   2.071   3.889  0.7455 -0.7267 -0.0604
  804MOL0     O 8441  10.168   2.012   3.923 -0.0990  1.0010 -1.0187
  804MOL0     C 8442  10.082   1.999   3.812 -0.4276 -0.3271 -0.0772
  804MOL0     C 8443   9.938   1.962   3.854  0.2012  0.6817  0.4442
  804MOL0     C 8444   9.827   1.938   3.748 -0.8162  0.5713  0.6342
  804MOL0     C 8445   9.698   1.877   3.815  0.3474 -0.3584 -0.4444
  804MOL0     C 8446   9.581   1.874   3.718  1.1422 -0.3227  0.5924
  804MOL0     C 8447   9.443   1.842   3.773 -0.0565  0.3390  0.3798
  804MOL0     C 8448   9.424   1.689   3.780  0.1457  0.5695  0.3891
  804MOL0     C 8449   9.294   1.672   3.850  0.7205  0.4880  0.5576
  804MOL0    Cl 8450   9.278   1.504   3.892  0.2828 -0.2476  0.1239
  804MOL0     C 8451  10.382   1.999   3.813 -0.8165 -0.4740  0.2088
  804MOL0     C 8452  10.497   2.060   3.758  0.9650 -0.0067 -0.0188
  804MOL0     O 8453  10.629   2.210   3.533 -0.1286 -0.0098 -0.3587
  804MOL0     C 8454  10.914   2.312   3.708  0.5837  0.0016 -0.3053
  804MOL0     C 8455  11.048   2.341   3.692 -0.0591  0.1974 -0.7114
  804MOL0     N 8456  11.703   2.100   3.615  0.4255 -0.0100 -0.0518
  804MOL0     N 8457  11.678   1.987   3.562 -0.2732 -0.6250  1.5961
  804MOL0     C 8458  10.408   1.565   3.758  0.2256  0.3576  0.2351
  804MOL0     C 8459  10.277   1.511   3.746 -0.0199 -0.9057 -0.6904
  804MOL0     C 8460   9.851   1.418   3.666  0.5570  0.1181 -0.2954
  804MOL0     C 8461   9.787   1.291   3.664  0.0071  0.7531  0.4950
  804MOL0     C 8462   9.664   1.268   3.605 -0.3386  0.2693 -0.1889
  804MOL0     C 8463   9.586   1.378   3.573 -0.2361 -0.2743 -0.4735
  804MOL0     O 8464   9.450   1.374   3.537  0.7695 -0.0838 -0.1813
  804MOL0     C 8465   9.373   1.250   3.530 -1.1143  0.1038  0.3806
  804MOL0     C 8466   9.224   1.267   3.550 -0.0172 -0.5889 -0.6648
  804MOL0     C 8467   9.154   1.338   3.431  0.2849  0.7014 -0.4404
  804MOL0     C 8468   9.002   1.368   3.465 -0.8751 -0.2003  0.3142
  804MOL0     C 8469   8.988   1.473   3.569  0.2776  0.1609 -0.3439
  804MOL0     C 8470   8.988   1.563   3.653  0.0638  0.1319 -0.1418
  804MOL0     C 8471   9.651   1.507   3.576  1.1330  0.0744 -0.1456
  804MOL0     C 8472   9.777   1.528   3.623 -0.0629  0.1292  0.3077
  804MOL0     H 8473  10.151   1.728   3.513 -0.6519 -4.3171 -1.2734
  804MOL0     H 8474  10.395   1.806   3.514 -3.2228  1.1662 -0.2369
  804MOL0     H 8475  10.698   1.549   3.662  3.8245  1.0948  2.3658
  804MOL0     H 8476  10.645   1.639   3.516 -1.1244 -0.7547  1.1714
  804MOL0     H 8477  10.767   1.828   3.573 -1.8836 -1.6980 -0.3019
  804MOL0     H 8478  10.818   1.755   3.732  4.7153 -2.5810 -0.4435
  804MOL0     H 8479  10.928   1.567   3.563  1.7071 -0.1354 -1.4175
  804MOL0     H 8480  10.895   1.688   3.440 -0.1241 -4.2070 -0.3123
  804MOL0     H 8481  11.022   1.857   3.557 -0.3668 -1.0902 -0.4863
  804MOL0     H 8482  11.044   1.762   3.712  1.8521  1.7912  1.0391
  804MOL0     H 8483  11.184   1.606   3.574 -3.2050 -2.0656 -0.9337
  804MOL0     H 8484  11.156   1.717   3.435 -0.1705 -1.8872 -0.3899
  804MOL0     H 8485  11.257   1.903   3.578  1.2169  1.1423 -0.8560
  804MOL0     H 8486  11.292   1.783   3.703  1.5993  1.9832  0.6160
  804MOL0     H 8487  11.413   1.660   3.500 -2.0082  0.3317  1.2662
  804MOL0     H 8488  11.431   1.832   3.442 -1.8136  0.2323 -0.3882
  804MOL0     H 8489  11.620   1.738   3.597 -1.0502 -1.9281  0.1454
  804MOL0     H 8490  11.501   1.748   3.723 -0.6511 -1.4768  0.2009
  804MOL0     H 8491  11.429   2.001   3.779  0.8970 -0.3970  1.1482
  804MOL0     H 8492  11.524   2.242   3.874 -0.0294 -2.4287 -0.9425
  804MOL0     H 8493  11.699   2.266   3.864 -0.3723  0.8365  0.6794
  804MOL0     H 8494  11.684   2.419   3.695  0.6893  1.7167  0.4936
  804MOL0     H 8495  11.564   2.464   3.809 -3.6822 -0.7073  0.7843
  804MOL0     H 8496  11.507   2.301   3.557  3.4176 -0.8415  1.3049
  804MOL0     H 8497  11.481   2.468   3.574  3.3408  0.9796  1.8377
  804MOL0     H 8498  11.317   2.441   3.725 -0.7931  0.1297 -1.7548
  804MOL0     H 8499  11.333   2.267   3.768  1.0228 -0.4825 -0.6087
  804MOL0     H 8500  11.113   2.224   3.401 -0.7526 -0.6956 -0.8267
  804MOL0     H 8501  10.803   2.052   3.429 -1.5607  0.9796  2.2031
  804MOL0     H 8502  10.785   2.192   3.320 -0.3019 -0.6247  0.4615
  804MOL0     H 8503  10.934   2.092   3.319  0.8234 -1.1112  2.7129
  804MOL0     H 8504  10.463   2.364   3.918 -0.1489  0.7071  1.7299
  804MOL0     H 8505  10.242   2.255   3.985 -0.0382 -2.0542  0.5544
  804MOL0     H 8506  10.076   2.088   3.749 -2.1535  0.3979  1.0230
  804MOL0     H 8507  10.116   1.918   3.747  1.9262  1.6491 -1.4835
  804MOL0     H 8508   9.953   1.870   3.911  0.8351  0.8524  0.5664
  804MOL0     H 8509   9.900   2.042   3.917 -1.5538  1.3108 -1.3117
  804MOL0     H 8510   9.859   1.864   3.673  0.4646 -0.9973  2.6029
  804MOL0     H 8511   9.804   2.036   3.705 -1.3098  0.5330  0.8089
  804MOL0     H 8512   9.717   1.772   3.839 -1.0332 -1.4063 -3.3835
  804MOL0     H 8513   9.669   1.944   3.896  1.9562  0.1019 -0.2169
  804MOL0     H 8514   9.602   1.801   3.639 -2.1596  2.1032 -2.8459
  804MOL0     H 8515   9.583   1.975   3.677  0.3587  0.4176  2.2934
  804MOL0     H 8516   9.457   1.868   3.878  1.5866 -2.0597  0.8311
  804MOL0     H 8517   9.359   1.895   3.725 -0.5001 -2.0115 -1.6630
  804MOL0     H 8518   9.501   1.634   3.834 -0.4731 -2.1789 -1.3209
  804MOL0     H 8519   9.415   1.656   3.676  3.4083 -2.2403  0.8063
  804MOL0     H 8520   9.218   1.705   3.778 -0.3545 -0.8601  1.0357
  804MOL0     H 8521   9.277   1.737   3.936 -2.1309  1.7943 -0.8555
  804MOL0     H 8522  10.358   1.899   3.779  3.0730 -0.6838 -2.6747
  804MOL0     H 8523  10.561   1.991   3.705  0.8289 -0.9640  1.0236
  804MOL0     H 8524  10.874   2.340   3.805  0.1366  3.3293 -1.3295
  804MOL0     H 8525  11.096   2.380   3.781  1.8803  0.4128 -1.7800
  804MOL0     H 8526  10.490   1.530   3.819  0.4758 -0.9156 -0.7823
  804MOL0     H 8527  10.259   1.430   3.816  1.3214 -0.7827 -0.1851
  804MOL0     H 8528   9.828   1.193   3.681 -1.0050  0.0208 -1.0308
  804MOL0     H 8529   9.633   1.165   3.595  3.8516 -1.5597  2.9736
  804MOL0     H 8530   9.396   1.180   3.449 -0.0122  2.0483 -1.0871
  804MOL0     H 8531   9.412   1.197   3.617 -1.0319 -0.2894  0.1059
  804MOL0     H 8532   9.204   1.314   3.647  3.2990 -1.6364  0.6615
  804MOL0     H 8533   9.183   1.167   3.567  1.8773 -1.2524  0.3147
  804MOL0     H 8534   9.148   1.262   3.352 -2.1439 -0.9241  1.1450
  804MOL0     H 8535   9.213   1.421   3.392  1.5957 -0.2239 -0.4811
  804MOL0     H 8536   8.953   1.274   3.495 -1.2770  0.3591  1.4632
  804MOL0     H 8537   8.957   1.405   3.372 -3.9753 -0.9969  1.3825
  804MOL0     H 8538   8.992   1.644   3.723  1.0857 -0.5127  0.5782
  804MOL0     H 8539   9.604   1.598   3.540  1.2221  0.0954 -0.2109
  804MOL0     H 8540   9.831   1.621   3.602  4.1539 -2.6105 -2.5294
  805MOL0     O 8541  10.942   9.498   3.766 -0.3362 -0.4334  0.4329
  805MOL0     C 8542  10.956   9.380   3.726  0.1931 -0.3779  0.0873
  805MOL0     O 8543  10.879   9.326   3.636 -0.0505  0.2131 -0.2950
  805MOL0     C 8544  10.773   9.395   3.586 -0.5170 -0.3988 -0.3537
  805MOL0     C 8545  10.789   9.505   3.499  0.7490 -0.2113  0.8077
  805MOL0     C 8546  10.681   9.579   3.447  0.4040  0.7811 -0.5947
  805MOL0     C 8547  10.554   9.546   3.477  0.2112  0.5788 -0.4702
  805MOL0     O 8548  10.452   9.629   3.438 -0.1052  0.7284  0.1766
  805MOL0     C 8549  10.447   9.657   3.300 -0.4406  0.5723 -0.4264
  805MOL0     C 8550  10.310   9.702   3.255 -0.4169  0.7608 -0.2721
  805MOL0     C 8551  10.294   9.682   3.108  0.3350  0.1187  0.2097
  805MOL0     C 8552  10.180   9.764   3.049  0.1852  0.1748  0.3000
  805MOL0     C 8553  10.240   9.902   3.009  0.9179  0.2735 -0.1656
  805MOL0     C 8554  10.133  10.002   2.964  0.3784  0.3466  0.6968
  805MOL0     C 8555  10.027  10.042   3.075  0.4430  0.0158 -0.3401
  805MOL0     C 8556   9.905  10.120   3.017  0.6667  0.3201  0.4700
  805MOL0     N 8557   9.819  10.018   2.961  0.0785  0.1343 -0.2219
  805MOL0     C 8558   9.780  10.020   2.824 -0.3694 -0.2086  0.1115
  805MOL0     C 8559   9.697   9.913   2.824  0.3701  0.4695 -0.6458
  805MOL0     C 8560   9.619   9.864   2.711  0.1102  0.5033  0.2368
  805MOL0     C 8561   9.500   9.961   2.681 -0.0271 -0.3077 -0.6375
  805MOL0     C 8562   9.435  10.023   2.807 -0.3800 -0.1445 -0.8665
  805MOL0     C 8563   9.295  10.091   2.778 -0.2737 -0.0744  0.1622
  805MOL0     O 8564   9.217   9.987   2.716 -0.1523 -0.1863  0.2906
  805MOL0     C 8565   9.101  10.008   2.649 -0.1609 -0.0839  0.2282
  805MOL0     C 8566   9.020  10.116   2.668 -0.2737 -0.4128  0.7540
  805MOL0     C 8567   8.900  10.136   2.591 -0.1465  0.7419 -0.6055
  805MOL0     C 8568   8.834  10.270   2.615  0.4039 -0.2486 -0.0500
  805MOL0     C 8569   8.852  10.032   2.502  0.0721 -0.4271  0.7131
  805MOL0     C 8570   8.738  10.046   2.419  0.6442  0.1716  0.6735
  805MOL0     O 8571   8.731   9.959   2.313 -0.1360  0.3773 -0.2887
  805MOL0     C 8572   8.629   9.962   2.225  0.7721  0.2091 -0.8428
  805MOL0     C 8573   8.530   9.860   2.227  0.0529  0.0006  0.1992
  805MOL0     C 8574   8.422   9.871   2.139  0.9350  0.4891  0.7418
  805MOL0     C 8575   8.403   9.977   2.053 -0.3720  0.7722  0.7140
  805MOL0     O 8576   8.302  10.011   1.970 -0.0289  0.1929  0.0412
  805MOL0     C 8577   8.199   9.908   1.962 -0.5181  0.4963  0.0121
  805MOL0     C 8578   8.094   9.973   1.872 -0.0445  1.2349 -0.2765
  805MOL0     C 8579   7.994  10.052   1.956  0.5159  0.7769 -0.7208
  805MOL0     C 8580   7.890  10.101   1.865  0.0882  0.3447  0.4058
  805MOL0     C 8581   7.786  10.179   1.948 -0.3091  0.0900  0.2787
  805MOL0     C 8582   7.687  10.278   1.878  0.4947 -0.2097 -1.1090
  805MOL0     C 8583   7.578  10.316   1.987 -0.5189  0.6668 -0.5754
  805MOL0     C 8584   7.444  10.330   1.925  0.2348 -0.0637 -0.6582
  805MOL0    Cl 8585   7.435  10.463   1.803 -0.0462 -0.1236  0.0650
  805MOL0     C 8586   8.518  10.054   2.039 -0.7095 -0.5091  0.7300
  805MOL0     C 8587   8.621  10.048   2.126 -0.1634 -1.0077  0.1751
  805MOL0     O 8588   8.649  10.120   2.452  0.6749  0.0844  0.2053
  805MOL0     C 8589   8.932   9.915   2.491  0.1404  0.6849 -0.1863
  805MOL0     C 8590   9.059   9.909   2.560  0.1309 -0.1189  0.3425
  805MOL0     N 8591   9.692   9.854   2.951  0.6687  0.2478 -0.3043
  805MOL0     N 8592   9.761   9.921   3.030 -0.1308  0.5207 -0.2627
  805MOL0     C 8593  10.527   9.439   3.560 -0.1678  0.6000 -0.1172
  805MOL0     C 8594  10.638   9.367   3.613  0.0543  0.4647 -0.1962
  805MOL0     C 8595  11.076   9.302   3.779  0.4155  0.1852  0.2374
  805MOL0     C 8596  11.149   9.355   3.883  0.5405 -0.1249 -0.4183
  805MOL0     C 8597  11.255   9.291   3.949 -0.1941  1.1673  0.5775
  805MOL0     C 8598  11.296   9.167   3.901  0.6345 -0.0906  0.4576
  805MOL0     O 8599  11.403   9.119   3.959  0.0589 -0.1559 -0.0045
  805MOL0     C 8600  11.465   9.005   3.899 -0.8123 -0.2725  0.0770
  805MOL0     C 8601  11.417   8.874   3.951  0.0583  0.1177 -0.1701
  805MOL0     C 8602  11.434   8.873   4.101  0.6221  0.6146 -0.8451
  805MOL0     C 8603  11.440   8.733   4.163 -0.0656 -0.1394 -0.4734
  805MOL0     C 8604  11.564   8.667   4.131 -0.6940  0.0009  0.4478
  805MOL0     C 8605  11.661   8.610   4.091 -0.6839 -0.0944  0.6350
  805MOL0     C 8606  11.224   9.106   3.793 -0.0753 -0.2586  1.0199
  805MOL0     C 8607  11.124   9.179   3.730  0.8231 -0.1368  0.7550
  805MOL0     H 8608  10.884   9.553   3.476  0.6114 -0.0785  0.5022
  805MOL0     H 8609  10.707   9.651   3.370  0.2691 -0.1374 -1.5220
  805MOL0     H 8610  10.526   9.728   3.275  0.9896 -0.9968 -0.5132
  805MOL0     H 8611  10.469   9.568   3.241  1.6652  0.8144 -0.0842
  805MOL0     H 8612  10.228   9.657   3.312  0.2615 -2.0963 -1.4039
  805MOL0     H 8613  10.300   9.810   3.271  0.3131  0.5235  2.1807
  805MOL0     H 8614  10.392   9.692   3.060  0.3028  3.9248  0.6831
  805MOL0     H 8615  10.256   9.580   3.093 -2.7549  1.0166  1.2083
  805MOL0     H 8616  10.149   9.711   2.958 -0.4325  0.6620  0.2272
  805MOL0     H 8617  10.097   9.776   3.119  2.1633  0.9248  2.6595
  805MOL0     H 8618  10.290   9.953   3.092 -0.0394  0.5584  0.2529
  805MOL0     H 8619  10.320   9.874   2.939  1.1632 -1.1847  0.6796
  805MOL0     H 8620  10.191  10.094   2.952  2.1563 -0.1586  4.1426
  805MOL0     H 8621  10.088   9.957   2.875  2.7497  0.7698 -0.7907
  805MOL0     H 8622   9.988   9.955   3.129 -2.6611  1.3648 -0.2160
  805MOL0     H 8623  10.072  10.108   3.150 -1.9185  0.4401  0.7669
  805MOL0     H 8624   9.925  10.188   2.933 -1.9899 -0.4183 -0.8444
  805MOL0     H 8625   9.852  10.173   3.096  0.1433  1.9247 -0.8945
  805MOL0     H 8626   9.812  10.086   2.744 -0.2296 -0.7063 -0.2420
  805MOL0     H 8627   9.676   9.860   2.618  2.8145 -0.0800  1.8030
  805MOL0     H 8628   9.597   9.759   2.733  1.3951  0.7079  2.8933
  805MOL0     H 8629   9.422   9.905   2.628  0.7318 -0.5902 -1.4839
  805MOL0     H 8630   9.536  10.043   2.618 -0.5507  0.8112  0.4793
  805MOL0     H 8631   9.497  10.098   2.856  1.1768 -3.0340  1.9027
  805MOL0     H 8632   9.419   9.944   2.881 -0.0383  1.6524  1.2059
  805MOL0     H 8633   9.312  10.177   2.713 -1.0050  0.2090  0.3329
  805MOL0     H 8634   9.244  10.129   2.867 -0.7693 -0.0858 -0.1165
  805MOL0     H 8635   9.049  10.195   2.736 -3.4480  4.5990 -2.9895
  805MOL0     H 8636   8.829  10.331   2.524  1.7525 -0.2817 -0.1572
  805MOL0     H 8637   8.744  10.262   2.677 -0.7392  0.9647 -1.4707
  805MOL0     H 8638   8.905  10.320   2.681 -1.4797  0.6801  1.3766
  805MOL0     H 8639   8.536   9.781   2.301  3.3137  0.6246  0.7737
  805MOL0     H 8640   8.349   9.793   2.156 -0.0264  1.3488  0.5950
  805MOL0     H 8641   8.244   9.820   1.917  3.0645  1.6742  0.9466
  805MOL0     H 8642   8.157   9.877   2.058 -1.4713  0.3090 -0.4562
  805MOL0     H 8643   8.135  10.037   1.793 -1.2684 -1.4722 -3.3530
  805MOL0     H 8644   8.043   9.896   1.814  0.6664  0.9322 -0.5154
  805MOL0     H 8645   8.039  10.136   2.011  1.4111 -1.2007  1.7555
  805MOL0     H 8646   7.956   9.983   2.032  0.2011 -0.2207 -1.7468
  805MOL0     H 8647   7.931  10.157   1.780 -1.4587 -2.7592 -2.6947
  805MOL0     H 8648   7.836  10.020   1.814 -1.5680  2.6509 -1.7493
  805MOL0     H 8649   7.837  10.229   2.031  2.3943 -1.4098 -0.3626
  805MOL0     H 8650   7.726  10.095   1.985  1.2185 -2.8981 -3.3700
  805MOL0     H 8651   7.732  10.367   1.833 -1.8588  1.3807 -0.5287
  805MOL0     H 8652   7.636  10.226   1.797  0.4516 -0.5171 -0.8873
  805MOL0     H 8653   7.617  10.404   2.039 -2.2412  0.8170  0.5448
  805MOL0     H 8654   7.567  10.236   2.061  1.5549  0.8438 -0.0158
  805MOL0     H 8655   7.374  10.351   2.006  0.0735 -1.4858 -0.3927
  805MOL0     H 8656   7.402  10.241   1.877  3.6871 -1.6241 -1.0572
  805MOL0     H 8657   8.526  10.132   1.964 -0.0847 -0.7366  0.5491
  805MOL0     H 8658   8.709  10.110   2.107 -0.4756  0.1835  2.2101
  805MOL0     H 8659   8.888   9.841   2.426  0.4902 -0.9310  1.3337
  805MOL0     H 8660   9.120   9.821   2.543  0.7537  0.1174  1.2703
  805MOL0     H 8661  10.424   9.407   3.575  0.7602 -2.1970  0.9380
  805MOL0     H 8662  10.633   9.276   3.672 -0.2283  2.8961  3.9367
  805MOL0     H 8663  11.127   9.456   3.919  0.2471  0.6139 -2.5253
  805MOL0     H 8664  11.296   9.335   4.039  4.2285 -0.7569 -0.2031
  805MOL0     H 8665  11.454   9.015   3.791  0.2963 -0.6421 -0.0800
  805MOL0     H 8666  11.569   9.010   3.931 -1.6480  1.8582  2.9431
  805MOL0     H 8667  11.474   8.789   3.912 -3.6204 -2.5004 -0.3152
  805MOL0     H 8668  11.313   8.854   3.922  0.2108  0.5872 -1.0971
  805MOL0     H 8669  11.344   8.911   4.150 -0.2249  0.2983 -2.1017
  805MOL0     H 8670  11.524   8.931   4.124  0.2680  0.7290  0.2817
  805MOL0     H 8671  11.355   8.679   4.121 -0.1608 -1.2304  1.0599
  805MOL0     H 8672  11.429   8.754   4.269  1.7394  0.1252 -0.3010
  805MOL0     H 8673  11.743   8.556   4.048  0.3701  2.5452 -1.0045
  805MOL0     H 8674  11.248   9.008   3.754 -1.6228 -0.7119  1.1366
  805MOL0     H 8675  11.075   9.113   3.659  1.9087 -2.7086  2.2802
  806MOL0     O 8676   1.502   4.791   7.477  0.7143  0.3055  0.0632
  806MOL0     C 8677   1.550   4.903   7.449 -0.2668  0.6029  0.4356
  806MOL0     O 8678   1.464   5.015   7.428  0.1923 -0.0578 -0.2292
  806MOL0     C 8679   1.333   5.009   7.442  0.4553 -0.3240  0.3593
  806MOL0     C 8680   1.254   4.926   7.364 -1.0638  0.4055  0.0922
  806MOL0     C 8681   1.116   4.919   7.380 -0.3180 -0.9073  0.6581
  806MOL0     C 8682   1.048   5.002   7.470  0.0474  0.2024 -0.2346
  806MOL0     O 8683   0.912   5.019   7.460  0.1152 -0.5886 -0.2704
  806MOL0     C 8684   0.830   5.068   7.568 -0.6886 -0.0556  0.2195
  806MOL0     C 8685   0.691   5.025   7.543  0.4264 -0.1961  0.5739
  806MOL0     C 8686   0.604   5.089   7.648 -0.2938  0.1470 -0.1417
  806MOL0     C 8687   0.456   5.070   7.623 -0.0936 -1.2856  0.0729
  806MOL0     C 8688   0.389   4.990   7.735  0.7722 -0.5067  0.3230
  806MOL0     C 8689   0.248   4.956   7.691 -0.5913 -1.2701  0.0939
  806MOL0     C 8690   0.201   4.843   7.791  0.7567  0.4285  0.7268
  806MOL0     C 8691   0.138   4.900   7.920  0.4052  0.8187  1.0023
  806MOL0     N 8692   0.008   4.950   7.899  1.2769  0.5874  0.0029
  806MOL0     C 8693  -0.096   4.901   7.969  0.2872 -0.4574  0.1511
  806MOL0     C 8694  -0.203   4.970   7.927  0.1923  0.3113  0.4440
  806MOL0     C 8695  -0.334   4.946   8.000  0.0169 -0.2695  0.3544
  806MOL0     C 8696  -0.460   4.954   7.904 -0.3003  0.6505 -0.0689
  806MOL0     C 8697  -0.583   4.964   7.990  0.1275 -0.0698 -0.1391
  806MOL0     C 8698  -0.710   4.949   7.901 -0.2600 -0.0159 -0.6875
  806MOL0     O 8699  -0.830   4.930   7.982 -0.1586 -0.5891 -0.4923
  806MOL0     C 8700  -0.944   4.868   7.943  0.0256  0.9649  0.7138
  806MOL0     C 8701  -1.042   4.875   8.036 -0.0071  0.1325  0.2776
  806MOL0     C 8702  -1.163   4.815   8.005  0.1930 -0.3042 -0.7396
  806MOL0     C 8703  -1.266   4.818   8.116  0.5374 -0.0185  0.8485
  806MOL0     C 8704  -1.195   4.746   7.881 -0.2199  0.5499  0.1942
  806MOL0     C 8705  -1.321   4.675   7.844  1.0502  0.3445  0.0192
  806MOL0     O 8706  -1.333   4.643   7.707  0.3676 -0.1213  0.8342
  806MOL0     C 8707  -1.457   4.597   7.662  0.3556  0.1956  0.3883
  806MOL0     C 8708  -1.535   4.674   7.572  0.5037  0.1250 -0.6855
  806MOL0     C 8709  -1.660   4.638   7.520 -0.4076 -0.0862  0.2978
  806MOL0     C 8710  -1.708   4.518   7.565  0.0634  0.2498  1.2402
  806MOL0     O 8711  -1.829   4.478   7.509 -0.2568  0.6045 -0.3947
  806MOL0     C 8712  -1.949   4.543   7.561  0.5411 -0.6294  0.7556
  806MOL0     C 8713  -2.038   4.571   7.433  0.3068 -0.4268 -0.3085
  806MOL0     C 8714  -2.193   4.559   7.466  0.6828  0.3156  0.8330
  806MOL0     C 8715  -2.242   4.419   7.486  0.6103  0.9636 -0.5566
  806MOL0     C 8716  -2.394   4.415   7.482 -0.3146 -0.1143  0.4008
  806MOL0     C 8717  -2.458   4.271   7.507 -0.2526  0.5795  0.4697
  806MOL0     C 8718  -2.610   4.272   7.494 -0.6177  0.0602 -1.0578
  806MOL0     C 8719  -2.676   4.380   7.583 -0.4216  0.5300 -0.9712
  806MOL0    Cl 8720  -2.837   4.304   7.638 -0.1109  0.3319  0.0524
  806MOL0     C 8721  -1.634   4.429   7.643 -0.5534 -0.1899 -0.8938
  806MOL0     C 8722  -1.511   4.471   7.694  0.5097 -0.4957 -0.5796
  806MOL0     O 8723  -1.413   4.648   7.927 -0.2732  0.0702 -0.1964
  806MOL0     C 8724  -1.089   4.751   7.788  0.2620 -0.5799 -0.3045
  806MOL0     C 8725  -0.965   4.808   7.815 -0.2751  0.2263  0.7289
  806MOL0     N 8726  -0.163   5.058   7.827 -0.5866 -0.1229 -1.1092
  806MOL0     N 8727  -0.035   5.047   7.815 -0.8411  0.1789 -0.1388
  806MOL0     C 8728   1.132   5.083   7.552 -0.6633 -0.2801  0.1497
  806MOL0     C 8729   1.275   5.089   7.537  0.5083 -0.6484  0.5978
  806MOL0     C 8730   1.695   4.917   7.429 -0.8940 -0.7956  0.1645
  806MOL0     C 8731   1.786   4.811   7.459 -0.0685 -0.2515  0.6343
  806MOL0     C 8732   1.921   4.837   7.448 -0.0478 -0.0220 -0.2532
  806MOL0     C 8733   1.984   4.954   7.392 -0.0220 -0.2557 -0.1155
  806MOL0     O 8734   2.112   4.975   7.369 -0.3764 -0.1283 -0.9945
  806MOL0     C 8735   2.209   4.871   7.402  0.6640 -0.1155 -0.3233
  806MOL0     C 8736   2.337   4.887   7.332 -0.4917  0.5965  0.8860
  806MOL0     C 8737   2.332   4.901   7.178  0.6094  0.5305 -0.8449
  806MOL0     C 8738   2.464   4.842   7.117 -0.0564 -0.1370  0.5539
  806MOL0     C 8739   2.584   4.921   7.162  0.2729  0.1717 -0.2664
  806MOL0     C 8740   2.675   4.978   7.216  0.1476  0.0409  0.3416
  806MOL0     C 8741   1.882   5.051   7.348  0.1065 -0.5057 -0.0735
  806MOL0     C 8742   1.750   5.041   7.372 -0.1107  0.0723 -0.6160
  806MOL0     H 8743   1.316   4.871   7.294  0.0431  1.8767 -0.1364
  806MOL0     H 8744   1.064   4.852   7.312 -4.0849  1.3589  1.0357
  806MOL0     H 8745   0.857   5.023   7.665 -3.0320 -0.2652  0.8363
  806MOL0     H 8746   0.835   5.176   7.582  0.4884 -0.1713  0.9135
  806MOL0     H 8747   0.651   5.057   7.447  1.0537 -0.1588  0.3248
  806MOL0     H 8748   0.672   4.918   7.538 -2.1396  0.2435 -0.3580
  806MOL0     H 8749   0.632   5.044   7.744  1.1487  1.1078 -0.0845
  806MOL0     H 8750   0.625   5.197   7.647 -0.3107  0.2059 -3.3097
  806MOL0     H 8751   0.411   5.170   7.632 -0.2671 -1.4880  1.7100
  806MOL0     H 8752   0.440   5.027   7.524  0.5427 -3.2227  0.7761
  806MOL0     H 8753   0.444   4.895   7.739  1.4224 -0.1112  1.2268
  806MOL0     H 8754   0.388   5.035   7.835  0.5986 -0.1205  0.1491
  806MOL0     H 8755   0.185   5.045   7.702  0.8300 -0.4099  1.5449
  806MOL0     H 8756   0.247   4.927   7.585 -0.6873 -0.7591 -0.0459
  806MOL0     H 8757   0.131   4.781   7.734  1.9027  0.0393 -0.3172
  806MOL0     H 8758   0.285   4.777   7.816  1.1682 -0.0711 -1.7134
  806MOL0     H 8759   0.210   4.975   7.955 -0.3271  3.1259 -2.0015
  806MOL0     H 8760   0.129   4.823   7.997 -2.4825  1.2616  1.2041
  806MOL0     H 8761  -0.098   4.820   8.042 -2.4634 -0.1752  0.4905
  806MOL0     H 8762  -0.343   4.848   8.047 -0.3011  0.0733  1.0226
  806MOL0     H 8763  -0.343   5.018   8.081  1.1196 -0.8243  0.9899
  806MOL0     H 8764  -0.464   4.864   7.842 -1.8581 -2.5125  4.0786
  806MOL0     H 8765  -0.460   5.044   7.843  0.7790  0.1641 -0.8235
  806MOL0     H 8766  -0.588   5.056   8.049 -0.1275 -0.3808  0.3333
  806MOL0     H 8767  -0.579   4.872   8.048 -0.5736 -0.3366 -0.4997
  806MOL0     H 8768  -0.705   4.865   7.831 -0.6530 -0.8514  0.2756
  806MOL0     H 8769  -0.721   5.034   7.832 -2.6913 -1.3912 -2.1668
  806MOL0     H 8770  -1.023   4.909   8.137  0.0825 -1.1249  0.7064
  806MOL0     H 8771  -1.218   4.833   8.213 -0.0493  1.3112  0.9536
  806MOL0     H 8772  -1.345   4.891   8.097 -2.1626 -2.9560 -0.0382
  806MOL0     H 8773  -1.313   4.720   8.127  2.6530 -1.0535  1.2622
  806MOL0     H 8774  -1.504   4.778   7.562  0.3142  0.2978  0.4206
  806MOL0     H 8775  -1.719   4.702   7.455 -0.4920  1.0745  1.4806
  806MOL0     H 8776  -2.005   4.475   7.626  1.3435  0.0966  2.2511
  806MOL0     H 8777  -1.934   4.641   7.607  0.4623  0.1680 -0.8356
  806MOL0     H 8778  -2.014   4.672   7.401  0.3224 -0.6981 -1.1843
  806MOL0     H 8779  -2.009   4.507   7.348  0.3046 -1.4356  0.4280
  806MOL0     H 8780  -2.250   4.594   7.380 -2.1924  2.1996  3.2900
  806MOL0     H 8781  -2.220   4.621   7.552  3.2739  1.4758  0.9280
  806MOL0     H 8782  -2.194   4.346   7.420 -1.2289 -1.7366  0.9032
  806MOL0     H 8783  -2.213   4.390   7.588  0.0183 -0.2565 -0.7160
  806MOL0     H 8784  -2.426   4.455   7.385 -0.1837  1.2969  0.9122
  806MOL0     H 8785  -2.422   4.489   7.557 -0.5612 -1.1842  1.3790
  806MOL0     H 8786  -2.424   4.203   7.429  1.3089  1.7615  0.0707
  806MOL0     H 8787  -2.430   4.224   7.601 -0.5585 -1.4007 -0.3846
  806MOL0     H 8788  -2.642   4.180   7.543  1.5931 -0.3162 -0.2082
  806MOL0     H 8789  -2.647   4.265   7.391  0.9544  0.2802 -1.6580
  806MOL0     H 8790  -2.708   4.470   7.532 -3.4166  0.1318  0.0101
  806MOL0     H 8791  -2.610   4.400   7.668 -0.6266 -0.2705 -0.6067
  806MOL0     H 8792  -1.676   4.334   7.674  2.6863 -1.1455  1.0520
  806MOL0     H 8793  -1.449   4.406   7.756 -0.4142 -0.5124  0.3468
  806MOL0     H 8794  -1.097   4.690   7.699 -2.2457 -0.6534 -0.0898
  806MOL0     H 8795  -0.891   4.803   7.735  0.2260  0.3193  1.1801
  806MOL0     H 8796   1.099   5.157   7.623 -1.0299 -2.8084  2.8303
  806MOL0     H 8797   1.342   5.155   7.590 -2.4939  3.5168 -0.3288
  806MOL0     H 8798   1.771   4.714   7.505 -0.3896  1.4537  4.5139
  806MOL0     H 8799   1.982   4.755   7.483 -2.2869 -1.3047  0.8737
  806MOL0     H 8800   2.219   4.865   7.511  0.8365 -0.1768 -0.3422
  806MOL0     H 8801   2.166   4.777   7.366  2.8219 -1.5264  0.5738
  806MOL0     H 8802   2.394   4.796   7.355 -4.9322 -2.6653  0.2686
  806MOL0     H 8803   2.390   4.972   7.377  1.8726 -0.5679  0.4536
  806MOL0     H 8804   2.309   5.005   7.154 -0.0380  1.3608  2.8105
  806MOL0     H 8805   2.251   4.838   7.140 -0.5946  1.0428  0.7711
  806MOL0     H 8806   2.450   4.828   7.009 -3.5012 -1.5382  1.0481
  806MOL0     H 8807   2.479   4.736   7.140  0.2808 -0.5849 -1.5301
  806MOL0     H 8808   2.762   5.021   7.262 -0.1156 -0.0420  0.9262
  806MOL0     H 8809   1.920   5.146   7.313  0.7421 -1.2742 -1.5440
  806MOL0     H 8810   1.687   5.126   7.351  3.7863  3.7129  1.0514
  807MOL0     O 8811   3.421   7.021   7.630 -0.5611  0.1011  0.7931
  807MOL0     C 8812   3.448   6.956   7.523 -0.8032 -0.7405 -0.2266
  807MOL0     O 8813   3.435   7.006   7.399  0.5868  0.5637 -0.2925
  807MOL0     C 8814   3.388   7.129   7.383 -0.8567 -0.3300  0.2545
  807MOL0     C 8815   3.446   7.241   7.444  0.1735  0.4308  0.1795
  807MOL0     C 8816   3.396   7.367   7.407  0.8001 -0.2254 -0.2401
  807MOL0     C 8817   3.289   7.384   7.315  0.2765  0.0349  0.0162
  807MOL0     O 8818   3.234   7.504   7.283 -0.2989 -1.0456 -0.3343
  807MOL0     C 8819   3.309   7.623   7.299  0.1962  0.1328 -0.5403
  807MOL0     C 8820   3.234   7.744   7.230  0.0406  0.5087  0.2442
  807MOL0     C 8821   3.296   7.878   7.255  0.2028  0.1152 -0.3789
  807MOL0     C 8822   3.201   8.002   7.248  1.3359  0.0471 -0.0306
  807MOL0     C 8823   3.270   8.120   7.175  0.0001 -0.3381  1.3944
  807MOL0     C 8824   3.373   8.202   7.246 -0.8791 -1.1206 -0.1911
  807MOL0     C 8825   3.447   8.298   7.142 -0.3357  0.3566  0.4744
  807MOL0     C 8826   3.568   8.365   7.204 -0.1240  0.3701  0.0204
  807MOL0     N 8827   3.678   8.265   7.218 -0.2396 -0.1169  0.0216
  807MOL0     C 8828   3.758   8.226   7.119 -0.2249 -0.5138  0.2934
  807MOL0     C 8829   3.857   8.175   7.186 -0.1332  0.6703 -0.4651
  807MOL0     C 8830   3.975   8.098   7.146  0.1375 -0.1776 -0.2213
  807MOL0     C 8831   4.102   8.181   7.131 -0.0848 -0.5333  0.4398
  807MOL0     C 8832   4.082   8.292   7.027 -0.7478  0.9008 -0.3735
  807MOL0     C 8833   4.213   8.370   7.001  0.2422  0.3383 -0.2878
  807MOL0     O 8834   4.207   8.425   6.869 -0.1684  0.0780 -0.2423
  807MOL0     C 8835   4.328   8.456   6.805  0.4324  0.2409 -0.2370
  807MOL0     C 8836   4.335   8.451   6.665  0.6333 -0.7869  0.4496
  807MOL0     C 8837   4.449   8.479   6.589 -0.1706  0.3843 -1.2533
  807MOL0     C 8838   4.455   8.461   6.436 -0.3068  0.6554  0.3353
  807MOL0     C 8839   4.569   8.527   6.650 -0.0078 -0.3983 -0.4160
  807MOL0     C 8840   4.690   8.555   6.591  0.0160 -0.3056 -0.1503
  807MOL0     O 8841   4.762   8.663   6.640 -0.2343  0.0977  0.4600
  807MOL0     C 8842   4.878   8.689   6.581  0.3212 -0.4642  0.4116
  807MOL0     C 8843   4.986   8.596   6.567  0.0410  1.0086 -0.4997
  807MOL0     C 8844   5.111   8.633   6.522  0.1941  0.6006 -0.5281
  807MOL0     C 8845   5.129   8.763   6.465 -0.2718 -0.2476  0.4797
  807MOL0     O 8846   5.251   8.793   6.407  0.1087 -0.3492  0.2833
  807MOL0     C 8847   5.246   8.839   6.271 -0.0324 -0.3148 -0.3698
  807MOL0     C 8848   5.383   8.900   6.230  0.0922 -0.0828  0.5243
  807MOL0     C 8849   5.371   8.957   6.088  0.0977  0.3681  0.8901
  807MOL0     C 8850   5.504   8.948   6.020 -0.0571 -0.5546 -1.0612
  807MOL0     C 8851   5.489   9.025   5.883 -0.6003  0.4468  0.6883
  807MOL0     C 8852   5.604   9.004   5.795  0.1199 -0.1479  0.2782
  807MOL0     C 8853   5.730   9.079   5.828 -0.3892  0.1613 -0.0643
  807MOL0     C 8854   5.862   9.035   5.765 -0.4310 -0.1261  0.0198
  807MOL0    Cl 8855   5.949   8.907   5.842  0.0010  0.3504 -0.3411
  807MOL0     C 8856   5.024   8.850   6.465  0.4170 -0.7682  0.6858
  807MOL0     C 8857   4.899   8.817   6.521 -0.3315 -0.1420  0.2968
  807MOL0     O 8858   4.735   8.470   6.513 -0.0131 -0.5079 -0.4907
  807MOL0     C 8859   4.562   8.530   6.785  0.5758  0.0943 -0.1833
  807MOL0     C 8860   4.451   8.489   6.866 -1.4076 -1.0436  0.4668
  807MOL0     N 8861   3.843   8.198   7.324 -0.4351  0.2483 -1.1584
  807MOL0     N 8862   3.722   8.248   7.340  0.3533  0.0536  0.3065
  807MOL0     C 8863   3.237   7.272   7.251 -0.1704  0.6291  0.1910
  807MOL0     C 8864   3.288   7.149   7.288 -0.1828  0.3123 -0.3015
  807MOL0     C 8865   3.494   6.816   7.548  0.1465  0.0020 -0.5787
  807MOL0     C 8866   3.511   6.762   7.673  0.3494 -0.0140 -0.0084
  807MOL0     C 8867   3.558   6.626   7.689 -0.0703  0.3759  0.2158
  807MOL0     C 8868   3.595   6.550   7.579  1.0369 -0.4443 -0.6379
  807MOL0     O 8869   3.648   6.432   7.610 -0.2476 -0.4703  0.0225
  807MOL0     C 8870   3.715   6.363   7.515  0.5604 -0.5172 -0.2447
  807MOL0     C 8871   3.842   6.410   7.453 -0.4398 -0.2296 -0.0300
  807MOL0     C 8872   3.972   6.421   7.540  0.4725 -0.5222 -0.3735
  807MOL0     C 8873   3.960   6.539   7.644 -0.0596  0.0952  0.3763
  807MOL0     C 8874   4.091   6.584   7.685 -0.0228 -0.0909  1.4148
  807MOL0     C 8875   4.203   6.624   7.714 -0.4409  0.1177 -0.0630
  807MOL0     C 8876   3.586   6.616   7.455  0.0793 -0.2209 -0.2107
  807MOL0     C 8877   3.525   6.739   7.438 -0.5266 -0.4102  1.3154
  807MOL0     H 8878   3.532   7.239   7.510 -0.5439 -0.2609  1.1337
  807MOL0     H 8879   3.446   7.457   7.440  1.1971 -0.3122 -0.5985
  807MOL0     H 8880   3.324   7.648   7.404  0.5931 -0.3959 -0.4667
  807MOL0     H 8881   3.404   7.621   7.244  0.1693  0.9672 -0.6327
  807MOL0     H 8882   3.224   7.721   7.124  0.8928 -0.2688  0.3148
  807MOL0     H 8883   3.131   7.737   7.268 -0.8010 -3.2814 -2.1543
  807MOL0     H 8884   3.354   7.874   7.347  0.2686 -1.8468 -0.4731
  807MOL0     H 8885   3.375   7.894   7.180 -0.0699  1.0043 -0.4928
  807MOL0     H 8886   3.114   7.975   7.187  0.1522  0.7203  1.2947
  807MOL0     H 8887   3.169   8.033   7.348  1.0976 -1.7078  0.4687
  807MOL0     H 8888   3.322   8.085   7.085 -1.2721 -0.2130  0.5721
  807MOL0     H 8889   3.191   8.187   7.139  0.9135 -0.8699 -1.9439
  807MOL0     H 8890   3.332   8.269   7.322 -0.5747 -2.0659  0.8276
  807MOL0     H 8891   3.449   8.141   7.295 -0.5428  0.4694  1.3586
  807MOL0     H 8892   3.472   8.251   7.046  0.9295  2.1659 -0.1137
  807MOL0     H 8893   3.377   8.378   7.115 -0.3980  0.5113  1.0881
  807MOL0     H 8894   3.551   8.408   7.303 -1.1547 -0.6825  0.3231
  807MOL0     H 8895   3.602   8.449   7.144  0.9453  0.3492  0.5756
  807MOL0     H 8896   3.751   8.229   7.011  1.7572  1.0497  0.1576
  807MOL0     H 8897   3.991   8.016   7.216  3.0731 -0.5906 -1.2471
  807MOL0     H 8898   3.949   8.051   7.051 -1.0585  1.9006 -0.9945
  807MOL0     H 8899   4.185   8.112   7.117 -0.5734 -1.5455  2.2285
  807MOL0     H 8900   4.122   8.229   7.227  3.6838 -1.4553  0.2671
  807MOL0     H 8901   4.008   8.366   7.059  0.3391  2.9184 -2.2108
  807MOL0     H 8902   4.052   8.240   6.936 -0.7029 -1.0958  0.7075
  807MOL0     H 8903   4.304   8.309   7.000  0.6769  0.8783  1.6812
  807MOL0     H 8904   4.225   8.451   7.074 -1.1082 -1.2129  1.7525
  807MOL0     H 8905   4.247   8.427   6.607  2.0631  1.1190 -2.8239
  807MOL0     H 8906   4.487   8.554   6.388 -1.6403  2.2152  2.3063
  807MOL0     H 8907   4.514   8.375   6.402 -0.8099  0.3308  0.2797
  807MOL0     H 8908   4.353   8.463   6.399  0.1293  1.1591 -0.8925
  807MOL0     H 8909   4.972   8.497   6.609  0.8791  1.2039  0.2662
  807MOL0     H 8910   5.186   8.554   6.528 -2.9706 -2.6460 -0.1542
  807MOL0     H 8911   5.214   8.765   6.197  0.4793 -1.9667  1.0218
  807MOL0     H 8912   5.170   8.917   6.258 -2.2360 -2.7076 -3.1513
  807MOL0     H 8913   5.417   8.974   6.303  0.2451 -0.7045  1.0856
  807MOL0     H 8914   5.458   8.820   6.234 -1.4740 -1.5443  3.9766
  807MOL0     H 8915   5.343   9.063   6.094 -3.0667 -0.2257 -1.0190
  807MOL0     H 8916   5.290   8.910   6.031 -0.6650  0.4815  1.8502
  807MOL0     H 8917   5.581   8.995   6.082  0.0632 -2.0395 -0.0321
  807MOL0     H 8918   5.522   8.841   6.000 -0.3444 -1.4062  2.5888
  807MOL0     H 8919   5.468   9.132   5.892 -1.9535  0.5641 -2.4877
  807MOL0     H 8920   5.410   8.971   5.830  0.4812 -0.2808 -0.2253
  807MOL0     H 8921   5.635   8.899   5.784 -2.8850 -1.2084  0.8945
  807MOL0     H 8922   5.575   9.037   5.695  0.6499  0.8671  0.4545
  807MOL0     H 8923   5.740   9.078   5.937  0.4458  1.4783 -0.1075
  807MOL0     H 8924   5.719   9.184   5.798  1.6003  0.0051 -1.5844
  807MOL0     H 8925   5.925   9.125   5.758 -0.1268 -0.2429  1.1713
  807MOL0     H 8926   5.848   8.996   5.663  0.4664 -2.2500  0.6622
  807MOL0     H 8927   5.055   8.945   6.424  1.6072 -2.4087 -2.5815
  807MOL0     H 8928   4.814   8.883   6.533  0.1976  1.2460 -2.5580
  807MOL0     H 8929   4.650   8.550   6.845  0.8992  2.1943 -1.2846
  807MOL0     H 8930   4.457   8.497   6.974  2.1250  0.2282  0.3143
  807MOL0     H 8931   3.155   7.288   7.182 -1.4825  0.8760  1.7572
  807MOL0     H 8932   3.261   7.067   7.223 -0.3116 -0.8260  1.1275
  807MOL0     H 8933   3.492   6.808   7.769 -1.7385 -0.3566 -0.2037
  807MOL0     H 8934   3.563   6.581   7.787  0.5817  0.2655  0.1420
  807MOL0     H 8935   3.728   6.262   7.556 -1.6728  0.7675  4.2662
  807MOL0     H 8936   3.643   6.351   7.433  0.6133 -0.9035 -0.2383
  807MOL0     H 8937   3.834   6.513   7.417  2.0968  0.1069  0.1557
  807MOL0     H 8938   3.864   6.340   7.372 -3.2503 -0.4861 -0.6810
  807MOL0     H 8939   4.056   6.450   7.477 -0.8005  0.8364 -1.5371
  807MOL0     H 8940   3.983   6.329   7.599 -0.9004  0.2939  1.2511
  807MOL0     H 8941   3.904   6.519   7.736 -0.4893 -1.1971 -0.1545
  807MOL0     H 8942   3.906   6.622   7.596 -1.5786 -2.4578 -2.6749
  807MOL0     H 8943   4.303   6.640   7.750 -0.9944  4.0380  0.1590
  807MOL0     H 8944   3.613   6.564   7.364 -2.3033 -0.6032 -0.7470
  807MOL0     H 8945   3.498   6.779   7.341  1.8167 -1.8193 -0.0110
  808MOL0     O 8946   9.236  10.567   2.114  0.5591  0.1866 -0.5430
  808MOL0     C 8947   9.275  10.545   2.000  0.5702 -1.3309 -0.0216
  808MOL0     O 8948   9.193  10.514   1.894 -0.0060 -0.4192  0.0243
  808MOL0     C 8949   9.054  10.500   1.891 -0.0312 -0.4440  0.1120
  808MOL0     C 8950   8.957  10.530   1.996 -0.5779  0.0393 -0.1490
  808MOL0     C 8951   8.820  10.512   1.982  0.8367  0.0429 -1.0005
  808MOL0     C 8952   8.775  10.468   1.865  0.8709  0.8051  0.4163
  808MOL0     O 8953   8.639  10.444   1.865 -0.5986 -0.0633  0.3002
  808MOL0     C 8954   8.571  10.400   1.757  0.7122 -0.5682 -0.3640
  808MOL0     C 8955   8.421  10.419   1.784  0.0495  0.4523  0.6734
  808MOL0     C 8956   8.340  10.390   1.652 -0.3637  0.3073 -0.3049
  808MOL0     C 8957   8.191  10.407   1.669 -0.3554 -0.2195 -0.6161
  808MOL0     C 8958   8.126  10.371   1.540  0.9195  0.5518  1.1419
  808MOL0     C 8959   8.157  10.484   1.430  0.5216  0.1630 -0.6391
  808MOL0     C 8960   8.097  10.425   1.298 -0.3387 -0.5096  0.6738
  808MOL0     C 8961   8.103  10.537   1.180  0.6495 -0.6626  0.4887
  808MOL0     N 8962   8.043  10.485   1.053  0.4270 -0.3619 -0.7162
  808MOL0     C 8963   8.028  10.554   0.933  0.1721 -0.6661 -0.8215
  808MOL0     C 8964   7.962  10.481   0.849  0.7092  0.0163  0.0465
  808MOL0     C 8965   7.895  10.526   0.723 -0.3874 -0.5079  1.5358
  808MOL0     C 8966   7.766  10.593   0.765  0.0205 -0.1485 -0.1449
  808MOL0     C 8967   7.660  10.495   0.818  0.3370  0.0343 -0.4677
  808MOL0     C 8968   7.536  10.567   0.859 -0.6852  0.7513  0.1152
  808MOL0     O 8969   7.454  10.590   0.745  0.6024  0.7754 -0.4914
  808MOL0     C 8970   7.329  10.635   0.769 -0.7004 -0.0317 -0.5504
  808MOL0     C 8971   7.232  10.538   0.767  0.2187  0.2015 -0.8712
  808MOL0     C 8972   7.104  10.575   0.805  0.2009  0.1950  0.1608
  808MOL0     C 8973   7.000  10.462   0.795 -0.0124 -0.5690  0.1345
  808MOL0     C 8974   7.072  10.709   0.815 -0.4092  0.3939 -1.0440
  808MOL0     C 8975   6.943  10.774   0.830  0.9879  0.3195  0.1306
  808MOL0     O 8976   6.832  10.706   0.874 -0.2087 -0.0241 -0.2174
  808MOL0     C 8977   6.710  10.757   0.854  0.1934 -0.8944  0.6718
  808MOL0     C 8978   6.658  10.812   0.736  0.4804 -0.6551 -0.3278
  808MOL0     C 8979   6.523  10.854   0.727  0.1622  0.5484 -0.3095
  808MOL0     C 8980   6.439  10.848   0.840 -0.2575 -0.9378  0.3515
  808MOL0     O 8981   6.316  10.911   0.842  0.0119 -1.0078 -0.0917
  808MOL0     C 8982   6.215  10.816   0.868  0.1222  0.4991  0.0568
  808MOL0     C 8983   6.080  10.864   0.820 -0.2328 -0.8258  0.3363
  808MOL0     C 8984   5.958  10.793   0.880 -0.8416  0.7259 -0.4002
  808MOL0     C 8985   5.916  10.855   1.007 -1.2504 -1.0139  0.2868
  808MOL0     C 8986   5.792  10.796   1.067  0.6458 -0.5045 -0.1692
  808MOL0     C 8987   5.673  10.876   1.012  0.0619  0.1707  0.1385
  808MOL0     C 8988   5.542  10.817   1.071 -0.1913  0.4043 -0.2767
  808MOL0     C 8989   5.418  10.858   0.980 -0.3035  0.3910 -0.7951
  808MOL0    Cl 8990   5.424  11.031   0.943  0.4656  0.2528 -0.2181
  808MOL0     C 8991   6.485  10.789   0.958 -0.3247  0.3206  0.1329
  808MOL0     C 8992   6.618  10.734   0.955 -0.4798  0.1815 -0.4688
  808MOL0     O 8993   6.936  10.892   0.801 -0.0998  0.1542 -0.6821
  808MOL0     C 8994   7.174  10.804   0.820 -0.9070 -0.7700  0.3733
  808MOL0     C 8995   7.310  10.771   0.798 -0.3258  0.8261 -0.7602
  808MOL0     N 8996   7.951  10.358   0.901 -0.6587 -0.6636  0.1345
  808MOL0     N 8997   7.999  10.360   1.026  0.1002  0.8921  0.6241
  808MOL0     C 8998   8.858  10.427   1.763  0.0097  0.7836 -0.9448
  808MOL0     C 8999   8.997  10.448   1.773  0.2548 -0.1747 -0.1357
  808MOL0     C 9000   9.410  10.592   1.971 -0.2175 -0.3874  0.3198
  808MOL0     C 9001   9.468  10.607   1.840  0.9068 -0.6060 -0.2394
  808MOL0     C 9002   9.604  10.642   1.828  0.7756  0.6057  0.6129
  808MOL0     C 9003   9.680  10.667   1.943 -0.6251 -0.3465  0.8675
  808MOL0     O 9004   9.811  10.696   1.911 -0.7620  0.1046  0.1484
  808MOL0     C 9005   9.877  10.782   2.010 -0.4389 -0.3489  0.5053
  808MOL0     C 9006  10.014  10.810   1.961  0.3717  0.2219  0.4528
  808MOL0     C 9007  10.101  10.909   2.042  0.0609  0.5763 -0.5749
  808MOL0     C 9008  10.217  10.963   1.963 -0.3564 -0.1328 -0.0218
  808MOL0     C 9009  10.332  10.870   1.947  1.0149 -0.9807  0.0080
  808MOL0     C 9010  10.442  10.826   1.942  0.3234  0.3088  0.3846
  808MOL0     C 9011   9.627  10.663   2.069 -0.4441 -0.0042  0.1214
  808MOL0     C 9012   9.489  10.630   2.083  0.0211  0.3325  0.5660
  808MOL0     H 9013   8.995  10.572   2.089 -0.6034  0.4178 -0.3088
  808MOL0     H 9014   8.756  10.528   2.067  1.3355  3.0578 -1.0893
  808MOL0     H 9015   8.587  10.466   1.671 -1.7761 -0.2407 -0.6466
  808MOL0     H 9016   8.589  10.296   1.729  1.4110 -0.5112 -0.1491
  808MOL0     H 9017   8.396  10.358   1.871 -1.9628  0.6237  0.2693
  808MOL0     H 9018   8.397  10.521   1.816 -1.9237  0.2967 -0.1531
  808MOL0     H 9019   8.393  10.466   1.594  4.5491  0.5312  3.7985
  808MOL0     H 9020   8.371  10.296   1.606  1.0524  0.6490 -0.1054
  808MOL0     H 9021   8.155  10.340   1.747  1.4541  0.0905  0.5530
  808MOL0     H 9022   8.160  10.509   1.695 -0.6756 -0.4039 -0.2672
  808MOL0     H 9023   8.167  10.274   1.512  0.4873  0.7940 -0.4554
  808MOL0     H 9024   8.021  10.349   1.562  0.2631  0.3088 -1.7618
  808MOL0     H 9025   8.103  10.576   1.452  1.5224  0.4723  0.6703
  808MOL0     H 9026   8.264  10.499   1.414  1.0226 -1.8524  0.4091
  808MOL0     H 9027   8.136  10.329   1.263 -0.1400 -0.4931  0.8454
  808MOL0     H 9028   7.991  10.400   1.311 -1.2883  3.1833  1.1173
  808MOL0     H 9029   8.208  10.555   1.160  0.4758 -1.1324 -0.9309
  808MOL0     H 9030   8.058  10.634   1.204  1.7771 -0.8055  3.7458
  808MOL0     H 9031   8.061  10.656   0.919  0.5498 -1.0089 -2.6930
  808MOL0     H 9032   7.961  10.601   0.679 -0.3629 -1.7491 -0.6554
  808MOL0     H 9033   7.873  10.452   0.646  0.6040 -0.4164  1.1470
  808MOL0     H 9034   7.731  10.654   0.680 -1.3862 -0.3086  0.2993
  808MOL0     H 9035   7.790  10.669   0.839  1.7531 -2.6192  2.0142
  808MOL0     H 9036   7.705  10.447   0.905  0.9310  1.7480  0.2265
  808MOL0     H 9037   7.628  10.417   0.750 -1.3473 -0.6102  0.9942
  808MOL0     H 9038   7.564  10.661   0.906 -0.2807  1.2971 -1.1682
  808MOL0     H 9039   7.489  10.498   0.930 -2.4183  1.6275 -0.1298
  808MOL0     H 9040   7.257  10.436   0.741 -3.2234 -1.9190  2.8973
  808MOL0     H 9041   7.032  10.380   0.730  0.4677  1.8193 -2.8353
  808MOL0     H 9042   6.981  10.418   0.894  0.9680 -2.5734 -0.5092
  808MOL0     H 9043   6.909  10.501   0.749  1.7878  2.2436 -1.3296
  808MOL0     H 9044   6.724  10.853   0.661 -2.2443  2.7513 -1.1070
  808MOL0     H 9045   6.481  10.902   0.639  0.5055 -0.4140 -1.0226
  808MOL0     H 9046   6.221  10.717   0.820 -0.5052 -0.5020  1.9367
  808MOL0     H 9047   6.221  10.800   0.976  1.0029 -2.7823 -0.3691
  808MOL0     H 9048   6.067  10.972   0.823  1.0137 -0.5299 -2.1116
  808MOL0     H 9049   6.071  10.843   0.713 -3.8381 -1.8732  0.7036
  808MOL0     H 9050   5.980  10.687   0.896  1.1408  1.3657  1.5790
  808MOL0     H 9051   5.869  10.794   0.815 -0.5712  0.3596 -0.7787
  808MOL0     H 9052   5.989  10.825   1.083 -0.0109  0.7159 -0.1499
  808MOL0     H 9053   5.927  10.964   1.003 -0.3854 -1.0834  0.6379
  808MOL0     H 9054   5.795  10.806   1.176  3.5416  1.6275 -0.3456
  808MOL0     H 9055   5.788  10.687   1.064  1.6479 -0.5263 -2.1788
  808MOL0     H 9056   5.698  10.981   1.030  1.3163 -0.1960  0.6159
  808MOL0     H 9057   5.659  10.854   0.906  0.7039 -3.3844  0.6663
  808MOL0     H 9058   5.515  10.845   1.173  0.5160 -5.3796  1.9279
  808MOL0     H 9059   5.544  10.707   1.063  0.6075  0.5153 -2.1699
  808MOL0     H 9060   5.333  10.830   1.042  1.2590 -1.0859  0.8103
  808MOL0     H 9061   5.425  10.804   0.885 -0.0673 -0.9764 -0.0208
  808MOL0     H 9062   6.427  10.776   1.049  1.4415  0.1067  1.2775
  808MOL0     H 9063   6.636  10.673   1.043  0.1096  0.4216 -0.4184
  808MOL0     H 9064   7.168  10.912   0.828  0.7510 -0.6013 -0.3975
  808MOL0     H 9065   7.398  10.834   0.798  0.9120 -0.8100  0.6560
  808MOL0     H 9066   8.824  10.383   1.670  0.2105 -1.7865  0.1115
  808MOL0     H 9067   9.064  10.423   1.692  1.5365  0.2422  0.7622
  808MOL0     H 9068   9.404  10.566   1.762 -0.9586 -1.7189  1.7730
  808MOL0     H 9069   9.653  10.639   1.731  0.9543 -0.8633  0.7244
  808MOL0     H 9070   9.828  10.878   2.031  1.2756  1.1343 -1.7309
  808MOL0     H 9071   9.900  10.729   2.102  3.3678 -0.7970 -0.5491
  808MOL0     H 9072   9.997  10.837   1.856 -3.0092 -4.1968 -0.4267
  808MOL0     H 9073  10.074  10.719   1.959 -0.9364 -0.6658 -0.4635
  808MOL0     H 9074  10.149  10.856   2.125  4.4224  1.8697 -2.0105
  808MOL0     H 9075  10.031  10.987   2.073 -3.0549 -2.6048  1.0763
  808MOL0     H 9076  10.256  11.048   2.019  0.6296  0.0078 -0.8990
  808MOL0     H 9077  10.179  10.995   1.865 -3.2383  1.5215  1.5164
  808MOL0     H 9078  10.532  10.770   1.954  1.1978  1.4846 -0.5318
  808MOL0     H 9079   9.686  10.686   2.157  0.5080 -1.1324 -0.2031
  808MOL0     H 9080   9.454  10.617   2.185  1.0343  0.9250  1.0096
  809MOL0     O 9081   0.145   2.125   5.154  0.2051 -0.1737 -0.5366
  809MOL0     C 9082   0.213   2.215   5.203 -0.7666  1.0425  0.9426
  809MOL0     O 9083   0.183   2.345   5.225  0.4439  0.8139 -0.1489
  809MOL0     C 9084   0.055   2.391   5.182 -0.2785 -0.5827  0.1469
  809MOL0     C 9085  -0.071   2.320   5.192  0.1030  0.0179 -0.2116
  809MOL0     C 9086  -0.189   2.389   5.170  0.5978 -0.3028 -0.2122
  809MOL0     C 9087  -0.199   2.521   5.127 -0.0946  0.0422  0.3700
  809MOL0     O 9088  -0.313   2.583   5.091 -0.4597 -0.8089  0.3542
  809MOL0     C 9089  -0.415   2.501   5.045 -0.5476 -0.8513  0.0208
  809MOL0     C 9090  -0.513   2.588   4.970  0.2318  0.1335 -0.5972
  809MOL0     C 9091  -0.636   2.502   4.931 -1.1748  0.0671 -0.0874
  809MOL0     C 9092  -0.723   2.486   5.052 -0.5259 -0.3270 -0.1681
  809MOL0     C 9093  -0.844   2.395   5.027 -0.1023 -0.3612 -1.2374
  809MOL0     C 9094  -0.946   2.465   4.925  0.5036  0.0026 -0.0401
  809MOL0     C 9095  -1.045   2.376   4.852  1.0975 -0.3536  1.3331
  809MOL0     C 9096  -1.130   2.287   4.941  0.4279 -0.0533 -0.8643
  809MOL0     N 9097  -1.268   2.278   4.878 -0.1338 -0.6999 -0.7125
  809MOL0     C 9098  -1.365   2.374   4.891 -0.8642 -0.3830  0.0353
  809MOL0     C 9099  -1.472   2.316   4.845  0.4789 -0.1854 -0.1158
  809MOL0     C 9100  -1.609   2.369   4.824 -0.4542 -0.2583  0.2450
  809MOL0     C 9101  -1.721   2.276   4.874 -0.0000  0.4075  0.1450
  809MOL0     C 9102  -1.745   2.161   4.769 -0.1079 -0.4109  0.0310
  809MOL0     C 9103  -1.860   2.063   4.798  0.5505  0.2479  0.1364
  809MOL0     O 9104  -1.971   2.141   4.842  0.4717  0.0893 -0.7312
  809MOL0     C 9105  -2.037   2.099   4.955 -0.4517  0.5638 -0.2996
  809MOL0     C 9106  -1.967   2.048   5.068  0.1539  0.1255  0.9038
  809MOL0     C 9107  -2.030   1.998   5.180  0.3838 -0.3766  0.6810
  809MOL0     C 9108  -1.946   1.947   5.290  0.1161 -0.4704 -0.6086
  809MOL0     C 9109  -2.173   1.993   5.188  0.1439  0.2126  0.7301
  809MOL0     C 9110  -2.245   1.946   5.311  0.4462  0.2593 -0.2804
  809MOL0     O 9111  -2.366   1.891   5.289 -1.0406  0.1628  0.0386
  809MOL0     C 9112  -2.440   1.825   5.382  0.2167  0.6901  0.2020
  809MOL0     C 9113  -2.555   1.763   5.332 -0.0151 -0.0921  0.6016
  809MOL0     C 9114  -2.635   1.676   5.408 -0.5184 -0.6318  0.5118
  809MOL0     C 9115  -2.602   1.646   5.540 -1.1065 -0.3280 -0.4200
  809MOL0     O 9116  -2.687   1.561   5.612 -0.1244 -0.7656  0.5357
  809MOL0     C 9117  -2.665   1.543   5.749  0.1568 -0.5015  0.3336
  809MOL0     C 9118  -2.778   1.467   5.808 -0.1443 -0.0904 -0.3080
  809MOL0     C 9119  -2.875   1.547   5.887  0.3971  0.5659 -0.3552
  809MOL0     C 9120  -3.007   1.562   5.819  0.0847  0.0294 -0.1081
  809MOL0     C 9121  -3.104   1.643   5.910  0.5291  0.0657 -0.4339
  809MOL0     C 9122  -3.234   1.655   5.831 -0.2118 -0.2364 -0.0813
  809MOL0     C 9123  -3.336   1.702   5.926  0.7133  0.0529  0.7621
  809MOL0     C 9124  -3.476   1.714   5.868  0.6306 -0.5075  0.9323
  809MOL0    Cl 9125  -3.486   1.824   5.732 -0.0775 -0.2975  0.2459
  809MOL0     C 9126  -2.475   1.703   5.587  0.1819 -0.1095  0.3195
  809MOL0     C 9127  -2.396   1.783   5.508 -0.1210  0.8215  0.4317
  809MOL0     O 9128  -2.206   1.986   5.420 -0.5789 -0.4764  0.0576
  809MOL0     C 9129  -2.244   2.040   5.076  0.4436 -0.4815  0.0830
  809MOL0     C 9130  -2.178   2.100   4.959 -0.6126 -0.4168  0.0764
  809MOL0     N 9131  -1.436   2.196   4.798 -0.0771 -0.4143 -0.6359
  809MOL0     N 9132  -1.315   2.176   4.812 -0.2123  1.0536 -0.0288
  809MOL0     C 9133  -0.077   2.582   5.127 -0.5589  0.0590 -0.4357
  809MOL0     C 9134   0.050   2.528   5.146  0.5264  0.8142 -1.0184
  809MOL0     C 9135   0.347   2.182   5.246 -1.0707 -0.4812  0.1797
  809MOL0     C 9136   0.384   2.204   5.376 -0.2920 -0.8174 -1.1036
  809MOL0     C 9137   0.511   2.165   5.430 -0.5245 -0.7134 -0.0618
  809MOL0     C 9138   0.612   2.117   5.350  0.2190  0.2856 -0.6867
  809MOL0     O 9139   0.737   2.097   5.414 -0.5916 -0.7887 -0.3095
  809MOL0     C 9140   0.854   2.055   5.340 -0.4751 -0.2376  0.3837
  809MOL0     C 9141   0.980   2.053   5.435 -0.3341 -0.2204  0.0039
  809MOL0     C 9142   1.079   1.960   5.378 -0.5665  0.4702  0.7890
  809MOL0     C 9143   1.216   1.970   5.440 -0.6043 -0.0890 -0.2900
  809MOL0     C 9144   1.314   1.882   5.380  0.0642  0.5849  0.8904
  809MOL0     C 9145   1.375   1.787   5.342  0.5979 -0.1931  0.2213
  809MOL0     C 9146   0.583   2.098   5.215  0.0834  0.5694  0.0719
  809MOL0     C 9147   0.446   2.119   5.167 -0.7274 -0.0595  0.1643
  809MOL0     H 9148  -0.079   2.218   5.227  0.0963 -0.4871 -1.6322
  809MOL0     H 9149  -0.286   2.342   5.182 -0.3029  1.6339  0.4927
  809MOL0     H 9150  -0.374   2.425   4.979 -2.3373 -0.3485 -1.7834
  809MOL0     H 9151  -0.465   2.462   5.135 -0.3106 -0.9779  0.0981
  809MOL0     H 9152  -0.541   2.675   5.031  0.0185 -0.1727 -0.2583
  809MOL0     H 9153  -0.460   2.630   4.884 -0.6171  1.0039 -0.7137
  809MOL0     H 9154  -0.684   2.550   4.846 -0.0112  0.8253 -0.3404
  809MOL0     H 9155  -0.599   2.404   4.901 -1.5042  0.5012 -1.9931
  809MOL0     H 9156  -0.663   2.440   5.131 -0.1021 -2.0050 -1.4051
  809MOL0     H 9157  -0.762   2.582   5.087  0.4381 -0.5923  1.7884
  809MOL0     H 9158  -0.813   2.295   4.997 -0.2884 -0.4674 -1.0812
  809MOL0     H 9159  -0.905   2.383   5.117  0.6749 -1.8452 -0.8724
  809MOL0     H 9160  -1.013   2.524   4.988  2.4132 -1.3412  3.4954
  809MOL0     H 9161  -0.897   2.528   4.850 -0.4077  0.6023 -0.1395
  809MOL0     H 9162  -1.111   2.429   4.782 -0.7731 -2.2509  1.5287
  809MOL0     H 9163  -0.996   2.313   4.777 -1.9545  0.7250 -1.8653
  809MOL0     H 9164  -1.148   2.324   5.043 -2.7341 -2.9244 -0.2236
  809MOL0     H 9165  -1.081   2.192   4.967 -0.5488 -0.1294  0.8776
  809MOL0     H 9166  -1.374   2.471   4.938  1.2713  1.0222 -2.2195
  809MOL0     H 9167  -1.609   2.455   4.891  3.4196  2.4213 -2.7830
  809MOL0     H 9168  -1.629   2.397   4.721 -0.1490 -0.7988  0.0304
  809MOL0     H 9169  -1.810   2.339   4.883 -0.0000  0.3112  0.8962
  809MOL0     H 9170  -1.704   2.226   4.970 -2.1470 -4.5309 -1.6752
  809MOL0     H 9171  -1.660   2.099   4.738 -1.5304 -0.6123 -4.2329
  809MOL0     H 9172  -1.767   2.209   4.673  1.8833 -1.5187 -1.0424
  809MOL0     H 9173  -1.820   1.992   4.871 -2.3003 -0.2677  1.3241
  809MOL0     H 9174  -1.880   2.016   4.702  2.9198  2.9877 -1.8871
  809MOL0     H 9175  -1.859   2.044   5.064  0.1649 -1.5710  2.1104
  809MOL0     H 9176  -1.842   1.947   5.255  0.7601 -0.6590  1.2123
  809MOL0     H 9177  -1.948   2.001   5.385  2.6026 -0.6416 -0.3819
  809MOL0     H 9178  -1.958   1.841   5.313 -3.1588 -0.3329 -1.2591
  809MOL0     H 9179  -2.593   1.774   5.231  0.6530  0.7881  0.4292
  809MOL0     H 9180  -2.728   1.639   5.366  0.0045 -0.0617 -1.2352
  809MOL0     H 9181  -2.568   1.497   5.773 -0.0959  0.2560  3.1314
  809MOL0     H 9182  -2.668   1.633   5.810 -1.0489 -1.6868  2.1202
  809MOL0     H 9183  -2.838   1.418   5.730 -2.9764  0.3914  1.4099
  809MOL0     H 9184  -2.739   1.393   5.877 -4.2196 -1.1499  1.1521
  809MOL0     H 9185  -2.844   1.647   5.921 -0.7889  0.4127  1.2804
  809MOL0     H 9186  -2.883   1.484   5.975  3.9092 -1.4170 -1.2736
  809MOL0     H 9187  -2.988   1.620   5.728  0.3353 -0.5972 -0.4610
  809MOL0     H 9188  -3.037   1.459   5.796 -0.6098  0.4477 -1.1744
  809MOL0     H 9189  -3.070   1.747   5.918 -2.3289  1.0472  0.2231
  809MOL0     H 9190  -3.114   1.595   6.007  1.0405  0.3819 -0.2232
  809MOL0     H 9191  -3.228   1.726   5.748 -0.6584  1.6262  1.4073
  809MOL0     H 9192  -3.276   1.559   5.801 -4.1034  0.2358  2.9594
  809MOL0     H 9193  -3.311   1.800   5.966 -0.2948  0.8654 -0.5333
  809MOL0     H 9194  -3.342   1.636   6.013 -1.9526 -2.8804 -1.4200
  809MOL0     H 9195  -3.539   1.757   5.947 -2.6338 -2.9033 -0.1619
  809MOL0     H 9196  -3.510   1.612   5.851  3.2273 -1.4854  1.1240
  809MOL0     H 9197  -2.449   1.670   5.687  0.1633 -2.2976 -0.3370
  809MOL0     H 9198  -2.299   1.814   5.545 -0.4599  3.1648 -0.4869
  809MOL0     H 9199  -2.353   2.036   5.073  0.4891 -2.6972 -0.7383
  809MOL0     H 9200  -2.228   2.116   4.863 -3.9415 -1.2967  1.5099
  809MOL0     H 9201  -0.092   2.682   5.087 -1.0230 -0.1871 -0.9004
  809MOL0     H 9202   0.139   2.590   5.141 -0.4180  2.3113 -0.2926
  809MOL0     H 9203   0.312   2.243   5.447 -0.2085 -1.3930 -0.6940
  809MOL0     H 9204   0.537   2.179   5.534 -1.8442  1.8314  0.0155
  809MOL0     H 9205   0.839   1.959   5.290 -0.7977  0.6879 -1.4082
  809MOL0     H 9206   0.872   2.123   5.256  1.4094 -1.4343 -0.2261
  809MOL0     H 9207   0.946   2.010   5.530  1.3336  0.2380  0.8410
  809MOL0     H 9208   1.021   2.153   5.448  0.8866 -0.6001 -0.7918
  809MOL0     H 9209   1.080   1.972   5.269  1.4790 -1.6865  0.4990
  809MOL0     H 9210   1.040   1.858   5.390  1.1129 -0.3428 -0.3301
  809MOL0     H 9211   1.217   1.953   5.548 -1.9357 -0.3854 -0.3115
  809MOL0     H 9212   1.245   2.075   5.432 -3.0741  0.5112 -3.2207
  809MOL0     H 9213   1.437   1.706   5.309 -0.9137 -2.0132  1.6588
  809MOL0     H 9214   0.660   2.070   5.143 -0.0463  0.8942 -0.1933
  809MOL0     H 9215   0.431   2.111   5.060 -0.2728 -1.3123  0.1741
  810MOL0     O 9216   2.118   0.505   8.008 -0.6272 -0.2501 -0.1264
  810MOL0     C 9217   2.113   0.398   7.954  0.5825  0.8728 -0.4673
  810MOL0     O 9218   2.013   0.312   7.969 -0.0538 -0.0313 -0.3484
  810MOL0     C 9219   1.918   0.348   8.056 -0.6356 -0.0690 -0.9127
  810MOL0     C 9220   1.902   0.264   8.168  0.6874 -0.3978 -0.7407
  810MOL0     C 9221   1.793   0.277   8.251  0.5155  0.3406  0.2502
  810MOL0     C 9222   1.700   0.379   8.226  0.7564  0.7634 -0.2275
  810MOL0     O 9223   1.582   0.376   8.295 -0.1114  0.2299  0.9222
  810MOL0     C 9224   1.599   0.378   8.440  1.0519 -0.1150 -0.4971
  810MOL0     C 9225   1.468   0.417   8.511 -0.1358 -1.0512 -1.0578
  810MOL0     C 9226   1.434   0.571   8.483  0.6526  0.0200 -0.4699
  810MOL0     C 9227   1.312   0.621   8.566  0.5429  0.3964 -0.7104
  810MOL0     C 9228   1.291   0.771   8.549 -0.2974 -0.1132 -0.4523
  810MOL0     C 9229   1.176   0.822   8.632 -0.1072 -0.5728  0.0389
  810MOL0     C 9230   1.212   0.822   8.780  0.5155  0.3639 -0.5527
  810MOL0     C 9231   1.326   0.921   8.810 -0.1443  0.8588 -0.7216
  810MOL0     N 9232   1.307   1.053   8.744 -0.6885  0.6504  0.1596
  810MOL0     C 9233   1.216   1.151   8.773 -0.0130 -0.8666 -0.5458
  810MOL0     C 9234   1.233   1.237   8.673 -0.7370 -0.5751 -0.5490
  810MOL0     C 9235   1.155   1.368   8.661 -1.1629 -0.6824 -0.0089
  810MOL0     C 9236   1.025   1.351   8.589  0.1951  0.4661 -0.1771
  810MOL0     C 9237   0.940   1.481   8.603 -0.1879 -0.4528 -0.0883
  810MOL0     C 9238   0.874   1.490   8.739  0.1043  0.2564 -0.3407
  810MOL0     O 9239   0.797   1.611   8.754 -0.2839  0.6488  0.6627
  810MOL0     C 9240   0.666   1.631   8.703 -0.3420  0.3512 -0.0019
  810MOL0     C 9241   0.607   1.748   8.729 -0.2812 -0.7068 -0.4733
  810MOL0     C 9242   0.480   1.783   8.694 -0.2046  0.6055 -0.6596
  810MOL0     C 9243   0.421   1.915   8.734 -0.0205  0.0902 -0.1675
  810MOL0     C 9244   0.396   1.684   8.634 -0.1713 -0.1051  1.2453
  810MOL0     C 9245   0.260   1.705   8.590  0.0142 -1.0183 -0.4089
  810MOL0     O 9246   0.176   1.651   8.675  0.0159  0.4440 -0.3545
  810MOL0     C 9247   0.041   1.669   8.650  0.0718  0.4918  0.0814
  810MOL0     C 9248  -0.018   1.797   8.652 -0.4445 -0.0869  0.1854
  810MOL0     C 9249  -0.160   1.803   8.647  0.4760  0.0787  0.5667
  810MOL0     C 9250  -0.236   1.687   8.632  0.8343  0.3307 -0.3859
  810MOL0     O 9251  -0.373   1.685   8.604  0.1896 -0.1372 -0.3393
  810MOL0     C 9252  -0.441   1.806   8.650  0.6935 -0.0572  0.1281
  810MOL0     C 9253  -0.591   1.777   8.619 -0.5594  0.1464  0.1732
  810MOL0     C 9254  -0.638   1.790   8.473  0.0004 -0.2855 -0.9392
  810MOL0     C 9255  -0.791   1.757   8.470  1.5883 -0.2856  0.2975
  810MOL0     C 9256  -0.838   1.779   8.324 -0.1958 -0.3041  0.3167
  810MOL0     C 9257  -0.970   1.715   8.281 -0.1640  1.1836 -0.6174
  810MOL0     C 9258  -1.000   1.741   8.131 -0.3281 -0.2380 -0.0963
  810MOL0     C 9259  -1.132   1.688   8.083 -0.1015  0.1766 -1.3346
  810MOL0    Cl 9260  -1.095   1.650   7.917  0.3858 -0.2029 -0.0322
  810MOL0     C 9261  -0.174   1.563   8.635 -1.2641  0.4653 -0.9255
  810MOL0     C 9262  -0.042   1.555   8.651 -0.4581  0.0835 -0.2651
  810MOL0     O 9263   0.233   1.769   8.486 -0.2621  0.1329  0.5606
  810MOL0     C 9264   0.456   1.556   8.611  0.4078  0.0492 -0.4789
  810MOL0     C 9265   0.591   1.530   8.645 -0.0508 -0.5672  0.5729
  810MOL0     N 9266   1.331   1.196   8.586  0.2180 -0.0652 -0.6122
  810MOL0     N 9267   1.370   1.080   8.625 -0.0730  1.4395 -0.5885
  810MOL0     C 9268   1.717   0.470   8.120  0.7323 -0.4188 -0.0004
  810MOL0     C 9269   1.825   0.447   8.033  0.9094 -0.5452 -0.3335
  810MOL0     C 9270   2.233   0.347   7.880  0.5875  0.4186 -0.5807
  810MOL0     C 9271   2.247   0.229   7.802 -0.0164 -0.0007 -0.2450
  810MOL0     C 9272   2.356   0.195   7.724  0.3083  0.1051  0.6320
  810MOL0     C 9273   2.452   0.290   7.718  0.5491  0.0645  0.7518
  810MOL0     O 9274   2.571   0.263   7.651 -0.0157 -1.2455  0.5350
  810MOL0     C 9275   2.652   0.156   7.708 -0.2897  0.7562 -0.2925
  810MOL0     C 9276   2.720   0.210   7.834  0.0355  0.4163  0.2080
  810MOL0     C 9277   2.807   0.339   7.824 -0.0315 -0.0577 -0.4974
  810MOL0     C 9278   2.909   0.352   7.723 -0.1202 -0.1835 -0.1543
  810MOL0     C 9279   2.981   0.228   7.681  0.3749 -0.9143  0.8039
  810MOL0     C 9280   3.036   0.125   7.647  0.9180 -0.7122  0.4565
  810MOL0     C 9281   2.450   0.403   7.789 -0.3977  0.8347 -1.1421
  810MOL0     C 9282   2.344   0.433   7.877 -0.6984 -0.0598 -0.4045
  810MOL0     H 9283   1.984   0.194   8.185 -0.5974 -1.3195  2.2871
  810MOL0     H 9284   1.789   0.213   8.339  0.3689 -0.2628 -0.1909
  810MOL0     H 9285   1.620   0.280   8.484 -2.3238  0.0833  2.0189
  810MOL0     H 9286   1.666   0.460   8.465 -1.1905  1.0561  2.2686
  810MOL0     H 9287   1.381   0.366   8.468 -0.4384 -0.0968 -1.6050
  810MOL0     H 9288   1.473   0.398   8.619  2.6256  2.4878 -0.3437
  810MOL0     H 9289   1.523   0.628   8.512  0.5714 -1.1561  2.4611
  810MOL0     H 9290   1.420   0.580   8.375  1.4892 -0.1222 -0.5944
  810MOL0     H 9291   1.222   0.565   8.539  0.6857  1.3143 -3.3972
  810MOL0     H 9292   1.337   0.603   8.671  2.8432  0.8576 -1.1319
  810MOL0     H 9293   1.390   0.813   8.571  0.1299 -1.9332  1.3545
  810MOL0     H 9294   1.262   0.788   8.445 -1.3488 -3.3816 -0.8043
  810MOL0     H 9295   1.143   0.921   8.600  1.2717 -0.3509 -0.7887
  810MOL0     H 9296   1.093   0.751   8.629  1.0749 -2.0616  0.8190
  810MOL0     H 9297   1.121   0.861   8.825 -1.5214 -2.1414 -2.2316
  810MOL0     H 9298   1.232   0.724   8.823  1.0151  0.3649 -0.7711
  810MOL0     H 9299   1.420   0.870   8.786 -0.2805 -1.1159  2.3571
  810MOL0     H 9300   1.315   0.937   8.918  0.8791  0.1188 -0.4893
  810MOL0     H 9301   1.140   1.156   8.849 -1.2442  0.6610 -1.8163
  810MOL0     H 9302   1.141   1.407   8.762  0.3576 -0.7988  0.2786
  810MOL0     H 9303   1.220   1.440   8.610 -1.1779  1.2627  2.5360
  810MOL0     H 9304   0.965   1.267   8.624 -0.2753 -0.4391 -2.8879
  810MOL0     H 9305   1.045   1.329   8.484 -3.3047  0.0289 -0.8663
  810MOL0     H 9306   0.859   1.475   8.529 -0.9848  2.5846  0.4106
  810MOL0     H 9307   1.002   1.569   8.586 -0.5616 -0.3785 -1.1681
  810MOL0     H 9308   0.944   1.488   8.823 -0.0481  3.4092 -0.0128
  810MOL0     H 9309   0.805   1.406   8.752  0.0170  0.1856 -1.2105
  810MOL0     H 9310   0.667   1.820   8.785  2.4173 -1.9112 -1.6382
  810MOL0     H 9311   0.380   1.968   8.648 -1.6144 -0.6030  0.1127
  810MOL0     H 9312   0.330   1.915   8.795  0.4581  0.8212  0.5672
  810MOL0     H 9313   0.483   1.984   8.791 -1.3365  0.4754  0.8310
  810MOL0     H 9314   0.043   1.886   8.658 -0.4405 -0.2036  2.9092
  810MOL0     H 9315  -0.206   1.901   8.651 -0.6413 -0.3488 -0.8983
  810MOL0     H 9316  -0.426   1.816   8.758 -0.3033  2.7483  0.0882
  810MOL0     H 9317  -0.415   1.902   8.606 -0.9543  1.3175  1.9582
  810MOL0     H 9318  -0.622   1.685   8.670  3.1134 -0.8864  0.8250
  810MOL0     H 9319  -0.650   1.851   8.674 -0.8858 -0.0702  0.1166
  810MOL0     H 9320  -0.595   1.719   8.402  0.3010 -2.0851  0.9446
  810MOL0     H 9321  -0.631   1.895   8.442 -2.5951  0.2915  0.1298
  810MOL0     H 9322  -0.789   1.649   8.489  0.6984 -1.0672 -3.3552
  810MOL0     H 9323  -0.851   1.801   8.550  2.1249 -2.0938  1.8000
  810MOL0     H 9324  -0.768   1.765   8.241 -0.6238  1.1529 -0.3207
  810MOL0     H 9325  -0.846   1.888   8.323 -1.2200 -0.3717 -1.1463
  810MOL0     H 9326  -0.972   1.606   8.292 -0.4279  1.4575  5.0662
  810MOL0     H 9327  -1.047   1.753   8.349 -0.7600  1.9493 -1.6858
  810MOL0     H 9328  -0.912   1.710   8.074  0.0966  2.5845 -1.1563
  810MOL0     H 9329  -1.003   1.849   8.116 -1.3494 -0.1182  0.8137
  810MOL0     H 9330  -1.207   1.767   8.093  1.4673  1.7846 -1.7094
  810MOL0     H 9331  -1.161   1.594   8.131  1.3288  1.0676  1.5658
  810MOL0     H 9332  -0.234   1.472   8.638 -2.1595  1.0344  1.9878
  810MOL0     H 9333   0.010   1.460   8.653 -0.6747 -0.0274  0.1888
  810MOL0     H 9334   0.413   1.471   8.560 -0.5039  0.5311 -0.5297
  810MOL0     H 9335   0.632   1.431   8.631  0.7386 -0.2099  0.2723
  810MOL0     H 9336   1.637   0.540   8.100  0.2777 -0.7986  0.4708
  810MOL0     H 9337   1.837   0.509   7.945 -0.1312  3.5645  2.1782
  810MOL0     H 9338   2.164   0.161   7.812  0.3183 -0.4436 -0.4671
  810MOL0     H 9339   2.360   0.115   7.652  2.9681 -0.2228  1.0625
  810MOL0     H 9340   2.587   0.069   7.721 -1.4397  1.3836 -1.5317
  810MOL0     H 9341   2.723   0.126   7.630 -0.6923 -0.9664 -0.0284
  810MOL0     H 9342   2.789   0.135   7.874  3.0777  2.7441 -0.2784
  810MOL0     H 9343   2.642   0.219   7.910 -1.0333 -2.3397 -0.4348
  810MOL0     H 9344   2.839   0.353   7.928 -1.8461  2.2343 -0.1711
  810MOL0     H 9345   2.742   0.425   7.810  1.0333  0.4032 -3.0838
  810MOL0     H 9346   2.979   0.431   7.750 -2.6659  1.4844  1.9660
  810MOL0     H 9347   2.860   0.381   7.629 -0.7661  0.2655  0.3130
  810MOL0     H 9348   3.086   0.032   7.629  1.1482 -0.1222 -2.2731
  810MOL0     H 9349   2.533   0.471   7.772 -0.2600  0.3612 -2.4907
  810MOL0     H 9350   2.349   0.532   7.921  2.5407 -1.6115  3.2803
  811MOL0     O 9351   9.903   4.530  10.242  0.0997  0.0628 -0.7011
  811MOL0     C 9352   9.899   4.653  10.220 -0.7329 -0.0759  0.7136
  811MOL0     O 9353   9.792   4.727  10.199 -0.1447  1.0164  0.1748
  811MOL0     C 9354   9.673   4.676  10.263  0.5384  0.5630 -0.0304
  811MOL0     C 9355   9.566   4.677  10.176 -0.3280 -0.3032 -0.0123
  811MOL0     C 9356   9.450   4.634  10.216 -0.3407  1.0572 -0.8166
  811MOL0     C 9357   9.424   4.589  10.351 -0.6291  0.1568  0.1104
  811MOL0     O 9358   9.291   4.570  10.380 -0.2981  0.2127  0.4906
  811MOL0     C 9359   9.266   4.484  10.485  0.2924  0.2432  0.1491
  811MOL0     C 9360   9.140   4.409  10.470  0.0670  0.6873 -0.3233
  811MOL0     C 9361   9.031   4.503  10.426 -0.0308  0.1212 -0.2897
  811MOL0     C 9362   8.893   4.450  10.446 -0.3797 -0.4139 -0.6146
  811MOL0     C 9363   8.801   4.562  10.422  0.4213  0.2225  0.6393
  811MOL0     C 9364   8.663   4.502  10.383 -0.0077  0.5133  0.2271
  811MOL0     C 9365   8.560   4.613  10.348  0.7435  0.5269 -0.4826
  811MOL0     C 9366   8.533   4.719  10.448 -0.1990 -0.4548 -0.5882
  811MOL0     N 9367   8.462   4.824  10.376  0.8838  0.0706  0.3135
  811MOL0     C 9368   8.334   4.805  10.338 -0.1583  0.2115 -0.0931
  811MOL0     C 9369   8.310   4.902  10.246  0.7192  0.1848  0.1112
  811MOL0     C 9370   8.187   4.938  10.165 -0.9769  0.2553 -1.1687
  811MOL0     C 9371   8.067   4.938  10.254 -0.1817 -0.4604 -0.3117
  811MOL0     C 9372   7.943   4.939  10.158  0.0908 -0.1814  0.1746
  811MOL0     C 9373   7.813   4.930  10.243 -0.1727 -0.6437  0.3107
  811MOL0     O 9374   7.710   4.977  10.155 -0.2711  0.5197 -0.2573
  811MOL0     C 9375   7.572   4.956  10.187 -0.2416  0.0535  0.0732
  811MOL0     C 9376   7.481   5.028  10.113  0.7655  0.1718  0.3943
  811MOL0     C 9377   7.349   5.036  10.148  0.0394  0.3056 -0.6508
  811MOL0     C 9378   7.258   5.108  10.061 -0.0693  0.8043  0.4006
  811MOL0     C 9379   7.305   4.979  10.270 -0.4456 -0.4013 -0.5500
  811MOL0     C 9380   7.169   4.987  10.322 -0.7805  0.2696 -0.7226
  811MOL0     O 9381   7.090   5.090  10.291 -0.0180 -0.0090 -0.6270
  811MOL0     C 9382   6.967   5.097  10.351  0.8084  0.4830 -0.9407
  811MOL0     C 9383   6.856   5.052  10.280 -0.6828 -0.6492  0.8007
  811MOL0     C 9384   6.725   5.061  10.316 -0.1256  0.7164  1.0240
  811MOL0     C 9385   6.699   5.103  10.448 -0.2612  0.4220  0.0324
  811MOL0     O 9386   6.564   5.104  10.492 -0.1251 -0.1458  0.2105
  811MOL0     C 9387   6.539   5.167  10.625  0.2242  0.0199 -0.3504
  811MOL0     C 9388   6.389   5.140  10.650  0.1458  0.0537 -0.4673
  811MOL0     C 9389   6.330   5.242  10.741 -0.1337  0.6155  0.0083
  811MOL0     C 9390   6.184   5.211  10.752  0.0848 -0.0994 -0.3433
  811MOL0     C 9391   6.140   5.281  10.889  0.3727  0.0304  0.6374
  811MOL0     C 9392   6.098   5.428  10.852 -0.2898  0.2974  0.0729
  811MOL0     C 9393   6.020   5.495  10.971  0.4492 -0.1439  0.3319
  811MOL0     C 9394   5.951   5.623  10.925 -0.4620  1.0115  0.1758
  811MOL0    Cl 9395   5.886   5.703  11.068 -0.1773 -0.0460 -0.3830
  811MOL0     C 9396   6.811   5.146  10.522 -0.3025 -0.4351 -1.1366
  811MOL0     C 9397   6.943   5.141  10.481 -0.1266  0.0080  0.5607
  811MOL0     O 9398   7.128   4.888  10.381 -0.2304 -0.2556  0.4225
  811MOL0     C 9399   7.406   4.910  10.347 -0.2165  0.1255 -0.2350
  811MOL0     C 9400   7.535   4.893  10.302  0.0628  0.1127 -0.2351
  811MOL0     N 9401   8.422   4.973  10.229  0.1194 -0.9839 -0.5794
  811MOL0     N 9402   8.513   4.930  10.304 -0.0088  0.4600  0.6972
  811MOL0     C 9403   9.534   4.585  10.439 -0.2811  0.2133  1.1520
  811MOL0     C 9404   9.657   4.636  10.395 -0.4141  0.0619 -0.6209
  811MOL0     C 9405  10.027   4.704  10.181  0.4649 -0.5651  0.3751
  811MOL0     C 9406  10.032   4.818  10.099  0.0159 -0.2296  0.3196
  811MOL0     C 9407  10.152   4.884  10.071 -0.3273 -0.1119  0.5884
  811MOL0     C 9408  10.269   4.842  10.131 -0.2342 -0.1107  0.4340
  811MOL0     O 9409  10.373   4.921  10.087  0.7619 -0.6684  0.6082
  811MOL0     C 9410  10.509   4.881  10.111  0.5153 -0.0214 -0.2850
  811MOL0     C 9411  10.594   4.989  10.057 -0.2009  0.2267  0.5879
  811MOL0     C 9412  10.747   4.948  10.056 -0.1490  0.1260 -0.0979
  811MOL0     C 9413  10.830   5.062  10.092 -0.5307 -0.7094 -0.2725
  811MOL0     C 9414  10.832   5.091  10.239  0.0950 -0.3546  0.3666
  811MOL0     C 9415  10.828   5.122  10.361 -0.0824 -0.0167  0.1730
  811MOL0     C 9416  10.266   4.728  10.217 -0.3979 -0.8875  0.0438
  811MOL0     C 9417  10.147   4.658  10.229 -0.5026  0.2012  0.1974
  811MOL0     H 9418   9.583   4.713  10.075  0.3597 -1.4563 -0.3260
  811MOL0     H 9419   9.364   4.624  10.150 -1.3623 -2.5350  0.8065
  811MOL0     H 9420   9.347   4.411  10.488  0.0438 -0.0478 -0.1705
  811MOL0     H 9421   9.255   4.549  10.572  0.6043  2.4970 -1.3937
  811MOL0     H 9422   9.149   4.328  10.397 -0.1002 -0.1503  0.5667
  811MOL0     H 9423   9.110   4.361  10.564  1.5259  1.4844  0.5696
  811MOL0     H 9424   9.037   4.596  10.482  1.5383  0.8397 -1.5766
  811MOL0     H 9425   9.054   4.534  10.324  2.3076 -0.4606 -0.0177
  811MOL0     H 9426   8.885   4.357  10.389  1.1986 -2.0983  1.6917
  811MOL0     H 9427   8.887   4.425  10.552  2.1530  2.4288  0.3673
  811MOL0     H 9428   8.797   4.611  10.520  1.7524 -0.1629  0.9109
  811MOL0     H 9429   8.844   4.639  10.358  0.1949  0.0937  0.3336
  811MOL0     H 9430   8.682   4.446  10.291  2.6950  1.8347 -0.1122
  811MOL0     H 9431   8.632   4.444  10.470 -0.2924 -1.0482 -0.8685
  811MOL0     H 9432   8.593   4.665  10.257  0.4307 -2.6705 -2.6153
  811MOL0     H 9433   8.461   4.570  10.329  1.1177 -0.8430  0.4636
  811MOL0     H 9434   8.631   4.758  10.478 -1.3047  1.0865  1.2506
  811MOL0     H 9435   8.482   4.678  10.536 -0.6479  0.7592 -0.2664
  811MOL0     H 9436   8.264   4.726  10.364 -0.3947  0.0005 -1.2724
  811MOL0     H 9437   8.194   5.040  10.127  0.7491  0.9169  0.7489
  811MOL0     H 9438   8.189   4.869  10.080  0.0156 -1.0301 -0.1392
  811MOL0     H 9439   8.076   5.025  10.318  6.8008 -0.5252 -0.4345
  811MOL0     H 9440   8.059   4.843  10.309  0.8952  0.3968  1.3989
  811MOL0     H 9441   7.935   4.850  10.094  0.1822  0.3383 -0.5746
  811MOL0     H 9442   7.937   5.033  10.102 -0.6199  0.1003  0.7126
  811MOL0     H 9443   7.819   4.988  10.336  1.3086 -0.7674  0.3122
  811MOL0     H 9444   7.807   4.824  10.269  1.4035 -1.1836 -1.3468
  811MOL0     H 9445   7.515   5.086  10.029 -1.2909  0.2380 -0.4228
  811MOL0     H 9446   7.215   5.194  10.113 -2.8970 -1.1154  1.4943
  811MOL0     H 9447   7.310   5.138   9.969 -1.1612 -1.9351 -1.2371
  811MOL0     H 9448   7.170   5.050  10.035  0.8557 -0.1995 -0.6230
  811MOL0     H 9449   6.888   5.027  10.179  3.5881  0.3700  1.6912
  811MOL0     H 9450   6.647   5.031  10.246  0.2396 -0.6587  1.1701
  811MOL0     H 9451   6.609   5.125  10.698 -1.1175 -1.3559  0.1981
  811MOL0     H 9452   6.563   5.274  10.630  1.1568 -0.2010  0.2398
  811MOL0     H 9453   6.335   5.147  10.556  1.0177 -0.7280 -1.0480
  811MOL0     H 9454   6.378   5.037  10.687  1.4328 -1.0538 -2.9711
  811MOL0     H 9455   6.350   5.340  10.698 -0.3854  1.2615  1.2944
  811MOL0     H 9456   6.375   5.229  10.840 -1.0167 -2.6986  0.0823
  811MOL0     H 9457   6.139   5.252  10.660 -1.8467 -1.0195  0.1426
  811MOL0     H 9458   6.171   5.103  10.764 -2.6683  0.4750  3.4215
  811MOL0     H 9459   6.206   5.289  10.976 -0.9149  0.1506  1.6304
  811MOL0     H 9460   6.050   5.229  10.922 -0.7826  2.3184  1.3166
  811MOL0     H 9461   6.195   5.474  10.834 -0.7445  2.6845  2.9204
  811MOL0     H 9462   6.037   5.420  10.761  1.6449 -0.3172 -1.2146
  811MOL0     H 9463   6.096   5.520  11.045 -0.3584  0.6010  0.9416
  811MOL0     H 9464   5.941   5.435  11.019  0.1402 -0.7685 -0.9082
  811MOL0     H 9465   5.873   5.601  10.852  0.4273 -2.7151  0.1580
  811MOL0     H 9466   6.021   5.692  10.878 -0.0509  0.3121 -0.2653
  811MOL0     H 9467   6.803   5.180  10.624 -2.5558 -1.3779 -0.9383
  811MOL0     H 9468   7.024   5.189  10.534  1.9169  1.1909 -3.3093
  811MOL0     H 9469   7.380   4.861  10.440 -0.3571  2.6923  1.1386
  811MOL0     H 9470   7.592   4.818  10.356  0.8804  0.7031 -0.2575
  811MOL0     H 9471   9.522   4.549  10.540 -1.5974 -3.4389 -0.1250
  811MOL0     H 9472   9.728   4.636  10.476 -0.5779 -0.2995 -0.4752
  811MOL0     H 9473   9.940   4.849  10.051 -0.9876 -1.1883  1.5363
  811MOL0     H 9474  10.158   4.971  10.006 -0.2429  0.0724  0.8419
  811MOL0     H 9475  10.526   4.873  10.219  2.5517  0.0155 -0.5615
  811MOL0     H 9476  10.548   4.789  10.066  0.5587 -0.7027  1.0940
  811MOL0     H 9477  10.575   5.085  10.107  1.0467  0.1362  1.2766
  811MOL0     H 9478  10.574   4.992   9.950  0.6834  3.9774  0.3873
  811MOL0     H 9479  10.783   4.923   9.956  2.0018  0.9111  0.4324
  811MOL0     H 9480  10.759   4.862  10.123 -0.3840  0.6958  0.6945
  811MOL0     H 9481  10.793   5.146  10.033 -1.1519 -1.6673 -1.2825
  811MOL0     H 9482  10.935   5.059  10.060 -1.0956 -0.7586 -2.2136
  811MOL0     H 9483  10.837   5.170  10.456  0.4828  1.2996 -0.5077
  811MOL0     H 9484  10.357   4.686  10.260 -0.7446 -0.0523  1.6652
  811MOL0     H 9485  10.158   4.563  10.280 -1.5882 -1.0238 -1.7145
  812MOL0     O 9486   2.679   1.393   2.065 -0.2306 -0.0883  0.0900
  812MOL0     C 9487   2.715   1.282   2.033 -0.1677 -0.3533  0.0577
  812MOL0     O 9488   2.636   1.174   2.012  0.3390  0.3580 -0.5870
  812MOL0     C 9489   2.499   1.176   2.035 -0.0289 -0.5121  0.1593
  812MOL0     C 9490   2.452   1.066   2.113 -0.2737 -0.0500 -0.1975
  812MOL0     C 9491   2.316   1.068   2.145 -0.4671  0.0878  0.1679
  812MOL0     C 9492   2.236   1.173   2.107 -0.6624 -0.6189  0.3264
  812MOL0     O 9493   2.111   1.171   2.157  0.0596  0.1767  0.7305
  812MOL0     C 9494   2.014   1.155   2.056  0.0300 -1.1002 -0.5451
  812MOL0     C 9495   1.917   1.057   2.114  1.2571  0.3457  0.3871
  812MOL0     C 9496   1.771   1.115   2.131  0.2093  0.2167  0.1384
  812MOL0     C 9497   1.676   1.010   2.179  0.7757  0.0931 -0.0019
  812MOL0     C 9498   1.532   1.066   2.198  0.0708  0.1205 -0.3541
  812MOL0     C 9499   1.433   0.949   2.188 -0.6305  0.4434 -0.3152
  812MOL0     C 9500   1.433   0.843   2.294 -0.0252 -0.7890  0.1912
  812MOL0     C 9501   1.308   0.749   2.283 -0.2422  0.0230  0.4801
  812MOL0     N 9502   1.180   0.810   2.323  0.0287  0.0906  0.8565
  812MOL0     C 9503   1.156   0.904   2.423  0.2393  0.3382  0.3159
  812MOL0     C 9504   1.025   0.932   2.417  0.4130  0.2735 -0.0764
  812MOL0     C 9505   0.952   1.030   2.509  1.0299  0.6103  0.0198
  812MOL0     C 9506   0.920   0.975   2.654 -0.0154  0.4950  0.0954
  812MOL0     C 9507   0.837   0.851   2.656  0.8691 -0.0536 -0.2893
  812MOL0     C 9508   0.720   0.840   2.569  0.0447 -0.1854 -0.5383
  812MOL0     O 9509   0.631   0.939   2.613  0.2640 -0.2864  0.6087
  812MOL0     C 9510   0.503   0.945   2.575 -0.0583 -0.3250  0.4589
  812MOL0     C 9511   0.420   0.840   2.544 -0.4142  0.2998 -0.4459
  812MOL0     C 9512   0.290   0.852   2.511 -0.1807 -0.3098  0.3892
  812MOL0     C 9513   0.231   0.725   2.453 -0.5430  0.0848  0.0009
  812MOL0     C 9514   0.218   0.977   2.508 -1.0953 -0.0055 -0.4256
  812MOL0     C 9515   0.077   0.999   2.465  0.4767  0.0403 -0.1391
  812MOL0     O 9516   0.015   0.899   2.395  0.3640 -0.2182  0.4060
  812MOL0     C 9517  -0.128   0.896   2.394 -0.3662  0.2324  0.0894
  812MOL0     C 9518  -0.188   0.766   2.408  0.2330 -0.5438 -0.1284
  812MOL0     C 9519  -0.327   0.745   2.387  0.8108  0.0989  0.1087
  812MOL0     C 9520  -0.408   0.857   2.362  0.0070 -0.6564  0.0886
  812MOL0     O 9521  -0.544   0.845   2.369 -0.4237 -0.4862 -0.1222
  812MOL0     C 9522  -0.617   0.952   2.432 -0.0683 -0.7047 -0.2593
  812MOL0     C 9523  -0.759   0.909   2.450  0.1663 -0.2109 -0.0138
  812MOL0     C 9524  -0.837   0.878   2.324 -0.2062 -0.1457  0.4198
  812MOL0     C 9525  -0.989   0.879   2.352  0.3419 -0.2657 -0.2357
  812MOL0     C 9526  -1.069   0.861   2.232  0.4391 -0.2169  0.1586
  812MOL0     C 9527  -1.211   0.849   2.267  0.5468 -0.2294  0.2143
  812MOL0     C 9528  -1.305   0.823   2.142  0.2158 -0.6932 -0.7356
  812MOL0     C 9529  -1.451   0.831   2.185  0.5220 -0.4510  1.1347
  812MOL0    Cl 9530  -1.554   0.812   2.040 -0.3830 -0.0580  0.2528
  812MOL0     C 9531  -0.344   0.983   2.352  0.3529  0.2163  0.4419
  812MOL0     C 9532  -0.207   1.007   2.371  0.0915  0.2519  0.0762
  812MOL0     O 9533   0.029   1.108   2.496  0.2490  0.1441  0.1950
  812MOL0     C 9534   0.297   1.087   2.551 -0.3375 -0.5911 -1.5763
  812MOL0     C 9535   0.432   1.070   2.584 -0.7804  0.1884  0.4471
  812MOL0     N 9536   0.966   0.870   2.305 -0.1004  0.6900  0.1668
  812MOL0     N 9537   1.059   0.788   2.260  0.5684  0.6413 -0.5096
  812MOL0     C 9538   2.282   1.280   2.029 -0.0062 -0.0992  0.2602
  812MOL0     C 9539   2.418   1.286   1.997  0.1977 -0.1042  0.4544
  812MOL0     C 9540   2.861   1.258   2.004 -0.1431 -0.6569  0.6924
  812MOL0     C 9541   2.921   1.136   1.974 -0.5876  0.9101 -0.4355
  812MOL0     C 9542   3.068   1.114   1.957 -0.1774 -0.2608  0.5969
  812MOL0     C 9543   3.149   1.227   1.967  0.6009 -0.7004 -0.5470
  812MOL0     O 9544   3.284   1.224   1.961 -0.3543  0.1047 -0.1630
  812MOL0     C 9545   3.355   1.108   1.900  0.1231 -1.1333 -0.4590
  812MOL0     C 9546   3.497   1.154   1.863 -1.1977 -0.1409 -0.7925
  812MOL0     C 9547   3.592   1.139   1.974 -0.4521 -0.2865  0.2205
  812MOL0     C 9548   3.703   1.241   1.962 -0.9814 -0.4969 -0.1161
  812MOL0     C 9549   3.787   1.225   1.840 -0.2906 -0.4229  0.9155
  812MOL0     C 9550   3.881   1.201   1.763 -0.2394 -0.1216  0.0028
  812MOL0     C 9551   3.090   1.349   1.991 -0.5397 -0.0827  0.5972
  812MOL0     C 9552   2.951   1.366   1.999 -0.1497  1.0887  0.3521
  812MOL0     H 9553   2.522   0.990   2.147 -0.9112 -1.7068 -2.3713
  812MOL0     H 9554   2.279   0.998   2.220  1.6465  0.5321  1.7303
  812MOL0     H 9555   1.981   1.259   2.045  1.1795 -0.7654 -1.0142
  812MOL0     H 9556   2.058   1.135   1.958  1.0699  2.0437 -0.8478
  812MOL0     H 9557   1.928   0.967   2.053  0.5044  0.5522 -0.0607
  812MOL0     H 9558   1.945   1.036   2.218 -0.8720  2.8866  1.5910
  812MOL0     H 9559   1.771   1.186   2.215 -0.3353 -1.6494  1.7974
  812MOL0     H 9560   1.735   1.158   2.037  1.0843 -0.4065 -0.5021
  812MOL0     H 9561   1.671   0.931   2.103  1.9914  1.1382 -1.2193
  812MOL0     H 9562   1.712   0.959   2.269 -0.1189 -1.8361 -0.6696
  812MOL0     H 9563   1.524   1.112   2.297 -0.0469  2.4020 -1.3650
  812MOL0     H 9564   1.504   1.137   2.120 -0.2325 -0.4426 -0.7601
  812MOL0     H 9565   1.331   0.990   2.187 -0.5057  0.8302 -2.5737
  812MOL0     H 9566   1.451   0.907   2.089  2.7947 -0.2309  0.4768
  812MOL0     H 9567   1.521   0.778   2.291  0.3900 -0.1935 -0.6349
  812MOL0     H 9568   1.439   0.885   2.395  3.0970 -1.2468  0.2966
  812MOL0     H 9569   1.333   0.664   2.347 -0.8698 -2.4241 -2.3132
  812MOL0     H 9570   1.302   0.711   2.180 -3.0373  0.1158  0.5266
  812MOL0     H 9571   1.224   0.947   2.495 -2.2621  0.3624  2.8410
  812MOL0     H 9572   1.002   1.127   2.518  0.2848  0.9256  0.8670
  812MOL0     H 9573   0.861   1.055   2.455 -0.2640 -2.5663  0.4988
  812MOL0     H 9574   0.865   1.056   2.702 -1.2255 -0.9795  1.2988
  812MOL0     H 9575   1.007   0.949   2.715 -0.6602 -1.5090  0.2291
  812MOL0     H 9576   0.804   0.836   2.759  0.2931  0.0730 -0.4517
  812MOL0     H 9577   0.903   0.764   2.646  0.4581 -0.4415  0.2807
  812MOL0     H 9578   0.679   0.740   2.578  1.9455 -1.0342 -0.7983
  812MOL0     H 9579   0.733   0.854   2.461  0.6003  0.6660 -0.3778
  812MOL0     H 9580   0.464   0.741   2.546  2.2568  1.4060  1.9316
  812MOL0     H 9581   0.250   0.745   2.347  1.6443  2.1978  0.6922
  812MOL0     H 9582   0.279   0.631   2.479 -2.4786 -0.8481  0.3652
  812MOL0     H 9583   0.124   0.712   2.470 -0.1499 -2.6738  0.8747
  812MOL0     H 9584  -0.136   0.672   2.423  1.9223  0.2492 -0.8052
  812MOL0     H 9585  -0.359   0.641   2.390  4.3093 -1.0964  1.5140
  812MOL0     H 9586  -0.575   0.959   2.533  0.4201 -3.9295 -0.1297
  812MOL0     H 9587  -0.614   1.037   2.364  0.4618 -2.7470 -2.9521
  812MOL0     H 9588  -0.767   0.816   2.507 -1.3541  1.4566  2.7531
  812MOL0     H 9589  -0.814   0.976   2.518  0.4370 -0.0811  0.0798
  812MOL0     H 9590  -0.820   0.782   2.275 -3.1773 -0.5679 -0.0008
  812MOL0     H 9591  -0.826   0.952   2.245  0.9084 -1.0546 -0.3033
  812MOL0     H 9592  -1.014   0.799   2.423 -1.6954  1.0863  0.6660
  812MOL0     H 9593  -1.019   0.977   2.392 -0.4372  0.7020 -2.9849
  812MOL0     H 9594  -1.038   0.774   2.174  0.4984  0.0409 -0.1996
  812MOL0     H 9595  -1.062   0.937   2.154  1.8002 -0.4804  0.0070
  812MOL0     H 9596  -1.220   0.760   2.330 -0.5420 -0.6450 -0.4976
  812MOL0     H 9597  -1.245   0.937   2.322  1.9814 -0.1983  1.1064
  812MOL0     H 9598  -1.284   0.721   2.108 -0.0250 -0.5597 -1.2873
  812MOL0     H 9599  -1.277   0.899   2.068  1.1254  0.5340  0.8178
  812MOL0     H 9600  -1.473   0.929   2.227 -1.9016 -0.7951  0.8245
  812MOL0     H 9601  -1.472   0.746   2.251 -0.0482 -1.0546  0.1909
  812MOL0     H 9602  -0.399   1.076   2.341 -0.2640  0.0165  1.6228
  812MOL0     H 9603  -0.171   1.108   2.359 -1.2354  0.4669 -3.1489
  812MOL0     H 9604   0.256   1.186   2.569 -2.3308 -1.9277  2.3206
  812MOL0     H 9605   0.492   1.152   2.622 -2.2094  1.1755  0.6795
  812MOL0     H 9606   2.212   1.363   2.020 -0.1839 -0.3550 -0.7728
  812MOL0     H 9607   2.468   1.355   1.930  1.1643 -2.0620 -0.9589
  812MOL0     H 9608   2.863   1.047   1.999  2.0903 -1.0580 -0.7956
  812MOL0     H 9609   3.105   1.012   1.947 -2.0675 -0.8651 -0.7775
  812MOL0     H 9610   3.358   1.029   1.975 -1.5210  1.6078  2.7782
  812MOL0     H 9611   3.298   1.080   1.810  2.5630  1.1870 -2.9299
  812MOL0     H 9612   3.501   1.255   1.823 -2.0814  1.4389  2.6945
  812MOL0     H 9613   3.535   1.090   1.783 -1.6823 -0.0817 -1.0692
  812MOL0     H 9614   3.632   1.038   1.964 -1.3583 -0.5227 -1.4055
  812MOL0     H 9615   3.538   1.167   2.065  0.6964  4.7016 -0.3269
  812MOL0     H 9616   3.772   1.251   2.046 -1.7567 -0.5826  0.5375
  812MOL0     H 9617   3.663   1.342   1.945 -0.4899  0.1438  2.1953
  812MOL0     H 9618   3.971   1.186   1.707  0.6350 -0.7565  1.5257
  812MOL0     H 9619   3.155   1.435   2.004 -2.3969  1.7872 -1.6021
  812MOL0     H 9620   2.924   1.469   2.016 -3.4073  0.3325  0.4151
  813MOL0     O 9621   6.991   3.838   8.310  0.7347 -0.4702  0.7306
  813MOL0     C 9622   7.067   3.744   8.287  0.1741 -0.0407 -0.2450
  813MOL0     O 9623   7.034   3.615   8.272 -0.0666 -0.2395  0.1076
  813MOL0     C 9624   6.906   3.581   8.294 -0.2411 -0.1428 -0.4090
  813MOL0     C 9625   6.870   3.496   8.399  1.2362  0.6107  0.0653
  813MOL0     C 9626   6.735   3.454   8.421 -0.2422 -0.1647 -0.9620
  813MOL0     C 9627   6.635   3.500   8.335 -0.4259  0.2451  0.9324
  813MOL0     O 9628   6.509   3.464   8.380  0.0606  0.7252  0.9971
  813MOL0     C 9629   6.403   3.470   8.283  0.2392  0.7818 -0.5575
  813MOL0     C 9630   6.406   3.352   8.186  0.4541 -0.2280 -0.3755
  813MOL0     C 9631   6.290   3.385   8.095  0.1383 -0.0349  0.3142
  813MOL0     C 9632   6.262   3.261   8.011  0.5718 -0.1868  0.5928
  813MOL0     C 9633   6.140   3.275   7.907  0.2773 -0.0682 -0.5752
  813MOL0     C 9634   6.100   3.139   7.863 -0.1354 -0.0167 -0.4201
  813MOL0     C 9635   5.989   3.131   7.748 -0.3670  0.2083  0.1522
  813MOL0     C 9636   6.033   3.170   7.616 -0.2083  0.3850  0.1725
  813MOL0     N 9637   5.931   3.149   7.514 -0.8807 -0.3054  0.3484
  813MOL0     C 9638   5.942   3.068   7.406 -0.0968  1.2355 -0.8384
  813MOL0     C 9639   5.827   3.087   7.330 -0.9681  0.4827 -0.4495
  813MOL0     C 9640   5.809   3.019   7.204  0.2367  0.2391 -0.2797
  813MOL0     C 9641   5.755   2.873   7.230 -0.1207 -0.0806  0.8242
  813MOL0     C 9642   5.615   2.868   7.304  0.1175 -0.6684  1.1399
  813MOL0     C 9643   5.499   2.902   7.220 -0.3786  1.1114  0.0936
  813MOL0     O 9644   5.513   2.817   7.106  0.1986 -0.2258 -0.6939
  813MOL0     C 9645   5.396   2.804   7.026 -0.3759  0.2970 -0.4107
  813MOL0     C 9646   5.411   2.704   6.936  0.6454 -0.8176 -0.2168
  813MOL0     C 9647   5.309   2.673   6.841 -0.3601 -0.1313  0.0018
  813MOL0     C 9648   5.347   2.565   6.737  1.1221  0.3578  0.3763
  813MOL0     C 9649   5.192   2.748   6.850  0.1455  0.9909 -0.0183
  813MOL0     C 9650   5.083   2.724   6.754  0.2928 -0.1189  0.1953
  813MOL0     O 9651   5.022   2.604   6.749 -0.6789 -0.0154  0.6039
  813MOL0     C 9652   4.973   2.557   6.629  0.4451 -0.2434  0.1476
  813MOL0     C 9653   4.916   2.431   6.627 -0.9361  0.4313 -0.1070
  813MOL0     C 9654   4.869   2.368   6.516  0.0993 -0.0546 -1.3514
  813MOL0     C 9655   4.863   2.429   6.394  0.0813 -0.1580  0.1587
  813MOL0     O 9656   4.829   2.364   6.278  0.0897 -0.4059  0.1917
  813MOL0     C 9657   4.908   2.387   6.165 -0.2836  0.5824  0.1293
  813MOL0     C 9658   5.052   2.331   6.174  0.2208 -0.5609 -0.1276
  813MOL0     C 9659   5.059   2.180   6.219 -0.2003  0.0610 -0.4822
  813MOL0     C 9660   5.206   2.127   6.199 -0.1662  0.0504  0.4509
  813MOL0     C 9661   5.284   2.121   6.328  0.2789 -0.3179  0.1392
  813MOL0     C 9662   5.426   2.060   6.316 -0.2382  0.6864  0.7912
  813MOL0     C 9663   5.494   2.068   6.455  0.5106  0.0011 -0.2310
  813MOL0     C 9664   5.643   2.060   6.435 -0.3237 -0.2822  0.3886
  813MOL0    Cl 9665   5.699   1.893   6.407  0.5101  0.2871 -0.2893
  813MOL0     C 9666   4.914   2.562   6.387  0.1964  0.9365  0.0145
  813MOL0     C 9667   4.963   2.626   6.504  0.3239 -0.2153 -0.5814
  813MOL0     O 9668   5.018   2.829   6.721 -0.1360 -1.0355  0.7879
  813MOL0     C 9669   5.169   2.840   6.951  0.0327  0.1205  0.2629
  813MOL0     C 9670   5.275   2.871   7.028  0.6724 -0.0897 -0.5413
  813MOL0     N 9671   5.758   3.178   7.405  0.3925  0.2846  0.1732
  813MOL0     N 9672   5.816   3.213   7.509  0.0292 -0.5143 -1.3499
  813MOL0     C 9673   6.667   3.591   8.234  0.1916  0.0534 -0.0732
  813MOL0     C 9674   6.796   3.636   8.219 -0.5318  0.0996  0.4493
  813MOL0     C 9675   7.213   3.772   8.277  0.6306 -1.5050 -0.2504
  813MOL0     C 9676   7.251   3.907   8.260 -0.2535  0.6973 -0.2712
  813MOL0     C 9677   7.394   3.927   8.249  0.3407  0.2943 -0.4163
  813MOL0     C 9678   7.492   3.829   8.253  0.9309 -0.1863 -0.1515
  813MOL0     O 9679   7.635   3.850   8.240  0.8514 -0.7350  0.0541
  813MOL0     C 9680   7.735   3.761   8.288 -1.1280  0.4193 -0.5032
  813MOL0     C 9681   7.745   3.764   8.444 -0.7398 -0.6310  0.3093
  813MOL0     C 9682   7.800   3.904   8.485  0.9376  0.5746 -0.3513
  813MOL0     C 9683   7.878   3.907   8.622 -0.3913 -0.9088  0.1343
  813MOL0     C 9684   7.902   4.044   8.669 -0.0762  0.5799  0.2367
  813MOL0     C 9685   7.941   4.148   8.715 -0.0167  0.3361 -0.2925
  813MOL0     C 9686   7.439   3.698   8.264  0.7819  0.1750 -0.4174
  813MOL0     C 9687   7.308   3.668   8.270  0.0841  0.3087 -0.2681
  813MOL0     H 9688   6.947   3.444   8.455  2.6870  1.6526 -0.8923
  813MOL0     H 9689   6.702   3.386   8.499 -1.8293  1.2120 -0.3643
  813MOL0     H 9690   6.315   3.464   8.348 -0.2497 -1.7817 -1.3579
  813MOL0     H 9691   6.397   3.566   8.231  1.4596  0.2490 -1.7423
  813MOL0     H 9692   6.503   3.345   8.135  0.4879 -1.4054 -0.1882
  813MOL0     H 9693   6.368   3.262   8.234 -2.2187  1.2132  0.3813
  813MOL0     H 9694   6.206   3.426   8.152  1.4809  0.7429  1.8132
  813MOL0     H 9695   6.333   3.461   8.029  0.1620 -0.2438  0.0888
  813MOL0     H 9696   6.345   3.243   7.942  1.1660  4.1617 -0.1124
  813MOL0     H 9697   6.248   3.179   8.081 -0.0601 -1.3109 -0.8054
  813MOL0     H 9698   6.055   3.325   7.954  0.1547 -1.3345  0.6239
  813MOL0     H 9699   6.173   3.337   7.823  0.8191  1.1629  0.5179
  813MOL0     H 9700   6.188   3.091   7.821 -0.3774 -0.5477 -0.3222
  813MOL0     H 9701   6.065   3.076   7.945 -0.5868 -0.6250 -1.0632
  813MOL0     H 9702   5.969   3.023   7.748  3.2705 -0.6029  1.4960
  813MOL0     H 9703   5.898   3.182   7.780 -1.0294  0.1008 -1.4820
  813MOL0     H 9704   6.113   3.099   7.593 -0.2791 -0.2245  1.6919
  813MOL0     H 9705   6.069   3.273   7.620 -0.1731  0.3526  0.7506
  813MOL0     H 9706   6.031   3.008   7.389  0.6895  2.1616 -0.0815
  813MOL0     H 9707   5.748   3.078   7.135 -0.8994  1.2147  1.4913
  813MOL0     H 9708   5.906   3.004   7.154  0.4907  0.3742  0.1637
  813MOL0     H 9709   5.828   2.816   7.289 -0.6960 -0.6834  0.9724
  813MOL0     H 9710   5.750   2.831   7.130  0.7142 -0.5498  0.9707
  813MOL0     H 9711   5.618   2.932   7.393  1.0314 -0.9306  1.3048
  813MOL0     H 9712   5.607   2.765   7.337 -0.0085 -1.3082 -0.7499
  813MOL0     H 9713   5.486   3.006   7.187 -1.5737  0.7646 -0.5826
  813MOL0     H 9714   5.410   2.874   7.277 -0.1446  0.8807  0.3435
  813MOL0     H 9715   5.496   2.638   6.929 -0.5992 -2.2998 -4.0719
  813MOL0     H 9716   5.455   2.554   6.724  1.1282 -0.7898  1.2378
  813MOL0     H 9717   5.296   2.470   6.757 -1.3452  2.2370  3.9961
  813MOL0     H 9718   5.302   2.602   6.644 -1.6577  0.1610  1.5566
  813MOL0     H 9719   4.916   2.387   6.726 -0.0383  2.6664  0.9607
  813MOL0     H 9720   4.831   2.266   6.522 -2.9668  1.0558  0.9830
  813MOL0     H 9721   4.860   2.327   6.087  0.1169  3.0995 -2.2122
  813MOL0     H 9722   4.910   2.487   6.120 -2.3843  0.2774 -0.7569
  813MOL0     H 9723   5.097   2.346   6.075 -1.4237  0.2971 -0.7790
  813MOL0     H 9724   5.110   2.392   6.245  1.3580 -0.7847 -0.8293
  813MOL0     H 9725   4.994   2.117   6.158 -2.3990  1.4541  0.2869
  813MOL0     H 9726   5.033   2.173   6.325  1.0457 -0.8705 -0.2297
  813MOL0     H 9727   5.194   2.027   6.156  2.9823 -0.5646  0.7465
  813MOL0     H 9728   5.257   2.194   6.130  1.7778 -0.0575  1.6949
  813MOL0     H 9729   5.238   2.053   6.401  0.8777  0.8838  1.7072
  813MOL0     H 9730   5.288   2.223   6.367 -4.2162  0.6234 -1.2182
  813MOL0     H 9731   5.431   1.956   6.283  2.1330  0.5258  1.4525
  813MOL0     H 9732   5.477   2.124   6.244  1.3974 -0.8967  0.4477
  813MOL0     H 9733   5.460   1.984   6.517 -3.9144  1.6944  0.0332
  813MOL0     H 9734   5.463   2.158   6.510  0.7876 -1.6034  2.8166
  813MOL0     H 9735   5.696   2.091   6.526  2.2984  0.2690 -1.2094
  813MOL0     H 9736   5.683   2.126   6.357  1.3076 -0.4092  1.0803
  813MOL0     H 9737   4.913   2.614   6.291  0.5511 -1.0801 -1.1444
  813MOL0     H 9738   4.997   2.729   6.496  0.7474 -0.3561 -0.6177
  813MOL0     H 9739   5.072   2.888   6.952  1.2537  2.8914 -2.2278
  813MOL0     H 9740   5.271   2.955   7.096 -0.6806  0.3147 -1.0908
  813MOL0     H 9741   6.597   3.653   8.178  2.8319  4.1138  0.6741
  813MOL0     H 9742   6.815   3.700   8.133  2.5142 -0.4716  0.5989
  813MOL0     H 9743   7.191   3.994   8.281  0.8978  1.4619 -0.0310
  813MOL0     H 9744   7.433   4.028   8.239  0.3408  1.0380  4.3961
  813MOL0     H 9745   7.713   3.658   8.256  1.4792 -0.1301 -0.7978
  813MOL0     H 9746   7.832   3.780   8.241 -1.2058 -0.8146 -1.2004
  813MOL0     H 9747   7.805   3.689   8.498  3.0519  2.4235  0.7728
  813MOL0     H 9748   7.644   3.753   8.483 -0.3388 -3.5034  0.7516
  813MOL0     H 9749   7.717   3.972   8.503  0.2455 -0.6426  1.3131
  813MOL0     H 9750   7.856   3.949   8.402  0.1226  0.0052 -1.2400
  813MOL0     H 9751   7.972   3.862   8.587  1.7027  2.0604  1.4816
  813MOL0     H 9752   7.836   3.848   8.703 -1.9555  2.2912  1.8665
  813MOL0     H 9753   7.980   4.235   8.764 -1.1977  0.4424  0.5053
  813MOL0     H 9754   7.507   3.614   8.273 -1.3547 -1.6484 -0.5995
  813MOL0     H 9755   7.274   3.569   8.295 -2.8412  0.0382 -4.3004
  814MOL0     O 9756   3.784   2.146   3.779 -0.0581 -0.0561  0.2422
  814MOL0     C 9757   3.884   2.160   3.710 -0.4167  0.2686  0.2594
  814MOL0     O 9758   3.893   2.238   3.602  0.4695  0.0795  0.3764
  814MOL0     C 9759   3.781   2.291   3.547  0.5311 -0.1979 -0.4159
  814MOL0     C 9760   3.789   2.425   3.494  0.6401 -0.0561 -1.0598
  814MOL0     C 9761   3.682   2.484   3.430  0.9687 -0.6803 -0.3780
  814MOL0     C 9762   3.560   2.420   3.410 -0.8663 -0.6474 -0.3409
  814MOL0     O 9763   3.462   2.482   3.333  0.3663 -0.0534  0.3385
  814MOL0     C 9764   3.433   2.410   3.211 -0.3627  0.4506 -0.2844
  814MOL0     C 9765   3.343   2.498   3.131  0.3631 -0.5973  0.4937
  814MOL0     C 9766   3.420   2.624   3.074 -0.0570  0.3440  0.9213
  814MOL0     C 9767   3.326   2.724   3.000  0.7916  0.3562 -0.1441
  814MOL0     C 9768   3.381   2.865   2.975 -1.0335 -0.2101 -0.5341
  814MOL0     C 9769   3.422   2.947   3.097 -0.7828 -0.0060 -0.6605
  814MOL0     C 9770   3.453   3.093   3.044  0.5035  0.1569  0.1531
  814MOL0     C 9771   3.539   3.172   3.150  0.1845 -0.3417  0.2709
  814MOL0     N 9772   3.669   3.108   3.165 -0.3279  0.7911 -0.2471
  814MOL0     C 9773   3.706   3.013   3.257  0.5234  0.1203  0.7641
  814MOL0     C 9774   3.837   2.990   3.224  0.7349  0.1892  0.0496
  814MOL0     C 9775   3.928   2.898   3.294  0.6615  0.6952 -0.7811
  814MOL0     C 9776   4.060   2.945   3.338  0.8614 -0.3343 -0.2082
  814MOL0     C 9777   4.051   3.041   3.460  0.6280  0.3318  0.0477
  814MOL0     C 9778   4.177   3.115   3.488 -0.1426 -0.3328  0.0519
  814MOL0     O 9779   4.200   3.208   3.381 -0.5002 -0.0336  0.2942
  814MOL0     C 9780   4.321   3.280   3.397 -0.0962 -0.4444 -0.4323
  814MOL0     C 9781   4.425   3.251   3.489 -0.0094  0.5620  0.1708
  814MOL0     C 9782   4.539   3.328   3.479  0.0028 -0.1358 -0.2048
  814MOL0     C 9783   4.640   3.338   3.590  0.2137  0.8132 -0.4350
  814MOL0     C 9784   4.550   3.429   3.378  0.0922  0.0423  1.0017
  814MOL0     C 9785   4.668   3.518   3.348  0.5823  0.2393 -0.4342
  814MOL0     O 9786   4.643   3.621   3.276  0.4139  0.3959 -0.4175
  814MOL0     C 9787   4.732   3.661   3.178  0.5399 -0.2462 -1.0428
  814MOL0     C 9788   4.824   3.763   3.205 -0.3005 -0.2775  0.2119
  814MOL0     C 9789   4.904   3.812   3.098 -0.0428 -0.9685  0.4555
  814MOL0     C 9790   4.893   3.748   2.973 -0.2872  0.6576 -0.1165
  814MOL0     O 9791   4.951   3.796   2.859  0.2481  0.4327 -0.1524
  814MOL0     C 9792   5.089   3.840   2.876  0.7070  0.1725 -0.6050
  814MOL0     C 9793   5.143   3.927   2.756 -0.0324 -0.1213  0.8812
  814MOL0     C 9794   5.290   3.936   2.758  0.4473  0.2155  0.5832
  814MOL0     C 9795   5.336   4.071   2.698 -0.1655 -0.3341  0.0381
  814MOL0     C 9796   5.469   4.053   2.616 -0.0190 -0.5566 -1.9187
  814MOL0     C 9797   5.575   4.010   2.729 -0.3050  0.2959  0.5201
  814MOL0     C 9798   5.712   3.994   2.667  0.0543  0.4679 -0.6099
  814MOL0     C 9799   5.768   4.128   2.614  0.3889  0.2996  0.1483
  814MOL0    Cl 9800   5.802   4.247   2.741  0.5920 -0.5466  0.2850
  814MOL0     C 9801   4.793   3.657   2.945  0.0015 -0.5142 -0.1176
  814MOL0     C 9802   4.714   3.613   3.047 -0.2713  0.3340 -0.4353
  814MOL0     O 9803   4.777   3.480   3.374 -0.4197  0.5641 -0.7391
  814MOL0     C 9804   4.450   3.449   3.286  0.4186  0.2099  0.0633
  814MOL0     C 9805   4.333   3.380   3.304 -0.3210  0.4429  0.3787
  814MOL0     N 9806   3.874   3.082   3.127  0.8994 -0.3194 -0.1056
  814MOL0     N 9807   3.780   3.157   3.107  0.0634 -0.1949 -0.8421
  814MOL0     C 9808   3.557   2.286   3.454  0.4437  0.4796 -0.3887
  814MOL0     C 9809   3.665   2.218   3.510 -0.3008  0.0134  0.5744
  814MOL0     C 9810   4.009   2.087   3.736  0.3238  0.0005 -0.2161
  814MOL0     C 9811   4.125   2.096   3.653  0.2086 -0.6749  1.0046
  814MOL0     C 9812   4.244   2.030   3.677 -1.2144 -0.0614  0.1569
  814MOL0     C 9813   4.265   1.955   3.793  0.2554 -0.1938  0.4800
  814MOL0     O 9814   4.369   1.876   3.811  0.0417  0.2170  0.2466
  814MOL0     C 9815   4.458   1.896   3.916  0.1162  0.0281  0.0493
  814MOL0     C 9816   4.589   1.831   3.875  0.5341  0.8478 -0.2938
  814MOL0     C 9817   4.659   1.880   3.743  0.0167 -0.0994 -0.4348
  814MOL0     C 9818   4.660   2.027   3.722  0.0044 -0.3601 -0.0470
  814MOL0     C 9819   4.745   2.099   3.825 -0.0450 -0.0383  0.3447
  814MOL0     C 9820   4.815   2.162   3.899 -0.3654 -0.9548 -0.1249
  814MOL0     C 9821   4.152   1.943   3.870 -1.1648  0.3839  1.2295
  814MOL0     C 9822   4.030   1.998   3.847 -0.2179 -0.0268 -0.2706
  814MOL0     H 9823   3.874   2.490   3.508  2.8562 -2.0322 -3.9181
  814MOL0     H 9824   3.689   2.586   3.394  0.5808  0.1188  1.6771
  814MOL0     H 9825   3.522   2.388   3.152 -2.0849 -1.4893 -2.3437
  814MOL0     H 9826   3.388   2.314   3.236  1.4644 -0.1443  0.9673
  814MOL0     H 9827   3.290   2.440   3.056  0.5486 -0.5129  0.2974
  814MOL0     H 9828   3.260   2.523   3.198 -1.9671  0.1501 -2.4900
  814MOL0     H 9829   3.457   2.686   3.156 -2.8841  5.2798 -1.1505
  814MOL0     H 9830   3.501   2.601   3.003 -0.8165  0.4133  0.0247
  814MOL0     H 9831   3.321   2.679   2.900  1.4431 -0.4832  0.1899
  814MOL0     H 9832   3.224   2.726   3.038  1.3113  1.6708  1.2622
  814MOL0     H 9833   3.473   2.850   2.917 -0.4190 -0.9394  0.5891
  814MOL0     H 9834   3.316   2.923   2.910  0.5927  0.1513 -1.8944
  814MOL0     H 9835   3.339   2.946   3.169  0.5323 -0.9613  0.8940
  814MOL0     H 9836   3.510   2.904   3.145  0.9434  0.3906 -3.2701
  814MOL0     H 9837   3.506   3.087   2.948  1.4633  2.1944  0.5062
  814MOL0     H 9838   3.359   3.143   3.020  0.2428  0.2631  1.3455
  814MOL0     H 9839   3.490   3.197   3.245  0.3111  1.9600 -0.2048
  814MOL0     H 9840   3.555   3.271   3.105  1.3706 -0.7459 -0.2372
  814MOL0     H 9841   3.645   2.961   3.330 -1.3164  2.7201  1.1775
  814MOL0     H 9842   3.865   2.862   3.377  1.6633  1.3429  0.2983
  814MOL0     H 9843   3.938   2.807   3.234 -0.9831 -0.5385  0.7056
  814MOL0     H 9844   4.117   2.993   3.258 -1.1048  1.8446 -0.3719
  814MOL0     H 9845   4.126   2.863   3.371  2.5400  1.3713  0.8857
  814MOL0     H 9846   4.038   2.972   3.544  1.3637 -0.1538 -0.2361
  814MOL0     H 9847   3.963   3.106   3.458  0.2026 -0.1603  1.5233
  814MOL0     H 9848   4.258   3.040   3.486 -0.5220 -0.7688 -2.4592
  814MOL0     H 9849   4.170   3.159   3.588 -1.0618 -1.7132  0.6273
  814MOL0     H 9850   4.431   3.172   3.563  1.2924  0.2865 -0.1951
  814MOL0     H 9851   4.726   3.280   3.553  1.3586  2.4666 -0.4810
  814MOL0     H 9852   4.675   3.440   3.606 -0.4697  1.1261 -0.8619
  814MOL0     H 9853   4.607   3.292   3.683 -2.3494  2.2733 -0.5325
  814MOL0     H 9854   4.825   3.826   3.293 -0.4215 -0.0301  0.0376
  814MOL0     H 9855   4.968   3.899   3.109 -1.1651 -0.1885  0.9098
  814MOL0     H 9856   5.109   3.877   2.977 -1.3652 -2.4167  0.8838
  814MOL0     H 9857   5.144   3.745   2.871 -0.9214 -0.7485 -1.9288
  814MOL0     H 9858   5.120   3.873   2.663  0.8285 -0.8270  1.0655
  814MOL0     H 9859   5.101   4.028   2.762  3.9587  1.8827 -0.5566
  814MOL0     H 9860   5.341   3.849   2.716 -0.0087  0.2447 -0.0584
  814MOL0     H 9861   5.313   3.932   2.865 -3.0597 -0.3127  1.4344
  814MOL0     H 9862   5.257   4.112   2.634 -0.0953 -2.7229 -1.7250
  814MOL0     H 9863   5.352   4.146   2.776  1.1988 -0.3222 -0.2225
  814MOL0     H 9864   5.497   4.149   2.572  0.7587  0.3953  0.4500
  814MOL0     H 9865   5.454   3.978   2.539 -0.7857 -1.4775 -0.9056
  814MOL0     H 9866   5.578   4.085   2.809 -4.6268  0.2451  0.9855
  814MOL0     H 9867   5.541   3.919   2.780 -1.4525 -0.1899 -1.0249
  814MOL0     H 9868   5.699   3.915   2.592  0.6133  0.1637 -0.3983
  814MOL0     H 9869   5.781   3.943   2.735 -1.0924 -1.9162 -1.1215
  814MOL0     H 9870   5.719   4.163   2.523  2.6147 -0.2170 -1.3115
  814MOL0     H 9871   5.866   4.106   2.572  0.4939  0.8629  0.0886
  814MOL0     H 9872   4.780   3.619   2.844 -0.6938 -0.4647 -0.0534
  814MOL0     H 9873   4.633   3.544   3.027 -0.1602  0.5047 -1.5704
  814MOL0     H 9874   4.448   3.520   3.204  2.3158 -0.5071 -0.6479
  814MOL0     H 9875   4.252   3.418   3.242 -1.5972 -3.7084 -0.8175
  814MOL0     H 9876   3.463   2.234   3.439  0.4066 -0.2330  1.9780
  814MOL0     H 9877   3.658   2.116   3.547 -0.3751  0.1060  0.8185
  814MOL0     H 9878   4.122   2.160   3.566 -1.7856 -2.9223 -0.7279
  814MOL0     H 9879   4.317   2.029   3.596 -1.0227 -2.3613  0.2890
  814MOL0     H 9880   4.461   1.998   3.957  1.4405 -0.0717  0.2505
  814MOL0     H 9881   4.419   1.844   4.003 -0.2821  1.6869  0.9172
  814MOL0     H 9882   4.580   1.723   3.884  1.3746  0.6501 -1.6004
  814MOL0     H 9883   4.658   1.850   3.958  0.6066  1.6394 -0.5263
  814MOL0     H 9884   4.605   1.842   3.657 -0.4164 -0.4639 -0.0050
  814MOL0     H 9885   4.762   1.843   3.745 -0.0009 -0.1202  1.1564
  814MOL0     H 9886   4.558   2.067   3.725  0.5377  1.0573  3.3422
  814MOL0     H 9887   4.705   2.043   3.623 -2.2931 -1.0800 -1.2901
  814MOL0     H 9888   4.876   2.219   3.966 -0.3443  0.8455 -1.5958
  814MOL0     H 9889   4.161   1.864   3.944  2.3498 -1.2030 -0.6292
  814MOL0     H 9890   3.960   1.975   3.927  1.3245 -0.0944  1.1257
  815MOL0     O 9891   9.330   3.582   6.961 -0.4162  0.1500  0.0331
  815MOL0     C 9892   9.296   3.630   7.074 -0.1353 -0.6402 -0.1109
  815MOL0     O 9893   9.164   3.616   7.124 -0.7351 -0.5968 -0.1034
  815MOL0     C 9894   9.071   3.567   7.041 -0.2504 -0.7103  0.2994
  815MOL0     C 9895   8.977   3.659   6.988  0.4376  0.3765 -0.1401
  815MOL0     C 9896   8.888   3.614   6.886  0.5068 -1.1755  0.1923
  815MOL0     C 9897   8.886   3.486   6.852 -0.4811  0.0111  0.3147
  815MOL0     O 9898   8.812   3.444   6.744  0.7552 -0.9154  0.0151
  815MOL0     C 9899   8.708   3.357   6.788 -0.5355  0.2473  0.9167
  815MOL0     C 9900   8.663   3.266   6.671 -0.0172 -0.0123  0.3819
  815MOL0     C 9901   8.636   3.329   6.540  0.0092 -0.0957  0.0253
  815MOL0     C 9902   8.577   3.214   6.446 -0.6961 -0.1948 -0.3063
  815MOL0     C 9903   8.550   3.291   6.311 -0.2484 -0.1780 -0.6295
  815MOL0     C 9904   8.522   3.207   6.189 -0.1764  0.3322 -0.5385
  815MOL0     C 9905   8.388   3.124   6.192  0.2117 -1.0572  0.8208
  815MOL0     C 9906   8.333   3.095   6.062  0.0436  0.6079  0.4638
  815MOL0     N 9907   8.195   3.053   6.067  0.6259  0.2401 -0.5905
  815MOL0     C 9908   8.078   3.121   6.053  0.0629 -0.3677 -0.3755
  815MOL0     C 9909   7.972   3.048   6.099 -0.3578 -0.0786  0.4888
  815MOL0     C 9910   7.836   3.106   6.120  0.1720 -0.3730  0.1833
  815MOL0     C 9911   7.784   3.195   6.002 -0.6794 -0.3778 -0.2739
  815MOL0     C 9912   7.718   3.108   5.891 -0.3123 -0.8349 -0.3094
  815MOL0     C 9913   7.587   3.047   5.924  0.8982  0.6931  0.4916
  815MOL0     O 9914   7.492   3.157   5.946  0.5346 -0.2098 -0.0871
  815MOL0     C 9915   7.366   3.131   5.981  0.6644 -0.2839 -0.1815
  815MOL0     C 9916   7.289   3.230   6.042 -0.5769 -0.3375 -0.2780
  815MOL0     C 9917   7.156   3.222   6.060  0.7884  0.4589 -0.2384
  815MOL0     C 9918   7.082   3.343   6.118  0.3303 -0.4832  0.0943
  815MOL0     C 9919   7.085   3.099   6.034  0.7278 -0.7391 -0.3289
  815MOL0     C 9920   6.933   3.086   6.027 -0.0905 -0.2437 -0.6582
  815MOL0     O 9921   6.875   2.987   5.945 -0.2937 -0.3174  0.2122
  815MOL0     C 9922   6.741   2.986   5.929 -0.8478 -0.2443 -0.3511
  815MOL0     C 9923   6.680   3.033   5.815 -0.4514 -0.0779 -0.0759
  815MOL0     C 9924   6.542   3.021   5.799  0.3728 -0.3856 -0.1287
  815MOL0     C 9925   6.463   2.976   5.910 -0.2699 -0.6131 -0.2266
  815MOL0     O 9926   6.324   2.992   5.916  0.5779  0.1189 -0.8102
  815MOL0     C 9927   6.265   3.101   5.832  0.5975 -0.1012 -0.2933
  815MOL0     C 9928   6.121   3.108   5.870 -0.9324 -0.2561 -0.4967
  815MOL0     C 9929   6.064   3.245   5.850  0.1300  0.1995 -0.3162
  815MOL0     C 9930   5.910   3.243   5.864  0.1615 -0.4592  0.3972
  815MOL0     C 9931   5.844   3.387   5.848  0.0607  0.0944 -0.0489
  815MOL0     C 9932   5.858   3.461   5.986  0.2424  0.5447 -0.1865
  815MOL0     C 9933   5.823   3.607   5.966  0.3876 -0.6384  1.2973
  815MOL0     C 9934   5.806   3.679   6.097 -0.6369 -0.3599  0.0105
  815MOL0    Cl 9935   5.972   3.724   6.164  0.1319  0.0733 -0.2687
  815MOL0     C 9936   6.529   2.924   6.018  0.4317 -0.0560  0.6970
  815MOL0     C 9937   6.672   2.924   6.032 -0.5285  0.7098  0.7056
  815MOL0     O 9938   6.868   3.166   6.099 -0.2022 -0.0243  0.2723
  815MOL0     C 9939   7.160   2.987   5.988  0.3383  0.2438  0.6808
  815MOL0     C 9940   7.304   3.005   5.956 -0.0356 -0.0528 -1.2675
  815MOL0     N 9941   8.026   2.926   6.146  0.4456  0.1762  0.7969
  815MOL0     N 9942   8.152   2.929   6.117 -0.4298  0.1182 -0.3247
  815MOL0     C 9943   8.984   3.392   6.896  0.0796 -0.7944  0.6315
  815MOL0     C 9944   9.070   3.440   6.998 -0.8360  0.0113 -0.1189
  815MOL0     C 9945   9.398   3.684   7.165 -0.2588  0.2529 -0.0616
  815MOL0     C 9946   9.536   3.665   7.140  0.1459  0.2205 -0.5701
  815MOL0     C 9947   9.633   3.726   7.225  0.5783  0.3678  0.4721
  815MOL0     C 9948   9.590   3.787   7.349 -0.8798 -0.2858  0.4610
  815MOL0     O 9949   9.696   3.827   7.435 -0.0752  0.1898  0.1934
  815MOL0     C 9950   9.665   3.923   7.532 -0.1187  0.5539 -0.0007
  815MOL0     C 9951   9.786   4.000   7.570  0.2925 -0.2716 -0.2927
  815MOL0     C 9952   9.866   4.055   7.449  0.3760  0.0297 -0.5450
  815MOL0     C 9953   9.836   4.197   7.405  0.5257 -0.3399 -0.5189
  815MOL0     C 9954   9.692   4.201   7.356 -0.4818 -0.5503 -0.5206
  815MOL0     C 9955   9.575   4.206   7.323  0.3276 -0.4105  0.0557
  815MOL0     C 9956   9.456   3.802   7.371  0.5986 -0.4260 -0.3311
  815MOL0     C 9957   9.361   3.756   7.276 -0.3856 -0.6189  0.6301
  815MOL0     H 9958   8.980   3.763   7.020 -1.7481  0.3552  0.3029
  815MOL0     H 9959   8.814   3.681   6.842  1.9428  0.1464 -0.2722
  815MOL0     H 9960   8.749   3.291   6.864 -1.4892 -1.7917 -0.2572
  815MOL0     H 9961   8.617   3.410   6.821 -1.3436 -0.0699 -0.6817
  815MOL0     H 9962   8.751   3.202   6.655  1.1862  1.6849 -0.0620
  815MOL0     H 9963   8.587   3.199   6.711 -1.4948  0.4552 -1.4858
  815MOL0     H 9964   8.561   3.407   6.556  0.4436 -0.3945  5.9864
  815MOL0     H 9965   8.720   3.388   6.504 -0.0174 -1.0236 -1.6413
  815MOL0     H 9966   8.645   3.128   6.433 -1.3020 -0.5247 -1.4673
  815MOL0     H 9967   8.485   3.177   6.491 -2.2954 -0.3930 -3.4629
  815MOL0     H 9968   8.464   3.359   6.315  0.0424  0.1434  2.6838
  815MOL0     H 9969   8.634   3.357   6.290 -0.5625  0.2029 -0.7086
  815MOL0     H 9970   8.514   3.270   6.100 -2.0707  1.8495  0.6319
  815MOL0     H 9971   8.608   3.139   6.182  0.7927  1.5296 -0.7067
  815MOL0     H 9972   8.395   3.027   6.243  0.6673 -3.0031 -2.6396
  815MOL0     H 9973   8.318   3.187   6.247  0.3978 -0.5746  0.5073
  815MOL0     H 9974   8.389   3.012   6.018 -0.8723 -0.9568  2.0961
  815MOL0     H 9975   8.338   3.177   5.991 -1.0504  1.3270  1.1801
  815MOL0     H 9976   8.074   3.230   6.047  3.4827 -0.0599  0.7243
  815MOL0     H 9977   7.764   3.023   6.112  2.1501 -2.0280 -2.5322
  815MOL0     H 9978   7.838   3.166   6.211  2.2449  0.1548 -0.1700
  815MOL0     H 9979   7.867   3.253   5.961 -1.3427  0.5931 -0.2803
  815MOL0     H 9980   7.709   3.262   6.045 -2.4327 -0.4470 -2.9676
  815MOL0     H 9981   7.783   3.022   5.870 -0.4033 -1.1968  0.8192
  815MOL0     H 9982   7.705   3.174   5.806  0.7770 -0.3232 -0.1019
  815MOL0     H 9983   7.591   2.972   6.004  1.2836 -0.7861 -0.8478
  815MOL0     H 9984   7.565   2.993   5.832 -2.6230  0.0698  1.5596
  815MOL0     H 9985   7.335   3.328   6.044  1.0996 -1.0156 -1.9698
  815MOL0     H 9986   7.145   3.432   6.133  0.9392 -1.1931  2.0797
  815MOL0     H 9987   6.999   3.360   6.049  1.5146  1.2325 -0.9954
  815MOL0     H 9988   7.042   3.321   6.218  0.3905  1.6971  0.6520
  815MOL0     H 9989   6.747   3.077   5.741 -2.5409  1.8701 -0.9505
  815MOL0     H 9990   6.491   3.048   5.707 -2.6722 -0.9722  1.2759
  815MOL0     H 9991   6.330   3.186   5.855 -0.3052  0.9601 -1.5733
  815MOL0     H 9992   6.268   3.065   5.729  0.2959 -2.7180  0.5423
  815MOL0     H 9993   6.073   3.031   5.808  0.6513 -2.1844  0.5310
  815MOL0     H 9994   6.111   3.087   5.977  0.7086 -0.6600 -0.3852
  815MOL0     H 9995   6.089   3.281   5.750  0.0317  2.1050  0.3092
  815MOL0     H 9996   6.095   3.320   5.923 -0.7363  0.4177 -0.1583
  815MOL0     H 9997   5.864   3.171   5.796  1.6008 -1.3552  0.3417
  815MOL0     H 9998   5.879   3.206   5.963  3.4320  0.6230  1.9933
  815MOL0     H 9999   5.737   3.370   5.831 -1.5213  3.4296  4.4130
  815MOL0     H10000   5.893   3.451   5.774  1.3208 -0.0359  0.6427
  815MOL0     H10001   5.792   3.412   6.058  0.5183  0.4487  0.0042
  815MOL0     H10002   5.961   3.456   6.024 -0.0782  5.0754  1.9504
  815MOL0     H10003   5.725   3.619   5.919 -0.0198  1.6010  2.6227
  815MOL0     H10004   5.897   3.654   5.900 -0.5251  0.8378  1.2904
  815MOL0     H10005   5.752   3.621   6.172  0.5572  1.0743  2.0826
  815MOL0     H10006   5.745   3.768   6.081  0.7319  0.5261 -0.5164
  815MOL0     H10007   6.466   2.863   6.082 -0.9409 -0.3788 -0.9121
  815MOL0     H10008   6.727   2.892   6.120 -0.1124  1.3549  0.6858
  815MOL0     H10009   7.112   2.897   5.951  1.2250 -0.1967  0.5677
  815MOL0     H10010   7.355   2.924   5.904  1.6037  0.2095 -0.1241
  815MOL0     H10011   8.982   3.291   6.855 -2.0078 -0.6277  0.2504
  815MOL0     H10012   9.146   3.376   7.041  1.0791  2.0600 -0.2581
  815MOL0     H10013   9.561   3.620   7.044 -1.3532 -2.0262  0.0017
  815MOL0     H10014   9.738   3.723   7.196  0.2669 -0.2292 -0.6399
  815MOL0     H10015   9.596   4.002   7.502 -0.5017 -0.5537 -2.2849
  815MOL0     H10016   9.629   3.876   7.625  0.8184  0.7849  0.4933
  815MOL0     H10017   9.851   3.938   7.633 -0.8767 -0.7042  0.5194
  815MOL0     H10018   9.755   4.082   7.636  1.2603 -0.6786  0.7022
  815MOL0     H10019   9.854   3.997   7.356 -0.9853  0.1151 -0.4374
  815MOL0     H10020   9.971   4.049   7.479  0.3797  1.6597 -0.1064
  815MOL0     H10021   9.902   4.208   7.318  2.6423  0.4881  1.0903
  815MOL0     H10022   9.878   4.269   7.476 -0.6145 -1.1668  1.0545
  815MOL0     H10023   9.482   4.245   7.286  1.4183  3.9587  1.3239
  815MOL0     H10024   9.421   3.850   7.462  1.8974  1.5183 -0.7824
  815MOL0     H10025   9.256   3.756   7.301 -0.0451 -0.7465  2.1548
  816MOL0     O10026   3.235   7.327   4.923  0.1300  0.1717  0.3132
  816MOL0     C10027   3.244   7.367   4.807 -0.0410  0.3139  0.4171
  816MOL0     O10028   3.142   7.369   4.723 -0.4224 -0.1447 -0.0978
  816MOL0     C10029   3.007   7.337   4.750 -0.0716 -0.6777  0.3144
  816MOL0     C10030   2.930   7.353   4.639  0.1442  0.1171  0.3205
  816MOL0     C10031   2.797   7.353   4.634 -0.1409  0.3836  1.2634
  816MOL0     C10032   2.721   7.318   4.743 -0.9033 -0.5615 -0.3409
  816MOL0     O10033   2.583   7.306   4.744 -0.3839  0.5613  0.3226
  816MOL0     C10034   2.529   7.264   4.622  0.6951 -0.8469  0.1321
  816MOL0     C10035   2.441   7.140   4.642  0.2886 -0.0150 -0.9306
  816MOL0     C10036   2.307   7.171   4.704 -0.1676  0.4906 -0.4712
  816MOL0     C10037   2.221   7.055   4.729  0.0936  0.2170  0.5837
  816MOL0     C10038   2.104   7.103   4.807 -0.8625 -0.2321  0.4613
  816MOL0     C10039   2.003   6.984   4.791  0.2775 -0.3707 -0.1001
  816MOL0     C10040   1.879   7.033   4.876  0.2062  0.6604  0.1373
  816MOL0     C10041   1.800   6.914   4.942  0.7749  0.0238  0.8644
  816MOL0     N10042   1.681   6.875   4.860  0.1185 -0.4586 -0.2769
  816MOL0     C10043   1.682   6.796   4.747 -0.3527 -0.2655  0.0905
  816MOL0     C10044   1.551   6.770   4.723  1.0830 -0.3447 -1.2427
  816MOL0     C10045   1.505   6.674   4.624  0.6814 -0.1760  1.1265
  816MOL0     C10046   1.357   6.643   4.631  0.5333  1.4860 -0.2794
  816MOL0     C10047   1.267   6.748   4.569  0.3794 -0.7279  0.4620
  816MOL0     C10048   1.113   6.728   4.612  0.4236 -0.6386  0.3163
  816MOL0     O10049   1.033   6.833   4.562  0.4453 -0.4764 -0.2060
  816MOL0     C10050   0.910   6.792   4.509  0.5513 -0.2184 -0.1032
  816MOL0     C10051   0.883   6.819   4.378 -0.1546 -0.4294  0.0749
  816MOL0     C10052   0.761   6.785   4.322  0.1674 -0.0857 -0.5966
  816MOL0     C10053   0.726   6.824   4.182 -0.7093  1.2908 -0.4516
  816MOL0     C10054   0.658   6.723   4.406  0.8444  0.3770  0.2655
  816MOL0     C10055   0.519   6.678   4.353  0.6079  0.6333 -0.3981
  816MOL0     O10056   0.422   6.651   4.444  0.1234 -0.8239 -0.2843
  816MOL0     C10057   0.304   6.620   4.396 -0.3747 -0.1862  0.2283
  816MOL0     C10058   0.230   6.710   4.317  0.7326 -0.0821 -0.0626
  816MOL0     C10059   0.093   6.680   4.292  0.4697 -0.7652  1.1491
  816MOL0     C10060   0.029   6.572   4.349  0.6014  0.3713  0.6393
  816MOL0     O10061  -0.099   6.546   4.348  0.3427  0.0230 -0.3083
  816MOL0     C10062  -0.172   6.581   4.235  0.1710 -0.2287  0.3243
  816MOL0     C10063  -0.261   6.464   4.212 -0.6298  0.4529 -0.5081
  816MOL0     C10064  -0.358   6.472   4.100  0.8431 -0.4078 -0.0151
  816MOL0     C10065  -0.462   6.354   4.094 -0.1872 -0.1138 -0.4615
  816MOL0     C10066  -0.530   6.350   3.948 -0.9730 -0.4250 -0.1316
  816MOL0     C10067  -0.630   6.465   3.923 -0.4339 -0.0213  0.2889
  816MOL0     C10068  -0.746   6.469   4.029  0.1915  0.6005  0.4983
  816MOL0     C10069  -0.869   6.546   3.969  0.1810 -0.4438 -0.1498
  816MOL0    Cl10070  -0.861   6.712   4.024  0.1997  0.1882  0.0773
  816MOL0     C10071   0.112   6.487   4.413 -0.2233 -0.5633 -0.4332
  816MOL0     C10072   0.245   6.506   4.438 -0.2017 -0.1378 -0.0284
  816MOL0     O10073   0.497   6.671   4.234  0.2894 -0.7381 -0.4272
  816MOL0     C10074   0.693   6.695   4.541  0.5536 -0.5861 -0.9983
  816MOL0     C10075   0.812   6.742   4.597  0.4754 -0.2956 -0.6555
  816MOL0     N10076   1.472   6.850   4.812  0.3652 -0.4408  0.5061
  816MOL0     N10077   1.555   6.911   4.891  0.2759  0.0756 -0.4026
  816MOL0     C10078   2.791   7.309   4.862  0.0732  0.1931 -0.4651
  816MOL0     C10079   2.934   7.302   4.865  0.4982 -0.3128  0.3126
  816MOL0     C10080   3.380   7.390   4.751 -0.6765  0.5267 -0.5114
  816MOL0     C10081   3.408   7.448   4.629  0.3891  0.4538  0.2835
  816MOL0     C10082   3.544   7.459   4.579  0.2055  0.5529  0.0616
  816MOL0     C10083   3.660   7.429   4.656  0.8171  0.5912  0.5401
  816MOL0     O10084   3.784   7.465   4.609  0.2303 -0.2831  0.5159
  816MOL0     C10085   3.897   7.421   4.684 -0.2034  0.7940 -0.1830
  816MOL0     C10086   4.039   7.441   4.626  1.0259 -0.4756  0.6534
  816MOL0     C10087   4.072   7.592   4.605  0.3883 -0.3973  0.6539
  816MOL0     C10088   4.011   7.660   4.475 -0.4205  0.1097 -0.2961
  816MOL0     C10089   4.056   7.611   4.337 -0.1531 -0.5656 -0.3729
  816MOL0     C10090   4.096   7.564   4.232 -0.0807 -0.3550 -0.3611
  816MOL0     C10091   3.629   7.356   4.772 -0.2467 -0.5588 -0.1198
  816MOL0     C10092   3.492   7.335   4.810 -0.5603 -0.4560  0.1429
  816MOL0     H10093   2.972   7.398   4.550  0.8848 -1.7633 -0.3089
  816MOL0     H10094   2.744   7.372   4.541 -0.5291 -1.4847  1.0760
  816MOL0     H10095   2.467   7.348   4.590  2.4992 -0.3465 -2.3205
  816MOL0     H10096   2.601   7.240   4.543 -0.2325  0.5701 -1.1935
  816MOL0     H10097   2.422   7.091   4.546  0.1598 -0.4949 -0.6671
  816MOL0     H10098   2.503   7.072   4.701  1.7571 -0.7493 -3.1757
  816MOL0     H10099   2.329   7.218   4.800 -0.1262 -3.3932  1.5960
  816MOL0     H10100   2.250   7.244   4.645 -0.7560  1.2985  1.0546
  816MOL0     H10101   2.202   7.024   4.626  2.8690  0.6615 -0.1352
  816MOL0     H10102   2.273   6.978   4.787 -0.4488 -0.9340 -0.4015
  816MOL0     H10103   2.134   7.117   4.911 -0.1932 -3.8168  0.8824
  816MOL0     H10104   2.063   7.195   4.764  0.5035 -0.2564 -0.9943
  816MOL0     H10105   1.965   6.977   4.689  3.2222 -1.6288 -1.2020
  816MOL0     H10106   2.041   6.885   4.817  0.7318 -0.0859  0.3595
  816MOL0     H10107   1.911   7.098   4.959  3.7414  0.1232 -0.6225
  816MOL0     H10108   1.820   7.087   4.802 -2.5136 -0.7511  1.1656
  816MOL0     H10109   1.768   6.959   5.036 -1.3255  2.4399 -0.8774
  816MOL0     H10110   1.868   6.830   4.958 -1.5467 -1.9691  0.8368
  816MOL0     H10111   1.761   6.740   4.698  0.8230  2.5383 -1.4239
  816MOL0     H10112   1.531   6.710   4.523  0.0616 -0.5962  0.8116
  816MOL0     H10113   1.557   6.578   4.636  1.0955  0.1450  1.9553
  816MOL0     H10114   1.336   6.633   4.738 -1.3775  1.7408 -0.6019
  816MOL0     H10115   1.336   6.548   4.579  0.2457  1.3057  0.1576
  816MOL0     H10116   1.271   6.761   4.460  1.4611 -1.4184  0.4115
  816MOL0     H10117   1.300   6.845   4.608 -0.0372  0.0624 -1.0759
  816MOL0     H10118   1.111   6.716   4.721 -1.2773  2.1093  0.6838
  816MOL0     H10119   1.073   6.635   4.569  0.4052 -0.2747 -0.4674
  816MOL0     H10120   0.963   6.861   4.318  0.8056 -3.4170 -0.8828
  816MOL0     H10121   0.632   6.877   4.198 -0.7579  0.7242  1.3755
  816MOL0     H10122   0.788   6.905   4.142 -2.3746  2.3587 -0.9334
  816MOL0     H10123   0.713   6.740   4.114  1.0251  1.7757 -1.4492
  816MOL0     H10124   0.270   6.808   4.290  0.4528  0.1513  0.3595
  816MOL0     H10125   0.033   6.754   4.240  2.9551  0.0916 -0.6611
  816MOL0     H10126  -0.227   6.671   4.265 -2.3256 -1.9630  1.3520
  816MOL0     H10127  -0.115   6.594   4.143 -0.1963  0.8804  0.2453
  816MOL0     H10128  -0.194   6.378   4.202  0.2585  1.0648 -0.0253
  816MOL0     H10129  -0.315   6.437   4.304  3.8639  0.1625  2.3759
  816MOL0     H10130  -0.311   6.494   4.004 -1.0290  1.5848 -0.5421
  816MOL0     H10131  -0.409   6.567   4.117  3.2118  0.5846  2.3972
  816MOL0     H10132  -0.423   6.253   4.103 -1.6906 -1.0607 -3.4380
  816MOL0     H10133  -0.519   6.377   4.185  1.9087 -0.0593  0.8922
  816MOL0     H10134  -0.581   6.253   3.942 -1.3619 -0.3177  1.0884
  816MOL0     H10135  -0.450   6.353   3.873  0.7323 -1.9113  1.5058
  816MOL0     H10136  -0.574   6.558   3.931  3.2290 -1.8262 -1.8215
  816MOL0     H10137  -0.681   6.461   3.826 -3.1156  4.3220  1.2434
  816MOL0     H10138  -0.716   6.512   4.124  2.6290  0.7133 -0.2667
  816MOL0     H10139  -0.782   6.367   4.045 -0.7349  0.0774 -3.5821
  816MOL0     H10140  -0.967   6.510   4.003  0.0135  0.0466 -0.0941
  816MOL0     H10141  -0.873   6.533   3.861  1.5240 -3.2028  0.0500
  816MOL0     H10142   0.063   6.404   4.463  1.3177 -0.3291  1.5525
  816MOL0     H10143   0.300   6.443   4.508  2.3879  1.7654 -0.2102
  816MOL0     H10144   0.625   6.641   4.605  1.4721  1.0141  1.5110
  816MOL0     H10145   0.847   6.733   4.700 -1.5917 -2.0194 -0.0379
  816MOL0     H10146   2.752   7.285   4.961  1.8719 -1.0574 -0.0093
  816MOL0     H10147   2.982   7.291   4.962  0.5510 -0.4930  0.2654
  816MOL0     H10148   3.332   7.481   4.560 -0.4061  1.6726  1.6920
  816MOL0     H10149   3.574   7.513   4.489  0.4492  0.2683 -0.0302
  816MOL0     H10150   3.893   7.474   4.780 -0.0549  1.0856 -0.3396
  816MOL0     H10151   3.889   7.313   4.700  0.5597  0.6992 -0.4114
  816MOL0     H10152   4.045   7.392   4.529  0.3171  0.1377  0.2883
  816MOL0     H10153   4.118   7.395   4.686  1.3898 -0.5474  0.1219
  816MOL0     H10154   4.179   7.612   4.592  0.0492  0.9614 -0.1531
  816MOL0     H10155   4.042   7.638   4.700  0.1086 -0.7238  0.7289
  816MOL0     H10156   4.045   7.764   4.479  0.4027 -0.1668  0.1608
  816MOL0     H10157   3.905   7.642   4.491 -0.2206  0.3165  1.4724
  816MOL0     H10158   4.140   7.517   4.145 -1.3693 -1.6777 -0.3356
  816MOL0     H10159   3.704   7.320   4.842  1.5084  1.4929 -0.8122
  816MOL0     H10160   3.486   7.275   4.901  2.4419  1.1954  1.5685
  817MOL0     O10161   4.495   7.748   8.407  0.1860 -0.5353  0.4353
  817MOL0     C10162   4.547   7.781   8.301 -0.2131 -0.3023  0.0459
  817MOL0     O10163   4.479   7.827   8.195 -0.3182 -0.0046  0.5593
  817MOL0     C10164   4.344   7.838   8.206  0.3180  0.0814 -0.3889
  817MOL0     C10165   4.268   7.730   8.264 -0.2933 -0.1606 -0.2128
  817MOL0     C10166   4.122   7.741   8.262  0.5349  0.5534 -0.2482
  817MOL0     C10167   4.053   7.843   8.197 -0.0864  0.2880 -0.0164
  817MOL0     O10168   3.917   7.854   8.180 -0.3608 -0.4061  0.0797
  817MOL0     C10169   3.824   7.752   8.205  0.1188  0.5984 -0.4154
  817MOL0     C10170   3.820   7.659   8.086 -0.1531  0.3333  0.1069
  817MOL0     C10171   3.706   7.563   8.086  0.0435  0.6612 -0.0765
  817MOL0     C10172   3.714   7.449   8.184  0.6980  0.2335 -0.5106
  817MOL0     C10173   3.606   7.345   8.156  0.4010  0.7042 -0.0558
  817MOL0     C10174   3.461   7.402   8.139  0.2479 -0.8332 -0.3695
  817MOL0     C10175   3.354   7.283   8.143  0.9838  0.2572  1.3036
  817MOL0     C10176   3.216   7.311   8.086 -0.4866 -0.2998  0.0645
  817MOL0     N10177   3.149   7.406   8.174  0.0305  0.3269  0.3789
  817MOL0     C10178   3.114   7.382   8.308  0.2507 -0.3180  0.8669
  817MOL0     C10179   3.063   7.507   8.349 -0.2658  0.4556 -0.0692
  817MOL0     C10180   2.993   7.523   8.483 -0.0250 -0.1926 -0.3550
  817MOL0     C10181   2.845   7.485   8.473  0.9277  0.3132 -0.3977
  817MOL0     C10182   2.770   7.526   8.607 -0.4126  0.6387  0.9694
  817MOL0     C10183   2.631   7.479   8.598 -0.5733 -0.7131 -0.2313
  817MOL0     O10184   2.576   7.460   8.724 -0.2376  0.8291 -0.0407
  817MOL0     C10185   2.436   7.432   8.739 -0.4678 -0.5525  0.6911
  817MOL0     C10186   2.378   7.393   8.864  0.0321  0.0605  0.5370
  817MOL0     C10187   2.247   7.349   8.876 -0.1702  0.1777 -0.6862
  817MOL0     C10188   2.195   7.320   9.023  0.5993 -0.1563  0.8363
  817MOL0     C10189   2.169   7.347   8.761  0.0846 -0.2702 -0.5263
  817MOL0     C10190   2.030   7.299   8.761 -0.7567 -0.1685 -0.3450
  817MOL0     O10191   1.950   7.371   8.677 -0.1635  0.9826  1.1408
  817MOL0     C10192   1.810   7.346   8.682 -0.0135 -0.6212 -0.3571
  817MOL0     C10193   1.723   7.436   8.739  0.2449  0.9408 -0.8507
  817MOL0     C10194   1.593   7.401   8.754 -0.4229  0.4389 -0.5951
  817MOL0     C10195   1.551   7.281   8.690  0.8592  0.7403  0.3261
  817MOL0     O10196   1.413   7.277   8.693  0.0989  0.3257  0.4718
  817MOL0     C10197   1.346   7.179   8.621  0.1915 -0.7459 -0.7558
  817MOL0     C10198   1.195   7.215   8.635 -0.1377  0.0978 -0.1355
  817MOL0     C10199   1.164   7.356   8.582 -0.9957 -0.1361  0.7517
  817MOL0     C10200   1.014   7.362   8.593  0.0653  0.7683  0.2565
  817MOL0     C10201   0.946   7.494   8.565  0.1209 -0.6124  0.8195
  817MOL0     C10202   1.011   7.621   8.646  0.4677  0.2755  0.3260
  817MOL0     C10203   1.096   7.697   8.551 -0.1627  0.4502 -0.5649
  817MOL0     C10204   1.021   7.774   8.454  0.6919 -0.8124  0.1122
  817MOL0    Cl10205   0.898   7.885   8.531 -0.0760 -0.6865  0.1575
  817MOL0     C10206   1.639   7.199   8.623  1.1879  0.4863  0.0392
  817MOL0     C10207   1.769   7.231   8.617  0.0070 -0.2030 -0.4562
  817MOL0     O10208   1.994   7.217   8.845  0.2627 -0.4166  0.2588
  817MOL0     C10209   2.224   7.369   8.636 -0.1514  0.2893  0.0844
  817MOL0     C10210   2.353   7.425   8.623 -0.3767 -0.3342  0.0729
  817MOL0     N10211   3.071   7.599   8.248  0.0382 -0.1751  0.3362
  817MOL0     N10212   3.105   7.537   8.138  1.0657 -0.2617  0.0954
  817MOL0     C10213   4.133   7.952   8.152  0.1857 -0.1802  0.3762
  817MOL0     C10214   4.269   7.941   8.138 -0.5300  1.0784 -0.1994
  817MOL0     C10215   4.692   7.765   8.285 -0.8225 -0.0824  0.4657
  817MOL0     C10216   4.761   7.792   8.171  0.2271  0.3679  0.8025
  817MOL0     C10217   4.892   7.777   8.164  0.9480  1.2688  0.5195
  817MOL0     C10218   4.967   7.754   8.280  1.0713  0.3496  0.0422
  817MOL0     O10219   5.101   7.752   8.287  0.1289  0.1316  0.4084
  817MOL0     C10220   5.187   7.781   8.175 -0.3932  0.8506  0.3299
  817MOL0     C10221   5.335   7.764   8.204 -0.3597  0.3199 -0.3012
  817MOL0     C10222   5.434   7.794   8.081  0.1872  0.5617  0.1009
  817MOL0     C10223   5.574   7.834   8.126  0.1167 -0.2476  0.6060
  817MOL0     C10224   5.666   7.843   8.007 -0.0191 -0.2670  0.4020
  817MOL0     C10225   5.758   7.836   7.927 -0.1355 -0.1051 -0.0062
  817MOL0     C10226   4.898   7.719   8.398  0.1527 -0.4061 -0.9300
  817MOL0     C10227   4.762   7.733   8.403  0.2724 -0.0188 -0.4095
  817MOL0     H10228   4.317   7.646   8.314  1.5898  0.7978 -0.3474
  817MOL0     H10229   4.048   7.673   8.302 -1.4125  2.0435 -1.1607
  817MOL0     H10230   3.851   7.695   8.295 -1.9732 -0.5767 -0.4722
  817MOL0     H10231   3.720   7.784   8.212 -0.0983  0.6356 -2.9216
  817MOL0     H10232   3.806   7.713   7.992 -0.1641 -1.0060 -0.6884
  817MOL0     H10233   3.911   7.598   8.077  0.2390  1.0822 -1.4528
  817MOL0     H10234   3.613   7.619   8.102 -1.0096 -1.1654  0.5429
  817MOL0     H10235   3.706   7.529   7.982  1.4133  0.7771 -0.1333
  817MOL0     H10236   3.816   7.409   8.190  0.3879 -0.3842  2.5418
  817MOL0     H10237   3.697   7.484   8.286  0.8721  1.8389 -1.0029
  817MOL0     H10238   3.628   7.298   8.060 -1.1209 -3.2183  1.2923
  817MOL0     H10239   3.610   7.261   8.226  1.5645 -1.6038 -2.7025
  817MOL0     H10240   3.444   7.480   8.214  2.0807  1.0008 -1.7615
  817MOL0     H10241   3.463   7.447   8.039  0.6442 -1.0437 -0.4555
  817MOL0     H10242   3.396   7.196   8.092  0.5785  0.2269  1.0174
  817MOL0     H10243   3.348   7.248   8.247  0.0465  0.3883  1.3027
  817MOL0     H10244   3.167   7.214   8.078 -1.4950  0.0360  1.7808
  817MOL0     H10245   3.232   7.355   7.987  0.4844 -2.5511 -0.8340
  817MOL0     H10246   3.116   7.283   8.351 -1.8302 -0.8277 -0.0885
  817MOL0     H10247   3.043   7.467   8.562 -0.8133 -1.2063 -0.5600
  817MOL0     H10248   2.996   7.627   8.518  1.7516 -0.3642  0.0854
  817MOL0     H10249   2.838   7.376   8.465 -1.3948  0.2760  1.2487
  817MOL0     H10250   2.806   7.524   8.379  1.2761 -1.6528 -1.4218
  817MOL0     H10251   2.766   7.635   8.616  1.6933  0.6536  2.4813
  817MOL0     H10252   2.818   7.469   8.687  1.0316 -1.7459 -1.3983
  817MOL0     H10253   2.623   7.379   8.555 -0.7894 -2.2000  2.9255
  817MOL0     H10254   2.572   7.550   8.541 -1.6514 -0.8547  0.6713
  817MOL0     H10255   2.438   7.400   8.955  1.9766 -3.6808 -0.2599
  817MOL0     H10256   2.199   7.213   9.046  1.0683 -1.1740 -3.2014
  817MOL0     H10257   2.260   7.377   9.089 -0.4586  0.7662  1.1183
  817MOL0     H10258   2.094   7.360   9.037 -0.5682 -2.7695  0.5499
  817MOL0     H10259   1.764   7.528   8.780 -1.0195  0.7148  1.0516
  817MOL0     H10260   1.526   7.456   8.820  2.0383  0.4592  2.1006
  817MOL0     H10261   1.362   7.186   8.513  0.4671  3.4495 -0.5997
  817MOL0     H10262   1.376   7.086   8.671  1.1143  0.6489  1.4153
  817MOL0     H10263   1.141   7.151   8.564 -1.8018  1.8480 -0.5344
  817MOL0     H10264   1.149   7.199   8.733 -3.2668 -0.7902 -1.5996
  817MOL0     H10265   1.215   7.372   8.486  2.0068 -0.9136  2.1041
  817MOL0     H10266   1.213   7.433   8.643  0.0509 -0.2190  0.0565
  817MOL0     H10267   0.974   7.296   8.516  1.6134  0.0736  0.0119
  817MOL0     H10268   0.976   7.328   8.690 -0.6016  0.6124 -0.0539
  817MOL0     H10269   0.841   7.493   8.595 -0.5755 -2.1835 -1.3720
  817MOL0     H10270   0.942   7.513   8.457  0.0517 -0.0823  0.9120
  817MOL0     H10271   0.928   7.679   8.687  1.9659  2.2192  0.7658
  817MOL0     H10272   1.082   7.591   8.723 -0.8553  0.9721  1.8675
  817MOL0     H10273   1.164   7.627   8.501  2.4443  1.9083  0.6961
  817MOL0     H10274   1.162   7.765   8.606  1.4285  0.8609 -2.8361
  817MOL0     H10275   0.980   7.707   8.378  2.2265 -0.5326 -1.0229
  817MOL0     H10276   1.089   7.831   8.390  2.7110 -1.8617  1.1915
  817MOL0     H10277   1.605   7.108   8.575 -1.0159  2.4540 -2.4600
  817MOL0     H10278   1.851   7.177   8.570 -0.5501  0.1541 -1.8736
  817MOL0     H10279   2.163   7.354   8.547  0.2608 -1.9171  0.1126
  817MOL0     H10280   2.384   7.451   8.522 -1.7871  0.1585 -0.2505
  817MOL0     H10281   4.079   8.032   8.102  0.6445 -0.9124 -1.3601
  817MOL0     H10282   4.336   8.013   8.092  0.5833 -0.8352 -1.7049
  817MOL0     H10283   4.712   7.807   8.075  1.1999 -1.8677 -0.1205
  817MOL0     H10284   4.937   7.806   8.070 -0.3489 -1.9978 -1.2880
  817MOL0     H10285   5.165   7.714   8.092 -0.3415  0.9838  0.2090
  817MOL0     H10286   5.173   7.882   8.137  1.3207  0.5406 -1.2765
  817MOL0     H10287   5.361   7.667   8.247  2.6175  1.2167  0.1549
  817MOL0     H10288   5.359   7.835   8.284  1.5532 -2.0103  1.3346
  817MOL0     H10289   5.394   7.864   8.007 -1.0212  0.5621  0.7323
  817MOL0     H10290   5.442   7.698   8.029 -0.3258 -0.0305  1.0922
  817MOL0     H10291   5.604   7.754   8.194  0.2137 -0.3651  0.4270
  817MOL0     H10292   5.575   7.932   8.173 -0.9541  0.5525 -0.9588
  817MOL0     H10293   5.846   7.820   7.867  0.4163 -2.1473  1.2468
  817MOL0     H10294   4.951   7.691   8.488 -1.3391 -1.1397 -0.2515
  817MOL0     H10295   4.710   7.712   8.496  0.0560  3.1553  0.3030
  818MOL0     O10296   9.406   1.170   2.077  0.1112  0.3581 -0.8154
  818MOL0     C10297   9.452   1.099   2.166 -0.9731  0.6279  0.3242
  818MOL0     O10298   9.379   0.994   2.229  0.7955  0.2365 -0.0768
  818MOL0     C10299   9.252   0.954   2.184 -0.6681  0.2802  0.8024
  818MOL0     C10300   9.218   0.812   2.182 -0.0762 -0.2122 -0.1653
  818MOL0     C10301   9.094   0.770   2.144 -0.4805 -0.0829  0.9855
  818MOL0     C10302   8.999   0.863   2.091  0.0391 -0.2171 -0.2297
  818MOL0     O10303   8.878   0.830   2.033 -0.2189  0.4122 -0.5661
  818MOL0     C10304   8.833   0.688   2.030 -0.3134  0.4009 -0.2734
  818MOL0     C10305   8.795   0.645   2.177  0.2077 -0.6577  0.9117
  818MOL0     C10306   8.644   0.631   2.192 -0.0280  0.1244 -0.2244
  818MOL0     C10307   8.578   0.497   2.149 -0.5206 -0.8388 -0.2912
  818MOL0     C10308   8.426   0.510   2.148 -0.0728  0.4661  0.1363
  818MOL0     C10309   8.365   0.364   2.104 -0.2324 -0.9749 -0.9697
  818MOL0     C10310   8.212   0.362   2.058 -0.5435 -0.3161  0.5593
  818MOL0     C10311   8.109   0.352   2.167  0.2505  0.4710  0.7002
  818MOL0     N10312   7.969   0.335   2.129  0.6268  0.5017 -0.9659
  818MOL0     C10313   7.932   0.267   2.013  0.5826 -0.2833 -0.5120
  818MOL0     C10314   7.801   0.308   1.996  0.4937 -0.2168 -1.0003
  818MOL0     C10315   7.717   0.257   1.890 -0.5821  0.9735 -0.4448
  818MOL0     C10316   7.570   0.285   1.902 -0.1358  0.5602  0.6181
  818MOL0     C10317   7.511   0.166   1.981  0.4553  0.1720 -0.4710
  818MOL0     C10318   7.360   0.171   1.983  0.0578 -0.0920 -0.0244
  818MOL0     O10319   7.311   0.282   2.067  0.4247  0.5481 -0.4776
  818MOL0     C10320   7.171   0.277   2.091  0.3197  0.5718  0.1317
  818MOL0     C10321   7.114   0.359   2.195 -1.5609 -0.8456 -0.5176
  818MOL0     C10322   6.982   0.382   2.230 -0.4967  0.2719 -0.0593
  818MOL0     C10323   6.947   0.451   2.355  0.6900 -0.7187  0.8984
  818MOL0     C10324   6.886   0.315   2.151 -0.1245  0.5697 -0.1109
  818MOL0     C10325   6.744   0.335   2.181  0.3488 -1.1599 -0.1604
  818MOL0     O10326   6.682   0.442   2.110 -0.5783 -0.0952 -0.2968
  818MOL0     C10327   6.545   0.466   2.132 -0.3718  0.2736 -0.0548
  818MOL0     C10328   6.488   0.553   2.030  0.5048  0.9229  0.2151
  818MOL0     C10329   6.354   0.589   2.042  0.7132 -0.1576 -0.3596
  818MOL0     C10330   6.272   0.544   2.152  0.4341 -0.5015 -0.3702
  818MOL0     O10331   6.139   0.586   2.161 -0.0821  0.1801  0.6588
  818MOL0     C10332   6.044   0.476   2.168 -0.0221 -0.2951 -0.4883
  818MOL0     C10333   5.934   0.508   2.074 -0.2673 -0.1343  0.1894
  818MOL0     C10334   5.846   0.607   2.136 -0.3223 -0.4286  0.2715
  818MOL0     C10335   5.841   0.731   2.043  0.0175  0.3830 -0.8146
  818MOL0     C10336   5.748   0.849   2.095 -0.0596 -1.0273  0.1643
  818MOL0     C10337   5.599   0.803   2.074 -0.7246 -0.1954  0.0562
  818MOL0     C10338   5.505   0.918   2.128  0.3306  0.3771  0.4602
  818MOL0     C10339   5.359   0.896   2.111 -0.1642 -0.0768  0.2063
  818MOL0    Cl10340   5.303   0.747   2.184  0.1380  0.4173 -0.2921
  818MOL0     C10341   6.329   0.474   2.254  0.4314  0.4382  0.6462
  818MOL0     C10342   6.463   0.428   2.241  0.2040  0.1828  0.0618
  818MOL0     O10343   6.693   0.247   2.254  0.0559  0.7895  0.5085
  818MOL0     C10344   6.934   0.235   2.043 -1.0887  0.1572 -0.0140
  818MOL0     C10345   7.074   0.210   2.009  0.4907 -0.2957 -0.2796
  818MOL0     N10346   7.774   0.403   2.103  0.4612  0.8063  0.0135
  818MOL0     N10347   7.872   0.415   2.180  0.3597 -0.3847  0.0627
  818MOL0     C10348   9.019   0.999   2.105 -0.9833 -0.2368  0.0852
  818MOL0     C10349   9.146   1.039   2.151  0.5650 -0.1632 -0.4691
  818MOL0     C10350   9.584   1.136   2.208 -0.0205  0.1128 -0.2202
  818MOL0     C10351   9.647   1.261   2.174  0.6090 -0.1981  0.4266
  818MOL0     C10352   9.775   1.298   2.219  0.0240 -0.9487 -0.0261
  818MOL0     C10353   9.829   1.214   2.306  0.3597  0.4944 -0.5054
  818MOL0     O10354   9.953   1.241   2.367 -0.9487  0.2995  0.2300
  818MOL0     C10355  10.029   1.364   2.341  0.5559 -0.2675 -0.0533
  818MOL0     C10356  10.099   1.337   2.211 -0.7991 -0.2099  0.1900
  818MOL0     C10357  10.191   1.208   2.215  1.0602  0.3966 -0.1553
  818MOL0     C10358  10.278   1.195   2.083  0.3650 -0.3523  0.1454
  818MOL0     C10359  10.188   1.159   1.974  0.2124  0.3888  0.3190
  818MOL0     C10360  10.143   1.137   1.865  1.5160 -1.3433 -0.1123
  818MOL0     C10361   9.767   1.098   2.344  0.1015  0.5868 -0.0044
  818MOL0     C10362   9.646   1.050   2.287  0.4077  0.2654 -1.0576
  818MOL0     H10363   9.283   0.739   2.229  0.3932 -1.6419 -2.8654
  818MOL0     H10364   9.074   0.664   2.145 -0.5429 -0.1222 -0.9240
  818MOL0     H10365   8.750   0.695   1.959  0.8058 -0.6549 -1.7363
  818MOL0     H10366   8.909   0.618   1.994 -0.1564  0.2393  0.3561
  818MOL0     H10367   8.855   0.559   2.208  1.7331  0.3638  0.9233
  818MOL0     H10368   8.826   0.723   2.247 -2.4005 -1.0937  2.7071
  818MOL0     H10369   8.608   0.655   2.293  3.2114 -0.4114  1.1788
  818MOL0     H10370   8.596   0.713   2.139 -1.3762 -0.3082  0.2787
  818MOL0     H10371   8.611   0.467   2.050 -0.5272 -0.6024 -0.3666
  818MOL0     H10372   8.615   0.424   2.222 -0.4607 -2.8092 -2.1997
  818MOL0     H10373   8.391   0.545   2.246 -0.8121  1.1075 -0.3416
  818MOL0     H10374   8.397   0.593   2.082 -0.5864  3.4690  3.8264
  818MOL0     H10375   8.427   0.330   2.020  1.8490  1.3633 -0.5010
  818MOL0     H10376   8.369   0.299   2.192  3.2726 -1.5527 -1.3992
  818MOL0     H10377   8.201   0.455   2.001  1.7291  0.2457  0.9578
  818MOL0     H10378   8.203   0.285   1.981  0.2893  1.2186 -1.1623
  818MOL0     H10379   8.121   0.441   2.229  1.7839  0.2239  0.7958
  818MOL0     H10380   8.138   0.271   2.233 -1.2382 -0.6434  0.0521
  818MOL0     H10381   7.982   0.194   1.949  0.4889 -1.5676  0.8279
  818MOL0     H10382   7.764   0.302   1.802 -0.1298  2.7765  0.6519
  818MOL0     H10383   7.739   0.150   1.899  0.3407  1.2241  0.6332
  818MOL0     H10384   7.531   0.288   1.799  1.1292  2.1803  0.1344
  818MOL0     H10385   7.541   0.377   1.954 -0.3125  1.2019 -0.5597
  818MOL0     H10386   7.542   0.169   2.086 -2.1041  0.3275  0.3635
  818MOL0     H10387   7.532   0.070   1.934  0.1130 -0.3988  0.5183
  818MOL0     H10388   7.322   0.076   2.022 -0.6734 -1.0334 -2.7792
  818MOL0     H10389   7.331   0.180   1.877 -1.9349  0.2812  0.5113
  818MOL0     H10390   7.190   0.415   2.249 -1.3352 -0.3028 -1.3660
  818MOL0     H10391   6.841   0.438   2.377 -0.0905 -0.4433 -2.2449
  818MOL0     H10392   7.005   0.411   2.439 -0.2057  1.2382  2.5301
  818MOL0     H10393   6.955   0.558   2.334 -0.0902 -1.0695 -1.5153
  818MOL0     H10394   6.550   0.600   1.955 -1.2016  3.4048  0.2718
  818MOL0     H10395   6.332   0.658   1.961  2.0881 -1.6305 -2.0806
  818MOL0     H10396   6.084   0.376   2.152 -0.1972 -0.4454  0.0063
  818MOL0     H10397   6.006   0.459   2.269  1.9574  0.4321  0.4353
  818MOL0     H10398   5.974   0.552   1.983 -0.5620  3.3668  1.6009
  818MOL0     H10399   5.874   0.418   2.056  1.1736 -0.7623 -1.8917
  818MOL0     H10400   5.886   0.634   2.234  2.3295 -3.8457  0.3358
  818MOL0     H10401   5.746   0.564   2.129  0.9393 -3.3427 -2.9336
  818MOL0     H10402   5.945   0.767   2.038 -0.7829  3.5565  1.8915
  818MOL0     H10403   5.810   0.697   1.944  4.0456 -2.5807 -1.3654
  818MOL0     H10404   5.765   0.931   2.024 -0.3871 -3.0810 -2.4865
  818MOL0     H10405   5.770   0.862   2.201  2.1873  3.2691 -0.6336
  818MOL0     H10406   5.571   0.792   1.969 -1.1499  2.7346 -0.2205
  818MOL0     H10407   5.582   0.706   2.122  0.4197 -0.8303 -0.7709
  818MOL0     H10408   5.526   1.011   2.073 -1.2974 -0.4649 -1.7430
  818MOL0     H10409   5.521   0.948   2.232 -0.4035  0.4815  0.5480
  818MOL0     H10410   5.350   0.892   2.002  2.5876 -2.3112 -0.0465
  818MOL0     H10411   5.311   0.991   2.138  2.5963  0.8006  2.5889
  818MOL0     H10412   6.277   0.447   2.345 -1.9213  1.2977 -0.3641
  818MOL0     H10413   6.498   0.360   2.318  0.7655 -1.0306 -1.2240
  818MOL0     H10414   6.862   0.177   1.985  0.3700 -0.5372 -1.2135
  818MOL0     H10415   7.106   0.151   1.924  2.0165 -2.0147  1.3699
  818MOL0     H10416   8.936   1.066   2.085 -1.6610 -0.6036  1.4763
  818MOL0     H10417   9.174   1.143   2.167 -1.4343  0.3622 -0.1222
  818MOL0     H10418   9.596   1.330   2.107  3.7957 -1.6978 -4.0091
  818MOL0     H10419   9.815   1.398   2.206 -0.2043 -0.6683  1.3103
  818MOL0     H10420   9.966   1.454   2.341 -0.6329 -1.0164 -2.1643
  818MOL0     H10421  10.093   1.379   2.428 -3.2140  1.3082  2.7349
  818MOL0     H10422  10.159   1.424   2.186 -1.5998 -0.0659 -1.3747
  818MOL0     H10423  10.021   1.330   2.134 -0.5349  0.8660 -0.1988
  818MOL0     H10424  10.138   1.114   2.232  2.6238 -0.3466  0.8576
  818MOL0     H10425  10.253   1.215   2.305 -1.0232  0.6093  1.3615
  818MOL0     H10426  10.357   1.120   2.092  1.1620 -0.0305 -3.0104
  818MOL0     H10427  10.322   1.291   2.055 -0.9124  0.2266  0.0306
  818MOL0     H10428  10.098   1.119   1.769  1.1172  0.2644 -0.2714
  818MOL0     H10429   9.817   1.029   2.411 -1.1663  0.9019  1.3315
  818MOL0     H10430   9.623   0.948   2.315  3.3110 -0.0311  0.6156
  819MOL0     O10431  10.022   6.518   0.494  0.0459  0.5431 -0.3997
  819MOL0     C10432   9.938   6.500   0.586  0.8856  0.1447  0.1420
  819MOL0     O10433   9.844   6.408   0.578  0.1757 -0.1166  1.0288
  819MOL0     C10434   9.838   6.297   0.492 -0.3828 -0.1524 -0.0874
  819MOL0     C10435   9.741   6.200   0.521  0.3209  0.0955  0.3622
  819MOL0     C10436   9.721   6.092   0.435  0.3819 -0.2282  0.2194
  819MOL0     C10437   9.807   6.064   0.335 -0.1437 -0.0655 -0.2842
  819MOL0     O10438   9.803   5.957   0.246 -0.5746 -0.5761 -0.5925
  819MOL0     C10439   9.760   5.830   0.285  0.1547  1.2522 -0.4232
  819MOL0     C10440   9.603   5.813   0.277  0.1243  1.1092  0.6883
  819MOL0     C10441   9.560   5.757   0.146  0.4261  0.4547  0.4672
  819MOL0     C10442   9.403   5.761   0.136  0.2235 -0.8403 -0.0483
  819MOL0     C10443   9.354   5.671   0.026  0.3541 -0.2168 -0.3163
  819MOL0     C10444   9.205   5.672   0.027  1.4736  1.0339 -0.7479
  819MOL0     C10445   9.131   5.542  -0.002  0.4723  0.2883 -0.0377
  819MOL0     C10446   9.118   5.526  -0.156  0.9686  0.0419 -0.6734
  819MOL0     N10447   9.026   5.408  -0.184 -0.2951  0.3157 -0.6519
  819MOL0     C10448   8.937   5.416  -0.283 -0.2432 -0.2494 -0.6558
  819MOL0     C10449   8.896   5.288  -0.315  0.8371 -0.5540 -1.0112
  819MOL0     C10450   8.806   5.252  -0.425 -0.0530  0.0800  0.6485
  819MOL0     C10451   8.664   5.317  -0.418 -0.8749 -0.0767 -0.4974
  819MOL0     C10452   8.583   5.268  -0.295 -0.5036  0.8285 -0.1188
  819MOL0     C10453   8.430   5.295  -0.320 -0.3742  0.1252  0.2254
  819MOL0     O10454   8.355   5.259  -0.198  0.5020 -0.1364  0.9246
  819MOL0     C10455   8.223   5.255  -0.223 -0.2052 -0.1064 -0.3097
  819MOL0     C10456   8.153   5.132  -0.225 -0.5731  0.7508  0.0851
  819MOL0     C10457   8.017   5.142  -0.237  0.5175  0.2023  0.5136
  819MOL0     C10458   7.950   5.014  -0.275  0.4187 -0.1251 -0.6728
  819MOL0     C10459   7.942   5.264  -0.243 -0.0471  0.6184  0.5033
  819MOL0     C10460   7.794   5.280  -0.248 -0.2727 -0.3451  0.6092
  819MOL0     O10461   7.746   5.405  -0.256 -0.3120 -0.5191 -0.4757
  819MOL0     C10462   7.612   5.431  -0.254 -0.5092 -0.1831 -0.7207
  819MOL0     C10463   7.550   5.462  -0.371  0.5596  0.3570  0.3712
  819MOL0     C10464   7.414   5.489  -0.369  0.7202  0.3574 -0.0515
  819MOL0     C10465   7.336   5.477  -0.245  0.5436  0.3666  0.7010
  819MOL0     O10466   7.200   5.496  -0.248 -0.2471 -0.3585 -0.6233
  819MOL0     C10467   7.130   5.525  -0.123  0.3436  0.4571  0.2546
  819MOL0     C10468   6.996   5.581  -0.147  0.0106 -0.5232  1.1662
  819MOL0     C10469   6.923   5.622  -0.022  0.5523  0.3923 -0.5512
  819MOL0     C10470   6.941   5.768   0.011  0.6342 -0.1231 -0.1733
  819MOL0     C10471   6.848   5.823   0.126 -0.1493  0.3518  0.7434
  819MOL0     C10472   6.882   5.974   0.159  0.1537  0.4954  0.0506
  819MOL0     C10473   7.019   5.988   0.225 -0.3456 -0.9593 -0.7562
  819MOL0     C10474   7.062   5.887   0.325 -0.9519  0.3651 -0.6483
  819MOL0    Cl10475   7.209   5.931   0.406  0.0804 -0.2043 -0.3455
  819MOL0     C10476   7.411   5.465  -0.134 -0.0433  0.2733 -0.0805
  819MOL0     C10477   7.549   5.435  -0.130  0.1798 -0.6777  0.5263
  819MOL0     O10478   7.725   5.176  -0.249 -0.9275  0.3593 -0.5265
  819MOL0     C10479   8.021   5.383  -0.236  0.6509 -1.0523  0.1516
  819MOL0     C10480   8.158   5.378  -0.234 -0.4254  0.3184 -0.2059
  819MOL0     N10481   8.965   5.209  -0.216  0.1580  0.0077 -0.8853
  819MOL0     N10482   9.043   5.282  -0.142 -0.4310  0.3800  0.3296
  819MOL0     C10483   9.912   6.156   0.312  0.2528  0.2112  0.6304
  819MOL0     C10484   9.929   6.269   0.389 -0.4800 -0.2107  0.1033
  819MOL0     C10485   9.932   6.595   0.697  0.2782  0.2067 -0.3449
  819MOL0     C10486  10.028   6.687   0.720  0.0472 -1.1023  0.3624
  819MOL0     C10487  10.017   6.786   0.815 -0.1980  0.1050  0.8113
  819MOL0     C10488   9.905   6.799   0.898  0.2989  0.1871  0.6327
  819MOL0     O10489   9.878   6.905   0.987  0.0950 -0.4785 -0.2477
  819MOL0     C10490   9.979   6.979   1.061  0.3213 -0.5817 -0.6499
  819MOL0     C10491   9.896   7.044   1.167  0.7790 -0.1549  0.3444
  819MOL0     C10492   9.953   7.184   1.208 -0.3763  0.3817 -0.2768
  819MOL0     C10493   9.921   7.224   1.351 -0.7359 -0.3720 -0.3160
  819MOL0     C10494  10.022   7.328   1.384 -0.3454 -0.1778  0.2728
  819MOL0     C10495  10.088   7.422   1.426 -0.3923  0.0955  1.0759
  819MOL0     C10496   9.807   6.706   0.884 -0.7336 -0.3332  0.3690
  819MOL0     C10497   9.822   6.599   0.788  1.1335 -0.0961  0.3646
  819MOL0     H10498   9.683   6.215   0.612 -1.4535  0.7561 -0.8169
  819MOL0     H10499   9.640   6.023   0.456 -0.8977  0.8782 -0.8568
  819MOL0     H10500   9.817   5.757   0.227  1.8525  1.2293  1.2073
  819MOL0     H10501   9.795   5.819   0.388  1.3327  0.0172 -0.9269
  819MOL0     H10502   9.575   5.739   0.352  0.6453  1.2089  0.9881
  819MOL0     H10503   9.554   5.910   0.291  0.8625  1.5877  0.0230
  819MOL0     H10504   9.598   5.807   0.056 -0.1717  0.4279  0.1912
  819MOL0     H10505   9.595   5.654   0.134 -1.7386 -0.2383 -0.4400
  819MOL0     H10506   9.362   5.741   0.235  3.8706  1.4173  2.1243
  819MOL0     H10507   9.373   5.862   0.109  0.1455 -1.2365 -1.5273
  819MOL0     H10508   9.396   5.688  -0.073 -2.0363  1.0652 -1.2076
  819MOL0     H10509   9.387   5.569   0.045 -0.6731 -0.2992  1.2033
  819MOL0     H10510   9.174   5.696   0.129  0.1759  1.5904 -1.2469
  819MOL0     H10511   9.167   5.752  -0.037 -2.4485  0.9800  1.1896
  819MOL0     H10512   9.187   5.462   0.046 -1.0434  0.9508  3.1269
  819MOL0     H10513   9.032   5.544   0.046  0.0656 -0.7022 -0.7933
  819MOL0     H10514   9.214   5.515  -0.208 -1.9781  0.4125 -7.2992
  819MOL0     H10515   9.079   5.615  -0.206  1.7367  0.1166 -1.1613
  819MOL0     H10516   8.900   5.504  -0.334  0.3494  1.3552  1.5376
  819MOL0     H10517   8.858   5.282  -0.516  0.2654 -2.0045  0.0927
  819MOL0     H10518   8.797   5.143  -0.426 -0.4649  0.0711 -2.5161
  819MOL0     H10519   8.611   5.303  -0.512 -3.1349  2.6238  0.2289
  819MOL0     H10520   8.671   5.425  -0.402 -2.5870 -0.3078  2.7407
  819MOL0     H10521   8.618   5.328  -0.210 -1.9252 -0.5587  1.5217
  819MOL0     H10522   8.611   5.165  -0.272 -0.1254  1.1018  0.7146
  819MOL0     H10523   8.397   5.244  -0.411  2.7706  1.5455 -1.8760
  819MOL0     H10524   8.415   5.402  -0.341  0.4320  0.4267  1.1527
  819MOL0     H10525   8.206   5.037  -0.224 -1.4950  0.2321  0.4904
  819MOL0     H10526   7.886   5.034  -0.362  0.6342  0.5047 -0.6905
  819MOL0     H10527   8.020   4.937  -0.308  3.4349  2.6395 -1.2015
  819MOL0     H10528   7.884   4.988  -0.192  0.6921 -0.9202 -0.7014
  819MOL0     H10529   7.603   5.468  -0.466 -1.2878 -1.6424 -0.8686
  819MOL0     H10530   7.343   5.504  -0.450 -0.0401 -2.5291 -0.0488
  819MOL0     H10531   7.104   5.438  -0.062  0.2174  1.7504  2.1129
  819MOL0     H10532   7.187   5.592  -0.058  3.2101  0.2613 -1.8184
  819MOL0     H10533   7.011   5.664  -0.217 -2.2843  0.3034  1.5910
  819MOL0     H10534   6.936   5.513  -0.208 -2.2696  3.8351 -2.0283
  819MOL0     H10535   6.940   5.558   0.064  0.5093  0.5855 -0.3986
  819MOL0     H10536   6.817   5.624  -0.050  0.7328 -1.3881 -1.5228
  819MOL0     H10537   7.045   5.790   0.037  1.6460 -1.0925 -2.9795
  819MOL0     H10538   6.924   5.816  -0.086 -1.4688  0.1305  0.2637
  819MOL0     H10539   6.861   5.760   0.214 -0.3113 -1.0081 -0.1639
  819MOL0     H10540   6.749   5.816   0.079  0.9492  2.5800 -2.2205
  819MOL0     H10541   6.887   6.031   0.066  0.4140  4.4457  2.2918
  819MOL0     H10542   6.799   6.003   0.224 -0.2594 -1.1460  0.3142
  819MOL0     H10543   7.010   6.082   0.280 -0.9056 -1.6994  0.4535
  819MOL0     H10544   7.093   6.016   0.150  0.3534  2.6213  1.0658
  819MOL0     H10545   7.074   5.789   0.278 -0.6808 -0.7106  1.5526
  819MOL0     H10546   6.982   5.870   0.398 -0.3948 -1.4448 -0.4154
  819MOL0     H10547   7.370   5.469  -0.034 -0.6020  0.6548 -0.3220
  819MOL0     H10548   7.608   5.421  -0.040  1.9334  0.2708 -0.4170
  819MOL0     H10549   7.974   5.480  -0.228  1.8506 -0.4580  0.1479
  819MOL0     H10550   8.221   5.466  -0.223  0.5233  0.0794 -3.0860
  819MOL0     H10551   9.982   6.139   0.231  0.2375  0.9815  0.4491
  819MOL0     H10552  10.019   6.327   0.369 -1.7478  1.1968 -1.8849
  819MOL0     H10553  10.109   6.688   0.647 -0.4067 -0.6346 -0.1564
  819MOL0     H10554  10.091   6.865   0.817 -0.0397  0.0711 -1.5639
  819MOL0     H10555  10.057   6.913   1.100  1.9384  0.7175 -1.5918
  819MOL0     H10556  10.025   7.047   0.988 -0.6696 -1.5241 -2.2142
  819MOL0     H10557   9.897   6.977   1.254  1.8010  0.9078  1.1695
  819MOL0     H10558   9.791   7.057   1.137  0.8447  2.8598  1.1407
  819MOL0     H10559   9.910   7.263   1.146 -1.4640  0.1001  0.0974
  819MOL0     H10560  10.062   7.172   1.209 -0.5523 -2.7635  3.2549
  819MOL0     H10561   9.936   7.145   1.425  0.2860  0.2232  0.1310
  819MOL0     H10562   9.822   7.270   1.352 -0.2452  0.7281 -0.9644
  819MOL0     H10563  10.159   7.491   1.467 -0.3061  1.5728 -1.3605
  819MOL0     H10564   9.727   6.706   0.957  0.6440  0.7352  1.9431
  819MOL0     H10565   9.739   6.531   0.772  1.0793  0.1057 -0.2309
  820MOL0     O10566  10.316  10.897   7.801  0.1379  0.7572  1.0141
  820MOL0     C10567  10.364  10.780   7.815 -0.5270  0.2067  0.8642
  820MOL0     O10568  10.304  10.665   7.800  0.4432 -0.0897 -0.0677
  820MOL0     C10569  10.165  10.655   7.771 -0.1804  0.5635 -0.6416
  820MOL0     C10570  10.115  10.723   7.662  0.4597 -0.3756  0.1589
  820MOL0     C10571   9.985  10.713   7.623 -0.1504  0.1630  0.8638
  820MOL0     C10572   9.901  10.626   7.685  0.1910  0.2512  0.5272
  820MOL0     O10573   9.777  10.610   7.632 -0.3849  0.3798 -0.1512
  820MOL0     C10574   9.666  10.595   7.723  0.8114 -0.1171 -0.0826
  820MOL0     C10575   9.528  10.590   7.654  0.7363 -1.2901 -0.8143
  820MOL0     C10576   9.503  10.484   7.552 -0.0531 -0.1256  0.5089
  820MOL0     C10577   9.359  10.443   7.542  0.3407  1.0401 -0.1945
  820MOL0     C10578   9.280  10.567   7.493 -0.7203 -0.1976  0.0228
  820MOL0     C10579   9.129  10.541   7.493  0.3192 -0.5531 -0.4131
  820MOL0     C10580   9.048  10.637   7.409  0.0119 -0.3389  0.6203
  820MOL0     C10581   9.045  10.776   7.465  0.4080  0.0848  0.4953
  820MOL0     N10582   8.960  10.876   7.389  0.5335  0.6093  1.0153
  820MOL0     C10583   8.978  10.930   7.263  0.2642  0.2267  0.0464
  820MOL0     C10584   8.887  11.032   7.256  0.0701  0.3409  0.4765
  820MOL0     C10585   8.857  11.101   7.129 -0.8806  0.4032  0.4235
  820MOL0     C10586   8.982  11.168   7.060  1.1121 -0.2539 -0.6939
  820MOL0     C10587   9.019  11.106   6.932  1.0505  1.3120  1.6918
  820MOL0     C10588   9.153  11.148   6.876 -0.7195 -0.4306 -0.0052
  820MOL0     O10589   9.261  11.076   6.940 -0.2616  0.4687  0.0013
  820MOL0     C10590   9.378  11.079   6.876 -0.6835  0.7417  0.2408
  820MOL0     C10591   9.391  10.991   6.764  0.3587 -0.3531 -0.0617
  820MOL0     C10592   9.514  10.959   6.712 -0.0547 -0.2735  0.0180
  820MOL0     C10593   9.530  10.855   6.594  0.1020 -0.0428  0.8300
  820MOL0     C10594   9.624  11.026   6.769  0.6313 -0.2013  0.1268
  820MOL0     C10595   9.760  11.003   6.721 -0.2954  0.7938 -0.1999
  820MOL0     O10596   9.842  11.112   6.708 -0.8151  0.8652 -0.1861
  820MOL0     C10597   9.965  11.092   6.647  0.1453  0.2801 -0.2268
  820MOL0     C10598   9.989  11.029   6.522 -0.0265  0.2363 -0.7782
  820MOL0     C10599  10.117  11.026   6.469  0.4666  0.3345 -0.2725
  820MOL0     C10600  10.226  11.079   6.539  0.5434  0.2455 -0.2442
  820MOL0     O10601  10.355  11.058   6.509  0.0827  0.8503 -0.5478
  820MOL0     C10602  10.385  10.994   6.388  0.3455 -0.9857  0.0062
  820MOL0     C10603  10.397  10.839   6.413 -0.0579 -1.3966 -0.3682
  820MOL0     C10604  10.530  10.818   6.499  0.1759  0.1501  0.6601
  820MOL0     C10605  10.611  10.700   6.446  0.0642 -0.1120 -0.0313
  820MOL0     C10606  10.754  10.704   6.504 -0.2881 -0.0833  0.0730
  820MOL0     C10607  10.855  10.610   6.441 -1.4092 -0.1242  0.1202
  820MOL0     C10608  10.996  10.645   6.484 -0.1471  0.4439  0.3432
  820MOL0     C10609  11.108  10.570   6.418  0.2255  0.0966 -0.9110
  820MOL0    Cl10610  11.270  10.637   6.475 -0.1953 -0.3525  0.2376
  820MOL0     C10611  10.205  11.150   6.657  0.0527  0.4451 -1.1619
  820MOL0     C10612  10.077  11.155   6.716  0.9747  0.5493  0.2233
  820MOL0     O10613   9.793  10.886   6.688  0.0576  0.0035  0.3884
  820MOL0     C10614   9.609  11.132   6.861 -0.9718  0.5139  1.5673
  820MOL0     C10615   9.486  11.149   6.915  0.3496 -0.6148 -0.3384
  820MOL0     N10616   8.801  11.019   7.365 -0.1495 -0.4226  0.7331
  820MOL0     N10617   8.851  10.938   7.449 -0.2978 -0.1018  0.5843
  820MOL0     C10618   9.946  10.552   7.796 -0.8782 -0.3740 -0.5432
  820MOL0     C10619  10.084  10.567   7.845 -0.0421  0.8581  0.6934
  820MOL0     C10620  10.514  10.777   7.847  0.7110 -0.0947  0.3844
  820MOL0     C10621  10.562  10.653   7.876 -0.3238  0.4656  0.0985
  820MOL0     C10622  10.705  10.629   7.871  0.5442  0.2481  0.7094
  820MOL0     C10623  10.801  10.736   7.856 -0.4262  0.8126  0.5147
  820MOL0     O10624  10.937  10.734   7.860  1.0425  0.6711 -0.6649
  820MOL0     C10625  11.004  10.613   7.893 -0.3359 -0.8076 -0.2465
  820MOL0     C10626  11.055  10.529   7.776 -0.7095  0.6041  1.3073
  820MOL0     C10627  11.203  10.566   7.732  0.4680  0.1912  0.2393
  820MOL0     C10628  11.256  10.492   7.609 -0.1500  0.8456  0.1164
  820MOL0     C10629  11.392  10.512   7.574 -0.0799 -0.4633 -0.0540
  820MOL0     C10630  11.506  10.542   7.532 -0.3476 -0.3229 -0.6206
  820MOL0     C10631  10.742  10.858   7.829 -0.6523  0.1716 -0.0713
  820MOL0     C10632  10.603  10.880   7.826 -0.2264  0.4833 -0.5215
  820MOL0     H10633  10.179  10.782   7.597  0.0539 -0.7058 -0.5548
  820MOL0     H10634   9.964  10.782   7.542  2.5485  0.0568 -0.0479
  820MOL0     H10635   9.676  10.497   7.769 -1.0317 -3.2024 -5.4548
  820MOL0     H10636   9.664  10.676   7.797  1.0440 -0.5649  0.4234
  820MOL0     H10637   9.458  10.585   7.738  0.7473  1.7288 -0.5131
  820MOL0     H10638   9.526  10.692   7.613 -0.9865 -1.5760 -1.5118
  820MOL0     H10639   9.534  10.535   7.461  0.9538  1.6051  1.7650
  820MOL0     H10640   9.557  10.396   7.589  0.1981  0.8386  2.6148
  820MOL0     H10641   9.337  10.356   7.480  0.3512 -1.9702  3.6506
  820MOL0     H10642   9.319  10.414   7.639 -1.7561 -3.1281 -2.0261
  820MOL0     H10643   9.293  10.654   7.559 -5.6172 -0.8549  2.2916
  820MOL0     H10644   9.321  10.584   7.393  0.4532 -1.4906  0.2435
  820MOL0     H10645   9.117  10.435   7.472 -3.9412 -1.0111  3.0242
  820MOL0     H10646   9.107  10.556   7.599 -0.5337 -0.3425 -0.6163
  820MOL0     H10647   9.075  10.622   7.304 -1.9593 -2.1691  0.3167
  820MOL0     H10648   8.942  10.610   7.413 -0.4688  1.5028  1.6798
  820MOL0     H10649   9.147  10.812   7.453  0.7919 -1.7899 -3.4022
  820MOL0     H10650   9.014  10.767   7.569 -2.2181  0.0016 -0.2109
  820MOL0     H10651   9.042  10.898   7.181 -0.8830  2.1087 -1.6839
  820MOL0     H10652   8.813  11.027   7.061 -0.9944  0.0671  0.8633
  820MOL0     H10653   8.776  11.173   7.144  0.1391  2.1656 -1.7617
  820MOL0     H10654   9.073  11.172   7.120 -0.1357  4.1737  1.3937
  820MOL0     H10655   8.958  11.272   7.038 -1.0480 -0.6654 -0.4938
  820MOL0     H10656   8.941  11.133   6.860 -0.2914  2.1857  3.3957
  820MOL0     H10657   9.023  10.997   6.934  0.5306  1.0518 -2.5033
  820MOL0     H10658   9.159  11.257   6.873  1.2450 -0.4952 -0.2202
  820MOL0     H10659   9.160  11.128   6.769 -0.3018  2.8976 -0.7140
  820MOL0     H10660   9.301  10.938   6.733 -0.0626 -0.1248  0.7441
  820MOL0     H10661   9.430  10.815   6.578 -0.6393 -1.2683  6.3773
  820MOL0     H10662   9.567  10.910   6.507 -1.0189 -2.5171 -1.3208
  820MOL0     H10663   9.589  10.765   6.611 -2.3004 -1.6551  1.0056
  820MOL0     H10664   9.901  10.996   6.466 -0.4169 -0.4480  0.2061
  820MOL0     H10665  10.117  10.978   6.371  0.8587 -0.4148  0.0927
  820MOL0     H10666  10.308  11.015   6.313  2.1035  3.5229 -0.8480
  820MOL0     H10667  10.480  11.031   6.349  0.6293  0.4301  1.8679
  820MOL0     H10668  10.311  10.797   6.466 -0.4217 -1.0659 -0.6855
  820MOL0     H10669  10.400  10.790   6.315 -0.2946  2.3369 -2.3941
  820MOL0     H10670  10.520  10.804   6.607 -2.3921  0.4606  0.5184
  820MOL0     H10671  10.604  10.895   6.476 -1.8662  1.0882 -3.8788
  820MOL0     H10672  10.566  10.603   6.470 -3.3953  1.3272 -0.1855
  820MOL0     H10673  10.608  10.706   6.336  0.2903  4.1768  0.0378
  820MOL0     H10674  10.744  10.691   6.612 -4.0780 -1.3809 -0.2903
  820MOL0     H10675  10.784  10.809   6.493 -0.8938  0.0109 -0.7743
  820MOL0     H10676  10.833  10.506   6.465  1.3520 -0.8236 -0.0549
  820MOL0     H10677  10.859  10.618   6.332  1.5543  1.4194  0.2438
  820MOL0     H10678  11.021  10.634   6.590  5.1919  2.4582 -0.3985
  820MOL0     H10679  11.000  10.752   6.461 -1.9810  0.0939 -2.0767
  820MOL0     H10680  11.105  10.585   6.310  1.7807 -1.8248 -1.2612
  820MOL0     H10681  11.112  10.462   6.435  2.2942  0.1349 -0.9487
  820MOL0     H10682  10.296  11.182   6.706  1.3725 -0.0065 -3.2039
  820MOL0     H10683  10.049  11.207   6.807 -1.1594  0.4782 -0.3324
  820MOL0     H10684   9.691  11.187   6.905 -1.9289  2.3057  1.2572
  820MOL0     H10685   9.484  11.224   6.993 -1.3375  1.1135 -1.9338
  820MOL0     H10686   9.885  10.470   7.834  0.0164 -0.1939  1.3512
  820MOL0     H10687  10.126  10.505   7.924  0.2556 -1.0847 -0.9112
  820MOL0     H10688  10.498  10.566   7.891  0.5502 -0.1639  0.2893
  820MOL0     H10689  10.747  10.530   7.875 -1.2124 -0.5793 -0.1885
  820MOL0     H10690  11.095  10.646   7.945 -0.1814 -0.0205 -1.0089
  820MOL0     H10691  10.944  10.547   7.957 -1.2445  0.6827  0.4735
  820MOL0     H10692  10.990  10.555   7.692  2.3001  2.0346 -0.7687
  820MOL0     H10693  11.057  10.422   7.796  1.8745  0.6494  1.6852
  820MOL0     H10694  11.265  10.551   7.821  1.7278  0.3659 -0.5909
  820MOL0     H10695  11.202  10.672   7.705  0.7869  0.3908  0.9884
  820MOL0     H10696  11.199  10.519   7.520  0.8503 -3.2695 -1.9846
  820MOL0     H10697  11.234  10.387   7.628 -0.0936  0.8835  0.4060
  820MOL0     H10698  11.606  10.574   7.510 -0.1397 -1.6341 -1.8098
  820MOL0     H10699  10.807  10.944   7.841  0.3703 -0.3529 -1.4746
  820MOL0     H10700  10.571  10.979   7.795  2.0531  2.6226  3.1151
  821MOL0     O10701   6.963   7.691   8.010  0.1791  0.0831 -0.0765
  821MOL0     C10702   6.929   7.594   7.936  0.1814 -0.2903  0.0314
  821MOL0     O10703   6.826   7.510   7.956  0.2583  0.7690  0.2590
  821MOL0     C10704   6.738   7.537   8.062 -0.7295 -0.5111 -0.2813
  821MOL0     C10705   6.705   7.420   8.135 -0.0495  0.2674 -0.1223
  821MOL0     C10706   6.624   7.418   8.246  0.4154 -0.2441  0.4659
  821MOL0     C10707   6.572   7.543   8.290  0.0762 -0.5221  0.6050
  821MOL0     O10708   6.492   7.536   8.401 -0.3562 -0.2348  0.0978
  821MOL0     C10709   6.417   7.658   8.422 -0.1478  0.5884  0.0866
  821MOL0     C10710   6.304   7.639   8.536 -0.1100 -0.5165 -0.7331
  821MOL0     C10711   6.220   7.522   8.497  0.3969  0.2181  0.2699
  821MOL0     C10712   6.097   7.502   8.593  0.0820 -0.3337 -0.3413
  821MOL0     C10713   5.981   7.597   8.562 -0.3141 -0.4816 -0.8626
  821MOL0     C10714   5.864   7.577   8.660 -0.4065 -0.0953 -0.1413
  821MOL0     C10715   5.763   7.682   8.614  0.8237  0.3536  0.3676
  821MOL0     C10716   5.619   7.671   8.668  0.4183  0.5017  0.5127
  821MOL0     N10717   5.540   7.796   8.645 -0.0632  0.8455  0.0950
  821MOL0     C10718   5.444   7.818   8.551 -0.5765  0.5729 -0.0925
  821MOL0     C10719   5.403   7.944   8.582  0.3945  0.1373 -0.3864
  821MOL0     C10720   5.292   8.037   8.534  0.4318 -0.5242 -0.0877
  821MOL0     C10721   5.219   8.121   8.639  0.3678  0.6465 -1.2806
  821MOL0     C10722   5.132   8.034   8.735 -0.5135 -0.8220 -0.4217
  821MOL0     C10723   4.985   8.025   8.681  0.1306  0.1858 -0.8948
  821MOL0     O10724   4.901   7.981   8.793  0.2216 -0.1058  0.7797
  821MOL0     C10725   4.780   7.929   8.757 -0.3633 -0.2380 -0.3138
  821MOL0     C10726   4.734   7.814   8.822  0.4492  0.4362  0.4459
  821MOL0     C10727   4.604   7.778   8.806 -0.0436  1.5333  0.0775
  821MOL0     C10728   4.569   7.636   8.865 -0.5471 -0.1560  0.5458
  821MOL0     C10729   4.510   7.843   8.730 -0.4477 -0.6820  0.4428
  821MOL0     C10730   4.366   7.818   8.731 -0.8458 -0.0878  0.2577
  821MOL0     O10731   4.285   7.925   8.693  0.3134  0.0530  0.2483
  821MOL0     C10732   4.152   7.906   8.683 -0.1318 -0.3520  0.9817
  821MOL0     C10733   4.074   7.859   8.792  0.2558  0.4837  0.3195
  821MOL0     C10734   3.936   7.859   8.773 -0.5974  0.4819  0.4680
  821MOL0     C10735   3.876   7.902   8.651 -0.7220 -0.0691  0.8106
  821MOL0     O10736   3.737   7.913   8.635 -0.5422  0.4628  0.3893
  821MOL0     C10737   3.686   7.790   8.583  0.0036  0.7800  0.2707
  821MOL0     C10738   3.540   7.803   8.554  0.2881 -0.1128 -0.1853
  821MOL0     C10739   3.458   7.793   8.687 -0.5566  0.2069  0.0129
  821MOL0     C10740   3.310   7.750   8.670 -0.0761  0.2296 -0.4627
  821MOL0     C10741   3.225   7.779   8.795 -0.0361 -0.1919 -0.3219
  821MOL0     C10742   3.081   7.722   8.760  0.2609  0.5447 -0.2445
  821MOL0     C10743   3.003   7.727   8.890  0.7366 -0.4795  0.1214
  821MOL0     C10744   3.036   7.608   8.988  0.7760  0.1646 -0.8639
  821MOL0    Cl10745   2.924   7.474   8.946  0.3846 -0.2019 -0.1237
  821MOL0     C10746   3.958   7.943   8.544  0.2956 -1.0777  0.2830
  821MOL0     C10747   4.090   7.952   8.566  0.0432  0.6141  0.1173
  821MOL0     O10748   4.325   7.702   8.749  0.1854  0.3717  0.4904
  821MOL0     C10749   4.554   7.957   8.671  0.8491  0.7789 -0.3888
  821MOL0     C10750   4.686   7.997   8.680  0.2991  0.3004 -0.0756
  821MOL0     N10751   5.478   7.990   8.691  0.0282 -0.1189  1.2715
  821MOL0     N10752   5.556   7.898   8.729  0.9296  0.4534  0.1810
  821MOL0     C10753   6.602   7.658   8.211  0.3811  0.3662 -0.3953
  821MOL0     C10754   6.680   7.658   8.094  0.4545  0.1283  0.1377
  821MOL0     C10755   7.007   7.554   7.830  0.0297 -0.3041  0.9350
  821MOL0     C10756   6.960   7.463   7.730 -0.5252  0.3847  0.1378
  821MOL0     C10757   7.041   7.410   7.619  1.1320  0.6025 -0.9246
  821MOL0     C10758   7.171   7.453   7.606 -0.2403  0.2157  1.2690
  821MOL0     O10759   7.262   7.394   7.521 -0.5073  0.1625 -1.0272
  821MOL0     C10760   7.252   7.253   7.497 -0.4487  0.6416  0.0348
  821MOL0     C10761   7.363   7.216   7.396  0.1622  0.1825  0.7311
  821MOL0     C10762   7.503   7.198   7.454 -0.6711  0.5563 -0.9781
  821MOL0     C10763   7.539   7.315   7.549 -0.3309  0.6732  0.1392
  821MOL0     C10764   7.672   7.283   7.606 -0.6011  0.5375  0.3503
  821MOL0     C10765   7.787   7.263   7.645  0.4808 -0.0065 -0.0189
  821MOL0     C10766   7.221   7.544   7.700  0.7552 -0.0484  0.7429
  821MOL0     C10767   7.143   7.598   7.801  0.2194  0.8029 -0.4797
  821MOL0     H10768   6.743   7.328   8.091  1.3226  0.7082  0.0929
  821MOL0     H10769   6.594   7.328   8.298  1.3445 -1.6361 -1.3114
  821MOL0     H10770   6.488   7.734   8.455  0.1654 -0.1893  1.2826
  821MOL0     H10771   6.362   7.695   8.335  0.2809 -1.1648 -0.9798
  821MOL0     H10772   6.342   7.622   8.637  0.2906 -1.7066 -1.0719
  821MOL0     H10773   6.244   7.731   8.537 -1.2682 -1.1669  2.6875
  821MOL0     H10774   6.186   7.540   8.394 -1.0780  0.4566  0.7756
  821MOL0     H10775   6.281   7.432   8.508 -0.4707 -0.1749  2.1741
  821MOL0     H10776   6.059   7.400   8.582 -1.8505  0.3779 -0.5896
  821MOL0     H10777   6.132   7.524   8.694  0.5886 -1.3285 -0.2835
  821MOL0     H10778   6.011   7.701   8.574  0.8486 -0.9725  1.0742
  821MOL0     H10779   5.941   7.577   8.462 -1.3531 -0.6682 -0.4216
  821MOL0     H10780   5.826   7.476   8.647 -0.4307  0.1341 -2.1199
  821MOL0     H10781   5.885   7.598   8.765 -1.7900 -1.1672  0.3717
  821MOL0     H10782   5.798   7.776   8.657  1.0267  1.0128 -1.1670
  821MOL0     H10783   5.761   7.684   8.505  0.7887 -0.0165  0.3589
  821MOL0     H10784   5.637   7.645   8.773  0.7448 -1.2609  0.0380
  821MOL0     H10785   5.560   7.590   8.626 -0.2761  1.4964 -0.5042
  821MOL0     H10786   5.406   7.748   8.477  1.8287  0.1770 -1.0390
  821MOL0     H10787   5.339   8.117   8.475 -0.9405  0.9795  0.7644
  821MOL0     H10788   5.228   7.982   8.465  0.4550 -1.4185  0.5919
  821MOL0     H10789   5.159   8.201   8.595 -1.6379 -0.5913 -0.9214
  821MOL0     H10790   5.295   8.160   8.707 -1.3812 -0.8904  1.7677
  821MOL0     H10791   5.131   8.095   8.826 -2.1745 -0.3519 -0.7294
  821MOL0     H10792   5.178   7.938   8.757 -0.9284 -1.0271 -0.4463
  821MOL0     H10793   4.975   7.957   8.596  1.1269  1.5728 -2.1869
  821MOL0     H10794   4.949   8.123   8.649 -0.4308  0.7273  1.2766
  821MOL0     H10795   4.810   7.768   8.884  3.0238  0.3944 -2.4933
  821MOL0     H10796   4.666   7.594   8.893  0.4125  0.7669 -1.2988
  821MOL0     H10797   4.513   7.649   8.958 -0.1175 -0.7767  0.8989
  821MOL0     H10798   4.522   7.567   8.795  1.4229  0.3167 -1.3276
  821MOL0     H10799   4.121   7.823   8.883  2.4380 -2.6403 -1.8435
  821MOL0     H10800   3.872   7.824   8.853  1.2066 -1.1479  1.2775
  821MOL0     H10801   3.736   7.782   8.486 -1.4260 -0.3435 -0.4054
  821MOL0     H10802   3.700   7.709   8.656  0.5878 -0.0012 -0.6903
  821MOL0     H10803   3.522   7.905   8.518 -0.3402  0.2010  0.9626
  821MOL0     H10804   3.503   7.720   8.494  1.4656  0.1927 -1.3889
  821MOL0     H10805   3.471   7.889   8.738 -1.7698  0.6394 -0.4625
  821MOL0     H10806   3.494   7.714   8.754  1.7533  1.3667  0.2608
  821MOL0     H10807   3.270   7.815   8.592 -0.6187  2.2006  1.3802
  821MOL0     H10808   3.304   7.643   8.647 -5.3519  0.0803  0.4918
  821MOL0     H10809   3.213   7.882   8.829  0.6034 -0.5887  1.2457
  821MOL0     H10810   3.271   7.725   8.879  1.7589 -0.5746 -1.4903
  821MOL0     H10811   3.024   7.790   8.695 -1.4235 -2.1890 -1.8486
  821MOL0     H10812   3.086   7.618   8.727  2.5031  0.1189  1.2255
  821MOL0     H10813   2.896   7.719   8.869  0.0368  0.4511  2.9699
  821MOL0     H10814   3.023   7.823   8.937 -0.8201 -1.1253  2.2582
  821MOL0     H10815   3.011   7.638   9.090 -0.0775 -2.6190 -0.1732
  821MOL0     H10816   3.139   7.573   8.977  0.1040 -1.6040 -2.0927
  821MOL0     H10817   3.924   7.987   8.450  4.3136 -0.6883 -1.1677
  821MOL0     H10818   4.149   7.991   8.483 -3.0756 -1.8616 -3.6330
  821MOL0     H10819   4.481   8.012   8.612  3.3924  1.2607 -3.3795
  821MOL0     H10820   4.712   8.094   8.638 -0.2485  0.1655 -0.7445
  821MOL0     H10821   6.587   7.760   8.243  2.5945  1.7147 -3.2234
  821MOL0     H10822   6.694   7.751   8.039 -0.9051 -0.0371 -0.5413
  821MOL0     H10823   6.861   7.418   7.738  0.3826 -1.7813 -0.1531
  821MOL0     H10824   7.006   7.334   7.551 -2.2689  0.5469  0.7048
  821MOL0     H10825   7.258   7.205   7.595 -3.8977  1.0312  0.5723
  821MOL0     H10826   7.153   7.223   7.460  0.9370 -1.8925 -1.9171
  821MOL0     H10827   7.355   7.290   7.317 -2.7626 -1.0914 -0.3432
  821MOL0     H10828   7.337   7.116   7.360  2.1374 -0.0710 -0.0895
  821MOL0     H10829   7.575   7.199   7.372  1.3267  0.4645  0.6902
  821MOL0     H10830   7.518   7.102   7.503 -2.7105  1.7627  2.3310
  821MOL0     H10831   7.469   7.324   7.632 -1.7354  0.8871 -1.0198
  821MOL0     H10832   7.543   7.413   7.501  3.0910  1.0263  0.8328
  821MOL0     H10833   7.888   7.240   7.673  0.6045  0.8800  0.2942
  821MOL0     H10834   7.324   7.573   7.677  0.6988 -0.8989 -0.7254
  821MOL0     H10835   7.200   7.652   7.877 -0.9562 -0.8888  1.7223
  822MOL0     O10836  11.130   5.295   9.003 -0.1487  0.7088  0.4677
  822MOL0     C10837  11.208   5.350   8.925  0.1368  0.4114 -0.0025
  822MOL0     O10838  11.167   5.429   8.826  0.4841 -0.4588 -0.0333
  822MOL0     C10839  11.036   5.449   8.778 -1.0711  1.2387  0.1413
  822MOL0     C10840  10.932   5.348   8.779  0.4632 -0.4021  0.6894
  822MOL0     C10841  10.812   5.366   8.707 -0.0340 -0.2848  0.0813
  822MOL0     C10842  10.786   5.479   8.627  0.5846  0.0699  0.1310
  822MOL0     O10843  10.676   5.489   8.556  0.6559  0.1309  0.1752
  822MOL0     C10844  10.623   5.614   8.544 -0.3958  0.5245  0.1054
  822MOL0     C10845  10.491   5.605   8.477 -0.0658 -0.2441  0.1165
  822MOL0     C10846  10.430   5.750   8.441 -0.4304  1.3552 -0.2612
  822MOL0     C10847  10.295   5.744   8.366  0.3975  1.5496 -0.0717
  822MOL0     C10848  10.168   5.734   8.456  0.8788 -0.1136  0.1284
  822MOL0     C10849  10.142   5.851   8.550  1.3267 -0.6892  1.1867
  822MOL0     C10850  10.124   5.980   8.483  0.3363 -0.1766  1.3180
  822MOL0     C10851  10.004   6.054   8.537  0.2645 -0.6991  0.1615
  822MOL0     N10852   9.869   5.985   8.520 -0.1292  0.8394 -0.8219
  822MOL0     C10853   9.800   5.977   8.407  0.3342 -0.1413 -0.5536
  822MOL0     C10854   9.685   5.920   8.436  0.4273 -0.4541  0.2118
  822MOL0     C10855   9.568   5.922   8.348 -0.0812  0.2566 -0.3725
  822MOL0     C10856   9.448   5.848   8.413  0.1788 -0.2364 -0.4983
  822MOL0     C10857   9.342   5.846   8.305 -0.0726  0.8452 -0.5830
  822MOL0     C10858   9.218   5.754   8.331 -0.6398 -0.0651  0.2517
  822MOL0     O10859   9.155   5.763   8.456 -0.1756  0.1019 -0.1839
  822MOL0     C10860   9.041   5.695   8.484 -0.7564  0.3285  0.0734
  822MOL0     C10861   9.007   5.690   8.624 -0.0477  0.8927  0.7364
  822MOL0     C10862   8.894   5.610   8.657 -0.0807 -0.5532  0.3625
  822MOL0     C10863   8.872   5.611   8.810 -0.1983  0.3108  0.9378
  822MOL0     C10864   8.812   5.537   8.560  0.0005 -0.8253 -0.8306
  822MOL0     C10865   8.686   5.465   8.598 -0.6076  0.6090  0.4239
  822MOL0     O10866   8.605   5.512   8.697 -0.1909  0.0356  0.3340
  822MOL0     C10867   8.477   5.470   8.711 -0.1886 -0.3234 -0.5469
  822MOL0     C10868   8.439   5.419   8.834  0.6379  0.4854 -0.0583
  822MOL0     C10869   8.298   5.417   8.871  0.3147  0.4063 -0.4785
  822MOL0     C10870   8.201   5.463   8.790  0.8500 -0.3255 -0.4490
  822MOL0     O10871   8.075   5.469   8.830 -0.0464 -0.4415 -0.4719
  822MOL0     C10872   7.998   5.367   8.760 -0.2954  0.2663 -0.8727
  822MOL0     C10873   7.862   5.350   8.825 -0.3280 -0.5498  0.4293
  822MOL0     C10874   7.763   5.262   8.739  0.1534  0.5108 -0.8541
  822MOL0     C10875   7.696   5.353   8.631 -0.4150  0.7774  0.3327
  822MOL0     C10876   7.561   5.287   8.588  0.5463  0.3108  0.3410
  822MOL0     C10877   7.498   5.366   8.479 -0.5106  0.2386  0.2761
  822MOL0     C10878   7.399   5.279   8.399  0.2533 -0.3722 -0.1334
  822MOL0     C10879   7.291   5.353   8.319 -0.3722 -1.7982  0.8440
  822MOL0    Cl10880   7.200   5.451   8.436  0.1607 -0.2067  0.5794
  822MOL0     C10881   8.245   5.521   8.671 -0.4788  0.1862 -0.4685
  822MOL0     C10882   8.378   5.524   8.635  0.4621 -0.1517  0.3075
  822MOL0     O10883   8.656   5.376   8.521  0.3284 -0.1515 -0.2373
  822MOL0     C10884   8.867   5.542   8.431  0.0011 -0.2924  0.2954
  822MOL0     C10885   8.986   5.607   8.397 -1.0095 -0.1237 -0.0460
  822MOL0     N10886   9.675   5.901   8.569 -0.8108 -0.0145 -0.0579
  822MOL0     N10887   9.794   5.928   8.621  0.0997 -0.2029 -1.0912
  822MOL0     C10888  10.885   5.578   8.625 -0.5359 -0.2420  0.3172
  822MOL0     C10889  11.008   5.562   8.705 -0.0752 -0.0785  0.1990
  822MOL0     C10890  11.351   5.306   8.933  0.0321  0.0010 -0.4009
  822MOL0     C10891  11.391   5.199   9.024  0.2621 -0.8523 -0.2063
  822MOL0     C10892  11.532   5.178   9.051  0.3212  0.4717  0.8974
  822MOL0     C10893  11.625   5.238   8.975 -0.6041  0.2534  0.2391
  822MOL0     O10894  11.750   5.199   9.004  0.1308  0.5244  0.2281
  822MOL0     C10895  11.863   5.230   8.914  0.3043 -0.0813 -0.4351
  822MOL0     C10896  11.997   5.195   8.986  0.2892 -0.0615 -0.5351
  822MOL0     C10897  12.016   5.277   9.119 -0.5081  0.4044  0.6197
  822MOL0     C10898  12.138   5.235   9.203  0.6302  0.9842  0.1064
  822MOL0     C10899  12.116   5.289   9.334 -0.3309 -0.7733 -0.2522
  822MOL0     C10900  12.096   5.330   9.447 -0.1321  0.1520  0.8424
  822MOL0     C10901  11.590   5.338   8.888 -0.1577 -0.9205 -0.8338
  822MOL0     C10902  11.451   5.380   8.869 -1.1086 -0.5890 -0.2942
  822MOL0     H10903  10.953   5.255   8.829  2.7870 -1.6251 -2.2351
  822MOL0     H10904  10.740   5.284   8.708 -0.4150 -0.2498 -4.5611
  822MOL0     H10905  10.624   5.672   8.637  1.1261  0.4960  0.1308
  822MOL0     H10906  10.686   5.672   8.475  0.9828 -0.3797  0.5614
  822MOL0     H10907  10.498   5.546   8.385  2.6018 -0.3497  0.3284
  822MOL0     H10908  10.415   5.557   8.540  0.2272  0.2633  0.8666
  822MOL0     H10909  10.426   5.806   8.535 -0.7436  0.2176  0.4170
  822MOL0     H10910  10.494   5.807   8.373 -1.1640  0.2173 -1.9797
  822MOL0     H10911  10.289   5.829   8.297  0.1481  1.7675  0.2112
  822MOL0     H10912  10.292   5.653   8.305  0.7308 -2.6254  5.4022
  822MOL0     H10913  10.084   5.722   8.386  1.6856  2.7557 -1.5133
  822MOL0     H10914  10.160   5.645   8.519 -3.1511 -0.1601 -0.1832
  822MOL0     H10915  10.048   5.834   8.604  0.7065  2.0235  1.0802
  822MOL0     H10916  10.219   5.870   8.625 -0.0786  0.7317  2.3178
  822MOL0     H10917  10.213   6.043   8.472  0.1478 -0.0329  0.5159
  822MOL0     H10918  10.101   5.959   8.378 -0.4465 -0.5542  1.5610
  822MOL0     H10919  10.008   6.143   8.473  1.5302 -2.2166 -1.9943
  822MOL0     H10920  10.021   6.084   8.641 -0.4586  0.0455  0.0747
  822MOL0     H10921   9.835   6.016   8.312  2.4125 -1.8284 -0.5570
  822MOL0     H10922   9.531   6.024   8.332 -0.4959  0.4068  1.3465
  822MOL0     H10923   9.596   5.871   8.255 -1.1251 -1.0884  0.0169
  822MOL0     H10924   9.425   5.885   8.513 -0.2222 -3.0422  0.5306
  822MOL0     H10925   9.480   5.746   8.434 -2.2619 -0.7411  1.1649
  822MOL0     H10926   9.384   5.806   8.212  2.5949 -1.1474  1.3025
  822MOL0     H10927   9.303   5.947   8.291 -1.4526  0.0163 -3.2932
  822MOL0     H10928   9.262   5.655   8.320  1.9394  0.9987  0.2634
  822MOL0     H10929   9.143   5.779   8.256 -1.5997 -0.2869  1.1201
  822MOL0     H10930   9.080   5.731   8.692  2.1563 -0.0017 -0.9789
  822MOL0     H10931   8.802   5.528   8.826  3.2747 -2.7948  1.3364
  822MOL0     H10932   8.966   5.587   8.861  0.3097  0.0664 -0.1028
  822MOL0     H10933   8.837   5.710   8.839 -0.2467  0.7522 -0.5546
  822MOL0     H10934   8.516   5.386   8.903 -0.6299 -0.5251  0.9167
  822MOL0     H10935   8.270   5.386   8.971 -0.5898  0.1447 -0.7978
  822MOL0     H10936   7.990   5.386   8.653 -0.1117 -0.6587 -1.0539
  822MOL0     H10937   8.049   5.271   8.773  1.4833  0.9557 -2.3330
  822MOL0     H10938   7.883   5.312   8.925  3.4642  0.3952  0.1295
  822MOL0     H10939   7.822   5.451   8.839  0.6979 -0.2103  1.0184
  822MOL0     H10940   7.690   5.207   8.800  1.1384  0.7329  0.5791
  822MOL0     H10941   7.816   5.183   8.685  1.2797  0.8241 -0.2269
  822MOL0     H10942   7.687   5.457   8.664  2.0892  0.9144  0.7725
  822MOL0     H10943   7.755   5.353   8.539  2.9640 -1.7149  2.2826
  822MOL0     H10944   7.495   5.274   8.673 -0.1129 -2.0841 -0.4443
  822MOL0     H10945   7.582   5.190   8.541 -3.0813  0.1678 -1.3384
  822MOL0     H10946   7.459   5.460   8.519 -0.0800  1.3163 -1.6959
  822MOL0     H10947   7.568   5.394   8.399  2.4513 -2.7004  1.6292
  822MOL0     H10948   7.341   5.218   8.469  1.6010  0.1881  1.5368
  822MOL0     H10949   7.454   5.212   8.332  2.4947 -2.1467  3.1876
  822MOL0     H10950   7.227   5.287   8.260 -1.4960 -0.3532  0.4038
  822MOL0     H10951   7.348   5.421   8.255  1.9948  0.1884  4.6596
  822MOL0     H10952   8.178   5.577   8.607  1.5474  1.1649 -1.8119
  822MOL0     H10953   8.408   5.580   8.547  0.2974  1.8550  1.4593
  822MOL0     H10954   8.828   5.475   8.355  1.7939 -0.6507 -0.3770
  822MOL0     H10955   9.040   5.582   8.306 -1.3544  2.7859 -1.1644
  822MOL0     H10956  10.880   5.668   8.565  1.7511 -0.7451 -0.7321
  822MOL0     H10957  11.083   5.639   8.689 -0.3324  0.4349  1.3473
  822MOL0     H10958  11.321   5.141   9.083 -0.8106  1.3079  0.7502
  822MOL0     H10959  11.564   5.102   9.121  0.9205 -4.0627 -3.6647
  822MOL0     H10960  11.854   5.178   8.818  2.2627 -1.6706  0.1915
  822MOL0     H10961  11.868   5.335   8.882 -0.0679  0.0759  0.0201
  822MOL0     H10962  12.082   5.211   8.918  1.9250 -2.4767  0.7831
  822MOL0     H10963  12.003   5.089   9.012  1.8070  0.4608  1.4515
  822MOL0     H10964  11.933   5.255   9.187  0.2056  0.1271  1.4185
  822MOL0     H10965  12.026   5.385   9.107  2.0441  0.3588  1.5532
  822MOL0     H10966  12.229   5.269   9.153  1.0725  0.9832  0.8948
  822MOL0     H10967  12.146   5.126   9.202 -0.4153  0.8892 -1.7892
  822MOL0     H10968  12.058   5.352   9.545 -0.2250 -2.4276  1.4561
  822MOL0     H10969  11.670   5.391   8.838  1.1098 -1.6803  0.2912
  822MOL0     H10970  11.441   5.466   8.803  1.1798 -1.1652 -1.5165
  823MOL0     O10971   2.514  10.636   7.891  1.3188 -0.4018  0.8497
  823MOL0     C10972   2.507  10.743   7.945 -0.4525  0.1719  0.5384
  823MOL0     O10973   2.410  10.782   8.043  0.0691  0.1716  0.6986
  823MOL0     C10974   2.335  10.670   8.092 -0.0294 -0.3106 -0.0326
  823MOL0     C10975   2.369  10.610   8.209  0.0641 -0.3954 -0.5492
  823MOL0     C10976   2.285  10.518   8.271  0.3354 -0.6363 -0.1949
  823MOL0     C10977   2.163  10.477   8.219 -0.0536  0.5472 -0.6827
  823MOL0     O10978   2.079  10.383   8.267  0.5646  0.5740 -0.2745
  823MOL0     C10979   2.081  10.358   8.407 -0.2779  0.0591 -0.7534
  823MOL0     C10980   1.953  10.289   8.469  0.6119 -0.8806 -0.2606
  823MOL0     C10981   1.826  10.360   8.413 -0.2472  1.1935 -0.0169
  823MOL0     C10982   1.730  10.384   8.529 -0.7623  0.6887  0.4846
  823MOL0     C10983   1.586  10.419   8.482  0.8489 -0.6479  0.1291
  823MOL0     C10984   1.491  10.427   8.599  0.4277  0.5445  0.1253
  823MOL0     C10985   1.462  10.293   8.665  0.0297 -0.0928 -0.2163
  823MOL0     C10986   1.365  10.308   8.780  0.4074  0.2929  0.5686
  823MOL0     N10987   1.231  10.324   8.728 -0.5481 -0.8044  0.5093
  823MOL0     C10988   1.161  10.441   8.733 -0.2841  0.0357  0.4789
  823MOL0     C10989   1.034  10.406   8.720  0.0264  0.4329 -0.1126
  823MOL0     C10990   0.923  10.513   8.715  1.4170  0.9094  0.1991
  823MOL0     C10991   0.781  10.445   8.745  0.7088 -1.0798  0.8627
  823MOL0     C10992   0.758  10.365   8.874 -0.2029  0.4270 -0.9620
  823MOL0     C10993   0.618  10.392   8.925  0.4344  0.2382  0.1144
  823MOL0     O10994   0.507  10.354   8.832 -0.2639  0.6246  0.0734
  823MOL0     C10995   0.375  10.384   8.871  0.5317  1.4619 -0.3328
  823MOL0     C10996   0.278  10.348   8.775  0.0425 -1.5076 -0.2417
  823MOL0     C10997   0.142  10.356   8.807 -0.5976  0.7654 -0.2600
  823MOL0     C10998   0.032  10.325   8.707 -1.5117 -0.6091  0.9360
  823MOL0     C10999   0.112  10.391   8.940 -0.4215 -0.0820  0.1776
  823MOL0     C11000  -0.024  10.417   8.992 -0.1101 -0.8447 -0.6681
  823MOL0     O11001  -0.111  10.310   9.003  0.1557  0.4200 -0.0660
  823MOL0     C11002  -0.249  10.331   9.015  0.4057 -1.4786 -0.2116
  823MOL0     C11003  -0.339  10.264   8.933  0.8145  0.1629 -0.3764
  823MOL0     C11004  -0.475  10.302   8.947 -0.0040  0.3126  0.9710
  823MOL0     C11005  -0.520  10.397   9.036  0.5232  0.2447  0.3294
  823MOL0     O11006  -0.653  10.423   9.052 -0.1011  0.3507 -0.5150
  823MOL0     C11007  -0.702  10.485   9.170 -0.2781  0.2812  0.3951
  823MOL0     C11008  -0.848  10.524   9.154  0.1286 -0.1404 -0.2962
  823MOL0     C11009  -0.959  10.414   9.123 -0.0159 -1.3198 -0.3708
  823MOL0     C11010  -1.099  10.482   9.101 -0.4757  0.9113  0.1973
  823MOL0     C11011  -1.205  10.376   9.081 -0.6011  0.2067  0.4106
  823MOL0     C11012  -1.336  10.430   9.112  0.7231  0.1976 -0.4872
  823MOL0     C11013  -1.443  10.352   9.054 -0.0679 -0.1858  0.8950
  823MOL0     C11014  -1.572  10.429   9.059 -0.0776 -0.3164 -0.7345
  823MOL0    Cl11015  -1.717  10.337   8.997  0.0223  0.2857  0.1064
  823MOL0     C11016  -0.426  10.466   9.111 -0.4531  0.0546 -0.2172
  823MOL0     C11017  -0.294  10.430   9.104  0.0389  0.3941 -0.4323
  823MOL0     O11018  -0.050  10.536   9.007 -0.4614 -0.0457 -0.8520
  823MOL0     C11019   0.200  10.416   9.044 -0.0095  0.1573  0.2092
  823MOL0     C11020   0.335  10.425   9.002 -0.1575 -0.1570  0.6817
  823MOL0     N11021   1.028  10.265   8.699 -0.3892 -0.3985 -0.3561
  823MOL0     N11022   1.145  10.221   8.693  0.1946 -0.4604  0.3824
  823MOL0     C11023   2.127  10.536   8.098  0.7368  0.1130  0.9199
  823MOL0     C11024   2.205  10.638   8.038 -0.5644  0.6837 -0.1806
  823MOL0     C11025   2.617  10.832   7.904 -0.2985 -0.0536  0.0298
  823MOL0     C11026   2.634  10.964   7.958 -0.1146  0.0457 -0.4920
  823MOL0     C11027   2.735  11.043   7.897  0.1501  0.2900 -0.3046
  823MOL0     C11028   2.837  10.997   7.814  0.5811 -0.4282 -0.0706
  823MOL0     O11029   2.936  11.098   7.792  0.9495  0.8794 -0.6413
  823MOL0     C11030   3.047  11.058   7.715  0.1446  0.6030  0.0309
  823MOL0     C11031   3.151  10.991   7.814 -0.0476 -0.0966 -0.1043
  823MOL0     C11032   3.193  11.086   7.924  0.3756 -0.1501  0.4566
  823MOL0     C11033   3.235  11.016   8.053  1.0599  0.0343 -0.3789
  823MOL0     C11034   3.364  10.943   8.014 -0.3979 -0.2525  0.2326
  823MOL0     C11035   3.469  10.895   7.979  0.0520 -0.4408 -0.2252
  823MOL0     C11036   2.820  10.871   7.770 -0.3184  0.4943  0.1060
  823MOL0     C11037   2.718  10.789   7.811  0.2038 -0.9460  0.9757
  823MOL0     H11038   2.467  10.634   8.248  0.0729 -0.8964 -0.2435
  823MOL0     H11039   2.313  10.471   8.365 -3.0210 -1.5470  0.4920
  823MOL0     H11040   2.162  10.289   8.431 -1.2501 -0.4403  1.3173
  823MOL0     H11041   2.113  10.453   8.450  2.2032 -1.8611  2.0182
  823MOL0     H11042   1.946  10.186   8.433 -0.2356 -1.6098  1.8105
  823MOL0     H11043   1.956  10.307   8.577  0.7369  1.8760 -0.6453
  823MOL0     H11044   1.846  10.455   8.363  3.1363 -0.0658 -1.3714
  823MOL0     H11045   1.777  10.284   8.351  1.5208 -0.1606  0.1512
  823MOL0     H11046   1.721  10.290   8.584  4.3768 -1.4639 -1.6809
  823MOL0     H11047   1.776  10.459   8.594  2.0279  0.4495 -1.0509
  823MOL0     H11048   1.593  10.510   8.422  0.4441 -0.3673  0.5020
  823MOL0     H11049   1.548  10.336   8.421  3.5433 -2.9800  1.3533
  823MOL0     H11050   1.531  10.493   8.677  0.5633  0.5239  0.0719
  823MOL0     H11051   1.394  10.469   8.569  1.3830  2.9685  0.2090
  823MOL0     H11052   1.424  10.212   8.602  1.3095 -0.1514 -0.9704
  823MOL0     H11053   1.551  10.255   8.716  0.5221 -0.5723 -1.3960
  823MOL0     H11054   1.393  10.397   8.838 -0.0642  1.7759 -1.3427
  823MOL0     H11055   1.364  10.225   8.850 -0.1160  0.3859  0.6763
  823MOL0     H11056   1.206  10.536   8.760  1.0300 -1.0551  2.4356
  823MOL0     H11057   0.942  10.588   8.792  0.9627 -1.0124  2.2985
  823MOL0     H11058   0.930  10.562   8.618  2.6000  2.7027  1.1339
  823MOL0     H11059   0.741  10.389   8.660 -1.3672  1.3535  0.0941
  823MOL0     H11060   0.713  10.531   8.743 -0.6787 -2.1521  0.7291
  823MOL0     H11061   0.814  10.403   8.960 -2.0516  2.3596 -0.5233
  823MOL0     H11062   0.775  10.259   8.853  0.1210  0.0174  1.1483
  823MOL0     H11063   0.623  10.497   8.956  0.4890  0.8644 -1.8850
  823MOL0     H11064   0.607  10.328   9.013 -0.9234 -1.5582 -1.2957
  823MOL0     H11065   0.299  10.298   8.681  2.4337  3.0513 -2.4715
  823MOL0     H11066   0.083  10.321   8.611  0.4466 -1.5088  1.9406
  823MOL0     H11067  -0.016  10.232   8.737 -2.0677 -0.7139 -0.2505
  823MOL0     H11068  -0.047  10.401   8.699 -1.5332 -0.8455 -2.3810
  823MOL0     H11069  -0.309  10.178   8.874 -2.0376 -2.1034  1.1756
  823MOL0     H11070  -0.551  10.243   8.897 -2.0108  2.9797  0.6448
  823MOL0     H11071  -0.689  10.416   9.254 -2.8284  1.4864  1.8910
  823MOL0     H11072  -0.636  10.568   9.197  2.8333 -1.8627 -0.0632
  823MOL0     H11073  -0.879  10.587   9.238 -1.2030 -0.2312 -0.6945
  823MOL0     H11074  -0.849  10.602   9.077 -2.4610 -0.5162 -0.7425
  823MOL0     H11075  -0.972  10.360   9.216  1.2043 -3.0280 -1.1394
  823MOL0     H11076  -0.929  10.339   9.048  3.8342  3.6178 -4.6055
  823MOL0     H11077  -1.131  10.548   9.182 -2.2904 -0.3081  0.5306
  823MOL0     H11078  -1.084  10.539   9.008  2.6199 -0.3752 -0.2147
  823MOL0     H11079  -1.188  10.285   9.139  2.0471  1.4302  1.7161
  823MOL0     H11080  -1.206  10.360   8.972  0.5646 -1.8139  0.6383
  823MOL0     H11081  -1.346  10.442   9.220  0.1163  0.1275 -0.5309
  823MOL0     H11082  -1.348  10.527   9.063  0.1296  0.2599 -0.2285
  823MOL0     H11083  -1.461  10.258   9.107 -0.3857  1.2469  3.5115
  823MOL0     H11084  -1.414  10.329   8.951  0.3781 -0.9480  1.1860
  823MOL0     H11085  -1.563  10.514   8.991  4.1414  0.0500  0.0248
  823MOL0     H11086  -1.596  10.466   9.158 -1.9457 -1.0807 -0.8683
  823MOL0     H11087  -0.458  10.553   9.167 -1.1474 -1.1214  1.2964
  823MOL0     H11088  -0.219  10.483   9.163  1.3612  1.2854 -2.7521
  823MOL0     H11089   0.170  10.441   9.145  0.5793 -1.3952  0.8094
  823MOL0     H11090   0.410  10.435   9.079  0.7423 -1.7943  0.0736
  823MOL0     H11091   2.034  10.512   8.049  0.0439  0.9622  1.7990
  823MOL0     H11092   2.167  10.681   7.946  0.7855  3.0599  0.2969
  823MOL0     H11093   2.574  10.999   8.042 -0.0354 -2.8397  0.8846
  823MOL0     H11094   2.760  11.144   7.930 -0.1001  1.4944 -3.5142
  823MOL0     H11095   3.016  10.994   7.632 -0.7575  0.3848  0.5173
  823MOL0     H11096   3.094  11.148   7.674  0.6337  0.4636  0.2727
  823MOL0     H11097   3.238  10.950   7.762 -0.8723 -0.5669 -1.1647
  823MOL0     H11098   3.093  10.907   7.852  0.1079 -0.8618 -1.4817
  823MOL0     H11099   3.106  11.147   7.949  0.4962  0.0688  0.3507
  823MOL0     H11100   3.278  11.149   7.894  3.4895 -1.9906  4.4204
  823MOL0     H11101   3.161  10.943   8.087 -0.4414  1.2394 -0.9632
  823MOL0     H11102   3.236  11.087   8.136  1.3518  2.1452 -2.1175
  823MOL0     H11103   3.565  10.868   7.940 -1.0271  0.0821 -3.6065
  823MOL0     H11104   2.907  10.829   7.719 -1.5210 -2.8431  0.5203
  823MOL0     H11105   2.714  10.690   7.767 -1.3857 -0.8202  0.7661
  824MOL0     O11106   2.910   4.580   6.451 -0.9844  0.0628  0.2159
  824MOL0     C11107   3.005   4.586   6.370  0.3644 -0.3920 -0.3299
  824MOL0     O11108   2.995   4.647   6.256 -0.6075  0.2677  0.4511
  824MOL0     C11109   2.893   4.729   6.222 -0.3195 -0.2947  0.2521
  824MOL0     C11110   2.839   4.816   6.319 -0.4485  0.5970  0.2153
  824MOL0     C11111   2.737   4.907   6.276 -0.4284  0.7246  0.0777
  824MOL0     C11112   2.692   4.909   6.147 -0.7977  0.0654 -0.0550
  824MOL0     O11113   2.604   5.008   6.119 -0.7663  0.1497  0.4359
  824MOL0     C11114   2.557   5.027   5.983 -0.4818  0.3266 -0.9276
  824MOL0     C11115   2.477   5.154   5.989 -0.0117  0.7377 -0.6970
  824MOL0     C11116   2.341   5.131   6.047 -0.3203  0.3035  0.4127
  824MOL0     C11117   2.284   5.258   6.109  0.1518 -0.3048 -0.2717
  824MOL0     C11118   2.137   5.236   6.128  0.6011  0.0591 -0.0260
  824MOL0     C11119   2.049   5.357   6.180 -0.5418  0.5083 -0.0155
  824MOL0     C11120   2.063   5.483   6.090  0.5703  0.4602  0.0656
  824MOL0     C11121   1.928   5.556   6.077 -0.0797  0.4951  0.7018
  824MOL0     N11122   1.894   5.617   6.204  0.5008 -0.1006  0.0383
  824MOL0     C11123   1.768   5.673   6.222  0.0765  0.1162  1.3822
  824MOL0     C11124   1.781   5.750   6.325  1.5417 -0.1287 -0.8572
  824MOL0     C11125   1.668   5.811   6.402  0.5850 -0.6911 -0.6956
  824MOL0     C11126   1.597   5.925   6.323  0.0627  0.0238 -0.0917
  824MOL0     C11127   1.479   5.978   6.405  1.0384  0.5491  0.1225
  824MOL0     C11128   1.399   6.071   6.323 -0.8100 -0.4105  0.3637
  824MOL0     O11129   1.303   6.127   6.414  0.5092 -0.0860 -0.5725
  824MOL0     C11130   1.199   6.205   6.361 -0.3013  0.1152 -0.0308
  824MOL0     C11131   1.098   6.248   6.442  0.3448  0.9771  0.0934
  824MOL0     C11132   1.005   6.345   6.407  0.2387 -0.6675  0.2368
  824MOL0     C11133   0.914   6.392   6.528 -0.4546 -0.7019  1.5036
  824MOL0     C11134   0.996   6.393   6.270 -0.5825 -0.9845  0.0570
  824MOL0     C11135   0.885   6.483   6.222 -0.3722  0.7329  0.0061
  824MOL0     O11136   0.764   6.471   6.294 -0.6486  0.1006 -0.2051
  824MOL0     C11137   0.667   6.559   6.270 -0.0753 -0.4641 -0.1068
  824MOL0     C11138   0.643   6.658   6.358 -0.1336  0.2003 -0.1878
  824MOL0     C11139   0.543   6.758   6.326 -0.3309 -0.0732 -0.0175
  824MOL0     C11140   0.470   6.748   6.205  0.4349 -0.6112 -0.3309
  824MOL0     O11141   0.367   6.825   6.162 -0.1904  0.0987  0.9655
  824MOL0     C11142   0.347   6.946   6.244  0.1675 -0.5528  1.0187
  824MOL0     C11143   0.226   7.032   6.187 -0.1131 -0.1386  0.1737
  824MOL0     C11144   0.089   6.967   6.206 -0.5285  0.5632  0.4214
  824MOL0     C11145  -0.027   7.016   6.109 -0.0454 -0.0722 -1.0150
  824MOL0     C11146  -0.158   6.949   6.143 -0.2262 -0.3279  1.2227
  824MOL0     C11147  -0.230   7.016   6.263  1.0377 -0.6810  0.9022
  824MOL0     C11148  -0.362   6.938   6.296  1.3127 -0.8151  0.7184
  824MOL0     C11149  -0.356   6.822   6.391  0.1100  1.0556  0.3302
  824MOL0    Cl11150  -0.517   6.750   6.426 -0.3053  0.2434  0.1258
  824MOL0     C11151   0.501   6.651   6.115 -0.5391  0.6333 -0.3183
  824MOL0     C11152   0.599   6.559   6.149 -0.1295  0.9359  0.1531
  824MOL0     O11153   0.906   6.552   6.123  0.2294  0.1471 -0.1056
  824MOL0     C11154   1.093   6.337   6.185  0.0721  0.0665  0.3690
  824MOL0     C11155   1.191   6.243   6.225 -0.5212  0.7163 -0.0364
  824MOL0     N11156   1.912   5.748   6.369  0.4316 -0.3270  0.6371
  824MOL0     N11157   1.983   5.668   6.296 -0.9883  0.3299  0.2430
  824MOL0     C11158   2.736   4.814   6.053  0.5801 -0.0704  0.5833
  824MOL0     C11159   2.844   4.733   6.092  0.1902  0.2015  0.4102
  824MOL0     C11160   3.134   4.531   6.405 -0.8287  0.6546 -0.3647
  824MOL0     C11161   3.153   4.464   6.529 -0.0374 -0.7824  0.3495
  824MOL0     C11162   3.279   4.412   6.558  0.5759  0.5782 -0.6294
  824MOL0     C11163   3.385   4.433   6.481 -0.5996 -0.0004 -0.2502
  824MOL0     O11164   3.516   4.392   6.517 -0.2978 -0.9758  0.4719
  824MOL0     C11165   3.537   4.291   6.616  1.0717 -0.2672  0.6225
  824MOL0     C11166   3.643   4.199   6.554  0.3372  0.0306 -0.0653
  824MOL0     C11167   3.787   4.247   6.569  0.3617 -0.2781 -0.6187
  824MOL0     C11168   3.880   4.130   6.538 -0.0755 -0.1038  0.8550
  824MOL0     C11169   3.911   4.043   6.658  0.4633  0.3135  0.7250
  824MOL0     C11170   3.955   3.967   6.744 -0.5896  0.8845  0.4729
  824MOL0     C11171   3.363   4.492   6.360 -0.9085 -0.1119  0.1426
  824MOL0     C11172   3.245   4.549   6.324 -0.2769 -0.3709  0.9036
  824MOL0     H11173   2.875   4.819   6.422 -0.7939 -1.4240  0.4237
  824MOL0     H11174   2.710   4.987   6.345  1.1869  4.0355 -2.8418
  824MOL0     H11175   2.642   5.034   5.914  0.5076 -2.0024 -0.0570
  824MOL0     H11176   2.500   4.937   5.962 -2.2214  0.1924  3.3937
  824MOL0     H11177   2.538   5.224   6.047  0.7333  0.1246 -0.7247
  824MOL0     H11178   2.464   5.198   5.889  1.3929  3.8781  0.3839
  824MOL0     H11179   2.275   5.090   5.970  0.0357  2.3570 -1.0684
  824MOL0     H11180   2.339   5.054   6.124 -1.3113  2.7463  3.0342
  824MOL0     H11181   2.338   5.288   6.199  0.0586 -2.4789  0.5726
  824MOL0     H11182   2.297   5.343   6.041 -2.4601  0.6004  0.2272
  824MOL0     H11183   2.087   5.190   6.041 -0.6791 -2.2359  1.7913
  824MOL0     H11184   2.134   5.159   6.205  0.2122  0.6176  0.5201
  824MOL0     H11185   1.943   5.328   6.184 -0.2780 -0.4060  0.6526
  824MOL0     H11186   2.064   5.394   6.281 -1.5551 -1.0870  0.7625
  824MOL0     H11187   2.133   5.547   6.144  1.5204 -1.0546  0.6914
  824MOL0     H11188   2.106   5.459   5.992  2.4818  3.3779  0.0806
  824MOL0     H11189   1.847   5.492   6.039  0.4226 -0.1543  0.7222
  824MOL0     H11190   1.925   5.627   5.994 -0.6361 -1.7595 -1.3244
  824MOL0     H11191   1.672   5.654   6.174 -0.3879  2.4763  1.2698
  824MOL0     H11192   1.600   5.732   6.435 -0.7421 -0.1453 -2.0122
  824MOL0     H11193   1.704   5.871   6.486  2.1283 -1.9228 -0.4261
  824MOL0     H11194   1.570   5.891   6.222  0.2007 -1.0851  0.2261
  824MOL0     H11195   1.662   6.011   6.306  1.7442 -0.8507  1.5850
  824MOL0     H11196   1.512   6.030   6.495  0.0048  1.6023 -0.0922
  824MOL0     H11197   1.414   5.893   6.430  1.7756 -1.0706 -2.9291
  824MOL0     H11198   1.337   6.020   6.248  0.1216  0.2408 -0.8774
  824MOL0     H11199   1.464   6.149   6.283  2.0659 -2.4132  0.7806
  824MOL0     H11200   1.116   6.211   6.542  2.5644 -0.9577 -0.9125
  824MOL0     H11201   0.890   6.499   6.531 -2.9945 -1.1996  1.2297
  824MOL0     H11202   0.823   6.333   6.538 -0.5973 -0.6097  0.8287
  824MOL0     H11203   0.960   6.371   6.625  0.4840 -0.5775  1.0945
  824MOL0     H11204   0.698   6.668   6.451  2.5491 -0.7972 -1.5803
  824MOL0     H11205   0.531   6.842   6.394 -0.2454 -0.0380 -0.0465
  824MOL0     H11206   0.334   6.923   6.350 -3.7313 -0.5412  0.7129
  824MOL0     H11207   0.433   7.013   6.241  0.2427 -0.6357 -1.9396
  824MOL0     H11208   0.242   7.126   6.240 -0.8597  0.2175 -0.2101
  824MOL0     H11209   0.258   7.064   6.087  3.4930  2.3462  1.9111
  824MOL0     H11210   0.058   6.986   6.309  1.2581  3.6104  0.5211
  824MOL0     H11211   0.116   6.861   6.194  1.2630  1.0224  0.0967
  824MOL0     H11212  -0.048   7.123   6.106 -2.0853 -0.4028  0.1018
  824MOL0     H11213  -0.004   6.974   6.010 -0.9053 -0.6185 -0.9953
  824MOL0     H11214  -0.143   6.846   6.178 -3.2801 -1.0286  0.7585
  824MOL0     H11215  -0.216   6.935   6.051 -0.9754  1.3069  1.4129
  824MOL0     H11216  -0.155   7.022   6.344  1.6811  0.0781  0.2609
  824MOL0     H11217  -0.242   7.121   6.236 -1.4173 -1.0435  0.4200
  824MOL0     H11218  -0.419   6.896   6.213 -1.7120 -0.9260  2.6872
  824MOL0     H11219  -0.435   7.009   6.336 -0.5582 -0.9328 -2.2566
  824MOL0     H11220  -0.302   6.850   6.482  0.4010  1.5002  0.0275
  824MOL0     H11221  -0.296   6.740   6.350 -0.3023  0.0887  1.6012
  824MOL0     H11222   0.453   6.640   6.018  1.7629 -1.0243 -1.3695
  824MOL0     H11223   0.624   6.482   6.077  0.2076  0.2174  1.0152
  824MOL0     H11224   1.099   6.365   6.080  3.3027 -0.6378  0.2547
  824MOL0     H11225   1.253   6.203   6.145 -1.1153  3.3470 -1.9434
  824MOL0     H11226   2.700   4.820   5.951 -0.8777  2.0187  1.1441
  824MOL0     H11227   2.888   4.659   6.027 -1.1409 -1.0704  0.8985
  824MOL0     H11228   3.074   4.453   6.602 -2.1649  1.7333 -1.4268
  824MOL0     H11229   3.282   4.384   6.663 -1.8244 -0.2527 -0.7291
  824MOL0     H11230   3.576   4.333   6.709 -0.7298 -0.1717  1.3763
  824MOL0     H11231   3.449   4.230   6.638 -0.1263  1.2092  0.0538
  824MOL0     H11232   3.616   4.184   6.449 -2.4157 -1.0283  0.7040
  824MOL0     H11233   3.635   4.104   6.609  0.5006 -0.3385 -0.6738
  824MOL0     H11234   3.811   4.293   6.666  0.5878 -0.4682 -0.5847
  824MOL0     H11235   3.797   4.331   6.500  0.6574 -0.1755 -0.4549
  824MOL0     H11236   3.981   4.163   6.513  0.4455 -1.2549  1.3667
  824MOL0     H11237   3.839   4.074   6.454 -0.7094  0.1156  1.0128
  824MOL0     H11238   4.020   3.916   6.812  1.3074  2.7120  0.1322
  824MOL0     H11239   3.445   4.499   6.288 -0.4515 -0.0933  0.6580
  824MOL0     H11240   3.226   4.602   6.231  1.5755 -2.2569 -0.6462
  825MOL0     O11241   9.608   0.408   2.944 -0.7833 -0.1150  0.2694
  825MOL0     C11242   9.658   0.462   3.041 -1.0943  0.1338 -0.5881
  825MOL0     O11243   9.615   0.582   3.100  0.0350 -0.3411 -0.3855
  825MOL0     C11244   9.493   0.628   3.065  0.1329 -0.4301  0.3380
  825MOL0     C11245   9.373   0.565   3.109 -0.0748  0.1309  0.0012
  825MOL0     C11246   9.253   0.630   3.082  0.5997  0.2649 -0.1287
  825MOL0     C11247   9.237   0.749   3.007  0.2700 -0.0930  1.0560
  825MOL0     O11248   9.114   0.806   2.996  0.7465  0.3248 -0.2351
  825MOL0     C11249   9.110   0.941   2.962  0.8733  0.1491  0.5147
  825MOL0     C11250   8.970   1.009   2.968  0.4692 -0.4849 -0.0022
  825MOL0     C11251   8.875   0.927   2.870 -0.9594  0.9218  1.0483
  825MOL0     C11252   8.744   0.992   2.856 -0.1236  0.0742 -0.3628
  825MOL0     C11253   8.655   0.915   2.751 -0.1585 -0.4726 -0.0378
  825MOL0     C11254   8.516   0.970   2.761  0.5063 -0.2957  0.6645
  825MOL0     C11255   8.411   0.895   2.672  0.0785  0.2294 -0.2728
  825MOL0     C11256   8.427   0.911   2.521  0.1150 -0.8836 -0.5654
  825MOL0     N11257   8.313   0.852   2.445 -0.3685 -0.5226  0.3259
  825MOL0     C11258   8.212   0.792   2.507 -0.3177  0.1843  0.1396
  825MOL0     C11259   8.144   0.734   2.410 -0.0657 -0.8474  0.1332
  825MOL0     C11260   8.026   0.638   2.433  0.0440 -1.3321 -0.2690
  825MOL0     C11261   7.918   0.726   2.489 -0.8808 -0.6404  0.3919
  825MOL0     C11262   7.796   0.624   2.500 -1.2372  0.4416  0.0220
  825MOL0     C11263   7.669   0.703   2.543 -0.2354  0.9668 -0.4274
  825MOL0     O11264   7.681   0.721   2.691 -0.0574  0.1577  0.3917
  825MOL0     C11265   7.565   0.758   2.755 -0.7739 -0.3967  0.4442
  825MOL0     C11266   7.577   0.753   2.893 -0.3686  0.1305 -0.1773
  825MOL0     C11267   7.469   0.771   2.981  0.9625  0.3154 -0.0662
  825MOL0     C11268   7.498   0.744   3.129  0.5036 -0.8123  0.4725
  825MOL0     C11269   7.341   0.809   2.927  0.3892  0.2304 -0.0313
  825MOL0     C11270   7.223   0.848   3.014 -0.2548  0.6710 -0.6727
  825MOL0     O11271   7.117   0.888   2.945 -0.5982  0.3999  0.1485
  825MOL0     C11272   6.999   0.895   3.012 -0.4533  0.1988 -0.2818
  825MOL0     C11273   6.924   1.006   3.002  0.8341 -0.6437  1.2266
  825MOL0     C11274   6.790   1.007   3.035  0.3364 -0.6549 -0.1709
  825MOL0     C11275   6.733   0.899   3.097  0.8248  0.4391 -0.0052
  825MOL0     O11276   6.597   0.881   3.130 -0.2842  0.2864 -0.2518
  825MOL0     C11277   6.504   0.935   3.030 -0.7359  0.8827  0.6608
  825MOL0     C11278   6.373   0.929   3.117 -0.4400 -0.1428  0.1776
  825MOL0     C11279   6.253   0.945   3.021 -0.6232 -0.2767  0.1603
  825MOL0     C11280   6.121   0.921   3.081 -0.9005  0.2110  0.1155
  825MOL0     C11281   6.022   0.946   2.967  1.0125  0.5363 -0.1857
  825MOL0     C11282   5.883   0.952   3.024 -0.3582  0.3337 -0.2127
  825MOL0     C11283   5.790   0.954   2.907  0.8153 -0.1099 -0.0873
  825MOL0     C11284   5.639   0.959   2.941 -0.2213  0.5949  0.4444
  825MOL0    Cl11285   5.604   1.071   3.073 -0.3017  0.2499 -0.1689
  825MOL0     C11286   6.809   0.781   3.111 -1.1205 -1.1290 -0.3727
  825MOL0     C11287   6.943   0.777   3.061 -0.5786 -0.1827 -0.2393
  825MOL0     O11288   7.222   0.830   3.138  0.1588 -0.5436 -0.2131
  825MOL0     C11289   7.340   0.837   2.784  1.0301  0.2173 -0.3297
  825MOL0     C11290   7.448   0.811   2.702 -0.0005  0.6030  0.5543
  825MOL0     N11291   8.202   0.762   2.291 -0.5780 -0.5932  0.2864
  825MOL0     N11292   8.302   0.840   2.312  0.1433  0.3277  0.0921
  825MOL0     C11293   9.361   0.804   2.950 -0.0290  0.5104  0.1283
  825MOL0     C11294   9.482   0.745   2.990  0.7562  0.2793  0.7431
  825MOL0     C11295   9.770   0.387   3.104 -0.3009  0.0680 -0.7224
  825MOL0     C11296   9.848   0.307   3.025 -0.5660  0.6050  0.0478
  825MOL0     C11297   9.968   0.248   3.076 -0.2851  0.8576  0.6153
  825MOL0     C11298  10.014   0.272   3.206  0.4906  0.0219 -0.2220
  825MOL0     O11299  10.126   0.222   3.262 -0.1824 -0.0751  0.1217
  825MOL0     C11300  10.230   0.199   3.171  0.3831 -0.0856  0.2970
  825MOL0     C11301  10.369   0.161   3.234  0.0335  0.4247  0.7986
  825MOL0     C11302  10.416   0.254   3.344  0.6267 -0.4846  0.0900
  825MOL0     C11303  10.552   0.231   3.404 -0.6656  0.0343  0.3194
  825MOL0     C11304  10.563   0.102   3.476 -0.2145  0.2886  0.6511
  825MOL0     C11305  10.577   0.002   3.535 -0.3347  0.1701  0.2792
  825MOL0     C11306   9.936   0.354   3.293  0.0425 -0.1233  0.0257
  825MOL0     C11307   9.817   0.413   3.235 -0.3194 -0.5845 -0.3071
  825MOL0     H11308   9.388   0.467   3.155  1.2529 -0.7470 -2.1571
  825MOL0     H11309   9.170   0.570   3.119  1.8594  0.1956  2.8570
  825MOL0     H11310   9.172   1.002   3.028 -0.0451  0.6793  0.9073
  825MOL0     H11311   9.141   0.955   2.858 -0.7659 -0.3424 -0.0702
  825MOL0     H11312   8.930   1.017   3.069  0.3640  0.7248 -0.1229
  825MOL0     H11313   8.970   1.111   2.928  2.0279 -1.5236 -2.9987
  825MOL0     H11314   8.920   0.915   2.771 -0.7601  1.5572  1.0589
  825MOL0     H11315   8.858   0.826   2.910  0.7171 -0.2231 -0.8852
  825MOL0     H11316   8.690   0.991   2.951  0.7932  3.3029  0.3042
  825MOL0     H11317   8.751   1.097   2.828  0.4437 -0.4309 -2.3049
  825MOL0     H11318   8.704   0.938   2.656  2.5620  0.8182  1.5512
  825MOL0     H11319   8.657   0.805   2.744 -0.9313 -0.3970 -2.1018
  825MOL0     H11320   8.479   0.959   2.863 -3.3830 -2.7957 -0.8123
  825MOL0     H11321   8.517   1.075   2.732 -1.8238 -0.1272  1.0445
  825MOL0     H11322   8.385   0.794   2.705 -0.9390  1.5825  3.7551
  825MOL0     H11323   8.322   0.953   2.699  0.4829  0.9606 -0.4939
  825MOL0     H11324   8.530   0.883   2.499  1.5697  1.9147  1.8943
  825MOL0     H11325   8.418   1.020   2.514  1.0928 -0.8140 -0.8368
  825MOL0     H11326   8.190   0.776   2.612 -1.2087 -2.9410 -0.4135
  825MOL0     H11327   8.004   0.584   2.340 -2.3499 -0.4491 -0.2907
  825MOL0     H11328   8.052   0.561   2.507 -0.3947 -2.5284 -1.3199
  825MOL0     H11329   7.911   0.813   2.424  1.1893  1.3016  2.5940
  825MOL0     H11330   7.952   0.753   2.589  0.8634 -0.6611 -0.1651
  825MOL0     H11331   7.815   0.556   2.583 -2.8918  0.7839  0.7177
  825MOL0     H11332   7.778   0.566   2.408 -0.8696 -1.7624  1.2729
  825MOL0     H11333   7.582   0.638   2.533  0.0687  0.6942 -1.3794
  825MOL0     H11334   7.653   0.805   2.506 -1.2217  3.3970  5.6173
  825MOL0     H11335   7.667   0.721   2.945  0.1022 -0.4048 -1.2742
  825MOL0     H11336   7.503   0.837   3.186  2.0612  0.7194 -1.9734
  825MOL0     H11337   7.418   0.684   3.174 -0.7515  0.1079 -0.4708
  825MOL0     H11338   7.590   0.687   3.149  1.7973  2.0068  3.5109
  825MOL0     H11339   6.951   1.097   2.949 -2.3608 -0.6997 -0.7357
  825MOL0     H11340   6.726   1.092   3.013  1.4471 -0.2975 -2.2519
  825MOL0     H11341   6.520   1.039   2.998 -1.0677  1.2647  1.6926
  825MOL0     H11342   6.499   0.879   2.936  3.1621  1.1342  0.1381
  825MOL0     H11343   6.368   0.838   3.177  0.4102  1.8753  3.6228
  825MOL0     H11344   6.374   1.013   3.188  0.5362  0.1887 -0.2044
  825MOL0     H11345   6.276   0.874   2.940  0.7756 -0.2437  0.5119
  825MOL0     H11346   6.259   1.049   2.989  0.4698  0.2129  1.8513
  825MOL0     H11347   6.118   0.816   3.114 -0.6916  0.9346  2.6960
  825MOL0     H11348   6.121   0.987   3.168 -0.4024  0.0856  0.2132
  825MOL0     H11349   6.025   0.865   2.894  1.5833 -1.6904  2.1588
  825MOL0     H11350   6.049   1.042   2.921  1.2342  0.5203 -0.0910
  825MOL0     H11351   5.862   0.864   3.085 -0.7986  0.9641  0.5821
  825MOL0     H11352   5.870   1.035   3.095  1.1174 -1.9474  2.9283
  825MOL0     H11353   5.798   0.870   2.838  3.9942 -1.1230  1.2999
  825MOL0     H11354   5.814   1.042   2.848  1.1032 -1.1260 -1.5367
  825MOL0     H11355   5.600   0.859   2.963 -0.2388  0.5688  0.2954
  825MOL0     H11356   5.578   0.984   2.854  1.8453  2.8332 -0.4844
  825MOL0     H11357   6.766   0.694   3.158  0.4871  0.2565  4.2926
  825MOL0     H11358   7.000   0.685   3.064  2.7121  1.7181  0.7775
  825MOL0     H11359   7.246   0.866   2.737  1.3995 -2.4679 -2.9908
  825MOL0     H11360   7.446   0.838   2.597 -0.5018  3.4571  1.2116
  825MOL0     H11361   9.362   0.884   2.875  0.3881  0.3703 -0.0171
  825MOL0     H11362   9.574   0.796   2.964  2.1039 -2.5128 -0.4139
  825MOL0     H11363   9.827   0.286   2.921 -4.3034  4.4762 -0.2453
  825MOL0     H11364  10.033   0.193   3.009  0.4786  1.5479  0.7707
  825MOL0     H11365  10.206   0.109   3.113 -1.2631  1.1091 -0.9680
  825MOL0     H11366  10.253   0.287   3.111 -2.0197  0.5135  0.1440
  825MOL0     H11367  10.430   0.171   3.143 -3.8181 -0.2892 -2.1150
  825MOL0     H11368  10.360   0.059   3.273 -0.3885  1.0175  2.3151
  825MOL0     H11369  10.338   0.263   3.420 -1.9165  1.8679 -2.5408
  825MOL0     H11370  10.424   0.351   3.295 -1.8187 -0.2627  0.0074
  825MOL0     H11371  10.579   0.308   3.477 -0.7437  0.1896  0.1879
  825MOL0     H11372  10.627   0.233   3.325  1.0812 -1.7644  1.8366
  825MOL0     H11373  10.586  -0.079   3.605 -1.5882 -2.3250 -2.2713
  825MOL0     H11374   9.980   0.378   3.390  2.1589 -1.8755 -0.4161
  825MOL0     H11375   9.769   0.486   3.298  0.4880 -0.4765  0.1915
  826MOL0     O11376   0.367   0.253   9.595 -1.1045  0.5959 -0.4513
  826MOL0     C11377   0.453   0.322   9.554 -0.8931 -0.1839  0.9238
  826MOL0     O11378   0.433   0.430   9.470 -0.0117  0.2149 -0.0917
  826MOL0     C11379   0.304   0.462   9.453  0.0151 -0.0228  0.7005
  826MOL0     C11380   0.221   0.391   9.362 -0.2852 -0.9200 -0.3356
  826MOL0     C11381   0.090   0.431   9.340 -0.4302 -0.6571 -0.2383
  826MOL0     C11382   0.038   0.539   9.410  0.2281  0.5648  0.2795
  826MOL0     O11383  -0.092   0.566   9.386 -0.5124  0.4606  0.4389
  826MOL0     C11384  -0.154   0.675   9.460  0.4420 -0.8066 -0.6753
  826MOL0     C11385  -0.304   0.698   9.437 -0.8169 -0.0490 -0.5457
  826MOL0     C11386  -0.382   0.575   9.485  0.3206  0.4950 -0.4457
  826MOL0     C11387  -0.529   0.592   9.457 -0.3994  0.5841 -0.1291
  826MOL0     C11388  -0.622   0.483   9.514  0.3860 -0.0877  0.3203
  826MOL0     C11389  -0.579   0.340   9.465  0.0489  1.0842  0.3272
  826MOL0     C11390  -0.692   0.229   9.494 -0.1150  0.3075  0.2195
  826MOL0     C11391  -0.806   0.254   9.390 -0.7861  0.1592 -0.6355
  826MOL0     N11392  -0.897   0.139   9.391  0.1709  0.3818 -0.3952
  826MOL0     C11393  -0.867   0.011   9.344  0.7245 -1.1675 -0.1095
  826MOL0     C11394  -0.981  -0.059   9.343  0.1114  0.0122 -0.1840
  826MOL0     C11395  -1.010  -0.195   9.298  0.5158  0.1684  0.1702
  826MOL0     C11396  -1.001  -0.289   9.424 -0.7813 -0.8937  0.4321
  826MOL0     C11397  -1.027  -0.426   9.382  0.3627  0.4868 -0.5045
  826MOL0     C11398  -1.067  -0.514   9.503  0.0604  0.2922 -1.0913
  826MOL0     O11399  -1.195  -0.481   9.555  0.0413 -0.0843  0.5900
  826MOL0     C11400  -1.311  -0.535   9.510 -1.0505 -0.0069 -0.7319
  826MOL0     C11401  -1.434  -0.509   9.572  0.1280 -0.7309  0.5458
  826MOL0     C11402  -1.559  -0.552   9.515 -0.2394  0.1157 -0.1101
  826MOL0     C11403  -1.682  -0.511   9.593  0.0459  0.5814  0.1937
  826MOL0     C11404  -1.562  -0.605   9.383 -0.3987 -0.1699 -0.3493
  826MOL0     C11405  -1.681  -0.638   9.311 -0.8537 -0.0910  0.2382
  826MOL0     O11406  -1.785  -0.687   9.382  0.0045 -0.0075  0.1174
  826MOL0     C11407  -1.899  -0.728   9.310 -0.2954  0.2746  0.2062
  826MOL0     C11408  -2.009  -0.638   9.308 -0.7017 -0.0224 -0.3789
  826MOL0     C11409  -2.120  -0.676   9.226 -0.3875 -0.8590 -0.9386
  826MOL0     C11410  -2.138  -0.803   9.173  0.5412  0.1583 -1.0435
  826MOL0     O11411  -2.250  -0.847   9.109 -0.2910 -0.6610  0.8568
  826MOL0     C11412  -2.368  -0.791   9.156 -0.3502  0.2382 -0.1811
  826MOL0     C11413  -2.489  -0.873   9.111 -0.2383 -0.3974 -0.9014
  826MOL0     C11414  -2.612  -0.788   9.107  0.9517  0.8702  0.2934
  826MOL0     C11415  -2.738  -0.881   9.060  0.8921  0.1462  0.2876
  826MOL0     C11416  -2.869  -0.806   9.058 -0.4744  0.4349  0.5392
  826MOL0     C11417  -2.982  -0.894   9.009  0.1983 -0.4014 -0.3607
  826MOL0     C11418  -3.109  -0.822   8.970  0.7241  0.8753 -0.2002
  826MOL0     C11419  -3.224  -0.912   8.934 -0.6960  1.1491 -0.1613
  826MOL0    Cl11420  -3.364  -0.808   8.889  0.2240  0.1220  0.2880
  826MOL0     C11421  -2.034  -0.893   9.192  0.8011 -0.1529 -0.1232
  826MOL0     C11422  -1.915  -0.855   9.254  1.1365 -0.4970  0.0698
  826MOL0     O11423  -1.674  -0.634   9.188  0.3431  0.0139 -0.2229
  826MOL0     C11424  -1.440  -0.640   9.325 -0.2212  0.0670  0.0155
  826MOL0     C11425  -1.320  -0.607   9.389  0.2102  0.8860  0.2801
  826MOL0     N11426  -1.081   0.026   9.395  0.4625 -0.1409  0.1400
  826MOL0     N11427  -1.034   0.146   9.419 -1.2482  0.5910 -0.1977
  826MOL0     C11428   0.116   0.605   9.506 -0.2658 -1.1549  0.5036
  826MOL0     C11429   0.248   0.570   9.523  0.2599  0.5180 -0.1589
  826MOL0     C11430   0.590   0.285   9.593  1.3038  0.8742  0.1713
  826MOL0     C11431   0.703   0.365   9.556  0.0017  0.6402 -0.3877
  826MOL0     C11432   0.834   0.321   9.583 -0.4320 -0.2020 -0.0770
  826MOL0     C11433   0.855   0.201   9.650  0.5666 -0.2293 -0.1582
  826MOL0     O11434   0.980   0.153   9.678 -0.1845  0.0770 -0.3237
  826MOL0     C11435   1.015   0.038   9.593 -0.2024 -0.6771  0.5903
  826MOL0     C11436   1.154   0.070   9.542  0.1634 -0.2887  0.6604
  826MOL0     C11437   1.201  -0.050   9.468 -0.8723  0.2796  0.4290
  826MOL0     C11438   1.347  -0.023   9.416  1.0894 -0.2042 -0.0807
  826MOL0     C11439   1.462  -0.051   9.507  0.5440  0.3777  0.4869
  826MOL0     C11440   1.563  -0.065   9.571  0.2986 -0.3837 -0.4184
  826MOL0     C11441   0.744   0.124   9.683 -0.0137 -0.5199 -0.1007
  826MOL0     C11442   0.612   0.160   9.656 -0.6191  0.3040 -0.4781
  826MOL0     H11443   0.244   0.302   9.303 -1.2056 -2.3464  1.3646
  826MOL0     H11444   0.030   0.371   9.272 -5.4772  1.0181  2.2151
  826MOL0     H11445  -0.132   0.651   9.564  0.7003  0.2051 -0.4839
  826MOL0     H11446  -0.098   0.763   9.426  1.3273  0.4360  3.4691
  826MOL0     H11447  -0.336   0.778   9.505 -1.5961 -0.4956 -0.3838
  826MOL0     H11448  -0.330   0.735   9.337  0.4269  3.8792  0.3992
  826MOL0     H11449  -0.353   0.489   9.424  1.4180  0.8395 -0.4365
  826MOL0     H11450  -0.373   0.576   9.594  2.2164  3.6159 -0.5021
  826MOL0     H11451  -0.560   0.689   9.499 -1.5615 -0.3575  1.3120
  826MOL0     H11452  -0.539   0.595   9.349 -3.2651 -3.3604 -0.1486
  826MOL0     H11453  -0.606   0.477   9.622  0.1753 -2.7901  0.2723
  826MOL0     H11454  -0.726   0.517   9.508 -0.1181 -1.1692  1.9707
  826MOL0     H11455  -0.562   0.341   9.357 -2.3054 -2.1804 -0.2255
  826MOL0     H11456  -0.490   0.295   9.509 -0.4832  0.0587  0.3946
  826MOL0     H11457  -0.657   0.126   9.478 -1.6449 -0.3642  0.9865
  826MOL0     H11458  -0.720   0.238   9.599 -0.7147  0.3453  0.0599
  826MOL0     H11459  -0.778   0.267   9.286 -2.9033 -2.1519 -1.5890
  826MOL0     H11460  -0.863   0.342   9.423 -0.0498  0.3365  0.2207
  826MOL0     H11461  -0.768  -0.020   9.313  0.0329 -1.3129 -2.2999
  826MOL0     H11462  -1.113  -0.205   9.262  0.5154 -1.6783  0.5632
  826MOL0     H11463  -0.946  -0.222   9.214  0.8446  0.0247  0.4638
  826MOL0     H11464  -1.071  -0.257   9.501 -0.6755  0.1533  0.1014
  826MOL0     H11465  -0.900  -0.287   9.465 -0.9591 -0.2067  0.8492
  826MOL0     H11466  -0.934  -0.461   9.335 -0.3748  0.3980 -1.9620
  826MOL0     H11467  -1.105  -0.428   9.304  2.1754 -0.4643 -2.4055
  826MOL0     H11468  -0.995  -0.500   9.585 -0.9908  1.4147 -0.3197
  826MOL0     H11469  -1.062  -0.621   9.482  0.1414 -0.2475  1.3746
  826MOL0     H11470  -1.424  -0.464   9.670 -1.0353 -1.5374  1.0584
  826MOL0     H11471  -1.759  -0.478   9.523  0.2476  2.9031  0.9983
  826MOL0     H11472  -1.711  -0.605   9.642  1.7188 -0.6247 -0.9950
  826MOL0     H11473  -1.658  -0.436   9.668  3.0417  0.2157 -0.2893
  826MOL0     H11474  -1.994  -0.553   9.374  3.0338 -0.9044  0.0905
  826MOL0     H11475  -2.204  -0.606   9.232  0.3595  0.1832 -2.1261
  826MOL0     H11476  -2.356  -0.782   9.265  2.6933  2.1363 -0.5542
  826MOL0     H11477  -2.373  -0.697   9.100 -0.8510  0.6936  0.6120
  826MOL0     H11478  -2.487  -0.925   9.015 -0.4409 -2.2555  0.0451
  826MOL0     H11479  -2.501  -0.939   9.198 -2.8643  2.1615  0.8228
  826MOL0     H11480  -2.614  -0.706   9.035 -2.0226  1.0335  0.4231
  826MOL0     H11481  -2.635  -0.746   9.205  1.9812 -1.1279  1.4556
  826MOL0     H11482  -2.722  -0.926   8.962 -3.4050 -0.0222 -0.5449
  826MOL0     H11483  -2.740  -0.954   9.142  0.5307  0.5247  0.6216
  826MOL0     H11484  -2.852  -0.715   9.000  2.2564 -0.5254 -0.3306
  826MOL0     H11485  -2.891  -0.761   9.155 -2.3067  2.0058 -0.5313
  826MOL0     H11486  -2.955  -0.966   8.931 -0.4384 -0.0601 -0.9148
  826MOL0     H11487  -3.009  -0.961   9.090 -4.5402  3.1763  1.4862
  826MOL0     H11488  -3.096  -0.737   8.901 -0.3046  1.2196  0.0135
  826MOL0     H11489  -3.127  -0.775   9.067  0.6347 -3.3819  2.0614
  826MOL0     H11490  -3.248  -0.984   9.013 -0.4183  2.6180  1.3204
  826MOL0     H11491  -3.189  -0.965   8.846 -0.9129 -1.0486  1.0108
  826MOL0     H11492  -2.030  -0.993   9.149  4.4873  0.7615 -2.3555
  826MOL0     H11493  -1.842  -0.935   9.255  2.5403  0.5837 -3.1712
  826MOL0     H11494  -1.423  -0.678   9.225  0.9839  1.4990 -0.3677
  826MOL0     H11495  -1.232  -0.635   9.332 -0.2114  3.1376 -1.6021
  826MOL0     H11496   0.075   0.691   9.557  0.1771  0.8451 -2.3071
  826MOL0     H11497   0.313   0.622   9.592  1.3235  1.2011 -1.6432
  826MOL0     H11498   0.684   0.463   9.512 -0.9163  0.0098 -1.4368
  826MOL0     H11499   0.923   0.381   9.564  0.2081 -0.3864  2.0386
  826MOL0     H11500   1.026  -0.047   9.662 -0.1268 -1.1209  0.0348
  826MOL0     H11501   0.950   0.021   9.508 -0.6425 -1.6231  1.0936
  826MOL0     H11502   1.224   0.097   9.622  2.2318  2.0177 -1.6924
  826MOL0     H11503   1.144   0.158   9.478 -2.0272 -0.4704  0.7000
  826MOL0     H11504   1.142  -0.065   9.377 -1.7332  2.4466  0.5627
  826MOL0     H11505   1.200  -0.137   9.533  2.5238 -0.6452 -0.5499
  826MOL0     H11506   1.350   0.081   9.383  1.0027 -0.0181  0.5042
  826MOL0     H11507   1.357  -0.092   9.331  0.3632  0.7499 -0.9564
  826MOL0     H11508   1.657  -0.084   9.619 -0.2795  1.0385  1.3863
  826MOL0     H11509   0.763   0.027   9.728  0.0478 -0.7375 -0.5917
  826MOL0     H11510   0.541   0.083   9.684  1.2456 -0.6924  1.9339
  827MOL0     O11511  10.286   2.823   9.295  0.3102  0.1144 -0.1021
  827MOL0     C11512  10.309   2.943   9.288  0.7178  0.1606 -0.3734
  827MOL0     O11513  10.207   3.036   9.278 -0.9229  0.2022 -0.2534
  827MOL0     C11514  10.083   3.005   9.309 -0.2721 -0.3401 -0.0073
  827MOL0     C11515   9.986   3.037   9.214  0.4690 -0.3528 -0.8687
  827MOL0     C11516   9.856   2.999   9.238 -0.2220  0.1058 -0.3702
  827MOL0     C11517   9.813   2.918   9.337  0.6977 -0.8394 -0.0270
  827MOL0     O11518   9.683   2.872   9.349  0.6683  0.1389  0.1649
  827MOL0     C11519   9.626   2.810   9.466 -0.0129 -0.0160  0.5034
  827MOL0     C11520   9.510   2.722   9.422 -0.8116 -0.7529  0.1258
  827MOL0     C11521   9.379   2.792   9.370 -0.3473 -0.2111  0.1715
  827MOL0     C11522   9.289   2.864   9.473 -0.2693 -0.7202  0.0546
  827MOL0     C11523   9.165   2.926   9.431 -0.0102  0.3158  0.6943
  827MOL0     C11524   9.059   2.816   9.401 -0.9354 -0.9596  0.2247
  827MOL0     C11525   8.929   2.857   9.336  0.1560 -0.3605 -0.0451
  827MOL0     C11526   8.858   2.969   9.406  0.7540 -0.6900  1.0552
  827MOL0     N11527   8.713   2.982   9.374  0.0007  0.0771  0.7486
  827MOL0     C11528   8.670   2.994   9.246 -0.3041  0.7960 -0.2626
  827MOL0     C11529   8.539   3.000   9.255 -0.4077 -0.5149 -0.8140
  827MOL0     C11530   8.439   3.010   9.145  0.7994  0.0536  0.1106
  827MOL0     C11531   8.492   3.013   9.006 -0.4235  0.2227 -0.3436
  827MOL0     C11532   8.386   3.034   8.895 -0.1430 -0.6548 -0.0672
  827MOL0     C11533   8.313   2.909   8.859 -0.6840  0.7814  0.2387
  827MOL0     O11534   8.216   2.925   8.756  0.3800  0.9144 -0.2783
  827MOL0     C11535   8.084   2.903   8.795 -0.1181  0.9025 -0.2530
  827MOL0     C11536   7.997   2.868   8.690  0.0472  0.0899 -0.5901
  827MOL0     C11537   7.855   2.853   8.709 -0.0110 -0.6896  0.4593
  827MOL0     C11538   7.772   2.822   8.583  0.3958  0.7316 -0.0203
  827MOL0     C11539   7.803   2.861   8.845 -1.4225 -0.1500 -0.6336
  827MOL0     C11540   7.657   2.847   8.881  0.2244  0.7491  0.4809
  827MOL0     O11541   7.577   2.774   8.800 -0.0711 -0.1535 -0.1307
  827MOL0     C11542   7.442   2.784   8.809  0.6652 -0.2522 -0.1913
  827MOL0     C11543   7.368   2.738   8.915 -0.0417  0.1435  0.3125
  827MOL0     C11544   7.237   2.719   8.908  0.9334 -0.6452 -0.4951
  827MOL0     C11545   7.159   2.779   8.805  0.4529  0.0411  0.3963
  827MOL0     O11546   7.024   2.777   8.793  0.0416 -0.0637  0.0247
  827MOL0     C11547   6.935   2.746   8.903  0.1218  0.1193  0.3823
  827MOL0     C11548   6.898   2.600   8.916  0.4708 -0.3687  0.3459
  827MOL0     C11549   6.775   2.580   9.007 -0.4088  0.7046  0.4048
  827MOL0     C11550   6.809   2.501   9.134 -0.3525 -0.3849  0.8491
  827MOL0     C11551   6.691   2.489   9.232 -0.0384 -0.1822 -0.1570
  827MOL0     C11552   6.660   2.351   9.282 -0.0319  0.8796  0.2079
  827MOL0     C11553   6.609   2.252   9.173 -0.4684  0.0244 -0.6511
  827MOL0     C11554   6.611   2.118   9.244 -0.6221 -0.4246  0.2428
  827MOL0    Cl11555   6.558   1.990   9.127  0.0202 -0.0072 -0.0312
  827MOL0     C11556   7.228   2.844   8.703 -0.4439 -0.9918 -0.5014
  827MOL0     C11557   7.366   2.834   8.701  0.0252  0.2980 -0.2706
  827MOL0     O11558   7.620   2.894   8.983  0.0038 -0.8450 -0.4407
  827MOL0     C11559   7.896   2.894   8.940 -0.2332 -0.2251 -0.0942
  827MOL0     C11560   8.034   2.917   8.922  0.1445 -0.6518 -0.0566
  827MOL0     N11561   8.499   2.990   9.390  0.1241 -0.0972 -0.0709
  827MOL0     N11562   8.608   2.968   9.460 -0.1720  0.1656 -0.7620
  827MOL0     C11563   9.907   2.888   9.436  0.4558  0.0015 -0.9497
  827MOL0     C11564  10.040   2.921   9.422 -0.2569  0.1167  0.6195
  827MOL0     C11565  10.452   2.987   9.251  0.3537 -0.3330  0.2422
  827MOL0     C11566  10.485   3.120   9.265 -0.0929  0.6082  0.1785
  827MOL0     C11567  10.614   3.158   9.221 -0.2464 -0.2422 -0.6670
  827MOL0     C11568  10.713   3.070   9.181 -0.2173 -0.8985  0.5620
  827MOL0     O11569  10.841   3.126   9.156 -0.1012  0.0191  0.9883
  827MOL0     C11570  10.945   3.029   9.129 -0.0064 -0.1055 -0.2119
  827MOL0     C11571  11.077   3.090   9.082 -0.8391 -0.1630 -0.1507
  827MOL0     C11572  11.088   3.119   8.927  0.2530  0.0578 -0.6134
  827MOL0     C11573  11.038   3.259   8.885 -0.0547 -0.6029 -0.1252
  827MOL0     C11574  11.105   3.380   8.941 -0.5692  0.1287 -0.4112
  827MOL0     C11575  11.168   3.470   8.997  0.2364  0.2645  0.7353
  827MOL0     C11576  10.671   2.935   9.170  0.3704 -0.4778 -0.0624
  827MOL0     C11577  10.544   2.893   9.206  0.5540  0.2987  0.4991
  827MOL0     H11578  10.014   3.087   9.122  1.2736  0.0294 -0.4294
  827MOL0     H11579   9.793   3.024   9.152  0.1643 -2.6783 -1.5795
  827MOL0     H11580   9.693   2.739   9.515  1.0935 -0.8324 -2.0150
  827MOL0     H11581   9.602   2.888   9.539  3.4541  0.1228  1.6428
  827MOL0     H11582   9.553   2.668   9.338  1.8884  2.1076 -0.4995
  827MOL0     H11583   9.490   2.654   9.505 -0.9051 -0.2513  0.5190
  827MOL0     H11584   9.404   2.854   9.284 -0.1901  0.4250  0.6620
  827MOL0     H11585   9.328   2.710   9.319 -1.0693  1.0143 -1.1262
  827MOL0     H11586   9.273   2.798   9.559 -3.1159  0.9221  0.9006
  827MOL0     H11587   9.361   2.944   9.495  1.0302 -0.8597 -3.0744
  827MOL0     H11588   9.124   2.990   9.510 -0.1953 -0.4006  1.1869
  827MOL0     H11589   9.193   2.981   9.341  0.0659  0.2977  0.7071
  827MOL0     H11590   9.102   2.741   9.335  3.6474  0.3306  1.3799
  827MOL0     H11591   9.029   2.779   9.499 -0.9968  1.3215  1.1378
  827MOL0     H11592   8.951   2.886   9.233  1.1544 -1.4425 -0.1534
  827MOL0     H11593   8.866   2.768   9.333  0.6079 -0.6744 -0.3223
  827MOL0     H11594   8.896   3.068   9.376 -0.7555  0.2394  2.0472
  827MOL0     H11595   8.867   2.970   9.515  2.7798  2.9116  1.0348
  827MOL0     H11596   8.728   3.005   9.155  2.5700 -1.5225  1.1052
  827MOL0     H11597   8.384   2.916   9.141  1.7191 -0.5039  0.3603
  827MOL0     H11598   8.382   3.102   9.165 -2.1694 -2.2582  3.4636
  827MOL0     H11599   8.556   2.926   8.990 -0.7079  0.3312 -2.2284
  827MOL0     H11600   8.554   3.104   9.008  0.2152 -0.2129  0.5054
  827MOL0     H11601   8.439   3.077   8.809  0.8583  0.8777  1.2683
  827MOL0     H11602   8.315   3.111   8.925  2.0209  2.1349 -1.6215
  827MOL0     H11603   8.276   2.860   8.949  0.9899  1.8821  1.5987
  827MOL0     H11604   8.383   2.833   8.821  0.7791  1.4841  1.4459
  827MOL0     H11605   8.036   2.868   8.589  0.8311 -0.7578 -0.2908
  827MOL0     H11606   7.720   2.726   8.576  0.1902  0.8557 -0.2476
  827MOL0     H11607   7.692   2.895   8.569 -0.6562 -0.4368 -0.2785
  827MOL0     H11608   7.841   2.834   8.498  0.8454  2.1264  0.5133
  827MOL0     H11609   7.424   2.696   8.998  1.2171  0.4719 -0.3352
  827MOL0     H11610   7.178   2.673   8.987 -1.0637  1.2281 -0.7990
  827MOL0     H11611   6.975   2.791   8.995  1.0596  0.0243  0.0312
  827MOL0     H11612   6.847   2.800   8.868 -0.2537 -1.6227 -1.5199
  827MOL0     H11613   6.860   2.571   8.818  1.2045  0.6851 -0.2622
  827MOL0     H11614   6.981   2.536   8.948 -0.6728 -1.4813  1.2077
  827MOL0     H11615   6.702   2.522   8.950  0.2695 -0.3068  0.5405
  827MOL0     H11616   6.734   2.677   9.039 -0.2411  1.9567 -2.7537
  827MOL0     H11617   6.838   2.399   9.107 -1.8762 -0.9186  1.1407
  827MOL0     H11618   6.897   2.549   9.179  1.8679 -2.8441 -0.5877
  827MOL0     H11619   6.608   2.546   9.189  1.3610  1.5402 -0.6713
  827MOL0     H11620   6.721   2.551   9.317  2.3608 -2.7127  0.9976
  827MOL0     H11621   6.752   2.305   9.320  0.0451  1.3414  0.5817
  827MOL0     H11622   6.584   2.366   9.359 -0.6559  1.2163 -0.4632
  827MOL0     H11623   6.666   2.265   9.081  1.2580  1.6322  0.5651
  827MOL0     H11624   6.503   2.266   9.147 -0.6436 -0.3387 -0.1452
  827MOL0     H11625   6.545   2.126   9.331  0.6182  1.2097  1.0759
  827MOL0     H11626   6.712   2.090   9.274  1.2847  4.6227 -0.4795
  827MOL0     H11627   7.166   2.886   8.624 -2.1002  0.5079  1.4734
  827MOL0     H11628   7.419   2.883   8.620  0.0854 -0.2664 -0.5777
  827MOL0     H11629   7.872   2.913   9.044 -1.0435 -0.9512 -0.1403
  827MOL0     H11630   8.093   2.953   9.005 -0.6757 -1.3233  0.8423
  827MOL0     H11631   9.884   2.840   9.531  1.9537  1.1166  0.0320
  827MOL0     H11632  10.113   2.892   9.497  1.1933  0.6886 -0.5087
  827MOL0     H11633  10.412   3.195   9.294  0.3380  0.7022  1.0387
  827MOL0     H11634  10.640   3.263   9.228  0.8950 -0.6025  1.3620
  827MOL0     H11635  10.963   2.964   9.215  0.9494  1.2172  0.6341
  827MOL0     H11636  10.915   2.962   9.048  2.8335 -2.4357  0.5048
  827MOL0     H11637  11.150   3.009   9.092  0.3924  1.0225  0.7829
  827MOL0     H11638  11.105   3.176   9.143  2.3276 -0.4880 -0.9714
  827MOL0     H11639  11.040   3.034   8.878  1.0191  0.5994 -2.3813
  827MOL0     H11640  11.193   3.105   8.899  0.8468 -5.0467  2.7262
  827MOL0     H11641  10.933   3.257   8.916  0.3944 -2.4359  1.4779
  827MOL0     H11642  11.044   3.262   8.776 -3.2365  0.8189 -0.3500
  827MOL0     H11643  11.227   3.537   9.056 -0.2155  0.1636  1.3225
  827MOL0     H11644  10.745   2.865   9.133  3.1791  2.9911 -1.5430
  827MOL0     H11645  10.524   2.788   9.191  2.0258  0.0544  0.0435
  828MOL0     O11646   5.167   1.141   7.863 -0.5684 -0.5362  0.3754
  828MOL0     C11647   5.225   1.117   7.752  0.1299  0.8168 -1.1234
  828MOL0     O11648   5.181   1.039   7.655 -0.0272  0.1119  0.4026
  828MOL0     C11649   5.052   0.997   7.656  0.4549  0.1595  0.4051
  828MOL0     C11650   5.042   0.859   7.688 -0.0973 -0.7576  0.3376
  828MOL0     C11651   4.918   0.795   7.674  0.0198 -0.1744 -1.0225
  828MOL0     C11652   4.799   0.873   7.639 -0.1216  0.5883  0.2369
  828MOL0     O11653   4.681   0.802   7.621 -0.3541  0.6996  0.0158
  828MOL0     C11654   4.625   0.829   7.495 -0.0557  0.5472 -0.6406
  828MOL0     C11655   4.551   0.705   7.440 -0.8958  0.0324 -0.0354
  828MOL0     C11656   4.635   0.572   7.418 -0.4730  0.2023 -0.2661
  828MOL0     C11657   4.615   0.480   7.538 -0.0035  0.0630  0.0618
  828MOL0     C11658   4.718   0.368   7.530  0.0755 -0.3566  0.1803
  828MOL0     C11659   4.713   0.295   7.670 -0.3318 -1.3850  1.7574
  828MOL0     C11660   4.765   0.156   7.656  0.5205 -0.0391 -0.7847
  828MOL0     C11661   4.911   0.149   7.604  0.0628  0.4527 -0.0506
  828MOL0     N11662   4.964   0.014   7.584  0.2799 -1.0356  0.5414
  828MOL0     C11663   5.090  -0.009   7.529  0.5612 -0.3987  0.3294
  828MOL0     C11664   5.099  -0.141   7.521 -0.3825  0.4239 -0.0579
  828MOL0     C11665   5.219  -0.216   7.482 -0.2915  0.4944  0.5244
  828MOL0     C11666   5.296  -0.179   7.358  0.2657 -0.8740 -0.0111
  828MOL0     C11667   5.422  -0.271   7.343  0.5023  0.4283 -0.0524
  828MOL0     C11668   5.494  -0.242   7.211  0.4974  0.6941 -0.5300
  828MOL0     O11669   5.621  -0.304   7.220  0.4405 -0.1304 -0.5039
  828MOL0     C11670   5.738  -0.235   7.196  0.5650  0.5102 -0.5589
  828MOL0     C11671   5.757  -0.126   7.117  0.2761 -0.2302  0.0225
  828MOL0     C11672   5.871  -0.037   7.112 -0.7230  1.2138 -0.5255
  828MOL0     C11673   5.873   0.078   7.019 -1.0352 -0.2784 -0.1266
  828MOL0     C11674   5.974  -0.086   7.190  0.5154  0.0571  0.0340
  828MOL0     C11675   6.111  -0.015   7.192  0.1465 -0.3845  0.0083
  828MOL0     O11676   6.191  -0.059   7.296 -0.6028 -0.3337 -0.0932
  828MOL0     C11677   6.315   0.004   7.301 -0.0742  0.8731  0.2581
  828MOL0     C11678   6.409   0.003   7.190 -0.4054  0.2271  0.0796
  828MOL0     C11679   6.530   0.066   7.216 -0.2477 -0.1711 -0.1151
  828MOL0     C11680   6.566   0.122   7.338  0.3300  0.2989 -0.3666
  828MOL0     O11681   6.694   0.166   7.334 -0.4661  0.1797 -0.4607
  828MOL0     C11682   6.762   0.157   7.463  0.1571  0.5166  0.1845
  828MOL0     C11683   6.916   0.170   7.442 -0.3285 -0.2496  0.0730
  828MOL0     C11684   7.004   0.183   7.574  0.5967 -0.1557 -0.2160
  828MOL0     C11685   7.134   0.250   7.549  0.4353  0.4157 -0.6441
  828MOL0     C11686   7.206   0.288   7.676 -0.4749 -1.6431  0.3415
  828MOL0     C11687   7.347   0.341   7.660  0.0217  0.1096  0.5105
  828MOL0     C11688   7.402   0.379   7.796 -0.1081 -0.7284 -0.6348
  828MOL0     C11689   7.528   0.454   7.771 -0.1087 -0.5008  0.5074
  828MOL0    Cl11690   7.648   0.461   7.912 -0.4571 -0.2322 -0.0156
  828MOL0     C11691   6.473   0.115   7.445 -0.8267 -0.2348 -0.7223
  828MOL0     C11692   6.342   0.056   7.421 -0.3231 -0.0159  0.0965
  828MOL0     O11693   6.138   0.074   7.108 -0.2723  0.4373  0.5803
  828MOL0     C11694   5.957  -0.205   7.272 -0.2378  0.8080 -0.4069
  828MOL0     C11695   5.838  -0.274   7.287  0.1321 -1.0076  0.2619
  828MOL0     N11696   4.983  -0.202   7.568 -0.5656  1.1723  0.0633
  828MOL0     N11697   4.912  -0.106   7.600 -0.0274  0.4112  0.3731
  828MOL0     C11698   4.810   1.015   7.621  0.6883 -0.0975 -0.0599
  828MOL0     C11699   4.937   1.072   7.625  0.7611 -0.1439  0.2781
  828MOL0     C11700   5.358   1.182   7.734  1.0231  0.9204 -0.6779
  828MOL0     C11701   5.397   1.297   7.816 -0.1713 -0.0305  0.0031
  828MOL0     C11702   5.527   1.360   7.804  0.1458 -0.2679 -0.0966
  828MOL0     C11703   5.608   1.305   7.703  0.1089  0.1476 -0.1954
  828MOL0     O11704   5.730   1.353   7.681  0.2835  0.2241 -0.3105
  828MOL0     C11705   5.764   1.487   7.721 -0.4631  0.9143  0.1961
  828MOL0     C11706   5.904   1.501   7.673  0.1471 -0.1667 -0.8588
  828MOL0     C11707   5.973   1.623   7.731  0.5983  1.0703  0.0333
  828MOL0     C11708   6.122   1.615   7.709 -0.8168  0.3778  0.1192
  828MOL0     C11709   6.182   1.748   7.719  0.1732 -0.1225  0.1213
  828MOL0     C11710   6.241   1.855   7.711 -0.4184  0.7333  0.5672
  828MOL0     C11711   5.572   1.197   7.630  0.4849 -0.4714 -0.4125
  828MOL0     C11712   5.449   1.145   7.635  0.0248 -0.3859  0.5814
  828MOL0     H11713   5.124   0.802   7.730 -1.2967 -0.2624  3.7125
  828MOL0     H11714   4.921   0.688   7.694 -0.0620  0.0911  0.5453
  828MOL0     H11715   4.556   0.914   7.491 -0.6351  0.1400  0.1702
  828MOL0     H11716   4.701   0.854   7.421 -0.3682 -0.1319 -1.2125
  828MOL0     H11717   4.475   0.686   7.516  0.1020 -0.9375  0.7571
  828MOL0     H11718   4.493   0.741   7.354 -2.6225 -0.0421  1.0481
  828MOL0     H11719   4.613   0.527   7.320  0.4618 -3.4402  1.0345
  828MOL0     H11720   4.743   0.589   7.411 -0.4206 -0.7348 -4.0504
  828MOL0     H11721   4.617   0.529   7.636  0.0696 -0.4582  0.3226
  828MOL0     H11722   4.511   0.447   7.537  0.3194 -1.1748  2.2843
  828MOL0     H11723   4.697   0.298   7.449 -2.5567  1.3211 -0.7265
  828MOL0     H11724   4.820   0.409   7.525 -0.1023 -0.0154 -0.7485
  828MOL0     H11725   4.747   0.359   7.752  1.4187 -0.1800  0.1848
  828MOL0     H11726   4.612   0.286   7.712 -0.7480  1.6062  1.6301
  828MOL0     H11727   4.744   0.092   7.742  2.7074  0.7858  0.4636
  828MOL0     H11728   4.706   0.112   7.576  1.4522  2.4467 -2.9819
  828MOL0     H11729   4.973   0.182   7.688 -0.5248 -2.7089  1.7720
  828MOL0     H11730   4.922   0.206   7.511 -0.8844 -1.5329 -1.4594
  828MOL0     H11731   5.163   0.067   7.501 -0.4737 -0.0630 -1.6390
  828MOL0     H11732   5.286  -0.206   7.568  1.4307 -4.1135 -0.0053
  828MOL0     H11733   5.188  -0.321   7.477 -1.7919  0.8489  1.6408
  828MOL0     H11734   5.328  -0.075   7.368 -0.6988 -0.5114 -0.5711
  828MOL0     H11735   5.225  -0.170   7.275  0.7798 -0.1862 -0.3852
  828MOL0     H11736   5.392  -0.376   7.349  0.7831 -0.0516 -4.2720
  828MOL0     H11737   5.486  -0.247   7.429 -1.4177 -0.0665  1.5820
  828MOL0     H11738   5.491  -0.137   7.181 -0.0244  0.2639 -2.0395
  828MOL0     H11739   5.437  -0.298   7.137  0.0119  1.1842 -0.5275
  828MOL0     H11740   5.674  -0.096   7.053  0.4702 -2.7096 -1.5257
  828MOL0     H11741   5.789   0.082   6.950  1.7637  3.5525 -3.8632
  828MOL0     H11742   5.881   0.175   7.070  2.2797 -0.8666  0.7440
  828MOL0     H11743   5.959   0.067   6.952 -1.1747  2.9885 -1.0176
  828MOL0     H11744   6.383  -0.053   7.101  1.8011 -0.1848 -0.3530
  828MOL0     H11745   6.601   0.082   7.135 -2.6099 -0.2985 -2.3298
  828MOL0     H11746   6.733   0.242   7.525 -0.2223 -0.2062  1.0144
  828MOL0     H11747   6.744   0.066   7.521  0.5303 -0.4545 -1.1701
  828MOL0     H11748   6.953   0.079   7.395 -0.9296  0.0923 -1.1006
  828MOL0     H11749   6.934   0.249   7.368 -0.0263 -2.9003 -2.8899
  828MOL0     H11750   7.018   0.080   7.609  0.6760  0.2712  1.0705
  828MOL0     H11751   6.936   0.236   7.642  0.5295 -0.8151  0.2435
  828MOL0     H11752   7.198   0.173   7.504  2.8406  0.4573  2.3711
  828MOL0     H11753   7.132   0.332   7.477 -0.6634 -1.7699 -3.2870
  828MOL0     H11754   7.210   0.191   7.726  2.6995 -2.7453 -1.7269
  828MOL0     H11755   7.149   0.372   7.716  0.6718 -0.3820 -0.5628
  828MOL0     H11756   7.419   0.277   7.607  1.4826  1.2234  1.1187
  828MOL0     H11757   7.342   0.428   7.594  0.4474 -2.1623 -2.7876
  828MOL0     H11758   7.430   0.292   7.857 -0.8474  0.6108  1.7653
  828MOL0     H11759   7.335   0.446   7.850  2.5541  1.7007 -0.0981
  828MOL0     H11760   7.508   0.555   7.734 -1.4587 -0.8424  0.2514
  828MOL0     H11761   7.571   0.399   7.688 -0.0308 -0.8577  0.7821
  828MOL0     H11762   6.492   0.147   7.547 -2.3049  0.5325 -0.6763
  828MOL0     H11763   6.283   0.046   7.511  0.4722 -4.1981  0.3743
  828MOL0     H11764   6.037  -0.245   7.334 -0.4897 -2.3088 -1.8943
  828MOL0     H11765   5.829  -0.360   7.353  0.0476 -0.1137  1.4515
  828MOL0     H11766   4.722   1.075   7.602  2.1141  1.5951 -1.6371
  828MOL0     H11767   4.935   1.179   7.602 -0.2592 -0.2677 -0.2756
  828MOL0     H11768   5.323   1.345   7.879 -2.1878  1.4716 -3.2477
  828MOL0     H11769   5.548   1.456   7.849 -1.0553  0.5224 -1.1661
  828MOL0     H11770   5.688   1.551   7.676  0.4076  0.6881 -1.6813
  828MOL0     H11771   5.753   1.499   7.829 -2.8248  0.4324  0.0582
  828MOL0     H11772   5.893   1.514   7.565 -0.9788  0.9010 -0.6339
  828MOL0     H11773   5.957   1.411   7.705 -0.3875  0.0621  0.7596
  828MOL0     H11774   5.945   1.629   7.837  0.5980 -2.0120  0.2785
  828MOL0     H11775   5.934   1.714   7.684 -0.4510  1.6388  1.8728
  828MOL0     H11776   6.149   1.574   7.611 -2.6478  1.1455 -0.7382
  828MOL0     H11777   6.160   1.558   7.795 -0.0677 -2.7278 -2.0826
  828MOL0     H11778   6.276   1.955   7.694 -5.1710  2.4116 -1.2466
  828MOL0     H11779   5.646   1.152   7.564 -0.6830  0.4997 -2.4716
  828MOL0     H11780   5.424   1.060   7.572  2.5460 -0.3629 -0.5740
  829MOL0     O11781   6.223   0.059   9.662  0.3626  0.7560  0.6962
  829MOL0     C11782   6.214  -0.001   9.769  0.3327 -0.4336 -0.0802
  829MOL0     O11783   6.090  -0.012   9.842 -0.3558 -0.3001  0.5928
  829MOL0     C11784   5.974   0.033   9.787 -0.9033 -0.4290  0.3316
  829MOL0     C11785   5.928  -0.014   9.665 -0.0784  0.8191  0.5800
  829MOL0     C11786   5.816   0.036   9.606  0.3276  0.5657  0.5001
  829MOL0     C11787   5.744   0.140   9.681 -0.7645 -0.4229 -0.0751
  829MOL0     O11788   5.621   0.173   9.623  0.4734  0.3842 -0.2044
  829MOL0     C11789   5.531   0.235   9.705 -0.5783 -0.0154  0.3100
  829MOL0     C11790   5.390   0.217   9.663  0.0998  0.6758 -0.1407
  829MOL0     C11791   5.389   0.260   9.506 -0.6064  1.1374  0.2805
  829MOL0     C11792   5.246   0.274   9.465  0.0745 -0.2818 -0.9247
  829MOL0     C11793   5.240   0.262   9.314 -0.6731  0.2927  0.7423
  829MOL0     C11794   5.314   0.375   9.236  0.8995  0.7170 -0.5900
  829MOL0     C11795   5.279   0.375   9.094 -0.1789  0.0089  1.1322
  829MOL0     C11796   5.384   0.448   9.008 -0.1847 -0.3045  0.0829
  829MOL0     N11797   5.333   0.479   8.872 -0.0142 -0.2413 -0.0416
  829MOL0     C11798   5.233   0.572   8.846 -0.3858 -0.0878  0.5679
  829MOL0     C11799   5.245   0.599   8.718  0.5297  0.2122 -0.0621
  829MOL0     C11800   5.152   0.696   8.637 -0.3286  0.5801 -0.1212
  829MOL0     C11801   5.010   0.635   8.616 -1.4742  0.2248  0.1689
  829MOL0     C11802   4.895   0.731   8.598 -0.1603 -0.0239  0.3563
  829MOL0     C11803   4.760   0.658   8.608 -0.5832 -0.0560 -0.1137
  829MOL0     O11804   4.764   0.616   8.744 -0.1614 -0.1930 -0.1763
  829MOL0     C11805   4.647   0.568   8.806 -0.6491  0.4024  1.5911
  829MOL0     C11806   4.542   0.515   8.730  0.2839  1.0907 -0.3925
  829MOL0     C11807   4.424   0.467   8.785  0.6128  0.1601  0.2777
  829MOL0     C11808   4.327   0.396   8.704 -0.1016  0.1104 -0.6096
  829MOL0     C11809   4.401   0.479   8.925 -0.8303  1.4073  0.6665
  829MOL0     C11810   4.286   0.436   8.999  0.1830  0.3523  0.6657
  829MOL0     O11811   4.179   0.508   8.973  0.4448  0.2378  0.6634
  829MOL0     C11812   4.057   0.449   8.978  0.5887  1.4048 -0.4578
  829MOL0     C11813   3.954   0.531   9.027 -0.2562 -0.3778 -0.1795
  829MOL0     C11814   3.821   0.491   9.032 -0.5109 -0.3914  0.8179
  829MOL0     C11815   3.789   0.360   9.002 -0.1623  0.1853 -0.3873
  829MOL0     O11816   3.663   0.309   9.017 -0.0883 -0.1652  0.3428
  829MOL0     C11817   3.553   0.395   9.041  0.4089 -0.2158  0.7527
  829MOL0     C11818   3.447   0.300   9.094  0.2358 -0.4271  0.2933
  829MOL0     C11819   3.323   0.373   9.136  0.4921 -0.7609  0.5052
  829MOL0     C11820   3.203   0.274   9.148 -0.4121  0.0078 -0.5648
  829MOL0     C11821   3.076   0.362   9.159 -0.0171  0.1603 -0.7257
  829MOL0     C11822   2.949   0.278   9.212  0.4118  1.3395  0.4750
  829MOL0     C11823   2.832   0.361   9.208  0.6157  0.0572 -0.4413
  829MOL0     C11824   2.701   0.276   9.223 -0.7051  0.0546 -0.6678
  829MOL0    Cl11825   2.662   0.253   9.403 -0.3670  0.1874  0.4107
  829MOL0     C11826   3.883   0.266   8.963 -0.9228  0.1634 -0.0382
  829MOL0     C11827   4.020   0.314   8.943 -0.2200 -0.5954 -0.4942
  829MOL0     O11828   4.296   0.362   9.094  0.1995  0.7404 -0.5295
  829MOL0     C11829   4.507   0.541   9.002  0.7532 -0.2340  0.2585
  829MOL0     C11830   4.629   0.580   8.937 -1.0135  0.0309 -0.5344
  829MOL0     N11831   5.354   0.529   8.668  0.7914 -1.1644 -0.0313
  829MOL0     N11832   5.395   0.444   8.757 -0.0528  0.5380 -0.2977
  829MOL0     C11833   5.802   0.198   9.796  0.7791 -0.1151  0.4179
  829MOL0     C11834   5.918   0.149   9.849 -0.5919 -0.0152 -0.4557
  829MOL0     C11835   6.338  -0.057   9.823  0.1944 -0.2189  0.5706
  829MOL0     C11836   6.453  -0.043   9.739 -0.1720 -0.2398  0.7537
  829MOL0     C11837   6.573  -0.085   9.791 -0.7818  0.3859  0.4390
  829MOL0     C11838   6.577  -0.148   9.917  0.2874 -0.3118 -0.2488
  829MOL0     O11839   6.688  -0.199   9.979  0.6841  0.3505  0.2530
  829MOL0     C11840   6.814  -0.144   9.953 -0.2434 -0.0390  0.0351
  829MOL0     C11841   6.906  -0.144  10.073 -1.4285 -1.4116  0.3238
  829MOL0     C11842   6.957  -0.283  10.117  0.7311 -0.4758  0.1091
  829MOL0     C11843   7.076  -0.325  10.028 -0.2888  0.6569  1.0584
  829MOL0     C11844   7.075  -0.460   9.974  0.4529  0.5959 -0.5208
  829MOL0     C11845   7.087  -0.573   9.926 -0.6496  0.6968  0.3700
  829MOL0     C11846   6.463  -0.174   9.987  0.8010  0.2243 -0.1960
  829MOL0     C11847   6.332  -0.125   9.946  0.1524 -0.5492 -0.1923
  829MOL0     H11848   5.988  -0.093   9.622 -3.0371  0.0998 -2.7059
  829MOL0     H11849   5.784   0.013   9.505  0.0547 -0.4546  0.8060
  829MOL0     H11850   5.541   0.180   9.799  2.4319 -2.2967 -1.1872
  829MOL0     H11851   5.552   0.342   9.708  2.7318 -0.4350 -2.2712
  829MOL0     H11852   5.358   0.113   9.663 -0.6824  0.9116 -0.4928
  829MOL0     H11853   5.323   0.278   9.723 -1.6579 -1.6456  0.3891
  829MOL0     H11854   5.445   0.353   9.496 -0.6230  0.9439 -1.9550
  829MOL0     H11855   5.434   0.179   9.447 -1.6891  1.3841 -0.9150
  829MOL0     H11856   5.189   0.196   9.516  0.6958 -0.5441 -0.6186
  829MOL0     H11857   5.211   0.369   9.506  1.7431 -0.7138  1.7247
  829MOL0     H11858   5.280   0.173   9.264  0.0025  1.9603 -1.8414
  829MOL0     H11859   5.134   0.257   9.290 -0.4220 -0.3659 -0.3271
  829MOL0     H11860   5.280   0.470   9.280  0.1056 -0.8502  2.4933
  829MOL0     H11861   5.421   0.369   9.255  1.1783  0.5991 -2.1196
  829MOL0     H11862   5.265   0.276   9.050 -1.6411  1.1035 -1.0067
  829MOL0     H11863   5.185   0.430   9.097  0.4849  1.1620  3.3280
  829MOL0     H11864   5.471   0.381   9.011 -0.2768 -0.4015  2.4230
  829MOL0     H11865   5.423   0.537   9.057  3.4301 -3.1947  3.1162
  829MOL0     H11866   5.157   0.610   8.913 -1.7654 -2.0930  0.2523
  829MOL0     H11867   5.149   0.793   8.687 -1.1897  0.8636 -0.6846
  829MOL0     H11868   5.196   0.705   8.537 -1.2960  0.8618 -0.5423
  829MOL0     H11869   4.986   0.575   8.705 -0.4152 -0.3007  0.1157
  829MOL0     H11870   5.007   0.567   8.530 -2.3906  0.4273  0.0310
  829MOL0     H11871   4.909   0.777   8.500  1.3961  0.4496  0.7781
  829MOL0     H11872   4.889   0.802   8.681  0.8330 -0.6710  0.9902
  829MOL0     H11873   4.765   0.571   8.543 -1.6896 -1.3087  1.3876
  829MOL0     H11874   4.671   0.717   8.586  0.4078  1.1669 -0.9857
  829MOL0     H11875   4.547   0.505   8.622  0.6662  0.1530 -0.3038
  829MOL0     H11876   4.331   0.292   8.739  1.3314  0.7248  1.1843
  829MOL0     H11877   4.226   0.435   8.719 -0.6525  0.0396 -3.4416
  829MOL0     H11878   4.360   0.399   8.599  4.8092  2.4382  0.6805
  829MOL0     H11879   3.982   0.634   9.047  0.8144 -0.6954  0.0432
  829MOL0     H11880   3.750   0.568   9.060 -1.0681 -0.2757 -0.7911
  829MOL0     H11881   3.575   0.467   9.120  0.1363  2.0553 -1.1257
  829MOL0     H11882   3.521   0.448   8.951 -1.2324 -2.7861 -0.2758
  829MOL0     H11883   3.421   0.235   9.010 -1.9890 -1.0793  1.3771
  829MOL0     H11884   3.481   0.236   9.176 -1.5070  0.7691  2.0559
  829MOL0     H11885   3.300   0.440   9.053  0.8346 -1.1209  0.1181
  829MOL0     H11886   3.337   0.426   9.231 -0.3183 -1.3451  0.9614
  829MOL0     H11887   3.205   0.201   9.067  0.3107 -1.4473  0.7219
  829MOL0     H11888   3.227   0.226   9.244  3.1781  2.8960  0.2141
  829MOL0     H11889   3.052   0.396   9.058  0.5157  1.6690 -0.3775
  829MOL0     H11890   3.093   0.451   9.221  1.0680 -0.1620 -0.5347
  829MOL0     H11891   2.941   0.189   9.148 -1.0857 -0.0277  2.4291
  829MOL0     H11892   2.957   0.232   9.311 -0.3677  1.2777  0.5156
  829MOL0     H11893   2.821   0.417   9.115  2.6291  0.4511 -0.4861
  829MOL0     H11894   2.828   0.434   9.289 -3.5532  0.7374 -1.0568
  829MOL0     H11895   2.710   0.175   9.183  1.8061 -0.4077  0.8254
  829MOL0     H11896   2.615   0.332   9.184 -0.8674 -0.7854 -1.5248
  829MOL0     H11897   3.861   0.160   8.964  1.5463 -0.4269  1.7066
  829MOL0     H11898   4.101   0.245   8.925 -0.2447 -0.8722  0.4453
  829MOL0     H11899   4.491   0.561   9.108 -2.4940  1.7860 -0.4679
  829MOL0     H11900   4.707   0.633   8.990  0.8903 -1.8112 -1.3249
  829MOL0     H11901   5.750   0.277   9.849 -4.1319 -3.1197  0.6926
  829MOL0     H11902   5.948   0.204   9.938 -2.1783  1.4653 -0.7620
  829MOL0     H11903   6.456   0.005   9.642 -0.8722 -0.7880  0.4416
  829MOL0     H11904   6.671  -0.077   9.745 -0.7000  0.9659  0.7060
  829MOL0     H11905   6.854  -0.214   9.879 -1.6234 -2.0851  1.1174
  829MOL0     H11906   6.807  -0.040   9.920 -0.4085  0.7294  2.2909
  829MOL0     H11907   6.848  -0.105  10.157  1.9123 -0.2626  2.2995
  829MOL0     H11908   6.988  -0.074  10.053 -1.7939 -0.7774  1.0225
  829MOL0     H11909   6.883  -0.363  10.114  2.1848 -1.8664 -0.1585
  829MOL0     H11910   6.995  -0.263  10.218 -2.3138 -0.3055  1.3137
  829MOL0     H11911   7.173  -0.301  10.073 -0.1493 -1.3613  1.9667
  829MOL0     H11912   7.076  -0.259   9.941 -2.3798 -0.0936  0.4472
  829MOL0     H11913   7.090  -0.674   9.890  0.0731  0.5847  0.7324
  829MOL0     H11914   6.470  -0.229  10.081 -1.9280 -2.1575 -1.2410
  829MOL0     H11915   6.243  -0.137  10.007  0.8481  1.4681  1.3472
  830MOL0     O11916   0.681   1.844   7.394 -0.8530  0.4517  0.0713
  830MOL0     C11917   0.694   1.962   7.380  0.1732  1.2336  0.6978
  830MOL0     O11918   0.778   2.030   7.293 -0.1561  0.0665  0.2263
  830MOL0     C11919   0.892   1.970   7.247 -0.6173  0.4137 -0.2480
  830MOL0     C11920   0.941   1.991   7.121 -0.2712  0.5578  0.0110
  830MOL0     C11921   1.056   1.922   7.066 -0.0590  0.3767  0.4305
  830MOL0     C11922   1.123   1.824   7.149  0.2637  0.5231  0.2675
  830MOL0     O11923   1.236   1.756   7.107 -0.2756 -0.0369  0.3302
  830MOL0     C11924   1.282   1.635   7.164  0.2055  0.0197  0.3026
  830MOL0     C11925   1.395   1.579   7.082 -0.2409 -0.3925  0.1857
  830MOL0     C11926   1.460   1.453   7.151 -0.2318 -0.0968  0.3956
  830MOL0     C11927   1.569   1.397   7.054 -0.1440  0.1298 -0.0477
  830MOL0     C11928   1.649   1.271   7.097 -0.2999  0.1943 -0.2911
  830MOL0     C11929   1.776   1.253   7.012 -0.6419 -1.1192 -0.8151
  830MOL0     C11930   1.867   1.138   7.043 -0.2272  1.4607  0.3992
  830MOL0     C11931   1.976   1.173   7.146 -0.2289 -0.0678  0.1153
  830MOL0     N11932   2.085   1.075   7.157 -0.0140  0.4221  0.3783
  830MOL0     C11933   2.089   0.946   7.103  0.1562  0.8577 -0.4293
  830MOL0     C11934   2.216   0.904   7.121  0.0411 -0.1051 -0.4488
  830MOL0     C11935   2.276   0.771   7.092  0.4218  1.0562  0.3521
  830MOL0     C11936   2.412   0.784   7.009 -0.8732  0.4696  0.3450
  830MOL0     C11937   2.404   0.872   6.888  0.3475  0.1062 -0.1100
  830MOL0     C11938   2.389   0.770   6.767  0.7518  0.4242 -0.4032
  830MOL0     O11939   2.340   0.827   6.640 -0.4234  0.6891 -0.7492
  830MOL0     C11940   2.203   0.839   6.613 -0.6239 -0.4528 -0.6926
  830MOL0     C11941   2.167   0.888   6.486  0.7483  0.2631 -0.1048
  830MOL0     C11942   2.033   0.908   6.450 -0.0986 -0.9869  0.3379
  830MOL0     C11943   1.998   0.966   6.313  0.0924  0.1729 -0.1256
  830MOL0     C11944   1.931   0.893   6.548  0.5900  0.0717  0.1604
  830MOL0     C11945   1.782   0.919   6.528  0.1068  0.3327 -0.9509
  830MOL0     O11946   1.705   0.904   6.642 -0.3510  0.2633  0.2940
  830MOL0     C11947   1.580   0.953   6.662 -0.5738  0.6754 -1.1473
  830MOL0     C11948   1.482   0.951   6.566  0.9591 -0.2657  0.2023
  830MOL0     C11949   1.351   0.988   6.600  0.6320 -0.4158 -0.1309
  830MOL0     C11950   1.307   1.023   6.729 -0.4055 -0.4973  0.0900
  830MOL0     O11951   1.171   1.016   6.770  0.5237 -0.0150 -0.5643
  830MOL0     C11952   1.063   0.991   6.681  0.3118 -0.5084  0.0105
  830MOL0     C11953   0.931   0.983   6.774  0.3496 -1.0452  0.2447
  830MOL0     C11954   0.824   0.905   6.702 -0.5964  0.3460  0.4587
  830MOL0     C11955   0.691   0.873   6.779  0.5955  0.0715 -0.7057
  830MOL0     C11956   0.602   0.770   6.713  0.4790 -0.8288 -0.2527
  830MOL0     C11957   0.446   0.798   6.743 -1.0910 -0.3874  0.6958
  830MOL0     C11958   0.355   0.706   6.662  1.0206  0.3212 -0.6765
  830MOL0     C11959   0.329   0.566   6.729 -0.6062 -0.6497  0.2534
  830MOL0    Cl11960   0.461   0.448   6.724 -0.1411 -0.3255 -0.1440
  830MOL0     C11961   1.411   1.015   6.822 -0.0475  0.1876 -0.9516
  830MOL0     C11962   1.542   0.987   6.793 -0.3121 -0.0778  0.2165
  830MOL0     O11963   1.747   0.974   6.428 -1.2905 -0.5411 -0.1984
  830MOL0     C11964   1.967   0.842   6.679  0.0152 -0.3047 -0.4945
  830MOL0     C11965   2.106   0.822   6.713 -0.3184  0.1169 -0.9163
  830MOL0     N11966   2.287   1.014   7.182 -0.2036  0.1527  0.0338
  830MOL0     N11967   2.206   1.111   7.218 -0.5790 -0.2024  0.2918
  830MOL0     C11968   1.069   1.802   7.271  0.4402 -0.0398 -0.0061
  830MOL0     C11969   0.961   1.879   7.324 -0.4846 -0.3828  0.1843
  830MOL0     C11970   0.595   2.039   7.450 -0.0274  0.2106  0.5074
  830MOL0     C11971   0.615   2.180   7.475 -0.6465  0.5530  0.6536
  830MOL0     C11972   0.524   2.243   7.559  0.5215  0.4869  0.5462
  830MOL0     C11973   0.413   2.184   7.620 -0.3366 -0.1156 -0.3862
  830MOL0     O11974   0.338   2.264   7.708  0.1765 -0.2216 -0.3094
  830MOL0     C11975   0.246   2.206   7.803 -0.1063 -0.0347 -0.2712
  830MOL0     C11976   0.158   2.300   7.874  0.0298  0.1971 -0.9722
  830MOL0     C11977   0.228   2.370   7.999 -0.2258 -0.4047  0.0771
  830MOL0     C11978   0.138   2.483   8.056  0.2985  0.3992  0.3875
  830MOL0     C11979  -0.004   2.442   8.086 -0.5355  0.3901  0.5633
  830MOL0     C11980  -0.112   2.406   8.126  0.4341  0.0628  0.8199
  830MOL0     C11981   0.397   2.051   7.603  0.6074  0.3472 -0.0511
  830MOL0     C11982   0.487   1.977   7.519  0.2867  0.4640  0.2288
  830MOL0     H11983   0.899   2.070   7.058 -1.4866  0.2310  0.3904
  830MOL0     H11984   1.090   1.940   6.964 -0.6981 -1.0685 -0.0797
  830MOL0     H11985   1.322   1.663   7.262  0.3343 -1.0855  0.5692
  830MOL0     H11986   1.199   1.565   7.156  3.0218 -3.3585 -3.5289
  830MOL0     H11987   1.356   1.551   6.984  0.3689  1.5345 -0.6597
  830MOL0     H11988   1.466   1.660   7.062 -2.2736  2.0668  2.1641
  830MOL0     H11989   1.519   1.478   7.240  1.6360  1.5756 -1.2144
  830MOL0     H11990   1.391   1.369   7.163  1.3979 -2.0673 -2.5868
  830MOL0     H11991   1.517   1.375   6.961 -1.6856 -1.5951  1.1521
  830MOL0     H11992   1.641   1.479   7.039 -1.0606  1.0673  0.5545
  830MOL0     H11993   1.681   1.276   7.202 -2.1228  0.6659  0.2725
  830MOL0     H11994   1.581   1.185   7.095  2.1379 -1.8819  0.5054
  830MOL0     H11995   1.750   1.233   6.907 -0.2335  1.4397 -1.4552
  830MOL0     H11996   1.830   1.347   7.026 -2.8667 -0.1111  1.7929
  830MOL0     H11997   1.807   1.057   7.084  0.3963  0.9367  0.2794
  830MOL0     H11998   1.911   1.110   6.947 -2.5613 -0.0337 -0.3219
  830MOL0     H11999   1.939   1.195   7.246  1.4097 -0.5645  0.8644
  830MOL0     H12000   2.030   1.261   7.111  0.1900 -0.5255 -0.4090
  830MOL0     H12001   2.011   0.876   7.074  0.3884  0.8387 -1.0079
  830MOL0     H12002   2.297   0.724   7.188  0.0940  0.3621  0.0914
  830MOL0     H12003   2.202   0.708   7.041  0.9499 -0.3799  1.2937
  830MOL0     H12004   2.444   0.683   6.986 -0.9722 -0.3198  3.2874
  830MOL0     H12005   2.487   0.829   7.074  0.8930 -1.4160 -0.3046
  830MOL0     H12006   2.494   0.933   6.877 -0.3871  1.7474  2.2874
  830MOL0     H12007   2.320   0.942   6.880 -0.8689 -1.4776 -2.5161
  830MOL0     H12008   2.335   0.678   6.792  1.4698 -0.1715 -1.0006
  830MOL0     H12009   2.484   0.720   6.747  0.7213  0.3862 -0.4553
  830MOL0     H12010   2.247   0.917   6.419  0.8964  4.1019  1.5050
  830MOL0     H12011   1.940   0.890   6.261  0.5133  0.2563 -0.7331
  830MOL0     H12012   1.943   1.060   6.321  0.8659  0.6629 -0.4428
  830MOL0     H12013   2.086   0.988   6.251 -2.0016  1.5962 -2.8166
  830MOL0     H12014   1.511   0.920   6.466  1.7374 -0.5626  0.5140
  830MOL0     H12015   1.283   0.979   6.516 -1.0897  0.9961  1.0601
  830MOL0     H12016   1.048   1.078   6.616  1.5639 -0.1087  0.2264
  830MOL0     H12017   1.089   0.898   6.630  0.2208  0.3474 -1.6990
  830MOL0     H12018   0.952   0.929   6.866 -0.8039 -3.3102 -0.7500
  830MOL0     H12019   0.878   1.074   6.802 -1.6611 -2.2807  0.6206
  830MOL0     H12020   0.869   0.811   6.669  1.0581  1.9583 -2.2532
  830MOL0     H12021   0.797   0.966   6.616 -0.5224 -1.2706 -0.7529
  830MOL0     H12022   0.709   0.831   6.878 -2.2795 -1.7459 -0.8549
  830MOL0     H12023   0.647   0.972   6.794  1.7937  0.4099  0.8361
  830MOL0     H12024   0.636   0.674   6.753 -2.4212 -0.3502  4.0094
  830MOL0     H12025   0.625   0.761   6.607  2.0277 -2.4398  0.1568
  830MOL0     H12026   0.420   0.795   6.850 -1.9924  1.2389  0.5517
  830MOL0     H12027   0.429   0.901   6.711  2.3093 -0.1519 -0.7259
  830MOL0     H12028   0.403   0.681   6.567  1.0796 -0.5214 -0.4377
  830MOL0     H12029   0.260   0.759   6.648 -0.3682 -2.1583 -1.2275
  830MOL0     H12030   0.253   0.521   6.664  1.1173 -0.4994 -1.9881
  830MOL0     H12031   0.292   0.584   6.830 -0.1127 -0.0039  0.3205
  830MOL0     H12032   1.386   1.031   6.926  0.3908 -2.7091 -0.3057
  830MOL0     H12033   1.619   0.991   6.870 -0.8167  0.1970  0.7234
  830MOL0     H12034   1.890   0.811   6.749 -1.9891 -0.1724 -2.5223
  830MOL0     H12035   2.122   0.791   6.816  2.4951  0.2611 -1.2173
  830MOL0     H12036   1.105   1.735   7.348 -1.6439 -0.7323  0.4308
  830MOL0     H12037   0.941   1.864   7.430  1.0073  0.4048  0.6071
  830MOL0     H12038   0.697   2.241   7.441 -1.0454  0.0094 -1.4178
  830MOL0     H12039   0.533   2.351   7.565  0.0000  0.5373  0.4195
  830MOL0     H12040   0.190   2.132   7.744  0.4206  1.3747 -2.6486
  830MOL0     H12041   0.306   2.162   7.883  0.8765  4.0697  1.4799
  830MOL0     H12042   0.063   2.252   7.902  1.0960 -2.0299 -0.9415
  830MOL0     H12043   0.131   2.389   7.815 -0.6039  0.0153 -0.9659
  830MOL0     H12044   0.330   2.397   7.971  0.1568 -1.4696  0.4202
  830MOL0     H12045   0.246   2.294   8.076 -0.9623  0.8207  1.5088
  830MOL0     H12046   0.133   2.566   7.985  0.0751 -0.0561 -0.1318
  830MOL0     H12047   0.179   2.526   8.148 -0.4049  1.2250  0.3310
  830MOL0     H12048  -0.202   2.363   8.164 -1.1097  1.5853 -0.9239
  830MOL0     H12049   0.322   1.984   7.644 -3.0038  2.7427 -2.1614
  830MOL0     H12050   0.468   1.870   7.514 -3.3584  0.8769  2.0004
  831MOL0     O12051   8.854   7.033   8.999  0.0881  0.2497  0.7696
  831MOL0     C12052   8.768   7.110   9.028 -0.6099  0.2289  0.0190
  831MOL0     O12053   8.760   7.195   9.129 -0.3877 -0.0967 -0.5037
  831MOL0     C12054   8.873   7.229   9.192  0.4967 -0.1861 -0.5451
  831MOL0     C12055   8.999   7.257   9.136  1.0736 -0.7717  0.2622
  831MOL0     C12056   9.106   7.313   9.210  0.7073 -0.1392 -0.0516
  831MOL0     C12057   9.090   7.322   9.350 -1.2335 -0.5212  0.5428
  831MOL0     O12058   9.212   7.352   9.423  1.1142  0.4351 -0.9922
  831MOL0     C12059   9.201   7.397   9.564 -0.6159 -0.2748 -0.1707
  831MOL0     C12060   9.342   7.443   9.609  0.2061 -0.1841 -0.1647
  831MOL0     C12061   9.453   7.343   9.561 -0.6160 -0.6439  0.2536
  831MOL0     C12062   9.434   7.198   9.604  0.8689 -0.1498  0.3540
  831MOL0     C12063   9.486   7.175   9.750 -0.0364 -0.7223  0.0588
  831MOL0     C12064   9.446   7.040   9.807  0.2132 -0.1880  0.1609
  831MOL0     C12065   9.523   6.994   9.935  0.0561 -0.4618  0.5832
  831MOL0     C12066   9.484   6.850   9.979 -0.7543  0.3537 -0.3255
  831MOL0     N12067   9.343   6.846  10.016  0.0346  0.0532 -1.0712
  831MOL0     C12068   9.246   6.775   9.954  0.5200 -0.5372  0.0700
  831MOL0     C12069   9.131   6.780  10.029 -0.1676 -0.6575  0.3013
  831MOL0     C12070   9.003   6.710  10.009  0.0875 -0.0492  0.3169
  831MOL0     C12071   9.018   6.560  10.011  0.0484 -0.4486  0.6994
  831MOL0     C12072   9.012   6.510  10.155 -0.5173 -0.5797  0.3694
  831MOL0     C12073   9.077   6.369  10.168  0.7392  0.1852 -0.0472
  831MOL0     O12074   9.024   6.279  10.069 -0.3331  0.6416  0.9819
  831MOL0     C12075   8.884   6.253  10.067 -0.8106 -0.4362 -0.0504
  831MOL0     C12076   8.819   6.194  10.179 -0.2500 -0.4426  0.3580
  831MOL0     C12077   8.679   6.180  10.182  0.7876 -0.3203 -0.5193
  831MOL0     C12078   8.624   6.117  10.304  0.3460  0.1896 -0.2567
  831MOL0     C12079   8.604   6.226  10.073  0.1963 -1.2065  0.1612
  831MOL0     C12080   8.455   6.222  10.067  0.5050  0.6049  0.1169
  831MOL0     O12081   8.399   6.291   9.963 -0.0396  0.7788 -0.3806
  831MOL0     C12082   8.263   6.300   9.961 -0.2273  0.7449 -0.9261
  831MOL0     C12083   8.190   6.374  10.042 -0.5654  0.1711 -0.4316
  831MOL0     C12084   8.043   6.370  10.032 -0.0855 -1.0318  0.5971
  831MOL0     C12085   7.984   6.306   9.921  0.5720 -0.2899 -0.1545
  831MOL0     O12086   7.846   6.304   9.934  0.2421  0.2332 -0.4859
  831MOL0     C12087   7.778   6.182   9.886 -0.3277 -0.5196 -0.7868
  831MOL0     C12088   7.629   6.183   9.921  0.0417  0.4235 -0.8901
  831MOL0     C12089   7.555   6.295   9.848  0.9587 -0.7512 -0.2115
  831MOL0     C12090   7.418   6.306   9.917  0.3009 -0.5699  0.3034
  831MOL0     C12091   7.318   6.363   9.815  0.0783  0.6730  0.2507
  831MOL0     C12092   7.165   6.367   9.862 -0.8050 -0.0657 -0.1196
  831MOL0     C12093   7.152   6.460   9.977 -0.2096  0.3314  0.2209
  831MOL0     C12094   7.018   6.465  10.053  0.4903  0.2881 -0.7612
  831MOL0    Cl12095   6.896   6.548   9.940  0.0608  0.6341 -0.2370
  831MOL0     C12096   8.060   6.239   9.826  0.5957  0.0923  0.0338
  831MOL0     C12097   8.202   6.239   9.849  0.9350 -0.2358 -0.6585
  831MOL0     O12098   8.384   6.171  10.156 -0.4651  0.2228  0.2140
  831MOL0     C12099   8.672   6.270   9.953 -0.5282 -0.0046 -0.0066
  831MOL0     C12100   8.812   6.295   9.957  1.1872  0.8607  0.1616
  831MOL0     N12101   9.163   6.845  10.142  0.0692 -0.2187 -0.6130
  831MOL0     N12102   9.296   6.879  10.143  0.1628  0.0481  0.3297
  831MOL0     C12103   8.971   7.286   9.407  0.5016  0.4068  0.0154
  831MOL0     C12104   8.862   7.247   9.331  0.2825 -0.0551 -0.1757
  831MOL0     C12105   8.644   7.086   8.951  0.2062  0.0610 -0.8584
  831MOL0     C12106   8.563   7.193   8.909  0.8355 -0.4959 -1.0496
  831MOL0     C12107   8.468   7.164   8.806 -0.5336  1.5397  0.3377
  831MOL0     C12108   8.446   7.028   8.769  0.4587 -0.2251 -0.1072
  831MOL0     O12109   8.361   6.987   8.667  0.2838 -0.2278 -0.3105
  831MOL0     C12110   8.395   7.055   8.544  0.3804 -0.2528 -0.3581
  831MOL0     C12111   8.255   7.096   8.495 -0.1760  0.5658 -0.7797
  831MOL0     C12112   8.280   7.170   8.366 -0.2902 -0.1144  0.1908
  831MOL0     C12113   8.171   7.287   8.344  0.6580  0.2406 -0.1547
  831MOL0     C12114   8.040   7.233   8.306 -0.1111  0.4773 -0.8465
  831MOL0     C12115   7.934   7.189   8.281  0.5533  0.2497 -0.0620
  831MOL0     C12116   8.520   6.926   8.819  0.1173 -0.1024 -0.2205
  831MOL0     C12117   8.619   6.948   8.909 -1.0456  0.1371  0.4280
  831MOL0     H12118   9.015   7.251   9.029  0.1446  1.6715 -0.0856
  831MOL0     H12119   9.199   7.348   9.168  0.4779  0.2010 -0.2853
  831MOL0     H12120   9.133   7.480   9.582 -0.4891 -0.0937 -0.5146
  831MOL0     H12121   9.171   7.314   9.628 -1.4425  0.7916  0.8662
  831MOL0     H12122   9.362   7.542   9.565 -0.2728 -0.1953 -0.4258
  831MOL0     H12123   9.340   7.449   9.718 -2.1708  0.7709 -0.1953
  831MOL0     H12124   9.470   7.351   9.453  1.1092  2.2614  0.6183
  831MOL0     H12125   9.552   7.372   9.598 -0.3217  0.8892 -1.5474
  831MOL0     H12126   9.327   7.176   9.601  0.1286  2.9479 -0.6013
  831MOL0     H12127   9.488   7.124   9.545  0.4001  0.5738 -1.0286
  831MOL0     H12128   9.594   7.183   9.766 -0.1845 -1.1774  1.4080
  831MOL0     H12129   9.445   7.254   9.813  1.9134  0.2769  0.1674
  831MOL0     H12130   9.340   7.037   9.834  0.0972 -1.3551 -0.3367
  831MOL0     H12131   9.452   6.950   9.744 -2.7739  0.9570 -1.9939
  831MOL0     H12132   9.629   7.004   9.909 -0.0395  0.5765  0.5492
  831MOL0     H12133   9.499   7.065  10.015  4.9918 -0.9157  2.8201
  831MOL0     H12134   9.556   6.823  10.057  0.1506  1.9372 -0.5665
  831MOL0     H12135   9.508   6.786   9.894  1.7155  1.8259 -0.8221
  831MOL0     H12136   9.247   6.732   9.854  0.3353 -2.1899  0.7570
  831MOL0     H12137   8.929   6.737  10.084 -0.0999  1.0141 -0.2361
  831MOL0     H12138   8.958   6.734   9.913 -0.7766 -1.8513  0.2186
  831MOL0     H12139   9.111   6.529   9.962 -0.3352  0.2498 -0.5293
  831MOL0     H12140   8.933   6.518   9.954  1.0186  1.0163 -2.0303
  831MOL0     H12141   8.911   6.484  10.187  0.3393 -1.8196  2.2169
  831MOL0     H12142   9.054   6.584  10.224 -0.3574  1.8418 -2.1536
  831MOL0     H12143   9.067   6.326  10.268  1.5481 -0.5407 -0.2709
  831MOL0     H12144   9.184   6.373  10.148  0.2967  0.1609 -2.8690
  831MOL0     H12145   8.888   6.158  10.254  0.9193 -0.5996 -0.7491
  831MOL0     H12146   8.562   6.029  10.286  0.2141 -0.1419  1.6121
  831MOL0     H12147   8.706   6.072  10.362  0.4226 -4.1498 -3.2329
  831MOL0     H12148   8.571   6.185  10.371 -0.3005 -0.2999 -0.2616
  831MOL0     H12149   8.241   6.409  10.131  0.8869 -2.0976 -0.2814
  831MOL0     H12150   7.982   6.419  10.108  0.1263 -1.4514  1.0378
  831MOL0     H12151   7.797   6.157   9.781  0.6512  0.9798 -0.9936
  831MOL0     H12152   7.815   6.100   9.949 -0.0282  0.6304  0.5796
  831MOL0     H12153   7.589   6.087   9.887 -1.2937  1.1003 -1.3146
  831MOL0     H12154   7.622   6.206  10.028  1.2789  1.0296 -0.9347
  831MOL0     H12155   7.537   6.283   9.741 -0.5220  3.8429 -0.6868
  831MOL0     H12156   7.617   6.386   9.847  2.0631 -1.4811 -1.3682
  831MOL0     H12157   7.397   6.202   9.945 -0.2016 -0.6453 -0.3325
  831MOL0     H12158   7.430   6.365  10.009  0.4422  0.6578 -0.4788
  831MOL0     H12159   7.311   6.301   9.725 -1.9075 -0.8827  1.4099
  831MOL0     H12160   7.356   6.462   9.786  0.9207  0.4772  0.6559
  831MOL0     H12161   7.109   6.405   9.776 -0.8804 -1.9208 -0.9389
  831MOL0     H12162   7.142   6.265   9.894 -1.8386 -0.2311 -1.2940
  831MOL0     H12163   7.170   6.562   9.941  1.8166  0.3383  1.1377
  831MOL0     H12164   7.227   6.437  10.054 -0.0553 -2.8683 -0.7332
  831MOL0     H12165   7.027   6.521  10.147  1.9691 -0.6072 -0.3394
  831MOL0     H12166   6.983   6.364  10.078 -1.2653  1.1471  0.5036
  831MOL0     H12167   8.033   6.197   9.730 -0.5248  2.3420 -0.7266
  831MOL0     H12168   8.261   6.183   9.777 -0.4467  1.3301 -3.1164
  831MOL0     H12169   8.611   6.306   9.871  1.7248  0.0778 -1.7560
  831MOL0     H12170   8.864   6.335   9.871  0.3631  0.9323 -0.3145
  831MOL0     H12171   8.944   7.291   9.512 -0.3291 -0.5283 -0.1369
  831MOL0     H12172   8.765   7.217   9.372  0.7966 -0.2572  0.9375
  831MOL0     H12173   8.584   7.292   8.948  0.3070 -1.1939  1.1648
  831MOL0     H12174   8.413   7.245   8.760 -0.8350  0.1547 -1.8887
  831MOL0     H12175   8.458   7.143   8.559 -0.3479  0.4913 -1.4723
  831MOL0     H12176   8.440   6.983   8.475  2.2959 -0.9530  1.5062
  831MOL0     H12177   8.198   7.164   8.559  0.4998  1.0380 -0.6671
  831MOL0     H12178   8.185   7.014   8.474 -2.4098  2.6724 -2.0209
  831MOL0     H12179   8.288   7.109   8.275  0.8709  0.4391 -0.0899
  831MOL0     H12180   8.374   7.225   8.358  0.1751 -1.0980 -2.1738
  831MOL0     H12181   8.209   7.362   8.274  0.7164 -1.5428 -2.1401
  831MOL0     H12182   8.161   7.340   8.439  2.3556  1.2816 -0.5111
  831MOL0     H12183   7.833   7.158   8.261  0.1056  1.0295  0.9004
  831MOL0     H12184   8.507   6.831   8.768 -1.3211  0.1986 -0.4718
  831MOL0     H12185   8.681   6.866   8.944  1.7474  3.2549  3.6361
  832MOL0     O12186   3.284   7.138   6.900 -0.2464  0.4687  0.3809
  832MOL0     C12187   3.251   7.257   6.904 -0.1543 -0.1973 -0.1979
  832MOL0     O12188   3.337   7.365   6.914 -0.4620 -0.2995  0.1617
  832MOL0     C12189   3.467   7.340   6.918  0.5917 -0.0797 -0.7119
  832MOL0     C12190   3.529   7.395   7.031 -0.0420 -0.0788  0.0013
  832MOL0     C12191   3.655   7.348   7.059  1.0986  0.7276 -0.2141
  832MOL0     C12192   3.730   7.265   6.969 -0.2403 -0.1301 -0.6125
  832MOL0     O12193   3.864   7.234   6.989  0.1953  0.2929 -0.0631
  832MOL0     C12194   3.955   7.326   7.037 -0.0777 -0.0085  0.2867
  832MOL0     C12195   4.094   7.287   7.001  0.6189  0.3848 -0.7507
  832MOL0     C12196   4.198   7.400   7.036  0.0186  1.2403 -0.6246
  832MOL0     C12197   4.335   7.325   7.029 -0.0501  1.3336  0.0602
  832MOL0     C12198   4.453   7.416   7.018  0.3224 -0.6891 -0.1462
  832MOL0     C12199   4.486   7.469   6.882  0.6063 -0.0214 -0.6267
  832MOL0     C12200   4.538   7.360   6.786  0.1198 -0.2091 -0.4219
  832MOL0     C12201   4.541   7.389   6.633  0.1833 -0.2623  0.0989
  832MOL0     N12202   4.426   7.337   6.567  0.5324 -0.0001 -0.9526
  832MOL0     C12203   4.309   7.402   6.568 -0.3502  0.1449  0.3289
  832MOL0     C12204   4.226   7.315   6.504  0.9903 -0.2740 -0.1623
  832MOL0     C12205   4.084   7.353   6.476  0.3849 -0.7323 -0.9514
  832MOL0     C12206   4.009   7.364   6.611  0.1370  0.9457 -0.6188
  832MOL0     C12207   3.874   7.420   6.596 -0.5530 -0.4009 -0.1506
  832MOL0     C12208   3.862   7.573   6.572  0.4495 -0.0149 -1.5550
  832MOL0     O12209   3.740   7.603   6.486  1.0121 -0.0697  0.1294
  832MOL0     C12210   3.620   7.636   6.555  0.0316 -0.5820  0.1370
  832MOL0     C12211   3.530   7.708   6.476 -0.8957 -0.2893  0.5812
  832MOL0     C12212   3.409   7.749   6.529 -0.5035  0.6638 -0.6185
  832MOL0     C12213   3.328   7.839   6.440 -0.7288  0.2691  0.0437
  832MOL0     C12214   3.384   7.706   6.660 -0.6653 -0.4395 -0.7389
  832MOL0     C12215   3.260   7.748   6.736  0.3024  0.6393  0.0615
  832MOL0     O12216   3.166   7.804   6.671  0.5157  0.8064 -0.4181
  832MOL0     C12217   3.040   7.827   6.732 -0.3879  1.3916 -0.5987
  832MOL0     C12218   3.026   7.911   6.846 -0.5276 -0.3826  0.2651
  832MOL0     C12219   2.905   7.919   6.908  0.4983 -0.9736 -0.1914
  832MOL0     C12220   2.794   7.850   6.863  0.2390  0.0667 -0.4386
  832MOL0     O12221   2.667   7.865   6.920 -0.3025 -0.5078  0.0128
  832MOL0     C12222   2.642   7.755   7.004 -0.0761  0.3441  0.1868
  832MOL0     C12223   2.494   7.751   7.049 -0.1616  0.0961  0.3260
  832MOL0     C12224   2.405   7.745   6.931  1.0290 -0.1098  0.2396
  832MOL0     C12225   2.259   7.743   6.972 -0.2138 -0.6052 -0.6736
  832MOL0     C12226   2.180   7.619   6.936  0.1607 -1.0403  0.2869
  832MOL0     C12227   2.040   7.611   6.995  0.2040  0.2218  0.7933
  832MOL0     C12228   1.966   7.474   6.954  0.0869  0.2882  0.3882
  832MOL0     C12229   1.838   7.456   7.043 -0.4990 -0.0958 -0.5458
  832MOL0    Cl12230   1.878   7.420   7.217  0.4955  0.2973  0.4846
  832MOL0     C12231   2.804   7.769   6.758  0.5454 -0.4831  0.3708
  832MOL0     C12232   2.927   7.760   6.691 -0.2900  0.1599 -0.0364
  832MOL0     O12233   3.254   7.729   6.859 -0.7481  0.1025 -0.2645
  832MOL0     C12234   3.472   7.639   6.737 -0.4926  0.0858  1.2234
  832MOL0     C12235   3.590   7.608   6.684 -1.1413 -0.6341 -1.2021
  832MOL0     N12236   4.289   7.198   6.471 -0.4483  1.2800  0.0186
  832MOL0     N12237   4.411   7.213   6.523  0.6796  0.3435  0.0451
  832MOL0     C12238   3.662   7.217   6.856 -0.2196 -0.7553 -0.1490
  832MOL0     C12239   3.533   7.256   6.825 -0.3691 -0.0020  0.0223
  832MOL0     C12240   3.115   7.284   6.910 -0.1697  0.0499 -0.6501
  832MOL0     C12241   3.074   7.412   6.954 -0.3866 -0.8924  0.8139
  832MOL0     C12242   2.938   7.447   6.954  0.2357 -0.2037 -0.1075
  832MOL0     C12243   2.835   7.351   6.926 -0.3299 -0.2868  0.7192
  832MOL0     O12244   2.703   7.395   6.941 -0.6908 -0.5205 -0.4755
  832MOL0     C12245   2.603   7.296   6.955 -0.0917  0.3537  0.5238
  832MOL0     C12246   2.466   7.360   6.949  0.6553 -0.4002 -0.0356
  832MOL0     C12247   2.408   7.356   6.806  0.7267  0.1880  1.1299
  832MOL0     C12248   2.359   7.214   6.765  0.3513 -0.0685 -0.1718
  832MOL0     C12249   2.231   7.185   6.828  0.2877 -0.0542  0.4761
  832MOL0     C12250   2.134   7.142   6.890 -0.2355  0.4342 -0.4638
  832MOL0     C12251   2.878   7.220   6.899 -0.3198  0.3390  0.3413
  832MOL0     C12252   3.015   7.186   6.895 -0.1081  0.0668 -0.0068
  832MOL0     H12253   3.459   7.441   7.100 -1.3789 -1.5933 -0.3095
  832MOL0     H12254   3.695   7.377   7.156 -2.7108  3.7964  0.6908
  832MOL0     H12255   3.940   7.425   6.994  2.9919  0.4071 -0.0709
  832MOL0     H12256   3.936   7.346   7.143 -0.7384  4.0596 -0.4226
  832MOL0     H12257   4.122   7.189   7.041 -3.2937 -0.7318 -0.2685
  832MOL0     H12258   4.096   7.274   6.892 -0.0052 -0.1795 -0.7048
  832MOL0     H12259   4.205   7.472   6.954  1.5603  0.6233 -1.0851
  832MOL0     H12260   4.194   7.463   7.125 -0.0185  4.0879 -2.5205
  832MOL0     H12261   4.358   7.267   7.119  1.1275  1.2994 -0.2559
  832MOL0     H12262   4.333   7.252   6.948  0.1072  2.9855 -1.4795
  832MOL0     H12263   4.421   7.505   7.073  0.6786 -1.6306  1.6511
  832MOL0     H12264   4.540   7.370   7.065 -2.0090 -3.5522  1.7227
  832MOL0     H12265   4.404   7.526   6.835  0.0012 -0.1016  0.3083
  832MOL0     H12266   4.555   7.553   6.897 -1.2066  1.7281 -1.5179
  832MOL0     H12267   4.643   7.343   6.807 -0.2459 -1.0512  0.8343
  832MOL0     H12268   4.495   7.260   6.797  1.5309 -0.8362 -0.4375
  832MOL0     H12269   4.618   7.333   6.579 -2.6822 -5.0924  0.3521
  832MOL0     H12270   4.551   7.497   6.620 -1.3438  0.1698  2.0483
  832MOL0     H12271   4.279   7.503   6.595 -3.4319  0.1139 -2.3440
  832MOL0     H12272   4.080   7.457   6.441 -0.3464  0.6631  2.8251
  832MOL0     H12273   4.040   7.285   6.403 -1.9807  1.5679 -1.7983
  832MOL0     H12274   4.069   7.422   6.682 -1.0087 -0.1442  1.3583
  832MOL0     H12275   3.993   7.267   6.660  0.0788 -0.2276 -2.8632
  832MOL0     H12276   3.813   7.398   6.684  2.7723  3.0763  3.4415
  832MOL0     H12277   3.828   7.378   6.506  0.8944  3.3458 -2.8763
  832MOL0     H12278   3.954   7.600   6.520 -0.1429  0.5029 -2.3694
  832MOL0     H12279   3.861   7.636   6.662 -0.4761 -4.2835  1.7248
  832MOL0     H12280   3.546   7.725   6.370 -2.3065  1.6426  0.6088
  832MOL0     H12281   3.381   7.848   6.345  0.7716  0.4420  0.8587
  832MOL0     H12282   3.228   7.796   6.431 -1.9435  2.8476  0.3854
  832MOL0     H12283   3.331   7.941   6.480  3.5266  0.8116 -1.1262
  832MOL0     H12284   3.107   7.979   6.868 -1.5251  1.2598 -0.8648
  832MOL0     H12285   2.894   7.981   6.996  0.4638  0.9237 -1.4675
  832MOL0     H12286   2.659   7.659   6.954  0.5530  0.4410  0.2104
  832MOL0     H12287   2.706   7.749   7.092  0.5308 -1.6654 -0.3207
  832MOL0     H12288   2.468   7.666   7.113 -0.6501  1.0651  1.4508
  832MOL0     H12289   2.475   7.835   7.116 -0.1067  0.0547  0.3931
  832MOL0     H12290   2.430   7.655   6.874  0.4083 -0.7745  1.0042
  832MOL0     H12291   2.414   7.840   6.875 -1.6060 -0.5219 -1.0283
  832MOL0     H12292   2.255   7.758   7.081 -0.6398  2.0439 -0.9879
  832MOL0     H12293   2.217   7.839   6.939 -0.3902  0.7333  2.8979
  832MOL0     H12294   2.242   7.534   6.967  2.9043 -0.1382 -2.1685
  832MOL0     H12295   2.171   7.612   6.827  1.3918 -2.7969  0.2507
  832MOL0     H12296   2.039   7.608   7.104 -2.9787 -0.6829  0.8427
  832MOL0     H12297   1.993   7.701   6.955  0.2904 -0.0159  0.1496
  832MOL0     H12298   2.027   7.385   6.970 -0.4208  0.0347  0.9320
  832MOL0     H12299   1.940   7.474   6.847 -1.2670  1.9169  0.6570
  832MOL0     H12300   1.779   7.366   7.025 -1.7889 -0.0602  2.6976
  832MOL0     H12301   1.772   7.543   7.031 -0.1644  0.1241 -0.8029
  832MOL0     H12302   2.724   7.716   6.707 -0.4752  0.6472  0.7479
  832MOL0     H12303   2.943   7.697   6.603 -0.2918 -0.4886  0.4202
  832MOL0     H12304   3.440   7.585   6.826  0.4772 -1.9040  0.4361
  832MOL0     H12305   3.646   7.533   6.739 -0.6799  0.3988 -0.2141
  832MOL0     H12306   3.719   7.155   6.787  3.4909  0.1179  1.8557
  832MOL0     H12307   3.496   7.222   6.729 -1.4638  1.1923 -0.0033
  832MOL0     H12308   3.147   7.490   6.975 -1.3019  0.6073 -1.2516
  832MOL0     H12309   2.912   7.548   6.985 -1.5647 -0.5092 -0.5332
  832MOL0     H12310   2.607   7.225   6.872  0.3669  3.4433 -2.3088
  832MOL0     H12311   2.626   7.242   7.048 -1.4373 -0.9165  0.1554
  832MOL0     H12312   2.477   7.468   6.965  1.4556 -0.3502 -0.8155
  832MOL0     H12313   2.399   7.311   7.019 -0.7034 -0.9564 -1.6677
  832MOL0     H12314   2.486   7.386   6.736 -0.9260  2.5367  0.1853
  832MOL0     H12315   2.320   7.420   6.799 -0.9853 -2.1046  0.4923
  832MOL0     H12316   2.423   7.130   6.792  1.5703  0.9707  0.2974
  832MOL0     H12317   2.356   7.213   6.655  1.8459  0.6273 -0.2526
  832MOL0     H12318   2.052   7.096   6.941  1.2172 -0.6289  1.0138
  832MOL0     H12319   2.795   7.150   6.893 -0.2187  0.3062 -0.9924
  832MOL0     H12320   3.030   7.079   6.886 -0.2663  0.0455 -0.0204
  833MOL0     O12321   8.888   4.677  11.304 -0.8872 -0.2209  0.1048
  833MOL0     C12322   8.896   4.758  11.211  0.5014 -0.5012 -0.1654
  833MOL0     O12323   8.798   4.800  11.132  0.0468 -0.4788 -0.2466
  833MOL0     C12324   8.676   4.772  11.172  0.2959  0.2093  0.2423
  833MOL0     C12325   8.614   4.815  11.288 -0.5595  0.1484 -0.3107
  833MOL0     C12326   8.484   4.779  11.318  0.9150  0.4001  0.4021
  833MOL0     C12327   8.399   4.716  11.235  1.1080 -0.5130 -0.9170
  833MOL0     O12328   8.277   4.687  11.291 -0.5500  0.2504 -0.6903
  833MOL0     C12329   8.183   4.607  11.217 -0.6799 -0.3390  0.5770
  833MOL0     C12330   8.051   4.585  11.294  0.5669 -0.9854 -0.3134
  833MOL0     C12331   7.966   4.714  11.260  0.0809 -0.2038 -0.8328
  833MOL0     C12332   7.820   4.688  11.306  0.1005  0.1308  0.2392
  833MOL0     C12333   7.710   4.783  11.255 -0.1997 -0.3728  0.5269
  833MOL0     C12334   7.666   4.897  11.350  0.3264  0.1513  0.1841
  833MOL0     C12335   7.504   4.915  11.369  0.2368 -0.4735 -0.4443
  833MOL0     C12336   7.425   4.940  11.248  0.3888  0.1568  0.3476
  833MOL0     N12337   7.287   4.965  11.302 -0.3170 -1.2580  1.1402
  833MOL0     C12338   7.206   4.866  11.351 -0.7860  0.1487  0.0791
  833MOL0     C12339   7.109   4.929  11.413 -0.0037 -0.8671  0.0622
  833MOL0     C12340   7.011   4.858  11.497  0.2496  0.3481  0.5955
  833MOL0     C12341   6.919   4.750  11.428 -0.6364  0.4048  0.9754
  833MOL0     C12342   6.841   4.661  11.529  1.0446  0.2059 -0.9448
  833MOL0     C12343   6.715   4.738  11.590 -0.7988  0.0735  0.2859
  833MOL0     O12344   6.625   4.754  11.486 -0.5732  0.2881 -0.6619
  833MOL0     C12345   6.575   4.877  11.457 -0.6825 -0.0312  0.0570
  833MOL0     C12346   6.644   4.995  11.431  1.1002  0.5748  0.3640
  833MOL0     C12347   6.585   5.117  11.424 -0.2102 -0.8312 -0.1588
  833MOL0     C12348   6.676   5.240  11.434  0.0671  0.3154 -0.3461
  833MOL0     C12349   6.446   5.124  11.411  0.7948  0.2144 -0.3979
  833MOL0     C12350   6.378   5.260  11.399  0.8402  0.4242 -0.0694
  833MOL0     O12351   6.254   5.271  11.466 -0.9121  0.2791  0.3016
  833MOL0     C12352   6.157   5.376  11.448 -0.0075  0.3547  0.6053
  833MOL0     C12353   6.147   5.471  11.340  0.2455 -0.1554 -1.2356
  833MOL0     C12354   6.040   5.562  11.332  0.3360  0.6549 -0.3940
  833MOL0     C12355   5.934   5.560  11.427 -0.3196 -0.0555  0.1359
  833MOL0     O12356   5.838   5.651  11.402  0.5231  0.4390 -0.1117
  833MOL0     C12357   5.749   5.690  11.514 -0.7062 -0.0160  0.2150
  833MOL0     C12358   5.630   5.589  11.522 -0.4938  0.4639 -0.4168
  833MOL0     C12359   5.512   5.644  11.444  1.0697 -0.0365 -0.2889
  833MOL0     C12360   5.400   5.538  11.469 -0.0002  0.0749  0.0736
  833MOL0     C12361   5.268   5.535  11.382  0.3094 -0.4109 -0.2555
  833MOL0     C12362   5.208   5.672  11.361 -0.9641  0.2032 -0.3554
  833MOL0     C12363   5.082   5.672  11.267 -0.4853  0.2644  0.6454
  833MOL0     C12364   5.057   5.823  11.234 -0.5620 -0.1826 -0.6234
  833MOL0    Cl12365   5.042   5.928  11.375  0.2272  0.0765 -0.0592
  833MOL0     C12366   5.947   5.477  11.537  0.5826  0.3240  0.1740
  833MOL0     C12367   6.052   5.385  11.541  0.3285  0.2651  0.2485
  833MOL0     O12368   6.431   5.341  11.324 -0.2117  0.2161  0.3704
  833MOL0     C12369   6.367   5.009  11.424 -1.9245  0.5037 -0.2586
  833MOL0     C12370   6.434   4.891  11.455  1.0121 -0.6065 -0.0070
  833MOL0     N12371   7.124   5.069  11.391 -0.3112  0.2272 -0.3870
  833MOL0     N12372   7.227   5.085  11.331  0.1672 -0.1012  0.4577
  833MOL0     C12373   8.448   4.690  11.097 -0.0346  0.4063 -0.9683
  833MOL0     C12374   8.583   4.719  11.074  0.1784 -0.2785 -0.9085
  833MOL0     C12375   9.030   4.811  11.186  0.3362  0.1193  0.9599
  833MOL0     C12376   9.137   4.761  11.250 -0.1396  0.1321  0.5926
  833MOL0     C12377   9.264   4.829  11.235 -0.0796  0.7503 -0.0773
  833MOL0     C12378   9.286   4.933  11.150  0.2515 -0.1364 -0.1336
  833MOL0     O12379   9.401   5.003  11.127 -0.4348  0.3331  0.1708
  833MOL0     C12380   9.510   4.990  11.225  0.9612  0.8099  0.0577
  833MOL0     C12381   9.470   5.034  11.368  1.0563 -0.4175  0.5307
  833MOL0     C12382   9.581   5.015  11.467 -0.3789 -0.9322  0.8607
  833MOL0     C12383   9.564   5.127  11.576 -0.1664  0.1558 -0.6545
  833MOL0     C12384   9.450   5.086  11.669 -0.1281  0.0557  0.0854
  833MOL0     C12385   9.351   5.057  11.737 -0.8153  0.9054  0.0078
  833MOL0     C12386   9.174   4.982  11.086  0.3169  0.0078  0.0725
  833MOL0     C12387   9.042   4.926  11.106 -0.1790  1.0897  0.3337
  833MOL0     H12388   8.674   4.885  11.344 -0.9396  0.3004 -0.0847
  833MOL0     H12389   8.441   4.817  11.410  1.5393  3.1143 -0.3326
  833MOL0     H12390   8.174   4.652  11.118 -0.4837 -1.1417  0.1852
  833MOL0     H12391   8.242   4.515  11.207  0.0716  0.1214  0.6854
  833MOL0     H12392   8.004   4.491  11.266 -1.9541 -0.0290  0.4447
  833MOL0     H12393   8.077   4.574  11.399 -1.0802 -0.5980  0.1621
  833MOL0     H12394   8.007   4.788  11.330  0.2165 -0.1136 -1.0089
  833MOL0     H12395   7.971   4.744  11.155  3.1248 -2.1170 -1.3545
  833MOL0     H12396   7.807   4.589  11.260  0.5183  0.9395 -1.7227
  833MOL0     H12397   7.818   4.676  11.414  0.4335 -1.6074  0.0806
  833MOL0     H12398   7.721   4.827  11.155 -2.2221  2.3207  1.3766
  833MOL0     H12399   7.622   4.717  11.250 -2.9997  3.1211 -1.2423
  833MOL0     H12400   7.703   4.889  11.453 -0.8974  5.2575  1.2675
  833MOL0     H12401   7.713   4.990  11.318  0.8985 -0.3248 -0.3832
  833MOL0     H12402   7.467   4.817  11.399  0.3745 -0.4384 -0.1551
  833MOL0     H12403   7.479   4.992  11.442  1.7403 -2.2523  2.1052
  833MOL0     H12404   7.430   4.850  11.185  0.3530  0.2661  0.1881
  833MOL0     H12405   7.450   5.024  11.183 -2.4185 -0.3324 -1.5568
  833MOL0     H12406   7.233   4.761  11.344 -0.2157  0.3396 -0.8418
  833MOL0     H12407   7.061   4.803  11.577  1.5046 -1.4070 -1.2670
  833MOL0     H12408   6.946   4.930  11.545  1.1375  0.3537  1.8374
  833MOL0     H12409   6.984   4.681  11.374  0.4400  1.5469  0.7618
  833MOL0     H12410   6.851   4.790  11.352  1.8829  0.7953 -1.2209
  833MOL0     H12411   6.908   4.626  11.608 -1.2118 -0.5681  0.7303
  833MOL0     H12412   6.813   4.570  11.475 -0.6648  0.8447 -1.2020
  833MOL0     H12413   6.753   4.828  11.640  2.5575 -0.2218 -1.4669
  833MOL0     H12414   6.657   4.677  11.659 -0.5525 -1.5676 -0.8904
  833MOL0     H12415   6.751   4.987  11.418  1.3413 -0.1701  2.3683
  833MOL0     H12416   6.670   5.304  11.346  0.8616  2.1305  0.8515
  833MOL0     H12417   6.652   5.293  11.527  0.4300 -0.6125  0.2851
  833MOL0     H12418   6.781   5.212  11.442 -0.2180 -1.1241 -1.3293
  833MOL0     H12419   6.226   5.473  11.266  0.5091  0.4323 -0.9427
  833MOL0     H12420   6.036   5.620  11.241  1.1865 -2.1905 -2.4031
  833MOL0     H12421   5.806   5.678  11.607 -1.2468 -1.0450  0.4240
  833MOL0     H12422   5.719   5.795  11.507 -4.0557 -0.7516  1.7021
  833MOL0     H12423   5.654   5.491  11.481  0.7563  1.5446 -2.4488
  833MOL0     H12424   5.605   5.578  11.628 -0.9991  0.4740 -0.5333
  833MOL0     H12425   5.533   5.651  11.337  3.0897 -0.1012  0.0677
  833MOL0     H12426   5.489   5.742  11.486 -0.8028 -1.0548  1.2259
  833MOL0     H12427   5.430   5.434  11.460 -3.1842 -0.8748 -0.9670
  833MOL0     H12428   5.381   5.557  11.575  3.5198  2.1886  0.4784
  833MOL0     H12429   5.194   5.468  11.427 -0.3569  0.4175 -0.0902
  833MOL0     H12430   5.292   5.494  11.283 -0.0240 -1.4591  0.0865
  833MOL0     H12431   5.180   5.716  11.457 -0.1660  0.4652 -0.2320
  833MOL0     H12432   5.282   5.742  11.319  0.1802 -1.3673 -1.0920
  833MOL0     H12433   4.997   5.632  11.322 -0.2239  0.4825  1.2151
  833MOL0     H12434   5.099   5.614  11.175 -0.4286 -0.4874  1.1233
  833MOL0     H12435   4.978   5.834  11.158 -1.3029  1.0860  0.2793
  833MOL0     H12436   5.142   5.872  11.186 -0.0001  0.9295  1.4016
  833MOL0     H12437   5.890   5.487  11.629  1.8528  0.5477  0.9499
  833MOL0     H12438   6.046   5.318  11.627  0.9612 -1.6573 -1.1333
  833MOL0     H12439   6.259   5.010  11.430 -2.1019 -3.2937 -0.5042
  833MOL0     H12440   6.390   4.795  11.480 -0.6757  0.1583  0.0833
  833MOL0     H12441   8.389   4.639  11.022 -3.6060 -0.3064  2.0371
  833MOL0     H12442   8.623   4.686  10.978 -0.8192 -3.4367 -0.3504
  833MOL0     H12443   9.114   4.675  11.312 -4.5276  0.1477 -0.6795
  833MOL0     H12444   9.342   4.792  11.301  0.8892  1.1500 -0.9713
  833MOL0     H12445   9.529   4.883  11.215  1.1209  0.9223 -0.9062
  833MOL0     H12446   9.600   5.047  11.201  2.5560 -0.6663  2.1439
  833MOL0     H12447   9.384   4.981  11.410 -0.3832  0.5391 -1.0357
  833MOL0     H12448   9.441   5.139  11.353  2.8805 -0.0118 -0.3847
  833MOL0     H12449   9.683   5.016  11.428  1.0121  2.7323  3.9325
  833MOL0     H12450   9.574   4.917  11.516 -0.9704 -0.5570  1.5391
  833MOL0     H12451   9.544   5.228  11.540 -2.5716  0.5918  1.6314
  833MOL0     H12452   9.656   5.132  11.635 -1.4861  0.9587  1.4527
  833MOL0     H12453   9.258   5.036  11.785 -0.4420 -1.7467 -0.2711
  833MOL0     H12454   9.173   5.056  11.007 -2.6902  0.6044  0.5492
  833MOL0     H12455   8.957   4.981  11.066 -0.4276  0.3918 -0.1194
  834MOL0     O12456   4.449   3.360   6.010 -0.6406 -0.7556  0.0551
  834MOL0     C12457   4.407   3.322   6.115  0.2694  0.2954 -1.1071
  834MOL0     O12458   4.303   3.375   6.187 -0.1601 -0.5841  0.2151
  834MOL0     C12459   4.224   3.465   6.129  0.5765 -0.6890  0.3875
  834MOL0     C12460   4.264   3.596   6.112 -0.0217  0.0884 -0.4239
  834MOL0     C12461   4.186   3.688   6.035 -0.5418 -0.2280 -0.2932
  834MOL0     C12462   4.062   3.660   5.986 -1.0280  0.8022  0.2821
  834MOL0     O12463   3.986   3.740   5.911  0.2295 -0.0052  0.6292
  834MOL0     C12464   4.050   3.861   5.873  0.2955 -0.2669 -0.7024
  834MOL0     C12465   4.007   3.911   5.733 -0.1064  0.7338  0.3145
  834MOL0     C12466   3.857   3.965   5.733  1.0350  0.0605 -0.5614
  834MOL0     C12467   3.829   4.042   5.604  0.3238 -0.0253  0.4628
  834MOL0     C12468   3.680   4.063   5.578  0.5124 -0.1440  0.1865
  834MOL0     C12469   3.657   4.124   5.437 -0.3366  0.1151  0.5333
  834MOL0     C12470   3.510   4.172   5.415 -0.5469  0.1954  0.4217
  834MOL0     C12471   3.490   4.243   5.280 -0.0358  0.2884 -0.4649
  834MOL0     N12472   3.347   4.280   5.260 -0.0006 -0.0603 -0.6169
  834MOL0     C12473   3.262   4.214   5.178 -0.8054 -0.6627  0.3721
  834MOL0     C12474   3.144   4.292   5.173  0.1622  0.3848  0.6984
  834MOL0     C12475   3.016   4.250   5.115 -0.5378  0.7550  0.3223
  834MOL0     C12476   2.925   4.188   5.228 -0.1105 -0.7299  0.1942
  834MOL0     C12477   2.786   4.139   5.180  0.7732  0.3809 -0.3459
  834MOL0     C12478   2.737   4.032   5.263 -0.1632 -0.0827  0.3666
  834MOL0     O12479   2.804   3.909   5.229 -0.6828  0.1253 -0.3611
  834MOL0     C12480   2.789   3.811   5.326 -0.4429 -0.6521 -0.5031
  834MOL0     C12481   2.903   3.787   5.408  0.9034  0.6563 -0.4428
  834MOL0     C12482   2.899   3.692   5.510  0.7442 -0.1289  0.2674
  834MOL0     C12483   3.032   3.672   5.566  0.2711  0.2434  0.0452
  834MOL0     C12484   2.781   3.609   5.528 -0.8310 -0.4858  0.0108
  834MOL0     C12485   2.774   3.497   5.619  0.3345 -0.5355 -0.1967
  834MOL0     O12486   2.652   3.435   5.621 -0.4797 -0.3329  0.6363
  834MOL0     C12487   2.610   3.358   5.722 -0.2473  0.9799 -0.0017
  834MOL0     C12488   2.483   3.299   5.708  0.8504  0.1833  0.4739
  834MOL0     C12489   2.430   3.223   5.809  0.1946 -0.0078 -0.0325
  834MOL0     C12490   2.497   3.199   5.931  0.3055 -0.2758 -0.2052
  834MOL0     O12491   2.442   3.106   6.012 -0.1923 -0.3219 -0.2068
  834MOL0     C12492   2.438   3.144   6.153  0.3180 -0.9472  0.4214
  834MOL0     C12493   2.326   3.073   6.230  1.2758  0.2976 -0.5184
  834MOL0     C12494   2.191   3.110   6.155  0.1002  0.3403 -0.6903
  834MOL0     C12495   2.072   3.025   6.202 -1.3102 -0.7155 -0.5178
  834MOL0     C12496   1.951   3.043   6.108 -0.3126 -0.1385 -0.1268
  834MOL0     C12497   1.831   2.947   6.130  0.2294  0.6387  0.0621
  834MOL0     C12498   1.704   2.971   6.057 -0.3617 -0.8153 -0.0894
  834MOL0     C12499   1.719   2.941   5.908 -0.8657 -0.0902 -0.3003
  834MOL0    Cl12500   1.566   2.950   5.825  0.0967  0.1675 -0.2048
  834MOL0     C12501   2.632   3.241   5.946 -0.3911 -0.2113 -0.6876
  834MOL0     C12502   2.681   3.317   5.842  0.2968 -0.7295  0.8123
  834MOL0     O12503   2.864   3.467   5.687  0.0167 -0.6247 -0.0347
  834MOL0     C12504   2.674   3.637   5.443 -0.3296  0.0177 -0.1078
  834MOL0     C12505   2.676   3.742   5.350 -0.1517 -0.0549  0.2302
  834MOL0     N12506   3.164   4.386   5.265 -0.1211 -0.2535  0.5882
  834MOL0     N12507   3.278   4.384   5.314 -0.4108 -0.6740  0.3600
  834MOL0     C12508   4.009   3.529   6.018 -0.1265 -0.8529 -0.1011
  834MOL0     C12509   4.091   3.436   6.085  0.2053 -0.0678 -0.0495
  834MOL0     C12510   4.477   3.204   6.174 -1.2312 -0.3946 -0.2108
  834MOL0     C12511   4.540   3.201   6.300 -0.2466 -0.4715 -0.2891
  834MOL0     C12512   4.606   3.085   6.344  0.8404  0.3537 -0.4533
  834MOL0     C12513   4.595   2.962   6.272 -0.5595  0.0932  0.2400
  834MOL0     O12514   4.651   2.849   6.308 -0.0631  0.3281 -0.0458
  834MOL0     C12515   4.563   2.744   6.366 -0.4395  0.1113  0.4411
  834MOL0     C12516   4.530   2.772   6.516 -0.3890  0.8489 -0.7064
  834MOL0     C12517   4.645   2.732   6.614 -0.6631 -0.2914  0.0917
  834MOL0     C12518   4.601   2.715   6.762 -0.2547 -0.7110 -1.2088
  834MOL0     C12519   4.508   2.609   6.790  0.2765  0.2068 -0.0895
  834MOL0     C12520   4.440   2.520   6.834  0.1059  0.3924 -0.8979
  834MOL0     C12521   4.533   2.961   6.146  1.0983  0.4114 -0.8498
  834MOL0     C12522   4.476   3.081   6.101 -0.2470 -0.7612 -0.1929
  834MOL0     H12523   4.355   3.615   6.169 -0.5172 -2.2239  1.2795
  834MOL0     H12524   4.229   3.787   6.023 -0.2626 -0.6447 -3.6622
  834MOL0     H12525   4.022   3.943   5.940  1.0776  0.2337 -0.9781
  834MOL0     H12526   4.157   3.847   5.855  0.1396 -4.1875  0.4776
  834MOL0     H12527   4.071   3.996   5.708 -0.9702  0.7901 -1.9555
  834MOL0     H12528   4.016   3.834   5.656  0.4849  1.0012  0.1064
  834MOL0     H12529   3.779   3.890   5.750 -1.0605  2.4164  0.9716
  834MOL0     H12530   3.849   4.029   5.821  0.6899 -0.3103 -0.3221
  834MOL0     H12531   3.882   4.137   5.615  0.7794 -0.1984 -0.1172
  834MOL0     H12532   3.876   3.992   5.518  1.3576  1.3030  0.2267
  834MOL0     H12533   3.635   3.963   5.579  0.4533 -0.1243 -0.1889
  834MOL0     H12534   3.626   4.125   5.649 -0.4803 -1.2286  0.4148
  834MOL0     H12535   3.729   4.206   5.442  4.1078 -3.4547  1.3383
  834MOL0     H12536   3.692   4.057   5.358  0.3117 -0.2146  1.0961
  834MOL0     H12537   3.451   4.081   5.429 -0.3737 -0.1169 -0.8313
  834MOL0     H12538   3.481   4.236   5.499  0.2964 -0.4633  1.2455
  834MOL0     H12539   3.527   4.173   5.205  0.1662  0.5380 -0.6039
  834MOL0     H12540   3.562   4.326   5.283  0.5248 -0.2172  0.4586
  834MOL0     H12541   3.295   4.126   5.125 -0.3308  0.0330 -0.5023
  834MOL0     H12542   2.960   4.339   5.083 -2.4388 -0.8418 -1.1015
  834MOL0     H12543   3.046   4.185   5.032 -0.4688 -1.9062  2.2918
  834MOL0     H12544   2.921   4.267   5.303  0.3760 -0.1926 -0.3296
  834MOL0     H12545   2.983   4.110   5.278 -3.7741 -2.4812  2.0414
  834MOL0     H12546   2.775   4.110   5.076  1.5170  1.4789 -0.7473
  834MOL0     H12547   2.713   4.218   5.202  0.7168  1.0824 -2.7844
  834MOL0     H12548   2.633   4.011   5.240  0.1920 -0.1061 -1.3472
  834MOL0     H12549   2.750   4.072   5.364  0.9704  2.0258 -0.5281
  834MOL0     H12550   2.983   3.856   5.385  2.9002 -0.9359  1.3005
  834MOL0     H12551   3.017   3.680   5.674 -1.6090  0.8709 -0.2212
  834MOL0     H12552   3.071   3.573   5.542 -1.3448 -0.0947 -1.3581
  834MOL0     H12553   3.099   3.757   5.549 -0.2691  0.7160  0.2440
  834MOL0     H12554   2.430   3.309   5.614 -1.6505 -1.2943  1.6179
  834MOL0     H12555   2.334   3.177   5.791  0.0397  1.5495 -4.1862
  834MOL0     H12556   2.533   3.120   6.202  0.7205  0.5642  0.4311
  834MOL0     H12557   2.415   3.251   6.160  0.3420 -0.8371 -0.9824
  834MOL0     H12558   2.353   2.968   6.218  0.4666 -0.0770  0.6612
  834MOL0     H12559   2.326   3.091   6.338  0.7418 -2.7072  0.0574
  834MOL0     H12560   2.199   3.108   6.046 -1.7923 -0.1191 -0.8659
  834MOL0     H12561   2.177   3.217   6.176  0.3565  0.3088 -0.3506
  834MOL0     H12562   2.112   2.925   6.219 -0.6431  0.0312  3.3054
  834MOL0     H12563   2.038   3.043   6.305  2.6374 -0.2319  0.8676
  834MOL0     H12564   1.981   3.026   6.004 -0.7996  1.8949 -0.6436
  834MOL0     H12565   1.924   3.148   6.117 -0.7053 -0.2317 -0.1940
  834MOL0     H12566   1.873   2.850   6.103 -1.5717 -0.0097 -0.5021
  834MOL0     H12567   1.805   2.944   6.236 -0.3241 -0.8034 -0.0919
  834MOL0     H12568   1.676   3.076   6.072 -1.4954 -0.5781 -3.2540
  834MOL0     H12569   1.626   2.907   6.099 -1.2822  1.2202  1.5083
  834MOL0     H12570   1.765   2.843   5.894  3.1247  1.6509 -0.6082
  834MOL0     H12571   1.784   3.015   5.862 -1.0062 -0.8779 -1.8435
  834MOL0     H12572   2.697   3.222   6.031 -0.5054  0.6071 -0.4137
  834MOL0     H12573   2.784   3.343   5.862  1.7329 -3.9923 -1.4531
  834MOL0     H12574   2.584   3.576   5.439 -1.5991  1.7828  0.4462
  834MOL0     H12575   2.589   3.768   5.292  1.1281  2.3284 -0.7277
  834MOL0     H12576   3.919   3.498   5.965 -0.1600 -2.3085  0.7463
  834MOL0     H12577   4.044   3.339   6.094 -1.5995  0.7875  0.2919
  834MOL0     H12578   4.534   3.292   6.359 -0.7572  0.4047 -1.6372
  834MOL0     H12579   4.633   3.081   6.449 -0.7768 -2.2990 -0.0376
  834MOL0     H12580   4.473   2.732   6.306 -0.0578  0.6245 -0.2540
  834MOL0     H12581   4.630   2.658   6.357  0.5638  0.8469  0.6468
  834MOL0     H12582   4.440   2.717   6.546 -0.1279 -0.9617 -2.9134
  834MOL0     H12583   4.505   2.878   6.527  0.2804  1.2962 -2.9321
  834MOL0     H12584   4.726   2.803   6.595 -0.0776 -1.3774 -1.6598
  834MOL0     H12585   4.674   2.632   6.580 -0.0928 -0.3703  0.7889
  834MOL0     H12586   4.571   2.815   6.795  2.7965  0.3366 -1.3291
  834MOL0     H12587   4.693   2.698   6.818  0.6260  1.9300 -1.7168
  834MOL0     H12588   4.384   2.440   6.878  0.2622  0.0787 -1.2602
  834MOL0     H12589   4.550   2.868   6.092 -0.6466 -0.1869 -0.4238
  834MOL0     H12590   4.435   3.085   6.001 -2.3658 -0.8623  0.6325
  835MOL0     O12591   4.787   1.810   8.561 -0.6231  0.0996 -0.1098
  835MOL0     C12592   4.793   1.907   8.636  0.3276  0.2635 -0.2272
  835MOL0     O12593   4.694   1.989   8.664 -0.1524  1.1040 -0.2108
  835MOL0     C12594   4.575   1.964   8.591  0.1237  0.3039 -1.2341
  835MOL0     C12595   4.473   1.887   8.649  0.2411  0.5239  0.2285
  835MOL0     C12596   4.350   1.869   8.578  0.0758  0.3267 -1.0834
  835MOL0     C12597   4.335   1.915   8.445  0.9303  0.7925  0.5707
  835MOL0     O12598   4.225   1.889   8.364  0.4023  0.0973 -0.6195
  835MOL0     C12599   4.143   1.778   8.411 -1.0892  0.9699  0.3824
  835MOL0     C12600   4.021   1.766   8.309  0.1883  0.3369  0.3338
  835MOL0     C12601   3.931   1.656   8.342  0.6366 -0.2053  0.0712
  835MOL0     C12602   3.787   1.677   8.286 -0.0962  0.4797 -0.6923
  835MOL0     C12603   3.753   1.579   8.167 -0.5378 -0.5426  0.9279
  835MOL0     C12604   3.607   1.586   8.126 -0.2314 -0.8652  0.8712
  835MOL0     C12605   3.567   1.477   8.024 -0.4058 -0.7129  0.4384
  835MOL0     C12606   3.421   1.465   7.979 -0.7252  0.0156 -0.3324
  835MOL0     N12607   3.401   1.361   7.877  1.0336  0.3074  1.2749
  835MOL0     C12608   3.349   1.233   7.896  0.3493 -0.0834 -0.1359
  835MOL0     C12609   3.379   1.165   7.792 -1.0110 -0.3637 -0.2575
  835MOL0     C12610   3.358   1.020   7.751  0.6427  0.4712 -0.7608
  835MOL0     C12611   3.214   1.000   7.715  0.7659  0.4759  0.6481
  835MOL0     C12612   3.175   1.077   7.588 -0.2455 -0.1542  0.1594
  835MOL0     C12613   3.030   1.099   7.601  0.7732  0.4626  0.6145
  835MOL0     O12614   2.956   0.978   7.612 -1.0742  0.6199 -0.4848
  835MOL0     C12615   2.827   0.984   7.619  1.0082  0.5975 -0.2084
  835MOL0     C12616   2.743   0.988   7.511  1.1611  0.3348  0.1974
  835MOL0     C12617   2.600   0.985   7.530 -0.7784 -0.7397  0.7695
  835MOL0     C12618   2.511   1.020   7.416 -0.1642  0.7725  0.2304
  835MOL0     C12619   2.547   0.952   7.659 -0.1204  0.1309 -0.5004
  835MOL0     C12620   2.403   0.927   7.675  1.0675 -0.2658 -0.2989
  835MOL0     O12621   2.325   0.858   7.577  0.1608  0.1580  0.3348
  835MOL0     C12622   2.191   0.844   7.605 -0.3757 -0.6193 -0.3128
  835MOL0     C12623   2.152   0.743   7.684 -0.2189 -0.4049  0.5598
  835MOL0     C12624   2.016   0.732   7.720 -0.7719 -0.4843  1.0095
  835MOL0     C12625   1.927   0.820   7.664  0.2398 -0.0892 -0.2659
  835MOL0     O12626   1.789   0.805   7.687 -0.0445  0.3216 -0.3601
  835MOL0     C12627   1.748   0.696   7.767  0.8135  0.5457 -0.3977
  835MOL0     C12628   1.602   0.667   7.777 -0.4674 -0.0497  1.2651
  835MOL0     C12629   1.533   0.788   7.840  1.0612  0.0803  0.5660
  835MOL0     C12630   1.522   0.915   7.751 -0.2497 -0.3914  0.2389
  835MOL0     C12631   1.389   0.999   7.770 -0.1580 -0.4624 -1.1335
  835MOL0     C12632   1.263   0.924   7.722 -0.5282  0.7129  0.0056
  835MOL0     C12633   1.147   1.024   7.704 -0.2962  0.6253 -0.5363
  835MOL0     C12634   1.020   0.968   7.648 -0.5183  0.1968 -0.6764
  835MOL0    Cl12635   0.968   0.813   7.724  0.4054 -0.0533  0.6647
  835MOL0     C12636   1.960   0.927   7.580 -0.6662  0.4456 -0.2881
  835MOL0     C12637   2.097   0.926   7.547  0.4785  0.8272  0.0583
  835MOL0     O12638   2.358   0.963   7.789 -0.4101  0.1562  0.8395
  835MOL0     C12639   2.634   0.944   7.764  0.5951 -0.0784 -0.1596
  835MOL0     C12640   2.769   0.965   7.747  0.1999  0.1157 -0.0271
  835MOL0     N12641   3.450   1.242   7.696 -0.2760  0.1915  0.3525
  835MOL0     N12642   3.453   1.359   7.746  0.0256  0.9414 -0.4456
  835MOL0     C12643   4.441   1.994   8.397  0.1077 -0.2525  0.6844
  835MOL0     C12644   4.556   2.026   8.471  0.3325  0.0450 -0.1788
  835MOL0     C12645   4.911   1.918   8.714 -0.1177 -0.2450 -0.2137
  835MOL0     C12646   4.936   2.033   8.790  0.4382  0.4194  0.7160
  835MOL0     C12647   5.059   2.039   8.859 -0.1584 -0.5645  0.2579
  835MOL0     C12648   5.159   1.941   8.853  0.8451 -0.2790  0.8701
  835MOL0     O12649   5.280   1.962   8.919 -0.1964  0.3323  0.0034
  835MOL0     C12650   5.336   2.089   8.957  0.5767 -0.0390 -0.1961
  835MOL0     C12651   5.483   2.062   8.994 -0.3846  0.0237 -0.4284
  835MOL0     C12652   5.557   2.195   8.967 -0.5205 -0.5301 -0.1675
  835MOL0     C12653   5.694   2.191   9.037  0.1836 -0.6241 -0.4999
  835MOL0     C12654   5.762   2.301   8.974 -1.2824 -0.5532 -0.4126
  835MOL0     C12655   5.828   2.398   8.928 -0.6144 -0.5668 -0.1023
  835MOL0     C12656   5.128   1.820   8.790  0.4789  0.2292 -0.1347
  835MOL0     C12657   5.013   1.813   8.716  0.2017  0.0530 -0.8451
  835MOL0     H12658   4.476   1.845   8.749  0.6741 -2.4068 -0.9487
  835MOL0     H12659   4.277   1.805   8.627  1.0378  1.5457  2.2538
  835MOL0     H12660   4.200   1.687   8.393  1.2012  2.0845  1.5696
  835MOL0     H12661   4.106   1.789   8.513 -0.4490 -0.4470  0.7919
  835MOL0     H12662   3.961   1.856   8.298 -1.5663 -0.9077 -0.7528
  835MOL0     H12663   4.060   1.742   8.209 -0.4416 -0.4558  0.2711
  835MOL0     H12664   3.989   1.571   8.305  2.7547  1.8739 -1.6751
  835MOL0     H12665   3.925   1.653   8.451  1.9216 -0.6646  0.1417
  835MOL0     H12666   3.705   1.652   8.354 -0.9669 -0.7422 -2.1130
  835MOL0     H12667   3.781   1.782   8.258  2.5723  1.4536  1.8426
  835MOL0     H12668   3.819   1.607   8.085  3.3178 -1.3217  3.5061
  835MOL0     H12669   3.774   1.477   8.200 -1.5955 -0.9789  0.3111
  835MOL0     H12670   3.536   1.568   8.207  0.2812 -0.9325  1.3093
  835MOL0     H12671   3.593   1.685   8.082 -0.3897 -1.2529  0.0237
  835MOL0     H12672   3.624   1.487   7.931  0.2829 -1.9564  0.7075
  835MOL0     H12673   3.604   1.383   8.067 -3.0923 -1.6423  0.8750
  835MOL0     H12674   3.397   1.564   7.936  2.4049  1.3167  0.6393
  835MOL0     H12675   3.361   1.464   8.070  2.3730  0.5932  1.8892
  835MOL0     H12676   3.300   1.210   7.990  3.2629  1.3973  1.9236
  835MOL0     H12677   3.419   0.983   7.668 -1.7210 -2.5764 -1.3230
  835MOL0     H12678   3.386   0.956   7.835  1.8316  0.5263 -1.0915
  835MOL0     H12679   3.153   1.026   7.802 -0.0902  2.8149 -0.5497
  835MOL0     H12680   3.192   0.896   7.690 -0.8713  0.3973  2.2108
  835MOL0     H12681   3.193   1.012   7.501  0.0922 -2.2606  1.7174
  835MOL0     H12682   3.226   1.173   7.575 -1.6391  0.7549  1.0978
  835MOL0     H12683   2.994   1.151   7.512 -1.6134 -2.1818 -0.1149
  835MOL0     H12684   3.003   1.162   7.687 -0.8086 -0.3310  0.7375
  835MOL0     H12685   2.791   1.013   7.417 -1.9980  3.5448 -0.7792
  835MOL0     H12686   2.492   0.929   7.358  0.6903 -1.2857  2.9246
  835MOL0     H12687   2.422   1.071   7.453  0.8780  1.8085  1.4331
  835MOL0     H12688   2.563   1.094   7.355  0.1015  1.4904  1.3040
  835MOL0     H12689   2.216   0.665   7.723 -0.4611  0.1838  2.2397
  835MOL0     H12690   1.984   0.650   7.783 -0.4179 -2.6436 -1.4710
  835MOL0     H12691   1.793   0.597   7.753 -2.3800 -1.3728  1.5879
  835MOL0     H12692   1.776   0.724   7.869 -0.8533 -0.5809  0.4303
  835MOL0     H12693   1.565   0.657   7.674  0.6104 -2.3025  1.0340
  835MOL0     H12694   1.596   0.568   7.824  1.9083 -1.0142 -0.2532
  835MOL0     H12695   1.569   0.816   7.940  3.9272 -1.9245  0.2280
  835MOL0     H12696   1.432   0.750   7.853  1.9710 -2.4552  0.6479
  835MOL0     H12697   1.613   0.971   7.776  0.3105 -0.3536 -1.7487
  835MOL0     H12698   1.533   0.884   7.647  0.3556 -4.0501  1.2618
  835MOL0     H12699   1.385   1.097   7.721 -1.4795 -0.3174 -0.7740
  835MOL0     H12700   1.365   1.008   7.876 -0.7915  2.9484 -1.4378
  835MOL0     H12701   1.282   0.872   7.627  3.0177 -1.4262  1.6886
  835MOL0     H12702   1.238   0.840   7.788  3.6180 -0.2790  0.5764
  835MOL0     H12703   1.184   1.102   7.637  1.1214 -0.0591 -0.5982
  835MOL0     H12704   1.128   1.058   7.806  1.5016 -2.2961  0.9021
  835MOL0     H12705   1.034   0.941   7.543  0.8605 -2.0083 -0.0016
  835MOL0     H12706   0.947   1.049   7.660 -1.2859 -0.6072  0.2654
  835MOL0     H12707   1.892   0.990   7.525 -0.5553  0.6375 -0.2053
  835MOL0     H12708   2.131   0.990   7.467  1.7478 -2.6600 -2.4463
  835MOL0     H12709   2.587   0.924   7.860 -1.0789 -2.6024 -1.3871
  835MOL0     H12710   2.831   0.949   7.835 -1.1327 -2.0050  0.6038
  835MOL0     H12711   4.425   2.027   8.295  1.0354  0.9898  0.9198
  835MOL0     H12712   4.620   2.103   8.429 -1.5733  0.9518 -1.5846
  835MOL0     H12713   4.868   2.117   8.799 -1.3391 -0.6920 -1.2126
  835MOL0     H12714   5.082   2.136   8.903 -1.4521  0.1181 -0.5236
  835MOL0     H12715   5.335   2.166   8.880  2.8265  0.3778  0.1229
  835MOL0     H12716   5.269   2.125   9.035  1.6956 -0.7975  1.1718
  835MOL0     H12717   5.521   1.989   8.921  0.1079 -1.7056  1.4717
  835MOL0     H12718   5.487   2.023   9.096  1.9604  1.1868  0.0011
  835MOL0     H12719   5.501   2.284   8.997  0.0748 -1.5542  5.0960
  835MOL0     H12720   5.587   2.200   8.862  1.3549 -0.3701  0.3365
  835MOL0     H12721   5.747   2.097   9.018 -0.0271 -0.8433 -0.0183
  835MOL0     H12722   5.687   2.211   9.144 -0.6546  0.3922 -0.7334
  835MOL0     H12723   5.890   2.478   8.895  1.4948 -0.8610  2.6925
  835MOL0     H12724   5.202   1.741   8.799 -0.7172 -0.9563 -0.4939
  835MOL0     H12725   4.979   1.719   8.675  0.7673  0.3501 -2.0190
  836MOL0     O12726   7.317   9.163   0.593  0.2300  1.3713  0.8585
  836MOL0     C12727   7.383   9.057   0.587 -0.7402 -0.7840 -0.2354
  836MOL0     O12728   7.345   8.934   0.625  0.2382 -0.2651 -0.5444
  836MOL0     C12729   7.247   8.923   0.716  0.4380 -0.3142 -0.2111
  836MOL0     C12730   7.218   9.005   0.827 -0.4776 -0.7227  0.2743
  836MOL0     C12731   7.120   8.968   0.926 -0.0826 -0.5047  0.7332
  836MOL0     C12732   7.030   8.864   0.902  0.7879 -0.7418 -0.9357
  836MOL0     O12733   6.945   8.806   0.991 -0.4941 -0.0412 -0.1771
  836MOL0     C12734   6.818   8.764   0.931 -0.0323  0.6092 -0.9578
  836MOL0     C12735   6.723   8.740   1.054 -0.3316 -0.2671 -0.4521
  836MOL0     C12736   6.581   8.714   1.001 -0.3343 -0.0996 -0.1038
  836MOL0     C12737   6.571   8.591   0.904 -0.2056  1.0779  1.0322
  836MOL0     C12738   6.435   8.533   0.900  0.4495 -0.2698 -0.5084
  836MOL0     C12739   6.412   8.428   0.798 -0.9152  0.2282 -1.1206
  836MOL0     C12740   6.273   8.366   0.817  1.1837 -0.1010  1.1908
  836MOL0     C12741   6.230   8.262   0.712 -0.2479 -0.0409  0.4572
  836MOL0     N12742   6.235   8.321   0.579  0.8019 -0.2660 -0.1930
  836MOL0     C12743   6.127   8.357   0.510  0.0513 -0.0918  1.2749
  836MOL0     C12744   6.165   8.409   0.395 -0.4485 -0.1380 -0.7861
  836MOL0     C12745   6.079   8.477   0.289  0.2943 -0.3677 -0.0758
  836MOL0     C12746   6.015   8.605   0.351  0.3575  0.2194 -0.1633
  836MOL0     C12747   6.104   8.731   0.341  0.0207 -0.0706 -0.7597
  836MOL0     C12748   6.037   8.871   0.381  0.3892 -0.2440 -0.5164
  836MOL0     O12749   5.926   8.886   0.292  0.3639  0.3056  0.3180
  836MOL0     C12750   5.831   8.979   0.316  0.0303 -0.4494  0.3533
  836MOL0     C12751   5.835   9.086   0.403 -0.8027 -0.3672  0.4159
  836MOL0     C12752   5.724   9.179   0.421  0.6003  0.1986  1.1714
  836MOL0     C12753   5.746   9.284   0.520  0.1159 -0.3217 -0.4379
  836MOL0     C12754   5.612   9.176   0.335 -0.3746 -0.0790  0.8614
  836MOL0     C12755   5.496   9.276   0.330 -0.4197 -0.3245  0.2824
  836MOL0     O12756   5.399   9.255   0.243  0.2374 -0.0591  0.1625
  836MOL0     C12757   5.298   9.348   0.251 -0.6871 -0.4229  0.2122
  836MOL0     C12758   5.282   9.457   0.156 -0.1066 -0.1697 -0.2452
  836MOL0     C12759   5.171   9.539   0.171 -0.2570 -0.3700 -0.2111
  836MOL0     C12760   5.075   9.518   0.272  0.6581  0.0889  0.5474
  836MOL0     O12761   4.972   9.606   0.283  1.1112  0.1103  0.4866
  836MOL0     C12762   4.845   9.534   0.288 -0.1956  0.6542 -0.3583
  836MOL0     C12763   4.730   9.623   0.285 -0.0524  0.1344  0.4088
  836MOL0     C12764   4.711   9.681   0.152 -0.0078  0.3273 -0.0538
  836MOL0     C12765   4.643   9.578   0.062 -0.0627 -0.3443  0.1327
  836MOL0     C12766   4.587   9.649  -0.066 -0.5088 -0.9323 -0.2085
  836MOL0     C12767   4.703   9.722  -0.137 -0.3187 -0.1461  0.1284
  836MOL0     C12768   4.677   9.784  -0.272 -0.1330 -0.3191 -0.3937
  836MOL0     C12769   4.622   9.687  -0.372 -0.4498  0.0894 -0.4347
  836MOL0    Cl12770   4.439   9.699  -0.341  0.4268  0.3340 -0.3299
  836MOL0     C12771   5.105   9.422   0.370  0.0568  0.6842 -0.9264
  836MOL0     C12772   5.208   9.333   0.357  0.0682 -0.6371  0.1431
  836MOL0     O12773   5.498   9.374   0.409 -0.1555 -0.2846  0.6878
  836MOL0     C12774   5.603   9.064   0.244 -0.3221 -0.0714 -0.0789
  836MOL0     C12775   5.714   8.972   0.231  0.3361 -0.6002 -0.2218
  836MOL0     N12776   6.302   8.392   0.390 -0.3638 -0.0774  0.0154
  836MOL0     N12777   6.349   8.339   0.499 -0.1850  0.1461  0.1010
  836MOL0     C12778   7.060   8.790   0.787 -0.7104  0.3092  0.2973
  836MOL0     C12779   7.168   8.814   0.703 -0.7545  0.2075  0.3210
  836MOL0     C12780   7.506   9.067   0.505 -0.3780 -0.0176  0.2853
  836MOL0     C12781   7.558   9.194   0.466  0.4054 -0.0004 -0.3787
  836MOL0     C12782   7.660   9.205   0.374 -0.5468  0.2260 -0.5000
  836MOL0     C12783   7.728   9.094   0.340 -0.2407  0.0059 -0.2885
  836MOL0     O12784   7.832   9.130   0.265 -0.6256 -0.5061 -0.4366
  836MOL0     C12785   7.886   9.055   0.166  0.5904  0.3393  0.2741
  836MOL0     C12786   7.776   9.059   0.052 -0.2496  0.7866 -0.1789
  836MOL0     C12787   7.835   9.024  -0.089  0.4130  0.1400 -0.6983
  836MOL0     C12788   7.841   8.880  -0.138  0.2577  0.0162 -0.0268
  836MOL0     C12789   7.716   8.839  -0.205 -0.7750  0.0648  0.0547
  836MOL0     C12790   7.615   8.804  -0.273 -0.0928  0.1491  0.5839
  836MOL0     C12791   7.692   8.968   0.377  0.0940  0.3181  0.0123
  836MOL0     C12792   7.569   8.957   0.447 -0.1916 -0.3785  0.3714
  836MOL0     H12793   7.280   9.091   0.849  0.3559 -0.6898 -1.9395
  836MOL0     H12794   7.124   9.023   1.019 -0.9314 -0.2687  0.6394
  836MOL0     H12795   6.761   8.833   0.869 -0.0643  1.4511 -0.0096
  836MOL0     H12796   6.837   8.667   0.883 -0.7291 -1.9695  3.4210
  836MOL0     H12797   6.751   8.648   1.106 -0.5076 -1.0258 -1.6589
  836MOL0     H12798   6.719   8.829   1.117 -1.4492 -0.3429 -0.3852
  836MOL0     H12799   6.506   8.716   1.080  0.0237 -1.7570  0.3137
  836MOL0     H12800   6.540   8.791   0.935 -0.5594 -2.2804 -2.6946
  836MOL0     H12801   6.605   8.621   0.805 -1.8592 -3.6605 -1.2876
  836MOL0     H12802   6.638   8.520   0.955 -0.9655 -0.5154 -0.1042
  836MOL0     H12803   6.411   8.500   1.002  1.9822  1.1422  0.3466
  836MOL0     H12804   6.364   8.612   0.874  1.7899  0.2693 -2.7917
  836MOL0     H12805   6.433   8.471   0.700  1.5217 -1.9410 -1.6740
  836MOL0     H12806   6.487   8.349   0.807  1.4648  2.5653  3.2134
  836MOL0     H12807   6.262   8.323   0.917 -3.1127 -2.6275 -0.1179
  836MOL0     H12808   6.188   8.434   0.807  0.2965 -1.1878  1.0940
  836MOL0     H12809   6.133   8.216   0.732 -0.2670 -0.5585 -0.7076
  836MOL0     H12810   6.300   8.179   0.719 -0.3835  0.0081  3.5702
  836MOL0     H12811   6.021   8.354   0.534 -1.3959 -0.1869 -3.9996
  836MOL0     H12812   6.147   8.511   0.211 -0.2379  2.9581  0.7549
  836MOL0     H12813   6.004   8.414   0.240 -0.0830  0.3679 -0.4716
  836MOL0     H12814   5.973   8.582   0.449  0.7805  1.2220  0.2637
  836MOL0     H12815   5.935   8.628   0.280  2.2339 -0.8098 -2.7624
  836MOL0     H12816   6.163   8.745   0.250  2.5225 -2.5127  0.3316
  836MOL0     H12817   6.178   8.710   0.418 -0.4980 -2.5048 -0.8470
  836MOL0     H12818   6.098   8.962   0.383 -0.0025  0.0503 -1.2096
  836MOL0     H12819   6.008   8.867   0.486  1.5189  1.4715 -0.1028
  836MOL0     H12820   5.924   9.094   0.464 -0.0844  1.5193 -0.7788
  836MOL0     H12821   5.839   9.263   0.573 -0.1868 -0.0741  0.2096
  836MOL0     H12822   5.748   9.387   0.484  1.2188 -0.5782 -1.1663
  836MOL0     H12823   5.660   9.284   0.588  0.2268  3.2229 -0.1310
  836MOL0     H12824   5.327   9.452   0.057 -1.7182  0.8210 -1.0782
  836MOL0     H12825   5.141   9.619   0.104 -0.7328  0.7338  1.2481
  836MOL0     H12826   4.858   9.463   0.206  4.7222  0.8388 -0.0223
  836MOL0     H12827   4.837   9.476   0.380  0.5287  1.2796  0.1175
  836MOL0     H12828   4.635   9.581   0.318 -1.4847  2.9280  0.1311
  836MOL0     H12829   4.750   9.712   0.346 -3.6314  0.3050  1.5897
  836MOL0     H12830   4.811   9.713   0.120  0.8666 -0.4229  1.7869
  836MOL0     H12831   4.646   9.768   0.166 -0.9966 -0.4776  0.4818
  836MOL0     H12832   4.720   9.506   0.034  1.1717  1.2722 -0.8324
  836MOL0     H12833   4.563   9.522   0.111  2.2033 -2.9650  1.0923
  836MOL0     H12834   4.510   9.717  -0.027  1.6343  0.1673  2.3659
  836MOL0     H12835   4.547   9.572  -0.132  0.3479 -4.1805  2.7465
  836MOL0     H12836   4.738   9.799  -0.069 -0.2538 -0.6713  0.6963
  836MOL0     H12837   4.783   9.647  -0.143 -1.9633 -1.8951 -2.5792
  836MOL0     H12838   4.772   9.817  -0.316  1.0665 -1.2956  1.3670
  836MOL0     H12839   4.611   9.871  -0.277  1.1434  0.6146 -2.6265
  836MOL0     H12840   4.663   9.586  -0.362  2.2955  0.9452 -1.8127
  836MOL0     H12841   4.642   9.720  -0.475  1.2711  0.7425  0.0703
  836MOL0     H12842   5.046   9.399   0.458  0.3933  0.2914 -0.8056
  836MOL0     H12843   5.226   9.258   0.433  0.5590 -0.9141 -0.2431
  836MOL0     H12844   5.522   9.040   0.176  1.7597 -1.6581 -2.1572
  836MOL0     H12845   5.698   8.884   0.170 -1.7095 -0.7278  0.4136
  836MOL0     H12846   7.002   8.701   0.763 -0.5785 -0.1395  1.5590
  836MOL0     H12847   7.182   8.750   0.616  1.9014  0.3973  0.5357
  836MOL0     H12848   7.507   9.282   0.504  0.9000  1.3262 -2.6150
  836MOL0     H12849   7.692   9.306   0.349  5.7674 -0.8949  1.4236
  836MOL0     H12850   7.972   9.105   0.120  0.5871  0.2159  0.1310
  836MOL0     H12851   7.911   8.952   0.193 -2.6355 -0.8768 -0.8769
  836MOL0     H12852   7.729   9.157   0.050  0.2841  1.0418 -0.2343
  836MOL0     H12853   7.692   8.990   0.069 -1.1485  1.8566 -0.1858
  836MOL0     H12854   7.938   9.060  -0.093  0.1678  0.8466 -0.7959
  836MOL0     H12855   7.782   9.082  -0.165  1.3076  3.2415  0.8698
  836MOL0     H12856   7.874   8.807  -0.063  2.2965  1.2008  0.3214
  836MOL0     H12857   7.920   8.886  -0.213  0.1542 -0.8948 -0.2185
  836MOL0     H12858   7.520   8.769  -0.307  1.0756 -0.9416 -1.7390
  836MOL0     H12859   7.753   8.886   0.340  0.5132  0.0212  1.2997
  836MOL0     H12860   7.528   8.857   0.456 -0.2568 -0.4973 -0.9673
  837MOL0     O12861   4.564   0.448   3.948 -0.0354  0.4118 -0.5144
  837MOL0     C12862   4.658   0.472   4.029 -0.8161 -0.1013 -0.5890
  837MOL0     O12863   4.642   0.502   4.163  0.2068  0.5788  0.2295
  837MOL0     C12864   4.511   0.483   4.210  0.6792 -1.0920 -0.8981
  837MOL0     C12865   4.493   0.396   4.320  0.8935  0.0395  0.3878
  837MOL0     C12866   4.370   0.386   4.385 -0.2399 -0.4589  0.6461
  837MOL0     C12867   4.261   0.462   4.337 -1.5166  0.2361  0.3001
  837MOL0     O12868   4.149   0.444   4.401 -0.2223 -0.2582  0.1249
  837MOL0     C12869   4.043   0.532   4.364  0.0881  0.4127 -0.0768
  837MOL0     C12870   3.943   0.506   4.476 -0.7790  0.1060 -0.3828
  837MOL0     C12871   3.816   0.584   4.450  0.3443 -0.6917  0.2608
  837MOL0     C12872   3.711   0.571   4.558  0.3058  0.9485  0.5014
  837MOL0     C12873   3.585   0.654   4.534  0.0425 -0.1362  0.5699
  837MOL0     C12874   3.486   0.608   4.648  0.2156  0.4873 -0.2290
  837MOL0     C12875   3.355   0.685   4.627  0.4876 -0.1296  0.7725
  837MOL0     C12876   3.251   0.640   4.736  0.3001  0.2993 -0.1111
  837MOL0     N12877   3.125   0.727   4.739  0.1393 -0.4136  0.4218
  837MOL0     C12878   3.026   0.729   4.644  0.0249  0.2290  0.0418
  837MOL0     C12879   2.915   0.772   4.702 -0.2536  0.0941  0.2137
  837MOL0     C12880   2.780   0.783   4.639  0.3468  0.0077 -0.1413
  837MOL0     C12881   2.751   0.923   4.606  0.3995 -0.3394  0.3025
  837MOL0     C12882   2.621   0.943   4.523 -0.8114  0.0523 -0.5293
  837MOL0     C12883   2.494   0.935   4.600  0.5115  0.4570  0.4019
  837MOL0     O12884   2.386   0.987   4.526 -0.2827 -0.5215  0.0390
  837MOL0     C12885   2.263   0.958   4.569 -0.3223 -0.4185 -1.3447
  837MOL0     C12886   2.237   0.965   4.707 -0.1067 -0.5219 -0.8502
  837MOL0     C12887   2.122   0.933   4.765 -0.0253 -0.2390 -0.4557
  837MOL0     C12888   2.129   0.937   4.913 -0.2610 -0.2648  0.8417
  837MOL0     C12889   2.011   0.906   4.681 -0.9380  0.6187  0.3670
  837MOL0     C12890   1.878   0.853   4.729 -0.2165 -0.0344  0.1050
  837MOL0     O12891   1.868   0.764   4.841  0.2706 -0.1990 -0.0584
  837MOL0     C12892   1.745   0.728   4.872  0.3494  0.4507 -1.1589
  837MOL0     C12893   1.648   0.816   4.927 -0.3162 -0.0915  0.0682
  837MOL0     C12894   1.522   0.775   4.934  0.3486 -0.4675 -0.4489
  837MOL0     C12895   1.472   0.653   4.889 -0.2568 -0.0299 -0.1246
  837MOL0     O12896   1.333   0.633   4.897 -0.2152  0.1164  0.0076
  837MOL0     C12897   1.292   0.506   4.948  0.0589 -0.1406 -0.1897
  837MOL0     C12898   1.159   0.504   5.040 -0.3499 -0.1223 -0.6279
  837MOL0     C12899   1.052   0.600   4.990 -1.0542  0.5197 -0.3740
  837MOL0     C12900   0.931   0.590   5.075 -0.1659  0.3791 -0.2138
  837MOL0     C12901   0.826   0.685   5.023 -0.4141  0.3780 -0.3790
  837MOL0     C12902   0.688   0.653   5.086  0.0980  0.0574  0.3674
  837MOL0     C12903   0.670   0.686   5.231  0.3876  0.1674 -0.6478
  837MOL0     C12904   0.525   0.653   5.283 -0.4864 -0.0710  0.4448
  837MOL0    Cl12905   0.532   0.678   5.453 -0.1668  0.2417  0.2405
  837MOL0     C12906   1.572   0.556   4.848 -0.0802  0.1703  0.0920
  837MOL0     C12907   1.707   0.592   4.843  0.1412 -0.6145 -0.5457
  837MOL0     O12908   1.779   0.892   4.659 -0.2657 -0.0225  0.2017
  837MOL0     C12909   2.034   0.907   4.538 -0.3179 -0.2996 -0.5144
  837MOL0     C12910   2.163   0.936   4.488  0.6048  0.6663  0.1279
  837MOL0     N12911   2.947   0.804   4.830  0.4607 -0.1238 -0.5274
  837MOL0     N12912   3.063   0.754   4.855 -0.7644 -0.2709 -0.0413
  837MOL0     C12913   4.279   0.539   4.219 -0.2684 -0.0437 -0.2424
  837MOL0     C12914   4.402   0.555   4.157  0.4189 -0.5829 -0.2018
  837MOL0     C12915   4.784   0.486   3.979  0.1994  0.0993 -0.3846
  837MOL0     C12916   4.817   0.421   3.858 -0.4061 -1.0353 -0.8996
  837MOL0     C12917   4.942   0.409   3.802 -0.3800  0.4523  0.4386
  837MOL0     C12918   5.051   0.461   3.884 -0.5358  0.3708 -0.9017
  837MOL0     O12919   5.184   0.457   3.846 -0.2274  0.4031 -0.2998
  837MOL0     C12920   5.217   0.372   3.730 -0.1471  0.8425  0.2381
  837MOL0     C12921   5.374   0.361   3.698 -0.0578  0.4688 -0.4718
  837MOL0     C12922   5.398   0.246   3.610 -0.9168 -0.1230  0.6426
  837MOL0     C12923   5.536   0.245   3.539  0.0853  0.9438 -0.6150
  837MOL0     C12924   5.654   0.229   3.632  0.5444 -0.3867  0.3543
  837MOL0     C12925   5.755   0.211   3.681  0.3379  0.1383 -0.1825
  837MOL0     C12926   5.022   0.520   4.000  0.1970 -0.0271  0.4257
  837MOL0     C12927   4.891   0.537   4.047  1.0178 -0.5766  0.0194
  837MOL0     H12928   4.582   0.343   4.352  2.8102  3.1488  0.7191
  837MOL0     H12929   4.351   0.326   4.473 -2.7036 -1.2135 -0.3154
  837MOL0     H12930   4.071   0.638   4.369  0.9391  0.1578  3.0769
  837MOL0     H12931   4.006   0.503   4.266  1.5470  0.9585 -0.8204
  837MOL0     H12932   3.925   0.398   4.469  2.7318 -0.5513 -1.0606
  837MOL0     H12933   3.991   0.525   4.572  1.2580 -3.2082 -0.5710
  837MOL0     H12934   3.846   0.689   4.449 -1.2541 -0.1494  2.0803
  837MOL0     H12935   3.769   0.552   4.357 -1.9816 -4.3606  2.4419
  837MOL0     H12936   3.674   0.470   4.579 -0.8426  1.6890  2.2803
  837MOL0     H12937   3.758   0.589   4.655  1.9189 -2.4755  0.5204
  837MOL0     H12938   3.608   0.760   4.550 -0.6855  0.1059  0.0873
  837MOL0     H12939   3.549   0.640   4.432  1.5424  0.9098 -0.1472
  837MOL0     H12940   3.464   0.502   4.667 -1.0726  0.8543  0.4555
  837MOL0     H12941   3.519   0.643   4.746 -1.5942  1.4798  0.0768
  837MOL0     H12942   3.378   0.791   4.638 -1.5874  0.1895  2.7927
  837MOL0     H12943   3.306   0.668   4.531 -4.0591  2.7213  2.2761
  837MOL0     H12944   3.300   0.647   4.834 -1.3791 -1.1086  0.9083
  837MOL0     H12945   3.223   0.535   4.723 -1.4593  0.8774 -1.2131
  837MOL0     H12946   3.037   0.696   4.541  0.6163 -0.9501  0.4589
  837MOL0     H12947   2.763   0.735   4.543 -0.8895  0.0628  0.0302
  837MOL0     H12948   2.712   0.744   4.716 -0.8074  0.5964 -0.8520
  837MOL0     H12949   2.827   0.967   4.541 -2.2306  0.8105 -2.1611
  837MOL0     H12950   2.739   0.990   4.692 -1.4620  0.7364 -0.7533
  837MOL0     H12951   2.635   0.883   4.433  0.9696  0.2622 -0.4304
  837MOL0     H12952   2.628   1.047   4.489  3.2344  0.3683  0.7341
  837MOL0     H12953   2.502   0.992   4.693 -2.4022  1.8415 -0.0829
  837MOL0     H12954   2.486   0.827   4.614  1.4800 -0.4000 -4.0106
  837MOL0     H12955   2.316   1.007   4.768 -0.0439 -2.6369  0.6459
  837MOL0     H12956   2.101   0.841   4.957  2.5415 -0.4487  2.4503
  837MOL0     H12957   2.231   0.964   4.940  1.1419 -0.3618 -3.5077
  837MOL0     H12958   2.056   1.008   4.953 -0.5091 -1.4007  2.4965
  837MOL0     H12959   1.666   0.921   4.945 -0.3499  0.1850 -1.4362
  837MOL0     H12960   1.445   0.842   4.972  1.5950 -0.6984  2.9030
  837MOL0     H12961   1.272   0.447   4.859 -1.4021  1.4759 -0.9706
  837MOL0     H12962   1.375   0.452   4.996 -1.5794 -3.0609 -0.3922
  837MOL0     H12963   1.133   0.398   5.036  2.0085 -0.8009  0.2476
  837MOL0     H12964   1.174   0.531   5.145 -4.5260  0.0314  0.0945
  837MOL0     H12965   1.039   0.572   4.885  4.4962 -0.7600 -1.0414
  837MOL0     H12966   1.091   0.702   4.996  0.8421 -0.2197  1.1090
  837MOL0     H12967   0.905   0.484   5.059 -0.1556  0.4223 -0.5113
  837MOL0     H12968   0.953   0.607   5.181 -1.8904  1.0209  0.0794
  837MOL0     H12969   0.826   0.694   4.914  3.4482  1.4033 -0.4132
  837MOL0     H12970   0.845   0.786   5.060 -2.1769  0.2099  1.1098
  837MOL0     H12971   0.612   0.705   5.028  0.7575 -1.5123 -2.0608
  837MOL0     H12972   0.652   0.551   5.069  2.2190 -0.8182  0.8006
  837MOL0     H12973   0.686   0.792   5.249 -2.7676  0.5745  0.4386
  837MOL0     H12974   0.749   0.629   5.281  0.5075 -0.1649 -1.2081
  837MOL0     H12975   0.508   0.546   5.264  1.4674 -0.5390  1.0899
  837MOL0     H12976   0.453   0.724   5.242  0.5034  0.6841 -0.0259
  837MOL0     H12977   1.544   0.458   4.811  3.5464 -0.2667 -1.9739
  837MOL0     H12978   1.778   0.515   4.815  0.3839 -1.0311  1.1160
  837MOL0     H12979   1.957   0.870   4.471 -0.5341 -0.4533 -0.1841
  837MOL0     H12980   2.190   0.936   4.383  3.7997  0.7698  0.8667
  837MOL0     H12981   4.213   0.610   4.170  2.6312  3.2321  0.2398
  837MOL0     H12982   4.428   0.619   4.074  1.7675 -1.8787 -0.8253
  837MOL0     H12983   4.730   0.368   3.820 -0.6695 -1.8523  0.7616
  837MOL0     H12984   4.953   0.359   3.706  0.4495  0.5779  0.4607
  837MOL0     H12985   5.181   0.271   3.752  0.2951  0.2490 -1.6070
  837MOL0     H12986   5.162   0.403   3.641 -1.1932  2.4269  1.3722
  837MOL0     H12987   5.428   0.353   3.792  0.0443  0.3687 -0.5390
  837MOL0     H12988   5.403   0.454   3.648  0.6492  1.3072  1.4011
  837MOL0     H12989   5.328   0.265   3.528 -1.3788  3.3784  1.6602
  837MOL0     H12990   5.369   0.154   3.661 -0.2048 -2.2888 -2.5720
  837MOL0     H12991   5.542   0.342   3.490 -1.5902  1.0600 -0.6545
  837MOL0     H12992   5.535   0.174   3.456  0.8290  0.5306 -0.2831
  837MOL0     H12993   5.841   0.164   3.725  0.0717 -1.2931 -1.1282
  837MOL0     H12994   5.106   0.559   4.055  0.4511  2.2608 -1.4471
  837MOL0     H12995   4.876   0.573   4.148 -0.6645 -2.2414  0.4275
  838MOL0     O12996  10.733   9.374   0.195  0.1979 -0.7378  0.1322
  838MOL0     C12997  10.775   9.479   0.249 -0.9964  0.0784 -0.4916
  838MOL0     O12998  10.694   9.592   0.279  0.6083 -0.3247  0.8295
  838MOL0     C12999  10.573   9.604   0.225  0.3929 -0.7519 -1.1253
  838MOL0     C13000  10.547   9.597   0.087  0.1141 -0.0474  0.2861
  838MOL0     C13001  10.420   9.607   0.045  0.3828 -0.0709  0.8614
  838MOL0     C13002  10.311   9.625   0.140 -1.7775 -0.0344  0.0243
  838MOL0     O13003  10.181   9.626   0.107 -0.4300 -0.0658 -0.3332
  838MOL0     C13004  10.147   9.688  -0.013  0.0467 -0.0155 -0.4260
  838MOL0     C13005  10.002   9.725  -0.007  0.8016 -0.3551 -0.5830
  838MOL0     C13006   9.920   9.598   0.013 -0.2424 -0.7581  0.3224
  838MOL0     C13007   9.773   9.642  -0.008  0.0057  0.8928 -0.0039
  838MOL0     C13008   9.687   9.524  -0.019  0.2327 -1.3756  0.6999
  838MOL0     C13009   9.540   9.575  -0.043 -0.4672 -0.5001 -0.1465
  838MOL0     C13010   9.435   9.462  -0.069 -0.1327 -0.6328  0.6547
  838MOL0     C13011   9.460   9.401  -0.210 -0.6086  0.3220 -0.4681
  838MOL0     N13012   9.332   9.355  -0.264  0.0580 -0.4774 -0.2526
  838MOL0     C13013   9.251   9.443  -0.325 -0.3074 -1.6361  0.4645
  838MOL0     C13014   9.169   9.365  -0.398 -0.1151 -0.4282  0.0668
  838MOL0     C13015   9.054   9.412  -0.480  0.3950  0.2293 -0.2924
  838MOL0     C13016   9.044   9.376  -0.634 -0.1538 -0.1251  0.4160
  838MOL0     C13017   9.057   9.222  -0.665  0.2246 -0.2005 -0.4471
  838MOL0     C13018   8.948   9.129  -0.595  0.3528 -0.3292 -0.7903
  838MOL0     O13019   8.825   9.138  -0.662 -0.5402 -0.1489 -0.1526
  838MOL0     C13020   8.730   9.046  -0.636  0.7973 -0.7451  0.6638
  838MOL0     C13021   8.643   9.024  -0.744 -0.3452  0.5896 -0.4692
  838MOL0     C13022   8.552   8.918  -0.752 -0.3390  0.0104 -0.1906
  838MOL0     C13023   8.475   8.921  -0.880 -1.1055 -0.5852 -0.0358
  838MOL0     C13024   8.540   8.833  -0.632 -0.2132  0.4043  0.6769
  838MOL0     C13025   8.433   8.726  -0.611 -0.6077  0.7174 -0.0747
  838MOL0     O13026   8.432   8.671  -0.483 -0.0066 -0.5780 -0.4269
  838MOL0     C13027   8.376   8.547  -0.465  0.0746  0.7387  0.3650
  838MOL0     C13028   8.457   8.435  -0.453 -0.3483  1.1278 -0.0159
  838MOL0     C13029   8.401   8.305  -0.449  0.1007  0.1229  0.2505
  838MOL0     C13030   8.267   8.277  -0.464 -0.5502 -1.1123 -0.4512
  838MOL0     O13031   8.225   8.143  -0.447  0.7534 -0.4416 -0.3557
  838MOL0     C13032   8.091   8.112  -0.480 -0.8048 -0.8536  0.4327
  838MOL0     C13033   8.049   7.979  -0.438 -0.3919  0.3340 -0.0457
  838MOL0     C13034   7.913   7.951  -0.503 -1.0688 -0.6489  0.2088
  838MOL0     C13035   7.853   7.823  -0.458  0.0387  0.1312 -0.0881
  838MOL0     C13036   7.731   7.786  -0.541  0.4198  0.3164 -0.0167
  838MOL0     C13037   7.616   7.885  -0.504  0.2504 -0.0797 -0.7779
  838MOL0     C13038   7.478   7.842  -0.571  0.2449  0.4668  0.2689
  838MOL0     C13039   7.367   7.874  -0.471 -0.7005  0.0895 -0.1796
  838MOL0    Cl13040   7.215   7.833  -0.538  0.2873 -0.4299 -0.1719
  838MOL0     C13041   8.186   8.393  -0.486  0.1313  0.5970 -0.0657
  838MOL0     C13042   8.243   8.517  -0.480  1.0170  0.4083 -0.4842
  838MOL0     O13043   8.357   8.696  -0.707  0.1191 -0.1814 -0.1215
  838MOL0     C13044   8.646   8.850  -0.534  0.4750 -0.2688  0.6765
  838MOL0     C13045   8.721   8.964  -0.528 -0.5720 -0.1137  0.0728
  838MOL0     N13046   9.197   9.232  -0.366  0.5031 -0.1842 -0.1519
  838MOL0     N13047   9.297   9.228  -0.293 -0.1944  0.4540 -0.1769
  838MOL0     C13048  10.332   9.626   0.283  0.2308  0.3174 -0.6669
  838MOL0     C13049  10.472   9.617   0.320 -1.1552  0.7873  0.6109
  838MOL0     C13050  10.930   9.476   0.275  0.4465  0.9258  0.1363
  838MOL0     C13051  10.980   9.585   0.346 -0.1482  0.0542  0.7739
  838MOL0     C13052  11.114   9.587   0.384 -0.1036 -0.2138 -0.4476
  838MOL0     C13053  11.193   9.474   0.371  0.3437 -0.2739  0.1561
  838MOL0     O13054  11.321   9.478   0.417 -0.0663 -0.0611 -0.6929
  838MOL0     C13055  11.403   9.360   0.410  0.0002 -0.7007  0.0153
  838MOL0     C13056  11.503   9.360   0.523 -0.1360  0.5981  0.2412
  838MOL0     C13057  11.592   9.233   0.513  0.0616  0.6329 -0.0771
  838MOL0     C13058  11.730   9.274   0.552  0.2965  0.3005 -0.2864
  838MOL0     C13059  11.744   9.313   0.698 -0.6357 -0.1824  0.1570
  838MOL0     C13060  11.771   9.354   0.811 -0.3559 -0.2515 -0.0731
  838MOL0     C13061  11.143   9.367   0.297  0.9591  0.0065  0.0559
  838MOL0     C13062  11.011   9.366   0.246 -0.1148  0.1253  0.3987
  838MOL0     H13063  10.632   9.580   0.022 -0.7017 -2.3091 -0.2759
  838MOL0     H13064  10.403   9.587  -0.060 -0.0656  0.7451  0.7649
  838MOL0     H13065  10.210   9.777  -0.027 -0.6658  1.6295  4.6210
  838MOL0     H13066  10.172   9.610  -0.085  2.5539 -0.7534  1.1199
  838MOL0     H13067   9.993   9.789   0.082  3.5824 -0.6864  0.0354
  838MOL0     H13068   9.960   9.777  -0.093 -4.3186  2.9092  3.2392
  838MOL0     H13069   9.938   9.519  -0.061  2.4455  0.7295 -0.7760
  838MOL0     H13070   9.925   9.565   0.117 -1.3678 -1.7329  0.0809
  838MOL0     H13071   9.742   9.712   0.069 -3.1391 -1.2872  0.9082
  838MOL0     H13072   9.756   9.701  -0.099 -2.5362 -0.4393 -0.4612
  838MOL0     H13073   9.722   9.465  -0.103  1.1570 -0.3823  0.3622
  838MOL0     H13074   9.704   9.458   0.067  0.4115 -1.2805  0.7395
  838MOL0     H13075   9.507   9.624   0.048 -2.3394  0.2474 -1.1592
  838MOL0     H13076   9.530   9.658  -0.113 -0.0621 -0.1176  0.2517
  838MOL0     H13077   9.430   9.392   0.015 -0.9994 -0.4345  0.7860
  838MOL0     H13078   9.332   9.501  -0.072 -0.4910 -1.5935 -0.6016
  838MOL0     H13079   9.521   9.311  -0.199 -1.1592 -0.4805 -3.1975
  838MOL0     H13080   9.509   9.463  -0.285 -0.6032 -0.1666 -0.8812
  838MOL0     H13081   9.255   9.550  -0.309  3.5171 -1.7537  1.2409
  838MOL0     H13082   8.960   9.371  -0.441 -0.4752 -0.8197 -3.2537
  838MOL0     H13083   9.048   9.520  -0.467 -3.5031  0.1128 -0.1454
  838MOL0     H13084   9.124   9.425  -0.690 -1.3806  0.7084 -0.6607
  838MOL0     H13085   8.960   9.426  -0.682  2.4304  1.5838 -2.6946
  838MOL0     H13086   9.156   9.189  -0.634  0.1071 -0.0482  0.1128
  838MOL0     H13087   9.049   9.213  -0.774  1.1157  1.9949 -0.7475
  838MOL0     H13088   8.936   9.143  -0.487 -0.0020  2.1320 -1.1069
  838MOL0     H13089   8.993   9.029  -0.596  3.3202  0.8917 -1.4398
  838MOL0     H13090   8.659   9.087  -0.831  0.8688 -0.8475 -1.3250
  838MOL0     H13091   8.546   8.895  -0.959 -1.8288  0.5721 -1.0971
  838MOL0     H13092   8.401   8.841  -0.888 -1.0271 -0.4868 -4.5633
  838MOL0     H13093   8.425   9.012  -0.913 -1.0813 -1.7459 -3.8004
  838MOL0     H13094   8.565   8.443  -0.452 -0.0693 -0.1488 -3.6671
  838MOL0     H13095   8.457   8.212  -0.435 -0.1883  0.0900  1.3084
  838MOL0     H13096   8.015   8.185  -0.451 -0.7584 -0.8892  0.6468
  838MOL0     H13097   8.094   8.118  -0.589 -0.9144  1.0968  0.4994
  838MOL0     H13098   8.119   7.908  -0.484 -0.1549 -0.9771  2.2087
  838MOL0     H13099   8.052   7.959  -0.330  1.2463 -0.7697 -0.2579
  838MOL0     H13100   7.925   7.955  -0.611 -4.6664 -2.7858 -0.4165
  838MOL0     H13101   7.851   8.032  -0.462  1.5930  1.7292 -0.1747
  838MOL0     H13102   7.930   7.748  -0.475 -2.3248 -2.2799 -0.7407
  838MOL0     H13103   7.825   7.825  -0.353  2.1831 -0.0781  0.5352
  838MOL0     H13104   7.702   7.686  -0.506  0.7430  1.3248  3.4649
  838MOL0     H13105   7.742   7.790  -0.650 -3.7234 -1.6454 -0.7292
  838MOL0     H13106   7.600   7.888  -0.395 -1.1566  0.1219 -0.9636
  838MOL0     H13107   7.646   7.983  -0.540  1.0302 -0.4304 -1.0906
  838MOL0     H13108   7.484   7.734  -0.583 -3.0001 -0.2205  3.2160
  838MOL0     H13109   7.472   7.894  -0.667  0.9898 -0.2751 -0.1952
  838MOL0     H13110   7.367   7.983  -0.469 -5.1068  0.3052 -1.2371
  838MOL0     H13111   7.393   7.830  -0.374  2.4829 -0.4045 -1.1549
  838MOL0     H13112   8.081   8.402  -0.511 -0.0960  1.2210  1.0001
  838MOL0     H13113   8.184   8.601  -0.514  0.0356 -1.3867 -3.5676
  838MOL0     H13114   8.655   8.782  -0.450  2.5931 -2.4342 -1.1585
  838MOL0     H13115   8.768   8.996  -0.435 -1.5286 -0.1100  0.5734
  838MOL0     H13116  10.251   9.624   0.355 -0.8288  0.1639 -1.8208
  838MOL0     H13117  10.493   9.612   0.426  0.8804 -1.2832  0.1912
  838MOL0     H13118  10.911   9.661   0.381 -1.1379 -0.8985  0.9219
  838MOL0     H13119  11.155   9.682   0.420 -2.7078  2.0502 -2.9522
  838MOL0     H13120  11.352   9.265   0.428  3.2589 -2.0885  3.0137
  838MOL0     H13121  11.457   9.352   0.315  0.4093  0.6202  0.1155
  838MOL0     H13122  11.432   9.375   0.605  0.3126  1.2087  0.5242
  838MOL0     H13123  11.563   9.451   0.528 -1.1302  1.2360  1.1274
  838MOL0     H13124  11.596   9.179   0.418 -0.2573  1.9833 -0.8866
  838MOL0     H13125  11.552   9.172   0.594 -1.0074 -1.0949 -1.8148
  838MOL0     H13126  11.767   9.363   0.501  0.8600 -0.0229 -0.4519
  838MOL0     H13127  11.800   9.193   0.528  1.2216  1.5066 -1.8386
  838MOL0     H13128  11.786   9.381   0.914 -0.6443  0.0723 -0.1167
  838MOL0     H13129  11.203   9.285   0.258 -1.5420 -0.5649 -3.1119
  838MOL0     H13130  10.983   9.285   0.179  2.3951 -1.1314  0.7601
  839MOL0     O13131   9.873   5.714   1.308  0.0094  0.3010 -0.1743
  839MOL0     C13132   9.905   5.711   1.188  0.8313 -0.2144  0.0611
  839MOL0     O13133   9.828   5.697   1.082 -0.1751 -0.1070 -0.0062
  839MOL0     C13134   9.699   5.658   1.106 -0.1669  0.3349 -0.0698
  839MOL0     C13135   9.672   5.538   1.173  0.1609 -0.0824  0.1452
  839MOL0     C13136   9.540   5.496   1.190 -0.1372  0.0190  0.6549
  839MOL0     C13137   9.437   5.577   1.144  0.6827  0.7588 -0.1433
  839MOL0     O13138   9.306   5.539   1.188  0.5025  0.2427  0.5188
  839MOL0     C13139   9.192   5.601   1.129 -0.3353 -0.8086  0.0083
  839MOL0     C13140   9.161   5.527   1.001 -0.3585 -0.2055 -0.2591
  839MOL0     C13141   9.052   5.599   0.923  0.3217 -0.6843 -0.1788
  839MOL0     C13142   9.002   5.534   0.796  0.2401  0.0053  0.2604
  839MOL0     C13143   8.878   5.608   0.745 -0.3324 -0.6859  0.4980
  839MOL0     C13144   8.901   5.753   0.692 -0.6220  0.9394 -0.5840
  839MOL0     C13145   8.772   5.798   0.626 -0.4602  0.2468 -0.3519
  839MOL0     C13146   8.721   5.725   0.501  0.1226  1.2202  0.4284
  839MOL0     N13147   8.607   5.795   0.438 -0.4678 -0.1362 -0.5029
  839MOL0     C13148   8.617   5.893   0.342 -0.1772 -0.2278  0.1586
  839MOL0     C13149   8.489   5.935   0.329  0.0081  0.7325 -0.6992
  839MOL0     C13150   8.455   6.036   0.225 -0.6925  0.1984 -0.3426
  839MOL0     C13151   8.329   6.110   0.237  0.5293  0.4934 -0.2231
  839MOL0     C13152   8.210   6.016   0.192 -0.6434 -0.3493 -0.6162
  839MOL0     C13153   8.095   6.096   0.135  1.0290  0.2723 -0.3517
  839MOL0     O13154   7.980   6.005   0.118  0.1807 -0.0163 -0.0515
  839MOL0     C13155   7.859   6.068   0.093  0.1923  0.3205 -0.0925
  839MOL0     C13156   7.751   6.048   0.185 -0.2101  0.3139 -0.0854
  839MOL0     C13157   7.624   6.110   0.172  0.3746 -0.1686 -0.8185
  839MOL0     C13158   7.535   6.084   0.296  0.7561 -0.1896  0.0188
  839MOL0     C13159   7.605   6.212   0.075 -0.4171 -0.2500  0.9290
  839MOL0     C13160   7.482   6.282   0.053 -0.1607 -0.0523 -0.0352
  839MOL0     O13161   7.375   6.232   0.125  0.0598  0.4406  0.2961
  839MOL0     C13162   7.254   6.289   0.117 -0.1185  0.0147 -0.0467
  839MOL0     C13163   7.182   6.289   0.232 -0.1130  0.1429  0.3879
  839MOL0     C13164   7.047   6.336   0.240 -0.5904  0.3629 -0.3122
  839MOL0     C13165   6.982   6.365   0.124 -0.2202  0.4146  0.1232
  839MOL0     O13166   6.854   6.381   0.143 -0.1190  0.6989  0.0159
  839MOL0     C13167   6.776   6.403   0.025  0.7169 -0.1269  0.1329
  839MOL0     C13168   6.628   6.390   0.050 -0.0822  0.2689 -0.3938
  839MOL0     C13169   6.587   6.246   0.095  0.2937 -0.0542 -0.4760
  839MOL0     C13170   6.451   6.245   0.161  1.2912  0.3984 -0.6787
  839MOL0     C13171   6.409   6.106   0.208 -0.1128 -0.0122 -0.3440
  839MOL0     C13172   6.274   6.113   0.293 -0.3054  0.0745  0.5128
  839MOL0     C13173   6.170   6.208   0.218  0.1198  0.5417 -0.2055
  839MOL0     C13174   6.038   6.204   0.292 -1.1117 -0.3049  0.0968
  839MOL0    Cl13175   5.922   6.322   0.220 -0.1367  0.2470 -0.0634
  839MOL0     C13176   7.051   6.363   0.004 -0.8898 -0.1514 -0.5597
  839MOL0     C13177   7.182   6.322  -0.004 -0.9057  1.2214 -0.0874
  839MOL0     O13178   7.475   6.382  -0.022 -1.2181  0.3753  0.3445
  839MOL0     C13179   7.716   6.246  -0.006 -0.5004  0.1585  0.8357
  839MOL0     C13180   7.842   6.178   0.004 -0.5101  1.0326  0.3203
  839MOL0     N13181   8.410   5.856   0.409  0.2840 -0.0373  0.0810
  839MOL0     N13182   8.478   5.765   0.475 -1.1974  0.5466  0.4599
  839MOL0     C13183   9.460   5.688   1.066 -0.1650  0.5722  0.0058
  839MOL0     C13184   9.593   5.719   1.040 -0.2915  0.5557  0.7762
  839MOL0     C13185  10.039   5.771   1.160  0.0066  0.2140  1.3046
  839MOL0     C13186  10.087   5.817   1.026  0.0087  0.5456  0.3211
  839MOL0     C13187  10.223   5.853   1.021  0.9045  0.1599  0.3452
  839MOL0     C13188  10.306   5.873   1.129  0.0211 -0.1414 -0.8454
  839MOL0     O13189  10.431   5.928   1.094 -0.0787  0.1874  0.8154
  839MOL0     C13190  10.509   5.974   1.196 -1.3633 -0.8330 -0.9254
  839MOL0     C13191  10.627   6.045   1.151 -0.6765  0.9312 -0.3157
  839MOL0     C13192  10.607   6.155   1.046  0.3826  0.7178 -0.0636
  839MOL0     C13193  10.734   6.210   0.996  0.2729 -0.1882 -0.8115
  839MOL0     C13194  10.799   6.293   1.104  0.2349  0.9788 -0.0642
  839MOL0     C13195  10.861   6.362   1.182  0.2300  0.6117 -0.4242
  839MOL0     C13196  10.257   5.830   1.255  0.2632  0.0445  0.2612
  839MOL0     C13197  10.129   5.785   1.263  0.0051  0.1822 -0.1877
  839MOL0     H13198   9.752   5.472   1.202  1.6886  1.7022  0.2237
  839MOL0     H13199   9.525   5.410   1.255  0.9828  0.6378  1.7657
  839MOL0     H13200   9.114   5.595   1.206 -0.9580  0.0549 -0.5263
  839MOL0     H13201   9.213   5.708   1.114 -0.2744 -1.1106 -2.3719
  839MOL0     H13202   9.248   5.521   0.935  0.0967  2.1132  0.0355
  839MOL0     H13203   9.129   5.428   1.035  2.6418 -0.5129  2.1471
  839MOL0     H13204   8.969   5.613   0.994  0.6737 -3.5915  0.9366
  839MOL0     H13205   9.097   5.694   0.895 -1.3285  0.0194 -0.5660
  839MOL0     H13206   9.079   5.542   0.718 -0.5425 -0.2285 -0.5500
  839MOL0     H13207   8.992   5.425   0.792 -1.4635  0.1632 -3.3378
  839MOL0     H13208   8.854   5.547   0.658  1.2793  0.8038 -1.0692
  839MOL0     H13209   8.807   5.609   0.829  0.2805  2.8026  1.1451
  839MOL0     H13210   8.923   5.804   0.786  1.7885 -0.4506 -0.3121
  839MOL0     H13211   8.989   5.765   0.628 -0.6116 -0.8433 -0.9541
  839MOL0     H13212   8.690   5.795   0.698 -1.8033 -2.8212 -1.8151
  839MOL0     H13213   8.783   5.900   0.590  0.9579  0.1727 -0.1899
  839MOL0     H13214   8.686   5.625   0.526 -0.6169  0.6311 -2.5559
  839MOL0     H13215   8.797   5.731   0.422 -1.8560  2.9774 -1.4809
  839MOL0     H13216   8.704   5.944   0.303 -0.1673  0.6693  1.2975
  839MOL0     H13217   8.531   6.115   0.223  0.6731 -1.0649  0.1051
  839MOL0     H13218   8.469   5.984   0.130  0.7054 -1.2863  0.6225
  839MOL0     H13219   8.326   6.196   0.170  1.1446  1.7480  1.3031
  839MOL0     H13220   8.315   6.151   0.338  0.4213  0.3357 -0.1737
  839MOL0     H13221   8.169   5.956   0.274 -1.8718  0.9056 -0.2597
  839MOL0     H13222   8.236   5.955   0.105  1.9931  1.6844 -1.3639
  839MOL0     H13223   8.121   6.152   0.044 -3.9265  1.2903 -1.4697
  839MOL0     H13224   8.078   6.173   0.211 -0.3845  0.6833 -1.0351
  839MOL0     H13225   7.752   5.977   0.267 -1.6381  1.5554  1.0564
  839MOL0     H13226   7.479   6.174   0.322 -2.6733 -1.6199 -1.7588
  839MOL0     H13227   7.464   6.003   0.275  0.1472  0.6253 -1.1481
  839MOL0     H13228   7.597   6.062   0.383  1.2313  0.3979 -0.1644
  839MOL0     H13229   7.235   6.264   0.323 -1.3345 -1.6452  0.6604
  839MOL0     H13230   6.995   6.344   0.334 -1.7814 -0.8895 -0.8327
  839MOL0     H13231   6.796   6.499  -0.022 -1.1079  0.4156  0.3774
  839MOL0     H13232   6.796   6.329  -0.053 -3.0332 -0.6324 -0.5256
  839MOL0     H13233   6.606   6.464   0.128  0.4160  2.5719 -2.3126
  839MOL0     H13234   6.577   6.423  -0.041  1.3006 -1.8696 -2.0408
  839MOL0     H13235   6.659   6.222   0.175 -1.8241 -0.9461  1.2737
  839MOL0     H13236   6.601   6.170   0.018  2.5395 -2.4591  2.0992
  839MOL0     H13237   6.450   6.308   0.250 -2.6645  0.6707 -0.7339
  839MOL0     H13238   6.378   6.279   0.086 -2.1976 -2.6158  1.0516
  839MOL0     H13239   6.491   6.057   0.262 -2.1374 -1.8884  1.2369
  839MOL0     H13240   6.391   6.036   0.126 -2.5861  0.2407 -0.0982
  839MOL0     H13241   6.249   6.006   0.301  2.3045 -0.7234 -0.8672
  839MOL0     H13242   6.301   6.145   0.394  2.9493  0.5249 -0.3688
  839MOL0     H13243   6.154   6.168   0.118  3.2167 -0.6816 -0.3230
  839MOL0     H13244   6.208   6.309   0.202 -0.6631  0.9548  0.4446
  839MOL0     H13245   6.055   6.231   0.397  1.5295 -1.9900  0.1811
  839MOL0     H13246   6.001   6.102   0.280 -1.5354 -0.5864  3.0124
  839MOL0     H13247   7.002   6.392  -0.089  0.9379 -1.2303 -1.9366
  839MOL0     H13248   7.236   6.326  -0.098 -0.9965  1.4802 -0.1304
  839MOL0     H13249   7.703   6.333  -0.070  1.2670  3.3171  4.3582
  839MOL0     H13250   7.931   6.208  -0.049  0.4618  1.6865  2.2046
  839MOL0     H13251   9.387   5.753   1.017  0.8411  0.1742 -2.1128
  839MOL0     H13252   9.618   5.809   0.985 -1.3226 -0.3426 -1.2553
  839MOL0     H13253  10.015   5.809   0.945  0.1928  2.9563 -0.1380
  839MOL0     H13254  10.259   5.897   0.929  1.7495  0.7481  0.9333
  839MOL0     H13255  10.453   6.046   1.255  0.8845  1.2665 -1.2077
  839MOL0     H13256  10.546   5.891   1.258  0.7484  1.2185  0.7404
  839MOL0     H13257  10.701   5.979   1.104  2.6690  3.1082  1.4210
  839MOL0     H13258  10.683   6.080   1.239 -0.8467 -1.0267  0.6303
  839MOL0     H13259  10.548   6.239   1.083  2.7486  2.1626  0.6214
  839MOL0     H13260  10.551   6.107   0.965  1.6580  0.0680 -0.5901
  839MOL0     H13261  10.716   6.269   0.906  0.3556 -0.1432 -0.7986
  839MOL0     H13262  10.806   6.133   0.970  3.6760  2.0139  1.2793
  839MOL0     H13263  10.909   6.426   1.253 -0.4011 -0.1870  0.7528
  839MOL0     H13264  10.307   5.854   1.348 -3.5761  0.7360  2.3607
  839MOL0     H13265  10.094   5.755   1.361  1.0023 -1.8062 -0.3801
  840MOL0     O13266   8.529   7.831   3.586 -0.8519  0.5746  0.2863
  840MOL0     C13267   8.567   7.950   3.559  0.5858 -0.4022  0.6300
  840MOL0     O13268   8.489   8.048   3.501 -0.7595  0.3905  0.4028
  840MOL0     C13269   8.362   8.027   3.464 -0.3446  0.4280 -0.0414
  840MOL0     C13270   8.316   8.056   3.335  0.0533 -0.1066  0.1391
  840MOL0     C13271   8.184   8.049   3.293  0.8256  0.5590  0.0554
  840MOL0     C13272   8.083   7.989   3.377  0.2647 -0.5838  0.2471
  840MOL0     O13273   7.961   7.977   3.326 -0.4846 -0.2477  0.3203
  840MOL0     C13274   7.851   7.941   3.415 -0.1423  1.5585  0.4360
  840MOL0     C13275   7.723   7.904   3.337 -0.1240 -0.8013  0.3493
  840MOL0     C13276   7.699   7.993   3.218  0.8701 -0.3052 -0.2452
  840MOL0     C13277   7.559   7.948   3.172  0.1557 -0.1478 -0.5407
  840MOL0     C13278   7.498   8.045   3.073  0.2534 -0.4737  0.6440
  840MOL0     C13279   7.353   7.995   3.051 -0.8340  0.3147 -0.0456
  840MOL0     C13280   7.266   8.080   2.952  0.3480  1.0946  0.2850
  840MOL0     C13281   7.132   8.027   2.917  1.1828  0.6822  0.2706
  840MOL0     N13282   7.143   7.891   2.865  0.1118 -0.0607 -0.0266
  840MOL0     C13283   7.153   7.863   2.735  0.6997 -0.9352  0.1654
  840MOL0     C13284   7.148   7.730   2.723  0.4873  0.0707  0.0022
  840MOL0     C13285   7.162   7.637   2.608 -0.7669 -0.5920  0.2550
  840MOL0     C13286   7.029   7.640   2.524 -0.4274 -0.0386  0.7127
  840MOL0     C13287   7.063   7.569   2.389 -0.2219  0.2887 -0.4479
  840MOL0     C13288   6.948   7.565   2.291  0.2565  0.4902  0.3313
  840MOL0     O13289   6.903   7.701   2.275  0.2710  0.4871 -0.3695
  840MOL0     C13290   6.776   7.703   2.215  0.0424  0.1299 -0.4748
  840MOL0     C13291   6.700   7.593   2.171 -0.3775  0.1866  0.4995
  840MOL0     C13292   6.565   7.603   2.129  0.0643 -0.0821 -0.6245
  840MOL0     C13293   6.492   7.481   2.086 -0.4183 -0.7662 -0.4626
  840MOL0     C13294   6.497   7.734   2.143  0.1213  0.8935  0.2051
  840MOL0     C13295   6.354   7.755   2.104  0.9033  0.2279 -0.1694
  840MOL0     O13296   6.292   7.660   2.035 -0.9657  0.1868 -0.2007
  840MOL0     C13297   6.168   7.676   2.010 -0.8959 -0.1737 -0.0617
  840MOL0     C13298   6.106   7.788   1.945  0.1056  0.5461 -0.4020
  840MOL0     C13299   5.977   7.783   1.895 -0.6811 -0.9115 -0.6210
  840MOL0     C13300   5.908   7.661   1.895  0.1507 -0.3379 -0.3570
  840MOL0     O13301   5.793   7.653   1.823  0.6062  0.1611  0.2016
  840MOL0     C13302   5.743   7.517   1.796  0.1870  0.3778  0.4843
  840MOL0     C13303   5.655   7.535   1.671  0.4427  0.3167 -0.1605
  840MOL0     C13304   5.611   7.393   1.632 -0.2585  0.1723  0.3739
  840MOL0     C13305   5.479   7.402   1.561 -0.7344 -0.5610  0.4135
  840MOL0     C13306   5.494   7.384   1.408  0.8337 -0.7550 -0.4175
  840MOL0     C13307   5.356   7.385   1.344  0.1603  0.6231  0.6592
  840MOL0     C13308   5.372   7.345   1.197 -0.5610 -0.3716 -0.3210
  840MOL0     C13309   5.421   7.454   1.106 -0.7364  0.3294  0.3095
  840MOL0    Cl13310   5.398   7.406   0.939 -0.0401 -0.0116 -0.7197
  840MOL0     C13311   5.957   7.552   1.974 -0.4490 -0.7401 -0.1392
  840MOL0     C13312   6.085   7.563   2.036 -0.1938 -0.0081  1.4065
  840MOL0     O13313   6.298   7.853   2.154 -0.4105  0.2016 -0.0145
  840MOL0     C13314   6.569   7.836   2.199 -0.9696 -0.4369  0.1187
  840MOL0     C13315   6.706   7.820   2.235  0.0873  0.1208  1.0446
  840MOL0     N13316   7.130   7.677   2.849 -1.3560  0.9590 -0.1138
  840MOL0     N13317   7.140   7.767   2.928  1.1565  0.4997 -1.7077
  840MOL0     C13318   8.126   7.946   3.503  0.5807  0.4798 -0.0673
  840MOL0     C13319   8.260   7.972   3.546 -0.3993 -1.3635  0.5109
  840MOL0     C13320   8.689   7.986   3.614 -0.2843 -0.1621 -0.1028
  840MOL0     C13321   8.767   8.087   3.565 -0.2480 -0.0452  0.0973
  840MOL0     C13322   8.895   8.110   3.624  0.7389  0.5388 -0.0823
  840MOL0     C13323   8.939   8.042   3.738  0.2553 -0.0167  0.4588
  840MOL0     O13324   9.057   8.080   3.789 -0.0902  0.2172  0.6436
  840MOL0     C13325   9.104   8.015   3.900 -0.7500  0.0294 -0.2840
  840MOL0     C13326   9.238   8.096   3.936  0.1537 -0.7564  0.2891
  840MOL0     C13327   9.339   8.095   3.818  0.5088 -0.6469 -0.5924
  840MOL0     C13328   9.481   8.140   3.862 -0.6862  0.7522 -0.4509
  840MOL0     C13329   9.552   8.028   3.937 -0.1789 -0.4320 -0.8992
  840MOL0     C13330   9.622   7.937   3.979  0.7718 -0.8701  0.6761
  840MOL0     C13331   8.848   7.943   3.783  0.5302 -0.2292 -0.0192
  840MOL0     C13332   8.729   7.920   3.729 -0.4618 -0.3995 -1.2398
  840MOL0     H13333   8.387   8.105   3.269 -0.7251 -0.2406 -0.8246
  840MOL0     H13334   8.158   8.105   3.203  2.6014  2.2933  0.5419
  840MOL0     H13335   7.874   7.846   3.463  1.1746  1.9260  0.5664
  840MOL0     H13336   7.836   8.012   3.496 -1.9534  1.0966  0.5500
  840MOL0     H13337   7.731   7.798   3.311 -1.9547 -0.9913  0.3922
  840MOL0     H13338   7.643   7.912   3.412 -0.0553  0.7790  0.2691
  840MOL0     H13339   7.705   8.096   3.254  5.0625 -0.4000 -0.1830
  840MOL0     H13340   7.776   7.977   3.142 -1.4158 -0.4203 -2.6944
  840MOL0     H13341   7.568   7.847   3.130 -0.3780  0.0516 -1.1468
  840MOL0     H13342   7.495   7.943   3.260  0.3125 -1.6439 -0.4853
  840MOL0     H13343   7.497   8.151   3.098  0.2134  0.3216 -2.3489
  840MOL0     H13344   7.559   8.033   2.982 -0.5792 -1.6908  0.2102
  840MOL0     H13345   7.355   7.893   3.012  0.4939 -0.0645  0.9366
  840MOL0     H13346   7.304   7.986   3.149 -0.3197 -1.7482  0.0755
  840MOL0     H13347   7.251   8.179   2.995 -1.5716  0.2011  1.8862
  840MOL0     H13348   7.319   8.083   2.857 -4.1720  0.2388 -2.5810
  840MOL0     H13349   7.082   8.072   2.831  1.9394 -1.7570 -1.5755
  840MOL0     H13350   7.077   8.023   3.012  2.3280 -0.1537  0.9314
  840MOL0     H13351   7.169   7.941   2.661  0.0873 -1.0017 -0.0438
  840MOL0     H13352   7.248   7.676   2.553 -1.1575  1.4181  0.9511
  840MOL0     H13353   7.191   7.543   2.655  0.1010  0.0359  1.0304
  840MOL0     H13354   6.988   7.738   2.502 -2.8476 -0.8426  1.3307
  840MOL0     H13355   6.946   7.585   2.570 -0.1882 -1.6684 -0.6511
  840MOL0     H13356   7.090   7.466   2.414  1.5418  1.1552  1.4749
  840MOL0     H13357   7.146   7.620   2.341 -1.0558 -0.4314 -2.7774
  840MOL0     H13358   6.867   7.502   2.330 -1.5604  0.7085 -2.7990
  840MOL0     H13359   6.984   7.522   2.197 -1.5611 -0.4615  0.0123
  840MOL0     H13360   6.746   7.495   2.161 -0.4736  0.1918 -0.0315
  840MOL0     H13361   6.419   7.473   2.167  0.5272  0.1889  0.5183
  840MOL0     H13362   6.449   7.496   1.986  0.9395 -0.0710 -0.9563
  840MOL0     H13363   6.563   7.398   2.084 -1.0031 -1.2788 -3.0207
  840MOL0     H13364   6.163   7.877   1.921  2.2383 -1.4008 -3.2190
  840MOL0     H13365   5.938   7.874   1.851 -0.1112  0.6354  1.8762
  840MOL0     H13366   5.817   7.440   1.775  1.4252  1.5229  0.5648
  840MOL0     H13367   5.674   7.483   1.873  1.9408  0.2469  2.0528
  840MOL0     H13368   5.569   7.599   1.692 -1.0845 -1.3389 -1.0376
  840MOL0     H13369   5.695   7.592   1.588 -2.3272  1.1098 -1.0694
  840MOL0     H13370   5.597   7.338   1.726  1.6344  0.7331  1.0364
  840MOL0     H13371   5.696   7.351   1.577  0.9154 -3.4846  4.3962
  840MOL0     H13372   5.412   7.326   1.602 -2.1665  0.6318  0.3552
  840MOL0     H13373   5.433   7.499   1.579  1.1348  0.2666  0.9561
  840MOL0     H13374   5.548   7.289   1.400 -2.2112 -2.5653 -1.1017
  840MOL0     H13375   5.555   7.462   1.362 -0.9770  0.5809 -0.7109
  840MOL0     H13376   5.295   7.303   1.383  1.1804  0.2289  1.4818
  840MOL0     H13377   5.313   7.484   1.363  0.2545  0.8062 -0.0702
  840MOL0     H13378   5.268   7.324   1.168 -1.5010  0.4441  2.2277
  840MOL0     H13379   5.441   7.263   1.174  0.5326  0.8162 -1.4433
  840MOL0     H13380   5.528   7.461   1.128 -0.3612 -2.6341 -0.1689
  840MOL0     H13381   5.368   7.547   1.127 -1.9866 -0.3120  0.0278
  840MOL0     H13382   5.900   7.464   2.003  1.0783 -2.2199 -1.4286
  840MOL0     H13383   6.121   7.483   2.099  2.3023  1.9341  2.6367
  840MOL0     H13384   6.520   7.924   2.240 -0.4397 -0.6365  1.2131
  840MOL0     H13385   6.754   7.911   2.268 -0.1546  0.6021  0.1074
  840MOL0     H13386   8.059   7.890   3.567 -2.2597 -0.5321 -3.5837
  840MOL0     H13387   8.283   7.931   3.644 -0.9795  2.3262  2.3659
  840MOL0     H13388   8.730   8.145   3.481 -0.9655 -0.0058  0.4306
  840MOL0     H13389   8.968   8.186   3.599  0.3893  0.9423  0.1055
  840MOL0     H13390   9.023   8.026   3.974 -2.3452 -0.5230 -1.8806
  840MOL0     H13391   9.125   7.909   3.884  1.6871  0.1187  1.7013
  840MOL0     H13392   9.289   8.049   4.020 -4.1667 -4.1929  1.4056
  840MOL0     H13393   9.205   8.200   3.946  2.6023  0.8004 -4.5297
  840MOL0     H13394   9.308   8.169   3.744 -0.1058  0.2756  0.5584
  840MOL0     H13395   9.324   7.996   3.772  1.0033 -1.4148  0.8251
  840MOL0     H13396   9.467   8.227   3.927 -1.3281  0.5071 -0.2502
  840MOL0     H13397   9.544   8.187   3.787 -0.5199  2.5091  0.7433
  840MOL0     H13398   9.694   7.863   4.006  1.4793 -1.6940 -2.9467
  840MOL0     H13399   8.886   7.885   3.867  1.4246  0.5063  0.1050
  840MOL0     H13400   8.659   7.848   3.770 -4.6871  2.0433 -3.5819
  841MOL0     O13401   0.387  11.122   9.449 -0.5239 -0.2039  0.3596
  841MOL0     C13402   0.478  11.176   9.384 -0.0061  0.2751 -0.0417
  841MOL0     O13403   0.459  11.276   9.298 -0.7729 -0.8357 -0.0990
  841MOL0     C13404   0.331  11.327   9.296  0.0347 -1.5451 -0.0704
  841MOL0     C13405   0.283  11.380   9.417  0.4404  0.1620 -0.4728
  841MOL0     C13406   0.155  11.418   9.428  0.2550  0.5007 -0.3673
  841MOL0     C13407   0.067  11.414   9.323 -0.6599 -0.7401  0.3819
  841MOL0     O13408  -0.061  11.459   9.345  0.2750  0.8497  0.0519
  841MOL0     C13409  -0.154  11.416   9.252  0.5520  0.0838 -0.0233
  841MOL0     C13410  -0.290  11.395   9.321  0.0690 -0.5413 -0.5926
  841MOL0     C13411  -0.294  11.283   9.430 -0.5576 -0.0701  0.5602
  841MOL0     C13412  -0.434  11.240   9.474  0.4161  0.4579 -0.1237
  841MOL0     C13413  -0.433  11.119   9.564  0.4901  0.0646 -0.5107
  841MOL0     C13414  -0.581  11.067   9.594 -0.4336 -0.3315 -0.1308
  841MOL0     C13415  -0.581  10.981   9.712  0.4562 -0.2765  0.2584
  841MOL0     C13416  -0.575  11.055   9.847 -0.3717 -0.4101  0.2689
  841MOL0     N13417  -0.541  10.976   9.968  0.6936  0.1685  0.1230
  841MOL0     C13418  -0.524  10.844   9.983 -0.1625 -0.8720 -0.9152
  841MOL0     C13419  -0.504  10.832  10.119 -1.0685 -0.1745 -0.4224
  841MOL0     C13420  -0.486  10.697  10.192  0.6803 -0.6966 -0.5270
  841MOL0     C13421  -0.625  10.640  10.209  0.8642  0.4727  0.5940
  841MOL0     C13422  -0.693  10.686  10.339  0.0121 -0.5951  0.0181
  841MOL0     C13423  -0.837  10.642  10.335 -0.0298  0.0813 -0.3641
  841MOL0     O13424  -0.851  10.512  10.392  0.4675 -0.5066  0.4886
  841MOL0     C13425  -0.963  10.433  10.366 -0.9575  0.1639 -0.4550
  841MOL0     C13426  -0.974  10.319  10.444  0.4433 -0.0562  0.6396
  841MOL0     C13427  -1.080  10.227  10.441 -0.1808 -0.3043 -1.1735
  841MOL0     C13428  -1.092  10.097  10.520 -0.3083  0.0521  0.3147
  841MOL0     C13429  -1.189  10.268  10.352  0.0648  0.0903  0.4722
  841MOL0     C13430  -1.315  10.191  10.328  0.5078  0.1221 -0.5306
  841MOL0     O13431  -1.366  10.208  10.203  1.2328  0.4646  0.0986
  841MOL0     C13432  -1.476  10.121  10.187  0.0082  0.0102  0.4107
  841MOL0     C13433  -1.456   9.984  10.167 -0.6333 -0.1884  0.4607
  841MOL0     C13434  -1.561   9.896  10.145  1.6494 -0.1762  0.1793
  841MOL0     C13435  -1.686   9.959  10.128  0.8392  0.4876  0.7558
  841MOL0     O13436  -1.803   9.884  10.116 -0.0838  0.3230  0.4084
  841MOL0     C13437  -1.791   9.752  10.051  1.0091 -0.4728  0.6601
  841MOL0     C13438  -1.923   9.707   9.994  0.0281  0.2049 -0.4119
  841MOL0     C13439  -1.925   9.563   9.947  0.4382 -0.0125 -0.1334
  841MOL0     C13440  -2.070   9.524   9.899  0.3879  0.3324  0.3607
  841MOL0     C13441  -2.069   9.379   9.845  0.6946 -0.3194  0.0826
  841MOL0     C13442  -2.194   9.343   9.764 -0.5708  0.6960  0.4034
  841MOL0     C13443  -2.203   9.199   9.728  0.5185 -0.8360  0.8932
  841MOL0     C13444  -2.225   9.115   9.855  0.5094 -0.7737 -0.2422
  841MOL0    Cl13445  -2.335   8.989   9.805 -0.0575 -0.0861 -0.1286
  841MOL0     C13446  -1.713  10.092  10.146 -0.7598 -0.2222  0.5658
  841MOL0     C13447  -1.606  10.174  10.174 -0.6065  0.8741  0.1863
  841MOL0     O13448  -1.366  10.128  10.419 -0.7779 -0.4030  0.3062
  841MOL0     C13449  -1.177  10.380  10.275 -0.0534 -0.7024  0.4956
  841MOL0     C13450  -1.061  10.458  10.277 -0.4781  0.7538 -0.5296
  841MOL0     N13451  -0.504  10.954  10.185  0.9182  0.4948  0.7981
  841MOL0     N13452  -0.526  11.036  10.089 -0.4395  0.0120 -0.4375
  841MOL0     C13453   0.125  11.394   9.196  0.1705 -0.5599  0.2155
  841MOL0     C13454   0.253  11.340   9.180  0.1878 -0.2229 -0.1620
  841MOL0     C13455   0.620  11.131   9.411 -1.0609 -0.6831  0.0400
  841MOL0     C13456   0.642  11.030   9.500 -0.3177 -0.5265  0.0415
  841MOL0     C13457   0.784  11.000   9.533  1.0469  0.0630 -0.1943
  841MOL0     C13458   0.890  11.067   9.473  0.1234 -0.0559 -0.7179
  841MOL0     O13459   1.024  11.040   9.494 -0.4642 -0.2259  0.8855
  841MOL0     C13460   1.059  10.926   9.565 -0.3282  0.0651 -0.6147
  841MOL0     C13461   1.174  10.865   9.498 -0.7847 -0.2209 -0.1385
  841MOL0     C13462   1.238  10.758   9.597 -0.5246 -0.8045  0.8144
  841MOL0     C13463   1.367  10.700   9.542  0.6198 -0.0018 -0.8472
  841MOL0     C13464   1.467  10.799   9.526 -0.3616 -0.4292  0.0829
  841MOL0     C13465   1.542  10.890   9.520 -0.2234 -0.0409  0.0650
  841MOL0     C13466   0.858  11.178   9.389  0.0771  0.8262 -0.3051
  841MOL0     C13467   0.731  11.208   9.360  0.9632  0.3446  0.2012
  841MOL0     H13468   0.340  11.375   9.509 -0.1501 -0.1543 -0.1253
  841MOL0     H13469   0.105  11.433   9.523 -0.7835 -0.0543 -0.8018
  841MOL0     H13470  -0.174  11.487   9.171 -2.2300 -1.2991 -0.6557
  841MOL0     H13471  -0.132  11.313   9.220 -1.9702  0.1586 -2.3035
  841MOL0     H13472  -0.328  11.486   9.369  2.8520  0.6189 -0.4134
  841MOL0     H13473  -0.363  11.357   9.249 -0.3320 -0.1919 -0.3837
  841MOL0     H13474  -0.244  11.201   9.378  0.3180  0.8038  0.0030
  841MOL0     H13475  -0.228  11.313   9.512  0.0088 -0.9883  0.4623
  841MOL0     H13476  -0.471  11.334   9.517  0.0137 -0.0985  0.7619
  841MOL0     H13477  -0.494  11.206   9.389  1.8094 -0.5719 -0.7416
  841MOL0     H13478  -0.376  11.041   9.512  0.7051  0.0784 -0.2959
  841MOL0     H13479  -0.382  11.145   9.657 -2.0642 -0.2509  1.0783
  841MOL0     H13480  -0.641  11.158   9.601  1.8108  1.3442 -1.3193
  841MOL0     H13481  -0.615  11.016   9.503  0.5028  2.2561 -2.0449
  841MOL0     H13482  -0.669  10.916   9.717  0.7564 -1.0633 -2.6513
  841MOL0     H13483  -0.501  10.906   9.701 -0.4925 -1.1073 -1.4956
  841MOL0     H13484  -0.676  11.095   9.863 -0.5992  0.0387 -1.9678
  841MOL0     H13485  -0.505  11.139   9.851  1.0119 -1.5541  1.7268
  841MOL0     H13486  -0.519  10.764   9.910 -0.2483  1.4058 -3.5949
  841MOL0     H13487  -0.427  10.629  10.130  0.6328 -0.8366 -0.4195
  841MOL0     H13488  -0.430  10.702  10.286  0.1833 -1.7843 -0.1451
  841MOL0     H13489  -0.627  10.531  10.206  0.0952  0.4232  1.9565
  841MOL0     H13490  -0.685  10.671  10.123  1.8196 -1.3354 -0.7918
  841MOL0     H13491  -0.678  10.794  10.342  2.8531 -0.7730 -2.9054
  841MOL0     H13492  -0.654  10.657  10.436 -1.6947 -0.3306  0.8256
  841MOL0     H13493  -0.873  10.657  10.233 -1.0295 -2.6987 -0.4984
  841MOL0     H13494  -0.897  10.703  10.404  0.2258 -0.3551  0.2511
  841MOL0     H13495  -0.906  10.301  10.528 -1.1784 -0.5575  1.8972
  841MOL0     H13496  -0.993  10.070  10.558 -0.0297  1.6995  0.8412
  841MOL0     H13497  -1.166  10.115  10.597  1.2856  1.2688  1.6225
  841MOL0     H13498  -1.132  10.019  10.454 -0.1267  0.4581 -0.2846
  841MOL0     H13499  -1.354   9.954  10.190 -0.3594  0.8442  0.6235
  841MOL0     H13500  -1.558   9.788  10.151 -2.2223 -0.4685 -0.4257
  841MOL0     H13501  -1.715   9.769   9.974  0.3005 -0.1528  0.0197
  841MOL0     H13502  -1.746   9.681  10.121  3.8255  0.0476 -0.4833
  841MOL0     H13503  -1.990   9.727  10.077  1.5405  0.2372  0.8417
  841MOL0     H13504  -1.947   9.779   9.915  2.4064 -1.7619 -3.1432
  841MOL0     H13505  -1.895   9.496  10.028  0.8358 -3.0951 -2.6038
  841MOL0     H13506  -1.858   9.553   9.861 -1.3439  0.2999 -1.6411
  841MOL0     H13507  -2.134   9.530   9.988 -1.0333  2.4537 -0.7166
  841MOL0     H13508  -2.097   9.590   9.817  0.7486  0.9717  0.7442
  841MOL0     H13509  -2.058   9.316   9.933 -0.3608  1.2445  1.3785
  841MOL0     H13510  -1.980   9.376   9.781  0.3223 -1.1395 -0.4106
  841MOL0     H13511  -2.277   9.374   9.829  2.1413  1.8713  3.6027
  841MOL0     H13512  -2.200   9.404   9.673 -0.2142  0.0016 -0.0886
  841MOL0     H13513  -2.115   9.169   9.670 -1.4170  2.0735 -4.1995
  841MOL0     H13514  -2.284   9.182   9.656 -1.5289  0.1212  2.8779
  841MOL0     H13515  -2.269   9.165   9.941  2.2264  0.0136  0.2355
  841MOL0     H13516  -2.123   9.077   9.870  1.1096  0.5009 -0.9462
  841MOL0     H13517  -1.807  10.136  10.117  0.6627  0.9405 -2.6985
  841MOL0     H13518  -1.631  10.280  10.176  2.1869  1.5829  1.0644
  841MOL0     H13519  -1.255  10.412  10.207 -0.7495 -1.7591  0.7650
  841MOL0     H13520  -1.050  10.543  10.210 -0.3173  0.9279 -0.2806
  841MOL0     H13521   0.063  11.412   9.108 -0.6302 -3.1863  0.1645
  841MOL0     H13522   0.295  11.317   9.083  0.4955  3.4733 -1.0324
  841MOL0     H13523   0.561  11.004   9.567 -3.1585  3.4675 -1.4658
  841MOL0     H13524   0.804  10.944   9.623  1.7199 -0.0045 -0.3792
  841MOL0     H13525   1.084  10.961   9.666  2.2276 -0.2449 -1.0723
  841MOL0     H13526   0.972  10.859   9.569 -2.0221  1.7384 -4.4773
  841MOL0     H13527   1.252  10.936   9.470 -0.1845 -0.2245  1.4319
  841MOL0     H13528   1.129  10.813   9.413 -4.1370  2.0877  0.0313
  841MOL0     H13529   1.165  10.681   9.624  0.1332 -1.0731  1.9269
  841MOL0     H13530   1.255  10.809   9.693  0.4180 -1.3683  0.9679
  841MOL0     H13531   1.345  10.662   9.442  0.9477 -0.3851 -0.7768
  841MOL0     H13532   1.401  10.615   9.602  0.4476  0.3622 -0.2244
  841MOL0     H13533   1.610  10.970   9.542  0.2392 -0.6394  0.8943
  841MOL0     H13534   0.934  11.229   9.331  2.1357  0.6913  2.1281
  841MOL0     H13535   0.709  11.280   9.282 -3.4293 -0.4391  0.4596
  842MOL0     O13536   2.679   9.269   6.125 -0.6606  0.2882  0.0341
  842MOL0     C13537   2.695   9.199   6.029 -0.0826 -1.0030  0.5178
  842MOL0     O13538   2.621   9.214   5.911 -0.4442  0.3735  0.0661
  842MOL0     C13539   2.495   9.250   5.912 -0.0332 -0.2583  0.8964
  842MOL0     C13540   2.393   9.207   5.993 -1.1161 -0.0759  0.2563
  842MOL0     C13541   2.267   9.258   5.981 -0.1467 -1.1957 -1.1552
  842MOL0     C13542   2.238   9.346   5.879  0.0060 -0.0803 -0.0096
  842MOL0     O13543   2.109   9.390   5.850 -0.6654 -0.5196 -0.7636
  842MOL0     C13544   2.004   9.317   5.905 -0.1267 -0.5421 -0.2310
  842MOL0     C13545   1.882   9.392   5.856  0.0779  0.3860 -0.8535
  842MOL0     C13546   1.760   9.379   5.952 -0.3429 -0.1474 -0.3821
  842MOL0     C13547   1.658   9.502   5.940  0.2223 -0.3177 -0.0823
  842MOL0     C13548   1.524   9.454   5.994 -0.3926 -0.0749 -0.1203
  842MOL0     C13549   1.417   9.562   5.978 -0.8655  1.4484  0.7619
  842MOL0     C13550   1.283   9.508   6.039  0.5512 -0.3118  0.2986
  842MOL0     C13551   1.204   9.642   6.074  0.6727 -0.0323 -0.0552
  842MOL0     N13552   1.060   9.619   6.107  0.0724  0.6933 -0.4362
  842MOL0     C13553   0.951   9.691   6.060 -0.4450  0.9200 -0.0600
  842MOL0     C13554   0.846   9.640   6.129  0.4739 -0.9053 -1.1218
  842MOL0     C13555   0.697   9.678   6.107 -0.1008 -0.4726 -0.0977
  842MOL0     C13556   0.629   9.750   6.233  0.2612 -0.3593  0.6249
  842MOL0     C13557   0.616   9.649   6.351  0.5265 -0.1614  0.3222
  842MOL0     C13558   0.488   9.660   6.428 -0.6109  0.6876  0.0429
  842MOL0     O13559   0.365   9.605   6.359 -0.1810  0.1372 -0.1817
  842MOL0     C13560   0.244   9.653   6.419 -0.5752 -0.8341  0.7914
  842MOL0     C13561   0.219   9.666   6.558  0.2043  0.5251  0.3020
  842MOL0     C13562   0.089   9.707   6.598 -0.2296 -0.4614  0.2739
  842MOL0     C13563   0.065   9.711   6.745 -0.1497  0.1650 -0.1539
  842MOL0     C13564  -0.015   9.741   6.506 -0.0052 -0.0642 -0.3469
  842MOL0     C13565  -0.163   9.796   6.549 -0.1185 -0.1785  0.0832
  842MOL0     O13566  -0.255   9.826   6.451  0.0361  0.5206  1.0306
  842MOL0     C13567  -0.391   9.832   6.486 -0.0728 -0.0676  0.6350
  842MOL0     C13568  -0.446   9.940   6.548  0.0083 -0.2754  1.0090
  842MOL0     C13569  -0.583   9.959   6.548 -0.0145  0.0742 -0.1010
  842MOL0     C13570  -0.668   9.857   6.487 -0.7034 -0.9356 -0.0595
  842MOL0     O13571  -0.799   9.902   6.497 -0.3765 -0.0889  1.0065
  842MOL0     C13572  -0.903   9.803   6.490 -0.5220  0.1544 -0.1284
  842MOL0     C13573  -0.924   9.735   6.628 -0.2508 -0.0155  0.3621
  842MOL0     C13574  -0.944   9.847   6.727 -0.1838 -0.0454  0.6812
  842MOL0     C13575  -0.950   9.795   6.877  0.0134 -1.0870  0.8938
  842MOL0     C13576  -1.090   9.735   6.901 -0.7099 -0.0576 -0.4531
  842MOL0     C13577  -1.099   9.657   7.034 -0.1895 -0.4278  0.0122
  842MOL0     C13578  -1.080   9.736   7.162 -0.0191  0.5238  0.2652
  842MOL0     C13579  -1.091   9.643   7.276  0.6106 -0.3350 -0.8023
  842MOL0    Cl13580  -0.947   9.532   7.271 -0.0518 -0.5323  0.1608
  842MOL0     C13581  -0.614   9.758   6.412  0.0756 -0.7299  1.1088
  842MOL0     C13582  -0.478   9.748   6.412 -0.4873 -0.2665  0.3276
  842MOL0     O13583  -0.180   9.818   6.669  0.0827  0.9167  0.9079
  842MOL0     C13584   0.012   9.722   6.371  0.8322  0.4359  0.5198
  842MOL0     C13585   0.139   9.679   6.334  0.5409 -0.2165  0.1510
  842MOL0     N13586   0.895   9.553   6.221  0.6672  0.1842 -0.0805
  842MOL0     N13587   1.023   9.542   6.212  0.4132 -0.1773 -0.2186
  842MOL0     C13588   2.336   9.388   5.788 -0.6443 -1.1662 -0.1491
  842MOL0     C13589   2.463   9.340   5.817  0.6223 -0.5176  0.0796
  842MOL0     C13590   2.811   9.107   6.023  0.5351  0.1583  0.3374
  842MOL0     C13591   2.847   9.022   5.917  0.2449 -0.6291  0.2532
  842MOL0     C13592   2.951   8.934   5.926 -0.8607  0.3318 -0.0708
  842MOL0     C13593   3.046   8.952   6.023 -0.3680  0.4507  0.1256
  842MOL0     O13594   3.168   8.881   6.013  0.0573 -0.7126 -0.3509
  842MOL0     C13595   3.283   8.966   6.000 -0.4155  0.0133 -0.1203
  842MOL0     C13596   3.401   8.881   5.970 -0.3268  0.9183  0.4979
  842MOL0     C13597   3.427   8.758   6.065 -0.5526 -0.5134 -0.0260
  842MOL0     C13598   3.453   8.808   6.205  0.0623 -0.4017  0.2778
  842MOL0     C13599   3.514   8.704   6.295 -0.0154  1.0915  1.0142
  842MOL0     C13600   3.584   8.613   6.347 -0.2392 -0.3520  0.1281
  842MOL0     C13601   3.027   9.040   6.122 -0.6245  0.1411  0.1144
  842MOL0     C13602   2.910   9.119   6.121  0.0010  0.6051  0.3201
  842MOL0     H13603   2.418   9.129   6.064  1.2887 -0.0895 -0.5165
  842MOL0     H13604   2.196   9.226   6.057  0.5397  1.6032  0.8017
  842MOL0     H13605   2.004   9.215   5.865  0.5385  0.3394 -2.6492
  842MOL0     H13606   2.008   9.316   6.014 -1.3076  2.7089 -0.0576
  842MOL0     H13607   1.904   9.497   5.837  1.4500  0.8726  2.7238
  842MOL0     H13608   1.861   9.338   5.763 -2.0748  0.9315 -0.7448
  842MOL0     H13609   1.700   9.294   5.918  1.4087 -0.8223 -1.9248
  842MOL0     H13610   1.794   9.363   6.055 -0.3128 -0.8353 -0.4972
  842MOL0     H13611   1.701   9.588   5.993  1.9178 -1.1936  0.0441
  842MOL0     H13612   1.661   9.530   5.835  1.1515  1.9927  0.4831
  842MOL0     H13613   1.499   9.368   5.931  1.5198  0.9687 -2.4534
  842MOL0     H13614   1.529   9.431   6.101 -1.4795  3.0596  0.7133
  842MOL0     H13615   1.463   9.653   6.017  1.6899 -0.2426  1.9747
  842MOL0     H13616   1.407   9.573   5.870 -0.9234 -1.3164  0.3954
  842MOL0     H13617   1.222   9.450   5.970 -0.3424 -0.0174  0.8164
  842MOL0     H13618   1.300   9.447   6.129 -2.8050  0.0490  1.3332
  842MOL0     H13619   1.204   9.696   5.979  2.7441 -0.7844 -0.5314
  842MOL0     H13620   1.258   9.695   6.153  0.9850  0.5371 -0.6433
  842MOL0     H13621   0.936   9.762   5.979 -0.6559 -0.7852 -1.5703
  842MOL0     H13622   0.679   9.740   6.019 -2.0571 -1.7908 -0.6654
  842MOL0     H13623   0.649   9.592   6.061  0.0534 -2.1639  2.6876
  842MOL0     H13624   0.529   9.772   6.194  0.4770  0.6244  0.5861
  842MOL0     H13625   0.674   9.849   6.251  0.7178 -0.5585  0.5935
  842MOL0     H13626   0.698   9.680   6.417 -0.1685  0.3515  0.9488
  842MOL0     H13627   0.620   9.549   6.307  5.3916 -0.3501  0.6573
  842MOL0     H13628   0.478   9.764   6.459  2.2610  1.4718 -1.2969
  842MOL0     H13629   0.498   9.609   6.525  0.1199  0.6018 -0.0735
  842MOL0     H13630   0.300   9.636   6.623  2.5242 -0.2970 -2.7296
  842MOL0     H13631  -0.021   9.651   6.777 -0.5015  0.5097 -0.4484
  842MOL0     H13632   0.146   9.670   6.808 -0.6775  0.8346  0.9922
  842MOL0     H13633   0.057   9.814   6.781  1.1413  0.0152  0.6416
  842MOL0     H13634  -0.378  10.000   6.608  0.0071 -0.4205  1.1569
  842MOL0     H13635  -0.634  10.038   6.602 -1.6617 -0.4757 -0.7822
  842MOL0     H13636  -0.994   9.860   6.473  0.3082  1.9259  1.0980
  842MOL0     H13637  -0.902   9.729   6.409 -1.1627 -0.4183  0.3730
  842MOL0     H13638  -1.010   9.668   6.626  0.4895 -0.9863 -0.6600
  842MOL0     H13639  -0.837   9.677   6.660  2.1222  2.8143 -0.5491
  842MOL0     H13640  -1.033   9.901   6.694 -0.9551 -1.1189  0.9613
  842MOL0     H13641  -0.879   9.934   6.716 -2.2146  1.5991  1.1197
  842MOL0     H13642  -0.873   9.718   6.888  1.6574  0.2381 -0.7198
  842MOL0     H13643  -0.921   9.882   6.937  2.8557 -1.4334  0.1955
  842MOL0     H13644  -1.107   9.663   6.820  0.9892 -0.7695 -0.2212
  842MOL0     H13645  -1.169   9.809   6.909 -2.1349 -1.0689 -3.5154
  842MOL0     H13646  -1.197   9.609   7.026 -0.9330  0.8244  1.2694
  842MOL0     H13647  -1.034   9.569   7.024  0.9231  0.1884  1.5618
  842MOL0     H13648  -1.162   9.808   7.165 -1.6154 -1.2201  2.6468
  842MOL0     H13649  -0.988   9.790   7.185  1.3222 -1.2672 -0.6054
  842MOL0     H13650  -1.180   9.583   7.254 -0.1262  1.3440 -2.7167
  842MOL0     H13651  -1.094   9.692   7.373 -0.7154 -0.0942 -0.9483
  842MOL0     H13652  -0.673   9.693   6.348 -1.7230 -0.1395  2.0859
  842MOL0     H13653  -0.443   9.665   6.352 -0.5086  1.3612 -2.0517
  842MOL0     H13654  -0.061   9.755   6.298  0.1236 -0.6736  0.7071
  842MOL0     H13655   0.159   9.677   6.227  0.6677 -0.0940  0.1725
  842MOL0     H13656   2.308   9.451   5.704 -0.9109 -1.3646 -0.2128
  842MOL0     H13657   2.545   9.383   5.759  0.0976 -0.2813 -0.5029
  842MOL0     H13658   2.796   9.035   5.822  2.6904 -1.3135 -1.2405
  842MOL0     H13659   2.970   8.863   5.845  0.3469  1.1797 -0.5630
  842MOL0     H13660   3.264   9.051   5.935 -0.5935  3.7148  4.2153
  842MOL0     H13661   3.284   9.000   6.104  2.8039 -2.7704  0.9841
  842MOL0     H13662   3.488   8.949   5.970  1.2636 -0.9910 -1.3001
  842MOL0     H13663   3.395   8.842   5.868 -1.9947  0.2639  0.8225
  842MOL0     H13664   3.523   8.717   6.031  1.3826  1.9435  2.0675
  842MOL0     H13665   3.353   8.677   6.063 -0.3804 -0.6922  0.4696
  842MOL0     H13666   3.356   8.838   6.246  1.4494  4.2104  0.7567
  842MOL0     H13667   3.521   8.893   6.205  1.0947 -1.1571  2.3383
  842MOL0     H13668   3.647   8.542   6.397  1.7376  0.0626 -1.6529
  842MOL0     H13669   3.105   9.063   6.193  1.9084  0.6435 -2.6333
  842MOL0     H13670   2.903   9.197   6.195  0.5193 -0.1187  1.1532
  843MOL0     O13671   0.893   8.866   6.854  0.0085  0.5020 -0.6452
  843MOL0     C13672   0.894   8.814   6.971 -0.7960 -0.3400  0.9552
  843MOL0     O13673   0.798   8.749   7.035  0.4080 -0.1123  0.5094
  843MOL0     C13674   0.675   8.752   6.986  1.7024  0.2309 -0.0026
  843MOL0     C13675   0.622   8.865   6.930  0.5725  0.5021  0.0623
  843MOL0     C13676   0.492   8.885   6.900  0.1745  0.3140  0.6192
  843MOL0     C13677   0.401   8.779   6.927 -0.6953  0.8024 -0.0795
  843MOL0     O13678   0.274   8.820   6.890 -0.2764  0.0503  0.4385
  843MOL0     C13679   0.163   8.746   6.928  0.1708  0.0184 -0.6109
  843MOL0     C13680   0.049   8.836   6.978 -0.0555 -0.1527 -0.1541
  843MOL0     C13681  -0.076   8.768   7.045 -0.5868 -0.2487  0.8300
  843MOL0     C13682  -0.191   8.861   7.088  1.3608 -1.3190  0.3661
  843MOL0     C13683  -0.323   8.794   7.064 -0.0299 -0.3903 -0.1766
  843MOL0     C13684  -0.436   8.892   7.097  0.3828  0.4931  0.0523
  843MOL0     C13685  -0.570   8.835   7.046 -0.9155  0.5578  0.4525
  843MOL0     C13686  -0.684   8.940   7.064 -0.1483  0.5121 -0.1729
  843MOL0     N13687  -0.819   8.891   7.022 -0.8554 -0.2565  0.0342
  843MOL0     C13688  -0.937   8.912   7.088  0.5291 -0.2108  0.9682
  843MOL0     C13689  -1.026   8.860   6.994 -0.2891 -0.2201 -0.4872
  843MOL0     C13690  -1.171   8.849   7.007 -0.6664 -0.0138 -0.8262
  843MOL0     C13691  -1.233   8.985   6.989  0.1268 -0.1011 -0.2391
  843MOL0     C13692  -1.387   8.986   7.017  0.4246  0.0145 -0.9641
  843MOL0     C13693  -1.458   9.065   6.900  0.3080  0.0098 -0.1823
  843MOL0     O13694  -1.602   9.061   6.920 -0.3766 -0.2771 -0.1984
  843MOL0     C13695  -1.663   9.144   6.829  1.1985 -0.4061 -0.2262
  843MOL0     C13696  -1.637   9.272   6.777 -0.3579  0.1192  0.5484
  843MOL0     C13697  -1.713   9.330   6.678  1.3920  1.1034 -0.6823
  843MOL0     C13698  -1.664   9.456   6.629 -0.1298 -0.5962 -0.4331
  843MOL0     C13699  -1.838   9.273   6.630 -0.2862 -0.7168  0.4070
  843MOL0     C13700  -1.929   9.343   6.538 -0.6817  0.0297 -0.2242
  843MOL0     O13701  -2.030   9.264   6.527 -0.4590  0.2378  0.2211
  843MOL0     C13702  -2.153   9.315   6.513  0.6040  0.1424  0.9732
  843MOL0     C13703  -2.207   9.435   6.576  0.1435  0.6180  0.5968
  843MOL0     C13704  -2.342   9.462   6.569 -0.0879 -0.0167 -0.3872
  843MOL0     C13705  -2.424   9.380   6.481 -0.6271  0.2600  0.2549
  843MOL0     O13706  -2.556   9.417   6.463 -0.6437 -0.6262 -0.5445
  843MOL0     C13707  -2.624   9.440   6.586  0.3478 -0.3395  0.0361
  843MOL0     C13708  -2.751   9.361   6.594  0.3201 -0.1141  0.5837
  843MOL0     C13709  -2.846   9.407   6.486  0.6451  0.1548  0.4370
  843MOL0     C13710  -2.940   9.523   6.532  0.4953  0.0441 -0.1589
  843MOL0     C13711  -3.054   9.561   6.431  0.2959  1.0631  0.2501
  843MOL0     C13712  -3.151   9.658   6.507 -0.2431 -0.3751 -0.6370
  843MOL0     C13713  -3.258   9.585   6.587  0.3793 -0.4039  0.7438
  843MOL0     C13714  -3.373   9.690   6.613  0.2948  0.2678  0.4977
  843MOL0    Cl13715  -3.342   9.816   6.738 -0.4070 -0.3598  0.1484
  843MOL0     C13716  -2.376   9.261   6.412 -0.4958 -0.5700  0.0438
  843MOL0     C13717  -2.242   9.228   6.436  0.0450  0.0525 -0.5490
  843MOL0     O13718  -1.901   9.438   6.462 -0.0247 -0.3524 -0.7854
  843MOL0     C13719  -1.867   9.143   6.687  0.2363  0.0562 -0.9620
  843MOL0     C13720  -1.785   9.085   6.790 -0.2136  0.0830  0.6090
  843MOL0     N13721  -0.964   8.827   6.875  0.3561 -0.0679 -0.5021
  843MOL0     N13722  -0.834   8.839   6.896  0.1711 -0.1006  0.1258
  843MOL0     C13723   0.447   8.667   6.994  0.3924  0.7417  0.2297
  843MOL0     C13724   0.592   8.650   7.015  0.6330 -0.8299 -0.4536
  843MOL0     C13725   1.021   8.805   7.043 -0.2762  0.4363  0.6398
  843MOL0     C13726   1.145   8.794   6.975  0.3774  0.8426 -0.1905
  843MOL0     C13727   1.264   8.774   7.061 -0.3500 -1.0304  0.2771
  843MOL0     C13728   1.256   8.785   7.197  0.0444  0.9282 -0.2744
  843MOL0     O13729   1.362   8.792   7.286  0.6149  0.4070 -0.8511
  843MOL0     C13730   1.496   8.755   7.244 -0.1485 -0.5013  0.3837
  843MOL0     C13731   1.597   8.798   7.345  0.4590 -0.3190 -0.4693
  843MOL0     C13732   1.555   8.761   7.488  0.4502 -0.1457 -0.2247
  843MOL0     C13733   1.675   8.800   7.580 -0.1913 -0.0155  0.1946
  843MOL0     C13734   1.653   8.766   7.719  0.9101  1.2588 -0.1443
  843MOL0     C13735   1.649   8.742   7.842  0.7585  0.0536 -0.6400
  843MOL0     C13736   1.131   8.786   7.255 -0.1554 -0.5912 -0.4264
  843MOL0     C13737   1.015   8.797   7.185  0.9205  0.6467 -0.1114
  843MOL0     H13738   0.691   8.948   6.924  2.6162 -0.9853  1.7339
  843MOL0     H13739   0.469   8.981   6.855  0.0502  0.4550  0.9823
  843MOL0     H13740   0.122   8.702   6.836  1.6001 -0.8155 -0.8752
  843MOL0     H13741   0.167   8.667   7.003 -0.2660 -0.6912 -1.3106
  843MOL0     H13742   0.094   8.909   7.046 -0.5056  2.5342 -2.5598
  843MOL0     H13743   0.009   8.892   6.893 -1.2692 -0.8618 -0.0627
  843MOL0     H13744  -0.096   8.693   6.969 -0.5230  0.6182 -0.0717
  843MOL0     H13745  -0.040   8.713   7.132  4.2059  0.6306 -0.2526
  843MOL0     H13746  -0.177   8.878   7.195 -0.3721  0.9777  0.2887
  843MOL0     H13747  -0.185   8.959   7.040 -1.4740 -0.8733  0.7196
  843MOL0     H13748  -0.328   8.760   6.960 -2.1705 -0.4829 -0.0727
  843MOL0     H13749  -0.349   8.705   7.120 -2.3231 -0.9559 -2.0001
  843MOL0     H13750  -0.439   8.893   7.207  0.0489 -0.5785  0.0619
  843MOL0     H13751  -0.414   8.991   7.055 -0.2622 -0.1874 -2.0079
  843MOL0     H13752  -0.553   8.813   6.940 -1.2774 -0.0584  0.5160
  843MOL0     H13753  -0.598   8.738   7.087 -2.2166  0.7885  0.1726
  843MOL0     H13754  -0.662   9.018   6.991 -0.6097 -2.4311 -3.6946
  843MOL0     H13755  -0.680   8.968   7.170  0.5718 -1.9864  0.5147
  843MOL0     H13756  -0.969   8.940   7.188 -0.9829 -0.7590  0.6622
  843MOL0     H13757  -1.216   8.781   6.935 -1.8367 -0.8812  0.6703
  843MOL0     H13758  -1.189   8.814   7.109  4.5752  0.6278  0.6153
  843MOL0     H13759  -1.216   9.012   6.884 -0.0258  0.0499 -0.2263
  843MOL0     H13760  -1.192   9.063   7.053 -0.8536 -1.9414  2.8149
  843MOL0     H13761  -1.405   9.032   7.114  0.9969  0.1098 -0.8961
  843MOL0     H13762  -1.430   8.886   7.022  1.6322 -0.4580  2.1917
  843MOL0     H13763  -1.428   9.000   6.817 -0.0475 -0.2291 -0.1250
  843MOL0     H13764  -1.416   9.166   6.892  0.1289  0.2347  1.4683
  843MOL0     H13765  -1.550   9.330   6.809 -1.9016  1.3411  2.8419
  843MOL0     H13766  -1.726   9.544   6.649  0.1584 -0.7042  1.0184
  843MOL0     H13767  -1.558   9.473   6.648  0.1915 -1.6938 -1.1258
  843MOL0     H13768  -1.666   9.445   6.520 -0.3778  1.1544 -0.6224
  843MOL0     H13769  -2.154   9.496   6.648 -0.9036 -0.3900  2.2871
  843MOL0     H13770  -2.381   9.551   6.617 -1.2716  0.3863 -1.9892
  843MOL0     H13771  -2.559   9.408   6.668 -0.2502  2.8997  1.9540
  843MOL0     H13772  -2.651   9.545   6.600 -1.7214 -0.5306 -2.0485
  843MOL0     H13773  -2.725   9.258   6.570 -1.7469 -0.7795  1.0550
  843MOL0     H13774  -2.786   9.373   6.697  0.3007  2.1816  0.3551
  843MOL0     H13775  -2.904   9.320   6.452  1.8986  0.3625 -2.6232
  843MOL0     H13776  -2.787   9.441   6.400 -0.7440 -0.9210 -0.9996
  843MOL0     H13777  -2.997   9.489   6.618  1.1735 -0.8028 -0.0311
  843MOL0     H13778  -2.882   9.613   6.556 -0.2226  0.5050 -0.1117
  843MOL0     H13779  -3.110   9.470   6.408 -1.6652  2.3336 -0.2760
  843MOL0     H13780  -3.024   9.591   6.330 -2.8186 -3.8580 -2.5455
  843MOL0     H13781  -3.097   9.729   6.571  0.4577  0.2857 -1.9332
  843MOL0     H13782  -3.199   9.702   6.419  0.6408  0.1354 -0.8787
  843MOL0     H13783  -3.223   9.544   6.682  0.7663  1.5664  1.5123
  843MOL0     H13784  -3.289   9.499   6.528 -1.0471  0.6724 -0.1593
  843MOL0     H13785  -3.467   9.643   6.644 -0.3464  1.2143  0.0205
  843MOL0     H13786  -3.386   9.740   6.516 -0.2320 -1.4681 -0.3567
  843MOL0     H13787  -2.432   9.192   6.350 -0.3162  0.5364 -1.4249
  843MOL0     H13788  -2.198   9.136   6.400  0.0944  0.9602 -2.9668
  843MOL0     H13789  -1.968   9.103   6.677  0.4681 -0.1301 -2.8049
  843MOL0     H13790  -1.818   8.993   6.839  0.7284 -0.1008  0.9069
  843MOL0     H13791   0.377   8.588   7.015  3.1618 -2.1794 -0.6222
  843MOL0     H13792   0.635   8.562   7.062 -0.1309 -0.6838  0.5432
  843MOL0     H13793   1.159   8.789   6.868 -1.5635  0.8816 -0.4678
  843MOL0     H13794   1.361   8.775   7.013  0.1413  2.5778  1.0079
  843MOL0     H13795   1.495   8.646   7.235  2.9770 -0.6747  0.7091
  843MOL0     H13796   1.530   8.795   7.148  2.5640 -0.4657  1.2617
  843MOL0     H13797   1.612   8.906   7.350 -0.4317 -0.1834 -0.5510
  843MOL0     H13798   1.700   8.769   7.322  0.6537 -2.0157  2.1411
  843MOL0     H13799   1.537   8.653   7.490 -1.4178  0.0133 -3.1990
  843MOL0     H13800   1.458   8.801   7.521  0.3288  0.0759 -0.8482
  843MOL0     H13801   1.682   8.908   7.570 -4.7999  0.3090 -2.5762
  843MOL0     H13802   1.768   8.749   7.552  0.1013  0.4298  0.3526
  843MOL0     H13803   1.629   8.728   7.946 -2.8480  0.3104 -1.1486
  843MOL0     H13804   1.118   8.805   7.361 -0.3247  0.8932 -0.6908
  843MOL0     H13805   0.919   8.805   7.234  2.1912 -0.3803  2.7898
  844MOL0     O13806   4.167   5.523   6.824  0.3437  0.0624  0.3557
  844MOL0     C13807   4.146   5.512   6.701 -0.3004  0.5020  0.1030
  844MOL0     O13808   4.040   5.567   6.633 -0.0190 -0.1433 -0.1587
  844MOL0     C13809   3.953   5.635   6.713  0.8751 -0.4469 -0.9087
  844MOL0     C13810   3.819   5.591   6.700 -1.0355 -0.0279 -0.4631
  844MOL0     C13811   3.723   5.669   6.771  0.4512  1.0531  0.4166
  844MOL0     C13812   3.762   5.791   6.836 -0.2317  0.5867 -0.0722
  844MOL0     O13813   3.676   5.863   6.916 -0.5430 -0.0006  0.5571
  844MOL0     C13814   3.541   5.830   6.918  0.2556 -0.1216 -0.1079
  844MOL0     C13815   3.513   5.723   7.030 -0.2962 -0.6887  0.2065
  844MOL0     C13816   3.381   5.757   7.088  0.8142  0.9110 -0.2299
  844MOL0     C13817   3.263   5.731   6.994  0.4003 -0.5891  1.1671
  844MOL0     C13818   3.128   5.733   7.051 -0.0045  0.4387 -0.7100
  844MOL0     C13819   3.092   5.611   7.143  0.1917  0.4904 -1.2159
  844MOL0     C13820   2.936   5.592   7.166 -0.0794 -0.3592  0.7277
  844MOL0     C13821   2.909   5.478   7.264 -0.4835  0.2924 -0.5596
  844MOL0     N13822   2.766   5.450   7.276  0.5647  0.1130  0.7206
  844MOL0     C13823   2.691   5.361   7.194 -0.3960 -0.5518 -0.1360
  844MOL0     C13824   2.561   5.368   7.244 -0.3484 -0.5409 -0.0383
  844MOL0     C13825   2.442   5.275   7.198 -0.0011 -0.1744 -0.3256
  844MOL0     C13826   2.312   5.353   7.178 -0.0894  0.7482  0.0865
  844MOL0     C13827   2.211   5.267   7.112 -1.5251  0.3826 -1.0157
  844MOL0     C13828   2.075   5.337   7.102 -0.5828 -0.4505  0.0650
  844MOL0     O13829   1.979   5.235   7.077  0.2199 -0.1325  0.4982
  844MOL0     C13830   1.842   5.269   7.075  0.1598  0.2627 -0.1452
  844MOL0     C13831   1.753   5.161   7.066 -0.2686  0.3962 -0.7898
  844MOL0     C13832   1.609   5.169   7.048  0.6404 -0.1780  0.4408
  844MOL0     C13833   1.518   5.046   7.069  0.5358 -0.3154 -0.1053
  844MOL0     C13834   1.564   5.310   7.034  0.0426  0.8069 -0.1417
  844MOL0     C13835   1.422   5.339   7.021  0.4104 -0.3572  1.2807
  844MOL0     O13836   1.388   5.456   6.965 -0.3374  1.1824 -0.1604
  844MOL0     C13837   1.253   5.480   6.937  0.3892  0.8975 -0.0958
  844MOL0     C13838   1.207   5.468   6.812  0.2452  0.6316  0.0896
  844MOL0     C13839   1.081   5.501   6.784 -0.1965 -0.2283 -0.9212
  844MOL0     C13840   0.984   5.536   6.884  0.7543 -0.1766  0.2347
  844MOL0     O13841   0.850   5.559   6.850  0.6685 -0.4429  0.2101
  844MOL0     C13842   0.737   5.581   6.941  0.9520  0.2747 -0.2905
  844MOL0     C13843   0.607   5.593   6.851 -0.8811  0.1362 -0.1964
  844MOL0     C13844   0.502   5.625   6.946 -0.9245 -0.1024 -0.7965
  844MOL0     C13845   0.365   5.601   6.874  0.2118 -0.4871  0.1194
  844MOL0     C13846   0.243   5.646   6.952  0.2557  0.2094  0.4583
  844MOL0     C13847   0.112   5.624   6.882 -0.2309 -0.2601  0.5428
  844MOL0     C13848  -0.016   5.647   6.964  0.3992  0.3934  0.5994
  844MOL0     C13849  -0.150   5.640   6.883 -0.8005 -0.0725  0.9764
  844MOL0    Cl13850  -0.264   5.738   6.977  0.4385 -0.6534 -0.0920
  844MOL0     C13851   1.032   5.565   7.009  0.4782  0.0390  0.0092
  844MOL0     C13852   1.168   5.528   7.041  0.3565  0.3997 -0.6634
  844MOL0     O13853   1.339   5.254   7.061 -0.5161  0.1062  0.7447
  844MOL0     C13854   1.655   5.416   7.028  0.1851  0.2639 -0.2285
  844MOL0     C13855   1.789   5.394   7.049 -0.0785 -0.3854 -0.1289
  844MOL0     N13856   2.559   5.471   7.340  0.4413  0.1228  0.1377
  844MOL0     N13857   2.682   5.515   7.360  0.4238  0.8176 -0.4957
  844MOL0     C13858   3.898   5.831   6.842 -0.2452  0.2711  0.3168
  844MOL0     C13859   3.993   5.748   6.788  0.6334 -0.4143  0.5392
  844MOL0     C13860   4.246   5.427   6.629  0.1444 -0.1747 -0.3878
  844MOL0     C13861   4.313   5.318   6.692  0.2188 -1.0020  0.0379
  844MOL0     C13862   4.406   5.246   6.627 -0.7662  0.6319  0.2331
  844MOL0     C13863   4.428   5.257   6.486  0.7279 -0.6963  0.5474
  844MOL0     O13864   4.536   5.183   6.422 -0.2938  0.3596  0.0425
  844MOL0     C13865   4.495   5.104   6.311  0.2797 -0.0386 -0.9419
  844MOL0     C13866   4.586   4.997   6.274  0.5183  0.4042  0.2827
  844MOL0     C13867   4.728   5.054   6.258 -0.7995 -0.1010  0.5206
  844MOL0     C13868   4.821   4.963   6.171  0.8669 -0.3904 -0.0609
  844MOL0     C13869   4.956   4.978   6.221 -0.4087  0.7714 -0.7475
  844MOL0     C13870   5.073   4.989   6.243  0.5006  0.5417 -0.5832
  844MOL0     C13871   4.355   5.361   6.422 -0.3043  0.4590 -0.1624
  844MOL0     C13872   4.265   5.442   6.490  0.1078 -0.3725  0.5294
  844MOL0     H13873   3.795   5.496   6.653 -1.5854 -0.8212  1.3294
  844MOL0     H13874   3.629   5.620   6.790  0.6727  0.1691 -0.6647
  844MOL0     H13875   3.490   5.925   6.938 -0.9062 -0.9519  1.0242
  844MOL0     H13876   3.496   5.806   6.821 -2.3972 -1.4217  1.3205
  844MOL0     H13877   3.523   5.621   6.992 -0.4891 -0.9666  0.8912
  844MOL0     H13878   3.587   5.730   7.110  0.3061 -1.7225 -0.2455
  844MOL0     H13879   3.373   5.695   7.178 -0.8929 -0.4492 -1.2437
  844MOL0     H13880   3.381   5.861   7.121  3.1539  0.4297  1.5698
  844MOL0     H13881   3.275   5.802   6.911  1.2942 -0.3297  1.5010
  844MOL0     H13882   3.283   5.634   6.948  4.3218  1.5875 -2.5240
  844MOL0     H13883   3.130   5.821   7.115  0.3135 -1.0376  1.4251
  844MOL0     H13884   3.054   5.755   6.974  0.3977  1.8670 -0.7214
  844MOL0     H13885   3.125   5.520   7.092 -0.4341  0.6691 -1.9753
  844MOL0     H13886   3.143   5.618   7.239  2.5108  0.2019 -2.3645
  844MOL0     H13887   2.899   5.691   7.193 -2.3050 -0.3817 -1.7639
  844MOL0     H13888   2.887   5.573   7.070 -1.3307 -4.5008  1.9485
  844MOL0     H13889   2.950   5.499   7.363  0.8185 -2.7857 -0.3415
  844MOL0     H13890   2.965   5.389   7.236  0.7536 -0.7889  4.3358
  844MOL0     H13891   2.745   5.299   7.124  2.4005  0.7054  0.7460
  844MOL0     H13892   2.466   5.230   7.102 -2.9450 -0.7977 -0.8637
  844MOL0     H13893   2.440   5.195   7.272  0.7495 -0.1142 -0.2301
  844MOL0     H13894   2.339   5.434   7.109 -0.0293  1.0581  0.4717
  844MOL0     H13895   2.267   5.391   7.271 -0.4696  2.3207 -0.6887
  844MOL0     H13896   2.193   5.176   7.170  1.8957 -0.9382 -1.7962
  844MOL0     H13897   2.263   5.227   7.024  2.3129  1.5558  0.5083
  844MOL0     H13898   2.073   5.416   7.026  3.1912 -0.2411  0.0069
  844MOL0     H13899   2.051   5.380   7.199  0.0739 -1.3002  0.6192
  844MOL0     H13900   1.796   5.063   7.084 -1.0360  0.4767  1.8384
  844MOL0     H13901   1.580   4.958   7.089  0.7495  0.2910  2.0536
  844MOL0     H13902   1.446   5.064   7.148  0.0286  0.0769 -0.6469
  844MOL0     H13903   1.465   5.029   6.974  3.2627  0.6260 -1.9429
  844MOL0     H13904   1.276   5.455   6.730 -0.7739  0.7159 -0.7987
  844MOL0     H13905   1.056   5.489   6.679  0.3231 -0.0755 -1.0656
  844MOL0     H13906   0.731   5.490   7.000 -1.9782  0.7765  0.3081
  844MOL0     H13907   0.755   5.674   6.996  1.1267  0.5776 -0.8477
  844MOL0     H13908   0.622   5.675   6.780 -1.7122  1.2611  0.8760
  844MOL0     H13909   0.593   5.504   6.790 -0.4933 -1.1370  1.5038
  844MOL0     H13910   0.507   5.723   6.993 -4.3183  0.3442 -1.1098
  844MOL0     H13911   0.516   5.551   7.025 -0.7146  0.0592 -0.6830
  844MOL0     H13912   0.357   5.655   6.779 -1.3400 -1.8789 -0.5820
  844MOL0     H13913   0.346   5.497   6.848  0.0494 -0.9485  1.9482
  844MOL0     H13914   0.254   5.752   6.976  0.5314  1.0392 -2.8668
  844MOL0     H13915   0.247   5.602   7.052 -1.4023 -1.4313 -0.1138
  844MOL0     H13916   0.123   5.690   6.796  2.6716 -0.0103  1.0117
  844MOL0     H13917   0.119   5.525   6.836 -0.4232  0.5445 -1.3151
  844MOL0     H13918  -0.012   5.749   7.001  2.9705  0.3754  0.5377
  844MOL0     H13919  -0.028   5.581   7.050 -0.4647 -0.9395 -0.4967
  844MOL0     H13920  -0.185   5.536   6.878 -1.2497  0.1306 -3.0728
  844MOL0     H13921  -0.139   5.679   6.781  0.3259  1.1880  1.5430
  844MOL0     H13922   0.964   5.594   7.088  0.0624 -1.3469  0.1854
  844MOL0     H13923   1.216   5.551   7.136 -1.4187  2.2440 -0.1389
  844MOL0     H13924   1.621   5.518   7.011  0.7863  0.3132 -1.2272
  844MOL0     H13925   1.857   5.475   7.024  0.0506 -0.9000 -1.5369
  844MOL0     H13926   3.925   5.919   6.899  2.5336 -1.3204  1.6794
  844MOL0     H13927   4.093   5.789   6.792 -1.2603  4.8789  0.6452
  844MOL0     H13928   4.311   5.307   6.800 -1.8970  2.5325  0.5183
  844MOL0     H13929   4.461   5.169   6.679  1.2031  0.3245 -2.1710
  844MOL0     H13930   4.389   5.077   6.320  0.8828 -2.0458  1.2530
  844MOL0     H13931   4.501   5.172   6.226  2.3293  0.4943 -0.4161
  844MOL0     H13932   4.549   4.942   6.187 -1.9207  1.5488  0.5272
  844MOL0     H13933   4.578   4.931   6.361  0.0766 -0.8100 -0.6481
  844MOL0     H13934   4.764   5.044   6.361 -2.6291 -0.4467  1.1635
  844MOL0     H13935   4.731   5.155   6.217 -1.3587 -0.8036 -1.3690
  844MOL0     H13936   4.825   4.999   6.068  1.7023  0.9572  0.4020
  844MOL0     H13937   4.788   4.860   6.184 -1.3221  0.4521  1.6859
  844MOL0     H13938   5.170   5.010   6.285 -0.8960  1.2772  2.5477
  844MOL0     H13939   4.353   5.363   6.313 -5.0746 -1.2265 -0.3281
  844MOL0     H13940   4.216   5.517   6.429  3.6404  1.3860 -0.4430
  845MOL0     O13941   7.478   3.382   8.212 -0.3228  0.2908 -0.5639
  845MOL0     C13942   7.506   3.294   8.299 -0.3402 -0.9626  0.0093
  845MOL0     O13943   7.414   3.238   8.383  0.0862 -0.3944 -0.3337
  845MOL0     C13944   7.282   3.225   8.367 -0.2813  0.3654  0.4847
  845MOL0     C13945   7.215   3.173   8.479  0.1536 -0.3663  0.5845
  845MOL0     C13946   7.078   3.156   8.468  0.1422  0.2089 -0.3722
  845MOL0     C13947   7.001   3.190   8.357  0.6206 -0.1075 -0.1137
  845MOL0     O13948   6.864   3.156   8.359 -0.3213 -0.2000  0.3344
  845MOL0     C13949   6.776   3.172   8.242 -0.3708  1.4090  0.1589
  845MOL0     C13950   6.771   3.046   8.151 -1.0476 -0.1484 -0.3992
  845MOL0     C13951   6.629   3.034   8.092  0.1473 -0.6339  0.1654
  845MOL0     C13952   6.634   2.948   7.967  0.1272  0.1459  0.3002
  845MOL0     C13953   6.495   2.943   7.901 -0.1459 -0.8552 -0.5466
  845MOL0     C13954   6.488   2.849   7.786 -0.3322 -0.3593 -0.8439
  845MOL0     C13955   6.353   2.837   7.742  1.0392  0.1983  1.1277
  845MOL0     C13956   6.339   2.723   7.635  1.2231 -0.3032  0.5539
  845MOL0     N13957   6.195   2.713   7.601  0.5057  0.5066  0.0028
  845MOL0     C13958   6.093   2.655   7.674  0.5239 -0.0343 -0.0169
  845MOL0     C13959   5.982   2.682   7.606 -0.1717 -0.0281 -0.3601
  845MOL0     C13960   5.832   2.646   7.609  0.2864  0.2706 -0.6952
  845MOL0     C13961   5.765   2.709   7.730 -0.0832  0.2978 -0.1287
  845MOL0     C13962   5.725   2.849   7.704  0.5521 -0.0829  0.0416
  845MOL0     C13963   5.688   2.930   7.832 -0.0470  0.1336 -0.2407
  845MOL0     O13964   5.606   2.840   7.915 -0.0743  0.1748  0.6511
  845MOL0     C13965   5.477   2.885   7.944  0.0836 -0.2975 -0.1826
  845MOL0     C13966   5.372   2.857   7.864  0.6866 -0.2283 -0.6017
  845MOL0     C13967   5.253   2.922   7.877  0.1268  0.2547  0.1750
  845MOL0     C13968   5.143   2.873   7.786 -0.6408  0.8401  0.0266
  845MOL0     C13969   5.223   3.012   7.996 -0.2311 -0.0113  0.4694
  845MOL0     C13970   5.091   3.073   8.009 -0.0351 -0.9677 -0.5507
  845MOL0     O13971   5.087   3.181   8.097  0.2815 -0.8364  0.1627
  845MOL0     C13972   4.967   3.257   8.097 -0.4585 -0.7884  0.7277
  845MOL0     C13973   4.842   3.208   8.134 -0.2350  0.2139 -0.0042
  845MOL0     C13974   4.723   3.286   8.124 -0.0895  0.3277  0.2980
  845MOL0     C13975   4.722   3.420   8.081 -0.2672  0.4186  0.9387
  845MOL0     O13976   4.610   3.505   8.074 -0.4156 -0.2999  0.5606
  845MOL0     C13977   4.473   3.451   8.063  0.7308  0.0123  1.6997
  845MOL0     C13978   4.447   3.395   7.926 -0.0351  0.7243 -0.1598
  845MOL0     C13979   4.301   3.338   7.922 -0.4539  0.0842 -0.7824
  845MOL0     C13980   4.268   3.222   8.021  0.0749 -0.4162 -0.3420
  845MOL0     C13981   4.127   3.174   8.004 -0.3193 -0.7427  0.5642
  845MOL0     C13982   4.018   3.270   8.044 -0.4538  0.2735 -1.9653
  845MOL0     C13983   3.866   3.235   8.009 -0.3818  0.1989 -0.1481
  845MOL0     C13984   3.779   3.344   8.068 -0.3161  0.2352  1.1100
  845MOL0    Cl13985   3.615   3.317   8.006  0.1469 -0.1432 -0.0051
  845MOL0     C13986   4.845   3.466   8.048 -0.3413  0.3411 -0.6067
  845MOL0     C13987   4.967   3.391   8.057  0.4853 -0.3052  1.5582
  845MOL0     O13988   4.995   3.018   7.967 -0.3436  0.5258  0.0038
  845MOL0     C13989   5.334   3.036   8.074 -0.1906  0.3094 -0.9302
  845MOL0     C13990   5.461   2.969   8.054  0.5749 -0.0096  0.1528
  845MOL0     N13991   6.019   2.758   7.495  0.8724  0.1359 -0.3945
  845MOL0     N13992   6.143   2.774   7.487  0.7879  0.4559 -0.6018
  845MOL0     C13993   7.074   3.255   8.252  0.3420  1.3562 -0.3784
  845MOL0     C13994   7.206   3.259   8.255 -0.7002  0.7517 -0.8019
  845MOL0     C13995   7.655   3.268   8.322  0.4224  0.2850  1.0571
  845MOL0     C13996   7.702   3.190   8.423 -0.0478 -0.4423 -0.3260
  845MOL0     C13997   7.841   3.166   8.444 -0.0186 -1.0727  0.3392
  845MOL0     C13998   7.936   3.215   8.352 -0.5837 -0.4404  0.3172
  845MOL0     O13999   8.069   3.186   8.351  0.2693  0.3549  0.6442
  845MOL0     C14000   8.106   3.064   8.289 -0.2658  0.2333  0.2329
  845MOL0     C14001   8.261   3.051   8.285  0.0416  0.1270  0.0493
  845MOL0     C14002   8.320   3.000   8.423  0.8858 -0.1287  0.5196
  845MOL0     C14003   8.466   2.968   8.413  0.6882  0.0075 -0.4925
  845MOL0     C14004   8.539   2.937   8.538  0.7176  0.0503  0.6282
  845MOL0     C14005   8.607   2.913   8.641  0.1797  0.3810  0.0042
  845MOL0     C14006   7.889   3.283   8.242 -0.5306 -0.5522 -0.2628
  845MOL0     C14007   7.750   3.319   8.231 -0.0099 -0.3207  0.0253
  845MOL0     H14008   7.266   3.149   8.571  0.9593  2.5085  0.9911
  845MOL0     H14009   7.018   3.132   8.555 -0.9164  0.2994 -1.0639
  845MOL0     H14010   6.675   3.199   8.274 -1.0758  1.2719 -1.8020
  845MOL0     H14011   6.808   3.264   8.192  2.4256  3.1280  4.5207
  845MOL0     H14012   6.840   3.063   8.068  0.5864 -1.3660  0.6412
  845MOL0     H14013   6.813   2.962   8.208  2.9226  0.3457 -2.3261
  845MOL0     H14014   6.564   2.983   8.164 -1.4033 -0.3174 -0.9577
  845MOL0     H14015   6.579   3.129   8.070 -1.9421 -1.3502  1.4861
  845MOL0     H14016   6.713   2.986   7.900  0.8850  0.9752  1.6175
  845MOL0     H14017   6.668   2.845   7.982 -0.7011 -0.7782 -3.2159
  845MOL0     H14018   6.415   2.922   7.972 -1.2532 -2.1865 -2.1209
  845MOL0     H14019   6.478   3.047   7.869  2.0355 -0.4654 -0.5971
  845MOL0     H14020   6.546   2.905   7.712  0.7200  1.6798  1.3890
  845MOL0     H14021   6.533   2.752   7.809  1.0618  0.0676 -1.6530
  845MOL0     H14022   6.286   2.828   7.827  0.3195 -2.2049  0.3975
  845MOL0     H14023   6.326   2.928   7.688  0.8971  0.9727  2.4742
  845MOL0     H14024   6.383   2.626   7.662  0.1048 -0.9960 -0.0508
  845MOL0     H14025   6.386   2.747   7.539 -1.7259 -0.2881 -0.9823
  845MOL0     H14026   6.105   2.594   7.763 -1.1399  2.0695  1.7482
  845MOL0     H14027   5.780   2.674   7.517  1.4013  0.7383 -1.2038
  845MOL0     H14028   5.823   2.538   7.620 -3.3476  0.5830  0.7314
  845MOL0     H14029   5.826   2.692   7.819  0.1699  1.2109 -0.1080
  845MOL0     H14030   5.671   2.654   7.740  0.8593 -1.1444  1.1703
  845MOL0     H14031   5.635   2.842   7.643  0.3933 -0.6989  0.3405
  845MOL0     H14032   5.789   2.909   7.639 -3.7590  1.9842 -2.7726
  845MOL0     H14033   5.637   3.023   7.805  4.0394  2.5508 -0.5189
  845MOL0     H14034   5.779   2.954   7.887  0.4879 -2.3477  0.0482
  845MOL0     H14035   5.391   2.785   7.785 -2.0623 -0.1501 -1.4221
  845MOL0     H14036   5.090   2.800   7.848  0.2839 -2.0800 -2.3838
  845MOL0     H14037   5.088   2.958   7.745 -0.7440  1.6088  1.6814
  845MOL0     H14038   5.187   2.822   7.700 -0.1827  0.5584  0.4230
  845MOL0     H14039   4.848   3.106   8.172 -1.9791  0.2008  0.2956
  845MOL0     H14040   4.630   3.255   8.170 -0.4933  0.7572 -0.2080
  845MOL0     H14041   4.454   3.374   8.138  0.3515  0.9709  2.6040
  845MOL0     H14042   4.403   3.532   8.087  0.6542  0.4361  0.1579
  845MOL0     H14043   4.453   3.472   7.848 -1.0751  1.2425  0.2452
  845MOL0     H14044   4.518   3.317   7.898 -1.6199 -0.9289  0.2531
  845MOL0     H14045   4.292   3.307   7.818  0.6807  0.7362 -1.0958
  845MOL0     H14046   4.237   3.425   7.939 -1.1527 -0.6619  0.5380
  845MOL0     H14047   4.330   3.132   8.016 -1.0634 -1.3831  1.6748
  845MOL0     H14048   4.265   3.254   8.125 -0.4984  0.8255 -0.7149
  845MOL0     H14049   4.113   3.077   8.052 -2.1568 -0.6110  0.3517
  845MOL0     H14050   4.113   3.153   7.897  1.9573 -2.3273  0.5062
  845MOL0     H14051   4.029   3.286   8.152  0.4982  0.8081 -2.1384
  845MOL0     H14052   4.025   3.357   7.978  3.0704  1.0307 -0.7820
  845MOL0     H14053   3.840   3.134   8.040 -1.1361  0.4051 -0.0841
  845MOL0     H14054   3.854   3.235   7.900  1.6148  0.7963 -0.4030
  845MOL0     H14055   3.820   3.443   8.049 -1.3584  0.8517  1.9580
  845MOL0     H14056   3.779   3.351   8.177  3.1689  1.3794  1.1431
  845MOL0     H14057   4.852   3.566   8.006  2.1837 -0.6121 -2.7196
  845MOL0     H14058   5.049   3.453   8.022 -1.4114  0.4952 -1.9418
  845MOL0     H14059   5.320   3.101   8.159 -2.3510  1.1064 -1.8267
  845MOL0     H14060   5.538   3.008   8.120  0.1671 -0.6867  1.0453
  845MOL0     H14061   7.024   3.282   8.160  0.9456  1.9442 -0.5466
  845MOL0     H14062   7.262   3.296   8.169  0.4849  0.3891 -0.2024
  845MOL0     H14063   7.637   3.142   8.497  1.0651  0.0411  1.0009
  845MOL0     H14064   7.861   3.111   8.536  0.2330 -1.0610  0.2938
  845MOL0     H14065   8.063   2.985   8.351 -3.1756 -0.1074 -2.0228
  845MOL0     H14066   8.062   3.044   8.191  1.9115 -2.6853 -0.2902
  845MOL0     H14067   8.312   3.134   8.235 -0.0939  2.1050  2.9546
  845MOL0     H14068   8.284   2.971   8.215  0.5409  0.1432  0.1905
  845MOL0     H14069   8.257   2.915   8.451 -2.1075  1.1033 -1.9401
  845MOL0     H14070   8.302   3.078   8.498 -1.6334  0.2464 -0.3718
  845MOL0     H14071   8.520   3.043   8.354  0.6687 -0.1639 -0.7285
  845MOL0     H14072   8.460   2.874   8.357  0.3743  1.0197 -2.2485
  845MOL0     H14073   8.664   2.893   8.730  0.6226  0.3892 -0.2774
  845MOL0     H14074   7.960   3.309   8.165 -0.7086 -0.0712 -0.2717
  845MOL0     H14075   7.710   3.380   8.151  1.0686 -0.4948 -0.6633
  846MOL0     O14076   7.128   2.326   1.545 -0.5027  0.6690 -0.3917
  846MOL0     C14077   7.068   2.285   1.642  0.7871  0.9083 -0.3254
  846MOL0     O14078   7.118   2.200   1.738  0.7883  1.2957 -0.0739
  846MOL0     C14079   7.244   2.170   1.763  1.3479  0.2456 -0.1835
  846MOL0     C14080   7.266   2.068   1.861  1.5044  0.4422  0.1570
  846MOL0     C14081   7.395   2.048   1.903 -1.0846 -0.8055  0.2582
  846MOL0     C14082   7.507   2.112   1.851  0.0145  0.2785  0.8221
  846MOL0     O14083   7.629   2.074   1.904 -0.1496 -1.0980 -0.4454
  846MOL0     C14084   7.745   2.163   1.883  0.9767  0.5446 -0.7496
  846MOL0     C14085   7.867   2.106   1.957  0.0064 -0.8067  0.2741
  846MOL0     C14086   7.921   1.974   1.894  0.0467  0.2537 -0.3295
  846MOL0     C14087   7.987   1.979   1.748  0.1819  0.5117  0.2233
  846MOL0     C14088   8.116   2.066   1.732  0.3164 -0.1430 -1.0629
  846MOL0     C14089   8.244   1.997   1.780 -0.1305 -0.6920 -0.7839
  846MOL0     C14090   8.367   2.074   1.718  1.0368  0.6894  0.8461
  846MOL0     C14091   8.401   2.029   1.572  0.1354  0.2120 -0.0673
  846MOL0     N14092   8.517   2.098   1.522 -0.1622  0.6601 -0.7381
  846MOL0     C14093   8.548   2.175   1.408 -0.1112  0.8399  1.1933
  846MOL0     C14094   8.682   2.207   1.426 -0.5275  0.7674 -0.2241
  846MOL0     C14095   8.768   2.283   1.331 -0.0609  1.4198  0.5854
  846MOL0     C14096   8.845   2.397   1.391 -0.1563  0.4247  0.3219
  846MOL0     C14097   8.755   2.496   1.464  0.2436  0.8195  0.1440
  846MOL0     C14098   8.636   2.549   1.388  0.0608  0.5352  0.1289
  846MOL0     O14099   8.518   2.465   1.388 -0.2649  0.1570  0.0586
  846MOL0     C14100   8.438   2.510   1.491  0.3200  0.6860  0.3727
  846MOL0     C14101   8.320   2.584   1.452 -0.1062  0.1643  0.5471
  846MOL0     C14102   8.209   2.586   1.541  0.4831 -0.4635  0.5831
  846MOL0     C14103   8.082   2.664   1.488 -1.0314 -0.1923 -0.0951
  846MOL0     C14104   8.211   2.511   1.664 -0.5302 -0.7827 -0.1361
  846MOL0     C14105   8.098   2.493   1.757  0.0666  0.1266  0.2872
  846MOL0     O14106   7.969   2.486   1.709 -0.0880 -0.6281  0.3188
  846MOL0     C14107   7.860   2.524   1.788  0.3217  0.6484 -0.2222
  846MOL0     C14108   7.742   2.495   1.726  0.8945  0.5059 -0.1086
  846MOL0     C14109   7.615   2.519   1.790  0.0198 -0.8892 -0.0133
  846MOL0     C14110   7.617   2.552   1.928 -0.8758 -0.0738 -0.4388
  846MOL0     O14111   7.505   2.569   2.000  1.0791 -0.0600 -0.4111
  846MOL0     C14112   7.428   2.454   2.003 -0.1714 -0.4120  0.7907
  846MOL0     C14113   7.333   2.471   2.119 -0.6706  0.0425  0.8816
  846MOL0     C14114   7.227   2.366   2.116  0.0270  0.9218 -0.2939
  846MOL0     C14115   7.118   2.375   2.219  0.3282 -0.9507 -0.1843
  846MOL0     C14116   7.012   2.267   2.176  0.7815  0.8004 -0.2860
  846MOL0     C14117   6.910   2.238   2.288  0.4263 -1.1459 -0.3021
  846MOL0     C14118   6.819   2.365   2.295 -0.7723  0.6749 -0.2688
  846MOL0     C14119   6.693   2.351   2.385  0.2213  0.5124  0.5267
  846MOL0    Cl14120   6.563   2.266   2.284 -0.2143 -0.0569  0.0792
  846MOL0     C14121   7.740   2.569   1.994 -0.3537  0.1132  0.0709
  846MOL0     C14122   7.858   2.557   1.924  0.1839 -0.2364 -0.0433
  846MOL0     O14123   8.132   2.459   1.872  0.0534 -0.2396  0.6135
  846MOL0     C14124   8.333   2.443   1.696  0.4820  0.3297 -1.0173
  846MOL0     C14125   8.438   2.433   1.608  0.2947  0.6025  0.2498
  846MOL0     N14126   8.728   2.161   1.547 -0.1623  0.3689 -0.7723
  846MOL0     N14127   8.632   2.103   1.599  0.4881  0.0277 -1.0569
  846MOL0     C14128   7.487   2.211   1.754  0.1104  0.6313  0.8918
  846MOL0     C14129   7.354   2.245   1.713  0.2663  0.7710 -0.8972
  846MOL0     C14130   6.934   2.322   1.661  0.5636 -0.9379  0.1751
  846MOL0     C14131   6.864   2.394   1.563  0.1924  0.5776  0.9317
  846MOL0     C14132   6.734   2.437   1.582  0.0225  0.8162  0.5250
  846MOL0     C14133   6.675   2.402   1.702  0.2132 -1.1007  0.4602
  846MOL0     O14134   6.544   2.453   1.706 -0.9757 -0.0432 -0.2578
  846MOL0     C14135   6.460   2.402   1.816 -0.0465 -0.2494  1.1731
  846MOL0     C14136   6.314   2.419   1.764  0.2125  1.4841 -0.5861
  846MOL0     C14137   6.219   2.392   1.888 -0.5051  0.0118 -0.5791
  846MOL0     C14138   6.079   2.360   1.842 -0.5434 -0.2740  0.6397
  846MOL0     C14139   6.075   2.220   1.814 -0.6798  0.0838 -0.2163
  846MOL0     C14140   6.056   2.103   1.788 -0.0013 -0.0899 -0.6626
  846MOL0     C14141   6.736   2.317   1.799  0.0120  0.8935  0.2052
  846MOL0     C14142   6.871   2.275   1.784  1.2976  0.2884  0.0016
  846MOL0     H14143   7.190   2.001   1.901  1.0781 -0.7787 -2.4133
  846MOL0     H14144   7.419   1.971   1.976  0.9031 -0.1959  0.2953
  846MOL0     H14145   7.768   2.178   1.778  0.5322 -1.5916 -1.2092
  846MOL0     H14146   7.727   2.260   1.930 -0.5799 -0.5309  1.0551
  846MOL0     H14147   7.941   2.186   1.947  0.4998 -1.4339 -1.4930
  846MOL0     H14148   7.852   2.084   2.063 -0.4680  2.2274  0.9248
  846MOL0     H14149   7.996   1.945   1.969 -1.1657  3.0878  2.2212
  846MOL0     H14150   7.836   1.906   1.901  0.1276  0.1523 -0.3366
  846MOL0     H14151   8.002   1.875   1.720 -1.8261  0.3992 -0.5634
  846MOL0     H14152   7.915   2.022   1.678  0.4704  1.1659  0.3207
  846MOL0     H14153   8.130   2.087   1.626 -0.3886  1.1333 -0.9163
  846MOL0     H14154   8.108   2.167   1.773 -0.5498 -0.9927  1.0002
  846MOL0     H14155   8.253   2.006   1.888  1.6675  1.1559 -1.0182
  846MOL0     H14156   8.248   1.890   1.759 -0.8368 -1.4519  2.4600
  846MOL0     H14157   8.345   2.181   1.714 -2.1731  0.1619  1.4951
  846MOL0     H14158   8.461   2.067   1.773  2.6971  4.0264 -1.2219
  846MOL0     H14159   8.309   2.060   1.521 -1.2975  0.1613  2.3051
  846MOL0     H14160   8.412   1.920   1.576 -3.2254 -0.2591 -0.3677
  846MOL0     H14161   8.479   2.202   1.329  0.4008  0.1159  0.4907
  846MOL0     H14162   8.837   2.219   1.276 -1.8693  0.7203 -0.9644
  846MOL0     H14163   8.698   2.339   1.267 -1.5157  1.3326  2.0333
  846MOL0     H14164   8.910   2.435   1.312  0.6683 -3.2749 -0.9940
  846MOL0     H14165   8.920   2.361   1.461  2.8037  5.8041  0.4629
  846MOL0     H14166   8.819   2.581   1.486 -1.4450  2.2326 -0.1895
  846MOL0     H14167   8.729   2.445   1.557  0.7824 -1.0278 -0.6717
  846MOL0     H14168   8.667   2.571   1.285 -1.9603 -0.0965 -0.6642
  846MOL0     H14169   8.608   2.648   1.425 -0.8828 -0.2129  1.4808
  846MOL0     H14170   8.305   2.641   1.360 -0.3050  2.3947  1.8853
  846MOL0     H14171   8.030   2.717   1.569  0.4766  1.6040 -0.2215
  846MOL0     H14172   8.112   2.736   1.412  1.4346  0.0343  0.9786
  846MOL0     H14173   8.019   2.591   1.437 -2.3772  0.0135  1.1902
  846MOL0     H14174   7.737   2.452   1.627  2.1306  1.3246 -0.5584
  846MOL0     H14175   7.516   2.512   1.747 -0.2495  1.9173 -0.0553
  846MOL0     H14176   7.366   2.448   1.913 -0.0313  0.0431  0.6617
  846MOL0     H14177   7.486   2.362   2.011  0.1718 -0.0896  2.3103
  846MOL0     H14178   7.387   2.474   2.215  0.6090  1.5118  0.1677
  846MOL0     H14179   7.281   2.566   2.108 -1.1273 -0.3563 -0.5099
  846MOL0     H14180   7.267   2.264   2.126  0.7990  1.1128 -1.3121
  846MOL0     H14181   7.179   2.349   2.019  0.4890 -3.5689  0.0523
  846MOL0     H14182   7.161   2.353   2.317 -3.4043 -1.3645  1.5357
  846MOL0     H14183   7.075   2.475   2.232 -0.2371 -1.1666 -0.3600
  846MOL0     H14184   7.071   2.177   2.154  2.7907  1.2530  2.5471
  846MOL0     H14185   6.955   2.295   2.087  0.1215  1.8401  0.4395
  846MOL0     H14186   6.852   2.151   2.257  0.9049 -0.7624 -2.4822
  846MOL0     H14187   6.964   2.209   2.379  0.0535 -2.5479 -0.4980
  846MOL0     H14188   6.782   2.393   2.196 -3.8754  1.1477  0.9230
  846MOL0     H14189   6.881   2.449   2.328  0.2028 -0.5814  1.2822
  846MOL0     H14190   6.668   2.454   2.412  4.7116  1.7323  0.7635
  846MOL0     H14191   6.716   2.298   2.479  2.6496  1.5280  0.5714
  846MOL0     H14192   7.751   2.601   2.097  0.3883  1.5636 -0.4395
  846MOL0     H14193   7.950   2.576   1.978 -0.9438 -2.8041  3.1103
  846MOL0     H14194   8.334   2.391   1.792 -0.5396 -1.2124 -1.8002
  846MOL0     H14195   8.528   2.373   1.621 -0.8997 -1.7404 -1.4049
  846MOL0     H14196   7.576   2.252   1.707  0.7164 -0.0020  1.4540
  846MOL0     H14197   7.350   2.331   1.646  0.6535  0.5974 -1.1474
  846MOL0     H14198   6.919   2.431   1.477  0.6751  1.9441  1.7865
  846MOL0     H14199   6.685   2.505   1.513  1.0402  2.6773  1.5465
  846MOL0     H14200   6.483   2.301   1.849  1.5726 -0.7527 -1.2369
  846MOL0     H14201   6.463   2.465   1.906 -3.2493 -0.1289  1.2951
  846MOL0     H14202   6.294   2.337   1.695  1.6078  0.8262 -0.2436
  846MOL0     H14203   6.292   2.511   1.708 -3.2749 -0.1131 -2.1200
  846MOL0     H14204   6.202   2.481   1.949 -2.6136 -0.4757 -0.3845
  846MOL0     H14205   6.252   2.315   1.958  0.4116  0.2840 -0.6929
  846MOL0     H14206   6.056   2.425   1.757  0.7773  0.5494  0.8673
  846MOL0     H14207   6.012   2.392   1.923 -2.6940 -0.4409 -1.0055
  846MOL0     H14208   6.043   1.997   1.779  0.8380 -0.6439  2.9592
  846MOL0     H14209   6.687   2.296   1.893  2.7447  0.6729  1.6984
  846MOL0     H14210   6.919   2.231   1.871 -0.2490  0.7417  1.1375
  847MOL0     O14211   9.842  11.127   1.213  0.2079  0.1763  0.3888
  847MOL0     C14212   9.830  11.221   1.280  0.4510  0.2013 -0.1568
  847MOL0     O14213   9.711  11.255   1.345  0.6084  0.1708  0.3498
  847MOL0     C14214   9.596  11.191   1.299 -0.4071  0.1230 -0.3265
  847MOL0     C14215   9.492  11.270   1.240 -0.5936 -0.2489 -0.0895
  847MOL0     C14216   9.372  11.212   1.198  0.5544 -0.5182 -0.1498
  847MOL0     C14217   9.351  11.074   1.205 -0.6412  0.1327  0.0342
  847MOL0     O14218   9.246  11.013   1.156  0.6345  0.2555 -0.5754
  847MOL0     C14219   9.113  11.064   1.178  0.2714 -0.0684  0.6915
  847MOL0     C14220   9.010  11.017   1.074  0.5132  0.1711 -0.7524
  847MOL0     C14221   8.886  11.106   1.091  0.8983 -0.4922  0.5339
  847MOL0     C14222   8.789  11.053   1.196  0.5292  0.7743 -0.0870
  847MOL0     C14223   8.701  10.939   1.151  0.7563 -0.4787 -0.6391
  847MOL0     C14224   8.623  10.951   1.020  0.4720  0.6877  0.9650
  847MOL0     C14225   8.696  10.881   0.900  0.0608  0.0223 -0.7539
  847MOL0     C14226   8.603  10.869   0.781  0.6179  0.5129 -0.6048
  847MOL0     N14227   8.499  10.760   0.787  0.2102 -0.1621 -0.3857
  847MOL0     C14228   8.523  10.633   0.751 -0.5436  0.5712 -0.3801
  847MOL0     C14229   8.414  10.563   0.788 -0.2319  0.1649 -0.2741
  847MOL0     C14230   8.398  10.417   0.768 -0.7378 -0.4629 -0.1862
  847MOL0     C14231   8.359  10.381   0.628 -0.2587 -0.0969  0.0532
  847MOL0     C14232   8.209  10.414   0.605 -0.3932  0.0066  0.7726
  847MOL0     C14233   8.188  10.427   0.452 -0.4774 -0.3208 -0.4254
  847MOL0     O14234   8.051  10.451   0.418  0.4204 -0.2730 -0.4073
  847MOL0     C14235   7.960  10.347   0.412  0.3623  0.0474 -0.0177
  847MOL0     C14236   7.838  10.383   0.368  0.8049 -0.3456 -0.5651
  847MOL0     C14237   7.727  10.294   0.342 -0.8045  0.7168 -0.0216
  847MOL0     C14238   7.609  10.353   0.282 -0.3054 -0.1393 -0.0675
  847MOL0     C14239   7.752  10.156   0.373  0.5305  0.2419  0.2183
  847MOL0     C14240   7.638  10.051   0.374 -0.7436  0.0303 -0.0763
  847MOL0     O14241   7.675   9.921   0.386  0.2439  0.6899  0.1109
  847MOL0     C14242   7.592   9.810   0.379  0.1132  0.1703  0.3375
  847MOL0     C14243   7.454   9.819   0.407  0.4599  0.1872 -0.1257
  847MOL0     C14244   7.379   9.697   0.404  0.8335  0.6356  0.0729
  847MOL0     C14245   7.441   9.568   0.384  0.6062 -0.6198 -0.1601
  847MOL0     O14246   7.361   9.448   0.384 -0.2858 -0.2842 -0.7928
  847MOL0     C14247   7.217   9.468   0.374 -0.4670 -0.8264  0.8767
  847MOL0     C14248   7.147   9.337   0.367 -0.2394  0.2624  0.6404
  847MOL0     C14249   7.005   9.350   0.313 -0.8953 -0.5559  0.2067
  847MOL0     C14250   6.923   9.223   0.313  0.2992  0.6258  0.1833
  847MOL0     C14251   6.781   9.253   0.267  0.0794  0.2658 -0.0680
  847MOL0     C14252   6.703   9.128   0.258  0.6603  0.3972  0.1312
  847MOL0     C14253   6.560   9.168   0.223  0.5052  0.7813 -0.7575
  847MOL0     C14254   6.471   9.033   0.216 -1.0416 -0.2908  0.1825
  847MOL0    Cl14255   6.345   9.050   0.329  0.3016 -0.1941 -0.6096
  847MOL0     C14256   7.574   9.569   0.337  0.6093  0.5123 -0.5529
  847MOL0     C14257   7.647   9.686   0.346 -0.6234 -0.5997  0.5282
  847MOL0     O14258   7.527  10.087   0.344 -0.0566 -0.0896 -0.2790
  847MOL0     C14259   7.875  10.119   0.415 -0.0790 -0.9067  0.1741
  847MOL0     C14260   7.973  10.215   0.441  0.6773  0.1448  0.3099
  847MOL0     N14261   8.319  10.657   0.832 -0.7088  0.6042 -0.7319
  847MOL0     N14262   8.370  10.771   0.827  0.5071  0.6852  0.2280
  847MOL0     C14263   9.456  10.996   1.262 -0.5030 -0.1988 -0.8578
  847MOL0     C14264   9.574  11.054   1.302  0.5325 -0.1918 -0.0308
  847MOL0     C14265   9.945  11.301   1.303  0.0262 -0.0846 -0.4546
  847MOL0     C14266  10.075  11.262   1.267  0.7102  1.1641  0.3115
  847MOL0     C14267  10.186  11.333   1.313 -0.2243 -0.0456  0.9359
  847MOL0     C14268  10.168  11.446   1.392 -0.2595  0.3091 -0.6256
  847MOL0     O14269  10.287  11.498   1.439  0.6653 -0.0472 -0.1070
  847MOL0     C14270  10.286  11.624   1.513 -0.5001 -0.2851  0.1675
  847MOL0     C14271  10.420  11.701   1.486 -0.2453 -0.2977  0.1350
  847MOL0     C14272  10.544  11.625   1.530  0.1736 -0.3192  0.7753
  847MOL0     C14273  10.664  11.720   1.521 -0.5405  0.4954  0.0536
  847MOL0     C14274  10.776  11.632   1.483  1.5669 -0.3373 -0.5913
  847MOL0     C14275  10.863  11.555   1.446 -0.9129 -1.2697  0.2652
  847MOL0     C14276  10.042  11.490   1.433  0.3270  0.1044  0.3567
  847MOL0     C14277   9.930  11.419   1.376 -0.5189  0.2639  0.2618
  847MOL0     H14278   9.496  11.378   1.227 -2.7085 -0.2392 -1.0425
  847MOL0     H14279   9.305  11.281   1.148  0.0829 -0.9360 -0.0961
  847MOL0     H14280   9.080  11.029   1.277  0.7009  0.8326  1.1642
  847MOL0     H14281   9.121  11.173   1.181 -0.7679  0.0146  1.0783
  847MOL0     H14282   9.054  11.041   0.976 -2.0215  3.4351 -1.2768
  847MOL0     H14283   8.989  10.910   1.076 -3.3411  0.6968 -3.1954
  847MOL0     H14284   8.920  11.206   1.121 -1.7923  0.6666 -0.0396
  847MOL0     H14285   8.842  11.129   0.994  2.5553  0.7768  0.0289
  847MOL0     H14286   8.857  11.012   1.271  0.5773  0.8301 -0.1001
  847MOL0     H14287   8.730  11.130   1.246  3.3170  1.8444  1.8209
  847MOL0     H14288   8.767  10.853   1.139  1.4328 -0.4972  2.3556
  847MOL0     H14289   8.619  10.921   1.221 -1.3695  4.9693 -1.2282
  847MOL0     H14290   8.524  10.907   1.032  0.5408 -0.0997 -1.0838
  847MOL0     H14291   8.601  11.054   0.990  1.6832  0.1001 -2.3193
  847MOL0     H14292   8.776  10.951   0.874 -0.7129  1.3465  0.3050
  847MOL0     H14293   8.754  10.791   0.921 -2.7998 -1.7274  0.1802
  847MOL0     H14294   8.657  10.859   0.686 -0.9619  0.0443 -1.4926
  847MOL0     H14295   8.546  10.963   0.782  0.2798  0.3172  1.3848
  847MOL0     H14296   8.608  10.582   0.708  0.3439  1.0939  0.7035
  847MOL0     H14297   8.488  10.366   0.803 -0.3652 -0.5259 -1.2158
  847MOL0     H14298   8.321  10.383   0.838  0.2584  1.5652  2.0304
  847MOL0     H14299   8.365  10.273   0.612 -1.8377 -0.0259 -1.2658
  847MOL0     H14300   8.416  10.446   0.560 -0.5737 -1.6038 -1.7369
  847MOL0     H14301   8.178  10.512   0.643 -0.1567  1.1684 -1.7976
  847MOL0     H14302   8.143  10.343   0.655 -0.3449  0.9916  2.3045
  847MOL0     H14303   8.211  10.337   0.395 -1.8216 -0.3134 -1.0168
  847MOL0     H14304   8.260  10.495   0.405  0.9304 -3.6408 -3.4858
  847MOL0     H14305   7.828  10.490   0.351 -0.4025 -0.7839 -3.1294
  847MOL0     H14306   7.536  10.380   0.358  1.0566  1.8522  0.6163
  847MOL0     H14307   7.640  10.444   0.230  1.9484 -1.1053 -0.5305
  847MOL0     H14308   7.584  10.272   0.212 -0.4051  0.2661 -0.5071
  847MOL0     H14309   7.412   9.915   0.437  0.8661  1.3697 -3.0310
  847MOL0     H14310   7.271   9.702   0.416  0.9751 -1.8680  4.3202
  847MOL0     H14311   7.184   9.526   0.461 -0.3387  1.4699 -0.5243
  847MOL0     H14312   7.204   9.529   0.284 -0.7979  2.9850  3.2868
  847MOL0     H14313   7.201   9.266   0.304 -0.1988  1.2780 -0.4943
  847MOL0     H14314   7.148   9.294   0.468 -1.8223 -0.2970  0.4493
  847MOL0     H14315   7.010   9.401   0.216  1.0714  0.6500  0.8733
  847MOL0     H14316   6.954   9.418   0.382 -2.2686  0.5798 -1.8181
  847MOL0     H14317   6.970   9.151   0.245 -2.6916  1.2463 -2.8195
  847MOL0     H14318   6.916   9.185   0.416 -1.5499  1.4622  0.4084
  847MOL0     H14319   6.787   9.301   0.169 -1.0497 -1.4899 -1.0420
  847MOL0     H14320   6.733   9.318   0.341 -0.8577  1.5416 -1.7430
  847MOL0     H14321   6.746   9.059   0.184 -0.2777 -0.7362  0.5933
  847MOL0     H14322   6.701   9.067   0.349  1.2911  0.2566  0.0543
  847MOL0     H14323   6.563   9.223   0.128  1.8768 -1.9652 -2.4221
  847MOL0     H14324   6.516   9.239   0.294 -3.4404  0.5449 -2.6853
  847MOL0     H14325   6.522   8.938   0.237 -0.1195  0.5750  2.1138
  847MOL0     H14326   6.426   9.019   0.118  0.3022 -3.7569 -0.0759
  847MOL0     H14327   7.629   9.481   0.306 -1.8597 -1.8877  1.4514
  847MOL0     H14328   7.751   9.685   0.317 -0.7180  1.0467  0.0009
  847MOL0     H14329   7.898  10.019   0.450  0.9776 -0.1210  1.8603
  847MOL0     H14330   8.063  10.173   0.483  0.6485  0.6205  0.8408
  847MOL0     H14331   9.449  10.888   1.267 -3.3880 -0.0481  1.2849
  847MOL0     H14332   9.660  10.996   1.334  3.4755  2.4156 -2.6080
  847MOL0     H14333  10.078  11.168   1.212 -0.1074  0.6918  1.0476
  847MOL0     H14334  10.283  11.290   1.293  0.0383 -0.7584  3.4494
  847MOL0     H14335  10.206  11.686   1.471  0.2073  0.7998  0.3663
  847MOL0     H14336  10.262  11.613   1.619  1.3209 -3.7270  0.3544
  847MOL0     H14337  10.414  11.805   1.518 -0.5099  0.0617 -1.0107
  847MOL0     H14338  10.420  11.717   1.377  0.2528  1.2947  0.3460
  847MOL0     H14339  10.556  11.533   1.471  0.3912 -1.3936  2.4272
  847MOL0     H14340  10.545  11.600   1.636  0.0349  3.7346  1.9095
  847MOL0     H14341  10.682  11.771   1.616 -0.5111 -0.3655  0.5122
  847MOL0     H14342  10.654  11.792   1.439  0.9208  2.8312  1.7517
  847MOL0     H14343  10.952  11.497   1.429  1.3126  2.2225 -1.0192
  847MOL0     H14344  10.030  11.561   1.514 -1.5369 -0.5105  0.6631
  847MOL0     H14345   9.833  11.448   1.416 -1.1290 -1.7220  0.3367
  848MOL0     O14346  11.042   6.639   1.245 -0.8789  0.6537 -0.7781
  848MOL0     C14347  11.153   6.690   1.214  0.4251 -0.0936 -0.5187
  848MOL0     O14348  11.205   6.718   1.088  0.0429 -0.4520 -0.0283
  848MOL0     C14349  11.138   6.688   0.969  0.6443 -0.8068  0.4904
  848MOL0     C14350  11.011   6.638   0.956 -1.1514  0.8715 -0.0808
  848MOL0     C14351  10.946   6.614   0.834 -0.0418  0.9553 -0.0277
  848MOL0     C14352  11.006   6.656   0.716 -0.5282 -0.1272 -0.0301
  848MOL0     O14353  10.936   6.637   0.596 -0.1689 -0.4861 -0.8454
  848MOL0     C14354  10.992   6.701   0.479 -0.4137 -0.0012 -0.0309
  848MOL0     C14355  10.901   6.659   0.357 -0.5827 -0.1520  0.2632
  848MOL0     C14356  10.880   6.504   0.351  0.3872  0.2587  0.0245
  848MOL0     C14357  10.776   6.467   0.243 -0.0516 -0.3713 -0.1521
  848MOL0     C14358  10.731   6.319   0.257  0.0907  0.5039 -0.6370
  848MOL0     C14359  10.833   6.200   0.224 -0.9387  0.0892  0.5180
  848MOL0     C14360  10.765   6.061   0.260 -0.6742 -0.0175 -0.1039
  848MOL0     C14361  10.861   5.941   0.240  0.6229 -0.3068  0.3755
  848MOL0     N14362  10.946   5.918   0.357 -0.3772 -0.0269  0.1174
  848MOL0     C14363  11.073   5.957   0.374 -0.5490  0.3685 -0.3813
  848MOL0     C14364  11.122   5.899   0.486 -0.9486  0.6201 -0.3104
  848MOL0     C14365  11.267   5.918   0.526 -0.7801  0.2124 -0.2760
  848MOL0     C14366  11.316   5.806   0.614 -0.0173  0.6725  0.3969
  848MOL0     C14367  11.455   5.812   0.681 -1.1135  0.7187  0.0185
  848MOL0     C14368  11.568   5.858   0.588  0.2752 -1.0858  0.0818
  848MOL0     O14369  11.577   6.004   0.583  0.2845  0.1124  0.3350
  848MOL0     C14370  11.621   6.084   0.690  0.8010  0.7952  0.9356
  848MOL0     C14371  11.678   6.027   0.807 -0.4527  0.1372 -0.5991
  848MOL0     C14372  11.724   6.107   0.917  0.0561 -0.5949  1.0486
  848MOL0     C14373  11.808   6.051   1.032  0.1678 -0.4360 -0.1773
  848MOL0     C14374  11.687   6.244   0.908 -0.4926 -0.3503 -0.7864
  848MOL0     C14375  11.738   6.342   1.017 -0.3387  0.6404  0.1805
  848MOL0     O14376  11.777   6.467   0.965 -0.2260  0.0784  0.6538
  848MOL0     C14377  11.800   6.563   1.061  0.4158 -0.2492 -0.4190
  848MOL0     C14378  11.698   6.659   1.077  0.8741 -1.6161  0.1437
  848MOL0     C14379  11.711   6.750   1.179  0.4563  0.5699  0.0292
  848MOL0     C14380  11.829   6.756   1.258 -0.2053 -0.1131  0.8687
  848MOL0     O14381  11.853   6.838   1.363 -0.1103 -1.1889  0.8253
  848MOL0     C14382  11.958   6.939   1.334  1.0783  0.1278 -0.0141
  848MOL0     C14383  12.034   6.974   1.462 -0.3211  1.2306  1.0169
  848MOL0     C14384  12.115   6.855   1.504  0.4781 -0.4188  0.5640
  848MOL0     C14385  12.209   6.903   1.613  0.1912  0.3658  0.3841
  848MOL0     C14386  12.266   6.783   1.692  0.3612 -0.1082  0.3400
  848MOL0     C14387  12.373   6.828   1.797 -0.1420 -0.5093  0.0044
  848MOL0     C14388  12.441   6.708   1.868  0.3680 -0.7564  0.4392
  848MOL0     C14389  12.516   6.763   1.992  0.0930  0.0457 -0.3069
  848MOL0    Cl14390  12.622   6.891   1.928 -0.1669  0.5749 -0.0423
  848MOL0     C14391  11.939   6.669   1.226  0.6499  0.0773 -0.3417
  848MOL0     C14392  11.923   6.566   1.132  0.1186  0.0045 -0.9755
  848MOL0     O14393  11.739   6.305   1.135  0.1786 -0.2358 -0.1575
  848MOL0     C14394  11.625   6.297   0.802  0.8011  0.4238  0.3002
  848MOL0     C14395  11.593   6.222   0.696 -0.5588  0.6296  0.9689
  848MOL0     N14396  11.030   5.806   0.526  1.1280 -0.4689 -0.8408
  848MOL0     N14397  10.921   5.826   0.459 -0.0890 -0.2553 -0.0044
  848MOL0     C14398  11.144   6.703   0.723  0.3091  0.1621 -0.1910
  848MOL0     C14399  11.207   6.724   0.850  0.1383 -0.2618  0.3624
  848MOL0     C14400  11.253   6.715   1.323 -0.3129  0.2924  0.2843
  848MOL0     C14401  11.356   6.814   1.295  0.7454  0.1224 -1.0632
  848MOL0     C14402  11.440   6.849   1.403 -1.2337 -0.8631  0.2662
  848MOL0     C14403  11.424   6.797   1.535  0.4974 -0.4916  1.2104
  848MOL0     O14404  11.490   6.844   1.647 -0.5477 -0.0099 -0.1032
  848MOL0     C14405  11.599   6.937   1.620 -0.2582  0.4879 -0.5107
  848MOL0     C14406  11.652   6.966   1.763  0.0961 -0.8704 -0.2674
  848MOL0     C14407  11.634   7.115   1.802 -0.1553 -0.1435  0.0866
  848MOL0     C14408  11.712   7.161   1.928  0.3369  0.0232  0.4327
  848MOL0     C14409  11.857   7.151   1.930  0.0285 -0.9850  0.7900
  848MOL0     C14410  11.974   7.152   1.944 -1.2817  0.6559  0.5474
  848MOL0     C14411  11.328   6.706   1.553  0.1455 -0.3769 -0.3508
  848MOL0     C14412  11.235   6.668   1.453  0.9979 -0.0744 -0.0704
  848MOL0     H14413  10.950   6.611   1.042 -0.5915 -1.5401 -0.3623
  848MOL0     H14414  10.845   6.574   0.825  0.1605  0.8265 -2.2740
  848MOL0     H14415  10.981   6.810   0.487 -5.0143 -0.3759  2.9138
  848MOL0     H14416  11.095   6.668   0.462 -0.4154 -0.4232  0.7466
  848MOL0     H14417  10.805   6.710   0.368 -1.1400 -0.9979 -0.5536
  848MOL0     H14418  10.953   6.684   0.264  1.1279 -0.2329  1.1490
  848MOL0     H14419  10.973   6.450   0.328  1.0212  1.1986  0.3188
  848MOL0     H14420  10.851   6.466   0.450 -0.8971  0.2629 -0.3340
  848MOL0     H14421  10.700   6.536   0.280 -1.1577 -2.2102  1.1586
  848MOL0     H14422  10.799   6.484   0.137 -1.6648  1.9603 -0.1950
  848MOL0     H14423  10.705   6.314   0.363  3.1140 -3.3348  0.1889
  848MOL0     H14424  10.645   6.299   0.193 -0.3632  0.0819  0.0905
  848MOL0     H14425  10.841   6.192   0.115 -1.3198 -0.8825  0.5473
  848MOL0     H14426  10.932   6.213   0.267 -0.4429 -3.1388  0.5829
  848MOL0     H14427  10.738   6.062   0.367  1.6037  3.5932  0.6175
  848MOL0     H14428  10.669   6.051   0.208 -1.6430 -0.8784  1.7333
  848MOL0     H14429  10.926   5.962   0.154  0.0820 -1.3406 -0.3062
  848MOL0     H14430  10.817   5.843   0.217  3.1283 -1.2444 -0.8797
  848MOL0     H14431  11.131   6.023   0.311 -1.3051 -0.0603 -1.5583
  848MOL0     H14432  11.332   5.931   0.440  0.3437 -1.0759  0.3423
  848MOL0     H14433  11.276   6.013   0.580 -0.2972  1.1341 -1.8955
  848MOL0     H14434  11.323   5.715   0.554  1.5220 -0.1782  1.7937
  848MOL0     H14435  11.241   5.783   0.691 -1.1104  2.7447  0.0396
  848MOL0     H14436  11.482   5.710   0.711  1.1895  1.9373  2.4821
  848MOL0     H14437  11.449   5.863   0.777  1.0954 -2.2057  1.8787
  848MOL0     H14438  11.548   5.813   0.490 -0.6326 -6.4611  2.3836
  848MOL0     H14439  11.664   5.818   0.621  1.7942  3.4242  1.9239
  848MOL0     H14440  11.696   5.921   0.827 -0.6803  0.4270  1.2887
  848MOL0     H14441  11.839   5.947   1.019  1.5142 -0.1243  0.3431
  848MOL0     H14442  11.894   6.115   1.052  1.7441 -3.3155  3.5776
  848MOL0     H14443  11.761   6.053   1.130 -1.0433  2.0066 -0.7264
  848MOL0     H14444  11.613   6.659   1.009 -0.7647 -3.3084  2.0891
  848MOL0     H14445  11.631   6.818   1.207  0.5518  1.8811 -2.5959
  848MOL0     H14446  12.030   6.911   1.256 -1.4418 -0.5452 -2.2429
  848MOL0     H14447  11.905   7.031   1.308 -1.3767 -0.0894  3.5123
  848MOL0     H14448  12.103   7.056   1.442  1.3464 -0.4814 -0.6575
  848MOL0     H14449  11.961   6.999   1.539 -0.6809  1.8003  0.5021
  848MOL0     H14450  12.172   6.818   1.419  0.5528  1.1267 -0.0861
  848MOL0     H14451  12.051   6.775   1.543  1.6222 -0.1875  3.1265
  848MOL0     H14452  12.288   6.961   1.565  0.5616  0.9358  1.6260
  848MOL0     H14453  12.162   6.980   1.674 -0.4906 -0.2002  0.5862
  848MOL0     H14454  12.324   6.722   1.622 -2.0185 -1.5240 -0.5260
  848MOL0     H14455  12.181   6.729   1.735 -0.6422 -0.5140 -1.9968
  848MOL0     H14456  12.453   6.884   1.748 -2.2393  3.7441  0.9756
  848MOL0     H14457  12.325   6.891   1.873 -1.4774 -0.5315 -0.7812
  848MOL0     H14458  12.507   6.653   1.800  2.1741 -1.1338  2.3575
  848MOL0     H14459  12.366   6.641   1.909  2.2141 -1.2050  3.4229
  848MOL0     H14460  12.591   6.701   2.042  2.4516  1.6363 -1.6933
  848MOL0     H14461  12.442   6.800   2.063 -2.7241 -1.5745 -2.1969
  848MOL0     H14462  12.028   6.673   1.288  0.3037  3.0439  0.1199
  848MOL0     H14463  11.998   6.491   1.109 -0.0800 -0.2521 -0.7832
  848MOL0     H14464  11.607   6.403   0.791  1.4146  0.9018  3.1495
  848MOL0     H14465  11.545   6.270   0.612  3.0942  1.8545 -0.6352
  848MOL0     H14466  11.190   6.745   0.634  0.6406 -0.5495 -0.3613
  848MOL0     H14467  11.310   6.757   0.859 -0.2097  1.1810 -0.6336
  848MOL0     H14468  11.363   6.860   1.197 -1.6156  1.2700 -0.7558
  848MOL0     H14469  11.507   6.928   1.371 -2.4417 -0.6808 -2.0501
  848MOL0     H14470  11.674   6.883   1.562 -0.6378  2.0232 -2.5227
  848MOL0     H14471  11.574   7.029   1.566  1.4477  1.9498  1.0241
  848MOL0     H14472  11.760   6.953   1.765  0.5443  1.9203  2.5544
  848MOL0     H14473  11.623   6.898   1.844  2.3903 -0.6949  0.7599
  848MOL0     H14474  11.528   7.139   1.814 -0.3528 -0.2197 -1.3675
  848MOL0     H14475  11.662   7.178   1.716  1.5483 -1.1314 -0.1283
  848MOL0     H14476  11.668   7.097   2.005  0.4960 -3.1150 -1.9052
  848MOL0     H14477  11.689   7.268   1.935 -0.3817 -0.1563  0.9648
  848MOL0     H14478  12.078   7.130   1.960 -1.5809  0.3806  2.2975
  848MOL0     H14479  11.305   6.668   1.652  0.6454  0.0765 -0.0505
  848MOL0     H14480  11.152   6.605   1.483  2.4015 -2.7976 -1.5782
  849MOL0     O14481   4.930   4.136  10.852  0.5281 -0.2360 -0.1062
  849MOL0     C14482   4.938   4.061  10.761 -0.5361  0.7251 -0.1864
  849MOL0     O14483   4.833   4.018  10.688  0.7945 -0.3563 -0.1550
  849MOL0     C14484   4.730   4.104  10.660  0.0256 -0.6024 -0.5682
  849MOL0     C14485   4.754   4.223  10.593  0.5268  0.1040  0.1368
  849MOL0     C14486   4.648   4.306  10.559 -0.3992  0.0402  0.2741
  849MOL0     C14487   4.520   4.267  10.580  0.1845 -0.4928  0.0055
  849MOL0     O14488   4.404   4.330  10.552  0.1448  0.5419  0.6855
  849MOL0     C14489   4.410   4.473  10.531  0.4075  0.6404  0.2125
  849MOL0     C14490   4.389   4.497  10.381 -0.2993 -0.5290  0.2257
  849MOL0     C14491   4.236   4.512  10.352  0.1371  0.3098  0.1698
  849MOL0     C14492   4.212   4.533  10.204  0.1022 -0.7623  0.2198
  849MOL0     C14493   4.061   4.530  10.190  0.3903 -0.3193 -0.4040
  849MOL0     C14494   4.006   4.551  10.043 -0.3977 -0.4723  0.2722
  849MOL0     C14495   3.853   4.574  10.050  0.2798 -0.2683 -0.4680
  849MOL0     C14496   3.783   4.436  10.073  0.0556  0.5479 -0.5135
  849MOL0     N14497   3.647   4.470  10.128  0.1607 -0.1486  0.2671
  849MOL0     C14498   3.619   4.444  10.258 -0.7944  0.1178 -0.2852
  849MOL0     C14499   3.483   4.445  10.255  0.7143  0.1001  0.0556
  849MOL0     C14500   3.392   4.390  10.366 -0.0255  0.4719 -0.3682
  849MOL0     C14501   3.342   4.499  10.466 -0.3478  0.4733 -0.6044
  849MOL0     C14502   3.214   4.454  10.539 -0.8831  0.3883  0.2748
  849MOL0     C14503   3.130   4.568  10.595  0.2038  0.1222 -0.2564
  849MOL0     O14504   3.044   4.595  10.482  0.0749  0.0102 -0.5662
  849MOL0     C14505   2.913   4.602  10.509 -0.2600  0.0031 -0.7237
  849MOL0     C14506   2.858   4.676  10.614 -0.2573 -0.0257  0.5265
  849MOL0     C14507   2.714   4.682  10.630 -1.1037 -0.3251  0.0124
  849MOL0     C14508   2.666   4.779  10.740  0.2348  0.2637  0.7070
  849MOL0     C14509   2.626   4.618  10.536  0.2524 -0.2327  0.3257
  849MOL0     C14510   2.482   4.613  10.552 -0.5614 -1.0995  0.0521
  849MOL0     O14511   2.404   4.617  10.434  0.1958  0.0714 -0.6101
  849MOL0     C14512   2.270   4.664  10.441 -0.5014  0.8245  0.1054
  849MOL0     C14513   2.201   4.663  10.319 -0.2771 -0.5928  0.1775
  849MOL0     C14514   2.059   4.690  10.317  0.3611  0.5575  0.1375
  849MOL0     C14515   1.987   4.721  10.431 -0.8040 -0.3324 -0.2339
  849MOL0     O14516   1.853   4.741  10.420  0.3661  0.6605  0.8571
  849MOL0     C14517   1.780   4.828  10.504 -1.0985 -0.9355 -0.6922
  849MOL0     C14518   1.831   4.974  10.508 -0.3473  0.9599  0.3017
  849MOL0     C14519   1.780   5.045  10.384  0.3485 -0.3694 -0.8419
  849MOL0     C14520   1.834   5.190  10.360 -0.4565 -0.1604  0.0824
  849MOL0     C14521   1.736   5.272  10.274  0.2489 -0.6224 -0.3617
  849MOL0     C14522   1.629   5.343  10.360 -0.2497  0.2355 -0.8949
  849MOL0     C14523   1.560   5.452  10.280  0.1364  0.3980  0.1081
  849MOL0     C14524   1.442   5.511  10.369  0.3231 -0.4330  0.2092
  849MOL0    Cl14525   1.350   5.629  10.271  0.2816 -0.2145  0.0400
  849MOL0     C14526   2.058   4.743  10.557  0.0467 -0.5012 -0.2623
  849MOL0     C14527   2.196   4.704  10.558  0.0576  0.6332 -0.7027
  849MOL0     O14528   2.442   4.592  10.661  0.0144 -0.1604 -0.9065
  849MOL0     C14529   2.685   4.553  10.435  0.6458 -0.6044 -0.4884
  849MOL0     C14530   2.821   4.537  10.417  0.1110  0.5064  0.8795
  849MOL0     N14531   3.436   4.503  10.135  0.8561  0.4833 -0.2133
  849MOL0     N14532   3.536   4.503  10.047 -0.1094  0.2746 -0.2829
  849MOL0     C14533   4.492   4.142  10.640 -0.0181 -0.4872  0.0574
  849MOL0     C14534   4.599   4.064  10.678 -0.4703 -0.5106 -0.1053
  849MOL0     C14535   5.070   3.994  10.738 -0.3305  0.4143 -0.8357
  849MOL0     C14536   5.091   3.883  10.650  0.3230 -0.8038  0.4358
  849MOL0     C14537   5.221   3.840  10.627 -0.3909  1.1117  0.5476
  849MOL0     C14538   5.331   3.892  10.685  0.6344 -0.7017 -0.4973
  849MOL0     O14539   5.459   3.847  10.664 -0.1249 -0.0602  0.6299
  849MOL0     C14540   5.488   3.772  10.547 -0.8219 -0.3044 -0.5164
  849MOL0     C14541   5.637   3.737  10.536  0.3909 -0.4913  0.1965
  849MOL0     C14542   5.659   3.632  10.433  0.2840 -0.4119  0.4432
  849MOL0     C14543   5.790   3.559  10.467 -0.7042  0.3530  0.3734
  849MOL0     C14544   5.908   3.645  10.486 -0.8654 -0.4810 -0.7896
  849MOL0     C14545   6.009   3.716  10.500 -0.5271  0.3237  1.1338
  849MOL0     C14546   5.309   3.989  10.784  1.0860 -0.3829 -0.3817
  849MOL0     C14547   5.179   4.038  10.816  0.1564 -0.1713 -0.3639
  849MOL0     H14548   4.859   4.251  10.586  0.1754  1.2870 -0.7753
  849MOL0     H14549   4.661   4.405  10.517 -0.0660 -1.2862 -3.0359
  849MOL0     H14550   4.325   4.521  10.580 -1.3690 -0.6602 -1.4358
  849MOL0     H14551   4.499   4.515  10.578  1.0660  2.5703 -2.5089
  849MOL0     H14552   4.438   4.588  10.345 -2.6506 -0.2869 -2.7628
  849MOL0     H14553   4.438   4.424  10.316 -0.0362  0.5912 -0.8865
  849MOL0     H14554   4.194   4.418  10.391  0.3316  0.4098  0.6274
  849MOL0     H14555   4.189   4.594  10.407 -0.2408 -0.9433  1.8138
  849MOL0     H14556   4.247   4.635  10.184 -0.5442 -0.5084  0.3409
  849MOL0     H14557   4.258   4.457  10.142  2.4927 -0.3941  1.4323
  849MOL0     H14558   4.010   4.441  10.227 -0.1752  0.5433  0.9609
  849MOL0     H14559   4.021   4.606  10.258  0.2845 -1.1757  0.5163
  849MOL0     H14560   4.048   4.639   9.994 -2.0187 -0.2051 -0.7228
  849MOL0     H14561   4.027   4.465   9.979 -0.3386  0.7924 -1.4559
  849MOL0     H14562   3.822   4.646  10.126 -0.5420 -0.9385 -0.1518
  849MOL0     H14563   3.825   4.610   9.951  1.7115 -2.1517 -1.6368
  849MOL0     H14564   3.834   4.369  10.143 -1.2054 -0.3578 -0.4181
  849MOL0     H14565   3.759   4.391   9.977 -2.0808 -2.5407  1.2700
  849MOL0     H14566   3.692   4.417  10.333  2.1623  2.5751 -2.0644
  849MOL0     H14567   3.307   4.338  10.322  1.7372 -0.9631 -2.2869
  849MOL0     H14568   3.444   4.312  10.422 -0.6596  1.3976  1.5994
  849MOL0     H14569   3.322   4.586  10.403  0.2592  1.3813  0.4246
  849MOL0     H14570   3.412   4.530  10.544  1.7130 -1.6620 -1.4657
  849MOL0     H14571   3.270   4.405  10.620 -0.9657  0.6203  0.4754
  849MOL0     H14572   3.162   4.381  10.477 -0.4050  0.3443 -0.0770
  849MOL0     H14573   3.197   4.650  10.622  0.5983  0.4520 -2.1641
  849MOL0     H14574   3.083   4.530  10.687  2.7423  0.8108  1.4588
  849MOL0     H14575   2.922   4.730  10.683 -0.7054 -1.6112  2.2636
  849MOL0     H14576   2.636   4.879  10.708  0.9671  0.4994  0.7392
  849MOL0     H14577   2.587   4.735  10.800  1.3353 -1.4458  0.9734
  849MOL0     H14578   2.746   4.800  10.811  0.5255 -0.1491  0.5063
  849MOL0     H14579   2.254   4.627  10.232 -1.1586 -0.7138 -0.3187
  849MOL0     H14580   1.993   4.677  10.231 -0.4006  0.9355  0.6593
  849MOL0     H14581   1.674   4.838  10.480 -1.6202  1.3382  2.0016
  849MOL0     H14582   1.798   4.794  10.606  0.8597  1.3419 -0.1843
  849MOL0     H14583   1.801   5.017  10.604  1.3397  0.4297  1.0952
  849MOL0     H14584   1.939   4.961  10.501 -0.7846 -3.5869 -1.0469
  849MOL0     H14585   1.672   5.050  10.400  0.1022 -0.5813 -2.3371
  849MOL0     H14586   1.801   4.988  10.293  1.4247 -2.6830  0.7450
  849MOL0     H14587   1.856   5.238  10.455 -0.1479  0.0354 -0.0891
  849MOL0     H14588   1.926   5.177  10.303  0.8449  0.0912  2.0388
  849MOL0     H14589   1.671   5.202  10.220 -0.9746 -0.1618  0.4591
  849MOL0     H14590   1.786   5.334  10.200  0.2714 -1.8965 -1.4509
  849MOL0     H14591   1.558   5.268  10.394 -0.7536 -0.7807 -3.8787
  849MOL0     H14592   1.673   5.395  10.445 -1.5572  0.2414 -0.2028
  849MOL0     H14593   1.508   5.409  10.194 -0.5686  0.6308  0.4106
  849MOL0     H14594   1.635   5.526  10.252  0.2972  0.3099  0.3017
  849MOL0     H14595   1.498   5.557  10.451 -1.2749  1.7317  0.1966
  849MOL0     H14596   1.375   5.432  10.405 -1.9578  0.7631 -1.1290
  849MOL0     H14597   2.016   4.792  10.644 -1.1519 -0.3605 -0.9004
  849MOL0     H14598   2.245   4.699  10.655  2.5207  1.3862 -1.8495
  849MOL0     H14599   2.621   4.492  10.371 -1.9609  1.7538 -0.3056
  849MOL0     H14600   2.849   4.462  10.343 -1.9333  1.7532 -1.2910
  849MOL0     H14601   4.387   4.114  10.640 -1.0973  2.9438 -1.8895
  849MOL0     H14602   4.579   3.959  10.694 -0.3631 -0.3096  1.4385
  849MOL0     H14603   5.000   3.846  10.603 -1.9246  1.1170  2.9937
  849MOL0     H14604   5.218   3.767  10.547 -0.6491 -0.1067  1.6372
  849MOL0     H14605   5.422   3.685  10.544  0.3191 -1.1731 -1.9555
  849MOL0     H14606   5.464   3.832  10.458  0.3316 -0.3679 -0.8865
  849MOL0     H14607   5.671   3.695  10.631 -1.0293 -2.4319 -0.0913
  849MOL0     H14608   5.691   3.831  10.525  0.7784 -0.6161  0.9396
  849MOL0     H14609   5.670   3.686  10.339 -2.5361  2.8212  1.7894
  849MOL0     H14610   5.583   3.553  10.427 -0.1134 -0.1792  1.8838
  849MOL0     H14611   5.818   3.501  10.379 -1.8254  1.0018 -0.4343
  849MOL0     H14612   5.771   3.490  10.550  1.2078 -0.1429  0.4481
  849MOL0     H14613   6.095   3.777  10.515 -0.9714  1.0892  0.6259
  849MOL0     H14614   5.386   4.026  10.851 -2.0778  0.6421  3.0593
  849MOL0     H14615   5.176   4.110  10.896  1.8756 -0.1748 -0.2630
  850MOL0     O14616   7.767   0.392   6.536 -0.5941  0.0242  0.6199
  850MOL0     C14617   7.808   0.280   6.572 -0.0857  0.2903  0.3872
  850MOL0     O14618   7.736   0.161   6.551 -0.1109  0.1526  0.5711
  850MOL0     C14619   7.612   0.153   6.488  0.4919 -0.0751 -0.1747
  850MOL0     C14620   7.570   0.024   6.487 -0.0081  0.2433  0.1134
  850MOL0     C14621   7.447  -0.003   6.423 -0.0027  0.2026  0.6646
  850MOL0     C14622   7.365   0.088   6.364  0.1181  0.0134  0.5447
  850MOL0     O14623   7.241   0.035   6.330  0.1381  0.1236  0.4423
  850MOL0     C14624   7.140   0.104   6.258 -0.7853 -0.2246  0.2190
  850MOL0     C14625   7.066  -0.005   6.173  0.3613 -0.3056 -0.0820
  850MOL0     C14626   6.943   0.053   6.099  0.0582 -0.1374  0.2981
  850MOL0     C14627   6.870  -0.050   6.016  0.6600  0.1268  0.0805
  850MOL0     C14628   6.785   0.012   5.891 -0.0205  0.1878 -0.4058
  850MOL0     C14629   6.686   0.124   5.939 -0.3190 -0.1514  0.1635
  850MOL0     C14630   6.572   0.067   6.027  0.0500  0.6148  0.5351
  850MOL0     C14631   6.463   0.167   6.035  0.8346 -0.4676 -0.1755
  850MOL0     N14632   6.502   0.287   6.113 -0.1853  0.0091  0.3736
  850MOL0     C14633   6.567   0.393   6.056  0.6887  1.0395 -0.6331
  850MOL0     C14634   6.584   0.484   6.150  0.3488  0.9594 -0.2049
  850MOL0     C14635   6.636   0.619   6.115 -0.8930 -0.1906 -0.2130
  850MOL0     C14636   6.778   0.631   6.155  0.4717 -0.1507  0.1738
  850MOL0     C14637   6.851   0.743   6.099 -0.1530 -0.5728  0.2128
  850MOL0     C14638   6.987   0.745   6.161 -0.4525  1.2466  0.2163
  850MOL0     O14639   7.054   0.863   6.114 -0.6258 -0.2787  1.7331
  850MOL0     C14640   7.147   0.931   6.186 -0.7696  1.0960  0.5750
  850MOL0     C14641   7.190   1.053   6.133  0.7423  0.1791 -0.5912
  850MOL0     C14642   7.290   1.121   6.194 -0.3132 -0.0836  0.0810
  850MOL0     C14643   7.329   1.253   6.138 -0.5233 -0.2902 -0.1619
  850MOL0     C14644   7.357   1.061   6.305  0.1541  0.8922  0.0871
  850MOL0     C14645   7.465   1.126   6.376  0.3675 -0.3730  1.3076
  850MOL0     O14646   7.577   1.051   6.405  0.4107 -0.0385  0.2149
  850MOL0     C14647   7.690   1.095   6.454  0.8363  0.1422  0.2461
  850MOL0     C14648   7.804   1.063   6.383  0.6289  0.1288 -0.5104
  850MOL0     C14649   7.926   1.095   6.437 -0.7400  0.1739  0.0804
  850MOL0     C14650   7.942   1.165   6.559  0.0898 -0.3916 -0.3674
  850MOL0     O14651   8.055   1.200   6.622 -0.2267  0.0380 -0.0088
  850MOL0     C14652   8.164   1.225   6.534  0.5789 -0.1272  0.5466
  850MOL0     C14653   8.141   1.343   6.427 -0.6220  1.5080 -0.3980
  850MOL0     C14654   8.062   1.461   6.483 -0.6132 -0.6366 -0.1582
  850MOL0     C14655   8.015   1.573   6.388 -0.5317 -0.5130  0.2022
  850MOL0     C14656   7.931   1.536   6.268  0.1325  0.0714  0.1569
  850MOL0     C14657   7.802   1.473   6.313 -0.4922 -0.2597  0.3348
  850MOL0     C14658   7.701   1.440   6.204  0.2223 -1.6013 -0.8518
  850MOL0     C14659   7.601   1.559   6.171  0.3375  0.8260  0.5597
  850MOL0    Cl14660   7.511   1.595   6.307 -0.0802  0.0981 -0.3729
  850MOL0     C14661   7.825   1.198   6.631 -0.3844  0.0997  0.1967
  850MOL0     C14662   7.699   1.170   6.575  0.4542 -0.2180  0.1121
  850MOL0     O14663   7.438   1.233   6.425  0.1129 -0.1596 -0.4443
  850MOL0     C14664   7.322   0.926   6.348 -0.4237 -1.5153  0.1005
  850MOL0     C14665   7.217   0.859   6.291  0.1695  0.6415 -0.7732
  850MOL0     N14666   6.524   0.429   6.266 -0.1252  0.3153  0.7199
  850MOL0     N14667   6.467   0.314   6.237 -0.5928 -0.4298 -0.0801
  850MOL0     C14668   7.412   0.222   6.359  0.0461  0.5690  0.9561
  850MOL0     C14669   7.538   0.247   6.419  0.7046  0.0206  0.5740
  850MOL0     C14670   7.943   0.268   6.633 -0.5738 -0.9309  0.1626
  850MOL0     C14671   8.013   0.382   6.657  0.1733 -0.5551 -0.2919
  850MOL0     C14672   8.143   0.377   6.720 -0.4437  0.8185  0.0803
  850MOL0     C14673   8.199   0.253   6.761  0.1553 -0.7530 -0.2882
  850MOL0     O14674   8.318   0.263   6.834 -0.2017  0.2302 -0.1395
  850MOL0     C14675   8.408   0.151   6.845  0.1805 -0.4131 -0.1653
  850MOL0     C14676   8.516   0.194   6.945 -0.4393  0.4382  0.4372
  850MOL0     C14677   8.645   0.123   6.917 -0.1484 -0.8296  0.1129
  850MOL0     C14678   8.763   0.211   6.962  0.7137 -0.4008  0.6771
  850MOL0     C14679   8.794   0.306   6.856  0.2943  0.2607 -0.5046
  850MOL0     C14680   8.819   0.388   6.771  0.8393 -0.7683 -0.2251
  850MOL0     C14681   8.123   0.136   6.735  0.3878 -0.6978 -0.1190
  850MOL0     C14682   7.996   0.140   6.668  0.3409 -0.0525 -0.4860
  850MOL0     H14683   7.632  -0.061   6.515  3.2389  1.4609 -2.7025
  850MOL0     H14684   7.398  -0.099   6.431  0.6589 -0.1687  0.2894
  850MOL0     H14685   7.072   0.153   6.328  1.2502  1.5571  1.0612
  850MOL0     H14686   7.197   0.177   6.199 -0.5637  2.1193  3.0898
  850MOL0     H14687   7.136  -0.028   6.092 -1.7905 -0.7560 -1.9422
  850MOL0     H14688   7.022  -0.089   6.228 -2.6272  1.1261 -0.0587
  850MOL0     H14689   6.882   0.088   6.183 -2.0519 -0.7023 -0.8931
  850MOL0     H14690   6.973   0.144   6.047  2.6164 -0.2614  1.4051
  850MOL0     H14691   6.944  -0.120   5.976  2.5446  0.7970  2.1804
  850MOL0     H14692   6.797  -0.107   6.073 -1.5614  1.4849 -1.2369
  850MOL0     H14693   6.846   0.061   5.815 -2.2404  0.2758 -2.2322
  850MOL0     H14694   6.729  -0.066   5.839 -0.1723 -1.1836  1.7070
  850MOL0     H14695   6.741   0.196   6.002 -1.2200  0.9223 -0.2598
  850MOL0     H14696   6.635   0.167   5.853  2.6318  2.9472 -0.2465
  850MOL0     H14697   6.541  -0.031   5.988 -0.0864  1.3198 -1.2128
  850MOL0     H14698   6.617   0.040   6.123 -3.9069 -1.6447  2.0132
  850MOL0     H14699   6.377   0.119   6.083 -0.0538  0.2170 -1.0511
  850MOL0     H14700   6.422   0.204   5.941  1.0374  1.7979  0.5544
  850MOL0     H14701   6.587   0.418   5.952 -0.4977  1.7019 -0.7250
  850MOL0     H14702   6.616   0.647   6.011 -1.8894  1.2196  0.3165
  850MOL0     H14703   6.585   0.694   6.176 -0.5922 -2.1522  2.6565
  850MOL0     H14704   6.837   0.547   6.118  3.1095  0.9969  1.5331
  850MOL0     H14705   6.784   0.635   6.264  0.1908  2.6111  0.1577
  850MOL0     H14706   6.798   0.836   6.118  0.3551  0.4363 -2.7907
  850MOL0     H14707   6.856   0.726   5.991  1.0698 -0.8495  0.2930
  850MOL0     H14708   7.031   0.646   6.143  0.4768  1.4273  1.3540
  850MOL0     H14709   6.975   0.756   6.269 -2.8183  1.9859 -0.0616
  850MOL0     H14710   7.122   1.108   6.068 -1.4464 -0.6312  0.8704
  850MOL0     H14711   7.437   1.258   6.123  0.0519 -3.6947  1.7477
  850MOL0     H14712   7.271   1.279   6.050  1.1981  1.2852 -0.8897
  850MOL0     H14713   7.294   1.330   6.207 -0.3972  1.6867 -2.1871
  850MOL0     H14714   7.806   1.011   6.287 -0.3940  2.2035 -1.7262
  850MOL0     H14715   8.006   1.054   6.376  0.0295 -0.1880  1.2801
  850MOL0     H14716   8.250   1.256   6.595  0.8858 -1.4946  0.8566
  850MOL0     H14717   8.196   1.130   6.489 -1.8701 -0.5871 -0.3515
  850MOL0     H14718   8.235   1.382   6.387  0.8905 -2.3534 -0.9555
  850MOL0     H14719   8.092   1.297   6.341 -2.0097  0.4757  0.8822
  850MOL0     H14720   8.130   1.509   6.555 -0.9950 -1.5690  0.8543
  850MOL0     H14721   7.971   1.423   6.530 -0.3644 -3.1552 -1.5526
  850MOL0     H14722   7.965   1.650   6.448  4.0218  2.2109  1.0415
  850MOL0     H14723   8.099   1.625   6.340 -1.4066 -0.6607 -1.5365
  850MOL0     H14724   7.978   1.455   6.211  0.2005 -0.2153  0.6125
  850MOL0     H14725   7.931   1.624   6.203  1.4173 -0.1930 -0.2461
  850MOL0     H14726   7.825   1.377   6.361  1.8017  0.3361  0.5481
  850MOL0     H14727   7.754   1.535   6.389  0.2603  0.8936 -0.0953
  850MOL0     H14728   7.648   1.346   6.222  2.1038 -2.9553 -2.0456
  850MOL0     H14729   7.758   1.409   6.116 -0.3007  0.0579 -1.8300
  850MOL0     H14730   7.539   1.541   6.082 -0.6738 -0.3280  1.4641
  850MOL0     H14731   7.659   1.648   6.147  1.2762  0.4870  1.4953
  850MOL0     H14732   7.837   1.237   6.731 -2.7544  2.4452 -0.3226
  850MOL0     H14733   7.611   1.196   6.633  1.1077  0.6964  0.7299
  850MOL0     H14734   7.379   0.872   6.424 -3.3121 -2.7132  1.6049
  850MOL0     H14735   7.179   0.766   6.332 -1.2584  2.0531  1.2941
  850MOL0     H14736   7.359   0.307   6.316  0.6972  1.0803  1.1479
  850MOL0     H14737   7.563   0.353   6.423 -2.7616  1.0213 -0.5694
  850MOL0     H14738   7.974   0.477   6.621 -0.8621 -0.5425  0.7980
  850MOL0     H14739   8.202   0.466   6.737  0.7020 -0.0912  1.0519
  850MOL0     H14740   8.366   0.054   6.870  1.6892 -1.7944 -2.5456
  850MOL0     H14741   8.457   0.136   6.748 -0.0932 -0.3314 -0.3155
  850MOL0     H14742   8.476   0.162   7.042  0.2971 -1.0200  0.2966
  850MOL0     H14743   8.533   0.301   6.932  0.6500  0.0420 -2.0114
  850MOL0     H14744   8.654   0.123   6.808  2.8264  1.5393  0.2107
  850MOL0     H14745   8.637   0.022   6.958 -1.0800 -0.4675  0.8590
  850MOL0     H14746   8.852   0.147   6.961  0.3907 -0.8558 -0.5621
  850MOL0     H14747   8.751   0.258   7.060  2.1001  0.5019  0.4435
  850MOL0     H14748   8.846   0.458   6.695 -0.3870  1.2417  1.0784
  850MOL0     H14749   8.157   0.039   6.771 -2.7920 -1.8602  0.1351
  850MOL0     H14750   7.951   0.043   6.654  4.0127 -1.6959 -2.2147
  851MOL0     O14751   6.209   2.106   0.583  0.1563  0.2765 -0.2811
  851MOL0     C14752   6.229   2.172   0.681 -0.4442  0.2783  0.4206
  851MOL0     O14753   6.142   2.204   0.774  0.0213  0.5529  0.9025
  851MOL0     C14754   6.016   2.170   0.742  0.7465 -0.0892  0.1425
  851MOL0     C14755   5.972   2.051   0.788 -0.6732 -0.6432  0.1240
  851MOL0     C14756   5.841   2.011   0.771 -0.4906  0.2274 -0.3153
  851MOL0     C14757   5.755   2.080   0.700  0.3009  0.9093  0.2259
  851MOL0     O14758   5.630   2.023   0.699 -0.7744  0.4047  0.9268
  851MOL0     C14759   5.529   2.096   0.624 -0.3641 -0.4437  0.1770
  851MOL0     C14760   5.410   2.010   0.603  0.4663  0.9481 -0.6247
  851MOL0     C14761   5.295   2.094   0.539  1.0046 -0.8333 -0.1617
  851MOL0     C14762   5.153   2.056   0.581 -0.5356  0.0785  0.6814
  851MOL0     C14763   5.052   2.149   0.517 -0.2148 -0.2135  0.4945
  851MOL0     C14764   4.906   2.102   0.528  0.7421  0.5923 -0.5828
  851MOL0     C14765   4.818   2.180   0.437  0.4354  0.8868 -0.7093
  851MOL0     C14766   4.670   2.152   0.462  1.1211 -0.2838  0.2835
  851MOL0     N14767   4.587   2.242   0.377 -0.1532  0.5443 -0.0857
  851MOL0     C14768   4.594   2.376   0.374 -0.1091  0.1530 -0.0452
  851MOL0     C14769   4.462   2.418   0.361  0.4876  0.2498  0.6082
  851MOL0     C14770   4.410   2.558   0.351  0.1721  0.2999  0.2003
  851MOL0     C14771   4.347   2.598   0.493 -0.1578  0.5873 -0.1160
  851MOL0     C14772   4.222   2.510   0.528  0.2385 -0.0065  0.5808
  851MOL0     C14773   4.109   2.545   0.437  0.8249 -0.3107 -0.3149
  851MOL0     O14774   3.985   2.499   0.487 -0.3068 -0.2461 -0.0249
  851MOL0     C14775   3.944   2.365   0.459 -0.2462 -0.5543  0.7737
  851MOL0     C14776   4.028   2.257   0.394  1.2410 -0.4054 -0.1858
  851MOL0     C14777   3.987   2.123   0.388  1.2095 -0.6941  0.5538
  851MOL0     C14778   4.078   2.021   0.343  0.6108  0.2619 -0.6982
  851MOL0     C14779   3.849   2.098   0.422  0.8384  0.4544 -0.2548
  851MOL0     C14780   3.788   1.959   0.430 -0.4974  0.6677 -0.5707
  851MOL0     O14781   3.660   1.948   0.481 -0.6115 -0.3674  0.0660
  851MOL0     C14782   3.604   1.829   0.522  0.0320 -0.4816 -0.6820
  851MOL0     C14783   3.668   1.735   0.603  0.0303  0.1952 -0.4911
  851MOL0     C14784   3.598   1.616   0.650 -0.4592 -0.2088  0.2121
  851MOL0     C14785   3.464   1.597   0.632  0.3174 -0.3472 -0.7631
  851MOL0     O14786   3.383   1.493   0.668 -0.0551  0.3204  0.7344
  851MOL0     C14787   3.438   1.368   0.708 -0.1004 -0.4249  0.2459
  851MOL0     C14788   3.331   1.273   0.782 -1.2105 -0.4872 -0.1038
  851MOL0     C14789   3.216   1.234   0.695  0.6978  0.2855  0.2768
  851MOL0     C14790   3.109   1.183   0.793  0.0051  0.9722 -1.1100
  851MOL0     C14791   2.988   1.134   0.713  1.3050 -0.1269 -0.2074
  851MOL0     C14792   2.882   1.090   0.811 -0.0185  0.1583 -0.0202
  851MOL0     C14793   2.745   1.061   0.744  0.2605 -0.3696 -1.0689
  851MOL0     C14794   2.659   1.029   0.863  0.6831  0.1398  0.5316
  851MOL0    Cl14795   2.490   1.007   0.807 -0.6200  0.2175 -0.1849
  851MOL0     C14796   3.401   1.695   0.557 -0.1750 -1.0479  0.2980
  851MOL0     C14797   3.461   1.809   0.501  0.5553  0.3423  0.3408
  851MOL0     O14798   3.859   1.857   0.408  0.1372 -0.0816 -0.2954
  851MOL0     C14799   3.764   2.196   0.468 -0.8846  0.0463  0.4327
  851MOL0     C14800   3.807   2.330   0.484  0.0055  0.3163 -0.8566
  851MOL0     N14801   4.381   2.305   0.327 -0.1039 -0.3110 -0.2783
  851MOL0     N14802   4.462   2.205   0.341 -0.0370  0.7517 -0.0628
  851MOL0     C14803   5.799   2.200   0.637 -0.8529 -0.3908 -0.0090
  851MOL0     C14804   5.929   2.252   0.666  0.2061  0.4675  0.4043
  851MOL0     C14805   6.357   2.219   0.703  0.6473 -0.6007 -0.3566
  851MOL0     C14806   6.467   2.145   0.660  0.1476 -0.1937  0.0160
  851MOL0     C14807   6.598   2.187   0.694  0.0333 -0.0995  0.8107
  851MOL0     C14808   6.611   2.305   0.779 -0.7199  0.4016  0.5013
  851MOL0     O14809   6.735   2.346   0.819 -1.1547  0.3234 -0.1139
  851MOL0     C14810   6.851   2.257   0.809  0.0251 -0.6210  0.0757
  851MOL0     C14811   6.940   2.284   0.684  1.0767 -0.4127  0.0731
  851MOL0     C14812   7.081   2.244   0.720  0.3103  0.9580  0.6665
  851MOL0     C14813   7.164   2.253   0.600 -0.8096 -0.0196 -0.7081
  851MOL0     C14814   7.308   2.251   0.628  0.4662 -0.9946 -0.8090
  851MOL0     C14815   7.421   2.246   0.656 -0.2225 -0.3883  0.7062
  851MOL0     C14816   6.507   2.384   0.822 -0.0033  0.1867  1.0013
  851MOL0     C14817   6.385   2.330   0.795 -0.0366 -0.8323  0.2250
  851MOL0     H14818   6.031   1.980   0.846  2.1666  1.7745  0.4256
  851MOL0     H14819   5.818   1.911   0.806 -3.1115  1.2308  1.1061
  851MOL0     H14820   5.501   2.177   0.692 -3.1645 -0.4732 -0.8016
  851MOL0     H14821   5.570   2.136   0.531 -1.2645  1.4838  0.5624
  851MOL0     H14822   5.445   1.924   0.546 -0.6689 -0.5502  0.8330
  851MOL0     H14823   5.387   1.975   0.704 -1.5208  2.6309 -0.4138
  851MOL0     H14824   5.296   2.196   0.579  0.0314 -0.3863 -1.2326
  851MOL0     H14825   5.289   2.112   0.431 -0.9679  0.7137  0.1579
  851MOL0     H14826   5.135   1.954   0.544  2.7210  0.5926 -2.9106
  851MOL0     H14827   5.146   2.062   0.690 -1.3882 -0.1176  0.6404
  851MOL0     H14828   5.056   2.239   0.579  1.4120  0.3216 -0.3387
  851MOL0     H14829   5.083   2.165   0.414  0.2716 -0.6139  0.5753
  851MOL0     H14830   4.899   1.996   0.502  0.8311  0.5680 -0.5104
  851MOL0     H14831   4.869   2.111   0.631 -0.9375 -3.0345 -0.7213
  851MOL0     H14832   4.835   2.287   0.455 -1.2993  0.9852  0.7600
  851MOL0     H14833   4.840   2.163   0.332  0.0694  1.2210 -0.8410
  851MOL0     H14834   4.645   2.170   0.567 -1.7031  2.0647 -0.6457
  851MOL0     H14835   4.648   2.050   0.431 -1.4355  1.2608 -3.8518
  851MOL0     H14836   4.679   2.426   0.420  0.6681  1.0863 -2.3605
  851MOL0     H14837   4.498   2.615   0.322 -0.3150  1.3340  0.6883
  851MOL0     H14838   4.336   2.566   0.270 -0.6994  4.5736  1.1668
  851MOL0     H14839   4.303   2.698   0.488  0.0972  0.6485 -2.0068
  851MOL0     H14840   4.419   2.597   0.575  2.5028 -2.2910 -2.2186
  851MOL0     H14841   4.195   2.517   0.634 -0.1932  1.2253  0.4077
  851MOL0     H14842   4.246   2.406   0.504 -4.0255 -0.7646 -1.4789
  851MOL0     H14843   4.120   2.508   0.334  1.5682  1.7746 -1.0479
  851MOL0     H14844   4.091   2.653   0.440 -0.1986 -0.4898  1.8997
  851MOL0     H14845   4.130   2.276   0.363  1.9633 -1.0452  1.6490
  851MOL0     H14846   4.035   1.976   0.253 -0.0947  1.7012 -1.1138
  851MOL0     H14847   4.178   2.061   0.322  0.2203  0.7997 -1.5641
  851MOL0     H14848   4.095   1.944   0.419  2.3162 -1.9620 -3.1650
  851MOL0     H14849   3.774   1.750   0.622  1.0486 -3.2366 -2.4645
  851MOL0     H14850   3.658   1.541   0.700 -1.7327 -1.2016  0.3019
  851MOL0     H14851   3.458   1.303   0.622 -4.3639 -0.4618 -0.9173
  851MOL0     H14852   3.527   1.383   0.770 -0.0090  1.3311 -0.2535
  851MOL0     H14853   3.381   1.182   0.817 -0.6350  0.0493  0.4883
  851MOL0     H14854   3.303   1.336   0.867  0.5988  0.1025  0.1035
  851MOL0     H14855   3.229   1.148   0.628 -1.7408 -1.9353  2.3858
  851MOL0     H14856   3.178   1.324   0.645 -0.6892 -1.2163 -1.5263
  851MOL0     H14857   3.148   1.098   0.851 -2.3286  1.7919  1.9263
  851MOL0     H14858   3.083   1.257   0.869  2.8225  0.8301  0.1167
  851MOL0     H14859   2.998   1.063   0.630 -0.0916  0.6497 -1.0943
  851MOL0     H14860   2.944   1.228   0.679 -0.3042 -0.5307  0.6639
  851MOL0     H14861   2.918   0.999   0.859  1.8346  1.2817  0.8383
  851MOL0     H14862   2.872   1.170   0.886 -1.3406 -0.8458  0.9077
  851MOL0     H14863   2.739   0.977   0.673  1.7527 -0.7069 -0.8253
  851MOL0     H14864   2.705   1.149   0.694  0.3122  0.5232  0.4244
  851MOL0     H14865   2.653   1.112   0.934 -2.6071 -0.8588  1.5718
  851MOL0     H14866   2.694   0.934   0.904 -0.2249 -1.1899 -1.6433
  851MOL0     H14867   3.297   1.692   0.525  0.0362  0.3842 -0.6096
  851MOL0     H14868   3.392   1.877   0.452  0.0183 -0.2624  0.2455
  851MOL0     H14869   3.661   2.179   0.499 -0.5051 -3.0700  0.3349
  851MOL0     H14870   3.746   2.412   0.521  1.6465  0.5185  1.6715
  851MOL0     H14871   5.730   2.264   0.583 -2.7673 -1.5413  0.9418
  851MOL0     H14872   5.973   2.337   0.615  0.5471  0.3844  0.5546
  851MOL0     H14873   6.451   2.053   0.604 -1.1529  0.9392 -1.5572
  851MOL0     H14874   6.671   2.117   0.656 -3.9111 -3.9610 -0.5217
  851MOL0     H14875   6.919   2.286   0.889 -1.5051  1.6799  0.6377
  851MOL0     H14876   6.837   2.149   0.808  1.6347 -0.8595  0.1164
  851MOL0     H14877   6.939   2.390   0.658 -1.0466 -0.6141 -0.9060
  851MOL0     H14878   6.896   2.227   0.601 -1.6506 -0.7278  1.6516
  851MOL0     H14879   7.063   2.142   0.756 -1.5027  0.9984 -0.0566
  851MOL0     H14880   7.112   2.315   0.798  0.1802  3.3085 -1.3154
  851MOL0     H14881   7.152   2.353   0.557  0.1939 -1.0489 -3.5972
  851MOL0     H14882   7.136   2.187   0.518  1.1926 -1.4604 -0.2991
  851MOL0     H14883   7.519   2.245   0.697 -0.7869  0.6552  2.1495
  851MOL0     H14884   6.521   2.473   0.882 -0.1108  0.6514  0.3462
  851MOL0     H14885   6.297   2.383   0.831  0.2127 -0.2533  0.0117
  852MOL0     O14886   6.697   2.316   8.158  0.0226 -0.6667  0.0522
  852MOL0     C14887   6.762   2.399   8.089 -0.0439  0.3418 -0.4490
  852MOL0     O14888   6.709   2.481   7.989 -0.1088 -0.1766 -0.4670
  852MOL0     C14889   6.589   2.454   7.939 -0.3644 -0.2559 -1.0099
  852MOL0     C14890   6.489   2.544   7.977  0.2216 -0.7763 -0.1664
  852MOL0     C14891   6.361   2.517   7.949  0.8853 -0.2378 -0.2145
  852MOL0     C14892   6.325   2.410   7.866 -0.6749  0.4431  0.2325
  852MOL0     O14893   6.203   2.405   7.819  0.1254  0.4285 -0.2458
  852MOL0     C14894   6.134   2.277   7.813  0.6322 -0.6342 -0.2077
  852MOL0     C14895   6.020   2.308   7.718 -0.4987  0.6344 -0.9756
  852MOL0     C14896   5.935   2.187   7.688  0.1839 -0.0097 -0.4722
  852MOL0     C14897   5.816   2.224   7.597 -0.4229  0.1605 -0.0356
  852MOL0     C14898   5.726   2.100   7.577  0.0183 -0.2661  0.2782
  852MOL0     C14899   5.604   2.125   7.481  0.1850 -0.1464  0.0231
  852MOL0     C14900   5.631   2.118   7.335 -0.0696  0.7539  0.6382
  852MOL0     C14901   5.501   2.144   7.255  0.8654 -0.3350 -0.4505
  852MOL0     N14902   5.395   2.050   7.283  0.5197 -0.2012 -0.2651
  852MOL0     C14903   5.379   1.919   7.252  0.2454 -0.3219  0.3219
  852MOL0     C14904   5.270   1.874   7.321 -0.7915 -0.5929 -0.7192
  852MOL0     C14905   5.205   1.738   7.318 -0.4354 -0.9934 -0.4253
  852MOL0     C14906   5.108   1.722   7.205  0.0822  0.0023 -0.2799
  852MOL0     C14907   4.974   1.798   7.215  0.4008  0.6909 -0.4157
  852MOL0     C14908   4.885   1.756   7.101 -0.1294  0.8708 -0.0330
  852MOL0     O14909   4.748   1.724   7.148  0.3234  0.4493  0.6221
  852MOL0     C14910   4.643   1.811   7.126 -0.6583  0.9279 -0.6674
  852MOL0     C14911   4.518   1.764   7.153 -0.0217  0.5918 -0.9159
  852MOL0     C14912   4.400   1.833   7.136  1.0067  0.3307  0.6245
  852MOL0     C14913   4.268   1.754   7.172 -0.7653 -0.8402  0.7633
  852MOL0     C14914   4.411   1.970   7.095 -0.4582  1.0462 -0.5754
  852MOL0     C14915   4.300   2.067   7.101  0.2978 -0.8081  0.9360
  852MOL0     O14916   4.166   2.029   7.107 -0.1676 -0.2052  0.1634
  852MOL0     C14917   4.067   2.120   7.115 -0.3219 -0.5678 -0.2090
  852MOL0     C14918   3.960   2.077   7.193 -0.3175 -0.4309  0.6444
  852MOL0     C14919   3.855   2.167   7.215  0.0923 -0.1154 -0.1639
  852MOL0     C14920   3.833   2.279   7.129 -0.3729  0.4914  0.4146
  852MOL0     O14921   3.719   2.353   7.112 -0.8761 -0.4405  0.4891
  852MOL0     C14922   3.589   2.280   7.123 -0.2871 -0.3995 -0.5176
  852MOL0     C14923   3.470   2.386   7.136 -1.3917  0.4163  0.3551
  852MOL0     C14924   3.336   2.307   7.144 -0.5701 -0.7121 -0.3056
  852MOL0     C14925   3.303   2.283   7.288 -0.0495  0.3938  0.1618
  852MOL0     C14926   3.178   2.202   7.325 -0.4509 -0.4701  0.2711
  852MOL0     C14927   3.045   2.250   7.288 -0.3209 -0.0963 -0.8312
  852MOL0     C14928   2.951   2.129   7.298 -0.4884 -0.3585 -0.3841
  852MOL0     C14929   2.802   2.161   7.287  0.0819 -0.4384 -0.4905
  852MOL0    Cl14930   2.749   2.220   7.443 -0.7056  0.1803  0.1948
  852MOL0     C14931   3.945   2.312   7.044  0.5237 -0.1423 -0.4635
  852MOL0     C14932   4.065   2.238   7.040 -0.3586  0.2265  0.4516
  852MOL0     O14933   4.338   2.186   7.095  0.4350  0.0906  0.4160
  852MOL0     C14934   4.543   2.015   7.061  0.5704 -0.4939 -0.1963
  852MOL0     C14935   4.655   1.939   7.079  0.0579 -0.3814  0.0159
  852MOL0     N14936   5.221   1.977   7.397 -0.0045  0.5003  0.1068
  852MOL0     N14937   5.297   2.079   7.374  1.1256 -0.5768 -1.1141
  852MOL0     C14938   6.428   2.324   7.828  0.3218 -0.2379  0.3638
  852MOL0     C14939   6.566   2.348   7.852  0.1928 -0.2863  0.0590
  852MOL0     C14940   6.910   2.411   8.112  0.7241  0.1529  0.0441
  852MOL0     C14941   6.959   2.341   8.223 -0.8712 -0.2227 -0.5903
  852MOL0     C14942   7.099   2.340   8.254  0.4063  0.0514  0.0275
  852MOL0     C14943   7.188   2.412   8.177 -0.1338 -0.0595 -1.0137
  852MOL0     O14944   7.324   2.409   8.198 -0.1021 -0.9736 -0.4607
  852MOL0     C14945   7.381   2.281   8.224  0.2525 -0.2729  0.4219
  852MOL0     C14946   7.523   2.272   8.166 -0.1049  0.8643  0.4057
  852MOL0     C14947   7.533   2.253   8.013  0.4251 -0.0761 -1.0006
  852MOL0     C14948   7.557   2.108   7.981  0.3471  0.1639  0.1641
  852MOL0     C14949   7.430   2.030   7.991  0.6026 -0.4515  1.0965
  852MOL0     C14950   7.320   1.971   7.984  0.1392 -0.0135 -0.5045
  852MOL0     C14951   7.140   2.486   8.067  0.4587 -0.5180 -0.0940
  852MOL0     C14952   7.000   2.503   8.041  0.5081  0.5739  0.0552
  852MOL0     H14953   6.517   2.634   8.032 -0.8817  0.4279 -1.4985
  852MOL0     H14954   6.284   2.586   7.982  0.7340 -0.4467 -0.1227
  852MOL0     H14955   6.196   2.198   7.770  0.6262  0.2725 -1.9713
  852MOL0     H14956   6.089   2.240   7.906 -2.2382 -1.1604 -1.6834
  852MOL0     H14957   5.958   2.382   7.769  2.2525  1.3119  1.7110
  852MOL0     H14958   6.058   2.349   7.624 -1.2786  0.5185 -1.3519
  852MOL0     H14959   5.996   2.110   7.640  1.2907  0.5287  0.0287
  852MOL0     H14960   5.884   2.153   7.779 -2.6277  2.8091 -0.8045
  852MOL0     H14961   5.759   2.310   7.632 -2.0358 -0.2559 -1.5083
  852MOL0     H14962   5.856   2.252   7.499 -1.0565  0.2659 -0.2651
  852MOL0     H14963   5.787   2.023   7.529  0.5594 -0.2308  0.9105
  852MOL0     H14964   5.691   2.056   7.671 -3.6206 -0.7950 -1.1528
  852MOL0     H14965   5.531   2.049   7.511 -0.9176  1.6060  2.1217
  852MOL0     H14966   5.556   2.221   7.505  0.5516  1.3680 -4.4784
  852MOL0     H14967   5.699   2.198   7.303 -0.5488  0.4895 -1.1633
  852MOL0     H14968   5.683   2.027   7.302  1.0482  1.5140  0.2241
  852MOL0     H14969   5.524   2.136   7.148 -0.8625 -1.0189 -0.8033
  852MOL0     H14970   5.464   2.242   7.286  1.3976 -0.5533  0.9900
  852MOL0     H14971   5.446   1.876   7.178  0.6813 -0.0105  0.5310
  852MOL0     H14972   5.280   1.659   7.322  1.4504  0.7314 -0.0430
  852MOL0     H14973   5.144   1.730   7.408 -1.5801  0.5440 -1.0059
  852MOL0     H14974   5.088   1.615   7.194  1.3455 -0.2965  0.2216
  852MOL0     H14975   5.149   1.738   7.105 -1.4128 -2.1181 -1.3098
  852MOL0     H14976   5.001   1.903   7.199  1.5864  0.7264  1.4579
  852MOL0     H14977   4.935   1.778   7.315  2.8760 -1.3832  0.2468
  852MOL0     H14978   4.911   1.664   7.049 -0.0792 -0.2137  1.8288
  852MOL0     H14979   4.889   1.833   7.023  0.4069 -1.5596 -2.5504
  852MOL0     H14980   4.508   1.664   7.194 -2.7383  0.3269 -1.9887
  852MOL0     H14981   4.256   1.687   7.085 -0.4967  2.1461 -1.7378
  852MOL0     H14982   4.285   1.696   7.263  0.5739 -0.5778  0.6960
  852MOL0     H14983   4.180   1.818   7.180 -0.4388 -0.1922 -0.4928
  852MOL0     H14984   3.974   1.983   7.245  0.7026  1.2424  3.6570
  852MOL0     H14985   3.783   2.138   7.292 -0.6253 -2.7366 -1.6899
  852MOL0     H14986   3.563   2.211   7.042 -2.0738 -1.5749  0.9632
  852MOL0     H14987   3.596   2.226   7.218  1.2767  0.4907 -0.0831
  852MOL0     H14988   3.480   2.449   7.225 -4.1093 -0.0530  1.0995
  852MOL0     H14989   3.471   2.447   7.045  0.6818  0.8406  0.6173
  852MOL0     H14990   3.338   2.214   7.085 -0.8962  0.2649 -1.9319
  852MOL0     H14991   3.263   2.374   7.098  0.4313  0.0279 -0.8626
  852MOL0     H14992   3.393   2.234   7.326 -0.0634 -2.5661 -3.0700
  852MOL0     H14993   3.295   2.383   7.332  0.0023  0.0631  0.9307
  852MOL0     H14994   3.179   2.190   7.434  0.4378 -1.7320  0.1466
  852MOL0     H14995   3.199   2.105   7.280  1.5098  1.1300 -2.5964
  852MOL0     H14996   3.011   2.331   7.354  1.3039  0.6318 -0.8466
  852MOL0     H14997   3.044   2.285   7.185 -3.1578  1.3385 -0.4209
  852MOL0     H14998   2.967   2.075   7.392  3.4193  0.9105 -0.1313
  852MOL0     H14999   2.963   2.065   7.210  0.6503 -0.3762 -0.2237
  852MOL0     H15000   2.740   2.078   7.251 -1.6884  0.5250  0.1954
  852MOL0     H15001   2.787   2.237   7.210  1.7432  0.6618  0.2097
  852MOL0     H15002   3.934   2.395   6.975 -0.6564 -0.0323 -0.1525
  852MOL0     H15003   4.140   2.268   6.968 -0.4690  2.3500  1.1351
  852MOL0     H15004   4.548   2.114   7.016 -4.3333  0.2726  0.3659
  852MOL0     H15005   4.750   1.987   7.054  0.4956 -1.0052  0.4481
  852MOL0     H15006   6.400   2.240   7.766 -1.5558 -0.5260  1.5485
  852MOL0     H15007   6.647   2.293   7.806  0.6488 -0.4608  1.0563
  852MOL0     H15008   6.896   2.283   8.289  1.2435  0.2880  2.0847
  852MOL0     H15009   7.124   2.281   8.342 -0.3519 -0.9797 -0.4222
  852MOL0     H15010   7.388   2.271   8.332  1.6924 -1.0785  0.2815
  852MOL0     H15011   7.320   2.203   8.177  2.7913 -2.1426  0.0108
  852MOL0     H15012   7.567   2.187   8.219  1.9206  1.1294 -0.7236
  852MOL0     H15013   7.583   2.359   8.195 -0.4487  2.2323 -2.5988
  852MOL0     H15014   7.618   2.309   7.973  0.3345 -0.9106 -2.4697
  852MOL0     H15015   7.435   2.280   7.972 -0.7326 -0.7513  1.2010
  852MOL0     H15016   7.618   2.052   8.053 -1.0845 -1.3323  0.2706
  852MOL0     H15017   7.590   2.098   7.878  1.1032 -0.7008  0.4842
  852MOL0     H15018   7.222   1.929   7.979 -1.3247  2.6661  2.4149
  852MOL0     H15019   7.213   2.542   8.009 -0.5846  0.4578 -0.4914
  852MOL0     H15020   6.963   2.567   7.962 -1.4453  0.7338  1.0512
  853MOL0     O15021   8.171   7.567   3.401  0.4035  0.2009 -0.3047
  853MOL0     C15022   8.244   7.514   3.316  0.5511  0.3165 -1.0965
  853MOL0     O15023   8.207   7.492   3.182  0.0776 -0.2357 -0.4045
  853MOL0     C15024   8.087   7.540   3.131 -0.5226 -0.0404  0.2313
  853MOL0     C15025   8.054   7.675   3.146  0.2128 -0.3057  0.8484
  853MOL0     C15026   7.941   7.735   3.079 -0.8501  0.7890  0.0847
  853MOL0     C15027   7.856   7.660   3.004  0.0708 -1.1052  1.2501
  853MOL0     O15028   7.752   7.721   2.936 -0.3357 -0.7077 -0.0669
  853MOL0     C15029   7.718   7.661   2.813  0.6558 -0.2410  0.3248
  853MOL0     C15030   7.622   7.757   2.738  0.2973 -0.5889 -0.1360
  853MOL0     C15031   7.522   7.674   2.664  0.4924  0.7173  0.1337
  853MOL0     C15032   7.585   7.592   2.542 -0.4184 -0.6565  0.5969
  853MOL0     C15033   7.483   7.532   2.446 -0.6275  0.3937 -0.5242
  853MOL0     C15034   7.559   7.465   2.330  1.2161 -0.4503 -0.0609
  853MOL0     C15035   7.443   7.430   2.223 -0.7592  0.3273  0.4604
  853MOL0     C15036   7.499   7.349   2.104  0.1072  0.1987 -0.1085
  853MOL0     N15037   7.532   7.212   2.134 -0.6478  0.2107  0.7056
  853MOL0     C15038   7.578   7.120   2.042  0.2049  0.2546  0.2891
  853MOL0     C15039   7.585   7.007   2.102  0.5414 -1.0793 -1.3446
  853MOL0     C15040   7.623   6.871   2.059 -1.4576  0.3277 -0.5733
  853MOL0     C15041   7.571   6.845   1.920  0.7012  0.2199 -0.5201
  853MOL0     C15042   7.409   6.853   1.921 -0.1594 -0.4811 -0.0682
  853MOL0     C15043   7.340   6.777   2.037  0.2375  0.1499  0.7083
  853MOL0     O15044   7.201   6.761   1.995  0.3218  1.2021  0.3614
  853MOL0     C15045   7.118   6.864   1.993  0.2190 -0.3927  0.3224
  853MOL0     C15046   7.142   6.988   2.048  0.4198 -0.5018  0.2843
  853MOL0     C15047   7.049   7.098   2.033  0.4056  0.5345 -0.1815
  853MOL0     C15048   7.078   7.232   2.096 -0.8433  0.5882  0.5266
  853MOL0     C15049   6.922   7.068   1.965 -0.5762 -0.5386 -0.3093
  853MOL0     C15050   6.814   7.172   1.947  1.0544  0.6575 -0.9477
  853MOL0     O15051   6.695   7.129   1.901  0.5933 -0.4349  0.4422
  853MOL0     C15052   6.590   7.201   1.840  0.1470 -0.2375  0.2337
  853MOL0     C15053   6.474   7.137   1.814  0.3579 -0.1969  0.5124
  853MOL0     C15054   6.370   7.198   1.750 -0.5057  0.3219  0.3060
  853MOL0     C15055   6.380   7.331   1.705  0.8688  0.0697 -0.4875
  853MOL0     O15056   6.269   7.391   1.648 -0.4567  0.1219 -0.7822
  853MOL0     C15057   6.140   7.328   1.639 -0.2908 -0.3840 -0.5472
  853MOL0     C15058   6.041   7.411   1.571  0.5859 -0.5915 -0.5461
  853MOL0     C15059   6.054   7.422   1.421  0.4028  0.3285  0.6382
  853MOL0     C15060   5.967   7.529   1.355  0.3499 -0.4883  0.1482
  853MOL0     C15061   5.856   7.491   1.258 -0.1656 -0.0059  0.7294
  853MOL0     C15062   5.925   7.440   1.127  0.2762  0.4396 -0.3356
  853MOL0     C15063   5.822   7.393   1.027  0.4587  0.5142  0.1051
  853MOL0     C15064   5.760   7.259   1.078  0.0879 -1.1130  0.9673
  853MOL0    Cl15065   5.894   7.151   1.145 -0.9737 -0.1165  0.1970
  853MOL0     C15066   6.499   7.398   1.722 -0.0385  0.8634  0.0189
  853MOL0     C15067   6.602   7.333   1.789  0.5898  0.0962  0.5212
  853MOL0     O15068   6.833   7.286   1.973  0.0628  0.4609 -0.5026
  853MOL0     C15069   6.907   6.944   1.908 -1.0552  0.2225 -0.4595
  853MOL0     C15070   6.999   6.839   1.922 -0.2119  0.0985  0.4633
  853MOL0     N15071   7.542   7.025   2.236 -0.3601  0.2128  0.2954
  853MOL0     N15072   7.503   7.145   2.252  0.3908 -0.2552  0.4177
  853MOL0     C15073   7.892   7.527   2.987  1.2556 -0.0500 -0.5513
  853MOL0     C15074   8.005   7.474   3.038  0.0634  0.4000  0.4889
  853MOL0     C15075   8.378   7.479   3.358 -0.5636 -0.1994  0.3616
  853MOL0     C15076   8.444   7.537   3.463 -0.2390 -0.4186 -1.0907
  853MOL0     C15077   8.577   7.506   3.503  0.2510  0.1802 -0.3761
  853MOL0     C15078   8.657   7.435   3.419  0.5440  0.0272 -0.3296
  853MOL0     O15079   8.796   7.428   3.436  0.1588  1.1534  1.0502
  853MOL0     C15080   8.864   7.541   3.480  0.0189  0.7345  0.1988
  853MOL0     C15081   8.842   7.665   3.401 -0.4966  0.1912 -0.4310
  853MOL0     C15082   8.872   7.641   3.252  0.3420 -0.7437 -0.1838
  853MOL0     C15083   8.852   7.773   3.181 -0.9214 -0.0579  0.8994
  853MOL0     C15084   8.716   7.824   3.191 -0.0648  0.0056 -0.5324
  853MOL0     C15085   8.607   7.866   3.209 -0.8452  0.0848 -0.6275
  853MOL0     C15086   8.595   7.365   3.320 -0.4759  0.7589 -0.1484
  853MOL0     C15087   8.459   7.392   3.286  1.0846  0.0633 -0.7390
  853MOL0     H15088   8.128   7.732   3.202  1.6892 -2.5152  1.2549
  853MOL0     H15089   7.914   7.838   3.102  0.5477  1.3968 -0.8332
  853MOL0     H15090   7.810   7.644   2.756  0.3776  0.5307 -0.3808
  853MOL0     H15091   7.665   7.567   2.829  1.1191 -0.6762 -0.5963
  853MOL0     H15092   7.565   7.820   2.806  0.6897  1.4432 -1.6102
  853MOL0     H15093   7.680   7.822   2.671  2.8988 -1.6504  0.9643
  853MOL0     H15094   7.475   7.600   2.729  2.3907 -2.3438 -1.7386
  853MOL0     H15095   7.449   7.740   2.615  0.8337  0.2326 -1.0508
  853MOL0     H15096   7.652   7.663   2.492 -2.1503  2.7839  2.7743
  853MOL0     H15097   7.646   7.514   2.589 -0.3372 -0.3510  1.0062
  853MOL0     H15098   7.408   7.469   2.494  0.0408  1.5250  2.2148
  853MOL0     H15099   7.431   7.611   2.391  0.1197 -0.3444 -2.3683
  853MOL0     H15100   7.622   7.545   2.290 -0.6228  0.3322 -1.5677
  853MOL0     H15101   7.628   7.385   2.357  0.8746  0.0072  2.3275
  853MOL0     H15102   7.373   7.367   2.279  1.0044 -0.2165  2.1512
  853MOL0     H15103   7.394   7.521   2.186  1.3044  1.6847  0.9243
  853MOL0     H15104   7.575   7.420   2.069 -0.4910  0.6430 -0.5352
  853MOL0     H15105   7.422   7.342   2.026 -1.8792 -3.8167  1.9307
  853MOL0     H15106   7.599   7.125   1.936  2.3320 -1.6082  0.5642
  853MOL0     H15107   7.733   6.867   2.059 -1.1552  3.5245  2.9610
  853MOL0     H15108   7.590   6.793   2.128  1.4777  1.1595  2.0154
  853MOL0     H15109   7.598   6.742   1.895 -0.1735 -0.0509 -0.3906
  853MOL0     H15110   7.614   6.905   1.839  0.2915  1.8386  0.4193
  853MOL0     H15111   7.370   6.810   1.829  0.2568 -3.7492  1.1522
  853MOL0     H15112   7.377   6.958   1.919 -0.1481 -0.4452  0.8927
  853MOL0     H15113   7.347   6.831   2.131  0.3816  1.8622 -0.2436
  853MOL0     H15114   7.378   6.675   2.049  0.7856  0.1931 -0.4277
  853MOL0     H15115   7.246   7.016   2.059 -0.2049  2.0971  0.1909
  853MOL0     H15116   7.094   7.310   2.021 -0.1316 -0.1900 -0.1529
  853MOL0     H15117   6.999   7.255   2.168 -0.2726  0.9848  1.0302
  853MOL0     H15118   7.171   7.230   2.152  0.6947  2.3305 -1.7817
  853MOL0     H15119   6.460   7.031   1.833 -3.2099  0.0474  0.0110
  853MOL0     H15120   6.281   7.137   1.737 -2.2348  2.8534 -0.4210
  853MOL0     H15121   6.154   7.240   1.576  0.3522  1.6113 -3.4076
  853MOL0     H15122   6.109   7.280   1.731 -2.6770 -1.3573 -1.7810
  853MOL0     H15123   5.941   7.378   1.603  1.0938 -0.7308  1.0016
  853MOL0     H15124   6.060   7.509   1.616  1.4818 -1.5180  1.1819
  853MOL0     H15125   6.035   7.320   1.385 -0.0801 -0.6130  3.3013
  853MOL0     H15126   6.157   7.449   1.397  0.4717 -2.1050 -2.3067
  853MOL0     H15127   5.906   7.571   1.435  1.2717 -0.6044  0.9357
  853MOL0     H15128   6.033   7.602   1.308  2.2409 -1.4165  1.2482
  853MOL0     H15129   5.802   7.583   1.234 -1.3899 -0.6956  0.8049
  853MOL0     H15130   5.779   7.427   1.301 -0.1344  0.0945  0.9324
  853MOL0     H15131   5.982   7.523   1.086 -0.8576  2.3957  1.8541
  853MOL0     H15132   6.001   7.363   1.143 -1.0492 -1.5556 -2.6934
  853MOL0     H15133   5.879   7.371   0.936  3.6985 -1.3592  2.4175
  853MOL0     H15134   5.744   7.468   1.008 -0.4431 -0.4247  0.0022
  853MOL0     H15135   5.702   7.209   1.000  0.9841 -2.5418  1.1845
  853MOL0     H15136   5.692   7.287   1.159 -0.1102  2.6645 -0.3116
  853MOL0     H15137   6.517   7.501   1.693 -1.3176  1.1777  0.3159
  853MOL0     H15138   6.693   7.391   1.800  0.7875 -0.1506  0.2050
  853MOL0     H15139   6.825   6.918   1.842 -0.0237 -1.8164 -1.0150
  853MOL0     H15140   6.986   6.745   1.870  0.4343 -0.7922  1.8365
  853MOL0     H15141   7.826   7.455   2.938 -0.2270  1.8147 -1.3993
  853MOL0     H15142   8.026   7.370   3.018 -0.4308  0.5183 -0.7029
  853MOL0     H15143   8.386   7.601   3.529  0.2694 -0.8920 -0.1714
  853MOL0     H15144   8.620   7.546   3.594  0.0986 -2.1431  0.7883
  853MOL0     H15145   8.837   7.563   3.583 -0.5169 -1.0553  0.4758
  853MOL0     H15146   8.971   7.515   3.480 -0.0180  0.3745 -1.8482
  853MOL0     H15147   8.912   7.741   3.438 -0.1603  1.4042 -3.2918
  853MOL0     H15148   8.743   7.708   3.417 -0.8007 -0.4044 -0.7046
  853MOL0     H15149   8.817   7.566   3.195  1.9746 -1.0440 -1.4325
  853MOL0     H15150   8.980   7.621   3.249  0.0704 -2.9242  1.6660
  853MOL0     H15151   8.864   7.755   3.074 -0.2769 -1.9705  1.2606
  853MOL0     H15152   8.931   7.840   3.219 -0.8496 -0.7817  2.0919
  853MOL0     H15153   8.507   7.904   3.213 -0.8182  0.0878  1.4922
  853MOL0     H15154   8.661   7.315   3.249  0.3665 -0.9080  1.7292
  853MOL0     H15155   8.421   7.344   3.196 -0.2033  0.4085 -0.4053
  854MOL0     O15156  10.604   1.761   9.534  0.2688 -0.1922 -0.4132
  854MOL0     C15157  10.676   1.694   9.462 -1.1264  0.9373  0.1169
  854MOL0     O15158  10.632   1.610   9.362  0.0666 -0.2275 -0.6433
  854MOL0     C15159  10.503   1.569   9.355 -0.0751  0.0268 -0.6704
  854MOL0     C15160  10.440   1.517   9.463  0.6693  0.6992  0.2699
  854MOL0     C15161  10.300   1.486   9.460  0.3952 -0.2588  0.0502
  854MOL0     C15162  10.228   1.503   9.338  0.2213  0.5569 -0.2200
  854MOL0     O15163  10.095   1.475   9.321  0.1848  0.1718 -0.1441
  854MOL0     C15164  10.027   1.414   9.429  0.1188  0.3835  0.1816
  854MOL0     C15165   9.903   1.353   9.379 -0.6284 -0.3859  0.2808
  854MOL0     C15166   9.791   1.463   9.343 -0.1961 -0.4865 -0.1771
  854MOL0     C15167   9.656   1.403   9.340  0.3261 -0.7336  0.0751
  854MOL0     C15168   9.544   1.509   9.307 -0.3201  0.4354 -0.1112
  854MOL0     C15169   9.405   1.465   9.332  1.0154  0.5652 -0.0254
  854MOL0     C15170   9.298   1.579   9.307 -0.7132 -0.6710 -1.2602
  854MOL0     C15171   9.158   1.526   9.308 -0.3920 -0.2714 -0.3503
  854MOL0     N15172   9.062   1.633   9.271 -0.3477  0.3993 -0.1287
  854MOL0     C15173   9.030   1.749   9.343 -0.8187  0.2107 -0.4970
  854MOL0     C15174   8.911   1.782   9.289 -0.9866 -0.4963 -0.6642
  854MOL0     C15175   8.811   1.883   9.347 -0.7415 -0.1368  0.4967
  854MOL0     C15176   8.844   2.024   9.312  0.1679 -0.0485 -0.2832
  854MOL0     C15177   8.736   2.136   9.340  0.1088  0.2086 -0.7888
  854MOL0     C15178   8.773   2.204   9.485  0.7479 -0.3352  0.6118
  854MOL0     O15179   8.755   2.101   9.580 -0.5753 -0.4164 -0.4004
  854MOL0     C15180   8.647   2.107   9.650 -0.9471  1.0946 -0.3363
  854MOL0     C15181   8.621   2.207   9.739 -0.0095 -0.5549 -0.4495
  854MOL0     C15182   8.525   2.196   9.842  0.3549 -0.5988  0.1166
  854MOL0     C15183   8.491   2.307   9.945  0.9053 -0.8401  0.4697
  854MOL0     C15184   8.428   2.084   9.821 -0.1327 -0.2397  0.1507
  854MOL0     C15185   8.307   2.059   9.913  0.0091 -0.2304  0.0534
  854MOL0     O15186   8.224   1.963   9.861 -0.2667 -0.0989 -0.8530
  854MOL0     C15187   8.114   1.911   9.927  0.2020 -0.1755  0.1019
  854MOL0     C15188   8.003   1.865   9.849  0.3228  0.8452 -0.2731
  854MOL0     C15189   7.891   1.807   9.910  0.2260 -0.6311 -0.2175
  854MOL0     C15190   7.878   1.805  10.048 -0.4125  1.3056 -1.2645
  854MOL0     O15191   7.758   1.766  10.115 -0.2864 -0.2418  0.1682
  854MOL0     C15192   7.670   1.688  10.040  0.1323  0.1902 -0.4980
  854MOL0     C15193   7.561   1.631  10.126  0.3594 -0.9739 -0.0203
  854MOL0     C15194   7.424   1.692  10.091 -0.2721  0.0972  0.4557
  854MOL0     C15195   7.299   1.629  10.164 -0.3393  0.3592 -0.3500
  854MOL0     C15196   7.165   1.704  10.140  0.5396 -0.4221 -0.4802
  854MOL0     C15197   7.106   1.681   9.998  0.0618  0.0039  0.3980
  854MOL0     C15198   6.976   1.755   9.956 -0.7129  0.9261 -0.1728
  854MOL0     C15199   6.864   1.707  10.055  0.6911 -0.7947 -0.3838
  854MOL0    Cl15200   6.701   1.742   9.980  0.1452 -0.1962  0.0783
  854MOL0     C15201   7.977   1.850  10.125 -0.9673  0.0296 -0.1480
  854MOL0     C15202   8.099   1.904  10.067 -0.1673 -0.2981 -0.1016
  854MOL0     O15203   8.279   2.124  10.012 -0.3894  0.2222 -0.5280
  854MOL0     C15204   8.458   1.993   9.719  0.2032 -0.6850  0.3012
  854MOL0     C15205   8.566   1.998   9.634 -1.0270 -0.2691  0.2095
  854MOL0     N15206   8.880   1.700   9.189  0.3372 -0.0240  0.0775
  854MOL0     N15207   8.972   1.615   9.170 -0.1909  0.5065  0.2275
  854MOL0     C15208  10.300   1.545   9.225  0.2173  0.1130  0.0180
  854MOL0     C15209  10.436   1.571   9.230 -0.2957 -0.3946  0.5137
  854MOL0     C15210  10.827   1.703   9.475  0.2524  0.5899 -0.6340
  854MOL0     C15211  10.911   1.663   9.369  0.2557  0.5765  0.3389
  854MOL0     C15212  11.049   1.671   9.375 -0.3662 -0.0085 -0.8763
  854MOL0     C15213  11.114   1.696   9.497 -0.4450  0.3454 -0.8238
  854MOL0     O15214  11.250   1.700   9.498  0.3046  0.1505 -0.3269
  854MOL0     C15215  11.313   1.617   9.595 -0.2660 -0.0053 -0.4105
  854MOL0     C15216  11.466   1.612   9.579 -0.2273 -0.5095 -0.7821
  854MOL0     C15217  11.527   1.746   9.540  0.1265 -0.4583  0.2814
  854MOL0     C15218  11.652   1.770   9.619 -0.1268  0.0205 -0.6775
  854MOL0     C15219  11.767   1.694   9.564  0.4569 -0.8964 -0.6886
  854MOL0     C15220  11.866   1.643   9.516 -1.2698 -0.2674 -1.1063
  854MOL0     C15221  11.037   1.727   9.606  0.6608  0.4575  0.3995
  854MOL0     C15222  10.891   1.731   9.604 -0.7774 -0.1850  1.3240
  854MOL0     H15223  10.494   1.513   9.557 -0.4819  0.4953  0.9401
  854MOL0     H15224  10.249   1.461   9.552  0.3288  0.6183  0.2626
  854MOL0     H15225  10.097   1.337   9.463  0.3468  1.8593  3.4018
  854MOL0     H15226   9.994   1.486   9.505 -1.5453 -0.5297  0.3713
  854MOL0     H15227   9.916   1.292   9.288  1.6582  0.1713  0.1743
  854MOL0     H15228   9.872   1.283   9.457  1.5965 -1.8394 -0.0302
  854MOL0     H15229   9.793   1.549   9.410 -4.2264 -0.6812  0.4303
  854MOL0     H15230   9.823   1.505   9.247  0.6746 -2.5300 -0.8303
  854MOL0     H15231   9.660   1.330   9.259  2.8369  1.2073 -1.6901
  854MOL0     H15232   9.633   1.369   9.442  3.5716 -0.2024  1.0819
  854MOL0     H15233   9.564   1.594   9.372 -2.3513  0.3964  0.6422
  854MOL0     H15234   9.551   1.545   9.204 -0.8095  2.8457  0.6385
  854MOL0     H15235   9.373   1.386   9.264 -1.7760  0.9510  0.7125
  854MOL0     H15236   9.394   1.425   9.433  0.3929 -0.3155 -0.4250
  854MOL0     H15237   9.314   1.650   9.389 -3.2306  0.4415 -1.6429
  854MOL0     H15238   9.320   1.616   9.207  2.6698  1.2074  0.0305
  854MOL0     H15239   9.122   1.495   9.406 -3.6815  0.2701 -1.2869
  854MOL0     H15240   9.145   1.444   9.237 -1.4335  0.7961 -1.4462
  854MOL0     H15241   9.087   1.791   9.425  0.7665  0.0012 -1.4524
  854MOL0     H15242   8.712   1.853   9.313  0.8238 -2.6708 -2.2212
  854MOL0     H15243   8.819   1.876   9.456  2.0988  1.6215  0.5025
  854MOL0     H15244   8.863   2.021   9.204 -1.2808  0.3023 -0.5675
  854MOL0     H15245   8.943   2.056   9.348  0.3010  2.1622 -2.3217
  854MOL0     H15246   8.641   2.085   9.356  0.2052  0.7464  1.9754
  854MOL0     H15247   8.732   2.211   9.260 -0.5250  1.1777  0.1115
  854MOL0     H15248   8.706   2.287   9.508 -0.2630 -1.1359  0.6325
  854MOL0     H15249   8.872   2.251   9.479  0.5266  0.2715  1.6071
  854MOL0     H15250   8.695   2.282   9.762  0.4782 -1.4559  1.0610
  854MOL0     H15251   8.398   2.355   9.914  2.3693  2.0214  0.1676
  854MOL0     H15252   8.493   2.261  10.044  0.4119  3.0626  2.4514
  854MOL0     H15253   8.574   2.379   9.946 -0.6375  1.0232 -0.0908
  854MOL0     H15254   8.014   1.865   9.741 -2.4921 -0.1713 -0.6580
  854MOL0     H15255   7.812   1.762   9.851 -0.5423 -2.5847  2.1033
  854MOL0     H15256   7.615   1.752   9.970  0.8425  3.6266  1.8473
  854MOL0     H15257   7.716   1.620   9.968 -1.0709 -0.6136 -0.5345
  854MOL0     H15258   7.557   1.523  10.106 -0.0282 -0.6170 -2.0835
  854MOL0     H15259   7.598   1.647  10.227  1.3520  3.3179 -0.8762
  854MOL0     H15260   7.422   1.692   9.981 -0.9793 -0.8424  0.4603
  854MOL0     H15261   7.428   1.795  10.126  1.7619 -0.0417  0.7723
  854MOL0     H15262   7.304   1.524  10.135 -0.3466  0.2516  0.0253
  854MOL0     H15263   7.330   1.634  10.269  0.0202  1.5854 -0.4976
  854MOL0     H15264   7.190   1.810  10.153 -1.4656  0.1954 -1.2773
  854MOL0     H15265   7.090   1.690  10.218  0.2883  1.2281 -0.3775
  854MOL0     H15266   7.182   1.697   9.921 -0.2971  2.8453  0.5275
  854MOL0     H15267   7.080   1.575   9.992 -1.9162  0.4120  1.1729
  854MOL0     H15268   6.949   1.722   9.855 -1.7633 -0.1618  0.4311
  854MOL0     H15269   6.990   1.863   9.960 -2.6344  1.2168 -0.0830
  854MOL0     H15270   6.864   1.764  10.148  1.3953  1.8093 -1.8806
  854MOL0     H15271   6.869   1.599  10.071  0.3525 -0.9485 -1.2698
  854MOL0     H15272   7.963   1.844  10.232 -0.8498  2.1340  0.0340
  854MOL0     H15273   8.180   1.938  10.129  0.2477 -0.3690 -0.5996
  854MOL0     H15274   8.382   1.918   9.704  0.8016 -1.4015  0.8128
  854MOL0     H15275   8.580   1.917   9.564 -0.1550  2.0680 -2.4936
  854MOL0     H15276  10.245   1.564   9.134 -0.8245  0.8098  0.7728
  854MOL0     H15277  10.487   1.605   9.140  0.1562  0.0349  0.9299
  854MOL0     H15278  10.872   1.623   9.276  1.2922 -1.2761  0.6448
  854MOL0     H15279  11.111   1.657   9.286  1.1178 -1.0074  0.2620
  854MOL0     H15280  11.280   1.655   9.692 -0.2446 -1.7807  0.3294
  854MOL0     H15281  11.275   1.515   9.590  1.2561 -0.8934  3.2621
  854MOL0     H15282  11.490   1.539   9.501 -1.3992  0.8071 -2.4439
  854MOL0     H15283  11.514   1.577   9.671  6.3518 -2.6680 -4.3753
  854MOL0     H15284  11.455   1.825   9.562  0.0880  0.1700 -1.8592
  854MOL0     H15285  11.549   1.749   9.433 -1.7888 -1.9261 -0.2146
  854MOL0     H15286  11.636   1.751   9.726 -1.9224  0.8424 -0.7794
  854MOL0     H15287  11.671   1.878   9.617 -1.8766  0.4616  1.7873
  854MOL0     H15288  11.936   1.591   9.453 -2.2218 -1.5796 -1.1233
  854MOL0     H15289  11.090   1.757   9.696  0.9223  0.3725  0.2734
  854MOL0     H15290  10.842   1.764   9.695 -1.7049  2.9925 -0.1788
  855MOL0     O15291   4.162   2.330   5.576  0.1356  0.3444 -0.5072
  855MOL0     C15292   4.190   2.410   5.487 -0.5263  0.0305  0.3095
  855MOL0     O15293   4.108   2.504   5.434 -0.0354  0.3661 -0.7275
  855MOL0     C15294   3.971   2.505   5.443 -0.2615 -0.0041  0.0284
  855MOL0     C15295   3.909   2.594   5.353  0.4653  0.8792 -0.7058
  855MOL0     C15296   3.775   2.606   5.359  1.3941 -0.2191  0.3000
  855MOL0     C15297   3.688   2.542   5.449 -1.2073  0.0730 -0.4036
  855MOL0     O15298   3.555   2.571   5.468 -0.2652  0.5179  0.5224
  855MOL0     C15299   3.487   2.650   5.367 -0.0477 -0.1007  0.3237
  855MOL0     C15300   3.349   2.666   5.411  0.0076 -0.2005  0.4345
  855MOL0     C15301   3.335   2.772   5.525 -0.1061  0.1793  0.4794
  855MOL0     C15302   3.194   2.770   5.583 -0.5862  0.1932 -0.0478
  855MOL0     C15303   3.084   2.812   5.486  0.3517  0.4076 -1.1897
  855MOL0     C15304   2.947   2.831   5.546 -0.2161 -0.0887 -1.0621
  855MOL0     C15305   2.940   2.968   5.625  0.2948 -0.1416  0.4855
  855MOL0     C15306   2.813   2.975   5.703 -0.4924  0.4416  0.0793
  855MOL0     N15307   2.687   2.940   5.631 -0.0476 -0.2430  0.0633
  855MOL0     C15308   2.618   3.032   5.554 -0.4697 -0.4869 -0.0049
  855MOL0     C15309   2.542   2.956   5.475  0.5528  0.4834 -0.1167
  855MOL0     C15310   2.448   3.020   5.370  0.5979 -0.2432 -0.5147
  855MOL0     C15311   2.311   3.062   5.438  0.7738 -0.2966 -0.6705
  855MOL0     C15312   2.214   2.948   5.493  0.6354  0.8900 -1.4444
  855MOL0     C15313   2.093   3.005   5.564 -0.0740  0.0970 -0.5348
  855MOL0     O15314   2.059   3.137   5.526 -0.3319 -0.2713  0.2765
  855MOL0     C15315   1.935   3.188   5.526 -0.4554 -0.1895 -0.6750
  855MOL0     C15316   1.921   3.321   5.490  1.1116 -0.9941 -0.3405
  855MOL0     C15317   1.796   3.386   5.499  0.4784 -0.8337 -0.3656
  855MOL0     C15318   1.778   3.537   5.468 -0.5491 -0.1988  0.4913
  855MOL0     C15319   1.684   3.305   5.520  0.3455  0.5439  0.3158
  855MOL0     C15320   1.550   3.363   5.532 -0.3034  0.8767  0.4855
  855MOL0     O15321   1.513   3.440   5.421 -0.2466 -0.2885  0.6534
  855MOL0     C15322   1.388   3.493   5.420  0.0958 -1.0010 -0.1215
  855MOL0     C15323   1.365   3.616   5.469 -1.2193 -0.2998  0.2437
  855MOL0     C15324   1.252   3.690   5.455 -0.0148 -0.1345 -0.3792
  855MOL0     C15325   1.147   3.628   5.385  0.2162  0.4785  0.2184
  855MOL0     O15326   1.031   3.702   5.387  0.4216 -0.7928 -0.2978
  855MOL0     C15327   0.906   3.642   5.355 -0.4858 -0.8739  0.2925
  855MOL0     C15328   0.805   3.757   5.329  0.6546  0.0840  0.1013
  855MOL0     C15329   0.676   3.702   5.278 -0.3580 -0.9966 -0.2711
  855MOL0     C15330   0.578   3.811   5.269 -0.2567  0.1672 -0.5193
  855MOL0     C15331   0.496   3.833   5.396  0.2578  0.1601 -0.4620
  855MOL0     C15332   0.395   3.944   5.381  0.1016  0.2791 -0.3330
  855MOL0     C15333   0.302   3.946   5.494  0.4653 -0.3342 -0.1839
  855MOL0     C15334   0.167   4.030   5.471 -0.2031  0.5758  0.2376
  855MOL0    Cl15335   0.101   4.055   5.634 -0.1812  0.1945  0.3060
  855MOL0     C15336   1.161   3.502   5.337  0.3798 -0.5939  0.1327
  855MOL0     C15337   1.283   3.437   5.344 -0.8444 -1.3736  0.4340
  855MOL0     O15338   1.476   3.338   5.629  0.3234 -0.0227  0.3477
  855MOL0     C15339   1.696   3.169   5.548 -0.0884 -0.8294 -0.3270
  855MOL0     C15340   1.821   3.114   5.550  0.1178 -0.0158  0.2331
  855MOL0     N15341   2.546   2.831   5.532  0.0260  0.0776 -0.0350
  855MOL0     N15342   2.633   2.819   5.620  0.5733  0.3460 -0.3530
  855MOL0     C15343   3.746   2.444   5.534  0.0608 -0.6274  0.0470
  855MOL0     C15344   3.886   2.431   5.538  0.6786  0.0511  0.6684
  855MOL0     C15345   4.331   2.418   5.449  0.2819  0.3843  0.3528
  855MOL0     C15346   4.418   2.328   5.503 -0.7242  1.1881  0.1751
  855MOL0     C15347   4.557   2.320   5.486  0.0776 -0.4969 -0.3800
  855MOL0     C15348   4.622   2.427   5.426 -0.0351 -0.0896 -0.3579
  855MOL0     O15349   4.758   2.440   5.420  0.6255 -0.5142  0.2168
  855MOL0     C15350   4.829   2.316   5.382 -0.2953  0.1991  0.2079
  855MOL0     C15351   4.971   2.348   5.342 -0.0773  0.6084  0.4687
  855MOL0     C15352   4.971   2.454   5.224  0.0264  0.2365 -0.1407
  855MOL0     C15353   5.109   2.515   5.187 -0.0955 -0.3425  0.5425
  855MOL0     C15354   5.134   2.640   5.266 -0.4165  0.2945 -0.6724
  855MOL0     C15355   5.160   2.742   5.327 -0.1661  0.3783 -0.4416
  855MOL0     C15356   4.535   2.523   5.375 -0.3461  0.5780  0.0322
  855MOL0     C15357   4.391   2.524   5.380 -1.0200  0.8137 -0.1946
  855MOL0     H15358   3.967   2.656   5.285  1.2805 -1.2290 -2.0216
  855MOL0     H15359   3.742   2.675   5.282  0.5996 -1.7540 -0.7878
  855MOL0     H15360   3.531   2.750   5.358 -1.7557  0.6988  0.3180
  855MOL0     H15361   3.508   2.601   5.272 -2.5073 -2.7391  0.9916
  855MOL0     H15362   3.283   2.693   5.327 -1.9238 -2.3814  1.1591
  855MOL0     H15363   3.308   2.571   5.445  2.9901 -0.8171  2.7008
  855MOL0     H15364   3.414   2.759   5.599 -0.4572  1.8863  1.2107
  855MOL0     H15365   3.359   2.874   5.492 -2.6097  0.3336 -1.1302
  855MOL0     H15366   3.164   2.670   5.616 -0.1979  0.6174  1.6819
  855MOL0     H15367   3.187   2.842   5.665  0.0370 -1.0004  1.1125
  855MOL0     H15368   3.105   2.910   5.442 -1.4631  1.6823  0.5745
  855MOL0     H15369   3.074   2.739   5.405 -2.1974 -0.1242 -0.4890
  855MOL0     H15370   2.875   2.826   5.463 -1.6163  4.0266 -0.3156
  855MOL0     H15371   2.924   2.752   5.618 -2.1891  2.0284  0.8052
  855MOL0     H15372   3.028   2.972   5.690  1.5696  0.2842 -1.2070
  855MOL0     H15373   2.960   3.049   5.555  1.8190  1.2530  2.4316
  855MOL0     H15374   2.815   3.079   5.735  0.4078  0.9913 -1.6284
  855MOL0     H15375   2.815   2.910   5.791 -0.1436  2.0794  1.3198
  855MOL0     H15376   2.630   3.139   5.553  2.7814 -0.7448 -0.7754
  855MOL0     H15377   2.491   3.098   5.307 -1.4234  1.7897  0.4541
  855MOL0     H15378   2.427   2.935   5.304 -1.3350  0.8065 -1.3449
  855MOL0     H15379   2.253   3.114   5.361  1.3980 -1.5626 -2.0402
  855MOL0     H15380   2.329   3.129   5.523 -1.9447 -0.2258 -0.0496
  855MOL0     H15381   2.266   2.871   5.551 -0.4435  1.6882  0.6689
  855MOL0     H15382   2.168   2.896   5.408 -0.8881  0.7640 -0.5882
  855MOL0     H15383   2.113   2.995   5.671 -3.1277 -2.4070 -0.0559
  855MOL0     H15384   2.005   2.942   5.547 -0.5610 -0.3638  2.9262
  855MOL0     H15385   2.009   3.378   5.464  0.9523 -0.3939  0.4070
  855MOL0     H15386   1.714   3.600   5.531  1.1263  0.6076  1.4557
  855MOL0     H15387   1.876   3.585   5.473 -0.4573 -0.4840  1.5639
  855MOL0     H15388   1.741   3.544   5.365  2.0522  3.0998 -0.4076
  855MOL0     H15389   1.446   3.670   5.518 -1.2918  1.0527 -1.0534
  855MOL0     H15390   1.249   3.795   5.483  2.7588  0.9315 -3.4352
  855MOL0     H15391   0.913   3.577   5.268 -2.2092 -1.7619  0.7690
  855MOL0     H15392   0.860   3.585   5.436  0.0353  0.2489  1.4093
  855MOL0     H15393   0.781   3.797   5.429 -1.7240 -0.7777 -0.0715
  855MOL0     H15394   0.848   3.830   5.259  1.5534  0.0242  0.5739
  855MOL0     H15395   0.639   3.629   5.350  2.2250 -2.8448 -0.6483
  855MOL0     H15396   0.701   3.663   5.179 -1.1716  0.1861 -0.9531
  855MOL0     H15397   0.620   3.902   5.226 -0.4635  0.5014 -0.0121
  855MOL0     H15398   0.505   3.780   5.193 -0.5366  1.1359 -0.6577
  855MOL0     H15399   0.567   3.868   5.471 -1.0968  1.4436  0.2949
  855MOL0     H15400   0.457   3.737   5.431  1.8979 -0.3863 -0.0740
  855MOL0     H15401   0.453   4.036   5.372  0.2784  0.2475  0.4151
  855MOL0     H15402   0.326   3.918   5.300  0.3250  0.2703 -0.5214
  855MOL0     H15403   0.352   3.978   5.585  1.1522 -1.7609 -0.0259
  855MOL0     H15404   0.269   3.844   5.518  1.2449 -0.2685  1.2609
  855MOL0     H15405   0.094   3.978   5.407  0.9579 -0.2332 -0.4814
  855MOL0     H15406   0.189   4.125   5.422  1.1885 -0.6241 -1.5988
  855MOL0     H15407   1.073   3.456   5.291 -1.1356 -0.0001  2.2701
  855MOL0     H15408   1.289   3.336   5.305  1.1065 -1.2779  0.3908
  855MOL0     H15409   1.612   3.105   5.575 -0.0116 -1.2682 -1.0984
  855MOL0     H15410   1.825   3.008   5.573 -0.3183 -0.1615 -0.3264
  855MOL0     H15411   3.680   2.397   5.607 -1.0598  0.7249 -0.0526
  855MOL0     H15412   3.930   2.369   5.616 -1.2003  0.2249  1.9303
  855MOL0     H15413   4.382   2.238   5.552 -0.9339  0.1945 -1.6785
  855MOL0     H15414   4.607   2.235   5.533 -0.0031  0.2771  1.1922
  855MOL0     H15415   4.819   2.242   5.462  0.1258  0.4248  0.4758
  855MOL0     H15416   4.786   2.278   5.289 -1.3538 -0.5081  0.9643
  855MOL0     H15417   5.027   2.259   5.309 -1.4788  0.1999 -0.9270
  855MOL0     H15418   5.033   2.384   5.425  2.2536  1.0119 -1.3150
  855MOL0     H15419   4.894   2.524   5.254 -0.4401 -0.9016  1.4536
  855MOL0     H15420   4.926   2.410   5.135 -1.7674  0.6311  0.5369
  855MOL0     H15421   5.101   2.545   5.083  0.6342 -1.3623  0.1716
  855MOL0     H15422   5.188   2.439   5.196 -0.7828 -1.3889 -1.7264
  855MOL0     H15423   5.188   2.835   5.373  2.7314 -2.0763  3.3930
  855MOL0     H15424   4.584   2.598   5.314 -0.3809  1.5434  1.1541
  855MOL0     H15425   4.340   2.611   5.341  1.2167  1.5074 -1.7483
  856MOL0     O15426   1.414   6.454   5.997  0.1306  0.5779 -0.3176
  856MOL0     C15427   1.471   6.393   5.907 -0.3983  0.1966  0.1808
  856MOL0     O15428   1.415   6.370   5.778  0.0499  0.0098  0.2524
  856MOL0     C15429   1.276   6.360   5.774  0.1127 -0.4520 -0.4810
  856MOL0     C15430   1.189   6.473   5.793  0.0683 -0.0638  0.3015
  856MOL0     C15431   1.054   6.467   5.787  0.2251 -0.2757 -0.0670
  856MOL0     C15432   0.999   6.333   5.766 -0.6583  0.6902  0.3957
  856MOL0     O15433   0.863   6.298   5.762  0.2248 -0.0313  0.5156
  856MOL0     C15434   0.768   6.372   5.841  0.4134  0.5659 -0.5898
  856MOL0     C15435   0.627   6.314   5.819  0.0864 -1.4110 -1.2279
  856MOL0     C15436   0.567   6.326   5.675 -0.0882  0.6059  0.6002
  856MOL0     C15437   0.422   6.269   5.669 -0.8692 -0.4325 -0.1849
  856MOL0     C15438   0.329   6.354   5.754  0.2324 -0.2368 -1.0842
  856MOL0     C15439   0.190   6.378   5.703  0.0101 -0.4142 -0.4214
  856MOL0     C15440   0.097   6.441   5.802 -0.5991  0.2949  0.2346
  856MOL0     C15441   0.047   6.355   5.914 -0.8976 -0.8572 -0.3733
  856MOL0     N15442  -0.062   6.423   5.984 -0.4332  0.3194 -0.5682
  856MOL0     C15443  -0.193   6.420   5.939 -0.7565 -0.4332 -0.8077
  856MOL0     C15444  -0.251   6.523   6.005 -0.2314  0.9064  0.4990
  856MOL0     C15445  -0.389   6.576   5.977 -0.3028  0.8759 -0.3645
  856MOL0     C15446  -0.405   6.652   5.839  0.9036  0.8715 -0.3933
  856MOL0     C15447  -0.558   6.674   5.808 -1.2069  0.8239 -0.1141
  856MOL0     C15448  -0.618   6.769   5.914 -0.5473  0.5043  0.6702
  856MOL0     O15449  -0.747   6.802   5.854 -0.2930  0.3522  0.2174
  856MOL0     C15450  -0.824   6.886   5.927  0.0548  0.8939 -0.7337
  856MOL0     C15451  -0.785   6.951   6.048 -0.1448  0.1016  0.5181
  856MOL0     C15452  -0.878   7.033   6.110  0.0886 -0.2410  1.1306
  856MOL0     C15453  -0.845   7.114   6.235 -0.2098 -0.1393  0.3206
  856MOL0     C15454  -1.011   7.043   6.056  1.1708 -0.0705 -0.0689
  856MOL0     C15455  -1.119   7.124   6.120 -0.0919 -0.0071 -0.0808
  856MOL0     O15456  -1.212   7.166   6.029  0.7845  0.1176 -0.2222
  856MOL0     C15457  -1.319   7.248   6.066 -0.5650 -0.2458  0.8457
  856MOL0     C15458  -1.444   7.227   5.999  0.7520 -0.3220  0.2007
  856MOL0     C15459  -1.553   7.315   6.018  0.6851 -0.0824 -1.1263
  856MOL0     C15460  -1.531   7.418   6.113 -0.1719  0.0853 -0.7579
  856MOL0     O15461  -1.623   7.519   6.137  0.0477  0.0412 -0.1035
  856MOL0     C15462  -1.756   7.508   6.068  0.0199  0.0804 -0.5045
  856MOL0     C15463  -1.847   7.604   6.137 -0.7198 -0.6260  0.7846
  856MOL0     C15464  -1.991   7.602   6.085 -0.2228  0.1295  0.6010
  856MOL0     C15465  -2.045   7.754   6.078  0.7514 -0.5070  0.2269
  856MOL0     C15466  -2.198   7.761   6.051  0.2421 -0.1221 -1.4854
  856MOL0     C15467  -2.249   7.704   5.916  0.3346  0.5044  0.2592
  856MOL0     C15468  -2.241   7.812   5.802 -0.1572 -0.0605 -0.1464
  856MOL0     C15469  -2.287   7.740   5.672 -0.2338 -0.7939 -0.0898
  856MOL0    Cl15470  -2.458   7.673   5.690  0.0419 -0.2479  0.0970
  856MOL0     C15471  -1.412   7.435   6.185 -0.2300  0.6291  0.2259
  856MOL0     C15472  -1.303   7.352   6.157  1.1239  0.0452 -0.1567
  856MOL0     O15473  -1.124   7.138   6.240  0.0875  0.2067  0.0222
  856MOL0     C15474  -1.044   6.979   5.933  1.0766 -0.6954  1.0852
  856MOL0     C15475  -0.953   6.898   5.879 -0.2118  0.4349  0.1730
  856MOL0     N15476  -0.145   6.591   6.076  0.1938  0.3346 -0.5167
  856MOL0     N15477  -0.043   6.510   6.083 -0.1390 -0.0631  0.2930
  856MOL0     C15478   1.082   6.224   5.754 -0.4819  0.1722 -0.6835
  856MOL0     C15479   1.217   6.232   5.759 -0.8142 -0.1538  0.1716
  856MOL0     C15480   1.614   6.366   5.916 -0.5459 -0.5539 -0.1436
  856MOL0     C15481   1.681   6.383   6.049  0.1708 -0.0674 -0.0970
  856MOL0     C15482   1.824   6.374   6.048 -0.6012  0.8000 -1.0591
  856MOL0     C15483   1.901   6.359   5.929 -0.0569 -0.4697  0.3810
  856MOL0     O15484   2.041   6.370   5.942  0.1797  0.0724 -0.7095
  856MOL0     C15485   2.118   6.380   5.815  0.0590 -0.2166  1.2484
  856MOL0     C15486   2.266   6.368   5.828  0.6778 -0.4184  0.0067
  856MOL0     C15487   2.338   6.468   5.918 -0.2385 -0.6230 -0.4415
  856MOL0     C15488   2.316   6.619   5.869  0.5188  0.0516  0.6865
  856MOL0     C15489   2.386   6.720   5.955  0.3279  0.1073 -0.4686
  856MOL0     C15490   2.430   6.815   6.014 -0.1298  0.1257  0.2180
  856MOL0     C15491   1.830   6.331   5.804 -0.4913  0.2556 -0.8729
  856MOL0     C15492   1.691   6.332   5.804  0.4166 -0.3172 -0.0038
  856MOL0     H15493   1.230   6.570   5.817 -2.6736  1.9100 -2.3203
  856MOL0     H15494   1.000   6.561   5.784 -0.5859 -0.7410 -3.0501
  856MOL0     H15495   0.795   6.335   5.941 -2.7600 -1.9575 -0.4831
  856MOL0     H15496   0.763   6.478   5.816  2.6152  1.2178  1.3370
  856MOL0     H15497   0.621   6.212   5.860 -0.8994 -0.9547 -0.1863
  856MOL0     H15498   0.569   6.375   5.889  2.3670  0.3875 -0.7844
  856MOL0     H15499   0.590   6.427   5.641 -0.2656  0.8104  1.0769
  856MOL0     H15500   0.620   6.254   5.612  0.0407  0.1018  1.2650
  856MOL0     H15501   0.381   6.265   5.568 -1.8898 -0.0199  0.1991
  856MOL0     H15502   0.412   6.165   5.704 -1.0201 -0.1197  0.7359
  856MOL0     H15503   0.326   6.308   5.853 -0.4241 -2.9564 -2.2631
  856MOL0     H15504   0.369   6.455   5.770 -0.1405 -0.5864  2.9335
  856MOL0     H15505   0.194   6.449   5.620 -2.2110 -0.6168 -0.7716
  856MOL0     H15506   0.144   6.288   5.661  0.2010 -1.1624  0.9106
  856MOL0     H15507   0.137   6.529   5.854 -3.8377  2.7794 -1.0694
  856MOL0     H15508   0.004   6.468   5.750 -1.5430 -1.7014  0.7857
  856MOL0     H15509   0.135   6.334   5.976 -1.0892 -3.8347 -0.9583
  856MOL0     H15510   0.014   6.260   5.871 -0.0818 -0.4285 -2.0205
  856MOL0     H15511  -0.231   6.344   5.870  0.1788  0.1043 -1.9301
  856MOL0     H15512  -0.454   6.488   5.987  0.0581  0.6687  0.2255
  856MOL0     H15513  -0.409   6.650   6.055 -1.2813  0.5185 -0.2579
  856MOL0     H15514  -0.359   6.591   5.761  1.8738  1.8213 -0.5874
  856MOL0     H15515  -0.347   6.743   5.853 -0.7325  1.4782  4.2425
  856MOL0     H15516  -0.620   6.584   5.818 -1.1265  0.7085 -0.6594
  856MOL0     H15517  -0.571   6.710   5.705 -2.6857  0.3613 -0.1191
  856MOL0     H15518  -0.550   6.854   5.914  0.5883 -0.3806  1.0985
  856MOL0     H15519  -0.618   6.715   6.009 -4.1201  0.1663  0.6215
  856MOL0     H15520  -0.696   6.931   6.107 -1.0039 -3.3011  0.8797
  856MOL0     H15521  -0.742   7.112   6.272  0.0714  1.4231 -0.3081
  856MOL0     H15522  -0.862   7.222   6.228  1.9354  0.3210  1.2543
  856MOL0     H15523  -0.900   7.069   6.318 -0.7283 -1.2133 -0.5805
  856MOL0     H15524  -1.456   7.144   5.931 -0.4399 -0.6962  0.8330
  856MOL0     H15525  -1.648   7.302   5.967  0.2570  0.2014 -0.4201
  856MOL0     H15526  -1.753   7.523   5.960 -0.0665 -1.2765 -0.7122
  856MOL0     H15527  -1.794   7.406   6.076  1.1228 -0.8156 -4.5167
  856MOL0     H15528  -1.838   7.580   6.243 -1.3941  1.8544  1.4633
  856MOL0     H15529  -1.802   7.703   6.124  2.1252 -1.9613 -0.5873
  856MOL0     H15530  -2.057   7.544   6.151 -0.9319  1.0918  0.7626
  856MOL0     H15531  -1.987   7.551   5.989  1.3579  1.4048 -0.0660
  856MOL0     H15532  -2.018   7.819   6.161 -0.4835 -1.0443  1.0766
  856MOL0     H15533  -2.000   7.798   5.988 -0.6226 -1.4277 -0.9623
  856MOL0     H15534  -2.228   7.864   6.071 -0.6950 -0.9226  1.8345
  856MOL0     H15535  -2.250   7.706   6.129  1.8506 -0.5385 -0.6620
  856MOL0     H15536  -2.193   7.613   5.894 -0.3567 -0.3545  1.8672
  856MOL0     H15537  -2.355   7.684   5.931  0.4759 -0.2281  0.2893
  856MOL0     H15538  -2.143   7.861   5.797 -1.9672  4.0353  0.1493
  856MOL0     H15539  -2.308   7.895   5.826  1.0041  1.1133 -0.8041
  856MOL0     H15540  -2.221   7.654   5.654  1.3207  0.5528 -1.1504
  856MOL0     H15541  -2.279   7.810   5.589  2.9725 -2.4608 -1.3537
  856MOL0     H15542  -1.426   7.504   6.268 -3.2365 -1.0906  1.3526
  856MOL0     H15543  -1.220   7.356   6.227 -0.8342 -0.4954  2.3741
  856MOL0     H15544  -1.146   6.981   5.894  1.5247  0.8624 -0.1147
  856MOL0     H15545  -0.968   6.848   5.784  1.5777 -0.2068  0.2006
  856MOL0     H15546   1.030   6.129   5.759  2.4095 -1.4990  2.9018
  856MOL0     H15547   1.273   6.140   5.741  0.5970  0.8551 -0.8540
  856MOL0     H15548   1.631   6.413   6.141  0.4344 -0.0739  0.0485
  856MOL0     H15549   1.868   6.390   6.146 -0.8101  0.7545 -0.9561
  856MOL0     H15550   2.092   6.309   5.736  0.5306  0.3915  0.5299
  856MOL0     H15551   2.093   6.482   5.783  0.3226 -0.5777 -0.2065
  856MOL0     H15552   2.308   6.384   5.728  1.4896  1.4808  0.6139
  856MOL0     H15553   2.296   6.267   5.857  1.6978  0.0816  0.7395
  856MOL0     H15554   2.444   6.442   5.907  0.7332  2.7769 -0.2536
  856MOL0     H15555   2.296   6.466   6.019  1.1322  0.1919  0.1632
  856MOL0     H15556   2.208   6.635   5.884  0.1386 -3.3148  2.5018
  856MOL0     H15557   2.340   6.639   5.764  1.4230  1.7975  1.1783
  856MOL0     H15558   2.476   6.895   6.068  0.8162  2.0887 -3.1998
  856MOL0     H15559   1.885   6.318   5.712 -0.9879  0.2605 -1.1738
  856MOL0     H15560   1.649   6.307   5.707  0.1989 -2.8077  0.6666
  857MOL0     O15561   1.163   4.980   5.557 -0.3319 -0.4461 -0.7555
  857MOL0     C15562   1.237   4.947   5.462 -0.1302 -0.2710 -0.7443
  857MOL0     O15563   1.183   4.886   5.351  0.1528  0.3305  1.3926
  857MOL0     C15564   1.049   4.854   5.356  0.9342 -0.1246  0.7855
  857MOL0     C15565   0.989   4.760   5.445 -0.2141  0.1919 -0.4979
  857MOL0     C15566   0.850   4.727   5.432 -0.2740  0.5923 -0.0331
  857MOL0     C15567   0.771   4.801   5.340 -0.9840 -0.2269  0.1336
  857MOL0     O15568   0.635   4.766   5.331  0.1170  0.3420 -0.7530
  857MOL0     C15569   0.542   4.875   5.315  0.3892  0.0739  0.3872
  857MOL0     C15570   0.403   4.832   5.356 -0.1372 -0.6074  0.7988
  857MOL0     C15571   0.396   4.802   5.501 -0.0262  0.0739 -0.1842
  857MOL0     C15572   0.281   4.705   5.541  0.0343  0.0304  0.1099
  857MOL0     C15573   0.143   4.768   5.511  0.1812  0.8736 -0.1817
  857MOL0     C15574   0.030   4.704   5.599  0.0264  0.2191  0.3173
  857MOL0     C15575  -0.108   4.757   5.558  0.4549 -0.5845 -0.2296
  857MOL0     C15576  -0.220   4.675   5.605  0.3468  0.5959 -0.5563
  857MOL0     N15577  -0.346   4.722   5.562 -0.2495  0.2043  0.0097
  857MOL0     C15578  -0.403   4.710   5.442  0.0419  0.6041  0.4374
  857MOL0     C15579  -0.530   4.762   5.451  0.2136 -0.6275 -0.5867
  857MOL0     C15580  -0.636   4.748   5.347 -0.5246  0.1603 -0.5999
  857MOL0     C15581  -0.761   4.676   5.414  0.5971 -0.4475  1.6261
  857MOL0     C15582  -0.865   4.648   5.301 -0.5139  0.1117 -0.1765
  857MOL0     C15583  -0.836   4.531   5.202  0.4311  0.3148  0.5577
  857MOL0     O15584  -0.871   4.405   5.263  0.2465  0.4584  0.3458
  857MOL0     C15585  -1.006   4.377   5.275 -0.1026 -0.2492 -0.9764
  857MOL0     C15586  -1.107   4.408   5.183  0.2423  0.4945  0.9482
  857MOL0     C15587  -1.243   4.363   5.201 -0.1386 -0.7884 -0.5500
  857MOL0     C15588  -1.334   4.409   5.083  0.1668 -0.2525  1.2158
  857MOL0     C15589  -1.277   4.292   5.318 -0.1239  0.7641  0.0761
  857MOL0     C15590  -1.412   4.235   5.345 -1.0391  0.5143 -0.1147
  857MOL0     O15591  -1.492   4.212   5.238 -0.3648 -0.5676  0.4918
  857MOL0     C15592  -1.602   4.129   5.235 -0.2899 -0.4504 -0.2064
  857MOL0     C15593  -1.729   4.193   5.247 -1.2887  0.1474  0.0622
  857MOL0     C15594  -1.844   4.122   5.216 -0.1107 -0.4669  0.4354
  857MOL0     C15595  -1.849   3.990   5.178  0.4161  0.0540 -0.4224
  857MOL0     O15596  -1.971   3.921   5.149 -0.4303  0.4957 -0.0996
  857MOL0     C15597  -2.086   3.980   5.098 -0.5004  0.1958 -0.3850
  857MOL0     C15598  -2.162   3.887   5.005  0.0306 -0.9390 -0.6409
  857MOL0     C15599  -2.299   3.955   4.956 -0.5605  0.3952  0.5263
  857MOL0     C15600  -2.356   3.856   4.864 -0.0722  0.4624 -0.7331
  857MOL0     C15601  -2.500   3.893   4.851 -0.7673 -0.4309  0.3961
  857MOL0     C15602  -2.565   3.804   4.744  1.0105 -0.0317 -0.3498
  857MOL0     C15603  -2.704   3.849   4.733  0.6388  0.5650 -0.9973
  857MOL0     C15604  -2.795   3.755   4.652  0.5007 -0.1628 -0.0304
  857MOL0    Cl15605  -2.722   3.733   4.490 -0.4656  0.2553  0.3475
  857MOL0     C15606  -1.727   3.922   5.196  0.5256 -0.0099  0.6093
  857MOL0     C15607  -1.608   3.996   5.205  0.3998  0.4182 -0.9589
  857MOL0     O15608  -1.450   4.219   5.456 -0.6648  0.3718 -0.7538
  857MOL0     C15609  -1.170   4.264   5.408 -0.1776 -0.7670  0.6381
  857MOL0     C15610  -1.043   4.311   5.392  0.0572 -0.6389  0.3332
  857MOL0     N15611  -0.546   4.817   5.578 -0.0459  0.3961 -0.9236
  857MOL0     N15612  -0.430   4.799   5.637  0.2669 -0.2363  0.3614
  857MOL0     C15613   0.832   4.892   5.255 -0.0277 -0.4336 -1.2269
  857MOL0     C15614   0.967   4.921   5.264 -0.3188 -0.4775 -1.5525
  857MOL0     C15615   1.373   5.002   5.461 -0.1668 -0.2268  0.5381
  857MOL0     C15616   1.463   4.922   5.388  0.7156  0.6211  0.3618
  857MOL0     C15617   1.600   4.977   5.376  0.9569  0.9535 -0.0859
  857MOL0     C15618   1.631   5.087   5.453  0.0116 -0.5788 -0.8243
  857MOL0     O15619   1.759   5.134   5.457 -0.1107  0.5290  0.0101
  857MOL0     C15620   1.803   5.223   5.359  0.9846 -0.1027 -0.2947
  857MOL0     C15621   1.955   5.211   5.342 -0.6650 -0.0687 -0.1341
  857MOL0     C15622   2.000   5.070   5.307  1.0390 -0.4463  0.0018
  857MOL0     C15623   2.124   5.061   5.217 -0.4979 -0.1103 -0.5763
  857MOL0     C15624   2.247   5.126   5.272  0.2978  0.5519  0.6197
  857MOL0     C15625   2.340   5.181   5.314  0.1833 -0.0294  0.3685
  857MOL0     C15626   1.540   5.148   5.542 -0.3314 -0.2113  0.8059
  857MOL0     C15627   1.406   5.119   5.531  0.8363 -0.0253  1.0262
  857MOL0     H15628   1.042   4.697   5.515 -0.3125  0.6174 -0.0403
  857MOL0     H15629   0.815   4.653   5.503 -1.3504  0.5897 -0.5402
  857MOL0     H15630   0.581   4.962   5.369 -0.0801  0.2452  0.4621
  857MOL0     H15631   0.538   4.915   5.213  2.3035  0.9109  0.6006
  857MOL0     H15632   0.332   4.913   5.341  1.6459  0.3192 -4.3498
  857MOL0     H15633   0.371   4.749   5.292 -0.0208 -0.0450 -0.0029
  857MOL0     H15634   0.488   4.752   5.532  2.4277  2.5181 -2.9119
  857MOL0     H15635   0.385   4.902   5.544 -0.2447  0.6441 -1.4959
  857MOL0     H15636   0.305   4.613   5.488 -0.4767 -0.6975  1.0951
  857MOL0     H15637   0.297   4.684   5.647  0.1186 -2.5043 -0.3540
  857MOL0     H15638   0.147   4.878   5.518 -0.4312  0.9251 -0.6243
  857MOL0     H15639   0.112   4.748   5.408  0.9689  2.3399 -0.7464
  857MOL0     H15640   0.028   4.595   5.593  1.5073  0.1531  0.5947
  857MOL0     H15641   0.046   4.724   5.705 -4.4515  0.1764  1.1836
  857MOL0     H15642  -0.119   4.861   5.590  0.6151  0.6782 -3.8780
  857MOL0     H15643  -0.118   4.752   5.450 -3.6956 -2.1948  0.0642
  857MOL0     H15644  -0.227   4.682   5.714 -2.1164 -0.2724 -0.5843
  857MOL0     H15645  -0.213   4.573   5.566  0.8103  0.8096 -1.0425
  857MOL0     H15646  -0.347   4.663   5.362 -0.5180  1.5657 -0.5471
  857MOL0     H15647  -0.662   4.847   5.310  0.1254  2.1311  3.6712
  857MOL0     H15648  -0.593   4.686   5.268 -1.8599 -0.5843 -0.7850
  857MOL0     H15649  -0.812   4.735   5.491 -1.4161 -0.9667  0.7522
  857MOL0     H15650  -0.740   4.578   5.457 -1.7247 -1.5438  0.4345
  857MOL0     H15651  -0.857   4.741   5.244  2.7949 -0.2291 -0.4964
  857MOL0     H15652  -0.962   4.632   5.347  0.2712  0.0495  1.5578
  857MOL0     H15653  -0.730   4.525   5.174 -0.2778  0.1713 -2.4132
  857MOL0     H15654  -0.883   4.557   5.106  2.4216 -0.6844 -0.7611
  857MOL0     H15655  -1.090   4.468   5.094 -1.9586  1.3539  1.0315
  857MOL0     H15656  -1.364   4.321   5.026  2.8377  0.1086 -0.9093
  857MOL0     H15657  -1.418   4.474   5.111 -1.4583 -1.4202 -0.6875
  857MOL0     H15658  -1.280   4.476   5.015  0.0299 -0.2455  1.1135
  857MOL0     H15659  -1.710   4.300   5.258  1.3293 -0.1297 -1.0015
  857MOL0     H15660  -1.934   4.182   5.219  0.0440 -0.2186  0.1860
  857MOL0     H15661  -2.142   4.007   5.187  0.1120 -1.8069  0.6622
  857MOL0     H15662  -2.062   4.069   5.038  0.2746  0.1658 -0.1316
  857MOL0     H15663  -2.096   3.868   4.920 -0.8246  0.5676 -1.6747
  857MOL0     H15664  -2.165   3.785   5.045  2.6552 -0.7496  0.1934
  857MOL0     H15665  -2.281   4.046   4.898 -0.3631 -1.0094 -1.7201
  857MOL0     H15666  -2.359   3.976   5.045 -3.2354  2.2850 -1.5438
  857MOL0     H15667  -2.310   3.855   4.764 -2.8511 -0.2587 -2.1047
  857MOL0     H15668  -2.354   3.754   4.904 -3.5026  0.4385 -0.3647
  857MOL0     H15669  -2.498   3.998   4.820  1.2637 -0.6649 -0.4579
  857MOL0     H15670  -2.545   3.875   4.949  0.3616  0.0329  1.0139
  857MOL0     H15671  -2.507   3.817   4.652  1.7209 -1.2622 -0.1085
  857MOL0     H15672  -2.549   3.698   4.765  2.3116  0.3496  0.7064
  857MOL0     H15673  -2.709   3.945   4.679  2.3268  0.4448 -1.4126
  857MOL0     H15674  -2.757   3.859   4.828 -1.3082 -2.1064 -1.6770
  857MOL0     H15675  -2.898   3.792   4.646  0.2161 -1.1340 -1.7029
  857MOL0     H15676  -2.796   3.660   4.707 -1.8632  0.8636  1.9027
  857MOL0     H15677  -1.724   3.814   5.183 -2.6775 -0.3772  2.0177
  857MOL0     H15678  -1.522   3.929   5.200 -0.7924 -1.0999 -1.6482
  857MOL0     H15679  -1.179   4.226   5.509  4.1508  2.6474  2.6518
  857MOL0     H15680  -0.962   4.286   5.461  2.0557  1.5524 -1.0769
  857MOL0     H15681   0.764   4.952   5.195 -2.2717  1.9225  3.0998
  857MOL0     H15682   1.003   5.006   5.207 -0.8284  0.8747  0.0482
  857MOL0     H15683   1.420   4.829   5.352 -1.4376  1.4217  0.7179
  857MOL0     H15684   1.675   4.926   5.317 -0.7521 -0.5397 -1.0719
  857MOL0     H15685   1.757   5.216   5.260  0.0718  0.9934  0.0358
  857MOL0     H15686   1.787   5.323   5.399  1.0158 -0.1785 -0.0938
  857MOL0     H15687   2.006   5.247   5.432 -0.5925  0.6308 -0.4472
  857MOL0     H15688   1.982   5.281   5.262  0.9311  0.8298  1.1306
  857MOL0     H15689   1.914   5.021   5.261  0.2282 -2.0786  3.0300
  857MOL0     H15690   2.004   5.019   5.403 -2.8085 -1.3180 -0.1415
  857MOL0     H15691   2.111   5.103   5.117 -2.0378 -0.7422 -0.6710
  857MOL0     H15692   2.148   4.955   5.209  5.0005  0.8293 -0.4162
  857MOL0     H15693   2.413   5.256   5.337 -1.2360  1.0986  1.3342
  857MOL0     H15694   1.580   5.230   5.601  0.8437 -0.1802  0.0048
  857MOL0     H15695   1.334   5.172   5.593  0.4922  0.7942 -0.0605
  858MOL0     O15696   2.284  10.631   3.305  0.2098  0.8249  0.1234
  858MOL0     C15697   2.309  10.530   3.374  0.2401 -0.6960  0.3392
  858MOL0     O15698   2.219  10.455   3.452  0.3664 -0.0275  0.0099
  858MOL0     C15699   2.090  10.486   3.422  0.2349 -0.6790  0.0176
  858MOL0     C15700   2.022  10.434   3.314 -0.0268  0.9692  0.4909
  858MOL0     C15701   1.887  10.450   3.297 -0.0820  0.0724 -1.1930
  858MOL0     C15702   1.822  10.530   3.393  1.1332 -1.0532 -0.4441
  858MOL0     O15703   1.684  10.556   3.374  0.5509 -0.1973 -0.1082
  858MOL0     C15704   1.612  10.601   3.486  0.6704 -0.1981 -0.0748
  858MOL0     C15705   1.459  10.573   3.469 -0.0362  0.6558  0.2406
  858MOL0     C15706   1.419  10.425   3.452  0.8692  0.6953  1.1340
  858MOL0     C15707   1.282  10.409   3.382 -0.1837  0.5841 -0.1621
  858MOL0     C15708   1.161  10.471   3.458  0.1179  1.0055 -0.2476
  858MOL0     C15709   1.033  10.470   3.366  0.9197  0.3910 -0.4595
  858MOL0     C15710   0.940  10.576   3.418  0.0813 -0.5611  0.0423
  858MOL0     C15711   0.812  10.569   3.339  0.6423 -0.0171  0.5504
  858MOL0     N15712   0.710  10.662   3.388 -0.2104  0.6192  0.5398
  858MOL0     C15713   0.697  10.791   3.359 -0.3021 -0.7016 -0.0648
  858MOL0     C15714   0.607  10.846   3.455 -0.3155  0.6522  0.6685
  858MOL0     C15715   0.550  10.982   3.480 -0.7486 -0.5858 -0.3617
  858MOL0     C15716   0.502  11.051   3.351 -0.1612  0.0382  0.2840
  858MOL0     C15717   0.400  10.957   3.285  0.8747 -0.1479  0.0217
  858MOL0     C15718   0.318  11.036   3.196  0.2815 -0.6590  0.9898
  858MOL0     O15719   0.209  11.100   3.268  0.0282 -0.2544 -0.0356
  858MOL0     C15720   0.141  11.206   3.209  0.7208 -0.8256 -0.1324
  858MOL0     C15721   0.029  11.255   3.272 -0.3435  0.1424 -0.2626
  858MOL0     C15722  -0.045  11.365   3.227 -0.4076 -1.7057  0.3135
  858MOL0     C15723  -0.148  11.419   3.325  0.9491  0.4951  0.1307
  858MOL0     C15724  -0.009  11.424   3.096 -0.7425 -0.4611 -0.4058
  858MOL0     C15725  -0.077  11.539   3.033  0.0011 -0.2553 -0.1517
  858MOL0     O15726  -0.035  11.590   2.914  0.8423 -0.1004 -0.3474
  858MOL0     C15727  -0.133  11.656   2.855  0.2706  0.1314  0.1637
  858MOL0     C15728  -0.205  11.601   2.750  0.1584  0.8005 -0.0912
  858MOL0     C15729  -0.302  11.667   2.671 -1.0042 -0.0703  0.4036
  858MOL0     C15730  -0.333  11.798   2.705 -0.1332 -0.2465 -0.6750
  858MOL0     O15731  -0.416  11.886   2.633 -0.9962  0.4211 -0.3920
  858MOL0     C15732  -0.498  11.824   2.533 -0.4316  0.2657 -0.0183
  858MOL0     C15733  -0.616  11.918   2.497  0.0504  0.3128  0.5118
  858MOL0     C15734  -0.730  11.858   2.420  0.5924 -0.2452 -0.7428
  858MOL0     C15735  -0.827  11.778   2.503  0.4620 -0.3788 -0.3692
  858MOL0     C15736  -0.964  11.763   2.444 -0.3579 -0.0968 -0.0677
  858MOL0     C15737  -0.949  11.707   2.294 -0.3403  0.5654 -0.0288
  858MOL0     C15738  -1.083  11.654   2.250  0.8751 -0.1344  0.5274
  858MOL0     C15739  -1.163  11.755   2.165 -0.2644 -0.5411  0.1394
  858MOL0    Cl15740  -1.315  11.691   2.118  0.2526 -0.4459  0.2391
  858MOL0     C15741  -0.250  11.859   2.805  0.7838  0.0980  0.3659
  858MOL0     C15742  -0.155  11.788   2.874 -0.5695 -1.2519 -0.3233
  858MOL0     O15743  -0.178  11.578   3.093 -0.5791  0.1070 -0.1005
  858MOL0     C15744   0.101  11.363   3.027 -0.4779 -0.3696 -0.6717
  858MOL0     C15745   0.172  11.264   3.088  0.0035  0.0433 -0.6143
  858MOL0     N15746   0.560  10.740   3.525  0.0622 -0.6379 -0.7730
  858MOL0     N15747   0.627  10.632   3.486  0.4371 -0.7785  0.1449
  858MOL0     C15748   1.895  10.590   3.501 -0.0964 -0.2774  0.1192
  858MOL0     C15749   2.027  10.566   3.516  0.3351 -0.2100 -0.0121
  858MOL0     C15750   2.453  10.485   3.377 -0.1350  0.6091  0.3205
  858MOL0     C15751   2.557  10.565   3.334 -0.3528  0.3889 -0.0089
  858MOL0     C15752   2.692  10.521   3.348  0.0354  0.4112 -0.4748
  858MOL0     C15753   2.718  10.396   3.400 -0.3499  0.0866  0.5449
  858MOL0     O15754   2.847  10.362   3.383  0.1969 -0.4181 -0.1632
  858MOL0     C15755   2.903  10.265   3.483  0.3304  0.8359 -0.4769
  858MOL0     C15756   2.933  10.343   3.606 -0.1241 -0.6286 -0.2259
  858MOL0     C15757   3.079  10.390   3.617 -0.1393  0.4089  0.2775
  858MOL0     C15758   3.136  10.445   3.748  0.8059 -0.2869 -0.4837
  858MOL0     C15759   3.060  10.580   3.776 -0.6329  0.7450 -0.0754
  858MOL0     C15760   3.004  10.688   3.792  0.4143 -0.5116  1.1281
  858MOL0     C15761   2.610  10.312   3.429  0.6095  0.1469 -0.4829
  858MOL0     C15762   2.481  10.356   3.420  0.3919 -0.0199  0.1478
  858MOL0     H15763   2.069  10.368   3.241 -1.0180 -0.5319  1.1655
  858MOL0     H15764   1.825  10.404   3.221 -0.8342 -1.1907  0.1137
  858MOL0     H15765   1.652  10.551   3.574  1.6704  1.0587  0.1944
  858MOL0     H15766   1.623  10.709   3.492 -1.2502  0.1776 -1.8166
  858MOL0     H15767   1.397  10.594   3.556 -0.7308 -3.3205  0.9189
  858MOL0     H15768   1.414  10.631   3.388 -0.1178  1.0877  0.5921
  858MOL0     H15769   1.496  10.367   3.401 -0.9255 -0.7465 -0.1201
  858MOL0     H15770   1.404  10.372   3.546  2.8973  0.1998  1.2197
  858MOL0     H15771   1.291  10.451   3.281  1.0110 -0.1473 -0.3731
  858MOL0     H15772   1.257  10.302   3.379 -1.8646  0.8001  2.5316
  858MOL0     H15773   1.139  10.419   3.552 -0.0041  1.8561  0.2054
  858MOL0     H15774   1.198  10.568   3.492  1.6260  0.6213 -0.7360
  858MOL0     H15775   1.056  10.491   3.261  0.5288  0.0270 -0.6224
  858MOL0     H15776   0.982  10.374   3.362 -3.4078  2.4076  0.5538
  858MOL0     H15777   0.917  10.559   3.524 -1.6297 -0.9308 -0.3639
  858MOL0     H15778   0.972  10.680   3.403 -2.2947  0.4879  1.5792
  858MOL0     H15779   0.773  10.468   3.354  0.5286  0.1718  1.6203
  858MOL0     H15780   0.822  10.586   3.231 -2.1800  0.3768  0.2768
  858MOL0     H15781   0.751  10.853   3.289  1.4284  0.6875  2.3563
  858MOL0     H15782   0.459  10.978   3.542 -1.8043  0.0677 -1.8182
  858MOL0     H15783   0.626  11.044   3.529 -0.6057 -1.6387  0.8100
  858MOL0     H15784   0.589  11.065   3.285 -0.7017 -1.4495 -0.7804
  858MOL0     H15785   0.452  11.146   3.370  0.4101  0.2742  0.6545
  858MOL0     H15786   0.337  10.922   3.368  0.1397  2.5118  0.6881
  858MOL0     H15787   0.451  10.875   3.235  2.9470  0.0086  1.7166
  858MOL0     H15788   0.277  10.977   3.114  0.3278  0.9584 -0.2381
  858MOL0     H15789   0.384  11.106   3.144 -0.8536  0.6702  1.2627
  858MOL0     H15790   0.009  11.210   3.369 -0.3401  3.6353  1.5443
  858MOL0     H15791  -0.247  11.406   3.279  0.7117  1.2998  0.3789
  858MOL0     H15792  -0.159  11.371   3.423  0.0784  0.1629 -0.1190
  858MOL0     H15793  -0.136  11.527   3.340 -0.4128  0.7951 -0.6681
  858MOL0     H15794  -0.203  11.496   2.725 -0.9898  0.0695  2.5131
  858MOL0     H15795  -0.348  11.611   2.590  0.7113 -1.1869  0.1569
  858MOL0     H15796  -0.448  11.798   2.438  0.3554  0.1502  0.4191
  858MOL0     H15797  -0.540  11.731   2.571  3.2133 -1.3351  0.5873
  858MOL0     H15798  -0.652  11.959   2.592  2.1208  0.9895  1.0546
  858MOL0     H15799  -0.569  11.997   2.438  1.0114  0.7185  1.7718
  858MOL0     H15800  -0.699  11.802   2.332 -0.9205 -0.1899 -1.3460
  858MOL0     H15801  -0.791  11.942   2.386  1.9499  0.1796 -2.2019
  858MOL0     H15802  -0.788  11.677   2.520 -3.5139 -1.8733  1.1222
  858MOL0     H15803  -0.835  11.824   2.601  0.9338  0.0325 -0.5200
  858MOL0     H15804  -0.999  11.867   2.451  0.3933  0.0841  1.5640
  858MOL0     H15805  -1.033  11.702   2.503 -2.1292 -1.3766 -3.2402
  858MOL0     H15806  -0.921  11.791   2.229 -2.5491  1.4574  0.0852
  858MOL0     H15807  -0.874  11.628   2.303 -0.1904  0.4194 -2.1841
  858MOL0     H15808  -1.154  11.645   2.334  1.4253  4.5077  1.7437
  858MOL0     H15809  -1.075  11.558   2.199 -0.0916 -0.1290  0.3426
  858MOL0     H15810  -1.100  11.774   2.077  0.3852 -2.4322  0.1420
  858MOL0     H15811  -1.188  11.844   2.222  1.5477  0.0218  0.1079
  858MOL0     H15812  -0.251  11.966   2.822 -0.5877  0.0744  0.5390
  858MOL0     H15813  -0.106  11.826   2.964 -1.0579 -0.8856 -0.2116
  858MOL0     H15814   0.143  11.398   2.933  1.8443 -2.7241 -0.6224
  858MOL0     H15815   0.267  11.228   3.048 -0.9388 -2.6860 -0.6273
  858MOL0     H15816   1.840  10.655   3.569 -0.1604  0.3633 -0.5333
  858MOL0     H15817   2.093  10.602   3.593  1.8690 -1.6699 -0.5859
  858MOL0     H15818   2.534  10.661   3.289  0.2156  1.1477  1.2903
  858MOL0     H15819   2.774  10.587   3.320 -1.2930  1.2444 -2.7140
  858MOL0     H15820   2.818  10.198   3.501 -2.6444  5.1562  4.1264
  858MOL0     H15821   2.991  10.226   3.430  0.1787  2.9708 -2.4688
  858MOL0     H15822   2.911  10.287   3.697  2.9113 -0.0695  0.9734
  858MOL0     H15823   2.875  10.435   3.619  0.5387 -0.4514  1.7318
  858MOL0     H15824   3.089  10.473   3.547  1.9252 -0.9965 -1.1859
  858MOL0     H15825   3.141  10.309   3.580 -1.8642 -1.7807  1.9141
  858MOL0     H15826   3.242  10.462   3.732  1.1404 -1.7236  0.0556
  858MOL0     H15827   3.135  10.377   3.833  2.4879  1.1009  0.7055
  858MOL0     H15828   2.957  10.784   3.784 -1.9661 -1.7217 -0.9215
  858MOL0     H15829   2.627  10.209   3.460  0.5372  0.9505  2.5719
  858MOL0     H15830   2.396  10.293   3.441 -0.2627  1.6431  3.0838
  859MOL0     O15831   6.501   7.881   8.689  0.3329 -0.9109  0.4869
  859MOL0     C15832   6.435   7.961   8.616 -0.2202  0.6230  0.4761
  859MOL0     O15833   6.301   7.989   8.624 -0.3875  0.0927 -0.4358
  859MOL0     C15834   6.228   7.964   8.729  0.2298  0.3449  0.1320
  859MOL0     C15835   6.089   7.973   8.710 -0.2085 -0.4023  0.5231
  859MOL0     C15836   6.001   7.940   8.811  0.2231 -0.5942  0.6085
  859MOL0     C15837   6.050   7.907   8.934  0.2919 -0.3421 -0.1412
  859MOL0     O15838   5.954   7.869   9.024  0.2175  0.3314 -0.7317
  859MOL0     C15839   5.964   7.736   9.077  0.3828 -0.0728  0.5110
  859MOL0     C15840   5.841   7.706   9.158  0.1636  0.2200  0.3276
  859MOL0     C15841   5.720   7.671   9.071 -0.1705  0.0985 -0.1541
  859MOL0     C15842   5.594   7.627   9.151 -0.5260  0.6833 -0.0607
  859MOL0     C15843   5.497   7.527   9.069 -0.3214 -1.5170 -0.0837
  859MOL0     C15844   5.408   7.602   8.978  0.0026  0.3711 -0.3912
  859MOL0     C15845   5.324   7.505   8.899 -0.2962  0.4250 -0.1821
  859MOL0     C15846   5.239   7.565   8.787 -0.4774 -0.0865  0.6261
  859MOL0     N15847   5.131   7.468   8.751  0.1482 -0.2539 -0.5640
  859MOL0     C15848   5.080   7.474   8.625 -0.2250  0.4053  0.0563
  859MOL0     C15849   4.962   7.404   8.634 -0.2991 -0.5829 -0.4032
  859MOL0     C15850   4.872   7.363   8.522  0.2071  0.1334  0.1523
  859MOL0     C15851   4.725   7.397   8.537  0.1736  0.1336 -0.1667
  859MOL0     C15852   4.627   7.352   8.434 -0.8307  0.2635 -0.5147
  859MOL0     C15853   4.485   7.400   8.470  0.5020 -0.2154 -0.1544
  859MOL0     O15854   4.393   7.335   8.381 -0.1007  0.1394  0.4659
  859MOL0     C15855   4.257   7.336   8.424  0.0424 -0.1477  0.0202
  859MOL0     C15856   4.205   7.444   8.495  0.5366 -0.2726  0.4655
  859MOL0     C15857   4.068   7.450   8.528 -0.6566 -0.6314 -0.6245
  859MOL0     C15858   4.033   7.571   8.604 -0.2230 -0.5352 -0.3107
  859MOL0     C15859   3.979   7.343   8.504  0.4870  0.0390  0.8796
  859MOL0     C15860   3.835   7.329   8.550  0.3395 -0.0903  0.8403
  859MOL0     O15861   3.738   7.273   8.463 -0.4929 -0.9627 -0.1588
  859MOL0     C15862   3.620   7.274   8.519  0.3916  0.6663  0.7133
  859MOL0     C15863   3.543   7.394   8.515  0.1989  0.2867  0.9397
  859MOL0     C15864   3.405   7.378   8.543  0.5912 -0.2953 -0.3064
  859MOL0     C15865   3.347   7.259   8.589 -0.0383  0.0787 -0.5502
  859MOL0     O15866   3.215   7.272   8.610  0.4125  1.0721 -0.3223
  859MOL0     C15867   3.148   7.154   8.652  0.2837  0.3242  0.3892
  859MOL0     C15868   3.012   7.205   8.698  0.5177  1.6078 -0.4786
  859MOL0     C15869   2.923   7.085   8.751 -1.1698  0.3565 -0.4735
  859MOL0     C15870   2.776   7.115   8.768 -0.3908  0.2927  0.0487
  859MOL0     C15871   2.697   6.982   8.765  0.3824 -0.7446 -0.9370
  859MOL0     C15872   2.550   7.024   8.795 -0.1628 -0.2249 -0.8937
  859MOL0     C15873   2.434   6.929   8.804 -0.7379 -0.3855 -0.7758
  859MOL0     C15874   2.387   6.892   8.667  0.1041  0.7041  0.1251
  859MOL0    Cl15875   2.264   6.762   8.683  0.0222  0.0490  0.1687
  859MOL0     C15876   3.429   7.146   8.598  0.2328  0.3158  0.5434
  859MOL0     C15877   3.567   7.152   8.573  0.7280 -0.2200  1.3351
  859MOL0     O15878   3.810   7.370   8.662  0.2416  0.3334 -0.1999
  859MOL0     C15879   4.032   7.237   8.430  0.3894 -0.0948 -0.3598
  859MOL0     C15880   4.166   7.228   8.391 -0.4231  0.4871 -0.5187
  859MOL0     N15881   4.946   7.356   8.763  1.1792  0.4947 -0.0406
  859MOL0     N15882   5.050   7.389   8.830 -0.2509  0.5600 -0.4518
  859MOL0     C15883   6.186   7.911   8.962 -0.3278  0.1686 -0.3086
  859MOL0     C15884   6.273   7.945   8.859 -0.0724  0.4908 -0.0660
  859MOL0     C15885   6.500   8.013   8.490  0.0982  0.7657  0.5510
  859MOL0     C15886   6.430   8.066   8.377 -0.1426  0.9345  0.9734
  859MOL0     C15887   6.490   8.097   8.250 -0.7023  0.0377  0.4902
  859MOL0     C15888   6.624   8.078   8.239 -0.9048 -0.0016  0.5452
  859MOL0     O15889   6.669   8.111   8.114 -0.7035 -0.3971  0.3378
  859MOL0     C15890   6.808   8.099   8.093  0.5496  0.4845  0.5964
  859MOL0     C15891   6.849   8.141   7.947  0.2058  0.6395 -0.2724
  859MOL0     C15892   6.811   8.293   7.929  0.0008  0.5791 -0.0227
  859MOL0     C15893   6.910   8.393   7.973  0.0543  0.1193  0.3538
  859MOL0     C15894   7.030   8.397   7.896 -0.2168  0.9310 -0.1720
  859MOL0     C15895   7.126   8.395   7.822 -0.2025  0.4055 -0.5948
  859MOL0     C15896   6.697   8.028   8.349 -0.1156 -0.0018  1.1532
  859MOL0     C15897   6.639   7.995   8.467  0.8716  0.2845 -0.5235
  859MOL0     H15898   6.048   8.003   8.614 -0.7330  0.5204  1.0121
  859MOL0     H15899   5.896   7.932   8.785  0.6280 -2.8461 -0.6064
  859MOL0     H15900   5.976   7.658   9.002 -2.6327  0.2762 -0.4649
  859MOL0     H15901   6.043   7.737   9.153 -1.0333  0.9964  2.0314
  859MOL0     H15902   5.868   7.619   9.219 -1.6021  1.0889  2.4708
  859MOL0     H15903   5.837   7.794   9.222  1.1793 -0.3691  1.2342
  859MOL0     H15904   5.698   7.750   8.998  0.0910  1.3856  1.1111
  859MOL0     H15905   5.750   7.594   8.999 -0.3704  0.5313 -0.7128
  859MOL0     H15906   5.636   7.563   9.230 -3.1823 -1.0769  0.0778
  859MOL0     H15907   5.551   7.721   9.185 -1.0937 -0.0368  1.3295
  859MOL0     H15908   5.556   7.461   9.004  2.9046  2.1315 -1.2805
  859MOL0     H15909   5.442   7.476   9.148  1.5967 -1.2674  1.5064
  859MOL0     H15910   5.328   7.658   9.028 -1.4006 -0.1613 -1.9325
  859MOL0     H15911   5.460   7.672   8.912  1.5220  0.1411  0.5177
  859MOL0     H15912   5.399   7.429   8.876 -1.1949 -0.3110 -0.7666
  859MOL0     H15913   5.257   7.463   8.975  2.4856 -1.6585  1.3149
  859MOL0     H15914   5.294   7.597   8.699  0.6845 -0.5667  1.1534
  859MOL0     H15915   5.193   7.655   8.828 -0.9506 -0.7160  1.5060
  859MOL0     H15916   5.109   7.539   8.543 -2.4818  1.3846 -0.0377
  859MOL0     H15917   4.909   7.419   8.436 -0.8780  1.0809  0.2711
  859MOL0     H15918   4.875   7.254   8.516 -0.8487 -0.0169  1.7246
  859MOL0     H15919   4.723   7.506   8.531  0.1302  0.0786 -1.2906
  859MOL0     H15920   4.691   7.362   8.636  0.1739 -0.2803 -0.3090
  859MOL0     H15921   4.641   7.245   8.419  0.6915  0.7247 -2.9453
  859MOL0     H15922   4.660   7.403   8.343  1.6849 -1.8290 -0.8839
  859MOL0     H15923   4.484   7.509   8.476 -0.2853 -0.2386  0.2537
  859MOL0     H15924   4.444   7.371   8.568 -2.1210  1.5165 -0.6422
  859MOL0     H15925   4.264   7.532   8.517 -0.3545  0.2972  0.6224
  859MOL0     H15926   4.038   7.556   8.712  0.2238  1.6270  0.0084
  859MOL0     H15927   4.094   7.661   8.589 -2.4514  1.0458 -0.4140
  859MOL0     H15928   3.930   7.596   8.575 -0.2755  0.0584  0.3534
  859MOL0     H15929   3.590   7.483   8.476  0.8601 -0.2616  0.4656
  859MOL0     H15930   3.340   7.459   8.514  0.6286  0.6932  2.1282
  859MOL0     H15931   3.129   7.088   8.566 -2.0476  0.1800  0.9469
  859MOL0     H15932   3.206   7.101   8.728  1.5074  2.9618  1.4146
  859MOL0     H15933   3.034   7.276   8.778 -0.6361  1.1801  0.2366
  859MOL0     H15934   2.954   7.254   8.620 -2.5639  1.6393  1.6830
  859MOL0     H15935   2.962   7.044   8.845  0.5219 -0.3453 -1.4470
  859MOL0     H15936   2.932   7.001   8.682  0.5401 -2.2252  2.6073
  859MOL0     H15937   2.762   7.171   8.861 -2.4208  0.1348 -0.1276
  859MOL0     H15938   2.742   7.181   8.687 -0.9876  1.3353  1.1152
  859MOL0     H15939   2.744   6.909   8.832 -3.0730 -2.1554  0.2220
  859MOL0     H15940   2.704   6.946   8.662  2.8354  2.5508 -2.0849
  859MOL0     H15941   2.551   7.052   8.901 -0.8017 -0.3131 -0.8602
  859MOL0     H15942   2.516   7.109   8.734 -1.3010 -1.1693 -1.6119
  859MOL0     H15943   2.361   6.977   8.870  2.6073  2.3168  1.3455
  859MOL0     H15944   2.477   6.846   8.861  0.9299  0.7725 -0.2434
  859MOL0     H15945   2.468   6.871   8.596  1.1241  2.3952  0.7163
  859MOL0     H15946   2.352   6.981   8.612  0.6847  0.4850 -0.6231
  859MOL0     H15947   3.387   7.053   8.636  0.7849  0.8370  2.5250
  859MOL0     H15948   3.620   7.057   8.571 -1.8552 -1.7398  0.7597
  859MOL0     H15949   3.958   7.160   8.409 -0.2475  1.2110 -3.5148
  859MOL0     H15950   4.192   7.137   8.338 -2.1282 -0.8245  0.7816
  859MOL0     H15951   6.226   7.904   9.062 -3.3603 -0.5203  0.9470
  859MOL0     H15952   6.377   7.947   8.891  0.4673 -0.6216 -1.5885
  859MOL0     H15953   6.323   8.078   8.381 -0.1480  0.6558  2.0417
  859MOL0     H15954   6.437   8.118   8.158  2.1242 -4.3155 -2.5628
  859MOL0     H15955   6.862   8.161   8.164 -1.9496  1.6434  1.6230
  859MOL0     H15956   6.836   7.995   8.112  1.6771  0.8165  0.7821
  859MOL0     H15957   6.798   8.085   7.868 -0.4944  1.9325 -0.7640
  859MOL0     H15958   6.957   8.136   7.930  0.1665  0.6163 -0.5113
  859MOL0     H15959   6.716   8.315   7.978  0.6000 -0.9205  1.9802
  859MOL0     H15960   6.791   8.310   7.823  1.3100  2.1469 -0.0522
  859MOL0     H15961   6.932   8.379   8.079  2.0258  0.7974  0.0660
  859MOL0     H15962   6.867   8.493   7.965 -0.3447  0.0717  1.6431
  859MOL0     H15963   7.204   8.394   7.748 -0.9587  2.8190 -1.5059
  859MOL0     H15964   6.803   8.011   8.336 -0.4548  0.0755 -2.7295
  859MOL0     H15965   6.696   7.950   8.548 -1.7401 -1.7260  0.3642
  860MOL0     O15966   2.917   1.246   2.817  0.0814  0.5815  0.0796
  860MOL0     C15967   2.805   1.249   2.871  0.2037 -1.0683  0.5840
  860MOL0     O15968   2.754   1.362   2.940 -0.1040 -0.8417  0.2874
  860MOL0     C15969   2.845   1.455   2.972 -0.4510 -0.4163  0.0821
  860MOL0     C15970   2.885   1.542   2.873  0.0403 -0.4096  0.2263
  860MOL0     C15971   2.976   1.640   2.900 -1.0182 -0.4803 -0.3723
  860MOL0     C15972   3.035   1.645   3.031  0.1490  0.5044  0.2875
  860MOL0     O15973   3.115   1.750   3.060  0.0140 -0.0101 -0.0131
  860MOL0     C15974   3.256   1.712   3.050  0.1792  0.4802  0.2304
  860MOL0     C15975   3.322   1.815   3.146  0.3862 -0.7079 -0.1701
  860MOL0     C15976   3.318   1.964   3.116 -0.7790 -0.5042  0.0640
  860MOL0     C15977   3.316   2.000   2.968  0.2212 -0.2484  0.0900
  860MOL0     C15978   3.355   2.147   2.948  0.1861 -0.2681  0.1041
  860MOL0     C15979   3.364   2.183   2.802  0.1518  0.4110  0.3830
  860MOL0     C15980   3.321   2.328   2.763 -0.0501 -0.2520  0.1916
  860MOL0     C15981   3.163   2.326   2.760 -0.2297 -0.0323 -0.6561
  860MOL0     N15982   3.116   2.437   2.677  0.9629 -0.4474 -0.6363
  860MOL0     C15983   3.102   2.428   2.539  0.0007 -0.0456 -0.4819
  860MOL0     C15984   3.033   2.540   2.512 -0.1716 -0.2404 -0.1230
  860MOL0     C15985   2.998   2.581   2.372  0.5634 -0.1237 -0.5482
  860MOL0     C15986   2.844   2.634   2.379 -0.2449  1.0370 -0.7474
  860MOL0     C15987   2.754   2.517   2.419  1.0289 -0.0308 -0.2078
  860MOL0     C15988   2.611   2.548   2.368  0.8275  0.1518 -0.4527
  860MOL0     O15989   2.520   2.471   2.429  0.5252 -0.5500 -0.2370
  860MOL0     C15990   2.402   2.437   2.364 -0.2112 -1.3971  0.7791
  860MOL0     C15991   2.326   2.325   2.406 -0.2245 -0.5688  0.2058
  860MOL0     C15992   2.204   2.297   2.340 -0.8152  1.3527  0.4358
  860MOL0     C15993   2.138   2.173   2.403  0.2364 -1.1594  0.0289
  860MOL0     C15994   2.162   2.370   2.225  0.1509 -0.2491 -0.2030
  860MOL0     C15995   2.042   2.338   2.139  0.1450  0.6823 -0.0232
  860MOL0     O15996   2.015   2.424   2.031 -0.0517 -0.3835  0.4958
  860MOL0     C15997   1.884   2.427   1.984 -0.7037  0.4815 -0.4042
  860MOL0     C15998   1.851   2.358   1.862  0.0361  0.0722 -1.0457
  860MOL0     C15999   1.717   2.340   1.827  0.2644  0.4652 -0.4875
  860MOL0     C16000   1.620   2.397   1.914  0.1852  0.0835  0.9537
  860MOL0     O16001   1.492   2.397   1.867 -0.6685  0.4230  0.1127
  860MOL0     C16002   1.384   2.407   1.965  0.3000  0.2615 -0.5063
  860MOL0     C16003   1.287   2.301   1.924 -0.7444  0.3482 -0.2142
  860MOL0     C16004   1.169   2.261   2.018 -1.0125  0.2459 -0.8933
  860MOL0     C16005   1.098   2.381   2.076  0.0278  1.0565 -0.7395
  860MOL0     C16006   1.006   2.428   1.965 -0.4387 -0.3840 -0.8741
  860MOL0     C16007   0.900   2.529   1.992 -0.9899 -0.5670 -0.1592
  860MOL0     C16008   0.794   2.467   2.078  0.4746 -0.6970  0.0170
  860MOL0     C16009   0.653   2.527   2.035 -0.3455  0.1079 -0.5471
  860MOL0    Cl16010   0.520   2.469   2.134  0.2525 -0.0237  0.5656
  860MOL0     C16011   1.651   2.473   2.031 -0.2207  0.2591  0.3511
  860MOL0     C16012   1.787   2.486   2.063  1.0656  0.5433 -0.1737
  860MOL0     O16013   1.971   2.235   2.163 -0.4543  0.0499 -0.1298
  860MOL0     C16014   2.231   2.486   2.191  0.3141 -0.0198  0.0569
  860MOL0     C16015   2.343   2.525   2.264  0.3473 -0.5777  0.8752
  860MOL0     N16016   3.005   2.611   2.633 -0.1238 -0.7148  0.1679
  860MOL0     N16017   3.056   2.546   2.734 -0.3942 -0.2169  0.0245
  860MOL0     C16018   2.996   1.550   3.127  0.7018 -0.5232 -0.5699
  860MOL0     C16019   2.898   1.454   3.102  0.5763  0.9757  0.3944
  860MOL0     C16020   2.721   1.123   2.867 -0.5482 -0.6265  0.2179
  860MOL0     C16021   2.778   0.994   2.859 -0.4048  0.4234  0.6044
  860MOL0     C16022   2.692   0.875   2.867  1.0453  0.4105  0.2312
  860MOL0     C16023   2.548   0.890   2.878 -0.0703 -1.1428 -0.9547
  860MOL0     O16024   2.448   0.788   2.887 -0.1552 -0.0288 -0.1937
  860MOL0     C16025   2.481   0.651   2.849  0.5481  1.1540  0.1884
  860MOL0     C16026   2.551   0.584   2.960 -0.5605 -0.1723  0.7435
  860MOL0     C16027   2.569   0.441   2.925  0.0863 -0.5624 -0.5125
  860MOL0     C16028   2.608   0.366   3.053  0.5969  0.3032  0.2994
  860MOL0     C16029   2.738   0.391   3.098 -0.8650  0.5265 -0.1263
  860MOL0     C16030   2.860   0.391   3.132  0.5659 -0.3748 -0.3213
  860MOL0     C16031   2.496   1.020   2.897 -0.0905  0.1542  0.4027
  860MOL0     C16032   2.580   1.131   2.887 -0.8043 -0.1681 -0.2589
  860MOL0     H16033   2.839   1.538   2.775  3.7605 -1.1229 -1.6869
  860MOL0     H16034   2.999   1.718   2.828 -2.3384  1.7148  1.4698
  860MOL0     H16035   3.269   1.619   3.105 -1.4600  1.3462  2.2451
  860MOL0     H16036   3.294   1.729   2.949 -3.7398  1.9719 -1.2268
  860MOL0     H16037   3.276   1.799   3.244  0.3762 -2.3363 -0.4049
  860MOL0     H16038   3.426   1.781   3.144 -0.1855 -2.5858 -2.9283
  860MOL0     H16039   3.226   2.006   3.157 -0.4985  0.5893 -0.3784
  860MOL0     H16040   3.396   2.021   3.167 -1.8057 -0.7154  1.9612
  860MOL0     H16041   3.378   1.931   2.910 -0.8343 -1.2240  0.0903
  860MOL0     H16042   3.216   1.995   2.924  0.9926  1.0215 -1.9368
  860MOL0     H16043   3.280   2.214   2.991  0.6715  0.0650  0.4412
  860MOL0     H16044   3.455   2.171   2.985  0.4904  0.1423 -0.9602
  860MOL0     H16045   3.471   2.176   2.778  0.6082  1.2696  2.0251
  860MOL0     H16046   3.305   2.115   2.739  0.1781 -0.6485  1.4505
  860MOL0     H16047   3.360   2.402   2.833  1.3393 -0.5680 -0.2091
  860MOL0     H16048   3.370   2.351   2.668  1.2580  1.4484  1.2247
  860MOL0     H16049   3.111   2.331   2.857  0.3375  2.9643 -0.4062
  860MOL0     H16050   3.138   2.232   2.711  0.1158 -0.2365 -0.4451
  860MOL0     H16051   3.125   2.349   2.469 -2.2771 -0.9910 -0.2446
  860MOL0     H16052   3.077   2.651   2.345 -1.5696  3.3062  1.3309
  860MOL0     H16053   3.009   2.495   2.305  1.8567  1.1275 -1.9915
  860MOL0     H16054   2.817   2.657   2.276  1.1603  1.1619 -1.1137
  860MOL0     H16055   2.830   2.713   2.453  2.3720  0.7987  0.1273
  860MOL0     H16056   2.755   2.491   2.526  0.3868  0.4236 -0.0850
  860MOL0     H16057   2.773   2.424   2.364 -0.0824  0.2264 -1.0606
  860MOL0     H16058   2.613   2.533   2.259  2.0614 -2.9259 -0.0987
  860MOL0     H16059   2.600   2.656   2.385 -0.3083  0.1086 -0.7987
  860MOL0     H16060   2.365   2.258   2.482  2.5494  0.3471 -0.3090
  860MOL0     H16061   2.149   2.176   2.512 -3.0060 -2.6404  0.5123
  860MOL0     H16062   2.032   2.174   2.376  0.4458  2.2496 -1.1232
  860MOL0     H16063   2.189   2.086   2.361  1.3646  1.1198 -3.8520
  860MOL0     H16064   1.923   2.312   1.796  2.2665 -0.9511  1.8604
  860MOL0     H16065   1.683   2.299   1.732 -0.4256 -1.3175  0.4759
  860MOL0     H16066   1.415   2.374   2.065 -0.9001 -0.8406 -0.4816
  860MOL0     H16067   1.330   2.501   1.982  0.5819  0.0308  2.1078
  860MOL0     H16068   1.242   2.330   1.829 -2.0529 -3.5614 -0.9440
  860MOL0     H16069   1.324   2.204   1.889 -3.2715  0.2544 -3.0080
  860MOL0     H16070   1.213   2.211   2.104 -1.7153 -2.0980 -1.8093
  860MOL0     H16071   1.105   2.185   1.973 -1.2806  1.7781 -3.2841
  860MOL0     H16072   1.037   2.349   2.161  1.5315 -0.3179 -0.1325
  860MOL0     H16073   1.166   2.460   2.110  1.2629 -0.1904 -0.2337
  860MOL0     H16074   0.959   2.342   1.917 -2.8011 -1.7032  3.3599
  860MOL0     H16075   1.082   2.480   1.905  0.3647  2.3769  2.2654
  860MOL0     H16076   0.944   2.615   2.044 -0.1126  2.3183 -5.0101
  860MOL0     H16077   0.872   2.556   1.890 -2.2858 -0.3335  0.2399
  860MOL0     H16078   0.817   2.478   2.184  0.0756 -4.0122  0.5394
  860MOL0     H16079   0.790   2.360   2.054  0.6305 -0.3945 -1.4806
  860MOL0     H16080   0.636   2.497   1.931  1.0342 -2.4007 -0.1419
  860MOL0     H16081   0.661   2.635   2.045 -0.4373  0.2258 -1.6318
  860MOL0     H16082   1.575   2.520   2.091 -0.6963  1.4296 -1.1061
  860MOL0     H16083   1.813   2.528   2.159 -2.8157  1.5351  0.6139
  860MOL0     H16084   2.197   2.553   2.113  1.1782 -0.3396 -0.6132
  860MOL0     H16085   2.405   2.613   2.250  1.1954 -1.3049 -0.0808
  860MOL0     H16086   3.050   1.566   3.220  2.0961  0.9382 -1.5785
  860MOL0     H16087   2.858   1.374   3.163  0.1062 -0.0390 -1.1906
  860MOL0     H16088   2.882   0.970   2.840 -0.0619  0.4559  2.2950
  860MOL0     H16089   2.736   0.776   2.874  0.7680  0.3065  0.5324
  860MOL0     H16090   2.389   0.596   2.824  0.2886  3.0541 -3.8567
  860MOL0     H16091   2.542   0.659   2.759  0.3261  2.9395  0.1588
  860MOL0     H16092   2.496   0.594   3.055 -1.0995 -1.7224  0.6210
  860MOL0     H16093   2.649   0.628   2.982 -0.8230  1.8006 -1.6828
  860MOL0     H16094   2.638   0.428   2.841 -1.5601 -0.9902 -1.8520
  860MOL0     H16095   2.481   0.398   2.878 -0.7765  2.7500 -2.2619
  860MOL0     H16096   2.596   0.259   3.037 -1.1905  0.7143 -1.6122
  860MOL0     H16097   2.530   0.402   3.122  1.5621  2.4096  0.3667
  860MOL0     H16098   2.958   0.421   3.163 -0.5029  0.9138  2.0421
  860MOL0     H16099   2.391   1.031   2.920 -0.9223  0.7440 -3.1213
  860MOL0     H16100   2.542   1.232   2.887  1.1934  0.6409 -1.9288
  861MOL0     O16101   1.535   6.880   3.354  0.3356  0.1619 -0.2071
  861MOL0     C16102   1.423   6.924   3.373 -0.5151  0.3962  0.0741
  861MOL0     O16103   1.388   7.052   3.357  0.2269 -0.1003  0.2517
  861MOL0     C16104   1.490   7.134   3.301  0.2776  0.7370  0.1465
  861MOL0     C16105   1.595   7.168   3.389  0.6061 -0.3582 -0.0761
  861MOL0     C16106   1.672   7.278   3.341  0.0863  0.0581 -0.2446
  861MOL0     C16107   1.657   7.339   3.213  0.7478 -0.4529  0.0806
  861MOL0     O16108   1.741   7.446   3.169  0.6046 -0.8255 -0.9720
  861MOL0     C16109   1.678   7.574   3.155 -0.2706 -0.4573  0.4931
  861MOL0     C16110   1.613   7.601   3.017 -0.0638  0.1187  0.5375
  861MOL0     C16111   1.664   7.712   2.922  1.1859 -0.2403  0.0334
  861MOL0     C16112   1.605   7.703   2.787  0.7517 -0.3311  0.5629
  861MOL0     C16113   1.632   7.826   2.691 -0.3902  0.2167 -0.1550
  861MOL0     C16114   1.583   7.794   2.545  0.4975 -0.3545 -0.0785
  861MOL0     C16115   1.633   7.666   2.474  0.0792 -0.1199 -0.9440
  861MOL0     C16116   1.597   7.655   2.332  0.2140 -0.8918  0.4660
  861MOL0     N16117   1.459   7.654   2.311 -0.2919 -0.8443 -0.2498
  861MOL0     C16118   1.358   7.576   2.373 -0.2676 -0.4996 -0.6545
  861MOL0     C16119   1.243   7.652   2.353 -0.8039  0.4035  0.2434
  861MOL0     C16120   1.106   7.605   2.384 -0.4345  0.5063 -0.7193
  861MOL0     C16121   1.048   7.510   2.278  0.0129  0.1192  0.8333
  861MOL0     C16122   1.038   7.601   2.152 -0.3026 -0.1118  0.6435
  861MOL0     C16123   0.966   7.526   2.036 -0.5353  0.5939  0.2146
  861MOL0     O16124   0.822   7.527   2.040 -0.1836 -1.0876  0.9068
  861MOL0     C16125   0.759   7.645   2.004  0.0370 -0.5717 -0.0294
  861MOL0     C16126   0.805   7.744   1.916  0.0143  0.3571  1.1221
  861MOL0     C16127   0.728   7.862   1.894  0.5114  0.5487  0.1768
  861MOL0     C16128   0.773   7.963   1.786  0.4011  0.5098  0.1014
  861MOL0     C16129   0.602   7.877   1.970 -0.3692  0.3930 -0.7427
  861MOL0     C16130   0.521   8.000   1.965  0.0957 -1.2214 -0.5045
  861MOL0     O16131   0.445   8.031   2.073  0.7855  0.0275 -0.0922
  861MOL0     C16132   0.323   8.103   2.063 -0.4487 -0.0061  0.3695
  861MOL0     C16133   0.252   8.125   2.182 -0.2265  0.3004 -0.4092
  861MOL0     C16134   0.123   8.181   2.192  0.5852 -0.2275  0.6299
  861MOL0     C16135   0.057   8.209   2.070 -0.4048  1.1293  0.2623
  861MOL0     O16136  -0.071   8.249   2.059 -0.5495  0.2487 -0.4197
  861MOL0     C16137  -0.138   8.303   2.178 -1.3264 -0.2091  0.5889
  861MOL0     C16138  -0.282   8.357   2.155 -0.3346 -0.5738 -0.4958
  861MOL0     C16139  -0.371   8.262   2.078 -0.2422  0.0907  0.6215
  861MOL0     C16140  -0.519   8.300   2.096 -0.3324 -0.1396 -0.1676
  861MOL0     C16141  -0.610   8.193   2.036  0.1922 -0.2442  0.6595
  861MOL0     C16142  -0.755   8.250   2.033  0.2652 -0.5659 -0.3785
  861MOL0     C16143  -0.842   8.152   1.950 -0.6444  0.3535  0.0497
  861MOL0     C16144  -0.990   8.204   1.939 -0.1031  0.8479 -0.0684
  861MOL0    Cl16145  -1.112   8.081   1.880 -0.0669  0.2511  0.3336
  861MOL0     C16146   0.129   8.189   1.946  0.1748  0.6694 -0.3220
  861MOL0     C16147   0.260   8.136   1.950  0.2017  0.1300  0.6202
  861MOL0     O16148   0.512   8.060   1.860  0.0928  0.3531 -0.0198
  861MOL0     C16149   0.564   7.771   2.048  0.4938 -0.4631 -0.3241
  861MOL0     C16150   0.644   7.660   2.064 -0.6807  0.4346  0.9307
  861MOL0     N16151   1.277   7.765   2.286 -0.3506 -0.7602  0.2743
  861MOL0     N16152   1.404   7.763   2.255 -0.2408 -0.2016  0.4031
  861MOL0     C16153   1.569   7.276   3.126  0.7947  0.3770 -0.2016
  861MOL0     C16154   1.478   7.179   3.170 -0.6731  0.8195 -0.2989
  861MOL0     C16155   1.320   6.828   3.403 -0.0517  0.6258 -0.1955
  861MOL0     C16156   1.348   6.701   3.435  0.5734  0.0146  0.3955
  861MOL0     C16157   1.247   6.599   3.452 -0.6722 -1.0032  0.7935
  861MOL0     C16158   1.105   6.629   3.442  0.6471  0.0388 -0.8814
  861MOL0     O16159   1.001   6.536   3.472  0.1816 -0.5409 -0.7188
  861MOL0     C16160   1.043   6.415   3.534  0.4936 -0.5867 -0.6716
  861MOL0     C16161   0.915   6.337   3.573 -0.5952 -1.3703 -0.5147
  861MOL0     C16162   0.819   6.307   3.465  0.1313  0.3871  0.1734
  861MOL0     C16163   0.887   6.248   3.338  0.5705 -0.0456  0.5215
  861MOL0     C16164   0.933   6.116   3.357  0.1066  0.6099  0.1042
  861MOL0     C16165   0.981   6.005   3.373 -0.1383 -0.2925  0.7574
  861MOL0     C16166   1.081   6.773   3.416 -0.4393  0.8244 -0.1285
  861MOL0     C16167   1.187   6.867   3.391  0.1836 -0.3514 -0.2100
  861MOL0     H16168   1.608   7.127   3.488 -0.2482  1.8077  1.0114
  861MOL0     H16169   1.747   7.313   3.411  0.2310 -0.2647 -0.2318
  861MOL0     H16170   1.597   7.580   3.229 -1.9605 -0.9110 -1.2511
  861MOL0     H16171   1.746   7.657   3.178  0.7030 -0.6952 -1.3266
  861MOL0     H16172   1.611   7.508   2.960 -1.0757  0.9858 -0.9102
  861MOL0     H16173   1.509   7.620   3.046 -0.2003  1.9267 -0.9123
  861MOL0     H16174   1.634   7.810   2.961 -0.1421 -0.8351  0.5750
  861MOL0     H16175   1.773   7.707   2.920  1.4307  3.3226 -1.5428
  861MOL0     H16176   1.654   7.616   2.741  1.1138 -0.5855  1.4065
  861MOL0     H16177   1.499   7.682   2.802  0.3707  0.9656 -0.2405
  861MOL0     H16178   1.585   7.913   2.738 -0.4148  1.0088 -1.5887
  861MOL0     H16179   1.741   7.841   2.696 -0.1128 -1.8452  1.1922
  861MOL0     H16180   1.474   7.803   2.537  0.5480  1.4789  0.6654
  861MOL0     H16181   1.620   7.874   2.481  2.8471 -0.1340  1.4560
  861MOL0     H16182   1.742   7.671   2.487 -0.2067  1.6226  1.5062
  861MOL0     H16183   1.584   7.587   2.532 -1.6042  3.0162  2.3663
  861MOL0     H16184   1.630   7.559   2.291  0.8091  0.3004 -2.0673
  861MOL0     H16185   1.633   7.743   2.278 -2.0501 -0.3856 -0.3398
  861MOL0     H16186   1.369   7.481   2.425  0.7629 -0.7961 -1.3675
  861MOL0     H16187   1.119   7.540   2.471 -3.3898  2.1619  1.1344
  861MOL0     H16188   1.038   7.685   2.414 -3.7179 -1.8042 -1.4673
  861MOL0     H16189   0.950   7.471   2.308  1.4473 -2.7639  2.2533
  861MOL0     H16190   1.116   7.424   2.267  1.0506  0.9263  0.8170
  861MOL0     H16191   1.137   7.634   2.120 -0.4393  1.1217  1.4073
  861MOL0     H16192   0.980   7.687   2.187 -0.9153 -1.0992  2.1485
  861MOL0     H16193   1.007   7.424   2.036 -1.9239  0.0049 -0.0267
  861MOL0     H16194   0.993   7.571   1.940 -1.1338  0.6897  0.0893
  861MOL0     H16195   0.901   7.730   1.867 -0.2048 -0.5401  0.9207
  861MOL0     H16196   0.854   7.924   1.724  0.0331  1.8823 -1.2915
  861MOL0     H16197   0.695   7.991   1.715  0.7426  2.0452  0.3036
  861MOL0     H16198   0.803   8.054   1.839  4.4386  0.0448 -1.0562
  861MOL0     H16199   0.301   8.103   2.277  1.4807  0.3275 -1.2581
  861MOL0     H16200   0.072   8.190   2.288  1.5661 -0.2453  1.1708
  861MOL0     H16201  -0.148   8.218   2.246 -0.1204 -0.0655  0.9556
  861MOL0     H16202  -0.070   8.379   2.217 -0.5033 -0.2394 -0.7249
  861MOL0     H16203  -0.330   8.378   2.251 -2.2507  0.6990 -1.6555
  861MOL0     H16204  -0.271   8.455   2.109 -1.2328 -0.6353 -0.8581
  861MOL0     H16205  -0.345   8.161   2.109  1.2596  0.0880 -0.5371
  861MOL0     H16206  -0.346   8.279   1.973 -0.5099  0.3211  0.5924
  861MOL0     H16207  -0.533   8.311   2.204  0.5702 -3.3208  0.3830
  861MOL0     H16208  -0.542   8.401   2.060  1.6026  1.7915  3.4822
  861MOL0     H16209  -0.611   8.104   2.099 -3.7220 -1.4791 -0.8918
  861MOL0     H16210  -0.566   8.175   1.938  0.6026  0.5384  0.6887
  861MOL0     H16211  -0.783   8.255   2.138  2.0771  4.0650  0.1005
  861MOL0     H16212  -0.748   8.344   1.978  0.2599 -1.1209 -1.3576
  861MOL0     H16213  -0.826   8.051   1.990  0.8387  1.2015  1.7349
  861MOL0     H16214  -0.802   8.152   1.848  2.9040  1.0629  1.2963
  861MOL0     H16215  -0.992   8.284   1.864 -0.4971 -0.3541 -1.3771
  861MOL0     H16216  -1.017   8.242   2.038 -0.4610  1.0268 -0.2330
  861MOL0     H16217   0.091   8.202   1.846  0.3679 -2.8111 -0.9473
  861MOL0     H16218   0.294   8.126   1.847 -0.0388 -2.2145  0.7086
  861MOL0     H16219   0.466   7.768   2.094  0.7376  0.7369  0.2847
  861MOL0     H16220   0.619   7.582   2.136 -0.3655 -0.9433 -0.4112
  861MOL0     H16221   1.558   7.311   3.024  0.5845  0.4057 -0.1685
  861MOL0     H16222   1.410   7.128   3.102 -1.1888  0.3545  0.5542
  861MOL0     H16223   1.454   6.685   3.452  1.1449  2.1513 -0.7734
  861MOL0     H16224   1.282   6.496   3.457  2.0183 -0.2019  0.1563
  861MOL0     H16225   1.105   6.361   3.463  1.0221  0.1097 -0.7567
  861MOL0     H16226   1.090   6.437   3.631  0.9849  0.5765 -1.1561
  861MOL0     H16227   0.858   6.383   3.655 -0.3856 -1.4374 -0.3302
  861MOL0     H16228   0.953   6.243   3.613  0.4254 -0.7383  0.0543
  861MOL0     H16229   0.758   6.390   3.429 -1.3367 -1.0669 -0.8382
  861MOL0     H16230   0.749   6.241   3.517 -0.0595 -0.1493 -0.7454
  861MOL0     H16231   0.967   6.314   3.305 -0.2883  0.1355 -1.3248
  861MOL0     H16232   0.816   6.253   3.255 -1.0266  2.9979  1.8934
  861MOL0     H16233   1.025   5.913   3.406  0.9945 -0.7218 -1.7186
  861MOL0     H16234   0.976   6.797   3.404 -0.4300 -0.4200 -4.3602
  861MOL0     H16235   1.163   6.970   3.363  1.1331 -0.4607 -1.4949
  862MOL0     O16236   6.328   5.253   7.458 -0.2245 -0.4606  0.2278
  862MOL0     C16237   6.348   5.244   7.577  0.1406 -0.2818 -0.2873
  862MOL0     O16238   6.244   5.228   7.669 -1.2168  0.6323 -0.8291
  862MOL0     C16239   6.114   5.202   7.634  0.0488  0.6584  0.3089
  862MOL0     C16240   6.039   5.283   7.539 -0.6445  0.7344 -0.0941
  862MOL0     C16241   5.904   5.250   7.510  0.1734  0.2487  0.2989
  862MOL0     C16242   5.838   5.143   7.570  0.0806 -0.4421  0.1655
  862MOL0     O16243   5.711   5.110   7.545 -0.0371  0.3351 -0.2435
  862MOL0     C16244   5.669   5.113   7.407  0.6195 -0.0518  0.8915
  862MOL0     C16245   5.525   5.055   7.392 -0.2472  0.5799 -0.8427
  862MOL0     C16246   5.428   5.102   7.497  0.1885 -0.2708 -0.3630
  862MOL0     C16247   5.278   5.078   7.455  0.5740 -0.8910 -0.2974
  862MOL0     C16248   5.180   5.146   7.551 -0.1980 -0.0986 -0.7569
  862MOL0     C16249   5.034   5.128   7.508 -0.6455  0.3044 -0.2025
  862MOL0     C16250   4.934   5.206   7.593  0.4941 -0.6557 -0.1165
  862MOL0     C16251   4.812   5.216   7.515  0.4997  0.6297 -0.3012
  862MOL0     N16252   4.693   5.273   7.581  0.1070 -0.2763 -0.1600
  862MOL0     C16253   4.673   5.398   7.636 -0.2920 -0.2908  0.6792
  862MOL0     C16254   4.542   5.400   7.680 -0.9570 -0.0299 -0.0927
  862MOL0     C16255   4.476   5.517   7.741  0.0512  0.3594  0.9430
  862MOL0     C16256   4.424   5.610   7.637  0.0447  0.3922  0.4447
  862MOL0     C16257   4.403   5.750   7.688 -0.5873 -0.2689 -0.4440
  862MOL0     C16258   4.536   5.815   7.737 -0.4611  0.5112 -0.4718
  862MOL0     O16259   4.526   5.953   7.722  0.1931 -0.2910 -0.2049
  862MOL0     C16260   4.639   6.036   7.725  0.5277 -0.1912  0.4603
  862MOL0     C16261   4.619   6.162   7.666  0.5188 -0.1515  0.5418
  862MOL0     C16262   4.724   6.254   7.649 -0.7160  0.1507 -0.0753
  862MOL0     C16263   4.686   6.390   7.586  0.0144  0.1312  0.0917
  862MOL0     C16264   4.856   6.225   7.704  0.8340  0.4121  0.0332
  862MOL0     C16265   4.978   6.309   7.679  0.5254 -0.1973  0.1641
  862MOL0     O16266   5.100   6.244   7.697  0.1572 -0.1741 -0.2840
  862MOL0     C16267   5.222   6.303   7.707  0.1690  0.3319  0.5922
  862MOL0     C16268   5.246   6.441   7.711 -0.1753 -0.3184 -1.1869
  862MOL0     C16269   5.378   6.490   7.709 -1.0435  0.2360 -0.7747
  862MOL0     C16270   5.486   6.412   7.703  1.0751  1.0709 -0.3245
  862MOL0     O16271   5.613   6.457   7.694 -0.0965 -0.1886 -0.2389
  862MOL0     C16272   5.647   6.590   7.749 -0.2099 -0.1830  0.7075
  862MOL0     C16273   5.797   6.595   7.786  0.0842  0.5341  0.1746
  862MOL0     C16274   5.894   6.554   7.672 -0.6976 -0.2895 -0.4040
  862MOL0     C16275   6.030   6.524   7.731 -0.2703  0.5732  1.0485
  862MOL0     C16276   6.135   6.500   7.621 -1.1031 -0.2086 -0.6321
  862MOL0     C16277   6.283   6.505   7.684  0.2267  0.4294  0.8790
  862MOL0     C16278   6.393   6.517   7.574 -0.2168  0.2971 -0.6781
  862MOL0     C16279   6.531   6.552   7.633 -0.2230 -0.3784 -0.0269
  862MOL0    Cl16280   6.554   6.716   7.695  0.3386 -0.4320  0.4302
  862MOL0     C16281   5.466   6.271   7.703  0.3828 -0.1491 -0.1827
  862MOL0     C16282   5.335   6.217   7.709  0.6956 -0.1243  0.6973
  862MOL0     O16283   4.966   6.429   7.641 -0.4511 -0.1656 -0.4258
  862MOL0     C16284   4.873   6.095   7.749  0.4690 -0.9590 -0.1873
  862MOL0     C16285   4.767   6.002   7.771 -0.3403  0.0247  0.5517
  862MOL0     N16286   4.493   5.280   7.656 -0.0087  0.0526 -0.3240
  862MOL0     N16287   4.576   5.202   7.604 -0.6684 -0.0818  0.4779
  862MOL0     C16288   5.916   5.066   7.659 -0.0215  0.0256  0.5730
  862MOL0     C16289   6.052   5.094   7.688  0.2619  0.0757  0.4511
  862MOL0     C16290   6.488   5.264   7.631 -0.4612  0.3848  0.1196
  862MOL0     C16291   6.590   5.278   7.541 -0.1562 -0.0880  0.5506
  862MOL0     C16292   6.716   5.299   7.581  0.0025 -1.0482 -0.4985
  862MOL0     C16293   6.752   5.291   7.715 -1.5073 -0.2446  0.3762
  862MOL0     O16294   6.890   5.307   7.737  0.1820 -0.4451  0.6420
  862MOL0     C16295   6.950   5.230   7.835 -0.0896 -0.6471 -1.7684
  862MOL0     C16296   7.105   5.230   7.815 -0.1680  0.6964 -0.2778
  862MOL0     C16297   7.168   5.363   7.856  0.6116 -0.3702  0.2554
  862MOL0     C16298   7.319   5.377   7.833  0.5088 -0.3009 -0.1160
  862MOL0     C16299   7.384   5.289   7.929  0.0679 -0.2463  0.2012
  862MOL0     C16300   7.448   5.220   8.013 -0.0068  0.3395  0.7554
  862MOL0     C16301   6.655   5.260   7.809  0.6272  0.5485 -0.8685
  862MOL0     C16302   6.514   5.256   7.772 -0.3180  0.2879  0.0772
  862MOL0     H16303   6.089   5.363   7.485  0.3929  0.3822  0.3036
  862MOL0     H16304   5.840   5.315   7.451 -1.0369 -0.3396  0.9317
  862MOL0     H16305   5.665   5.214   7.365  0.1671 -1.6725 -3.5406
  862MOL0     H16306   5.743   5.053   7.354 -0.4139  0.4365 -1.1930
  862MOL0     H16307   5.497   5.092   7.293  3.3959  0.3268 -2.1213
  862MOL0     H16308   5.536   4.947   7.402  3.9057  0.7974 -1.1840
  862MOL0     H16309   5.447   5.033   7.579 -1.1318 -1.7545 -1.2419
  862MOL0     H16310   5.441   5.207   7.523  1.2966  0.2605 -2.7439
  862MOL0     H16311   5.257   5.131   7.361  3.3357  0.0586 -0.4688
  862MOL0     H16312   5.262   4.971   7.446  0.1456 -0.7531 -1.3955
  862MOL0     H16313   5.192   5.089   7.643 -1.5741 -1.7306 -1.5340
  862MOL0     H16314   5.197   5.253   7.569 -3.4348  0.5335 -0.9108
  862MOL0     H16315   5.027   5.139   7.399 -0.2555  1.1478 -0.1512
  862MOL0     H16316   5.005   5.025   7.533  0.5758 -0.1384 -0.5379
  862MOL0     H16317   4.927   5.148   7.686 -2.4056 -0.9406 -0.4152
  862MOL0     H16318   4.971   5.308   7.612  1.9548 -1.1919  0.0055
  862MOL0     H16319   4.785   5.114   7.486  1.2789  0.8012 -1.7713
  862MOL0     H16320   4.839   5.278   7.429 -1.6254  1.8629 -0.1333
  862MOL0     H16321   4.748   5.474   7.650  2.3717 -2.3347 -1.5243
  862MOL0     H16322   4.391   5.479   7.800  0.3717 -0.7152  0.7294
  862MOL0     H16323   4.557   5.569   7.794  0.7261  2.8427 -2.2382
  862MOL0     H16324   4.329   5.572   7.599  0.5303  0.0913 -0.4938
  862MOL0     H16325   4.481   5.620   7.544 -1.8809  0.5109 -0.7717
  862MOL0     H16326   4.324   5.740   7.764 -0.9232 -2.4913 -0.9991
  862MOL0     H16327   4.368   5.821   7.613  0.2723  1.8472  1.0750
  862MOL0     H16328   4.614   5.782   7.668  1.1476  1.4048  0.8533
  862MOL0     H16329   4.575   5.782   7.834 -1.6568 -4.2093 -1.3282
  862MOL0     H16330   4.519   6.173   7.623 -0.2563  2.0739  2.6581
  862MOL0     H16331   4.762   6.430   7.519  0.0878  0.5035  0.3949
  862MOL0     H16332   4.592   6.385   7.529  0.1736  2.2648 -0.4469
  862MOL0     H16333   4.676   6.457   7.672 -0.2564  0.8073 -0.4461
  862MOL0     H16334   5.162   6.510   7.719 -1.2260 -1.5578 -1.1102
  862MOL0     H16335   5.395   6.597   7.705  1.0184  0.0578  1.2271
  862MOL0     H16336   5.612   6.668   7.681  1.6701 -0.2407 -0.3764
  862MOL0     H16337   5.596   6.617   7.842 -0.4217  3.6855 -0.3812
  862MOL0     H16338   5.827   6.691   7.830  0.3155  0.8450 -0.6558
  862MOL0     H16339   5.809   6.517   7.862  2.0393  0.6955  0.0711
  862MOL0     H16340   5.902   6.629   7.593  0.4014 -2.7116 -2.7241
  862MOL0     H16341   5.858   6.466   7.617 -2.8080  0.8641 -1.0097
  862MOL0     H16342   6.058   6.608   7.795  4.2802  0.9738 -1.0597
  862MOL0     H16343   6.018   6.428   7.781 -0.0052  1.2982  2.5497
  862MOL0     H16344   6.129   6.584   7.552 -0.2691  0.6398  0.2919
  862MOL0     H16345   6.132   6.399   7.579  2.0223 -0.2262 -1.1149
  862MOL0     H16346   6.288   6.601   7.737  2.9512  0.8305  0.0403
  862MOL0     H16347   6.301   6.425   7.755  0.0522  0.1113  0.5704
  862MOL0     H16348   6.357   6.588   7.499 -0.8532  0.5772 -0.1122
  862MOL0     H16349   6.392   6.422   7.519  0.9033  0.9282 -1.8557
  862MOL0     H16350   6.619   6.526   7.573  0.5065  1.0437  0.3601
  862MOL0     H16351   6.543   6.487   7.720  0.6084 -0.2443 -0.0333
  862MOL0     H16352   5.546   6.199   7.691 -0.1027 -0.3484 -2.5635
  862MOL0     H16353   5.306   6.115   7.687  1.9499 -0.4232  0.3022
  862MOL0     H16354   4.965   6.045   7.779 -0.1633 -2.5205 -0.7310
  862MOL0     H16355   4.790   5.906   7.814 -2.3992 -1.4561 -1.4235
  862MOL0     H16356   5.867   4.976   7.696 -0.4836 -0.5439 -1.3043
  862MOL0     H16357   6.112   5.043   7.762  0.9075  0.7809  0.4122
  862MOL0     H16358   6.560   5.287   7.437 -3.5736  1.7574  1.5317
  862MOL0     H16359   6.807   5.313   7.523  0.5571  0.4664  0.6718
  862MOL0     H16360   6.917   5.263   7.934  0.0362 -0.3812 -1.8166
  862MOL0     H16361   6.914   5.126   7.827 -1.2677 -0.2979 -1.2850
  862MOL0     H16362   7.125   5.212   7.709  1.9350 -1.7263  0.4216
  862MOL0     H16363   7.157   5.151   7.870 -0.5822  0.3145 -0.4265
  862MOL0     H16364   7.162   5.378   7.965  0.0708  0.5777  0.1062
  862MOL0     H16365   7.112   5.440   7.803  1.1490 -0.1039  0.0715
  862MOL0     H16366   7.349   5.481   7.847  0.9740 -0.2315 -1.5057
  862MOL0     H16367   7.340   5.355   7.728  1.3590 -0.6216  0.1147
  862MOL0     H16368   7.491   5.149   8.080 -0.4926 -1.9165 -1.1650
  862MOL0     H16369   6.689   5.259   7.912  0.1222  0.9105 -0.6886
  862MOL0     H16370   6.431   5.275   7.839 -1.2397  0.7275 -1.1473
  863MOL0     O16371  10.309   9.597   8.578 -0.4035  0.6027  0.1168
  863MOL0     C16372  10.366   9.500   8.630  0.2305  0.1577  1.1580
  863MOL0     O16373  10.316   9.377   8.631 -0.5645 -0.4364 -0.5830
  863MOL0     C16374  10.209   9.332   8.559 -0.2150  0.1535  0.3529
  863MOL0     C16375  10.210   9.198   8.535 -0.0033  0.6168 -0.4494
  863MOL0     C16376  10.101   9.129   8.480  0.5112  0.6433 -0.1496
  863MOL0     C16377   9.978   9.198   8.458 -0.2216 -0.2556  0.0629
  863MOL0     O16378   9.868   9.154   8.397 -0.2488 -0.5605 -0.1864
  863MOL0     C16379   9.846   9.012   8.372 -0.7280 -1.0565  0.5443
  863MOL0     C16380   9.701   8.994   8.310 -0.6214  0.0191  0.0406
  863MOL0     C16381   9.663   8.847   8.280 -0.0903 -0.6918  0.4424
  863MOL0     C16382   9.540   8.847   8.193  0.1576  0.2839  0.6982
  863MOL0     C16383   9.500   8.699   8.157  0.2040 -0.3118  0.9161
  863MOL0     C16384   9.373   8.716   8.063  0.1471  0.1012  0.4318
  863MOL0     C16385   9.316   8.578   8.026 -0.8040 -0.0631 -0.2488
  863MOL0     C16386   9.220   8.593   7.915  0.1848 -0.2711  0.2549
  863MOL0     N16387   9.117   8.698   7.949  0.2164  0.1084  0.3057
  863MOL0     C16388   9.101   8.821   7.886 -0.1021  0.1016  1.2159
  863MOL0     C16389   9.004   8.878   7.954  0.5545 -0.4395 -0.3435
  863MOL0     C16390   8.947   9.020   7.937 -0.1693 -0.2872 -0.1495
  863MOL0     C16391   8.807   9.014   7.877  0.0589 -0.1178 -0.2682
  863MOL0     C16392   8.814   8.979   7.725  0.2257 -0.0878  0.8389
  863MOL0     C16393   8.689   8.898   7.688  0.0253 -0.6438  0.1194
  863MOL0     O16394   8.693   8.876   7.550 -0.4071  0.3626  0.6770
  863MOL0     C16395   8.580   8.834   7.484  0.3464  0.8850 -0.1041
  863MOL0     C16396   8.584   8.834   7.345  0.5567 -0.2010 -0.7685
  863MOL0     C16397   8.469   8.794   7.273 -0.0810 -0.8691 -0.2443
  863MOL0     C16398   8.482   8.787   7.131 -0.1848  0.5694  0.4296
  863MOL0     C16399   8.344   8.776   7.339  0.8153 -0.1714 -0.3352
  863MOL0     C16400   8.211   8.758   7.272 -0.0397  0.3198  1.1427
  863MOL0     O16401   8.204   8.769   7.132  0.1447  0.2568  0.2913
  863MOL0     C16402   8.094   8.732   7.055 -0.7660 -0.2335 -0.6140
  863MOL0     C16403   8.058   8.825   6.958  0.0323  0.1836  0.4694
  863MOL0     C16404   7.952   8.787   6.885  0.0256 -0.6279  0.4966
  863MOL0     C16405   7.875   8.678   6.915 -0.3758  0.0501 -0.8649
  863MOL0     O16406   7.774   8.629   6.842  0.1470 -0.5426 -0.3992
  863MOL0     C16407   7.759   8.678   6.706  0.3386 -0.2340  0.1046
  863MOL0     C16408   7.644   8.611   6.635  0.5477  0.5045 -0.7343
  863MOL0     C16409   7.512   8.623   6.700  0.1870  0.1553 -0.2609
  863MOL0     C16410   7.392   8.569   6.630  0.4801  0.3380  0.5358
  863MOL0     C16411   7.278   8.621   6.718  0.4363 -0.5418  0.4749
  863MOL0     C16412   7.142   8.597   6.650 -0.2416 -0.8055 -0.2423
  863MOL0     C16413   7.123   8.687   6.526 -0.1570  0.6453 -0.1737
  863MOL0     C16414   7.132   8.837   6.558 -1.5967  0.2447  0.0119
  863MOL0    Cl16415   7.030   8.886   6.702  0.3661 -0.2043  0.2065
  863MOL0     C16416   7.905   8.590   7.020  0.1290 -0.5049  0.1782
  863MOL0     C16417   8.023   8.620   7.089  1.0937  0.5686 -0.5602
  863MOL0     O16418   8.117   8.730   7.340  0.7173 -0.7028  0.0618
  863MOL0     C16419   8.344   8.775   7.480  0.2923  0.5652  0.3346
  863MOL0     C16420   8.457   8.809   7.546 -0.0377 -0.4477 -0.4787
  863MOL0     N16421   8.965   8.803   8.062  0.2838  0.7409 -0.6636
  863MOL0     N16422   9.035   8.694   8.056  0.1963  0.3549 -0.4669
  863MOL0     C16423   9.972   9.326   8.490 -0.9567  0.0356  0.3064
  863MOL0     C16424  10.088   9.402   8.539  0.1562  0.1589  0.4959
  863MOL0     C16425  10.500   9.527   8.683 -0.4818 -0.0533 -0.3646
  863MOL0     C16426  10.565   9.654   8.672 -0.6568 -0.4228 -0.2760
  863MOL0     C16427  10.695   9.670   8.723 -0.0183 -0.3664 -0.7140
  863MOL0     C16428  10.779   9.568   8.759  0.1139  0.0372 -0.1379
  863MOL0     O16429  10.903   9.596   8.815 -0.5207 -1.2080  0.2546
  863MOL0     C16430  10.981   9.498   8.880 -0.1226  0.1475 -0.4013
  863MOL0     C16431  11.044   9.398   8.772 -0.2796  0.0518 -0.6605
  863MOL0     C16432  11.153   9.470   8.684  0.2108  0.3466 -0.0262
  863MOL0     C16433  11.285   9.477   8.754  0.5988 -0.0198  0.3443
  863MOL0     C16434  11.378   9.551   8.671 -0.5514 -0.0715 -0.0110
  863MOL0     C16435  11.467   9.613   8.608  0.2917 -0.4099 -0.1409
  863MOL0     C16436  10.712   9.448   8.772 -0.1061 -0.0832  0.1248
  863MOL0     C16437  10.582   9.427   8.735  1.3016 -0.7309 -0.6137
  863MOL0     H16438  10.302   9.143   8.551 -0.5976 -0.9705 -2.1712
  863MOL0     H16439  10.098   9.023   8.455  0.6413  1.1304 -2.4648
  863MOL0     H16440   9.926   8.983   8.303  0.0226  1.7231  0.1231
  863MOL0     H16441   9.858   8.964   8.470 -0.3607 -1.2824  0.3936
  863MOL0     H16442   9.625   9.034   8.378 -0.4559 -0.0971  0.2957
  863MOL0     H16443   9.691   9.064   8.226 -1.9760  1.5513  1.4138
  863MOL0     H16444   9.748   8.803   8.227 -0.6216 -0.0129 -1.0192
  863MOL0     H16445   9.631   8.799   8.373 -0.0007  1.6059  1.7326
  863MOL0     H16446   9.454   8.889   8.245 -0.1021 -0.9965  1.3313
  863MOL0     H16447   9.559   8.899   8.098  3.3055 -1.1727  0.3919
  863MOL0     H16448   9.575   8.636   8.109 -0.0353 -0.5596  0.8702
  863MOL0     H16449   9.470   8.640   8.244  0.0264 -4.2981 -1.6375
  863MOL0     H16450   9.298   8.758   8.130  1.2132 -1.0939  2.4823
  863MOL0     H16451   9.386   8.778   7.974 -0.1944 -0.7360 -0.2102
  863MOL0     H16452   9.392   8.507   7.993  0.4671 -0.3253  2.9375
  863MOL0     H16453   9.269   8.546   8.119  0.1960  2.3575  1.2039
  863MOL0     H16454   9.172   8.496   7.899  1.6376 -0.8957 -0.5427
  863MOL0     H16455   9.280   8.616   7.827 -0.5367 -2.0237 -0.7564
  863MOL0     H16456   9.158   8.868   7.806 -0.6585  0.1055  0.8219
  863MOL0     H16457   8.933   9.064   8.036  1.5966 -0.3700  0.1779
  863MOL0     H16458   9.006   9.085   7.871  1.2658  1.0359  2.2994
  863MOL0     H16459   8.750   9.106   7.892 -0.0484 -0.4152  1.3496
  863MOL0     H16460   8.754   8.932   7.927  0.7725 -0.1625  0.4264
  863MOL0     H16461   8.901   8.918   7.701 -0.3724 -1.8719  2.8655
  863MOL0     H16462   8.814   9.073   7.669 -0.6480  0.4874  1.7509
  863MOL0     H16463   8.612   8.964   7.730  1.8126  0.3240  2.0719
  863MOL0     H16464   8.677   8.804   7.742  3.2668 -0.1996  1.8276
  863MOL0     H16465   8.679   8.848   7.296  1.9664 -1.1452  1.5032
  863MOL0     H16466   8.429   8.875   7.095 -2.0496 -0.8697 -0.5048
  863MOL0     H16467   8.588   8.800   7.109 -0.5076  3.1131  0.0401
  863MOL0     H16468   8.445   8.693   7.090  2.8357 -1.1636  1.3727
  863MOL0     H16469   8.126   8.907   6.940  1.2734 -0.2957  2.6355
  863MOL0     H16470   7.927   8.859   6.808 -2.1448 -0.7703  1.0032
  863MOL0     H16471   7.732   8.784   6.708  3.5631  0.7025 -0.0512
  863MOL0     H16472   7.851   8.668   6.647  1.7941 -0.8946  2.3428
  863MOL0     H16473   7.639   8.645   6.531  2.9178 -0.0434 -1.0938
  863MOL0     H16474   7.681   8.508   6.637  0.3958  0.4423  1.6361
  863MOL0     H16475   7.496   8.729   6.723 -2.7461 -0.1751 -0.4509
  863MOL0     H16476   7.534   8.587   6.801  3.3363 -0.7019 -1.1479
  863MOL0     H16477   7.393   8.611   6.529  4.4826  1.8354  1.0518
  863MOL0     H16478   7.388   8.459   6.636 -1.2889  0.4149  1.6982
  863MOL0     H16479   7.292   8.726   6.742  1.7179 -1.1335  2.5427
  863MOL0     H16480   7.279   8.574   6.817  1.3474  1.2185  1.3384
  863MOL0     H16481   7.131   8.493   6.620  0.4796 -1.6367  2.2077
  863MOL0     H16482   7.070   8.625   6.728  0.8608  1.9199 -0.0614
  863MOL0     H16483   7.023   8.670   6.486  0.2938  0.8435 -1.4331
  863MOL0     H16484   7.198   8.663   6.450  0.2060  1.4266 -0.0750
  863MOL0     H16485   7.108   8.907   6.478 -4.3063 -0.4972  0.0866
  863MOL0     H16486   7.234   8.863   6.588 -1.6582  1.2073 -0.5880
  863MOL0     H16487   7.844   8.505   7.049  1.1815 -0.7480  1.7986
  863MOL0     H16488   8.062   8.556   7.167  1.0684  2.8080  1.4107
  863MOL0     H16489   8.262   8.748   7.546  0.3062  1.3715  0.6834
  863MOL0     H16490   8.453   8.809   7.654  1.3404 -1.8300 -0.3921
  863MOL0     H16491   9.880   9.384   8.480  0.5259  2.3311 -0.9290
  863MOL0     H16492  10.084   9.508   8.561  0.9036  0.6460 -1.5249
  863MOL0     H16493  10.515   9.733   8.616  0.6769 -0.1607 -1.1293
  863MOL0     H16494  10.743   9.767   8.717  0.3540 -0.6443 -3.2584
  863MOL0     H16495  11.058   9.557   8.930  0.5868  0.6678 -2.0520
  863MOL0     H16496  10.912   9.460   8.956 -0.0337  1.3598  0.3224
  863MOL0     H16497  10.973   9.352   8.702  2.2262 -0.2074 -3.1727
  863MOL0     H16498  11.078   9.305   8.819 -1.5391  1.1323  2.6799
  863MOL0     H16499  11.107   9.560   8.644 -2.1043  0.0118  1.7048
  863MOL0     H16500  11.171   9.400   8.601 -2.8733  1.2227 -1.5905
  863MOL0     H16501  11.330   9.378   8.767 -1.2269 -0.9661 -0.1958
  863MOL0     H16502  11.288   9.527   8.851  2.6902 -0.5299  0.5997
  863MOL0     H16503  11.536   9.662   8.541 -1.1583 -1.7142 -2.7261
  863MOL0     H16504  10.758   9.356   8.809  0.4508  0.3260  0.4616
  863MOL0     H16505  10.540   9.329   8.756  1.1995 -0.2346  1.8613
  864MOL0     O16506   2.329   3.018   2.602  0.4009  0.6282  0.1104
  864MOL0     C16507   2.421   3.094   2.572 -0.5892  0.5007 -0.0832
  864MOL0     O16508   2.423   3.180   2.468  0.8700  0.2359  0.1483
  864MOL0     C16509   2.308   3.206   2.393  0.0229  0.5972 -0.3297
  864MOL0     C16510   2.265   3.108   2.296 -0.2027  0.3445 -0.1785
  864MOL0     C16511   2.144   3.118   2.237 -0.2559  0.5616  0.3208
  864MOL0     C16512   2.068   3.239   2.249  0.3462  0.1179  1.5086
  864MOL0     O16513   1.945   3.261   2.184 -0.4437 -0.8211  0.2092
  864MOL0     C16514   1.909   3.172   2.075 -0.4500 -0.3382  0.1851
  864MOL0     C16515   1.847   3.255   1.965  0.5675 -0.1333 -0.0238
  864MOL0     C16516   1.933   3.380   1.918  0.3969 -0.7006  0.5999
  864MOL0     C16517   1.924   3.427   1.777 -0.0948  0.6500  0.5796
  864MOL0     C16518   1.792   3.479   1.714 -0.7180  0.3295  0.0326
  864MOL0     C16519   1.819   3.540   1.568  0.3726  0.0393  0.5448
  864MOL0     C16520   1.688   3.574   1.501 -0.2894  0.3273  0.2924
  864MOL0     C16521   1.707   3.621   1.357  0.4791  0.0868 -0.0426
  864MOL0     N16522   1.740   3.755   1.336  0.2073  0.4053  0.1694
  864MOL0     C16523   1.650   3.860   1.324 -0.0166  0.1650 -0.4827
  864MOL0     C16524   1.730   3.969   1.307  0.4917  0.1230 -0.7642
  864MOL0     C16525   1.669   4.109   1.287  0.1949  0.3624  0.4910
  864MOL0     C16526   1.766   4.221   1.304 -0.3886  0.4606  0.3302
  864MOL0     C16527   1.806   4.232   1.454  0.1744 -0.5902  0.7802
  864MOL0     C16528   1.755   4.364   1.523 -0.1200  0.9435  0.3475
  864MOL0     O16529   1.799   4.477   1.451  0.3433  0.8415  0.0317
  864MOL0     C16530   1.921   4.538   1.471  0.5011 -0.0875 -0.1849
  864MOL0     C16531   1.949   4.653   1.396  0.3129 -0.4503  0.2086
  864MOL0     C16532   2.072   4.723   1.418 -1.5144  0.7591  1.0080
  864MOL0     C16533   2.100   4.847   1.335 -0.4507 -0.8039 -0.4719
  864MOL0     C16534   2.173   4.677   1.499  0.0149  1.1466 -0.7437
  864MOL0     C16535   2.305   4.726   1.513  0.3959 -0.7980 -0.0874
  864MOL0     O16536   2.401   4.631   1.533 -0.6751  0.3543  0.0235
  864MOL0     C16537   2.533   4.683   1.557  0.4492 -0.4785  0.8606
  864MOL0     C16538   2.605   4.764   1.471  0.1882  0.0498  0.0068
  864MOL0     C16539   2.738   4.808   1.500 -0.0769  0.0756 -0.4701
  864MOL0     C16540   2.793   4.773   1.626 -0.4816  0.7768  0.1030
  864MOL0     O16541   2.917   4.816   1.652  0.0291  0.1386  0.2105
  864MOL0     C16542   3.005   4.878   1.552  0.1478 -0.1901  0.6786
  864MOL0     C16543   3.134   4.903   1.613 -0.8184 -0.0816  0.3626
  864MOL0     C16544   3.225   4.779   1.614 -0.3362 -0.1131  0.1784
  864MOL0     C16545   3.343   4.814   1.699  0.2799  0.6840 -0.3722
  864MOL0     C16546   3.466   4.738   1.653  0.5068  0.3156 -1.0301
  864MOL0     C16547   3.441   4.584   1.661 -0.2654 -0.7799  0.5762
  864MOL0     C16548   3.421   4.530   1.793 -0.7948 -0.3843  0.2433
  864MOL0     C16549   3.450   4.384   1.806 -1.1018  1.0773  0.7952
  864MOL0    Cl16550   3.351   4.280   1.703  0.3216 -0.1176  0.2626
  864MOL0     C16551   2.712   4.714   1.716 -0.3634  0.0865 -0.0626
  864MOL0     C16552   2.586   4.657   1.681 -0.0521  0.7779  0.4622
  864MOL0     O16553   2.323   4.847   1.523 -0.0599 -0.6025 -0.5558
  864MOL0     C16554   2.137   4.560   1.571 -0.4621  0.9380 -0.2634
  864MOL0     C16555   2.015   4.493   1.565  0.4892  0.6714  0.0822
  864MOL0     N16556   1.859   3.931   1.307  0.1271  0.1643  0.7121
  864MOL0     N16557   1.866   3.805   1.326  0.1313  0.8835  0.9441
  864MOL0     C16558   2.116   3.340   2.330 -0.8941 -0.0410  0.1208
  864MOL0     C16559   2.234   3.321   2.405 -0.1957  0.1010  0.6318
  864MOL0     C16560   2.543   3.089   2.661 -0.3589 -0.5407  0.8042
  864MOL0     C16561   2.663   3.149   2.613 -0.2071 -0.1021  0.0136
  864MOL0     C16562   2.782   3.163   2.693 -0.2564 -0.0775 -0.8110
  864MOL0     C16563   2.780   3.108   2.826  0.6125  0.0864 -0.4503
  864MOL0     O16564   2.886   3.111   2.917 -0.1227 -0.2472  0.0211
  864MOL0     C16565   2.986   3.211   2.886  0.3866  0.1301 -0.3102
  864MOL0     C16566   3.051   3.269   3.013  0.1207 -0.4757 -0.8224
  864MOL0     C16567   3.064   3.156   3.120  0.0390  0.6439  0.8336
  864MOL0     C16568   3.126   3.202   3.256  0.9643  0.1585  1.2831
  864MOL0     C16569   3.146   3.079   3.332  0.2384 -0.3735  0.7960
  864MOL0     C16570   3.159   2.972   3.380 -0.5316 -0.1703  0.0398
  864MOL0     C16571   2.660   3.049   2.872  1.1466  0.1054  0.3692
  864MOL0     C16572   2.545   3.042   2.795  0.0024 -0.2782  0.1942
  864MOL0     H16573   2.318   3.015   2.275 -0.9908  0.0802 -1.0655
  864MOL0     H16574   2.104   3.039   2.174 -1.3227 -0.8444  2.6528
  864MOL0     H16575   1.994   3.129   2.023 -1.1108 -0.3634 -0.9014
  864MOL0     H16576   1.840   3.096   2.112 -2.1587  1.1272  0.1571
  864MOL0     H16577   1.828   3.183   1.885 -3.6129  0.6363  0.0400
  864MOL0     H16578   1.750   3.300   1.988  0.7951 -0.0181  0.7388
  864MOL0     H16579   1.906   3.466   1.981  0.0085  0.5516 -1.2235
  864MOL0     H16580   2.039   3.357   1.933  0.0700 -1.6210  1.6523
  864MOL0     H16581   1.990   3.513   1.760  1.1210 -0.8020 -2.8638
  864MOL0     H16582   1.964   3.346   1.716 -1.0611  1.5562 -1.3262
  864MOL0     H16583   1.711   3.406   1.705 -0.2117 -0.5389  1.9720
  864MOL0     H16584   1.755   3.557   1.782 -1.2690 -1.0453  1.3846
  864MOL0     H16585   1.881   3.630   1.582  0.3800  0.8629 -3.5877
  864MOL0     H16586   1.887   3.482   1.505  0.4175 -1.8889  2.2813
  864MOL0     H16587   1.635   3.478   1.496  1.3697 -0.6249  0.3971
  864MOL0     H16588   1.636   3.657   1.549 -2.2713 -0.9359  0.4764
  864MOL0     H16589   1.609   3.598   1.315  0.5587 -3.2589  1.2726
  864MOL0     H16590   1.788   3.567   1.307 -0.9066  0.1562 -2.5317
  864MOL0     H16591   1.543   3.852   1.332 -0.1152  1.2708 -0.6078
  864MOL0     H16592   1.650   4.123   1.181  1.2750  0.3735  0.2829
  864MOL0     H16593   1.577   4.124   1.344 -1.1922 -0.9117 -1.2845
  864MOL0     H16594   1.713   4.311   1.270 -2.1318 -0.9116 -0.7285
  864MOL0     H16595   1.850   4.197   1.238  1.3898 -0.7607  2.8574
  864MOL0     H16596   1.915   4.237   1.450  0.1303  0.2786  0.4305
  864MOL0     H16597   1.769   4.144   1.508  0.6605 -0.0786  2.0010
  864MOL0     H16598   1.791   4.360   1.626  0.0509  1.2983  0.3035
  864MOL0     H16599   1.646   4.372   1.526 -0.3327 -0.9477 -0.7371
  864MOL0     H16600   1.883   4.701   1.325  2.0236  1.8576  0.0477
  864MOL0     H16601   2.083   4.944   1.382  1.6618 -0.0839 -1.0978
  864MOL0     H16602   2.198   4.855   1.287 -1.2860  1.6883 -1.9657
  864MOL0     H16603   2.037   4.843   1.245  0.4920 -0.0895 -1.1807
  864MOL0     H16604   2.557   4.788   1.377 -2.5162  1.5795  1.6181
  864MOL0     H16605   2.796   4.865   1.428  0.8652 -0.5005 -0.1876
  864MOL0     H16606   3.031   4.827   1.459  1.9075  1.3187  0.2745
  864MOL0     H16607   2.957   4.972   1.522  0.6449  0.3112  1.4075
  864MOL0     H16608   3.187   4.985   1.564  1.7677  1.0702  4.5101
  864MOL0     H16609   3.119   4.934   1.717  0.7249 -0.7379  0.8156
  864MOL0     H16610   3.247   4.754   1.510  4.0793  1.4795  0.5140
  864MOL0     H16611   3.167   4.702   1.665 -1.0507  0.4665  0.2598
  864MOL0     H16612   3.359   4.922   1.687  1.8387  0.2005 -3.7993
  864MOL0     H16613   3.318   4.798   1.804  1.9210  4.5515  0.7981
  864MOL0     H16614   3.552   4.770   1.712 -2.0055  0.6398  2.8233
  864MOL0     H16615   3.492   4.759   1.549 -0.1493  0.9050 -1.0833
  864MOL0     H16616   3.350   4.573   1.601  0.0834  0.3919 -0.1993
  864MOL0     H16617   3.518   4.527   1.608  0.5469  1.1160 -0.3568
  864MOL0     H16618   3.314   4.537   1.815 -1.0319 -3.2972  0.4908
  864MOL0     H16619   3.480   4.590   1.862 -1.7858  0.3348  0.4855
  864MOL0     H16620   3.429   4.358   1.911 -2.6264 -1.0237  0.0414
  864MOL0     H16621   3.556   4.367   1.784 -1.3592 -0.5962  0.7432
  864MOL0     H16622   2.744   4.710   1.820 -3.6308 -1.3399  1.0135
  864MOL0     H16623   2.522   4.618   1.759 -0.1196  1.2587  0.6499
  864MOL0     H16624   2.209   4.521   1.643  0.8180  1.0766 -1.4200
  864MOL0     H16625   2.001   4.412   1.636 -0.7998  0.7075 -0.1169
  864MOL0     H16626   2.058   3.431   2.346 -0.7280  0.1003 -0.0767
  864MOL0     H16627   2.273   3.394   2.474 -1.6858  2.2435 -0.6852
  864MOL0     H16628   2.683   3.182   2.512 -2.9023  3.1092  0.3524
  864MOL0     H16629   2.864   3.227   2.661  1.1954  0.1144  2.8347
  864MOL0     H16630   3.062   3.166   2.821  1.6998  1.5073  0.2208
  864MOL0     H16631   2.934   3.298   2.844 -0.1450  0.5472  1.1589
  864MOL0     H16632   3.000   3.356   3.054  2.8678  0.7729  0.2368
  864MOL0     H16633   3.152   3.303   2.988  0.0318  0.4711  0.0705
  864MOL0     H16634   3.123   3.074   3.078 -1.8306 -0.1097 -0.4814
  864MOL0     H16635   2.965   3.119   3.148  1.1728 -0.4205  3.7706
  864MOL0     H16636   3.054   3.265   3.310 -3.8782 -1.5785 -2.3551
  864MOL0     H16637   3.222   3.252   3.243  1.1378  0.4133  3.2004
  864MOL0     H16638   3.177   2.871   3.412  0.9280 -0.0501 -0.2986
  864MOL0     H16639   2.657   3.008   2.973 -0.6777  0.4522  0.4924
  864MOL0     H16640   2.448   3.009   2.832 -0.9738  1.1328 -0.9861
  865MOL0     O16641   1.974   6.168   6.525 -0.0228 -0.2441  0.2813
  865MOL0     C16642   1.945   6.177   6.400 -0.3048 -0.2644 -0.0388
  865MOL0     O16643   1.865   6.266   6.355  0.6958 -0.6846  0.0255
  865MOL0     C16644   1.772   6.321   6.448 -0.6027  0.2802  0.4702
  865MOL0     C16645   1.682   6.247   6.531  0.0904  0.4847  0.1908
  865MOL0     C16646   1.574   6.308   6.592  0.5464 -0.9552  0.5009
  865MOL0     C16647   1.555   6.446   6.586  0.3717 -0.0157  0.0527
  865MOL0     O16648   1.442   6.520   6.643 -0.3513  0.1646 -0.0826
  865MOL0     C16649   1.358   6.450   6.733  0.1394 -0.3144  0.4800
  865MOL0     C16650   1.280   6.554   6.825 -0.4419 -0.9515 -0.1549
  865MOL0     C16651   1.129   6.562   6.814 -0.7818 -1.1085  0.5813
  865MOL0     C16652   1.065   6.700   6.826 -0.1973  0.1370  0.2841
  865MOL0     C16653   0.918   6.711   6.786  0.5946 -0.3643 -1.1251
  865MOL0     C16654   0.869   6.858   6.762 -0.2697  0.3547  0.1514
  865MOL0     C16655   0.723   6.877   6.714  0.5464  0.0592  0.5384
  865MOL0     C16656   0.705   7.025   6.698  0.5776 -0.4793 -0.3247
  865MOL0     N16657   0.570   7.051   6.652  0.0605  0.2746 -0.3149
  865MOL0     C16658   0.465   7.083   6.735  0.2473  0.4126 -0.1148
  865MOL0     C16659   0.371   7.142   6.661  0.0714 -0.5011 -0.5331
  865MOL0     C16660   0.241   7.197   6.712  0.6422  0.5294 -0.3608
  865MOL0     C16661   0.132   7.078   6.710  0.5251  0.1518  0.4995
  865MOL0     C16662  -0.001   7.141   6.728  0.2677 -0.8902  0.4611
  865MOL0     C16663  -0.105   7.035   6.723  0.5622 -0.0847 -0.4859
  865MOL0     O16664  -0.223   7.100   6.768  0.2199 -0.1040 -0.0024
  865MOL0     C16665  -0.329   7.015   6.799 -0.1173  0.5107  0.4558
  865MOL0     C16666  -0.339   6.885   6.761  1.7783  0.6776  0.6338
  865MOL0     C16667  -0.444   6.802   6.803 -0.8772 -0.1091  0.1036
  865MOL0     C16668  -0.456   6.662   6.740  0.4079 -1.1577 -0.2739
  865MOL0     C16669  -0.539   6.855   6.897  0.7078 -0.2817 -0.4986
  865MOL0     C16670  -0.650   6.777   6.944  0.3804  0.4868  0.6311
  865MOL0     O16671  -0.659   6.646   6.926  0.2575 -0.3491 -0.0548
  865MOL0     C16672  -0.781   6.584   6.947  0.1471 -0.6826  0.1327
  865MOL0     C16673  -0.837   6.559   7.065  0.0553  1.0020 -1.0201
  865MOL0     C16674  -0.965   6.500   7.074  0.2482 -0.4675  0.7205
  865MOL0     C16675  -1.044   6.467   6.965  0.1436  0.5119 -0.2182
  865MOL0     O16676  -1.168   6.425   6.958 -0.5304  0.0481 -0.1135
  865MOL0     C16677  -1.232   6.382   7.082 -0.2833  0.1717  0.1774
  865MOL0     C16678  -1.373   6.321   7.040  0.4103  0.0722 -0.6761
  865MOL0     C16679  -1.490   6.410   7.092  0.3784  0.0425 -0.4611
  865MOL0     C16680  -1.632   6.383   7.029 -1.3402  0.0707 -0.4042
  865MOL0     C16681  -1.719   6.288   7.099  0.8949  0.3907 -0.2567
  865MOL0     C16682  -1.860   6.293   7.040 -0.2272 -0.7420  0.1288
  865MOL0     C16683  -1.935   6.164   7.082  0.5245 -0.4119  0.2051
  865MOL0     C16684  -2.070   6.171   6.999 -0.6388  0.2471 -1.0145
  865MOL0    Cl16685  -2.151   6.021   7.021  0.2933  0.0732 -0.0079
  865MOL0     C16686  -0.984   6.490   6.838  0.1731 -0.5604  0.3852
  865MOL0     C16687  -0.852   6.534   6.829  0.0157 -0.0783 -0.0017
  865MOL0     O16688  -0.721   6.843   7.015 -0.8933  0.1932 -0.4608
  865MOL0     C16689  -0.532   6.992   6.931 -0.7213  0.2012 -0.2946
  865MOL0     C16690  -0.430   7.070   6.875  0.1459  0.0587 -0.3678
  865MOL0     N16691   0.408   7.143   6.533 -0.3221  0.5896 -0.2838
  865MOL0     N16692   0.535   7.100   6.526 -0.0493 -0.0813  0.8803
  865MOL0     C16693   1.654   6.521   6.521 -0.2449  0.4882 -0.2765
  865MOL0     C16694   1.751   6.455   6.439  0.6269 -0.4078  0.0751
  865MOL0     C16695   2.006   6.084   6.308 -0.6428 -0.0626 -0.2795
  865MOL0     C16696   1.965   6.083   6.174 -0.2786  0.7013 -0.3656
  865MOL0     C16697   2.032   6.011   6.079  0.5740 -0.2228  1.1118
  865MOL0     C16698   2.136   5.928   6.108  0.3075 -0.2798 -0.0848
  865MOL0     O16699   2.191   5.845   6.014 -0.4330  0.6191 -0.4808
  865MOL0     C16700   2.311   5.778   6.043 -0.0470  0.4855  0.8975
  865MOL0     C16701   2.347   5.677   5.933 -0.6165  0.0843 -0.7609
  865MOL0     C16702   2.475   5.601   5.981 -0.3947  0.1973  0.0355
  865MOL0     C16703   2.520   5.507   5.871 -0.1190 -0.1370 -0.1179
  865MOL0     C16704   2.653   5.451   5.905  0.8918  1.0996 -0.2585
  865MOL0     C16705   2.751   5.394   5.943  0.4226 -0.5095 -0.4241
  865MOL0     C16706   2.177   5.923   6.244 -0.0196  0.0096 -0.3960
  865MOL0     C16707   2.107   6.000   6.339  0.1491  1.0768 -0.8304
  865MOL0     H16708   1.701   6.140   6.524 -2.2968 -0.0767  1.0067
  865MOL0     H16709   1.492   6.252   6.637  1.8500 -2.6708  0.8503
  865MOL0     H16710   1.295   6.386   6.671  3.0911 -1.0625 -2.0156
  865MOL0     H16711   1.423   6.390   6.797  1.3246  0.5788  0.1567
  865MOL0     H16712   1.300   6.525   6.929 -1.9865  1.6284  0.9902
  865MOL0     H16713   1.318   6.656   6.811 -1.5525 -0.6459 -1.1060
  865MOL0     H16714   1.093   6.524   6.718  1.5926  0.8610 -1.1916
  865MOL0     H16715   1.088   6.502   6.896 -2.1401  0.4355  1.0731
  865MOL0     H16716   1.078   6.738   6.928 -0.5321  0.1577  0.3200
  865MOL0     H16717   1.123   6.767   6.762  2.5394 -2.0155  0.3456
  865MOL0     H16718   0.891   6.657   6.695 -0.3266 -1.0101 -0.4866
  865MOL0     H16719   0.863   6.670   6.870  0.5213  1.4264 -0.2431
  865MOL0     H16720   0.896   6.916   6.851  0.2044 -1.2134  1.0793
  865MOL0     H16721   0.930   6.889   6.677 -2.4345 -2.3212 -2.5768
  865MOL0     H16722   0.715   6.826   6.618 -0.8751  0.0321  0.6484
  865MOL0     H16723   0.668   6.825   6.793  3.2735  0.0376  2.5654
  865MOL0     H16724   0.781   7.058   6.626 -2.3689 -0.7650 -3.8664
  865MOL0     H16725   0.719   7.077   6.793  1.3099 -0.3054 -0.5198
  865MOL0     H16726   0.463   7.075   6.843 -3.7061  2.5159  0.1660
  865MOL0     H16727   0.248   7.251   6.806 -0.2373 -0.1846  0.1297
  865MOL0     H16728   0.206   7.271   6.639  1.4945  1.0545 -0.2400
  865MOL0     H16729   0.163   7.025   6.800  1.1299  0.7724  0.6629
  865MOL0     H16730   0.141   7.012   6.623 -3.7770 -0.4011  0.2500
  865MOL0     H16731  -0.014   7.219   6.652  0.9486 -0.0644  1.1603
  865MOL0     H16732  -0.008   7.188   6.827 -0.0293 -1.0333  0.5073
  865MOL0     H16733  -0.071   6.954   6.789 -0.7149 -1.3239 -1.2833
  865MOL0     H16734  -0.109   6.987   6.625  1.4768 -0.5194 -0.3184
  865MOL0     H16735  -0.263   6.848   6.693  2.1852  1.1088  0.8450
  865MOL0     H16736  -0.551   6.645   6.687 -0.2157  0.9840  0.0753
  865MOL0     H16737  -0.372   6.649   6.672  0.5758  0.7526 -0.4857
  865MOL0     H16738  -0.452   6.594   6.825 -2.1080 -1.2017 -0.0953
  865MOL0     H16739  -0.774   6.593   7.147  0.2937 -1.7432  0.0607
  865MOL0     H16740  -1.010   6.491   7.173  1.9310 -1.4299  1.4413
  865MOL0     H16741  -1.177   6.302   7.131 -2.1563 -0.9980  0.4307
  865MOL0     H16742  -1.254   6.470   7.143 -2.3207 -0.7070  0.8094
  865MOL0     H16743  -1.381   6.311   6.932  0.8837  0.5765 -0.7634
  865MOL0     H16744  -1.386   6.220   7.080  0.3453 -0.1649 -1.2868
  865MOL0     H16745  -1.469   6.515   7.067  0.0096  0.3488  0.4594
  865MOL0     H16746  -1.497   6.407   7.201  3.6567 -1.1390 -0.1555
  865MOL0     H16747  -1.692   6.473   7.036 -0.9566  0.2147  2.2540
  865MOL0     H16748  -1.601   6.348   6.930  2.6707 -0.0340  0.6867
  865MOL0     H16749  -1.722   6.307   7.206  0.8624  0.7462 -0.3201
  865MOL0     H16750  -1.669   6.193   7.080 -1.1584 -0.4289 -2.0093
  865MOL0     H16751  -1.918   6.382   7.066 -0.3943 -1.7155  3.6562
  865MOL0     H16752  -1.839   6.288   6.933 -0.0981  0.7786  0.0710
  865MOL0     H16753  -1.956   6.162   7.189 -1.5574 -1.2323 -0.1627
  865MOL0     H16754  -1.878   6.077   7.047  1.9448  0.3657  0.5291
  865MOL0     H16755  -2.036   6.186   6.896  1.9898  1.6124 -0.0403
  865MOL0     H16756  -2.136   6.253   7.028  2.3607  2.6526 -0.4201
  865MOL0     H16757  -1.043   6.463   6.752 -0.3928 -0.2356  0.6643
  865MOL0     H16758  -0.805   6.535   6.731 -2.5756 -0.3018 -1.3338
  865MOL0     H16759  -0.587   7.048   7.006  0.5779  1.1109 -0.0088
  865MOL0     H16760  -0.434   7.178   6.889 -0.3972  0.3206 -2.2434
  865MOL0     H16761   1.641   6.629   6.522  0.3664  0.5618  0.2780
  865MOL0     H16762   1.821   6.517   6.383  1.8281 -0.5697  1.3462
  865MOL0     H16763   1.881   6.142   6.141 -1.7007 -1.1702 -0.2275
  865MOL0     H16764   1.991   6.024   5.980 -0.1745  3.6353  1.7932
  865MOL0     H16765   2.386   5.857   6.032  0.0811  0.3563  0.8439
  865MOL0     H16766   2.309   5.727   6.139  1.7592 -0.6624  0.3633
  865MOL0     H16767   2.345   5.731   5.838 -1.4809  2.0989  0.3363
  865MOL0     H16768   2.269   5.601   5.919  0.6230 -1.2589 -0.5360
  865MOL0     H16769   2.453   5.529   6.059 -0.2926 -0.5473 -0.6106
  865MOL0     H16770   2.554   5.674   5.999  2.1380 -2.1971 -0.7582
  865MOL0     H16771   2.546   5.549   5.773  3.4629 -2.4293 -0.3367
  865MOL0     H16772   2.440   5.436   5.851 -0.2835  0.1073 -0.3285
  865MOL0     H16773   2.835   5.344   5.986 -0.3025 -2.7926 -1.4900
  865MOL0     H16774   2.258   5.860   6.277  1.0039  2.5099  2.2495
  865MOL0     H16775   2.153   5.988   6.437 -0.2894  1.4630 -0.5692
  866MOL0     O16776  10.856   2.207  10.972 -0.2620  0.4631  0.1648
  866MOL0     C16777  10.799   2.312  11.003  0.6331 -0.1173  0.6562
  866MOL0     O16778  10.665   2.341  10.981 -0.7325  0.6583 -0.6337
  866MOL0     C16779  10.596   2.239  10.929 -1.1677  0.3779 -0.4042
  866MOL0     C16780  10.495   2.162  10.982  0.4495 -0.3241  0.2708
  866MOL0     C16781  10.413   2.077  10.902 -0.6423  0.5482 -0.1196
  866MOL0     C16782  10.437   2.061  10.768  0.3628  0.2638  0.0882
  866MOL0     O16783  10.361   1.970  10.696  0.2788  0.2235 -0.4147
  866MOL0     C16784  10.347   1.987  10.553 -0.4187  0.5664  0.0346
  866MOL0     C16785  10.195   1.978  10.544 -0.0649  0.2719  0.5411
  866MOL0     C16786  10.159   1.998  10.400  0.3059  0.1216  0.2729
  866MOL0     C16787  10.155   1.870  10.316  0.2140  0.0148  0.0560
  866MOL0     C16788  10.026   1.797  10.359 -0.4228  0.2881 -0.7064
  866MOL0     C16789   9.989   1.692  10.244 -0.4687  0.5942  0.6053
  866MOL0     C16790   9.875   1.605  10.272  0.0926  0.5433 -0.0324
  866MOL0     C16791   9.818   1.541  10.145 -0.1905 -0.5546 -0.4898
  866MOL0     N16792   9.681   1.490  10.167  0.1856 -0.1439 -0.3131
  866MOL0     C16793   9.631   1.394  10.254 -0.0604 -1.1170 -0.2297
  866MOL0     C16794   9.503   1.370  10.215  0.6052 -0.0110 -0.1330
  866MOL0     C16795   9.429   1.256  10.285  0.0090 -0.2977  0.6830
  866MOL0     C16796   9.447   1.129  10.197 -0.3810  0.1723 -0.6469
  866MOL0     C16797   9.368   1.006  10.254 -0.1701 -0.1424 -0.0194
  866MOL0     C16798   9.228   1.015  10.203 -0.0559 -1.2058  0.7123
  866MOL0     O16799   9.146   0.912  10.257  0.3220 -0.1145 -0.4008
  866MOL0     C16800   9.026   0.880  10.208  0.1049  0.1981  1.1666
  866MOL0     C16801   8.973   0.759  10.250  0.1732  0.0598  0.1557
  866MOL0     C16802   8.842   0.713  10.197 -0.2520  0.2886 -0.1804
  866MOL0     C16803   8.786   0.581  10.251  0.5255 -0.6225 -0.1447
  866MOL0     C16804   8.773   0.793  10.108  0.1983 -0.1076 -0.6859
  866MOL0     C16805   8.645   0.754  10.051  0.6766  0.9527  0.4129
  866MOL0     O16806   8.597   0.833   9.947  0.7131 -0.2101  0.0452
  866MOL0     C16807   8.468   0.810   9.900 -1.1679 -0.1479  0.1670
  866MOL0     C16808   8.456   0.725   9.794 -0.0923  0.3703 -0.2126
  866MOL0     C16809   8.329   0.680   9.756 -0.6432 -0.5786 -0.1377
  866MOL0     C16810   8.214   0.729   9.815 -0.2170 -1.2527  0.3596
  866MOL0     O16811   8.083   0.700   9.789  0.0950 -0.0551  0.1747
  866MOL0     C16812   8.051   0.610   9.684  0.5891  0.5241 -0.0633
  866MOL0     C16813   7.902   0.565   9.708 -0.0317  0.1342  0.1777
  866MOL0     C16814   7.797   0.685   9.694  0.2149  0.1263  0.8652
  866MOL0     C16815   7.658   0.627   9.718 -0.4608  0.3274  1.2091
  866MOL0     C16816   7.558   0.738   9.742 -0.8975  0.3219 -0.4334
  866MOL0     C16817   7.443   0.679   9.808  0.5542 -0.4947 -0.2396
  866MOL0     C16818   7.330   0.783   9.841 -0.0815  0.2085 -0.1124
  866MOL0     C16819   7.274   0.841   9.704 -0.5939  0.0625  0.2639
  866MOL0    Cl16820   7.371   0.990   9.666  0.6370 -0.0799 -0.2946
  866MOL0     C16821   8.227   0.825   9.920 -0.4831 -0.1246 -0.3338
  866MOL0     C16822   8.353   0.862   9.969 -0.0065  0.0082 -0.7289
  866MOL0     O16823   8.575   0.668  10.100  0.6627  0.0084  0.2529
  866MOL0     C16824   8.839   0.904  10.053 -0.2963 -0.1304  0.5363
  866MOL0     C16825   8.960   0.952  10.104 -0.2721  1.0635  0.1586
  866MOL0     N16826   9.474   1.448  10.105 -0.3374  0.6296  0.3400
  866MOL0     N16827   9.578   1.520  10.085 -0.0459 -0.8830  0.0265
  866MOL0     C16828  10.541   2.128  10.713  0.5562 -0.0082 -0.7030
  866MOL0     C16829  10.614   2.224  10.790  0.4247 -0.1895  0.3524
  866MOL0     C16830  10.876   2.432  11.045  0.3332  0.7105  0.3654
  866MOL0     C16831  10.815   2.559  11.040 -0.3965  0.2357 -0.2215
  866MOL0     C16832  10.899   2.662  11.080  0.0135 -0.6401  0.4945
  866MOL0     C16833  11.038   2.650  11.119  0.1543 -0.5079 -0.2093
  866MOL0     O16834  11.094   2.757  11.170  0.2506 -0.0073  0.3186
  866MOL0     C16835  11.231   2.777  11.152 -0.1625  0.2575 -0.7217
  866MOL0     C16836  11.263   2.819  11.007  0.7388  0.1155  0.2840
  866MOL0     C16837  11.411   2.862  10.974  0.4294  0.7191  0.6660
  866MOL0     C16838  11.524   2.753  11.002 -1.4139 -0.1641 -0.0816
  866MOL0     C16839  11.574   2.776  11.135  0.2926 -0.8794 -1.0795
  866MOL0     C16840  11.615   2.795  11.250  0.1045  0.2660 -0.3203
  866MOL0     C16841  11.102   2.519  11.120  0.1183 -0.5772  0.8900
  866MOL0     C16842  11.023   2.414  11.079  0.5858  0.4215  0.8640
  866MOL0     H16843  10.474   2.173  11.088  0.8192 -2.6754  0.6403
  866MOL0     H16844  10.327   2.041  10.957 -0.6644  3.0414  1.6540
  866MOL0     H16845  10.383   2.083  10.514  0.1469  0.4828  0.3499
  866MOL0     H16846  10.404   1.903  10.513 -0.7700 -0.6856  2.0326
  866MOL0     H16847  10.157   1.887  10.590 -0.7768  1.2319  1.9462
  866MOL0     H16848  10.160   2.060  10.608 -3.5140 -3.0407  3.3629
  866MOL0     H16849  10.057   2.036  10.409 -0.1523 -0.2495 -2.5272
  866MOL0     H16850  10.222   2.072  10.350 -0.4009  0.1135 -0.6662
  866MOL0     H16851  10.154   1.898  10.211  3.5573  0.8545  0.1197
  866MOL0     H16852  10.237   1.799  10.333  0.8584  0.7681  0.1574
  866MOL0     H16853  10.039   1.757  10.459  1.6819  3.1163  0.3056
  866MOL0     H16854   9.944   1.868  10.374  0.9648  1.6239  0.9199
  866MOL0     H16855   9.979   1.744  10.149  0.0977  2.3250  1.4389
  866MOL0     H16856  10.077   1.631  10.220 -0.4628  0.3868  1.1379
  866MOL0     H16857   9.893   1.529  10.348 -3.6778  0.5197  1.0671
  866MOL0     H16858   9.801   1.674  10.313  1.5125  2.5072 -0.6072
  866MOL0     H16859   9.884   1.467  10.098  0.9414  0.8969 -1.2749
  866MOL0     H16860   9.800   1.618  10.069  4.2945  1.8813  0.5461
  866MOL0     H16861   9.690   1.339  10.326 -0.3865  0.0020  0.9275
  866MOL0     H16862   9.454   1.234  10.389  1.5806 -0.3581  0.3175
  866MOL0     H16863   9.322   1.279  10.292  0.0238 -0.2958  0.8916
  866MOL0     H16864   9.554   1.107  10.192 -0.6357 -0.9249 -1.6311
  866MOL0     H16865   9.405   1.153  10.099  1.4734 -0.8814 -1.7541
  866MOL0     H16866   9.365   1.002  10.363 -1.3424 -2.7531 -0.0769
  866MOL0     H16867   9.419   0.914  10.222  0.1131 -0.2816  0.8090
  866MOL0     H16868   9.235   0.996  10.096 -3.3836  1.2463 -0.0984
  866MOL0     H16869   9.194   1.119  10.199  0.0762 -1.2007 -1.0996
  866MOL0     H16870   9.032   0.715  10.330  0.7428  2.6323  1.2776
  866MOL0     H16871   8.691   0.590  10.303  1.2153 -1.0564  1.2472
  866MOL0     H16872   8.767   0.510  10.170 -2.3330  0.5017 -0.5641
  866MOL0     H16873   8.856   0.538  10.324 -0.5048 -0.0058  1.2561
  866MOL0     H16874   8.543   0.673   9.754 -0.5589 -0.0792 -0.6592
  866MOL0     H16875   8.321   0.608   9.676 -1.6547  1.7448 -2.2814
  866MOL0     H16876   8.061   0.655   9.585  1.1277  0.6346  0.0400
  866MOL0     H16877   8.116   0.523   9.697 -1.7952 -1.8926 -2.8574
  866MOL0     H16878   7.886   0.484   9.637 -1.5950  0.9911 -0.4919
  866MOL0     H16879   7.886   0.520   9.806  2.2302 -1.9396 -0.2845
  866MOL0     H16880   7.804   0.728   9.593 -1.3749  0.0484  0.6921
  866MOL0     H16881   7.819   0.761   9.769  1.9045 -0.6306  1.1932
  866MOL0     H16882   7.627   0.560   9.638  1.1511  0.3347  0.5421
  866MOL0     H16883   7.661   0.560   9.805  0.1605 -0.3565  0.6783
  866MOL0     H16884   7.538   0.777   9.642 -2.1112  0.6113 -0.0996
  866MOL0     H16885   7.593   0.819   9.807 -0.6512 -1.2428  1.5013
  866MOL0     H16886   7.389   0.612   9.741  0.7394  0.0699 -0.9608
  866MOL0     H16887   7.469   0.643   9.908  0.1570  4.3487  1.8496
  866MOL0     H16888   7.361   0.862   9.911  2.1979 -0.0416 -0.7854
  866MOL0     H16889   7.248   0.734   9.894 -0.2002 -0.0975 -0.5836
  866MOL0     H16890   7.175   0.885   9.719 -0.3940  0.7410 -0.3282
  866MOL0     H16891   7.275   0.770   9.622  2.1680 -1.1974  1.2603
  866MOL0     H16892   8.134   0.861   9.964 -2.3568 -2.9569 -1.6848
  866MOL0     H16893   8.357   0.926  10.056  2.2825  0.3623 -1.0440
  866MOL0     H16894   8.794   0.970   9.979  1.8395  1.0260  0.1752
  866MOL0     H16895   8.990   1.046  10.060  0.3889  1.5399  1.5775
  866MOL0     H16896  10.567   2.113  10.609 -1.4961 -3.0438 -0.9270
  866MOL0     H16897  10.703   2.269  10.748 -0.8713  1.2514 -0.9913
  866MOL0     H16898  10.713   2.579  11.010  0.1435  2.1072 -0.9026
  866MOL0     H16899  10.850   2.759  11.086 -0.7631 -0.9857 -0.0631
  866MOL0     H16900  11.263   2.856  11.221 -0.3416 -2.4219  2.7451
  866MOL0     H16901  11.296   2.696  11.187 -1.5609 -0.6551 -0.1509
  866MOL0     H16902  11.204   2.909  10.987 -1.0452 -0.5856  1.9907
  866MOL0     H16903  11.219   2.751  10.934 -1.6554  1.1830  0.6395
  866MOL0     H16904  11.438   2.963  11.007  1.2313  0.8239 -0.2673
  866MOL0     H16905  11.410   2.865  10.864 -1.1887  1.4793  0.6787
  866MOL0     H16906  11.604   2.770  10.929 -1.0474 -0.0301  0.3492
  866MOL0     H16907  11.484   2.653  10.986  2.1703 -1.9384  1.0154
  866MOL0     H16908  11.647   2.805  11.351 -1.0397  0.8374 -0.0069
  866MOL0     H16909  11.198   2.495  11.165  1.7619  1.7039 -1.1095
  866MOL0     H16910  11.062   2.313  11.084  1.6700  0.7646 -0.1217
  867MOL0     O16911   7.916  10.936   8.405  0.0730  0.8769 -0.6804
  867MOL0     C16912   7.971  11.024   8.470 -0.3682  0.0701 -1.2592
  867MOL0     O16913   7.924  11.150   8.493  0.3832 -0.2445  0.8413
  867MOL0     C16914   7.820  11.190   8.410  0.0408 -0.5707  0.4389
  867MOL0     C16915   7.836  11.321   8.344  0.6921  0.6644 -0.3478
  867MOL0     C16916   7.721  11.361   8.258  0.1557 -0.9199 -0.2530
  867MOL0     C16917   7.598  11.296   8.255  0.3604 -0.2107 -0.3920
  867MOL0     O16918   7.494  11.331   8.177  0.2716 -0.1785 -0.0754
  867MOL0     C16919   7.405  11.433   8.234  0.0783 -0.0839  0.2774
  867MOL0     C16920   7.297  11.378   8.317  0.2522 -1.0153  0.7116
  867MOL0     C16921   7.202  11.493   8.341  0.7698  1.3545  0.2155
  867MOL0     C16922   7.085  11.444   8.435 -0.0721  1.0242  0.6789
  867MOL0     C16923   6.976  11.547   8.466  0.9607  0.5747  0.6719
  867MOL0     C16924   6.866  11.541   8.358  0.4717  0.8845 -0.2016
  867MOL0     C16925   6.748  11.616   8.412  0.1024 -0.8401  0.0004
  867MOL0     C16926   6.634  11.588   8.309 -0.0322  0.4378  0.3560
  867MOL0     N16927   6.591  11.448   8.282 -0.2621 -0.2672  0.0371
  867MOL0     C16928   6.560  11.354   8.380 -0.5350 -0.9970 -0.3810
  867MOL0     C16929   6.532  11.238   8.309 -0.2148  0.1570 -0.4685
  867MOL0     C16930   6.503  11.097   8.361 -0.1361  0.1386  0.4631
  867MOL0     C16931   6.417  11.099   8.487  0.1526 -1.0950  0.3581
  867MOL0     C16932   6.375  10.957   8.536 -0.1956 -0.2572 -1.3732
  867MOL0     C16933   6.232  10.921   8.481 -0.3770  0.3479  0.4159
  867MOL0     O16934   6.122  10.948   8.574 -0.4198 -0.8502  0.0938
  867MOL0     C16935   5.991  10.948   8.522 -0.0164 -0.4227 -0.0674
  867MOL0     C16936   5.889  11.005   8.591  0.3296 -0.2432 -0.3569
  867MOL0     C16937   5.761  11.025   8.551  0.1778 -1.0101  0.2886
  867MOL0     C16938   5.665  11.087   8.652 -0.3016 -0.5420 -0.8444
  867MOL0     C16939   5.726  10.967   8.426 -0.3660 -0.7283  0.3478
  867MOL0     C16940   5.598  10.960   8.369  0.3182 -0.0067 -0.1255
  867MOL0     O16941   5.596  10.927   8.233  0.7557  0.5629 -0.2393
  867MOL0     C16942   5.470  10.909   8.179  0.8197 -0.7042  0.2143
  867MOL0     C16943   5.408  10.787   8.185 -0.0831 -0.4012  0.4300
  867MOL0     C16944   5.282  10.765   8.126  0.1548  0.3264 -0.3423
  867MOL0     C16945   5.222  10.871   8.054  0.4812 -0.1097 -0.7141
  867MOL0     O16946   5.103  10.840   7.992  0.4301  0.0974 -0.4135
  867MOL0     C16947   5.031  10.927   7.903 -0.5273 -0.1545  0.1494
  867MOL0     C16948   4.933  10.849   7.818  0.9034 -0.1126  0.6118
  867MOL0     C16949   4.812  10.795   7.891  0.7136  0.3251  1.2704
  867MOL0     C16950   4.726  10.898   7.973  0.2461  0.2129  0.3930
  867MOL0     C16951   4.595  10.834   8.026  0.2110 -0.2782  0.0673
  867MOL0     C16952   4.621  10.751   8.161  0.1834 -0.1477 -0.2372
  867MOL0     C16953   4.500  10.697   8.232 -0.4853  0.8515  0.4359
  867MOL0     C16954   4.422  10.597   8.150 -0.7259  0.0693  1.0586
  867MOL0    Cl16955   4.517  10.453   8.105  0.0397  0.2399  0.2163
  867MOL0     C16956   5.283  10.999   8.055  0.3745 -0.6776  0.2914
  867MOL0     C16957   5.402  11.024   8.127 -0.0037 -0.7057  0.2213
  867MOL0     O16958   5.502  10.995   8.433  0.3602  0.0010 -0.2660
  867MOL0     C16959   5.830  10.924   8.344 -0.2261 -0.2511  0.0728
  867MOL0     C16960   5.960  10.914   8.392  0.3493 -0.1378  0.7340
  867MOL0     N16961   6.549  11.269   8.180 -0.5792 -0.4929 -0.0766
  867MOL0     N16962   6.581  11.394   8.159 -0.7227 -0.4548  0.0438
  867MOL0     C16963   7.598  11.173   8.315 -0.6866  0.4105 -0.3771
  867MOL0     C16964   7.701  11.122   8.390  0.1876  0.3151 -0.2142
  867MOL0     C16965   8.091  10.988   8.550  0.2774 -0.0452  0.0119
  867MOL0     C16966   8.161  11.081   8.628  0.5837 -0.6411 -0.6861
  867MOL0     C16967   8.269  11.048   8.697 -0.3413 -0.4277 -0.9948
  867MOL0     C16968   8.325  10.916   8.691  0.2695  0.1197  0.1637
  867MOL0     O16969   8.427  10.876   8.764  0.4863  0.3500 -0.3849
  867MOL0     C16970   8.513  10.977   8.822  0.3974  0.3151 -0.2415
  867MOL0     C16971   8.650  10.916   8.840 -0.7583  0.5464  0.5047
  867MOL0     C16972   8.725  10.884   8.707 -0.2849 -0.5835 -0.1075
  867MOL0     C16973   8.864  10.807   8.710 -1.1395  1.0088  0.4129
  867MOL0     C16974   8.943  10.866   8.814  0.1958 -0.4798 -1.0639
  867MOL0     C16975   8.996  10.924   8.909 -0.3060 -1.1514 -0.1771
  867MOL0     C16976   8.260  10.828   8.603  0.0317  0.1500  0.1808
  867MOL0     C16977   8.147  10.865   8.531  0.0539  0.4441  0.6562
  867MOL0     H16978   7.933  11.370   8.345  0.2877  1.4659 -0.2808
  867MOL0     H16979   7.732  11.451   8.199 -1.6394  0.1405  0.9560
  867MOL0     H16980   7.469  11.493   8.300 -0.5820 -2.3359  3.1339
  867MOL0     H16981   7.354  11.495   8.159  0.6609 -1.1812 -1.0855
  867MOL0     H16982   7.254  11.297   8.257 -2.4113  2.1766 -2.1126
  867MOL0     H16983   7.321  11.334   8.414  0.9464 -1.0416  0.5298
  867MOL0     H16984   7.257  11.574   8.390  0.8510  1.7495 -0.5215
  867MOL0     H16985   7.156  11.527   8.248 -0.0944 -3.8978 -1.6088
  867MOL0     H16986   7.038  11.354   8.395  2.2552  0.7302 -1.7096
  867MOL0     H16987   7.134  11.416   8.529 -2.3062  1.1892  1.9561
  867MOL0     H16988   6.927  11.506   8.555 -2.3360 -2.7545 -2.3276
  867MOL0     H16989   7.015  11.648   8.483  1.2175  0.1471  3.0240
  867MOL0     H16990   6.908  11.587   8.268 -0.3379  1.8070 -0.1176
  867MOL0     H16991   6.838  11.439   8.331 -1.6026  1.4020 -0.1571
  867MOL0     H16992   6.721  11.583   8.513 -0.2769 -0.0171  0.1796
  867MOL0     H16993   6.772  11.723   8.404  0.6881 -1.0740 -1.7039
  867MOL0     H16994   6.671  11.619   8.211  5.0384 -1.6706  1.2821
  867MOL0     H16995   6.548  11.648   8.341 -0.5113 -0.2417  0.3935
  867MOL0     H16996   6.573  11.357   8.487  1.6257  3.3858 -0.5588
  867MOL0     H16997   6.458  11.038   8.280  2.4810 -0.0306 -0.9591
  867MOL0     H16998   6.600  11.055   8.387  0.4072  1.3962  0.5650
  867MOL0     H16999   6.323  11.148   8.458  0.0818  0.3956  2.7881
  867MOL0     H17000   6.465  11.154   8.569 -0.7725 -2.6962  2.0530
  867MOL0     H17001   6.354  10.968   8.643 -0.6496 -0.0864 -1.4786
  867MOL0     H17002   6.452  10.882   8.517  0.7534 -0.1372  1.4806
  867MOL0     H17003   6.231  10.821   8.436  1.4895  0.4739  0.0305
  867MOL0     H17004   6.208  10.979   8.392 -1.6911 -1.5631 -0.5618
  867MOL0     H17005   5.906  11.026   8.696  0.7153 -4.0939  0.5309
  867MOL0     H17006   5.592  11.016   8.693 -1.0100  0.9841  0.6815
  867MOL0     H17007   5.705  11.159   8.724 -0.0710  0.1254 -1.6202
  867MOL0     H17008   5.603  11.160   8.599 -3.1949 -1.8659  0.4600
  867MOL0     H17009   5.456  10.705   8.238  1.4552 -0.7117 -1.3447
  867MOL0     H17010   5.230  10.671   8.138 -0.8981  1.1399  1.9617
  867MOL0     H17011   4.982  11.005   7.963  0.1902  0.9223 -0.6327
  867MOL0     H17012   5.116  10.972   7.851 -0.0741 -1.6420 -0.4578
  867MOL0     H17013   4.893  10.903   7.732 -0.7382 -2.3658 -0.1486
  867MOL0     H17014   4.988  10.764   7.776  0.2726 -0.6010  0.7549
  867MOL0     H17015   4.840  10.707   7.951  0.0557 -0.4552  0.4465
  867MOL0     H17016   4.741  10.747   7.823 -1.6914  0.8751  3.2393
  867MOL0     H17017   4.778  10.949   8.055  2.9879 -1.5675 -0.1218
  867MOL0     H17018   4.699  10.974   7.899 -0.4674  1.3117  1.7290
  867MOL0     H17019   4.547  10.767   7.954 -0.6038 -1.5248  1.6763
  867MOL0     H17020   4.535  10.922   8.050  3.1754  1.2768  2.5373
  867MOL0     H17021   4.694  10.674   8.135 -0.9816 -0.7679 -1.8625
  867MOL0     H17022   4.671  10.819   8.230  1.3393  0.3461 -1.5081
  867MOL0     H17023   4.446  10.789   8.256  0.5391  1.7068 -0.4418
  867MOL0     H17024   4.523  10.652   8.329 -2.6933  1.7699  1.4442
  867MOL0     H17025   4.403  10.634   8.048  2.8438 -1.0895 -0.1785
  867MOL0     H17026   4.341  10.560   8.213 -0.9067 -2.2951 -0.4505
  867MOL0     H17027   5.243  11.086   8.005  1.5073 -0.9871 -1.2123
  867MOL0     H17028   5.451  11.121   8.125  1.9939 -1.6867 -0.6656
  867MOL0     H17029   5.815  10.894   8.240 -2.4767  2.4959 -0.5179
  867MOL0     H17030   6.035  10.882   8.320 -0.7150 -0.8956 -0.0708
  867MOL0     H17031   7.510  11.109   8.309  0.3119 -0.9563 -1.1313
  867MOL0     H17032   7.698  11.030   8.447  1.0325  2.1309  2.9989
  867MOL0     H17033   8.124  11.183   8.634  3.2256  0.3092  1.5833
  867MOL0     H17034   8.311  11.130   8.754  1.6940 -1.7842 -0.4335
  867MOL0     H17035   8.520  11.069   8.764 -0.7786 -0.5698 -1.8714
  867MOL0     H17036   8.471  11.010   8.918 -0.7715 -0.7111 -0.3724
  867MOL0     H17037   8.635  10.815   8.879 -0.4609 -0.8524 -2.6737
  867MOL0     H17038   8.710  10.978   8.908  2.2414 -1.1372 -0.3883
  867MOL0     H17039   8.742  10.978   8.653 -2.5465  1.3049  2.1986
  867MOL0     H17040   8.654  10.831   8.643 -0.6542 -1.6137  1.1209
  867MOL0     H17041   8.907  10.812   8.609 -0.6683 -0.9682  0.4726
  867MOL0     H17042   8.858  10.700   8.734 -0.7880  0.3148 -2.2692
  867MOL0     H17043   9.032  10.979   8.993 -2.6604  3.0383 -1.5984
  867MOL0     H17044   8.295  10.725   8.604 -0.2743 -0.0259 -1.9978
  867MOL0     H17045   8.107  10.781   8.473 -0.2281  1.9086 -1.3790
  868MOL0     O17046   5.159   8.511   5.617 -0.0722 -0.1894  0.6814
  868MOL0     C17047   5.258   8.560   5.683 -0.1673 -0.3831  0.8856
  868MOL0     O17048   5.250   8.653   5.783 -0.3519 -0.8355  0.0724
  868MOL0     C17049   5.124   8.703   5.812 -0.4242  0.5471 -0.0139
  868MOL0     C17050   5.025   8.740   5.717 -0.0765  0.1641  0.1507
  868MOL0     C17051   4.898   8.775   5.761  0.4252  0.0642  0.4235
  868MOL0     C17052   4.865   8.784   5.903  0.7792 -0.0708  0.8797
  868MOL0     O17053   4.731   8.811   5.945 -0.0429  0.6864  0.5067
  868MOL0     C17054   4.721   8.890   6.060  0.5503  0.5451 -0.3846
  868MOL0     C17055   4.568   8.893   6.098  0.1286  0.0517  0.1806
  868MOL0     C17056   4.528   8.970   6.229  0.6318  0.3005  0.6561
  868MOL0     C17057   4.596   8.910   6.349  0.6224 -0.1389  0.1581
  868MOL0     C17058   4.551   8.990   6.477  0.5556 -0.1099  0.1723
  868MOL0     C17059   4.408   8.954   6.525  0.8394  0.6293  0.2120
  868MOL0     C17060   4.380   9.015   6.663 -0.0537  0.5494  0.0125
  868MOL0     C17061   4.365   9.166   6.684 -0.2223  0.5191  0.0321
  868MOL0     N17062   4.239   9.219   6.632  1.0942  1.0486 -0.6929
  868MOL0     C17063   4.114   9.186   6.684 -0.5410 -1.1403  0.3251
  868MOL0     C17064   4.019   9.249   6.605 -0.2469 -0.1430  0.2199
  868MOL0     C17065   3.871   9.248   6.609  0.2321 -0.1273 -0.4051
  868MOL0     C17066   3.810   9.118   6.664  0.6421 -0.3136  0.1197
  868MOL0     C17067   3.666   9.130   6.706  0.1770 -0.3626 -0.0657
  868MOL0     C17068   3.580   9.148   6.585  0.3674 -0.1906  0.0316
  868MOL0     O17069   3.498   9.261   6.602 -0.2049  0.0076  0.5404
  868MOL0     C17070   3.399   9.254   6.699  0.1391  0.2401  0.0307
  868MOL0     C17071   3.344   9.139   6.758 -0.5524  0.5674 -0.5650
  868MOL0     C17072   3.243   9.153   6.860 -0.5379 -0.6033  0.0332
  868MOL0     C17073   3.206   9.021   6.926 -0.3699 -0.2013  0.0158
  868MOL0     C17074   3.195   9.284   6.905  0.1569  0.6053  0.9363
  868MOL0     C17075   3.079   9.303   6.997 -0.0474  0.9362  0.2241
  868MOL0     O17076   2.993   9.193   7.008  0.0597 -0.1343  0.8207
  868MOL0     C17077   2.865   9.204   6.953 -1.1632  0.2906  0.7287
  868MOL0     C17078   2.770   9.093   6.959 -0.7119 -1.3136 -0.4120
  868MOL0     C17079   2.642   9.105   6.902 -0.6008 -0.8132 -0.2656
  868MOL0     C17080   2.607   9.219   6.830  1.1451 -0.0508  0.6673
  868MOL0     O17081   2.484   9.245   6.766  0.0628  0.5029  0.3069
  868MOL0     C17082   2.381   9.280   6.858  0.1681 -0.0376 -0.8216
  868MOL0     C17083   2.243   9.284   6.793 -0.2005 -0.0652  0.2826
  868MOL0     C17084   2.244   9.410   6.699 -0.2149  0.6946  0.0804
  868MOL0     C17085   2.229   9.531   6.793 -0.2961 -0.1270 -0.8753
  868MOL0     C17086   2.197   9.655   6.711  0.0366  0.3367 -1.1441
  868MOL0     C17087   2.168   9.777   6.797  0.3720 -0.1646  1.1776
  868MOL0     C17088   2.016   9.806   6.810  0.3336 -0.2511 -0.3292
  868MOL0     C17089   1.977   9.822   6.957  0.4788  0.0836  0.0933
  868MOL0    Cl17090   1.988   9.658   7.031  0.4364  0.0746 -0.1178
  868MOL0     C17091   2.698   9.327   6.824  0.0315 -0.3482  0.2657
  868MOL0     C17092   2.819   9.322   6.888  0.0366 -0.2850 -1.6039
  868MOL0     O17093   3.069   9.407   7.058 -0.5827 -1.0294  0.1035
  868MOL0     C17094   3.262   9.389   6.846 -0.1659  0.0927  0.7875
  868MOL0     C17095   3.358   9.376   6.746 -0.4054  0.3570  0.9147
  868MOL0     N17096   4.085   9.316   6.512 -0.5796 -0.0702  0.9837
  868MOL0     N17097   4.213   9.290   6.526  0.1415  0.3751 -0.0214
  868MOL0     C17098   4.968   8.763   5.992  1.0925  0.5379 -0.3821
  868MOL0     C17099   5.092   8.714   5.949 -0.5442 -0.0929 -0.1171
  868MOL0     C17100   5.399   8.520   5.653 -0.4169  0.3229  0.8144
  868MOL0     C17101   5.515   8.565   5.726  0.6750  0.1022 -0.0213
  868MOL0     C17102   5.649   8.522   5.692  0.1940 -0.2683  0.6377
  868MOL0     C17103   5.677   8.443   5.579 -0.2597 -0.6793  0.2753
  868MOL0     O17104   5.803   8.410   5.559  0.5068  0.4196 -0.6030
  868MOL0     C17105   5.861   8.441   5.428 -0.0526  0.2981 -0.2333
  868MOL0     C17106   6.005   8.380   5.416 -0.4388  0.0139  0.0109
  868MOL0     C17107   6.112   8.466   5.486 -0.4355  0.4065 -0.3379
  868MOL0     C17108   6.244   8.397   5.513 -0.6183 -0.2133 -1.0032
  868MOL0     C17109   6.305   8.349   5.385 -0.0607  0.4635 -0.5684
  868MOL0     C17110   6.346   8.317   5.277 -0.2759  0.8113  0.0554
  868MOL0     C17111   5.556   8.400   5.511 -0.1763  0.5617 -0.5135
  868MOL0     C17112   5.429   8.437   5.546 -0.2641  0.6777 -0.2834
  868MOL0     H17113   5.036   8.739   5.609  2.2968  2.9798  0.2349
  868MOL0     H17114   4.825   8.792   5.683  2.1454 -1.8742 -1.7396
  868MOL0     H17115   4.764   8.835   6.144  0.8101 -1.9396 -2.0429
  868MOL0     H17116   4.755   8.992   6.042 -2.4624  1.5452 -1.0707
  868MOL0     H17117   4.516   8.943   6.016 -0.0594  1.9434  1.4011
  868MOL0     H17118   4.525   8.794   6.116 -0.2081  0.6408  3.1537
  868MOL0     H17119   4.546   9.077   6.218 -1.6839  0.8079  1.1470
  868MOL0     H17120   4.418   8.970   6.233  0.5795  0.8782 -0.3888
  868MOL0     H17121   4.563   8.807   6.367 -0.3823 -0.3615 -2.5669
  868MOL0     H17122   4.703   8.924   6.333  0.5072 -1.4917 -2.2620
  868MOL0     H17123   4.620   8.977   6.561 -0.9605 -1.3911  1.2692
  868MOL0     H17124   4.568   9.094   6.450 -1.2118  0.8576  2.5067
  868MOL0     H17125   4.339   8.997   6.452  0.3309  0.1418  0.4080
  868MOL0     H17126   4.400   8.845   6.524 -0.5758  0.6425  2.3495
  868MOL0     H17127   4.300   8.967   6.720  2.3590  0.5984  3.8238
  868MOL0     H17128   4.465   8.978   6.722 -1.2827  0.9591  2.1370
  868MOL0     H17129   4.444   9.220   6.631 -1.0892 -1.3075 -3.3790
  868MOL0     H17130   4.384   9.188   6.790 -0.7390  0.4092  0.1511
  868MOL0     H17131   4.089   9.116   6.762 -1.2997 -0.6895  0.4999
  868MOL0     H17132   3.849   9.329   6.679  0.6012 -1.9711  1.9352
  868MOL0     H17133   3.840   9.289   6.512  1.7700  1.7459 -0.1728
  868MOL0     H17134   3.860   9.082   6.755  0.0852 -0.1011  0.5151
  868MOL0     H17135   3.819   9.047   6.581 -0.0666  0.2852 -0.4790
  868MOL0     H17136   3.652   9.214   6.774  0.8137  0.5049 -0.9712
  868MOL0     H17137   3.622   9.045   6.759 -0.4005  0.4565  0.7962
  868MOL0     H17138   3.514   9.061   6.576  0.5334 -0.1110 -2.9893
  868MOL0     H17139   3.643   9.150   6.495  0.9195 -0.2820  0.4103
  868MOL0     H17140   3.365   9.038   6.723 -0.9756  1.1806 -2.7115
  868MOL0     H17141   3.280   8.945   6.899 -1.0393 -0.9330  0.2027
  868MOL0     H17142   3.203   9.031   7.035  1.6628 -0.3792  0.1253
  868MOL0     H17143   3.112   8.986   6.882 -1.1081  1.2052  0.4081
  868MOL0     H17144   2.802   9.006   7.015  0.0038 -1.2929 -0.7770
  868MOL0     H17145   2.578   9.023   6.934 -0.1741 -0.5327  1.4225
  868MOL0     H17146   2.369   9.198   6.930 -1.2457  0.1798 -0.7852
  868MOL0     H17147   2.414   9.367   6.915  1.6223 -1.1209  0.0670
  868MOL0     H17148   2.211   9.198   6.733 -3.2252  1.1052  0.0669
  868MOL0     H17149   2.159   9.278   6.863  0.7900  2.1600  1.7466
  868MOL0     H17150   2.166   9.411   6.622  1.1880 -1.6511 -1.5099
  868MOL0     H17151   2.335   9.406   6.639 -1.0486 -0.4891 -1.1824
  868MOL0     H17152   2.145   9.520   6.861  1.3870  3.3229  2.1357
  868MOL0     H17153   2.311   9.556   6.861 -2.7690  1.5327  1.6986
  868MOL0     H17154   2.110   9.630   6.650 -0.2362  2.4919 -1.7256
  868MOL0     H17155   2.283   9.673   6.647  0.5172  0.0958 -0.5757
  868MOL0     H17156   2.216   9.772   6.895  2.2695 -0.2081  0.2796
  868MOL0     H17157   2.215   9.861   6.747  0.4548  0.1447  1.7650
  868MOL0     H17158   1.960   9.720   6.771 -2.0424  1.0353  0.0337
  868MOL0     H17159   1.983   9.898   6.759  0.4088  0.9205  1.6486
  868MOL0     H17160   1.875   9.860   6.971  0.9286  2.5387 -2.3634
  868MOL0     H17161   2.051   9.889   7.003 -2.0259  1.4748  2.4381
  868MOL0     H17162   2.667   9.418   6.775  2.8445  0.2891 -0.5171
  868MOL0     H17163   2.877   9.414   6.883 -1.9682  1.0884 -0.6607
  868MOL0     H17164   3.248   9.494   6.872  4.7500  2.0262 -2.8773
  868MOL0     H17165   3.413   9.466   6.719 -1.2750  1.0884  1.5264
  868MOL0     H17166   4.948   8.758   6.099 -3.2448 -0.0670 -1.0416
  868MOL0     H17167   5.170   8.688   6.019 -0.5909 -0.0992 -0.0670
  868MOL0     H17168   5.499   8.626   5.813  0.8555 -1.8387  1.4524
  868MOL0     H17169   5.732   8.555   5.754  1.5854 -1.8454 -0.3152
  868MOL0     H17170   5.804   8.386   5.352  2.0920 -2.1781 -0.2061
  868MOL0     H17171   5.851   8.546   5.399 -0.8207  0.4030  0.3532
  868MOL0     H17172   6.017   8.376   5.307 -3.2715 -1.7154 -0.3504
  868MOL0     H17173   6.007   8.275   5.445 -2.7120 -1.3436 -3.8925
  868MOL0     H17174   6.062   8.501   5.576  0.2641  1.2373 -0.2588
  868MOL0     H17175   6.139   8.555   5.428 -1.0164  0.3818 -0.6564
  868MOL0     H17176   6.236   8.307   5.574 -0.2284 -1.0708 -2.1709
  868MOL0     H17177   6.307   8.474   5.559 -1.2277  0.4453 -1.2493
  868MOL0     H17178   6.380   8.288   5.180 -0.4005 -0.4811  0.3795
  868MOL0     H17179   5.579   8.337   5.425  2.2973  0.8978 -0.1909
  868MOL0     H17180   5.343   8.390   5.499  1.0168 -1.0971 -0.9681
  869MOL0     O17181   3.850  11.254   7.154 -0.3635  0.2741 -0.6087
  869MOL0     C17182   3.908  11.356   7.180 -0.1305 -1.1753 -1.1286
  869MOL0     O17183   3.854  11.477   7.206  0.4168  0.6317  0.1366
  869MOL0     C17184   3.718  11.498   7.216  1.0558 -0.5525  0.6765
  869MOL0     C17185   3.644  11.452   7.319  0.1957 -0.4331 -0.0309
  869MOL0     C17186   3.501  11.465   7.325 -0.0557  0.2591 -0.8048
  869MOL0     C17187   3.436  11.534   7.219  0.0257 -0.3034 -0.1240
  869MOL0     O17188   3.300  11.559   7.222 -0.2335 -0.1202  0.5462
  869MOL0     C17189   3.249  11.600   7.356 -0.4187  1.0074 -0.0212
  869MOL0     C17190   3.111  11.647   7.339  1.2877  0.2977  0.2106
  869MOL0     C17191   3.026  11.532   7.289 -0.7161  0.3056 -0.5766
  869MOL0     C17192   2.876  11.577   7.306 -0.0251  0.2653 -0.3955
  869MOL0     C17193   2.775  11.460   7.268 -0.2382 -0.3843 -0.4623
  869MOL0     C17194   2.641  11.520   7.304 -0.0855 -0.7063 -0.2478
  869MOL0     C17195   2.524  11.441   7.250 -0.5294  0.6838  0.0953
  869MOL0     C17196   2.400  11.528   7.281  0.6956 -0.7033 -0.1320
  869MOL0     N17197   2.269  11.451   7.278  0.4854  0.3616 -0.2072
  869MOL0     C17198   2.170  11.439   7.176 -0.2812  0.4418 -0.0138
  869MOL0     C17199   2.064  11.388   7.249 -0.6595  0.0725  0.2723
  869MOL0     C17200   1.937  11.344   7.182 -0.6697  1.1320 -0.0202
  869MOL0     C17201   1.821  11.441   7.210  0.3065  0.3410 -0.3997
  869MOL0     C17202   1.786  11.464   7.353  0.6582 -1.2936  0.1051
  869MOL0     C17203   1.647  11.475   7.367 -0.1705 -0.3338  0.5374
  869MOL0     O17204   1.593  11.617   7.354  0.1133  0.3376 -0.2298
  869MOL0     C17205   1.458  11.628   7.372 -1.0282  0.0649 -0.8190
  869MOL0     C17206   1.397  11.747   7.327 -0.3790  0.4139  0.3336
  869MOL0     C17207   1.270  11.782   7.362 -0.2837 -0.3870  0.3825
  869MOL0     C17208   1.220  11.908   7.311  1.0427 -0.1936  0.4967
  869MOL0     C17209   1.183  11.688   7.431 -0.7255  0.4007 -0.2012
  869MOL0     C17210   1.043  11.717   7.470  0.0683  0.7848  0.5527
  869MOL0     O17211   0.997  11.641   7.575  0.2888  0.0326 -0.6844
  869MOL0     C17212   0.873  11.678   7.614  0.7083  0.7754 -0.1605
  869MOL0     C17213   0.848  11.768   7.713  0.2498 -0.2219  0.2077
  869MOL0     C17214   0.724  11.814   7.742  0.6683 -0.1131 -0.0548
  869MOL0     C17215   0.614  11.775   7.667  0.3340 -0.1666 -0.5967
  869MOL0     O17216   0.484  11.802   7.695 -0.1051  0.2644  0.1624
  869MOL0     C17217   0.465  11.935   7.749  0.0745  0.7433 -0.4841
  869MOL0     C17218   0.341  11.999   7.704 -0.5518  0.7283 -0.0861
  869MOL0     C17219   0.214  11.917   7.741  0.5721 -0.8594 -0.3179
  869MOL0     C17220   0.089  11.982   7.672  1.4004 -0.3680 -0.3289
  869MOL0     C17221  -0.033  11.925   7.735  0.0591 -0.3835 -0.1248
  869MOL0     C17222  -0.166  12.001   7.703 -0.1201  0.8453  1.0241
  869MOL0     C17223  -0.221  11.971   7.564 -0.2462  0.0719  1.1407
  869MOL0     C17224  -0.358  12.046   7.535  0.3606  0.7721 -0.2843
  869MOL0    Cl17225  -0.426  11.958   7.388 -0.4474 -0.0582 -0.2815
  869MOL0     C17226   0.632  11.679   7.567 -0.1614 -0.7169 -0.2295
  869MOL0     C17227   0.763  11.627   7.538  0.1665 -0.5065 -0.4012
  869MOL0     O17228   0.986  11.816   7.426 -0.4488 -0.9679  0.2560
  869MOL0     C17229   1.244  11.569   7.476 -0.2628  0.0952 -1.4977
  869MOL0     C17230   1.383  11.536   7.446  0.1598  0.3953 -0.1375
  869MOL0     N17231   2.104  11.353   7.371 -0.4401  0.7060 -0.1503
  869MOL0     N17232   2.230  11.387   7.391 -0.0768 -0.0933  0.4720
  869MOL0     C17233   3.511  11.567   7.103  0.8229  0.1890  0.0013
  869MOL0     C17234   3.645  11.546   7.098 -0.7536  0.1009 -0.0068
  869MOL0     C17235   4.052  11.341   7.203  0.8002  0.6408 -0.4934
  869MOL0     C17236   4.126  11.430   7.285  0.4598  0.6224  0.5006
  869MOL0     C17237   4.261  11.411   7.307 -0.7417  0.3984 -0.3944
  869MOL0     C17238   4.330  11.315   7.238 -0.2349  0.0625  0.5875
  869MOL0     O17239   4.470  11.308   7.253 -0.1876 -0.3937  0.1846
  869MOL0     C17240   4.541  11.206   7.200  0.3611 -0.2388  0.5300
  869MOL0     C17241   4.682  11.237   7.244 -0.0263 -0.0321  0.1167
  869MOL0     C17242   4.774  11.120   7.250 -0.0017 -0.9000 -0.0521
  869MOL0     C17243   4.891  11.150   7.161 -0.8513  0.0440  0.3210
  869MOL0     C17244   5.006  11.056   7.152 -0.4875 -0.1105  0.7714
  869MOL0     C17245   5.095  10.980   7.122 -0.0674  1.0768 -0.0974
  869MOL0     C17246   4.255  11.232   7.153 -0.7451 -0.1536  0.0913
  869MOL0     C17247   4.121  11.242   7.133  0.2016 -0.8255  0.7424
  869MOL0     H17248   3.698  11.403   7.399  0.2207 -0.6583 -0.1843
  869MOL0     H17249   3.449  11.430   7.414  0.1278  2.8144  0.4243
  869MOL0     H17250   3.239  11.518   7.428 -3.5406  0.3591 -1.0427
  869MOL0     H17251   3.318  11.681   7.384  2.2674 -0.4964 -1.8664
  869MOL0     H17252   3.073  11.687   7.434  1.1084  1.5367 -0.3752
  869MOL0     H17253   3.103  11.732   7.271 -1.3095  2.5184  3.0047
  869MOL0     H17254   3.034  11.517   7.181 -0.6223  3.3167 -1.0682
  869MOL0     H17255   3.033  11.437   7.344 -2.5429  0.9463  0.8861
  869MOL0     H17256   2.853  11.605   7.409 -0.6389  0.7349 -0.6609
  869MOL0     H17257   2.862  11.661   7.238  0.8282  0.5421 -0.2418
  869MOL0     H17258   2.774  11.453   7.159 -2.6814  1.4331 -0.6450
  869MOL0     H17259   2.798  11.361   7.309 -1.3895  0.2872  1.9655
  869MOL0     H17260   2.647  11.544   7.411  2.7495 -2.7961  0.1805
  869MOL0     H17261   2.627  11.618   7.258 -3.9755 -1.1060 -0.2693
  869MOL0     H17262   2.523  11.431   7.141  0.6269  0.8296  0.0540
  869MOL0     H17263   2.521  11.340   7.292 -0.5539  0.6051 -0.0904
  869MOL0     H17264   2.393  11.612   7.211  1.2184 -1.8922 -1.6616
  869MOL0     H17265   2.415  11.577   7.377 -1.2120  1.0418 -0.6514
  869MOL0     H17266   2.168  11.470   7.072 -3.1409  1.0536  0.1444
  869MOL0     H17267   1.956  11.322   7.076  1.3510 -0.2695  0.5944
  869MOL0     H17268   1.905  11.251   7.230  0.6737  1.4959  1.6392
  869MOL0     H17269   1.737  11.398   7.154  2.3637 -1.3286 -2.4238
  869MOL0     H17270   1.853  11.539   7.173  1.3627 -0.1520 -0.8334
  869MOL0     H17271   1.827  11.561   7.383 -3.2367  1.8070 -3.2955
  869MOL0     H17272   1.823  11.376   7.406  2.5755 -0.9023 -0.5310
  869MOL0     H17273   1.618  11.440   7.467  0.7798  1.4571  1.5017
  869MOL0     H17274   1.590  11.424   7.289  0.0754  0.8693 -0.4538
  869MOL0     H17275   1.458  11.828   7.288 -0.6435 -0.6493 -2.5131
  869MOL0     H17276   1.125  11.900   7.257  1.5787 -0.5904 -0.3984
  869MOL0     H17277   1.203  11.979   7.393 -1.0553  0.0038 -0.0483
  869MOL0     H17278   1.294  11.957   7.249  1.1814  3.1056  3.0016
  869MOL0     H17279   0.933  11.814   7.763  0.7868  3.0102 -3.2374
  869MOL0     H17280   0.707  11.888   7.820 -1.2828 -2.9109  2.3594
  869MOL0     H17281   0.465  11.921   7.858  0.6210  1.3537 -0.3993
  869MOL0     H17282   0.541  12.004   7.712 -0.7027  1.1372 -1.3895
  869MOL0     H17283   0.335  12.097   7.751 -2.4630 -0.0424  1.4074
  869MOL0     H17284   0.346  12.018   7.596  1.7827  1.1191  0.0317
  869MOL0     H17285   0.190  11.921   7.848  0.6744  0.5764 -0.3223
  869MOL0     H17286   0.227  11.812   7.714  2.1558 -0.8455  0.3078
  869MOL0     H17287   0.087  12.090   7.693 -0.8870 -0.7702  2.0899
  869MOL0     H17288   0.085  11.960   7.565  0.6494 -2.3542  0.0701
  869MOL0     H17289  -0.033  11.930   7.845  1.5936  0.2146 -0.1371
  869MOL0     H17290  -0.029  11.822   7.699  1.8108  0.0196 -1.1935
  869MOL0     H17291  -0.237  11.981   7.784 -0.3163  0.2482  0.7084
  869MOL0     H17292  -0.145  12.108   7.702  0.3148  0.8194 -1.9682
  869MOL0     H17293  -0.243  11.864   7.576 -0.9658  0.0814  0.0657
  869MOL0     H17294  -0.151  12.002   7.486 -0.5302  0.3246  0.9847
  869MOL0     H17295  -0.335  12.150   7.513 -1.3530  1.1104 -0.6155
  869MOL0     H17296  -0.418  12.029   7.626 -0.3274  0.2217 -0.8258
  869MOL0     H17297   0.542  11.662   7.510 -1.5122 -0.5419  1.7579
  869MOL0     H17298   0.786  11.562   7.454  0.8803 -1.2323  0.3280
  869MOL0     H17299   1.193  11.492   7.534  0.3888  0.9446  0.2672
  869MOL0     H17300   1.423  11.443   7.485  0.0480  0.5221  0.2933
  869MOL0     H17301   3.464  11.607   7.014 -1.1218 -0.6659  0.5967
  869MOL0     H17302   3.686  11.574   7.002  1.0885 -1.4320  0.2517
  869MOL0     H17303   4.072  11.506   7.339  0.2143  0.1855  0.8664
  869MOL0     H17304   4.325  11.467   7.375  0.7030 -0.3804 -1.0724
  869MOL0     H17305   4.499  11.111   7.234  0.3790  0.3796  2.3802
  869MOL0     H17306   4.538  11.212   7.090 -2.0866  2.0079  0.6145
  869MOL0     H17307   4.688  11.273   7.347 -1.1351 -1.2910  0.6479
  869MOL0     H17308   4.733  11.317   7.189 -0.6436 -0.6128 -1.3372
  869MOL0     H17309   4.726  11.027   7.219 -1.8823 -0.6559  1.8443
  869MOL0     H17310   4.809  11.102   7.353  2.0449 -0.2000 -0.5792
  869MOL0     H17311   4.940  11.244   7.191  2.1261 -2.3765  4.0270
  869MOL0     H17312   4.861  11.147   7.056  2.4685 -2.9168 -0.7463
  869MOL0     H17313   5.155  10.897   7.089 -0.1390  0.9285  0.1406
  869MOL0     H17314   4.306  11.156   7.095 -2.4047 -1.5593  0.4102
  869MOL0     H17315   4.081  11.173   7.059  2.4432 -0.2142 -1.1540
  870MOL0     O17316   4.010   7.065   1.417  0.3286  0.9052  0.2503
  870MOL0     C17317   4.116   7.090   1.467 -0.1396  0.3225 -0.5582
  870MOL0     O17318   4.151   7.068   1.593  0.2770 -0.3445 -0.0794
  870MOL0     C17319   4.055   7.008   1.668  0.3794  0.2081  0.5844
  870MOL0     C17320   3.936   7.084   1.703  0.0395 -0.6156  0.1564
  870MOL0     C17321   3.838   7.035   1.775 -0.1641 -0.6661 -0.2782
  870MOL0     C17322   3.852   6.906   1.820 -0.5146  0.1032  0.4985
  870MOL0     O17323   3.754   6.837   1.886 -0.2259  0.4058 -0.2185
  870MOL0     C17324   3.620   6.877   1.922  0.8387 -0.5112  0.8033
  870MOL0     C17325   3.529   6.788   1.842  1.0544  0.4458  0.3690
  870MOL0     C17326   3.390   6.785   1.903  0.1900  0.8060  0.1858
  870MOL0     C17327   3.294   6.686   1.837  0.1182  0.0413 -0.1966
  870MOL0     C17328   3.178   6.677   1.935  0.5879  0.4697 -0.7873
  870MOL0     C17329   3.086   6.550   1.899  0.1038 -0.1772 -0.1183
  870MOL0     C17330   2.954   6.562   1.962 -0.1814  0.1940 -0.4436
  870MOL0     C17331   2.879   6.685   1.893  0.1769  0.6306  0.3984
  870MOL0     N17332   2.736   6.691   1.900 -0.4282 -0.2001 -0.5453
  870MOL0     C17333   2.679   6.809   1.930 -0.6504  0.7249 -0.1089
  870MOL0     C17334   2.549   6.789   1.884  0.4258 -0.0963  0.4362
  870MOL0     C17335   2.441   6.884   1.892 -0.8183 -1.0855 -0.0617
  870MOL0     C17336   2.366   6.879   2.029 -0.2851  0.5215 -0.7729
  870MOL0     C17337   2.279   6.753   2.034  0.4567  0.2743  0.3323
  870MOL0     C17338   2.204   6.738   2.170  0.3162  0.3085  0.2494
  870MOL0     O17339   2.113   6.627   2.179 -0.2264 -0.1991 -0.0018
  870MOL0     C17340   1.997   6.631   2.113  0.3247  0.4958 -0.6499
  870MOL0     C17341   1.933   6.733   2.041 -0.6083  0.6416  0.0419
  870MOL0     C17342   1.798   6.719   2.000 -0.1165  0.5898  0.4797
  870MOL0     C17343   1.721   6.834   1.946  0.7425 -0.1159  0.6707
  870MOL0     C17344   1.739   6.592   2.016 -0.4472  0.1380  0.1946
  870MOL0     C17345   1.595   6.557   1.980  0.4082  0.6803  0.1041
  870MOL0     O17346   1.533   6.446   2.036  0.2585 -1.1502 -0.3348
  870MOL0     C17347   1.403   6.420   2.005 -0.4298 -0.1063 -0.2174
  870MOL0     C17348   1.374   6.361   1.886  0.3709  0.4401 -0.3372
  870MOL0     C17349   1.238   6.331   1.859  0.6049  0.1240 -0.1449
  870MOL0     C17350   1.133   6.372   1.948 -0.1011 -0.2467 -0.4645
  870MOL0     O17351   0.997   6.356   1.906  0.4547 -0.8811  0.2448
  870MOL0     C17352   0.959   6.324   1.767  0.1372  0.3679 -0.5029
  870MOL0     C17353   0.814   6.362   1.751  0.3470  0.7603 -0.5921
  870MOL0     C17354   0.731   6.279   1.658 -0.1798 -0.6150  0.3763
  870MOL0     C17355   0.721   6.334   1.513  0.8763 -0.9859  0.0352
  870MOL0     C17356   0.823   6.267   1.420 -1.2694  0.3156 -0.2880
  870MOL0     C17357   0.761   6.139   1.359 -0.3939  0.4201  0.2030
  870MOL0     C17358   0.869   6.050   1.300 -0.2609  0.3705  0.4900
  870MOL0     C17359   0.810   5.946   1.207  0.4975  0.0199  0.6580
  870MOL0    Cl17360   0.688   5.834   1.291 -0.0963  0.2754 -0.0683
  870MOL0     C17361   1.170   6.436   2.068 -0.1071  0.0003 -0.1829
  870MOL0     C17362   1.303   6.455   2.093 -0.6634  0.1692 -0.7816
  870MOL0     O17363   1.553   6.621   1.882 -0.0468  0.3618 -0.4843
  870MOL0     C17364   1.811   6.497   2.091  0.2120 -0.3793  0.7567
  870MOL0     C17365   1.926   6.517   2.148 -0.6188 -0.3511 -0.1682
  870MOL0     N17366   2.545   6.663   1.839 -0.0030  0.5349  0.0269
  870MOL0     N17367   2.658   6.596   1.845 -0.4122  0.2498  0.8335
  870MOL0     C17368   3.969   6.832   1.795 -0.3226 -0.2716 -0.3585
  870MOL0     C17369   4.076   6.879   1.714  0.6572 -0.4089  0.2570
  870MOL0     C17370   4.224   7.142   1.378 -0.1726  0.5907 -0.4564
  870MOL0     C17371   4.340   7.200   1.428 -1.0031  0.1050 -0.9048
  870MOL0     C17372   4.440   7.233   1.345  0.6499 -0.1101  0.3645
  870MOL0     C17373   4.432   7.221   1.208  1.4901  0.4860  0.6181
  870MOL0     O17374   4.537   7.249   1.122  0.1915  0.2385  0.2689
  870MOL0     C17375   4.557   7.391   1.104 -0.3463  0.9089  0.3294
  870MOL0     C17376   4.426   7.457   1.047  1.0186 -0.7168 -1.0047
  870MOL0     C17377   4.395   7.421   0.899 -0.2845 -0.5102  0.5551
  870MOL0     C17378   4.247   7.456   0.856 -0.3451  0.6224  0.2227
  870MOL0     C17379   4.150   7.382   0.938 -0.6860  0.3653 -0.2106
  870MOL0     C17380   4.058   7.313   0.996 -1.4422 -0.9763  0.8475
  870MOL0     C17381   4.315   7.157   1.160 -0.4260 -0.4079  0.7130
  870MOL0     C17382   4.211   7.120   1.241  0.1651  0.3974 -0.4199
  870MOL0     H17383   3.926   7.182   1.658 -2.8919  0.1505  2.2575
  870MOL0     H17384   3.748   7.095   1.787  0.7261  0.5567  0.5068
  870MOL0     H17385   3.601   6.862   2.029 -1.0135 -1.5494  0.3692
  870MOL0     H17386   3.603   6.985   1.909  1.5238 -0.1872  2.3569
  870MOL0     H17387   3.532   6.819   1.737  1.9555 -0.3827  0.1356
  870MOL0     H17388   3.569   6.686   1.842 -0.1258 -0.1099  3.5859
  870MOL0     H17389   3.408   6.746   2.004 -1.2456 -0.9245 -0.1767
  870MOL0     H17390   3.347   6.883   1.925  3.4359  1.8878  2.6391
  870MOL0     H17391   3.266   6.721   1.738 -0.0065  1.1360  0.2148
  870MOL0     H17392   3.339   6.587   1.827 -1.4381 -0.6867 -0.2050
  870MOL0     H17393   3.218   6.661   2.036  1.6877  1.4642 -1.0513
  870MOL0     H17394   3.126   6.773   1.928  0.7120  0.5503 -0.6040
  870MOL0     H17395   3.077   6.534   1.791 -1.5888 -0.1373 -0.0076
  870MOL0     H17396   3.127   6.455   1.938 -0.2309  0.5575  2.1701
  870MOL0     H17397   2.901   6.468   1.948  0.8373 -0.4627 -0.0130
  870MOL0     H17398   2.965   6.579   2.070  2.0136  3.3045 -1.0282
  870MOL0     H17399   2.907   6.689   1.787 -1.3743  2.0996  0.0022
  870MOL0     H17400   2.912   6.774   1.949  0.0517  0.3953  0.8497
  870MOL0     H17401   2.713   6.904   1.970  1.7110  0.5775 -1.5544
  870MOL0     H17402   2.490   6.981   1.891 -0.2259 -1.3805  0.0770
  870MOL0     H17403   2.369   6.864   1.812  0.8629 -4.3481 -0.9459
  870MOL0     H17404   2.307   6.971   2.037 -0.9780  0.1399 -1.3951
  870MOL0     H17405   2.435   6.872   2.114 -2.5853  1.0163  1.2365
  870MOL0     H17406   2.345   6.666   2.026 -0.1180 -0.1222 -0.1609
  870MOL0     H17407   2.219   6.770   1.944  4.0622 -2.1490 -2.8106
  870MOL0     H17408   2.152   6.830   2.198  1.4113  1.7495 -2.1249
  870MOL0     H17409   2.277   6.721   2.249  3.0159  3.7892 -1.2410
  870MOL0     H17410   1.983   6.827   2.019  1.2124 -0.7554 -2.2266
  870MOL0     H17411   1.779   6.924   1.969  1.2671 -0.0351 -0.8230
  870MOL0     H17412   1.717   6.832   1.837  1.0112  2.2724  0.5759
  870MOL0     H17413   1.619   6.841   1.985  0.5848 -0.7375  0.3815
  870MOL0     H17414   1.449   6.334   1.812  1.5122 -2.6540  1.7320
  870MOL0     H17415   1.205   6.306   1.759  1.4871 -0.9915 -0.1723
  870MOL0     H17416   1.017   6.388   1.700 -1.4143  2.5046  0.0568
  870MOL0     H17417   0.985   6.220   1.751 -3.1457 -0.5314 -0.8416
  870MOL0     H17418   0.758   6.353   1.844 -1.8867 -0.2768 -1.9471
  870MOL0     H17419   0.808   6.468   1.721  2.3322  0.4345 -2.4020
  870MOL0     H17420   0.627   6.277   1.694 -0.1440 -0.5705  0.4843
  870MOL0     H17421   0.763   6.175   1.652 -0.9872 -0.7817 -2.8525
  870MOL0     H17422   0.614   6.328   1.489  0.4391  2.4297  0.6462
  870MOL0     H17423   0.754   6.438   1.502 -0.3461 -0.4641  1.0705
  870MOL0     H17424   0.913   6.235   1.473 -0.7977 -1.3717 -1.9964
  870MOL0     H17425   0.862   6.338   1.347  1.3909 -0.6056  0.1397
  870MOL0     H17426   0.703   6.079   1.430  1.4163  0.0763  1.4531
  870MOL0     H17427   0.691   6.169   1.280 -0.2083  0.9975  0.2581
  870MOL0     H17428   0.924   6.004   1.383 -0.9761  1.9951  1.9284
  870MOL0     H17429   0.934   6.105   1.232 -0.7423  0.9413  0.4792
  870MOL0     H17430   0.895   5.887   1.170 -0.0658 -0.6180  0.3512
  870MOL0     H17431   0.755   5.995   1.127 -1.8970 -2.5421  0.5862
  870MOL0     H17432   1.097   6.467   2.142  0.0096 -0.8773  0.3123
  870MOL0     H17433   1.328   6.501   2.188 -1.6399  1.5122 -1.1436
  870MOL0     H17434   1.769   6.401   2.119  0.6863 -0.4077  1.3814
  870MOL0     H17435   1.979   6.443   2.208  0.2508  0.8664  0.6265
  870MOL0     H17436   3.975   6.727   1.822  1.4773 -0.1017  0.0691
  870MOL0     H17437   4.167   6.827   1.685  2.3986  1.8835  1.2861
  870MOL0     H17438   4.353   7.217   1.534 -0.7012  2.9604 -1.3115
  870MOL0     H17439   4.538   7.272   1.374  0.5099  2.4695 -2.1961
  870MOL0     H17440   4.603   7.428   1.196 -2.0221  2.1511  0.7225
  870MOL0     H17441   4.629   7.409   1.023  2.0561 -1.3348  1.8121
  870MOL0     H17442   4.440   7.565   1.049  0.0260 -0.5536  1.5069
  870MOL0     H17443   4.335   7.440   1.105  0.2670  2.5222 -1.0716
  870MOL0     H17444   4.418   7.316   0.879 -1.0466 -0.1654 -2.5247
  870MOL0     H17445   4.450   7.478   0.825 -1.0369  1.5381  1.5035
  870MOL0     H17446   4.235   7.449   0.748 -1.2438 -0.2153  0.3541
  870MOL0     H17447   4.229   7.564   0.869  0.7204  1.0612 -1.6963
  870MOL0     H17448   3.981   7.258   1.046 -4.1887  1.3362 -0.5465
  870MOL0     H17449   4.299   7.137   1.055  3.6297 -0.1375 -0.1161
  870MOL0     H17450   4.126   7.084   1.184 -0.8616  1.1915  0.5878
  871MOL0     O17451   4.197   7.659   2.325 -1.1285  0.4229 -0.0389
  871MOL0     C17452   4.125   7.631   2.228  0.2053 -0.0992 -0.8675
  871MOL0     O17453   3.990   7.606   2.231 -0.0454  0.2509 -0.5618
  871MOL0     C17454   3.940   7.582   2.356  0.1957 -0.3230 -0.1271
  871MOL0     C17455   3.904   7.447   2.394 -1.0281  0.0521  0.5983
  871MOL0     C17456   3.852   7.422   2.521  0.2387 -0.1771 -0.1426
  871MOL0     C17457   3.819   7.529   2.604  1.3071  0.2852  0.0554
  871MOL0     O17458   3.749   7.491   2.709 -0.9133  0.0197 -0.4243
  871MOL0     C17459   3.652   7.578   2.752  0.4098  0.4250 -0.0738
  871MOL0     C17460   3.527   7.576   2.664  0.3445  0.3881 -0.0324
  871MOL0     C17461   3.506   7.433   2.601 -0.3736  0.4087 -0.2835
  871MOL0     C17462   3.364   7.391   2.549 -0.6151  0.1985 -0.0034
  871MOL0     C17463   3.300   7.494   2.450 -0.9029 -0.5530 -0.1947
  871MOL0     C17464   3.168   7.449   2.399 -0.4319 -0.7555  0.3872
  871MOL0     C17465   3.166   7.309   2.334  0.7031  0.0597 -0.3338
  871MOL0     C17466   3.086   7.208   2.420  0.8614 -0.3730  0.0013
  871MOL0     N17467   3.124   7.069   2.376  0.3600 -1.0465 -0.2359
  871MOL0     C17468   3.246   7.020   2.389  0.1855  0.3620 -0.4895
  871MOL0     C17469   3.249   6.897   2.332  0.7669 -0.1928  0.0210
  871MOL0     C17470   3.360   6.804   2.307  0.0914  0.7013  0.7606
  871MOL0     C17471   3.374   6.703   2.423 -0.4149 -0.0895  0.5994
  871MOL0     C17472   3.252   6.615   2.444  0.5245  0.1452 -0.0457
  871MOL0     C17473   3.248   6.519   2.567 -0.4237  0.1386  0.1303
  871MOL0     O17474   3.129   6.440   2.566  0.1711  0.2759  0.3710
  871MOL0     C17475   3.095   6.370   2.676 -0.0868  0.1029 -0.2082
  871MOL0     C17476   3.168   6.347   2.793 -0.0344 -0.8541  0.2412
  871MOL0     C17477   3.124   6.267   2.901  0.1632 -0.2138 -0.2940
  871MOL0     C17478   3.222   6.256   3.018 -1.4926  0.4376  0.4766
  871MOL0     C17479   3.000   6.200   2.893 -0.2140 -0.4858 -0.3463
  871MOL0     C17480   2.947   6.103   2.997 -0.5166  0.0489  1.5166
  871MOL0     O17481   2.806   6.085   2.993 -0.3790  1.2943 -0.1188
  871MOL0     C17482   2.736   5.994   3.073 -0.4449 -0.4937  0.0052
  871MOL0     C17483   2.768   5.974   3.208  0.2386  0.0005  0.2957
  871MOL0     C17484   2.706   5.877   3.272 -0.0151  0.6059  0.1508
  871MOL0     C17485   2.605   5.803   3.211  0.4055  1.5551  0.1607
  871MOL0     O17486   2.546   5.706   3.281  1.0098  0.0223 -0.9481
  871MOL0     C17487   2.465   5.602   3.227 -0.1175 -0.2474 -0.1776
  871MOL0     C17488   2.416   5.503   3.348  0.3842 -0.1290  0.4561
  871MOL0     C17489   2.295   5.428   3.302  0.2994  0.8017 -0.1863
  871MOL0     C17490   2.243   5.328   3.413  0.7045 -0.1828  0.2416
  871MOL0     C17491   2.098   5.284   3.392 -0.6331 -0.2856  0.6506
  871MOL0     C17492   1.999   5.392   3.358 -0.3174  0.9730 -0.1648
  871MOL0     C17493   1.850   5.334   3.368 -0.0266 -0.8756  0.7573
  871MOL0     C17494   1.798   5.327   3.227  0.8107  0.4011 -0.2115
  871MOL0    Cl17495   1.885   5.208   3.125  0.2038 -0.0603 -0.3741
  871MOL0     C17496   2.563   5.829   3.082  0.2817  0.0002 -0.2932
  871MOL0     C17497   2.628   5.931   3.009  0.5706  0.5344  0.5825
  871MOL0     O17498   3.025   6.046   3.078  0.6444 -0.5699  0.1745
  871MOL0     C17499   2.918   6.223   2.776 -1.1352 -0.0313  0.1195
  871MOL0     C17500   2.966   6.304   2.667 -0.1831 -0.0263 -0.4760
  871MOL0     N17501   3.117   6.878   2.280 -0.9994 -0.2160  0.3113
  871MOL0     N17502   3.050   6.986   2.304 -0.5924  0.1929  0.6519
  871MOL0     C17503   3.857   7.658   2.570 -1.1687  0.6056 -0.7059
  871MOL0     C17504   3.918   7.685   2.451 -0.7569  0.2341 -0.5842
  871MOL0     C17505   4.187   7.657   2.098  0.8651  0.9462  0.2020
  871MOL0     C17506   4.104   7.703   1.988  0.9640  1.0762  0.0646
  871MOL0     C17507   4.169   7.725   1.862  0.1094 -0.1880  0.1575
  871MOL0     C17508   4.313   7.729   1.855  0.2122 -0.9269  0.1964
  871MOL0     O17509   4.385   7.781   1.748 -0.3284  0.0652  0.1254
  871MOL0     C17510   4.309   7.864   1.656  0.3097 -0.9178 -0.4416
  871MOL0     C17511   4.396   7.937   1.561  1.1591  0.7756 -0.1368
  871MOL0     C17512   4.451   8.066   1.634  0.7191  0.1762  0.3229
  871MOL0     C17513   4.535   8.160   1.546  0.1454  0.5403 -0.1057
  871MOL0     C17514   4.666   8.098   1.531  0.5251  0.5873 -0.4685
  871MOL0     C17515   4.772   8.049   1.519 -0.6467  0.7545  0.3464
  871MOL0     C17516   4.391   7.689   1.963  0.2269 -0.5284  0.5867
  871MOL0     C17517   4.330   7.654   2.081  0.7265  0.0647  0.1028
  871MOL0     H17518   3.896   7.374   2.314  3.5501 -0.6711  0.5258
  871MOL0     H17519   3.824   7.318   2.540 -1.2869  0.2969  0.3989
  871MOL0     H17520   3.634   7.534   2.850  2.6651  3.1759  1.7398
  871MOL0     H17521   3.687   7.681   2.765  1.6513  0.3090 -2.0868
  871MOL0     H17522   3.438   7.610   2.718  1.8162  5.2705 -0.1886
  871MOL0     H17523   3.539   7.654   2.588 -1.1127  2.1870  1.4821
  871MOL0     H17524   3.574   7.418   2.517 -0.4465 -2.3131  0.0686
  871MOL0     H17525   3.534   7.356   2.674 -2.8131  0.2274  0.5557
  871MOL0     H17526   3.375   7.298   2.494  4.2471  0.2777  0.3974
  871MOL0     H17527   3.309   7.374   2.642  1.6108 -0.3215  1.2922
  871MOL0     H17528   3.295   7.594   2.494 -0.5677 -0.5407 -0.1792
  871MOL0     H17529   3.367   7.502   2.364 -1.8703 -0.7061 -0.9726
  871MOL0     H17530   3.099   7.459   2.484 -0.5917  1.4789  0.0718
  871MOL0     H17531   3.143   7.524   2.323  0.9432 -2.0459 -1.3996
  871MOL0     H17532   3.100   7.312   2.247 -1.0685 -0.8753  0.9089
  871MOL0     H17533   3.266   7.280   2.302  0.5130 -1.1748  0.1291
  871MOL0     H17534   2.977   7.219   2.410  0.8556 -0.8984 -0.6272
  871MOL0     H17535   3.119   7.217   2.524  2.4098 -4.4838  0.0572
  871MOL0     H17536   3.332   7.062   2.440  0.5591 -0.2616 -0.5918
  871MOL0     H17537   3.338   6.746   2.217  3.7856  0.6522 -0.2622
  871MOL0     H17538   3.442   6.876   2.304 -1.8748  3.1439 -3.5758
  871MOL0     H17539   3.416   6.749   2.514  0.5570 -0.5663  0.4044
  871MOL0     H17540   3.451   6.633   2.390 -2.8118 -1.7380 -1.8913
  871MOL0     H17541   3.232   6.558   2.354 -0.9435 -0.3971  0.6023
  871MOL0     H17542   3.163   6.677   2.455 -3.4178 -5.2500  3.4030
  871MOL0     H17543   3.247   6.587   2.652 -2.9811  1.7037 -1.0498
  871MOL0     H17544   3.338   6.456   2.567  1.7757  2.9498 -3.2592
  871MOL0     H17545   3.258   6.406   2.809  0.0047  0.0325 -2.7132
  871MOL0     H17546   3.305   6.190   2.991 -0.3046  1.2555  2.0117
  871MOL0     H17547   3.275   6.350   3.030  3.7618 -2.2072  1.0498
  871MOL0     H17548   3.172   6.232   3.113 -1.6047  0.6836  0.4813
  871MOL0     H17549   2.843   6.043   3.247  0.2050  0.8649 -1.1006
  871MOL0     H17550   2.735   5.847   3.372 -2.2368 -2.1805  0.0887
  871MOL0     H17551   2.378   5.658   3.191  1.3294  2.1262 -0.1932
  871MOL0     H17552   2.512   5.543   3.148 -2.3801 -0.0056 -1.8054
  871MOL0     H17553   2.503   5.441   3.375  0.4202  0.0146  0.6711
  871MOL0     H17554   2.403   5.576   3.429 -2.6021  0.7333 -0.6991
  871MOL0     H17555   2.314   5.379   3.207 -2.1607  1.9864 -1.3885
  871MOL0     H17556   2.212   5.492   3.269 -1.1630 -0.4988  0.8036
  871MOL0     H17557   2.302   5.236   3.412 -1.7009 -1.8130 -0.9682
  871MOL0     H17558   2.260   5.377   3.510  1.8199 -1.0010  0.4837
  871MOL0     H17559   2.078   5.244   3.491 -0.6937  0.2114  0.8428
  871MOL0     H17560   2.094   5.207   3.314 -2.5515 -0.2070  0.6125
  871MOL0     H17561   2.009   5.459   3.444  0.1800 -0.4021  0.8933
  871MOL0     H17562   2.016   5.440   3.262  0.0035 -3.1823 -2.4086
  871MOL0     H17563   1.797   5.420   3.410 -0.2138  0.1328 -1.4197
  871MOL0     H17564   1.830   5.241   3.421  0.3382 -0.0572  2.4018
  871MOL0     H17565   1.807   5.424   3.178  2.7124 -0.1700 -1.0638
  871MOL0     H17566   1.692   5.299   3.227 -0.4826  4.3499 -3.4141
  871MOL0     H17567   2.489   5.767   3.032 -1.1015 -0.7324  2.4328
  871MOL0     H17568   2.593   5.942   2.907  1.1504  0.3672  0.3624
  871MOL0     H17569   2.822   6.178   2.758 -0.7408 -0.9438  0.2687
  871MOL0     H17570   2.901   6.321   2.582  2.0019 -2.1836 -2.7750
  871MOL0     H17571   3.838   7.734   2.646 -2.3874  0.3434 -0.7147
  871MOL0     H17572   3.942   7.787   2.424  0.0397  0.6660  1.5004
  871MOL0     H17573   3.996   7.709   1.999  0.4974 -1.8544 -1.8040
  871MOL0     H17574   4.120   7.745   1.767  1.3348 -1.5478 -0.8081
  871MOL0     H17575   4.252   7.798   1.591  0.6650 -0.6517 -1.0261
  871MOL0     H17576   4.248   7.933   1.715  2.1898 -2.0754  3.1975
  871MOL0     H17577   4.347   7.960   1.466 -0.0786 -0.2720  0.2161
  871MOL0     H17578   4.476   7.868   1.531 -0.5191 -1.0519 -0.6283
  871MOL0     H17579   4.505   8.040   1.725 -0.5935 -1.4887  0.6639
  871MOL0     H17580   4.367   8.130   1.664  0.7729 -0.7551  2.6305
  871MOL0     H17581   4.543   8.256   1.598  0.9408  0.1535  0.4996
  871MOL0     H17582   4.489   8.177   1.448  2.1555  1.5802 -0.9174
  871MOL0     H17583   4.870   8.009   1.502 -1.1619 -0.6718  0.6002
  871MOL0     H17584   4.499   7.693   1.966  0.2605 -1.1025  0.2649
  871MOL0     H17585   4.388   7.627   2.168  1.7609 -2.4526 -1.2514
  872MOL0     O17586   8.819  10.914   2.909 -0.8084 -0.2783 -0.0101
  872MOL0     C17587   8.795  10.795   2.911 -0.8083  1.2805  0.9350
  872MOL0     O17588   8.681  10.728   2.882  0.2627 -0.9087  0.4553
  872MOL0     C17589   8.580  10.802   2.835 -0.8226 -0.6299 -0.4171
  872MOL0     C17590   8.588  10.922   2.752 -0.4549  0.5982 -0.8908
  872MOL0     C17591   8.475  10.993   2.710  0.4089 -0.2446 -0.2520
  872MOL0     C17592   8.344  10.946   2.736 -0.2847  0.0620  0.0966
  872MOL0     O17593   8.231  11.002   2.685  0.0068  0.2959  0.0294
  872MOL0     C17594   8.237  11.125   2.613  0.2917 -0.0545 -0.5281
  872MOL0     C17595   8.102  11.196   2.632  0.3057  0.0907  0.3999
  872MOL0     C17596   7.994  11.124   2.547  0.1824 -0.0771 -0.3234
  872MOL0     C17597   7.855  11.178   2.570 -0.0023  0.1051  1.3260
  872MOL0     C17598   7.747  11.101   2.484  0.5901 -0.8573 -0.4240
  872MOL0     C17599   7.705  10.961   2.550  0.5787  0.3004 -0.5756
  872MOL0     C17600   7.596  10.900   2.463  0.4548  1.0072 -0.1443
  872MOL0     C17601   7.453  10.947   2.514 -0.0345  0.0745  0.0906
  872MOL0     N17602   7.341  10.882   2.438 -0.2629 -0.2165  0.0103
  872MOL0     C17603   7.271  10.768   2.477 -0.5187 -0.1333 -0.0751
  872MOL0     C17604   7.192  10.750   2.367  0.4624 -0.0755 -0.1926
  872MOL0     C17605   7.110  10.629   2.343  0.7777  0.2392  0.1901
  872MOL0     C17606   7.159  10.546   2.220  0.5739 -0.4219 -0.2377
  872MOL0     C17607   7.085  10.415   2.207 -1.3584  0.8673  0.9590
  872MOL0     C17608   6.931  10.426   2.175 -0.6176  0.0047  0.5837
  872MOL0     O17609   6.886  10.293   2.181  0.1197  0.4141  0.5152
  872MOL0     C17610   6.771  10.274   2.112 -0.0969 -0.5629  0.1219
  872MOL0     C17611   6.694  10.369   2.034  0.2583 -1.3849  0.1401
  872MOL0     C17612   6.591  10.327   1.952  0.7757  0.1882 -0.9236
  872MOL0     C17613   6.540  10.436   1.864  0.4779  0.4967  0.8124
  872MOL0     C17614   6.548  10.194   1.948 -0.5777  0.5451 -0.0743
  872MOL0     C17615   6.419  10.146   1.880 -0.4002  0.6223  0.0598
  872MOL0     O17616   6.400  10.007   1.880 -0.0513 -1.1375  0.9528
  872MOL0     C17617   6.282   9.941   1.826 -0.9326 -0.3397  0.2502
  872MOL0     C17618   6.254   9.822   1.894  0.3353  0.5307  0.0027
  872MOL0     C17619   6.151   9.733   1.869  0.8289 -0.3616  0.3001
  872MOL0     C17620   6.069   9.770   1.762  0.6553  0.2126  0.2712
  872MOL0     O17621   5.958   9.688   1.741  0.6159  0.2211 -0.7423
  872MOL0     C17622   5.857   9.727   1.655  0.8360 -0.7401 -1.3892
  872MOL0     C17623   5.742   9.621   1.664  0.0688 -0.3551  0.5112
  872MOL0     C17624   5.781   9.504   1.575 -0.3537 -0.0401 -0.6096
  872MOL0     C17625   5.796   9.535   1.424 -0.2716  0.3265  0.1929
  872MOL0     C17626   5.793   9.419   1.327 -0.4493 -0.9952 -0.2915
  872MOL0     C17627   5.922   9.324   1.331  0.0662 -0.4605 -0.2885
  872MOL0     C17628   6.038   9.404   1.261 -0.1842 -0.3549 -0.3253
  872MOL0     C17629   6.132   9.313   1.178  0.1458 -0.6563 -0.0255
  872MOL0    Cl17630   6.273   9.393   1.126 -0.6086  0.0673 -0.0449
  872MOL0     C17631   6.093   9.895   1.688 -0.2047  0.8293  0.2092
  872MOL0     C17632   6.199   9.975   1.716 -0.1063  0.3360  0.9028
  872MOL0     O17633   6.344  10.227   1.831  0.0764 -0.1286 -0.0339
  872MOL0     C17634   6.623  10.101   2.015 -0.8553 -0.3048  0.2992
  872MOL0     C17635   6.736  10.137   2.093  0.5659  0.4642 -0.1270
  872MOL0     N17636   7.197  10.851   2.278  0.0616 -0.1013  0.5477
  872MOL0     N17637   7.293  10.923   2.315 -0.3769 -0.8529 -0.1928
  872MOL0     C17638   8.335  10.831   2.822 -0.1849  0.2239 -0.2682
  872MOL0     C17639   8.448  10.765   2.868  0.6581  0.4197  0.2888
  872MOL0     C17640   8.915  10.708   2.938  0.5459  0.4634  0.4318
  872MOL0     C17641   8.923  10.573   2.895 -0.4836  0.5261  0.2261
  872MOL0     C17642   9.037  10.489   2.934  0.4289 -0.5530  0.1613
  872MOL0     C17643   9.140  10.547   3.011  0.1300  0.6604  0.2709
  872MOL0     O17644   9.249  10.468   3.042 -0.1340  0.1221  0.6282
  872MOL0     C17645   9.324  10.493   3.157  0.0317 -0.1454  0.2830
  872MOL0     C17646   9.408  10.368   3.183  0.2041  0.0335  0.4541
  872MOL0     C17647   9.495  10.377   3.305 -0.5681  0.0263  0.0706
  872MOL0     C17648   9.642  10.350   3.274 -0.1639  0.1830 -0.5999
  872MOL0     C17649   9.700  10.470   3.213 -0.1680 -0.5988  0.3534
  872MOL0     C17650   9.751  10.567   3.161 -0.2444  0.2905  0.1959
  872MOL0     C17651   9.129  10.679   3.058 -0.4438  0.4594  0.6137
  872MOL0     C17652   9.019  10.752   3.019  0.3642 -0.6364  0.3292
  872MOL0     H17653   8.685  10.957   2.717 -0.3054 -0.0382 -1.1344
  872MOL0     H17654   8.486  11.085   2.653 -3.1473  1.4206  1.4129
  872MOL0     H17655   8.311  11.193   2.657 -0.9158 -0.4367  2.2957
  872MOL0     H17656   8.257  11.102   2.508  1.7910  2.6161 -0.9326
  872MOL0     H17657   8.083  11.195   2.740 -0.3328 -1.7311  0.3068
  872MOL0     H17658   8.116  11.302   2.610  1.9861 -0.2257 -0.1941
  872MOL0     H17659   8.014  11.132   2.440 -1.9290 -4.0655 -1.2328
  872MOL0     H17660   7.987  11.018   2.572 -2.8035  0.3699  1.2360
  872MOL0     H17661   7.824  11.164   2.674  2.5602  0.4627  2.1940
  872MOL0     H17662   7.856  11.286   2.553 -0.9748  0.4897  3.4534
  872MOL0     H17663   7.660  11.167   2.470  0.1099 -1.3901 -0.0102
  872MOL0     H17664   7.789  11.076   2.386  1.0181 -0.7144 -0.2767
  872MOL0     H17665   7.790  10.892   2.557 -1.9433 -2.9350  0.2716
  872MOL0     H17666   7.670  10.968   2.653  1.2891 -2.3557 -0.0680
  872MOL0     H17667   7.615  10.934   2.361  2.3767  2.0140  0.4909
  872MOL0     H17668   7.595  10.790   2.467 -3.1892  0.9401  0.5952
  872MOL0     H17669   7.437  11.055   2.511  2.5466  0.5106 -0.2454
  872MOL0     H17670   7.438  10.921   2.619 -6.3706  4.3298  0.7628
  872MOL0     H17671   7.283  10.715   2.571 -0.6772 -0.3745 -0.1884
  872MOL0     H17672   7.097  10.563   2.429 -1.0135 -2.2091 -1.7979
  872MOL0     H17673   7.005  10.652   2.321  0.5956  0.1981  0.9571
  872MOL0     H17674   7.268  10.542   2.217  0.7613  0.6075  2.6275
  872MOL0     H17675   7.144  10.604   2.128  2.5433 -0.1316 -0.4152
  872MOL0     H17676   7.090  10.354   2.297 -0.8212  0.6898  0.8103
  872MOL0     H17677   7.130  10.371   2.118 -0.1525  3.5085  0.1567
  872MOL0     H17678   6.934  10.483   2.082  3.0631  0.2977  0.7500
  872MOL0     H17679   6.869  10.496   2.232 -2.8327 -0.2949 -1.3136
  872MOL0     H17680   6.730  10.471   2.021 -0.3657 -1.2400 -0.4968
  872MOL0     H17681   6.597  10.527   1.845  1.5190  0.2089  2.3714
  872MOL0     H17682   6.543  10.387   1.766  0.6053  2.6635 -0.3270
  872MOL0     H17683   6.435  10.456   1.886  0.3727  1.2167 -0.2790
  872MOL0     H17684   6.312   9.794   1.981  3.1171  1.8111 -1.3182
  872MOL0     H17685   6.117   9.644   1.920 -1.7203  0.7192  0.6186
  872MOL0     H17686   5.814   9.823   1.685  1.0147 -1.4106  1.3150
  872MOL0     H17687   5.892   9.733   1.552  2.5866 -0.1176 -0.7890
  872MOL0     H17688   5.730   9.577   1.763 -3.3169  0.5830  0.6164
  872MOL0     H17689   5.650   9.667   1.627 -0.2214 -1.4689 -0.2196
  872MOL0     H17690   5.703   9.428   1.588 -1.1648  1.0195  0.9844
  872MOL0     H17691   5.875   9.462   1.611 -1.7825 -1.6054  1.5177
  872MOL0     H17692   5.708   9.595   1.397 -0.1567  0.7202  0.6775
  872MOL0     H17693   5.883   9.594   1.396  0.1393 -0.2453  0.2439
  872MOL0     H17694   5.786   9.459   1.225 -1.4275 -1.0354 -0.2448
  872MOL0     H17695   5.705   9.361   1.357 -0.3980 -1.6164 -1.2649
  872MOL0     H17696   5.956   9.298   1.432  3.9115 -0.7818 -1.4873
  872MOL0     H17697   5.893   9.233   1.277 -2.2426  0.5801 -0.9065
  872MOL0     H17698   6.087   9.435   1.353 -1.3948  0.1039  0.1924
  872MOL0     H17699   5.998   9.485   1.200  0.4429  1.5598  1.6808
  872MOL0     H17700   6.079   9.283   1.088 -1.3666  3.2092 -0.6208
  872MOL0     H17701   6.162   9.227   1.239 -2.1019 -0.1302  1.9745
  872MOL0     H17702   6.033   9.920   1.601 -2.0142  0.0176  1.1627
  872MOL0     H17703   6.228  10.057   1.652  1.0512 -1.2647 -0.7249
  872MOL0     H17704   6.591   9.998   2.008 -0.9370 -0.1996 -1.2330
  872MOL0     H17705   6.789  10.062   2.150 -3.4628 -0.3337  3.0981
  872MOL0     H17706   8.233  10.799   2.838 -0.0479  0.0775  0.3366
  872MOL0     H17707   8.449  10.681   2.937  1.2837  2.7865  3.3957
  872MOL0     H17708   8.855  10.517   2.831 -1.4812  2.4052 -0.4376
  872MOL0     H17709   9.051  10.384   2.908 -0.0884 -0.4866 -0.4244
  872MOL0     H17710   9.390  10.580   3.150  0.7533 -0.5066  2.0061
  872MOL0     H17711   9.261  10.516   3.244  0.2969  1.0900  0.1712
  872MOL0     H17712   9.471  10.344   3.096 -0.9847 -0.1710 -0.3696
  872MOL0     H17713   9.338  10.286   3.197 -0.0460  0.6458  3.3067
  872MOL0     H17714   9.473  10.300   3.380  1.3911 -1.3252 -0.6471
  872MOL0     H17715   9.481  10.477   3.348  1.0644 -0.3533  1.6130
  872MOL0     H17716   9.656  10.271   3.200 -1.1904  1.3253 -2.0665
  872MOL0     H17717   9.699  10.322   3.364 -2.8696  0.9965  1.4979
  872MOL0     H17718   9.785  10.651   3.103 -0.4376 -0.1402 -0.5595
  872MOL0     H17719   9.216  10.721   3.108  2.0517 -1.1537 -2.0544
  872MOL0     H17720   9.009  10.849   3.065 -1.1937 -1.4480  1.7901
  873MOL0     O17721   9.104  10.582   5.717 -0.0197 -0.2648  0.1980
  873MOL0     C17722   9.043  10.494   5.667 -0.3627  1.3505 -0.1586
  873MOL0     O17723   9.103  10.383   5.605  0.1110 -0.5987 -0.1936
  873MOL0     C17724   9.241  10.383   5.598  0.3040 -0.2296 -0.5271
  873MOL0     C17725   9.298  10.260   5.643 -0.7529 -0.1978 -0.8112
  873MOL0     C17726   9.438  10.245   5.643  0.7006  0.4797  0.2080
  873MOL0     C17727   9.517  10.339   5.588  0.0204 -0.5035 -0.2076
  873MOL0     O17728   9.653  10.314   5.573  0.0343  0.4676  0.1073
  873MOL0     C17729   9.732  10.316   5.692 -1.2266  0.6277 -0.7088
  873MOL0     C17730   9.874  10.260   5.649 -0.1612  0.0880 -0.5134
  873MOL0     C17731   9.963  10.254   5.772 -0.1300 -0.0984 -0.2528
  873MOL0     C17732  10.101  10.204   5.740  0.1225  0.6580 -0.4866
  873MOL0     C17733  10.176  10.284   5.620  0.3216  0.6739  0.9719
  873MOL0     C17734  10.212  10.431   5.632  0.7253  0.8498 -0.2666
  873MOL0     C17735  10.268  10.475   5.500 -0.4234  0.6813 -0.5473
  873MOL0     C17736  10.273  10.627   5.480 -0.6924 -0.2111  0.3523
  873MOL0     N17737  10.174  10.677   5.381  0.5377 -0.3438 -0.1117
  873MOL0     C17738  10.210  10.732   5.256 -0.0298 -0.1535  0.5311
  873MOL0     C17739  10.107  10.811   5.217  0.5774  0.5436 -0.0130
  873MOL0     C17740  10.110  10.880   5.084  0.6392 -0.5733  1.2928
  873MOL0     C17741  10.006  10.817   4.990  0.5280  1.1788  0.9550
  873MOL0     C17742  10.048  10.832   4.844  0.6247 -0.5385  0.5487
  873MOL0     C17743   9.933  10.781   4.761 -0.8876 -0.0776  0.2028
  873MOL0     O17744   9.944  10.823   4.625  0.2139 -0.4757  0.6095
  873MOL0     C17745   9.863  10.769   4.522  0.2838 -0.1589  0.6514
  873MOL0     C17746   9.885  10.819   4.393 -0.8610  0.2356  0.6445
  873MOL0     C17747   9.827  10.761   4.275  1.0611  0.2109  0.0524
  873MOL0     C17748   9.866  10.802   4.137 -0.3959  0.6831  0.6550
  873MOL0     C17749   9.726  10.656   4.293  0.0716 -0.5851  0.5155
  873MOL0     C17750   9.653  10.604   4.174 -0.3185  1.1851  0.4875
  873MOL0     O17751   9.595  10.692   4.088 -0.0159 -0.4047  0.2253
  873MOL0     C17752   9.529  10.635   3.982 -0.1494  0.5211  0.1601
  873MOL0     C17753   9.406  10.569   3.999  0.7106 -0.7620  0.4921
  873MOL0     C17754   9.342  10.514   3.890 -1.7734  0.2927  0.0944
  873MOL0     C17755   9.399  10.510   3.767  0.6170 -0.3343 -0.3026
  873MOL0     O17756   9.328  10.450   3.659  0.0040 -0.2680  0.2095
  873MOL0     C17757   9.189  10.403   3.656 -0.2602  0.2505 -0.4279
  873MOL0     C17758   9.151  10.310   3.544 -0.2243 -0.0970  0.3642
  873MOL0     C17759   8.997  10.302   3.534  0.5157  0.5734  0.1674
  873MOL0     C17760   8.964  10.248   3.394 -0.1965 -0.1591 -0.4481
  873MOL0     C17761   8.823  10.264   3.359 -0.3563  0.0499 -0.7502
  873MOL0     C17762   8.809  10.386   3.276  0.0105 -0.5406  0.1196
  873MOL0     C17763   8.666  10.427   3.266 -0.3309 -0.1731  0.1809
  873MOL0     C17764   8.634  10.545   3.174 -0.4188  0.0513 -0.4040
  873MOL0    Cl17765   8.716  10.693   3.212 -0.1259 -0.3748  0.2089
  873MOL0     C17766   9.526  10.573   3.751 -0.2614  0.4491  0.2270
  873MOL0     C17767   9.588  10.637   3.860  0.8337  0.0606  0.8194
  873MOL0     O17768   9.638  10.480   4.177 -0.0111 -0.1859 -0.3237
  873MOL0     C17769   9.704  10.616   4.424 -0.0979 -0.1156 -1.0963
  873MOL0     C17770   9.766  10.668   4.539  0.7555 -0.2070  0.6998
  873MOL0     N17771  10.009  10.811   5.312  0.1320 -0.1272 -0.3968
  873MOL0     N17772  10.056  10.734   5.409  0.6058 -1.3530 -0.3004
  873MOL0     C17773   9.469  10.460   5.539  1.3363 -0.1255 -0.2999
  873MOL0     C17774   9.323  10.486   5.551  0.0449  0.6638  0.0464
  873MOL0     C17775   8.903  10.520   5.661  0.1831 -0.0923 -1.2014
  873MOL0     C17776   8.830  10.620   5.738  0.1346 -0.4239 -0.0565
  873MOL0     C17777   8.691  10.634   5.717  0.1762  0.3004  0.0114
  873MOL0     C17778   8.622  10.558   5.627 -0.2055  0.4173 -0.1729
  873MOL0     O17779   8.490  10.603   5.598 -0.5780 -0.5520 -0.2373
  873MOL0     C17780   8.387  10.501   5.567 -0.1216  0.3260 -0.3629
  873MOL0     C17781   8.245  10.565   5.551 -0.7100 -0.6204 -0.2858
  873MOL0     C17782   8.237  10.669   5.432  0.4855  0.5874 -0.4246
  873MOL0     C17783   8.247  10.597   5.302 -1.0653  0.2469 -0.1042
  873MOL0     C17784   8.228  10.694   5.191 -0.2763 -0.1631 -0.5546
  873MOL0     C17785   8.205  10.772   5.100 -0.4764  0.3009  0.2675
  873MOL0     C17786   8.691  10.459   5.547  0.0590  0.2469 -0.7121
  873MOL0     C17787   8.832  10.442   5.569  1.3724  0.0196 -0.6583
  873MOL0     H17788   9.233  10.177   5.668 -0.3445 -0.4072 -0.4453
  873MOL0     H17789   9.476  10.153   5.686 -0.7700  1.2142  3.3926
  873MOL0     H17790   9.746  10.417   5.730  1.0725 -0.3844  1.4378
  873MOL0     H17791   9.693  10.251   5.771 -0.5278  0.8305 -0.1878
  873MOL0     H17792   9.885  10.160   5.606  4.4470 -0.3767  1.2109
  873MOL0     H17793   9.918  10.333   5.580  2.2829 -1.7970 -1.0953
  873MOL0     H17794   9.969  10.357   5.809  0.0899 -0.5333  0.9476
  873MOL0     H17795   9.919  10.181   5.841 -1.1646 -0.0219 -0.8016
  873MOL0     H17796  10.166  10.209   5.828  1.3518  1.8418 -1.4060
  873MOL0     H17797  10.088  10.097   5.723  0.5692  0.5235 -0.0001
  873MOL0     H17798  10.270  10.228   5.618  0.1951  0.4254  1.5214
  873MOL0     H17799  10.119  10.269   5.528 -2.1367  4.0181  1.7580
  873MOL0     H17800  10.123  10.488   5.660  0.7999  0.8317  0.0138
  873MOL0     H17801  10.280  10.452   5.715  0.0198  1.7123  0.1023
  873MOL0     H17802  10.368  10.433   5.486  0.0314  2.1924 -2.0925
  873MOL0     H17803  10.199  10.444   5.422 -1.5239  0.6476  0.4117
  873MOL0     H17804  10.368  10.654   5.432 -0.5436  0.7492  1.1464
  873MOL0     H17805  10.274  10.674   5.579  1.0607 -0.8889  0.6987
  873MOL0     H17806  10.302  10.715   5.201 -1.3645  0.0304 -1.9121
  873MOL0     H17807  10.091  10.987   5.088  1.9995 -0.3409  2.7762
  873MOL0     H17808  10.202  10.873   5.026 -1.3712  2.2628 -2.7162
  873MOL0     H17809   9.906  10.857   5.011  0.3536 -0.5468  4.1382
  873MOL0     H17810  10.008  10.708   5.006  0.0944  1.0823  0.3922
  873MOL0     H17811  10.142  10.787   4.810  0.5532  0.7086 -1.5287
  873MOL0     H17812  10.059  10.941   4.833 -0.9460 -0.3588  0.5632
  873MOL0     H17813   9.832  10.802   4.797 -0.4820 -0.4636  1.6401
  873MOL0     H17814   9.935  10.672   4.751 -1.0938 -0.1026  0.4191
  873MOL0     H17815   9.959  10.896   4.380  0.3141 -1.0025 -0.2352
  873MOL0     H17816   9.897  10.709   4.088 -1.2600  0.7865 -0.1142
  873MOL0     H17817   9.785  10.845   4.078 -1.4851 -1.7008  0.3056
  873MOL0     H17818   9.950  10.872   4.139 -0.2060  0.4587  0.5454
  873MOL0     H17819   9.351  10.567   4.093  1.3895  0.5086  0.9399
  873MOL0     H17820   9.253  10.457   3.916 -1.0236 -0.8178  0.2878
  873MOL0     H17821   9.172  10.358   3.754 -1.6677  1.6913  0.0258
  873MOL0     H17822   9.118  10.486   3.661  2.6133  2.9325 -1.0806
  873MOL0     H17823   9.183  10.354   3.448 -1.9294 -0.0914 -0.2273
  873MOL0     H17824   9.185  10.207   3.555  0.0858 -0.0498 -0.1006
  873MOL0     H17825   8.951  10.401   3.530 -1.2938 -0.0958  2.5440
  873MOL0     H17826   8.959  10.257   3.626 -1.3285  0.5729 -0.5592
  873MOL0     H17827   9.024  10.300   3.319 -1.4863  0.9380 -0.7380
  873MOL0     H17828   9.001  10.145   3.388  1.1908  0.3844 -2.1207
  873MOL0     H17829   8.762  10.273   3.450  2.3312 -1.7627  1.3926
  873MOL0     H17830   8.780  10.167   3.330 -2.6066 -0.4632  3.4294
  873MOL0     H17831   8.860  10.472   3.321 -1.7444 -1.1831  3.7203
  873MOL0     H17832   8.844  10.356   3.177 -0.6456 -1.2079  0.0806
  873MOL0     H17833   8.642  10.451   3.370  1.6619 -1.1816  0.9237
  873MOL0     H17834   8.604  10.345   3.231 -0.0764 -0.1299 -0.3808
  873MOL0     H17835   8.527  10.562   3.166 -0.5694 -0.2201  0.8174
  873MOL0     H17836   8.667  10.514   3.075 -2.6996 -0.6120 -1.0084
  873MOL0     H17837   9.570  10.561   3.653 -1.1160  1.5555 -0.3151
  873MOL0     H17838   9.687  10.675   3.835  0.6801 -0.2952 -0.3836
  873MOL0     H17839   9.617  10.553   4.440 -1.6385  2.5428  2.9738
  873MOL0     H17840   9.735  10.633   4.637  0.4064 -0.0116  0.6615
  873MOL0     H17841   9.533  10.544   5.518  0.4476  0.7474  0.3752
  873MOL0     H17842   9.281  10.585   5.537  0.7405  0.9172 -0.3467
  873MOL0     H17843   8.897  10.676   5.803 -1.3294 -1.4354  2.4829
  873MOL0     H17844   8.635  10.719   5.752 -0.4211 -0.7768  1.8196
  873MOL0     H17845   8.410  10.438   5.481 -2.7681 -2.4798  0.7872
  873MOL0     H17846   8.385  10.436   5.655  1.6563  2.2533  1.1870
  873MOL0     H17847   8.216  10.612   5.645 -1.8681 -1.1025 -0.3798
  873MOL0     H17848   8.170  10.485   5.538  0.6427 -2.1722  1.0073
  873MOL0     H17849   8.318  10.741   5.442 -0.9835  2.2419  0.0664
  873MOL0     H17850   8.138  10.713   5.449 -0.3295 -0.6124 -1.7994
  873MOL0     H17851   8.176  10.513   5.297 -1.4299  0.5556 -0.1789
  873MOL0     H17852   8.346  10.555   5.286 -1.8969 -1.4288 -1.1634
  873MOL0     H17853   8.197  10.828   5.010 -0.6352 -0.2980 -0.0994
  873MOL0     H17854   8.644  10.403   5.466 -1.1661 -2.1358  1.5192
  873MOL0     H17855   8.876  10.367   5.504  0.8362 -1.6036  0.7791
  874MOL0     O17856   3.443   1.645  11.308 -0.1280  0.2173 -0.0850
  874MOL0     C17857   3.530   1.705  11.370 -0.1868 -1.0488 -0.1230
  874MOL0     O17858   3.509   1.776  11.485  0.4788  0.3724 -0.5731
  874MOL0     C17859   3.376   1.796  11.523 -0.6527  0.8546 -0.4037
  874MOL0     C17860   3.308   1.913  11.504 -0.0054  0.6438  0.3227
  874MOL0     C17861   3.171   1.925  11.537 -0.8501 -0.0464 -0.5328
  874MOL0     C17862   3.092   1.816  11.577 -0.9058 -0.2488 -0.5437
  874MOL0     O17863   2.961   1.829  11.611  0.2935  0.3170  0.0576
  874MOL0     C17864   2.868   1.719  11.619  0.8340 -0.1742  0.6566
  874MOL0     C17865   2.730   1.772  11.608 -0.6245  0.1979  0.8035
  874MOL0     C17866   2.690   1.841  11.741 -0.7428  0.8562  0.1093
  874MOL0     C17867   2.565   1.916  11.710  0.2118  0.3190  0.2471
  874MOL0     C17868   2.505   1.988  11.836  0.0246 -0.2061 -0.0880
  874MOL0     C17869   2.386   2.073  11.792 -0.0310 -0.4476  0.2475
  874MOL0     C17870   2.317   2.131  11.914  0.0583 -0.3651 -0.2250
  874MOL0     C17871   2.235   2.257  11.872  1.2317  0.0552  0.6203
  874MOL0     N17872   2.142   2.295  11.979  0.5042 -0.6070 -0.4922
  874MOL0     C17873   2.166   2.296  12.111 -0.9599 -0.0257 -0.2155
  874MOL0     C17874   2.071   2.370  12.169 -0.0783  0.6714 -0.5729
  874MOL0     C17875   2.062   2.384  12.319 -0.0302 -0.9944  0.1239
  874MOL0     C17876   1.972   2.287  12.384 -0.4464 -0.0260 -0.6281
  874MOL0     C17877   1.819   2.284  12.349  0.6948 -0.2201 -0.3641
  874MOL0     C17878   1.738   2.185  12.429 -0.2352  0.6819 -0.4213
  874MOL0     O17879   1.729   2.218  12.567  0.1111 -0.0779  0.2734
  874MOL0     C17880   1.636   2.156  12.646  0.1042 -0.5989 -0.3515
  874MOL0     C17881   1.541   2.060  12.603 -0.1827 -0.1069  0.2928
  874MOL0     C17882   1.451   1.995  12.698  0.5737  0.5751  0.0905
  874MOL0     C17883   1.351   1.901  12.645  0.3249  0.5411  0.2008
  874MOL0     C17884   1.445   2.056  12.833  0.0355  0.5546  0.5020
  874MOL0     C17885   1.350   2.007  12.934 -0.2929 -0.5358 -0.7459
  874MOL0     O17886   1.283   1.896  12.910  0.2349  0.5063 -0.3139
  874MOL0     C17887   1.173   1.861  12.977  0.1570 -0.9750  0.2661
  874MOL0     C17888   1.102   1.919  13.081 -0.0048 -0.1886 -0.0831
  874MOL0     C17889   0.990   1.866  13.144 -0.0258 -0.1575 -0.4808
  874MOL0     C17890   0.942   1.742  13.093 -0.2318  0.6573 -0.5076
  874MOL0     O17891   0.838   1.672  13.149  0.1936 -0.6340  0.2478
  874MOL0     C17892   0.765   1.732  13.257 -0.8644  0.2412  0.4854
  874MOL0     C17893   0.652   1.632  13.297 -0.7225 -0.5739  0.2480
  874MOL0     C17894   0.622   1.678  13.442 -0.5946 -0.6193  0.2024
  874MOL0     C17895   0.546   1.808  13.453 -0.1745 -0.0516  0.1486
  874MOL0     C17896   0.484   1.816  13.596  0.2808 -0.3193 -0.4885
  874MOL0     C17897   0.380   1.925  13.607  0.1836 -0.4586 -0.1139
  874MOL0     C17898   0.300   1.920  13.744 -0.4868 -0.1905  0.1263
  874MOL0     C17899   0.170   1.997  13.746  0.0258 -0.4919  0.6012
  874MOL0    Cl17900   0.201   2.159  13.681  0.0513 -0.1361  0.1258
  874MOL0     C17901   1.000   1.690  12.975  0.2930  0.9490  0.2830
  874MOL0     C17902   1.111   1.748  12.918  0.5027 -0.0298  1.0851
  874MOL0     O17903   1.342   2.075  13.038 -0.4761  1.1270  0.1311
  874MOL0     C17904   1.538   2.156  12.868  0.4157 -0.7269 -0.5144
  874MOL0     C17905   1.625   2.204  12.776 -0.9047 -0.8146  0.4839
  874MOL0     N17906   1.975   2.400  12.074  0.0001 -1.0178  0.4152
  874MOL0     N17907   2.018   2.343  11.961 -0.5099  0.1976 -0.0885
  874MOL0     C17908   3.164   1.697  11.604 -0.0661  0.1980 -0.1634
  874MOL0     C17909   3.307   1.686  11.587  0.4584 -0.0709 -0.1636
  874MOL0     C17910   3.672   1.699  11.326 -0.5508 -0.0152  0.7621
  874MOL0     C17911   3.784   1.761  11.388  0.2979  0.3396 -0.1269
  874MOL0     C17912   3.916   1.750  11.344 -0.7160  0.3476 -0.2845
  874MOL0     C17913   3.944   1.662  11.238 -0.5998 -0.4631 -0.3736
  874MOL0     O17914   4.080   1.664  11.195  0.3254  0.2484  0.3627
  874MOL0     C17915   4.104   1.586  11.075  0.6406  0.2692  0.3653
  874MOL0     C17916   4.251   1.573  11.043  0.0244  0.7989 -0.0426
  874MOL0     C17917   4.316   1.708  11.007  0.1287 -0.5810 -0.8448
  874MOL0     C17918   4.417   1.737  11.116  0.0929 -0.3840 -0.7343
  874MOL0     C17919   4.548   1.663  11.108 -0.1364 -1.0422  1.0820
  874MOL0     C17920   4.657   1.607  11.115 -0.7831  0.4049  0.1349
  874MOL0     C17921   3.836   1.600  11.176 -0.5969 -0.2862  0.1011
  874MOL0     C17922   3.708   1.614  11.219  0.0379  0.3931  0.2419
  874MOL0     H17923   3.355   1.988  11.441 -0.5865  0.2216 -0.6458
  874MOL0     H17924   3.129   2.022  11.513 -3.1539 -0.5279  1.2485
  874MOL0     H17925   2.891   1.652  11.536  1.5354  0.2346  0.5115
  874MOL0     H17926   2.874   1.660  11.711 -2.1454 -2.0960 -0.2399
  874MOL0     H17927   2.722   1.835  11.519  1.8853 -1.6788 -0.8862
  874MOL0     H17928   2.670   1.684  11.584  1.0547 -0.5488 -0.9864
  874MOL0     H17929   2.659   1.781  11.827  0.4983  1.6699  1.1590
  874MOL0     H17930   2.767   1.915  11.766  0.5143 -0.7422  1.2022
  874MOL0     H17931   2.591   1.995  11.639 -0.4701  0.7944  0.5160
  874MOL0     H17932   2.490   1.852  11.663  0.5128  2.3088 -3.2799
  874MOL0     H17933   2.474   1.911  11.907  1.6689  0.0105  0.9255
  874MOL0     H17934   2.587   2.044  11.883  0.0403 -1.0805  0.9841
  874MOL0     H17935   2.417   2.163  11.739 -1.8686  0.0559 -0.0346
  874MOL0     H17936   2.326   2.002  11.734  1.4444 -1.3279 -0.2526
  874MOL0     H17937   2.254   2.053  11.956  1.6796 -0.6606  1.8200
  874MOL0     H17938   2.386   2.155  11.995 -1.7265  1.2178  0.9187
  874MOL0     H17939   2.181   2.232  11.780 -0.1355  1.7731  0.9140
  874MOL0     H17940   2.296   2.343  11.847  0.8125 -0.4110 -2.4268
  874MOL0     H17941   2.254   2.264  12.166 -1.7834 -0.2112  1.0228
  874MOL0     H17942   2.161   2.381  12.367  1.0729  0.8992 -1.8162
  874MOL0     H17943   2.023   2.485  12.336  0.3171 -0.4423 -2.0299
  874MOL0     H17944   1.971   2.307  12.492  0.9714 -0.8684 -0.4304
  874MOL0     H17945   2.016   2.187  12.391  0.9007  0.6366  1.6856
  874MOL0     H17946   1.815   2.255  12.244 -2.4240 -0.7354 -0.1873
  874MOL0     H17947   1.769   2.381  12.353 -1.4642 -1.2786  2.9962
  874MOL0     H17948   1.780   2.086  12.411  0.7582  0.9457  0.3576
  874MOL0     H17949   1.644   2.183  12.374 -0.7323 -1.7692  0.3973
  874MOL0     H17950   1.548   2.017  12.504  0.8439  1.8333 -0.5347
  874MOL0     H17951   1.337   1.800  12.686 -3.0718  0.7560 -0.1842
  874MOL0     H17952   1.261   1.963  12.646 -1.0243 -1.1696 -2.8543
  874MOL0     H17953   1.367   1.884  12.538 -1.9686  0.2132 -0.1396
  874MOL0     H17954   1.139   2.009  13.130 -0.5042 -0.7662  1.4358
  874MOL0     H17955   0.939   1.916  13.226  1.7994  0.5145  0.2994
  874MOL0     H17956   0.842   1.747  13.333 -0.0273  0.2625 -0.3380
  874MOL0     H17957   0.730   1.833  13.238  3.3090  2.4880  3.1436
  874MOL0     H17958   0.561   1.641  13.237 -0.6512 -1.3828  0.0002
  874MOL0     H17959   0.679   1.527  13.285  0.5212 -0.4737  1.7894
  874MOL0     H17960   0.716   1.688  13.497  0.9499 -1.0296 -2.1881
  874MOL0     H17961   0.566   1.591  13.478  0.6947 -0.8286  1.7913
  874MOL0     H17962   0.610   1.895  13.438 -1.1052  0.2319 -2.8352
  874MOL0     H17963   0.473   1.817  13.372  1.4697  1.4068 -1.2452
  874MOL0     H17964   0.554   1.839  13.678 -0.2875 -0.2684 -0.0125
  874MOL0     H17965   0.433   1.722  13.619 -1.6509  0.4775 -1.3180
  874MOL0     H17966   0.431   2.021  13.598 -4.1272  1.9440 -1.8476
  874MOL0     H17967   0.319   1.927  13.516 -3.6326  0.2888  2.2344
  874MOL0     H17968   0.369   1.951  13.823  0.8586 -0.5195 -0.8848
  874MOL0     H17969   0.274   1.815  13.764 -4.8765  1.0279  1.9058
  874MOL0     H17970   0.126   1.995  13.847 -1.3589 -0.1636  0.0337
  874MOL0     H17971   0.090   1.946  13.692 -0.8734  1.8790 -0.4431
  874MOL0     H17972   0.962   1.595  12.940  2.4399 -0.8643  2.5039
  874MOL0     H17973   1.159   1.711  12.829 -3.7286  1.7563 -2.3168
  874MOL0     H17974   1.536   2.198  12.968 -1.8026 -0.5900 -0.5593
  874MOL0     H17975   1.680   2.297  12.794 -0.8933 -1.1651  2.5355
  874MOL0     H17976   3.101   1.611  11.626  0.6634 -0.2966  0.0569
  874MOL0     H17977   3.367   1.601  11.618 -0.0702 -1.1757 -2.0017
  874MOL0     H17978   3.773   1.823  11.477 -1.3962  0.7242 -0.5558
  874MOL0     H17979   4.004   1.792  11.393  2.1207 -3.0904 -1.9836
  874MOL0     H17980   4.066   1.484  11.088  2.0012 -0.1575  1.2280
  874MOL0     H17981   4.062   1.628  10.983 -0.0022 -3.7401 -1.4027
  874MOL0     H17982   4.268   1.510  10.955  4.3988  1.2498  0.2801
  874MOL0     H17983   4.304   1.521  11.122 -2.2915 -0.2168  0.9136
  874MOL0     H17984   4.245   1.791  11.000  0.1130 -0.6072 -1.0013
  874MOL0     H17985   4.368   1.698  10.911  1.2763 -3.0465 -0.0424
  874MOL0     H17986   4.367   1.721  11.212 -1.3674 -1.1761 -1.6022
  874MOL0     H17987   4.440   1.843  11.103  1.0368 -0.1454  2.0634
  874MOL0     H17988   4.745   1.548  11.123 -1.0947 -0.2871 -1.2196
  874MOL0     H17989   3.849   1.530  11.094  1.5400  2.8193 -2.4495
  874MOL0     H17990   3.634   1.555  11.166 -0.6993 -1.8095  3.4764
  875MOL0     O17991   0.399   7.163   2.435 -0.9756 -0.7423  0.7029
  875MOL0     C17992   0.307   7.200   2.356  0.0269 -0.3027 -0.3466
  875MOL0     O17993   0.213   7.123   2.296  0.0117  0.2021 -0.7753
  875MOL0     C17994   0.243   6.993   2.288  0.0934  0.4588  0.6849
  875MOL0     C17995   0.362   6.937   2.231 -0.3138 -0.9936 -0.3898
  875MOL0     C17996   0.377   6.795   2.232 -0.7110  0.5535  1.1009
  875MOL0     C17997   0.292   6.710   2.294  0.9392 -0.2592 -0.0577
  875MOL0     O17998   0.321   6.577   2.294 -0.7339 -0.4672  0.0507
  875MOL0     C17999   0.263   6.502   2.400 -0.7054  0.4419 -0.3205
  875MOL0     C18000   0.337   6.373   2.426  0.2831 -0.2304 -0.1949
  875MOL0     C18001   0.315   6.267   2.321 -0.8288  0.5745  0.9431
  875MOL0     C18002   0.206   6.160   2.350 -0.6054 -0.4206  0.1807
  875MOL0     C18003   0.175   6.061   2.232  0.5482  0.0750 -0.3278
  875MOL0     C18004   0.138   6.120   2.092 -0.7495  0.3672 -0.9601
  875MOL0     C18005  -0.013   6.149   2.086  0.4006  0.4271 -0.1688
  875MOL0     C18006  -0.058   6.204   1.941  0.6060 -0.0001  0.8482
  875MOL0     N18007  -0.052   6.089   1.841 -0.1672 -0.0446  0.3433
  875MOL0     C18008  -0.097   6.097   1.711 -0.1284  0.6973 -0.2651
  875MOL0     C18009  -0.088   5.974   1.664  0.2117  0.0756 -0.6292
  875MOL0     C18010  -0.134   5.943   1.519  0.0511  0.9473 -0.3622
  875MOL0     C18011  -0.281   5.898   1.509  0.8650 -0.0434 -0.4021
  875MOL0     C18012  -0.375   6.017   1.514  0.0216  0.4394  0.4914
  875MOL0     C18013  -0.519   5.969   1.503  0.5814  0.1051  0.4875
  875MOL0     O18014  -0.561   5.912   1.629 -0.3348  0.1620 -0.1415
  875MOL0     C18015  -0.691   5.890   1.660 -0.3957 -0.4951  0.7531
  875MOL0     C18016  -0.722   5.851   1.789 -0.0437 -0.3970 -0.6992
  875MOL0     C18017  -0.854   5.839   1.840 -0.5282 -0.1630  1.2390
  875MOL0     C18018  -0.866   5.783   1.980 -0.4558  0.0491  0.6511
  875MOL0     C18019  -0.964   5.888   1.758  0.1729 -0.0856  0.0888
  875MOL0     C18020  -1.108   5.872   1.793 -0.4817  0.5294  0.3827
  875MOL0     O18021  -1.188   5.878   1.676 -0.0877  1.2232 -0.4249
  875MOL0     C18022  -1.323   5.864   1.691 -0.2207 -0.3732 -0.5050
  875MOL0     C18023  -1.395   5.984   1.725 -0.2757 -0.2603 -0.3295
  875MOL0     C18024  -1.536   5.976   1.732 -0.0669 -0.7164 -0.0043
  875MOL0     C18025  -1.605   5.862   1.698  0.1136  0.5592  0.3815
  875MOL0     O18026  -1.743   5.866   1.713  0.7563  0.2519 -0.3349
  875MOL0     C18027  -1.804   5.739   1.746  0.7093 -0.5211  1.1991
  875MOL0     C18028  -1.869   5.679   1.610  0.3794 -0.2594 -0.1808
  875MOL0     C18029  -1.983   5.591   1.655 -0.3586  0.5435 -0.5416
  875MOL0     C18030  -2.045   5.525   1.529  0.0270  0.2249 -0.2051
  875MOL0     C18031  -2.164   5.431   1.553  0.1604 -0.5771 -0.9663
  875MOL0     C18032  -2.283   5.435   1.462 -0.0604  0.2350 -0.5974
  875MOL0     C18033  -2.410   5.351   1.486 -0.2653 -0.3434 -0.0085
  875MOL0     C18034  -2.481   5.321   1.360 -0.0822 -0.3103 -0.2635
  875MOL0    Cl18035  -2.560   5.470   1.293  0.3495  0.1393 -0.3509
  875MOL0     C18036  -1.533   5.754   1.643  0.1943  0.0572 -1.0959
  875MOL0     C18037  -1.393   5.749   1.648 -0.6400  0.2002 -0.2350
  875MOL0     O18038  -1.140   5.834   1.909  0.2191  0.3150  0.0610
  875MOL0     C18039  -0.928   5.932   1.630 -0.1545 -0.0234 -0.7253
  875MOL0     C18040  -0.799   5.944   1.587  0.5381 -0.0122 -0.8952
  875MOL0     N18041  -0.033   5.890   1.766  0.1488  0.1217 -0.2872
  875MOL0     N18042  -0.013   5.964   1.869 -0.4582  0.3311 -0.5006
  875MOL0     C18043   0.168   6.764   2.348 -0.3766  0.0928  0.6949
  875MOL0     C18044   0.150   6.903   2.336  0.5678  0.4365 -0.6821
  875MOL0     C18045   0.277   7.347   2.351  0.5749 -0.4192 -0.5473
  875MOL0     C18046   0.221   7.386   2.228  0.3925 -0.3918 -0.7942
  875MOL0     C18047   0.198   7.516   2.196 -0.8292  0.3133  0.0738
  875MOL0     C18048   0.241   7.617   2.282 -0.3565 -0.7191  0.8992
  875MOL0     O18049   0.239   7.748   2.245  0.3800  0.6844  0.7361
  875MOL0     C18050   0.103   7.793   2.218 -0.0701 -0.1847  0.0181
  875MOL0     C18051   0.038   7.822   2.344 -0.3026  0.2757 -0.1983
  875MOL0     C18052  -0.102   7.873   2.319  0.3847 -0.3258 -0.1269
  875MOL0     C18053  -0.159   7.941   2.451  0.3700  0.2675 -0.3573
  875MOL0     C18054  -0.269   8.025   2.434  0.1487  0.2728  0.6420
  875MOL0     C18055  -0.370   8.082   2.412 -0.0633 -0.5476  0.3589
  875MOL0     C18056   0.288   7.577   2.409  0.0809 -0.1135  1.4207
  875MOL0     C18057   0.317   7.442   2.446 -0.5691 -0.7844 -0.3065
  875MOL0     H18058   0.432   7.001   2.178 -2.1501  1.5028  0.0405
  875MOL0     H18059   0.464   6.742   2.194 -2.3606 -1.2674 -0.3612
  875MOL0     H18060   0.268   6.563   2.490 -0.2921  1.2553 -0.8887
  875MOL0     H18061   0.157   6.490   2.374 -1.5151  1.3409  2.2611
  875MOL0     H18062   0.441   6.397   2.451  0.4038  0.5229 -1.3658
  875MOL0     H18063   0.295   6.332   2.518  1.3107 -0.2415  0.2863
  875MOL0     H18064   0.300   6.309   2.221 -0.2009 -5.0707 -1.9327
  875MOL0     H18065   0.411   6.216   2.307 -1.7081 -0.5690 -1.3788
  875MOL0     H18066   0.229   6.104   2.441 -3.1283 -2.6635 -0.4363
  875MOL0     H18067   0.115   6.216   2.371 -0.0379 -0.1141  1.9970
  875MOL0     H18068   0.263   6.000   2.207  0.3419  0.6941 -2.8254
  875MOL0     H18069   0.099   5.992   2.269  1.4333 -0.0715  1.2882
  875MOL0     H18070   0.204   6.206   2.077  0.6905 -0.2007  1.5881
  875MOL0     H18071   0.162   6.048   2.012 -2.3378  0.7864 -1.8591
  875MOL0     H18072  -0.065   6.056   2.111  0.2011  0.3664 -0.8164
  875MOL0     H18073  -0.028   6.227   2.161  3.4824 -0.0180  1.0949
  875MOL0     H18074   0.012   6.282   1.911  1.5210 -1.2905 -0.5309
  875MOL0     H18075  -0.159   6.245   1.946  0.9316  1.4566 -2.2255
  875MOL0     H18076  -0.134   6.182   1.656  1.7302  1.1431 -0.8924
  875MOL0     H18077  -0.107   6.028   1.456  1.4583  1.9288  1.4704
  875MOL0     H18078  -0.071   5.860   1.487 -0.0245 -0.0014  1.7842
  875MOL0     H18079  -0.299   5.836   1.597  0.8296  1.1152  0.4319
  875MOL0     H18080  -0.293   5.845   1.414  0.3560  1.1554 -1.0332
  875MOL0     H18081  -0.361   6.097   1.441 -0.1085 -0.1888 -0.2348
  875MOL0     H18082  -0.359   6.060   1.614  0.1835  1.7595 -0.0822
  875MOL0     H18083  -0.530   5.893   1.425 -2.0412  0.7963  0.0741
  875MOL0     H18084  -0.577   6.060   1.485  0.4385 -0.2900 -1.1831
  875MOL0     H18085  -0.640   5.812   1.847  0.4754 -1.2164 -1.9570
  875MOL0     H18086  -0.899   5.869   2.038  1.9675  1.7074 -0.2811
  875MOL0     H18087  -0.940   5.703   1.979  0.0342 -0.4122  0.2139
  875MOL0     H18088  -0.779   5.745   2.035  0.4831  0.7823 -0.2853
  875MOL0     H18089  -1.340   6.074   1.751 -3.4311  1.8429 -0.3875
  875MOL0     H18090  -1.598   6.060   1.761  0.6711  0.2110 -1.0181
  875MOL0     H18091  -1.736   5.672   1.800 -0.1257 -1.6569  0.8769
  875MOL0     H18092  -1.886   5.761   1.816 -1.3830  0.3281 -1.3643
  875MOL0     H18093  -1.920   5.757   1.552  0.5151 -0.1574 -0.1641
  875MOL0     H18094  -1.801   5.612   1.557  1.0016 -2.0960  2.7340
  875MOL0     H18095  -2.066   5.645   1.701  0.4066  0.8546  0.5076
  875MOL0     H18096  -1.939   5.513   1.718  3.0368  0.5360 -2.6705
  875MOL0     H18097  -2.080   5.613   1.474 -0.9922  0.9017  1.4334
  875MOL0     H18098  -1.966   5.470   1.478 -1.0169 -1.5659  0.0462
  875MOL0     H18099  -2.196   5.456   1.655 -1.3538  1.9936 -1.9939
  875MOL0     H18100  -2.119   5.331   1.559  4.1874  1.1351  1.8004
  875MOL0     H18101  -2.312   5.540   1.453 -3.1608 -0.4439  0.2136
  875MOL0     H18102  -2.237   5.404   1.368  0.2290  1.2721 -0.8101
  875MOL0     H18103  -2.469   5.403   1.562  2.4371  0.3131  1.7778
  875MOL0     H18104  -2.370   5.253   1.514  2.6927  0.2480 -1.7383
  875MOL0     H18105  -2.548   5.236   1.370 -2.3549  1.4197 -0.0455
  875MOL0     H18106  -2.407   5.280   1.291  0.8879 -1.3020  1.3045
  875MOL0     H18107  -1.584   5.666   1.605 -2.3595  0.4986  1.0658
  875MOL0     H18108  -1.335   5.669   1.603  0.9106  0.9868  0.2853
  875MOL0     H18109  -1.003   5.972   1.562 -1.2808  0.8833  0.9468
  875MOL0     H18110  -0.787   5.991   1.490  0.3731 -1.7846 -1.8161
  875MOL0     H18111   0.080   6.702   2.357 -1.4100  1.1039 -1.6689
  875MOL0     H18112   0.061   6.961   2.354  0.4896  0.2234 -0.3573
  875MOL0     H18113   0.193   7.314   2.151 -1.0670 -0.6137 -0.0832
  875MOL0     H18114   0.149   7.537   2.101 -1.6429 -1.1842  0.1318
  875MOL0     H18115   0.126   7.877   2.153  0.8172 -0.0622  0.4700
  875MOL0     H18116   0.042   7.722   2.162  1.2271  0.0249 -1.7360
  875MOL0     H18117   0.098   7.900   2.390 -1.2190  0.6730  0.3476
  875MOL0     H18118   0.030   7.732   2.406  1.9657  1.1660  1.5075
  875MOL0     H18119  -0.156   7.780   2.296 -1.3649  0.8908 -1.2126
  875MOL0     H18120  -0.108   7.947   2.238  4.9270  1.7142  1.1346
  875MOL0     H18121  -0.074   8.007   2.474 -0.7734  1.2609  1.2900
  875MOL0     H18122  -0.172   7.874   2.536  1.3145 -0.1039 -0.4932
  875MOL0     H18123  -0.470   8.118   2.401  0.1314 -0.4387 -1.3623
  875MOL0     H18124   0.303   7.658   2.480 -1.6650 -0.2527  1.9981
  875MOL0     H18125   0.364   7.423   2.543  0.8574  0.5364 -0.6911
  876MOL0     O18126   5.188   5.822   9.519  0.2809 -0.3528  0.4821
  876MOL0     C18127   5.247   5.897   9.592 -0.5908 -0.6000 -0.1870
  876MOL0     O18128   5.200   6.024   9.641 -0.8818 -0.6789  0.5874
  876MOL0     C18129   5.066   6.041   9.649 -0.4542  0.4177  0.2705
  876MOL0     C18130   4.989   6.113   9.553 -0.2632  0.0880 -0.1699
  876MOL0     C18131   4.855   6.137   9.570  0.3515 -0.3328  0.1764
  876MOL0     C18132   4.786   6.092   9.678  0.0604 -0.0030  0.2107
  876MOL0     O18133   4.647   6.124   9.676  0.1854 -0.3400  0.3467
  876MOL0     C18134   4.548   6.037   9.731 -1.1057  0.7402 -0.2599
  876MOL0     C18135   4.406   6.066   9.675  0.2743  0.7483  0.6574
  876MOL0     C18136   4.394   6.139   9.542 -0.0526  1.1856 -1.2368
  876MOL0     C18137   4.414   6.290   9.541  0.0718  1.5453 -0.6525
  876MOL0     C18138   4.340   6.355   9.423  0.0871 -0.2718  0.2304
  876MOL0     C18139   4.360   6.297   9.295 -0.4178 -0.4209  0.5554
  876MOL0     C18140   4.499   6.308   9.237 -0.1393 -0.4381 -0.2770
  876MOL0     C18141   4.523   6.453   9.204 -0.3115 -0.5132  0.1126
  876MOL0     N18142   4.655   6.454   9.138 -0.2695 -0.5828 -0.6767
  876MOL0     C18143   4.779   6.477   9.188 -0.8488 -0.4484  0.0447
  876MOL0     C18144   4.862   6.470   9.075 -0.5159 -0.5531 -0.1934
  876MOL0     C18145   5.010   6.485   9.077 -0.5919  0.5409  0.3247
  876MOL0     C18146   5.066   6.376   9.174 -0.1302 -0.7772 -0.1899
  876MOL0     C18147   5.217   6.380   9.181  0.2024  0.3779  0.0951
  876MOL0     C18148   5.281   6.510   9.226  0.1290 -0.6437  0.2520
  876MOL0     O18149   5.423   6.471   9.257 -0.0817 -0.5857  0.4958
  876MOL0     C18150   5.501   6.568   9.303  0.1892  0.6010  0.3978
  876MOL0     C18151   5.644   6.559   9.277  0.7707 -0.7464 -0.2296
  876MOL0     C18152   5.735   6.666   9.304  0.2586 -0.3698 -0.1925
  876MOL0     C18153   5.879   6.638   9.269 -1.1454 -0.3790 -0.4023
  876MOL0     C18154   5.686   6.783   9.362  0.1742  0.1576  0.0795
  876MOL0     C18155   5.779   6.904   9.374  0.8526 -0.1175  0.8633
  876MOL0     O18156   5.845   6.936   9.257 -1.2665 -0.0365 -0.2383
  876MOL0     C18157   5.951   7.027   9.271 -0.3274  0.9429 -0.5276
  876MOL0     C18158   5.946   7.163   9.315  0.4310  1.1842  0.3487
  876MOL0     C18159   6.063   7.247   9.319  0.5685  0.7286  0.1920
  876MOL0     C18160   6.188   7.187   9.300 -0.6905  1.1296 -0.1269
  876MOL0     O18161   6.298   7.268   9.321 -0.5687  0.2466 -0.2177
  876MOL0     C18162   6.432   7.221   9.324  0.7035 -1.1703  0.4813
  876MOL0     C18163   6.501   7.355   9.370  0.3176  0.5111  0.0705
  876MOL0     C18164   6.655   7.342   9.373  0.3025  0.1977 -0.6161
  876MOL0     C18165   6.712   7.337   9.225  0.2363 -0.1313 -0.1013
  876MOL0     C18166   6.865   7.315   9.249  0.7083  0.1459  0.3151
  876MOL0     C18167   6.935   7.315   9.114 -0.6057  0.3459  0.1777
  876MOL0     C18168   7.094   7.326   9.111 -0.2815 -0.3520  0.1890
  876MOL0     C18169   7.146   7.471   9.157 -0.2020 -0.6270  0.3794
  876MOL0    Cl18170   7.323   7.487   9.139  0.4633  0.1153 -0.1267
  876MOL0     C18171   6.195   7.054   9.254 -0.1455 -0.5938 -0.2067
  876MOL0     C18172   6.083   6.979   9.246 -1.5139 -1.0192  1.1946
  876MOL0     O18173   5.776   6.969   9.475  0.4383  0.1627 -0.0782
  876MOL0     C18174   5.552   6.792   9.380  0.1853 -0.7423  0.5012
  876MOL0     C18175   5.460   6.690   9.356 -0.4135  0.2745 -0.3747
  876MOL0     N18176   4.786   6.435   8.965 -0.6475 -0.8720  1.1548
  876MOL0     N18177   4.667   6.420   9.001 -0.1993  0.1465  0.3640
  876MOL0     C18178   4.868   6.013   9.772  0.6563  0.0289  0.3501
  876MOL0     C18179   5.000   5.983   9.757  0.6607 -0.0099 -0.0747
  876MOL0     C18180   5.389   5.862   9.629 -0.2115 -0.5314  0.2700
  876MOL0     C18181   5.442   5.925   9.737  0.5195  0.9201 -0.9518
  876MOL0     C18182   5.583   5.899   9.766  0.2153 -0.1265  0.0224
  876MOL0     C18183   5.668   5.824   9.685  0.3103 -0.3186  0.2769
  876MOL0     O18184   5.806   5.816   9.714  0.1988 -0.9872  0.5681
  876MOL0     C18185   5.897   5.745   9.630 -0.0815  0.4502  0.2663
  876MOL0     C18186   6.042   5.792   9.632 -0.0710 -0.1911 -0.3327
  876MOL0     C18187   6.129   5.741   9.526  0.2352  0.4342 -0.2244
  876MOL0     C18188   6.282   5.776   9.542  0.2330  0.5896  0.2331
  876MOL0     C18189   6.351   5.714   9.660 -0.1533 -0.1171 -0.4348
  876MOL0     C18190   6.401   5.671   9.765 -0.3625  0.5998  0.1869
  876MOL0     C18191   5.599   5.759   9.582  0.5545  0.1336  0.0016
  876MOL0     C18192   5.458   5.781   9.546 -0.5759  0.9127 -0.9157
  876MOL0     H18193   5.052   6.157   9.476  0.9302  0.1849  0.8330
  876MOL0     H18194   4.800   6.197   9.497 -0.4054 -1.3305 -0.0957
  876MOL0     H18195   4.574   5.936   9.697  2.1384  0.9966  1.1427
  876MOL0     H18196   4.559   6.038   9.840  1.0924 -2.2248 -0.3163
  876MOL0     H18197   4.348   5.974   9.663 -1.0096  1.4963  0.8986
  876MOL0     H18198   4.346   6.120   9.749 -1.1626 -2.0407  1.7124
  876MOL0     H18199   4.470   6.094   9.478  0.5349  1.5485 -0.8033
  876MOL0     H18200   4.302   6.103   9.494  1.3707 -2.5005 -1.5412
  876MOL0     H18201   4.378   6.318   9.641 -4.0935  1.4416 -1.9482
  876MOL0     H18202   4.521   6.313   9.534  0.8230 -1.0141  0.8740
  876MOL0     H18203   4.234   6.351   9.452 -0.4743  0.7678 -1.5598
  876MOL0     H18204   4.360   6.462   9.417 -1.3153 -0.0607 -4.0118
  876MOL0     H18205   4.325   6.194   9.309  2.3732 -1.5279  0.2332
  876MOL0     H18206   4.284   6.340   9.230  0.4758  0.3584 -0.0145
  876MOL0     H18207   4.581   6.278   9.302  1.5747  0.2250 -2.0609
  876MOL0     H18208   4.501   6.249   9.145  2.0669  1.8244 -1.7970
  876MOL0     H18209   4.544   6.504   9.299  0.9542 -0.6219 -0.0925
  876MOL0     H18210   4.448   6.504   9.144 -0.1836  1.7405  1.7027
  876MOL0     H18211   4.814   6.510   9.285  3.0589  1.9132 -1.9128
  876MOL0     H18212   5.060   6.475   8.980  2.9768  1.9777  1.8391
  876MOL0     H18213   5.039   6.585   9.110  0.3502  0.1556  0.7192
  876MOL0     H18214   5.036   6.274   9.148  0.9911 -0.7888 -1.5275
  876MOL0     H18215   5.020   6.393   9.272 -0.6710  1.0907 -0.7350
  876MOL0     H18216   5.257   6.347   9.084  3.5912 -1.2233  1.8608
  876MOL0     H18217   5.251   6.302   9.250  1.7849  2.3396  1.6648
  876MOL0     H18218   5.234   6.565   9.308  1.3008  0.6925  0.0629
  876MOL0     H18219   5.282   6.578   9.141  0.8676 -0.1376  0.6544
  876MOL0     H18220   5.677   6.474   9.219  2.5882 -0.3586  0.1787
  876MOL0     H18221   5.893   6.660   9.163  0.1856  0.5898 -0.0564
  876MOL0     H18222   5.948   6.700   9.328 -2.0451 -1.7732  2.2921
  876MOL0     H18223   5.910   6.536   9.293  0.3563  0.0643 -0.3299
  876MOL0     H18224   5.846   7.196   9.341 -0.0313  0.1299 -0.0378
  876MOL0     H18225   6.041   7.350   9.344 -0.2290  1.4341 -3.0157
  876MOL0     H18226   6.447   7.140   9.397  2.5204 -0.6219  0.7745
  876MOL0     H18227   6.461   7.185   9.224 -0.9969  1.1822 -0.9684
  876MOL0     H18228   6.472   7.440   9.308 -0.1850  0.1070 -0.2545
  876MOL0     H18229   6.473   7.383   9.472 -0.7416  1.5281 -0.4776
  876MOL0     H18230   6.692   7.251   9.421  0.3180 -1.0024 -2.7404
  876MOL0     H18231   6.698   7.431   9.418  0.3394 -2.0331  4.4449
  876MOL0     H18232   6.665   7.250   9.178  2.6613 -1.7916  0.3593
  876MOL0     H18233   6.685   7.430   9.173 -3.3530 -1.6502 -1.2594
  876MOL0     H18234   6.891   7.218   9.292  0.2987 -0.3061 -0.4374
  876MOL0     H18235   6.896   7.401   9.309 -2.2426  1.8242 -0.3874
  876MOL0     H18236   6.904   7.218   9.075  0.6059  0.6070 -1.5823
  876MOL0     H18237   6.893   7.385   9.041 -1.6883 -1.6735 -1.2324
  876MOL0     H18238   7.130   7.309   9.009  1.1679  3.8456 -0.2126
  876MOL0     H18239   7.143   7.253   9.176 -0.3147  3.1413  4.5949
  876MOL0     H18240   7.109   7.487   9.259 -4.4752 -1.9459 -0.7594
  876MOL0     H18241   7.089   7.535   9.090 -0.4657 -1.6050 -0.3619
  876MOL0     H18242   6.288   7.003   9.230 -0.0186 -0.7180  0.5392
  876MOL0     H18243   6.109   6.882   9.205  0.9376  0.3181 -0.7613
  876MOL0     H18244   5.502   6.879   9.421 -0.3530 -0.4696 -0.6899
  876MOL0     H18245   5.352   6.705   9.363 -0.3337  1.8094 -1.8546
  876MOL0     H18246   4.822   5.949   9.847  1.1764 -0.3455  0.3592
  876MOL0     H18247   5.048   5.914   9.826 -0.7837 -2.9888 -1.8739
  876MOL0     H18248   5.382   5.999   9.789 -1.7243  0.4059 -2.6546
  876MOL0     H18249   5.632   5.947   9.850 -0.3293  2.4745 -1.0431
  876MOL0     H18250   5.886   5.641   9.663 -1.6791 -0.0273 -1.5928
  876MOL0     H18251   5.867   5.743   9.525 -0.3237 -3.1081  0.2972
  876MOL0     H18252   6.085   5.752   9.724 -1.5208 -0.4985  0.2440
  876MOL0     H18253   6.031   5.901   9.625 -1.5574 -0.3610 -0.9307
  876MOL0     H18254   6.090   5.786   9.433  2.0703  1.0155 -0.7514
  876MOL0     H18255   6.115   5.633   9.516 -0.8018  0.1907  2.9889
  876MOL0     H18256   6.301   5.884   9.543 -0.1219  0.6664 -0.5239
  876MOL0     H18257   6.326   5.743   9.447  0.2693 -0.7104  0.6856
  876MOL0     H18258   6.440   5.633   9.858 -0.9817  0.7663  0.5193
  876MOL0     H18259   5.653   5.688   9.520 -1.4801 -1.7584  0.2552
  876MOL0     H18260   5.418   5.729   9.459 -1.0713  0.0192 -0.1678
  877MOL0     O18261   3.790   3.888   4.307  0.3409 -0.4650 -0.2175
  877MOL0     C18262   3.828   3.937   4.204  0.5576  0.5125 -0.2598
  877MOL0     O18263   3.804   3.888   4.086  0.1067 -0.2551 -0.0205
  877MOL0     C18264   3.727   3.772   4.078 -0.6711  1.2874 -0.2210
  877MOL0     C18265   3.593   3.763   4.121  0.1679  0.8742 -0.5345
  877MOL0     C18266   3.518   3.646   4.122  0.2605  0.9793  0.2817
  877MOL0     C18267   3.575   3.529   4.061 -1.1944 -0.7236 -0.0207
  877MOL0     O18268   3.517   3.408   4.063 -0.3134  0.6736  1.0063
  877MOL0     C18269   3.378   3.409   4.018  0.5588  0.2580  0.0130
  877MOL0     C18270   3.321   3.265   4.018 -0.2715  0.2912 -1.3931
  877MOL0     C18271   3.171   3.275   4.013 -1.1521  0.6881 -0.2643
  877MOL0     C18272   3.104   3.143   4.025  0.1771 -0.2599  0.7290
  877MOL0     C18273   2.952   3.158   4.037  0.5322 -0.3468  0.5907
  877MOL0     C18274   2.889   3.121   4.174 -0.1369  0.0673  0.5602
  877MOL0     C18275   2.903   2.969   4.229 -0.2668 -0.6871  0.3299
  877MOL0     C18276   2.849   2.870   4.121  0.4848  0.1017 -0.6744
  877MOL0     N18277   2.855   2.726   4.174 -0.2814 -0.4625 -0.3362
  877MOL0     C18278   2.748   2.648   4.211 -0.3313 -0.7789  0.0774
  877MOL0     C18279   2.807   2.523   4.220  1.1142  0.1353 -0.5722
  877MOL0     C18280   2.750   2.399   4.258 -0.4383  1.3442  0.5990
  877MOL0     C18281   2.645   2.350   4.163 -0.0073  0.0839 -0.1305
  877MOL0     C18282   2.606   2.204   4.203 -1.3028  0.5187 -0.2474
  877MOL0     C18283   2.471   2.183   4.147 -0.7977 -0.7338 -0.4058
  877MOL0     O18284   2.374   2.219   4.248 -0.2893  0.0119  0.9258
  877MOL0     C18285   2.249   2.215   4.203 -0.7475 -0.4134 -0.5622
  877MOL0     C18286   2.208   2.203   4.073  0.9417  0.9329 -0.5200
  877MOL0     C18287   2.070   2.200   4.048  0.3713  0.2191  1.0374
  877MOL0     C18288   2.038   2.215   3.903 -0.1150  0.8759  0.5870
  877MOL0     C18289   1.974   2.213   4.147 -0.0957 -0.1188  0.4621
  877MOL0     C18290   1.829   2.204   4.113  0.2053  0.0785  0.4601
  877MOL0     O18291   1.737   2.277   4.191 -0.5346  0.1255  0.3445
  877MOL0     C18292   1.611   2.284   4.149 -0.0428 -0.0505 -0.5993
  877MOL0     C18293   1.526   2.177   4.184 -0.1026 -0.1494  0.8749
  877MOL0     C18294   1.398   2.194   4.144 -0.0258  0.0989 -0.1590
  877MOL0     C18295   1.358   2.281   4.048  0.3431 -1.1853  0.7742
  877MOL0     O18296   1.231   2.288   3.994 -0.0348  0.8636 -0.1618
  877MOL0     C18297   1.147   2.173   3.982 -0.6414 -0.2277  0.8041
  877MOL0     C18298   1.051   2.162   4.092  0.1605  0.2733 -0.7502
  877MOL0     C18299   0.955   2.044   4.065  0.5992  1.5451  0.4502
  877MOL0     C18300   0.856   2.046   4.178 -0.2407  0.2496 -0.5200
  877MOL0     C18301   0.777   1.910   4.189  0.2097  0.3704  0.5690
  877MOL0     C18302   0.666   1.929   4.290 -0.0061  0.0876 -0.2440
  877MOL0     C18303   0.601   1.802   4.337 -0.5311 -0.7868  0.9244
  877MOL0     C18304   0.485   1.763   4.237 -0.5288 -0.6660 -1.7270
  877MOL0    Cl18305   0.402   1.624   4.313  0.3136 -0.2846 -0.0684
  877MOL0     C18306   1.452   2.385   4.003  0.7518  0.7129  0.0950
  877MOL0     C18307   1.578   2.385   4.058 -0.1852 -0.3497 -0.2347
  877MOL0     O18308   1.799   2.117   4.027  0.2046  0.0797  0.0177
  877MOL0     C18309   2.015   2.223   4.276 -0.5289 -0.0415 -0.5883
  877MOL0     C18310   2.155   2.221   4.306  0.1082 -0.2267 -0.1570
  877MOL0     N18311   2.938   2.528   4.198 -0.4587 -0.2706  0.4801
  877MOL0     N18312   2.973   2.658   4.175  0.3777  0.4305  0.3260
  877MOL0     C18313   3.709   3.533   4.016  0.1292  0.6879  0.6449
  877MOL0     C18314   3.781   3.655   4.011  0.6049  0.4786  0.6233
  877MOL0     C18315   3.902   4.064   4.217 -0.2480  0.8142 -0.6454
  877MOL0     C18316   3.979   4.109   4.114  0.2471  0.4544  0.5543
  877MOL0     C18317   4.038   4.237   4.125  0.3623 -0.1278  0.3376
  877MOL0     C18318   4.019   4.320   4.230 -0.9134 -0.5748  0.2420
  877MOL0     O18319   4.097   4.433   4.250 -0.7987  0.0441  0.4227
  877MOL0     C18320   4.060   4.536   4.348  0.0943 -0.1929 -0.1640
  877MOL0     C18321   4.125   4.665   4.306 -0.1539 -0.9951 -0.0454
  877MOL0     C18322   4.272   4.671   4.336  0.3129 -0.1346  0.0413
  877MOL0     C18323   4.323   4.811   4.286  0.7399  0.2901 -0.1175
  877MOL0     C18324   4.451   4.844   4.337 -0.1198 -0.0355 -0.5527
  877MOL0     C18325   4.564   4.860   4.384 -0.6294  0.6453 -0.0243
  877MOL0     C18326   3.945   4.269   4.338 -0.3608  0.1404  0.0598
  877MOL0     C18327   3.884   4.147   4.334  0.0372 -0.4732  1.0906
  877MOL0     H18328   3.551   3.850   4.171  0.9673 -0.1868  2.1706
  877MOL0     H18329   3.424   3.649   4.176  0.6271 -0.2042  1.0066
  877MOL0     H18330   3.321   3.473   4.086  0.3551  1.0642 -0.9084
  877MOL0     H18331   3.370   3.448   3.917  1.1295  0.0057 -0.1345
  877MOL0     H18332   3.363   3.208   3.935  2.7532  1.4193 -0.7693
  877MOL0     H18333   3.350   3.215   4.111 -0.4163  2.4261 -0.1191
  877MOL0     H18334   3.141   3.328   4.104 -1.3866  1.0132 -0.5270
  877MOL0     H18335   3.148   3.330   3.921  1.1053  1.4655 -0.4242
  877MOL0     H18336   3.122   3.092   3.930 -4.6605 -1.1554  0.0090
  877MOL0     H18337   3.131   3.078   4.108  2.2793  0.2716  0.5138
  877MOL0     H18338   2.925   3.264   4.025  2.8629  0.4274  1.4446
  877MOL0     H18339   2.906   3.103   3.955  2.1272  1.3644 -1.5918
  877MOL0     H18340   2.936   3.196   4.238  2.7335  0.1936 -1.4786
  877MOL0     H18341   2.781   3.142   4.177 -0.2035 -0.4428  2.0429
  877MOL0     H18342   3.005   2.947   4.262 -0.6373 -1.7441  0.8359
  877MOL0     H18343   2.847   2.970   4.323  0.8952 -0.4024  1.0368
  877MOL0     H18344   2.898   2.890   4.026  1.9987 -0.5741 -0.0659
  877MOL0     H18345   2.747   2.899   4.094  1.4240  4.5425 -0.2640
  877MOL0     H18346   2.643   2.668   4.232  0.0414  0.4811  0.8480
  877MOL0     H18347   2.832   2.328   4.267 -0.4824  1.1694 -0.3227
  877MOL0     H18348   2.704   2.419   4.356 -2.7872  0.5806 -0.2888
  877MOL0     H18349   2.690   2.348   4.063  1.9335  0.4486  0.6974
  877MOL0     H18350   2.569   2.429   4.165  1.6577  1.8966 -2.4997
  877MOL0     H18351   2.599   2.192   4.312  1.6745  1.3340  0.1017
  877MOL0     H18352   2.682   2.140   4.158 -1.2680 -1.3990  2.3001
  877MOL0     H18353   2.460   2.078   4.117  2.5032 -0.6768 -2.2697
  877MOL0     H18354   2.463   2.246   4.058 -0.1422 -1.7860 -1.2385
  877MOL0     H18355   2.280   2.197   3.992  2.3343  2.4779  0.5246
  877MOL0     H18356   2.001   2.120   3.864 -0.9881  1.2459  0.4895
  877MOL0     H18357   1.963   2.294   3.889  0.7315  1.6029  0.0848
  877MOL0     H18358   2.125   2.237   3.841  1.7961 -1.6616  2.1631
  877MOL0     H18359   1.553   2.096   4.251  1.3777 -2.1723 -1.9466
  877MOL0     H18360   1.325   2.132   4.195  1.5555 -0.6428  1.2910
  877MOL0     H18361   1.096   2.192   3.887  1.1268  0.4732 -0.0476
  877MOL0     H18362   1.205   2.081   3.979 -1.1175 -0.6286  2.8049
  877MOL0     H18363   1.107   2.153   4.185  5.0191 -0.4985 -3.4198
  877MOL0     H18364   0.989   2.251   4.106 -1.2367 -0.7862  0.1022
  877MOL0     H18365   1.021   1.958   4.077  1.6329  2.1814 -0.5144
  877MOL0     H18366   0.900   2.041   3.970 -0.4776 -1.2688  1.0529
  877MOL0     H18367   0.908   2.054   4.274 -0.4549 -2.8528 -0.0356
  877MOL0     H18368   0.790   2.132   4.163  0.7537  1.4493  1.6010
  877MOL0     H18369   0.843   1.833   4.230  1.7153  0.4396 -1.5856
  877MOL0     H18370   0.744   1.885   4.088  3.5417 -1.1363 -0.2694
  877MOL0     H18371   0.711   1.973   4.380  0.4103 -1.6737  0.4438
  877MOL0     H18372   0.594   2.004   4.255 -0.6991 -0.5310 -0.1660
  877MOL0     H18373   0.562   1.830   4.435 -2.2472  0.6132 -0.1033
  877MOL0     H18374   0.672   1.719   4.343  1.9058  0.9749 -1.3391
  877MOL0     H18375   0.518   1.740   4.135 -0.9571 -0.2669 -1.9590
  877MOL0     H18376   0.419   1.850   4.240  1.4872  1.0104  2.5851
  877MOL0     H18377   1.436   2.448   3.916  1.0066 -0.3211 -0.7245
  877MOL0     H18378   1.655   2.455   4.028  1.7924 -1.4302  2.0241
  877MOL0     H18379   1.939   2.220   4.354  0.8028 -2.6276  0.7117
  877MOL0     H18380   2.191   2.239   4.407  1.7806  2.9519 -1.1628
  877MOL0     H18381   3.760   3.443   3.983 -0.8850 -0.0767  1.1134
  877MOL0     H18382   3.886   3.646   3.983  1.0787 -3.1298  2.9007
  877MOL0     H18383   4.000   4.049   4.026  0.7393  1.5512 -0.1112
  877MOL0     H18384   4.095   4.275   4.041  0.5229  1.5167  1.1590
  877MOL0     H18385   3.953   4.559   4.354  0.5372  2.7935 -1.7886
  877MOL0     H18386   4.087   4.499   4.448 -0.4746 -2.7200 -0.8689
  877MOL0     H18387   4.088   4.754   4.358  1.1756  1.5362 -3.0943
  877MOL0     H18388   4.116   4.679   4.198  0.8451 -3.0447 -0.4413
  877MOL0     H18389   4.335   4.596   4.288  1.7517  0.6979  0.5668
  877MOL0     H18390   4.298   4.675   4.442  0.1055  2.1832  0.0678
  877MOL0     H18391   4.249   4.887   4.312  0.1949  0.6845 -2.5540
  877MOL0     H18392   4.334   4.813   4.177 -2.5008  1.9305 -0.5548
  877MOL0     H18393   4.663   4.864   4.423  0.4708 -0.7315 -2.4201
  877MOL0     H18394   3.924   4.341   4.416  1.6592  1.1502 -0.2578
  877MOL0     H18395   3.812   4.102   4.401  1.7745 -2.6970  1.6020
  878MOL0     O18396  10.033   3.678   1.644 -0.1751 -0.2978 -0.0284
  878MOL0     C18397  10.122   3.591   1.651  0.7345 -0.6543 -0.5051
  878MOL0     O18398  10.139   3.505   1.754 -0.1650 -0.0090 -0.0597
  878MOL0     C18399  10.041   3.509   1.853  0.4006  0.2709 -0.5264
  878MOL0     C18400   9.933   3.426   1.851  0.0379 -0.0289  0.1016
  878MOL0     C18401   9.843   3.424   1.959  0.0396 -0.0625 -0.4937
  878MOL0     C18402   9.851   3.515   2.069 -0.0001  0.4283  1.0240
  878MOL0     O18403   9.758   3.507   2.165 -0.8145 -0.3283  0.2300
  878MOL0     C18404   9.621   3.471   2.136 -0.8517 -0.3460 -0.3009
  878MOL0     C18405   9.536   3.521   2.252  0.5116 -0.5254 -0.1537
  878MOL0     C18406   9.389   3.484   2.232 -0.2518  0.1853 -1.1049
  878MOL0     C18407   9.370   3.334   2.239  0.2489  0.5626 -0.3254
  878MOL0     C18408   9.224   3.286   2.233  0.0679  0.0112  0.5711
  878MOL0     C18409   9.137   3.324   2.349 -0.2648 -0.1831 -0.0859
  878MOL0     C18410   9.179   3.242   2.465  0.8318  0.4591 -0.1794
  878MOL0     C18411   9.070   3.143   2.512 -0.4590  0.0587  0.0224
  878MOL0     N18412   9.060   3.031   2.415 -1.1040  0.4760 -0.9754
  878MOL0     C18413   9.167   2.948   2.392 -0.6746  0.5878 -0.2373
  878MOL0     C18414   9.127   2.869   2.288 -0.4641 -0.7204  0.1646
  878MOL0     C18415   9.208   2.763   2.215  1.2924  0.1592  0.6208
  878MOL0     C18416   9.344   2.797   2.171  0.2406 -0.7766  0.5716
  878MOL0     C18417   9.353   2.816   2.019 -1.5675  0.1024 -0.0182
  878MOL0     C18418   9.367   2.684   1.944 -0.3501  0.2425 -0.1481
  878MOL0     O18419   9.463   2.594   1.996 -0.7419  0.4336  0.0429
  878MOL0     C18420   9.597   2.608   1.996  0.3976  0.3623  0.8517
  878MOL0     C18421   9.669   2.508   2.060  0.0676  0.1470 -0.4433
  878MOL0     C18422   9.812   2.514   2.052  0.0841 -0.3723 -0.5577
  878MOL0     C18423   9.882   2.391   2.119  0.1954  0.6251  0.3297
  878MOL0     C18424   9.881   2.617   1.977 -0.5806  0.2243 -0.5681
  878MOL0     C18425  10.037   2.622   1.948 -0.4390  0.0072 -0.3208
  878MOL0     O18426  10.081   2.739   1.901  0.1648 -0.5819 -1.1084
  878MOL0     C18427  10.214   2.759   1.869  0.4627 -0.1193  0.0110
  878MOL0     C18428  10.242   2.843   1.762  0.2412  0.0531  0.7421
  878MOL0     C18429  10.374   2.875   1.736  0.1542 -0.4083  1.0591
  878MOL0     C18430  10.483   2.833   1.812 -0.0034 -0.6660  0.0463
  878MOL0     O18431  10.613   2.862   1.771  0.1376 -0.0928  0.4263
  878MOL0     C18432  10.727   2.791   1.825  0.7351  0.8379  0.2876
  878MOL0     C18433  10.787   2.868   1.943  0.1562 -0.1816  0.1049
  878MOL0     C18434  10.870   2.991   1.891  0.3378  0.9429  0.0269
  878MOL0     C18435  10.934   3.062   2.003 -0.0451  0.3584 -0.2510
  878MOL0     C18436  10.976   3.210   1.964  0.0060 -0.4875  0.3025
  878MOL0     C18437  11.095   3.268   2.031 -0.1366  0.0575 -0.1256
  878MOL0     C18438  11.121   3.417   2.004  0.9413  0.0035  0.5578
  878MOL0     C18439  11.208   3.443   1.884  0.5076 -0.0515  0.1964
  878MOL0    Cl18440  11.243   3.626   1.900 -0.1965  0.0724  0.2973
  878MOL0     C18441  10.449   2.761   1.928  0.3573 -0.1023  0.2988
  878MOL0     C18442  10.320   2.720   1.952 -1.1219 -0.1192  1.2906
  878MOL0     O18443  10.107   2.522   1.963 -0.5528  0.3414  0.3848
  878MOL0     C18444   9.797   2.709   1.908 -0.2577  0.2989  0.6506
  878MOL0     C18445   9.660   2.707   1.926 -0.3767  0.3492  0.1056
  878MOL0     N18446   9.008   2.922   2.234  0.7082  0.2389 -0.3024
  878MOL0     N18447   8.964   3.016   2.320  0.0487 -0.5024 -0.0754
  878MOL0     C18448   9.958   3.608   2.070  0.2766 -0.2579  0.0087
  878MOL0     C18449  10.059   3.596   1.967  0.1006 -0.7923  0.6892
  878MOL0     C18450  10.216   3.579   1.538  0.0612 -0.6174 -0.1361
  878MOL0     C18451  10.198   3.664   1.425 -1.0854 -0.3991  0.7028
  878MOL0     C18452  10.297   3.667   1.323 -0.8902 -1.4296  0.4638
  878MOL0     C18453  10.410   3.590   1.331 -0.0873 -0.3502  0.2992
  878MOL0     O18454  10.519   3.604   1.246 -0.0761  0.5746  0.3362
  878MOL0     C18455  10.509   3.690   1.125  0.0524 -0.0439  0.4115
  878MOL0     C18456  10.632   3.649   1.043  0.5011 -0.0705 -0.3461
  878MOL0     C18457  10.752   3.731   1.096  0.1707  0.4731  0.7151
  878MOL0     C18458  10.875   3.702   1.026 -0.2554  0.1880 -0.2257
  878MOL0     C18459  10.932   3.571   1.057 -0.0723 -0.8565 -0.3298
  878MOL0     C18460  10.974   3.468   1.081 -0.2790  0.5317 -0.4813
  878MOL0     C18461  10.424   3.494   1.425  0.5286  0.4633 -0.0489
  878MOL0     C18462  10.331   3.500   1.537  0.3161  0.0958 -0.8260
  878MOL0     H18463   9.913   3.370   1.761  0.0897 -1.9392  1.2381
  878MOL0     H18464   9.761   3.356   1.937 -0.1462  0.5568 -1.8277
  878MOL0     H18465   9.585   3.513   2.041 -2.0005  2.3022  1.2083
  878MOL0     H18466   9.615   3.362   2.122 -0.3138 -0.1098 -2.9338
  878MOL0     H18467   9.580   3.491   2.347  2.1822 -0.3866 -0.8331
  878MOL0     H18468   9.548   3.630   2.252  0.6666 -0.5398  0.1992
  878MOL0     H18469   9.322   3.541   2.298 -2.3354 -0.9611 -2.1294
  878MOL0     H18470   9.344   3.520   2.139  0.2285  1.9865 -0.6877
  878MOL0     H18471   9.416   3.287   2.152  0.1898 -1.4855  0.6953
  878MOL0     H18472   9.406   3.284   2.330 -1.9052 -1.8115 -0.6607
  878MOL0     H18473   9.185   3.337   2.144 -1.4128  0.2461  1.3358
  878MOL0     H18474   9.215   3.180   2.208 -3.4247  0.3582 -0.2228
  878MOL0     H18475   9.146   3.429   2.377  2.3846 -0.8198  1.9645
  878MOL0     H18476   9.033   3.299   2.326  0.1954 -1.9513 -0.4128
  878MOL0     H18477   9.278   3.195   2.456  1.9159  2.8206 -1.4388
  878MOL0     H18478   9.206   3.312   2.544 -0.6974  0.2719  0.5422
  878MOL0     H18479   8.975   3.194   2.527 -1.0698 -1.3552  1.3024
  878MOL0     H18480   9.101   3.108   2.612 -0.8637  0.7160  0.3851
  878MOL0     H18481   9.263   2.949   2.442 -2.2487  2.1008  3.0495
  878MOL0     H18482   9.217   2.673   2.276 -0.3926  0.2334  1.0257
  878MOL0     H18483   9.152   2.725   2.129 -0.9330  1.3184  1.4725
  878MOL0     H18484   9.421   2.731   2.213  0.2626 -0.8967  0.3441
  878MOL0     H18485   9.361   2.898   2.209  0.4297 -0.9571  0.9826
  878MOL0     H18486   9.435   2.878   1.983  0.6942 -2.4379  0.4280
  878MOL0     H18487   9.268   2.877   1.987  1.0886  4.2697  0.0735
  878MOL0     H18488   9.387   2.698   1.837 -2.3632  0.0031 -0.6029
  878MOL0     H18489   9.265   2.647   1.950 -0.8910  1.9081  1.8676
  878MOL0     H18490   9.612   2.435   2.116 -2.7624  2.7466  0.3252
  878MOL0     H18491   9.978   2.422   2.162  0.6389  0.9034 -0.8223
  878MOL0     H18492   9.825   2.349   2.203 -1.9374  1.0865 -0.8152
  878MOL0     H18493   9.902   2.316   2.042 -0.8471  1.7128 -1.0736
  878MOL0     H18494  10.154   2.866   1.701  0.8553 -0.3788 -0.3346
  878MOL0     H18495  10.402   2.935   1.650  0.7528 -0.1313  1.4381
  878MOL0     H18496  10.700   2.694   1.869 -2.6393  1.2798 -0.5057
  878MOL0     H18497  10.806   2.769   1.752  1.0570 -1.4654  1.2224
  878MOL0     H18498  10.709   2.888   2.017 -0.6625  0.4354 -0.8857
  878MOL0     H18499  10.857   2.805   1.998 -0.8916 -1.7675 -0.2953
  878MOL0     H18500  10.799   3.057   1.839 -0.1093  0.1484 -0.3926
  878MOL0     H18501  10.940   2.962   1.812  0.3903  2.1778 -0.4026
  878MOL0     H18502  10.869   3.068   2.090 -1.5051  0.1956 -1.2972
  878MOL0     H18503  11.026   3.016   2.040  0.6512  1.8701 -0.0252
  878MOL0     H18504  10.897   3.282   1.990 -0.6015 -0.8519 -0.4878
  878MOL0     H18505  10.996   3.220   1.857  2.7329  0.5591  0.8266
  878MOL0     H18506  11.085   3.254   2.139  0.2949  2.1240  0.2266
  878MOL0     H18507  11.190   3.219   2.010 -0.0408 -1.0192  2.3732
  878MOL0     H18508  11.167   3.468   2.089 -0.8040 -0.2261  1.6983
  878MOL0     H18509  11.030   3.476   1.990 -0.0397 -1.2733  1.3872
  878MOL0     H18510  11.154   3.425   1.790 -3.8309 -0.0937  2.4301
  878MOL0     H18511  11.301   3.385   1.889  1.5723  1.5119 -0.6874
  878MOL0     H18512  10.521   2.732   2.005  0.4702 -0.3821  0.0893
  878MOL0     H18513  10.294   2.668   2.044 -4.1240 -2.3181 -0.5886
  878MOL0     H18514   9.850   2.782   1.848 -0.4100  1.4624  1.8708
  878MOL0     H18515   9.595   2.771   1.868  1.6281 -1.5060 -4.6495
  878MOL0     H18516   9.962   3.671   2.158 -2.6715 -1.4830  1.1355
  878MOL0     H18517  10.146   3.660   1.974 -0.3154 -0.0222 -0.8586
  878MOL0     H18518  10.114   3.732   1.417 -0.1303  0.6111 -1.7416
  878MOL0     H18519  10.283   3.740   1.243 -0.4533 -1.7324  0.1051
  878MOL0     H18520  10.419   3.656   1.073 -0.3060 -2.7085  2.4871
  878MOL0     H18521  10.498   3.794   1.157 -0.6224 -0.3326  1.1709
  878MOL0     H18522  10.602   3.682   0.942 -3.8716 -1.9345  0.1158
  878MOL0     H18523  10.638   3.540   1.045 -1.4228 -0.1873  0.6966
  878MOL0     H18524  10.761   3.707   1.203  1.8384 -2.2188  0.0501
  878MOL0     H18525  10.744   3.840   1.096  0.4686  0.5048 -0.7581
  878MOL0     H18526  10.953   3.773   1.056 -0.6782  0.3548  0.5099
  878MOL0     H18527  10.856   3.718   0.920  1.6062  1.4248 -0.4169
  878MOL0     H18528  11.021   3.375   1.107  1.5505  1.4415 -0.4100
  878MOL0     H18529  10.518   3.439   1.419 -0.4269 -1.0944 -1.6057
  878MOL0     H18530  10.354   3.434   1.619  1.1612  2.3480  0.8568
  879MOL0     O18531  10.138   9.921   8.393  0.3171 -0.4396 -0.2208
  879MOL0     C18532  10.234   9.860   8.345  0.5852 -0.1159  0.3661
  879MOL0     O18533  10.225   9.759   8.248  0.7798  0.6103  0.4516
  879MOL0     C18534  10.100   9.722   8.211  0.7962  1.0305 -0.5859
  879MOL0     C18535  10.051   9.598   8.265  0.5257  0.1797  0.4287
  879MOL0     C18536   9.925   9.553   8.229 -0.6569 -0.0317 -0.1499
  879MOL0     C18537   9.842   9.639   8.146  0.0555 -0.2420 -0.6044
  879MOL0     O18538   9.713   9.590   8.137  0.1083  0.4216  0.2688
  879MOL0     C18539   9.604   9.671   8.171  0.0119 -0.7143  0.1425
  879MOL0     C18540   9.474   9.600   8.146  0.2738 -0.7078 -0.2298
  879MOL0     C18541   9.360   9.675   8.212 -0.5504 -0.0711  0.6088
  879MOL0     C18542   9.229   9.662   8.135 -0.7997 -0.3859 -0.4309
  879MOL0     C18543   9.124   9.755   8.199  0.4632  0.2326 -0.2155
  879MOL0     C18544   8.984   9.731   8.125 -0.0246  0.2059  0.1649
  879MOL0     C18545   8.870   9.809   8.202  0.1513  0.0353  1.3132
  879MOL0     C18546   8.739   9.748   8.158 -0.0083 -0.7759  0.2823
  879MOL0     N18547   8.616   9.785   8.224  0.4260 -0.6936  0.3098
  879MOL0     C18548   8.500   9.718   8.214  0.1537 -0.7307  0.1904
  879MOL0     C18549   8.408   9.804   8.265  0.0078  0.1043 -0.4886
  879MOL0     C18550   8.266   9.777   8.295 -0.0503 -0.5278 -1.1173
  879MOL0     C18551   8.251   9.668   8.391 -0.2893  0.5986 -0.0525
  879MOL0     C18552   8.112   9.643   8.440 -0.4102 -0.5307 -0.0118
  879MOL0     C18553   8.100   9.510   8.516  0.1173 -0.0738  0.5973
  879MOL0     O18554   7.965   9.489   8.566  0.7623 -0.0367 -0.9210
  879MOL0     C18555   7.919   9.535   8.686 -0.2609 -0.2699 -0.0249
  879MOL0     C18556   7.780   9.574   8.688 -0.2270  0.1499  0.2642
  879MOL0     C18557   7.709   9.613   8.802  0.4991 -0.5918  0.0900
  879MOL0     C18558   7.563   9.665   8.786 -0.2565 -0.8209 -0.0311
  879MOL0     C18559   7.777   9.608   8.924  0.2045  0.0031 -0.7625
  879MOL0     C18560   7.709   9.654   9.049  0.3027  0.5141 -0.7103
  879MOL0     O18561   7.724   9.583   9.163  0.0988 -0.3742  0.8217
  879MOL0     C18562   7.669   9.612   9.284 -1.1332  0.4409  0.0986
  879MOL0     C18563   7.743   9.564   9.395  0.9538 -0.1989  0.0961
  879MOL0     C18564   7.710   9.620   9.521 -0.1003  0.3674 -0.1124
  879MOL0     C18565   7.600   9.699   9.542 -1.5596 -1.0654  0.0373
  879MOL0     O18566   7.568   9.758   9.662 -0.4758 -0.3078 -0.2815
  879MOL0     C18567   7.669   9.762   9.765  0.1712 -0.4526 -0.2239
  879MOL0     C18568   7.604   9.840   9.884  0.2529 -0.1685  0.5864
  879MOL0     C18569   7.714   9.920   9.964  0.1429  0.1581  0.5565
  879MOL0     C18570   7.650   9.991  10.084  0.8441 -0.2275 -0.4232
  879MOL0     C18571   7.755  10.065  10.165 -0.0832  0.4718 -0.4339
  879MOL0     C18572   7.703  10.144  10.284  0.2199 -0.3679 -0.3184
  879MOL0     C18573   7.640  10.047  10.391 -0.4915 -0.4989 -0.4024
  879MOL0     C18574   7.585  10.123  10.517 -0.6014  0.4086 -0.2218
  879MOL0    Cl18575   7.470  10.258  10.480  0.7197  0.2550  0.2243
  879MOL0     C18576   7.514   9.730   9.435 -0.2830  1.2184  0.6614
  879MOL0     C18577   7.558   9.694   9.304 -0.9208  0.9525 -0.7027
  879MOL0     O18578   7.643   9.759   9.039  1.0935  0.1318  0.1374
  879MOL0     C18579   7.911   9.567   8.928  0.8345  0.4170 -0.3120
  879MOL0     C18580   7.980   9.529   8.810 -0.2763  0.2242  0.1988
  879MOL0     N18581   8.475   9.911   8.315 -0.7670  0.3628  0.0734
  879MOL0     N18582   8.601   9.892   8.301 -0.4259 -0.0175 -0.1532
  879MOL0     C18583   9.889   9.754   8.094  0.5631 -0.7365 -0.2496
  879MOL0     C18584  10.021   9.798   8.126  0.8013  0.0141  1.1250
  879MOL0     C18585  10.369   9.888   8.383  0.6280 -0.3179 -0.3231
  879MOL0     C18586  10.403   9.985   8.479  0.4228  0.1822 -0.0589
  879MOL0     C18587  10.523  10.016   8.523  0.1291  0.0165 -0.7269
  879MOL0     C18588  10.633   9.955   8.462 -0.0889 -0.6984 -0.9502
  879MOL0     O18589  10.748   9.991   8.523 -0.0772  0.0334  0.1430
  879MOL0     C18590  10.859   9.903   8.511 -0.4833 -0.2120  0.9325
  879MOL0     C18591  10.984   9.959   8.582 -0.7992  0.2960 -0.8361
  879MOL0     C18592  11.089   9.851   8.606 -0.1678 -0.4477 -0.6692
  879MOL0     C18593  11.145   9.779   8.484  0.4340  0.3456  0.6263
  879MOL0     C18594  11.069   9.679   8.404  0.8137 -0.2033  0.5439
  879MOL0     C18595  11.002   9.598   8.340  0.5892 -0.4266  0.4216
  879MOL0     C18596  10.615   9.863   8.359 -0.1468  0.2098 -0.0879
  879MOL0     C18597  10.483   9.830   8.321 -0.0415  0.2989 -0.4889
  879MOL0     H18598  10.116   9.560   8.342  0.6396 -0.2552  0.1222
  879MOL0     H18599   9.894   9.454   8.260  0.8479 -1.6300 -3.2722
  879MOL0     H18600   9.600   9.692   8.278  0.6475 -0.1480  0.0614
  879MOL0     H18601   9.599   9.760   8.108 -1.3670 -0.1642  1.0039
  879MOL0     H18602   9.464   9.598   8.037  1.1162  2.8885 -0.5131
  879MOL0     H18603   9.476   9.500   8.190  4.7643  0.2705  2.4149
  879MOL0     H18604   9.350   9.643   8.317 -0.0331 -0.1222  0.6440
  879MOL0     H18605   9.387   9.781   8.207 -0.2326 -0.0648 -6.1720
  879MOL0     H18606   9.241   9.683   8.028  0.5054 -0.1645 -0.2653
  879MOL0     H18607   9.195   9.559   8.139 -1.0726 -0.3007  4.0770
  879MOL0     H18608   9.129   9.741   8.308 -0.2148 -0.5486 -0.2762
  879MOL0     H18609   9.149   9.860   8.179  0.8042  0.0097 -0.9840
  879MOL0     H18610   9.002   9.756   8.020  1.0606 -2.7027 -0.4337
  879MOL0     H18611   8.966   9.623   8.127 -1.8184  0.3899 -1.9107
  879MOL0     H18612   8.892   9.793   8.308  2.8014  1.6390  1.1016
  879MOL0     H18613   8.869   9.911   8.164 -2.7223 -1.1469 -2.3907
  879MOL0     H18614   8.757   9.643   8.183  1.9099  0.1256  3.1978
  879MOL0     H18615   8.729   9.757   8.049 -0.8472 -3.1368  0.1028
  879MOL0     H18616   8.493   9.623   8.161  1.0178 -0.2883 -0.7591
  879MOL0     H18617   8.234   9.867   8.348 -1.7314 -0.9013 -1.4443
  879MOL0     H18618   8.205   9.764   8.205  2.1988  2.3900 -3.2994
  879MOL0     H18619   8.317   9.689   8.476 -1.5461  0.3077  1.0302
  879MOL0     H18620   8.265   9.574   8.337 -2.3821  1.0990 -1.5871
  879MOL0     H18621   8.039   9.642   8.358  0.1177  2.3490 -0.6012
  879MOL0     H18622   8.084   9.727   8.504  0.9839  0.1935 -0.3063
  879MOL0     H18623   8.172   9.505   8.598  0.0672  2.3196  0.8635
  879MOL0     H18624   8.116   9.428   8.445 -3.1315  0.2562 -0.6938
  879MOL0     H18625   7.742   9.560   8.587  1.3865 -1.3178 -0.1897
  879MOL0     H18626   7.512   9.616   8.870 -1.0756 -0.3984 -0.2768
  879MOL0     H18627   7.558   9.771   8.814  1.3719 -0.8973  0.6809
  879MOL0     H18628   7.518   9.652   8.687  0.1709  1.0396 -0.5157
  879MOL0     H18629   7.837   9.510   9.392  1.4298  0.6546 -1.2553
  879MOL0     H18630   7.766   9.588   9.608 -1.9745  0.6335  1.2545
  879MOL0     H18631   7.706   9.662   9.790  0.9923  0.3029  1.7881
  879MOL0     H18632   7.751   9.826   9.732 -0.4475  1.7005  2.1503
  879MOL0     H18633   7.519   9.903   9.856 -1.1923 -2.6681 -1.0420
  879MOL0     H18634   7.552   9.764   9.943  0.3489 -1.3083 -0.7478
  879MOL0     H18635   7.767   9.996   9.905 -1.1411 -0.8003 -2.0064
  879MOL0     H18636   7.797   9.862  10.008  0.2422  1.8509  2.7580
  879MOL0     H18637   7.572  10.057  10.044 -0.4109 -1.8587 -0.8177
  879MOL0     H18638   7.605   9.913  10.146  1.3395  2.0943  3.1529
  879MOL0     H18639   7.804  10.132  10.094  2.8493  0.4555  1.3803
  879MOL0     H18640   7.833   9.995  10.196  1.6229  1.9075 -1.2627
  879MOL0     H18641   7.787  10.195  10.331 -0.7391 -0.4609  1.6156
  879MOL0     H18642   7.630  10.220  10.253 -0.8638 -1.4373 -0.4890
  879MOL0     H18643   7.713   9.970  10.419  4.6477  3.6078 -1.0129
  879MOL0     H18644   7.556  10.000  10.338 -1.7266  2.8830 -1.7225
  879MOL0     H18645   7.677  10.157  10.566 -0.8874 -0.7016  1.1419
  879MOL0     H18646   7.538  10.044  10.577 -0.2634  1.3515  1.3359
  879MOL0     H18647   7.429   9.795   9.455 -2.3919 -0.7144 -1.3476
  879MOL0     H18648   7.504   9.744   9.224 -0.0119 -1.7044 -3.1383
  879MOL0     H18649   7.962   9.544   9.021  2.2039  0.2479 -1.0808
  879MOL0     H18650   8.080   9.488   8.820 -1.0096 -2.5917 -2.5301
  879MOL0     H18651   9.825   9.818   8.034 -1.1631 -1.5110  0.6852
  879MOL0     H18652  10.053   9.890   8.079  0.3784 -0.6013 -0.4345
  879MOL0     H18653  10.330  10.055   8.518 -0.6158  0.1165 -1.7967
  879MOL0     H18654  10.529  10.091   8.601  0.6435 -2.7817  2.1337
  879MOL0     H18655  10.829   9.803   8.544 -1.2962 -0.8586 -1.5376
  879MOL0     H18656  10.893   9.891   8.408  1.2070 -3.8509  1.7312
  879MOL0     H18657  10.956   9.986   8.684  1.5840  0.3000 -0.1394
  879MOL0     H18658  11.032  10.047   8.540  1.9890  1.0610  3.3480
  879MOL0     H18659  11.053   9.775   8.676 -0.1771  0.7145  0.6327
  879MOL0     H18660  11.173   9.898   8.658 -0.8340  0.4970 -0.4253
  879MOL0     H18661  11.239   9.725   8.499  0.2391  0.2422  1.5426
  879MOL0     H18662  11.157   9.855   8.406  3.1465  0.7346  1.3252
  879MOL0     H18663  10.934   9.536   8.285 -1.2917  0.4918  1.6058
  879MOL0     H18664  10.703   9.813   8.321  1.0430  1.4729  0.9208
  879MOL0     H18665  10.465   9.762   8.239  1.7783  0.7806 -1.3339
  880MOL0     O18666   3.214   0.404   0.157 -1.2263 -0.1157 -0.3127
  880MOL0     C18667   3.237   0.313   0.232  0.3908  0.0513 -0.6406
  880MOL0     O18668   3.142   0.246   0.307  0.3271  0.0871 -0.4221
  880MOL0     C18669   3.007   0.251   0.287 -0.0821 -0.1321  0.7982
  880MOL0     C18670   2.939   0.291   0.162 -0.4869  0.4171  0.4704
  880MOL0     C18671   2.796   0.305   0.146 -0.4680  0.5893  0.0915
  880MOL0     C18672   2.721   0.267   0.258 -0.9437 -0.2964  0.3723
  880MOL0     O18673   2.589   0.239   0.274 -0.1024  0.3075 -0.2919
  880MOL0     C18674   2.515   0.213   0.147 -0.6397 -0.3243 -0.5294
  880MOL0     C18675   2.367   0.191   0.173  0.8966  0.6188  0.0946
  880MOL0     C18676   2.318   0.294   0.274 -0.1614  0.0975 -0.2029
  880MOL0     C18677   2.159   0.286   0.284  0.4622  0.1050 -0.6159
  880MOL0     C18678   2.081   0.388   0.203 -0.0581 -0.2710 -0.7207
  880MOL0     C18679   1.932   0.391   0.250  0.4242 -0.1554  0.4403
  880MOL0     C18680   1.863   0.510   0.189 -0.0423  0.2622 -0.4188
  880MOL0     C18681   1.712   0.485   0.174 -0.6059 -0.3257 -0.6078
  880MOL0     N18682   1.646   0.439   0.295 -0.5297 -0.1058 -0.0665
  880MOL0     C18683   1.635   0.514   0.406 -0.1516 -0.0822 -0.2052
  880MOL0     C18684   1.563   0.442   0.492 -0.0189  0.7580 -0.8844
  880MOL0     C18685   1.505   0.488   0.625 -0.1943  0.1665  0.3830
  880MOL0     C18686   1.568   0.423   0.744 -0.2336 -0.6445  0.3197
  880MOL0     C18687   1.514   0.485   0.885 -0.3138  0.0979 -0.0839
  880MOL0     C18688   1.392   0.409   0.937 -0.4039  0.5618  0.4292
  880MOL0     O18689   1.279   0.448   0.858  0.5234  0.0565  0.7386
  880MOL0     C18690   1.156   0.388   0.868 -0.8044  0.5839 -0.5423
  880MOL0     C18691   1.131   0.277   0.952 -0.2889 -0.2493  0.0359
  880MOL0     C18692   0.997   0.226   0.947 -0.2780 -0.6340  0.6486
  880MOL0     C18693   0.969   0.115   1.045  0.0051 -1.2370  0.0578
  880MOL0     C18694   0.892   0.287   0.873  0.4599  0.4505 -0.0255
  880MOL0     C18695   0.754   0.235   0.865 -0.0183 -0.6994  0.6058
  880MOL0     O18696   0.646   0.305   0.906 -0.5188 -1.2809  0.0841
  880MOL0     C18697   0.514   0.279   0.875 -0.2887  0.0294 -0.1457
  880MOL0     C18698   0.430   0.393   0.871  0.2929 -0.2546  0.6022
  880MOL0     C18699   0.294   0.376   0.843  0.0498 -0.4827 -0.2168
  880MOL0     C18700   0.235   0.248   0.834  0.0537  0.0479  0.2140
  880MOL0     O18701   0.104   0.237   0.818 -0.6057  1.2062 -0.0761
  880MOL0     C18702   0.032   0.151   0.910  0.1437 -0.3990 -0.0289
  880MOL0     C18703  -0.116   0.181   0.878  0.3482 -0.6168 -0.6881
  880MOL0     C18704  -0.218   0.076   0.939 -0.1221  0.6700 -0.1871
  880MOL0     C18705  -0.360   0.120   0.963 -0.0727  0.0303  0.2587
  880MOL0     C18706  -0.430   0.044   1.077 -0.5200 -0.0993 -0.0669
  880MOL0     C18707  -0.577   0.085   1.073  0.1514 -0.6885 -0.2964
  880MOL0     C18708  -0.667   0.005   1.171 -1.1032 -0.1043  0.7505
  880MOL0     C18709  -0.810   0.058   1.190 -0.0510  0.2257 -0.0060
  880MOL0    Cl18710  -0.922   0.017   1.054 -0.3556 -0.0402  0.3077
  880MOL0     C18711   0.323   0.135   0.834 -0.2503  0.2063  0.3206
  880MOL0     C18712   0.459   0.152   0.847  1.0053  1.2949  0.0611
  880MOL0     O18713   0.748   0.126   0.810  0.2076  0.0079  0.1501
  880MOL0     C18714   0.925   0.400   0.785  0.0714  0.3838  0.7546
  880MOL0     C18715   1.060   0.449   0.790  0.1282  0.2623  0.3646
  880MOL0     N18716   1.525   0.328   0.431  0.2314  0.5697 -0.8483
  880MOL0     N18717   1.573   0.326   0.312 -0.7189  0.1138 -0.0248
  880MOL0     C18718   2.787   0.238   0.381  0.1324  0.2995 -0.4601
  880MOL0     C18719   2.920   0.223   0.389 -0.0799 -0.1397  0.1002
  880MOL0     C18720   3.381   0.253   0.234 -0.1150  0.0520  0.7845
  880MOL0     C18721   3.458   0.257   0.117  0.8588 -0.7301 -0.1485
  880MOL0     C18722   3.588   0.208   0.113  0.0384  0.1384  0.1590
  880MOL0     C18723   3.655   0.161   0.232 -0.3101 -0.3976  1.7367
  880MOL0     O18724   3.784   0.109   0.223 -0.7244 -0.8965 -0.0860
  880MOL0     C18725   3.877   0.121   0.334  0.8375 -0.0414  0.3643
  880MOL0     C18726   4.021   0.118   0.297  0.3844 -0.3812 -0.2424
  880MOL0     C18727   4.121   0.107   0.416  0.6741 -0.3122 -0.3861
  880MOL0     C18728   4.268   0.113   0.376  0.2065  0.4643 -0.4855
  880MOL0     C18729   4.309   0.246   0.366 -0.0161  0.4857 -1.0328
  880MOL0     C18730   4.344   0.361   0.379 -0.6839  0.2867  0.9316
  880MOL0     C18731   3.579   0.162   0.344 -0.2757  0.2263 -0.3674
  880MOL0     C18732   3.445   0.215   0.349 -0.2808  0.0852  0.1938
  880MOL0     H18733   3.012   0.297   0.081 -1.1263 -0.9928 -0.2474
  880MOL0     H18734   2.749   0.343   0.056  1.0737  1.4294 -0.4053
  880MOL0     H18735   2.526   0.299   0.081  1.5990 -0.1726 -0.0328
  880MOL0     H18736   2.562   0.132   0.092  1.1976  1.0466 -1.0688
  880MOL0     H18737   2.313   0.202   0.079  2.2594  1.9938 -0.5587
  880MOL0     H18738   2.350   0.098   0.228  0.5044  0.0286 -0.9986
  880MOL0     H18739   2.359   0.279   0.374 -0.8275 -1.5508 -0.1372
  880MOL0     H18740   2.347   0.391   0.233  0.6173 -0.9414 -2.2340
  880MOL0     H18741   2.122   0.185   0.265  1.3288 -0.4723  0.5990
  880MOL0     H18742   2.127   0.319   0.384 -3.5442 -0.6152 -1.4834
  880MOL0     H18743   2.125   0.487   0.223 -1.8041  0.9052 -2.2988
  880MOL0     H18744   2.090   0.374   0.095  1.1758  1.7345 -0.9466
  880MOL0     H18745   1.883   0.299   0.215  1.7411 -1.4006  1.7556
  880MOL0     H18746   1.916   0.392   0.358  0.1879 -0.4349  0.4118
  880MOL0     H18747   1.868   0.599   0.253  2.3571  2.1736 -3.0308
  880MOL0     H18748   1.902   0.536   0.090 -0.4845 -1.4639 -1.0762
  880MOL0     H18749   1.691   0.417   0.091 -2.1994  1.7591 -2.0407
  880MOL0     H18750   1.655   0.575   0.146 -2.8986 -1.3682  0.4422
  880MOL0     H18751   1.673   0.614   0.422  0.2230 -0.3334  0.5567
  880MOL0     H18752   1.512   0.597   0.631 -0.7154  0.3070 -1.1034
  880MOL0     H18753   1.397   0.472   0.620 -0.3602  1.2555 -5.2629
  880MOL0     H18754   1.675   0.441   0.731 -0.7345  2.4702 -0.4289
  880MOL0     H18755   1.565   0.314   0.758  2.6778 -0.7421  0.7631
  880MOL0     H18756   1.491   0.591   0.873 -0.3715  0.0889 -0.0547
  880MOL0     H18757   1.584   0.468   0.967 -2.9255 -2.2334  1.8551
  880MOL0     H18758   1.378   0.426   1.044  1.4726  1.0321  0.6294
  880MOL0     H18759   1.409   0.302   0.924 -2.1111  0.4291 -1.1265
  880MOL0     H18760   1.210   0.220   0.999  1.6694 -1.0159 -3.7920
  880MOL0     H18761   0.899   0.157   1.117  1.7417 -1.2618  1.8350
  880MOL0     H18762   0.910   0.036   0.997 -1.2385  0.0352 -0.5751
  880MOL0     H18763   1.052   0.072   1.101  2.2538  1.5427 -0.9097
  880MOL0     H18764   0.469   0.495   0.875 -0.0832 -0.0224 -0.9807
  880MOL0     H18765   0.235   0.466   0.834 -3.1605 -2.5385 -1.3619
  880MOL0     H18766   0.053   0.044   0.899 -1.0687 -0.9180  2.0422
  880MOL0     H18767   0.059   0.184   1.011  0.4874 -0.4966 -0.0886
  880MOL0     H18768  -0.140   0.286   0.900 -0.6708 -0.7700 -0.9858
  880MOL0     H18769  -0.135   0.174   0.770  0.4918 -0.7951 -0.7010
  880MOL0     H18770  -0.174   0.044   1.034 -0.4397 -3.3762 -1.2205
  880MOL0     H18771  -0.210  -0.012   0.875 -1.1423  0.6843 -0.3548
  880MOL0     H18772  -0.360   0.224   0.997  1.2506 -0.2097  1.0418
  880MOL0     H18773  -0.427   0.120   0.877  1.4425 -2.0514 -1.0069
  880MOL0     H18774  -0.388   0.077   1.173 -3.5909  0.1322  1.2871
  880MOL0     H18775  -0.409  -0.062   1.057  2.8023 -0.2353  2.9162
  880MOL0     H18776  -0.577   0.191   1.101  2.0592 -0.4118 -1.2229
  880MOL0     H18777  -0.615   0.065   0.972 -1.0487 -1.4935  0.2895
  880MOL0     H18778  -0.620  -0.002   1.269  1.1007 -1.5964 -0.3428
  880MOL0     H18779  -0.668  -0.098   1.134  1.0328  0.0441  0.1544
  880MOL0     H18780  -0.810   0.162   1.224 -0.7847  0.2043  0.0754
  880MOL0     H18781  -0.857   0.012   1.277  0.2805  0.6486  0.3982
  880MOL0     H18782   0.283   0.036   0.815  0.5479 -0.1752  0.5912
  880MOL0     H18783   0.515   0.059   0.848 -0.4767  0.2347 -3.0807
  880MOL0     H18784   0.847   0.429   0.716  0.7021  0.6744  0.1504
  880MOL0     H18785   1.090   0.535   0.732  2.3090  0.0092  0.9977
  880MOL0     H18786   2.732   0.204   0.468 -0.2216  2.6633  0.3001
  880MOL0     H18787   2.976   0.187   0.475 -0.0609  0.6988  0.4523
  880MOL0     H18788   3.409   0.282   0.023  0.5455 -0.3123  0.1229
  880MOL0     H18789   3.644   0.207   0.020  1.2344  1.4705  0.8306
  880MOL0     H18790   3.862   0.218   0.382  0.2715  0.4054 -0.6957
  880MOL0     H18791   3.849   0.034   0.395  0.1537  0.4819  0.8147
  880MOL0     H18792   4.038   0.204   0.232  0.5126  0.9330  1.4512
  880MOL0     H18793   4.038   0.031   0.233 -0.3302 -1.0422  0.4498
  880MOL0     H18794   4.108   0.015   0.474  2.5167  0.2213  0.9738
  880MOL0     H18795   4.094   0.192   0.479  1.3827  0.0601 -0.5693
  880MOL0     H18796   4.275   0.060   0.281  0.6595  0.9053 -0.7035
  880MOL0     H18797   4.323   0.044   0.441  0.7534 -1.2366 -2.6355
  880MOL0     H18798   4.376   0.463   0.370 -2.0450  0.5786 -1.3494
  880MOL0     H18799   3.627   0.143   0.439  0.8893  3.0329 -0.2852
  880MOL0     H18800   3.383   0.225   0.437  0.8335  2.7747  0.7736
  881MOL0     O18801   7.268   7.235   0.674 -1.2692  0.3882  0.0541
  881MOL0     C18802   7.312   7.163   0.576  0.5683 -0.1018 -0.4063
  881MOL0     O18803   7.250   7.146   0.457 -0.7607 -0.3738 -0.0600
  881MOL0     C18804   7.130   7.198   0.430  0.4853 -0.2859  0.4399
  881MOL0     C18805   7.027   7.184   0.527  0.4339  0.1213  0.2467
  881MOL0     C18806   6.902   7.234   0.483 -0.0961  0.0755  1.0776
  881MOL0     C18807   6.882   7.292   0.357 -0.1898 -0.1187 -0.2485
  881MOL0     O18808   6.764   7.356   0.349 -0.2328  0.3459  0.6403
  881MOL0     C18809   6.741   7.450   0.237 -0.4759 -0.3149 -0.6740
  881MOL0     C18810   6.616   7.522   0.285  0.6083  0.7264  0.6634
  881MOL0     C18811   6.552   7.590   0.169  0.2286 -0.9410  0.0929
  881MOL0     C18812   6.447   7.689   0.220  0.6892  0.1316  0.8762
  881MOL0     C18813   6.369   7.732   0.095 -0.7789  0.4638 -0.3137
  881MOL0     C18814   6.235   7.791   0.136  0.1536  0.0120 -0.1055
  881MOL0     C18815   6.161   7.854   0.018 -0.0316  0.1570 -0.2104
  881MOL0     C18816   6.047   7.931   0.076  0.9749 -0.7517  0.9288
  881MOL0     N18817   5.962   7.991  -0.023 -0.3353 -0.0586 -0.0176
  881MOL0     C18818   5.830   7.997  -0.020  0.9364  0.2837 -0.3106
  881MOL0     C18819   5.787   8.043  -0.140  0.5789 -0.2587 -0.0582
  881MOL0     C18820   5.641   8.071  -0.160 -0.0177 -0.0116  0.2836
  881MOL0     C18821   5.608   8.142  -0.293 -0.9139 -0.1390 -0.3744
  881MOL0     C18822   5.460   8.133  -0.324 -0.1137  0.2947 -0.5712
  881MOL0     C18823   5.450   8.206  -0.467 -0.4981 -0.1656  0.0476
  881MOL0     O18824   5.313   8.215  -0.513  0.2592  0.2500 -0.4068
  881MOL0     C18825   5.228   8.313  -0.462  0.0540 -0.0671 -0.0538
  881MOL0     C18826   5.095   8.284  -0.482 -0.2209  0.0361 -0.7542
  881MOL0     C18827   4.990   8.372  -0.442 -1.2995  0.2337 -0.4803
  881MOL0     C18828   4.855   8.321  -0.461 -0.2767  0.1655 -0.7071
  881MOL0     C18829   5.024   8.492  -0.383 -0.5466 -0.1765 -0.1186
  881MOL0     C18830   4.923   8.593  -0.344  0.1993  0.3906  0.3721
  881MOL0     O18831   4.942   8.670  -0.230  0.2916 -0.3176  0.4104
  881MOL0     C18832   4.852   8.772  -0.222  0.1085  0.2801  0.8127
  881MOL0     C18833   4.879   8.905  -0.239 -0.3250  0.1680 -0.8874
  881MOL0     C18834   4.784   9.005  -0.237 -0.5911  0.1197  0.2332
  881MOL0     C18835   4.651   8.972  -0.216  0.2071  0.5866  0.3877
  881MOL0     O18836   4.564   9.068  -0.243 -0.3858 -0.6472 -0.3919
  881MOL0     C18837   4.483   9.101  -0.123 -1.4759  0.6473 -0.4348
  881MOL0     C18838   4.401   9.229  -0.160  0.2726 -0.5109  0.0468
  881MOL0     C18839   4.347   9.294  -0.026 -0.0608  0.0804  0.1392
  881MOL0     C18840   4.263   9.419  -0.053  0.2854  0.4426 -0.3030
  881MOL0     C18841   4.231   9.504   0.068 -0.6654  0.2791  0.1407
  881MOL0     C18842   4.188   9.646   0.031  0.2400  1.3228  0.9727
  881MOL0     C18843   4.095   9.712   0.128  0.0811 -1.0476 -0.3526
  881MOL0     C18844   4.075   9.863   0.108  0.1113  0.7439 -0.3556
  881MOL0    Cl18845   4.051   9.918  -0.065 -0.5336  0.2403  0.1595
  881MOL0     C18846   4.617   8.835  -0.184 -0.2592 -0.6130  0.5979
  881MOL0     C18847   4.722   8.740  -0.185 -0.3760 -0.7219 -0.0223
  881MOL0     O18848   4.826   8.597  -0.415  0.1390  0.3646 -0.0709
  881MOL0     C18849   5.160   8.524  -0.358  0.2023 -0.0012 -0.3826
  881MOL0     C18850   5.260   8.439  -0.395  0.1369  0.5163  0.5746
  881MOL0     N18851   5.896   8.054  -0.219 -0.6760 -0.2324 -0.7088
  881MOL0     N18852   5.999   8.043  -0.142 -0.1013 -0.4061  0.4447
  881MOL0     C18853   6.983   7.297   0.258  0.4669  0.3656 -0.6593
  881MOL0     C18854   7.108   7.255   0.307 -0.2351 -0.1308  0.7948
  881MOL0     C18855   7.436   7.083   0.613 -0.7627 -0.0449  0.4929
  881MOL0     C18856   7.486   6.977   0.531 -0.3639  1.0139 -1.2711
  881MOL0     C18857   7.604   6.917   0.567 -0.6686 -0.5107  0.2243
  881MOL0     C18858   7.677   6.963   0.677 -0.0021 -0.3584 -0.0172
  881MOL0     O18859   7.786   6.894   0.705 -0.2463 -0.1049 -0.1859
  881MOL0     C18860   7.800   6.854   0.843 -0.4371  0.3477  0.0199
  881MOL0     C18861   7.941   6.811   0.852  0.1083  0.3083 -0.5871
  881MOL0     C18862   8.043   6.927   0.845 -0.0496 -0.5458  0.0422
  881MOL0     C18863   8.180   6.875   0.829  0.4871 -0.0551  1.0926
  881MOL0     C18864   8.208   6.829   0.697 -0.0777  0.2228  0.2743
  881MOL0     C18865   8.235   6.783   0.586 -0.7087 -0.9936 -0.2099
  881MOL0     C18866   7.632   7.064   0.758 -0.6614  0.2981  0.0779
  881MOL0     C18867   7.511   7.123   0.726  0.5375 -0.9204  0.3517
  881MOL0     H18868   7.040   7.148   0.628 -1.8217  0.7409  0.8247
  881MOL0     H18869   6.819   7.233   0.553  0.6749  0.3117  2.0122
  881MOL0     H18870   6.821   7.524   0.243  0.5395 -1.4674  0.8012
  881MOL0     H18871   6.740   7.401   0.140 -3.1413  1.2221 -1.5254
  881MOL0     H18872   6.551   7.436   0.300  0.5428 -0.5340 -4.9591
  881MOL0     H18873   6.633   7.583   0.375  1.1670  0.4424  0.7556
  881MOL0     H18874   6.633   7.655   0.136 -0.2054 -0.9013 -0.9408
  881MOL0     H18875   6.521   7.517   0.094 -1.1168  2.1454 -2.5733
  881MOL0     H18876   6.375   7.639   0.285 -2.3444  0.3920 -1.9882
  881MOL0     H18877   6.483   7.777   0.275  2.6672  0.5239 -0.8998
  881MOL0     H18878   6.431   7.811   0.051  1.8716 -1.2271  0.1400
  881MOL0     H18879   6.353   7.653   0.021  1.9991 -0.8858  0.3876
  881MOL0     H18880   6.176   7.714   0.187  0.8193 -0.5933 -0.2256
  881MOL0     H18881   6.250   7.874   0.205  0.7400  1.8175 -2.2643
  881MOL0     H18882   6.226   7.927  -0.032  1.0102 -1.1615 -0.8660
  881MOL0     H18883   6.139   7.776  -0.056 -1.6139 -1.0044  1.4053
  881MOL0     H18884   6.079   8.009   0.145  1.1759  2.0894 -2.1495
  881MOL0     H18885   5.986   7.860   0.133 -0.7838  1.0727  1.4422
  881MOL0     H18886   5.769   7.965   0.064 -1.1099 -0.7449 -2.1117
  881MOL0     H18887   5.584   7.978  -0.169 -0.3289  0.2171 -0.1305
  881MOL0     H18888   5.603   8.123  -0.071  1.3868  1.9356 -0.1945
  881MOL0     H18889   5.666   8.107  -0.379 -0.0203  0.4038  0.0030
  881MOL0     H18890   5.632   8.248  -0.282 -0.5937 -0.3902  1.6743
  881MOL0     H18891   5.400   8.189  -0.252  0.1001  0.6726 -0.6826
  881MOL0     H18892   5.430   8.028  -0.331 -1.0623  0.5128  0.1381
  881MOL0     H18893   5.517   8.156  -0.537 -1.0048 -4.5652  2.3280
  881MOL0     H18894   5.497   8.304  -0.458  3.4736 -1.8197 -0.6582
  881MOL0     H18895   5.072   8.182  -0.515  1.6556 -0.1682 -1.5582
  881MOL0     H18896   4.804   8.315  -0.365 -0.4432 -2.4469 -0.8641
  881MOL0     H18897   4.798   8.385  -0.529 -0.2658  1.3660  0.3894
  881MOL0     H18898   4.856   8.217  -0.496 -2.7893 -0.3295  0.4517
  881MOL0     H18899   4.981   8.939  -0.243 -0.9480  2.7041  1.6546
  881MOL0     H18900   4.804   9.110  -0.259  3.1597 -0.7363 -1.2333
  881MOL0     H18901   4.421   9.012  -0.107  0.3579 -0.4106  1.2938
  881MOL0     H18902   4.543   9.127  -0.036 -3.7560  1.6043  0.9513
  881MOL0     H18903   4.467   9.300  -0.211 -0.7534 -1.8233 -3.3761
  881MOL0     H18904   4.316   9.218  -0.227 -0.8687  2.9638  0.7150
  881MOL0     H18905   4.428   9.311   0.045 -1.3167  1.1395  1.3575
  881MOL0     H18906   4.282   9.219   0.019 -0.7875 -1.7043 -3.5417
  881MOL0     H18907   4.325   9.472  -0.126 -0.1262  1.1281 -0.1578
  881MOL0     H18908   4.176   9.386  -0.110 -0.2372  0.5539  0.4149
  881MOL0     H18909   4.323   9.522   0.124 -0.8093  2.5420 -0.2880
  881MOL0     H18910   4.164   9.445   0.132  0.3459 -3.3383 -1.8503
  881MOL0     H18911   4.281   9.704   0.026  1.1623 -0.0743 -4.4111
  881MOL0     H18912   4.152   9.641  -0.072  2.0417  3.0399  0.1898
  881MOL0     H18913   4.141   9.712   0.227  2.3988  1.8864 -1.2660
  881MOL0     H18914   3.996   9.667   0.138  0.2814 -1.0188  2.4777
  881MOL0     H18915   4.155   9.915   0.161 -0.7065  0.5471  1.1050
  881MOL0     H18916   3.983   9.873   0.167 -0.7802  0.8545 -1.7173
  881MOL0     H18917   4.515   8.804  -0.167 -0.0860 -1.9664 -0.6130
  881MOL0     H18918   4.707   8.636  -0.161  1.2364 -1.2163 -0.9698
  881MOL0     H18919   5.181   8.622  -0.316  0.5396 -1.3292  2.8301
  881MOL0     H18920   5.361   8.476  -0.379  2.7628 -4.6112 -2.0547
  881MOL0     H18921   6.962   7.337   0.160 -0.4135 -0.2979 -0.7591
  881MOL0     H18922   7.191   7.275   0.241  1.1377 -0.2082  2.4433
  881MOL0     H18923   7.433   6.931   0.449 -0.0551  0.1995 -1.0172
  881MOL0     H18924   7.631   6.844   0.491  0.5507  1.3043 -1.2003
  881MOL0     H18925   7.783   6.939   0.910  0.0356  0.8723 -0.5159
  881MOL0     H18926   7.730   6.778   0.879  0.4450 -0.7598 -0.5635
  881MOL0     H18927   7.953   6.740   0.769  1.5605 -2.1429  1.5897
  881MOL0     H18928   7.963   6.763   0.948 -2.4098 -0.8899 -0.5122
  881MOL0     H18929   8.047   6.980   0.941 -3.3609  0.6018 -0.3231
  881MOL0     H18930   8.017   6.999   0.767 -1.8407 -0.1600  0.9568
  881MOL0     H18931   8.204   6.793   0.898 -0.7384  0.5643  2.3037
  881MOL0     H18932   8.250   6.958   0.845  0.6241  0.3713 -1.4161
  881MOL0     H18933   8.255   6.730   0.495  1.1188 -3.4281  1.4710
  881MOL0     H18934   7.699   7.100   0.835  0.1687 -2.8559  0.9935
  881MOL0     H18935   7.492   7.204   0.796 -1.7516  0.4937 -1.7349
  882MOL0     O18936   0.673   7.540   4.996  0.2718  0.3283 -0.2139
  882MOL0     C18937   0.693   7.635   4.921  0.1077 -0.6481 -0.5050
  882MOL0     O18938   0.609   7.733   4.887 -0.0088  0.0141 -0.2609
  882MOL0     C18939   0.481   7.736   4.935  0.0747 -0.2611 -0.0157
  882MOL0     C18940   0.439   7.679   5.057 -0.2245  0.0963  0.2137
  882MOL0     C18941   0.304   7.674   5.086 -1.0991  0.2665 -0.0899
  882MOL0     C18942   0.210   7.758   5.012  0.0308  0.6150 -0.6521
  882MOL0     O18943   0.075   7.793   5.046 -0.0117  0.1189 -0.4152
  882MOL0     C18944  -0.011   7.673   5.045 -0.4509  0.5261 -0.5482
  882MOL0     C18945  -0.160   7.711   5.045  0.8290  0.2280 -0.0618
  882MOL0     C18946  -0.257   7.593   5.007  0.3850 -0.5822 -1.5097
  882MOL0     C18947  -0.404   7.621   5.047 -0.0168  0.7415  0.9456
  882MOL0     C18948  -0.515   7.529   4.991  0.1766  0.0646  0.2821
  882MOL0     C18949  -0.664   7.587   5.029  0.1950 -0.6362  0.6836
  882MOL0     C18950  -0.707   7.573   5.178 -0.1312 -0.6120 -0.3569
  882MOL0     C18951  -0.759   7.434   5.199  0.0652  0.1175 -0.8697
  882MOL0     N18952  -0.899   7.417   5.141 -0.1599 -0.0162  0.2270
  882MOL0     C18953  -1.010   7.489   5.164 -0.6191 -0.4154 -0.8396
  882MOL0     C18954  -1.108   7.441   5.089 -0.5462  0.2476  0.8370
  882MOL0     C18955  -1.242   7.496   5.074  0.1408 -0.4355  0.0822
  882MOL0     C18956  -1.345   7.402   5.131 -0.2021 -0.1554 -0.1851
  882MOL0     C18957  -1.369   7.416   5.286 -0.4741  0.6098 -0.8041
  882MOL0     C18958  -1.479   7.318   5.302 -0.1164 -0.7261 -0.3452
  882MOL0     O18959  -1.603   7.373   5.255  0.5902 -0.0569 -0.0851
  882MOL0     C18960  -1.722   7.309   5.243 -0.6992  1.1944  0.4437
  882MOL0     C18961  -1.773   7.194   5.310 -0.3477 -0.1285 -0.3656
  882MOL0     C18962  -1.891   7.130   5.269  0.1251  0.1570  0.2969
  882MOL0     C18963  -1.950   7.033   5.366 -0.2949 -0.8061  0.5115
  882MOL0     C18964  -1.961   7.170   5.147 -0.0337  0.4247 -0.3037
  882MOL0     C18965  -2.094   7.103   5.096  0.3300 -0.0377 -0.1556
  882MOL0     O18966  -2.143   6.999   5.165  0.7273 -0.6257  0.1430
  882MOL0     C18967  -2.281   6.982   5.145 -0.7124  0.5902 -0.0517
  882MOL0     C18968  -2.367   7.040   5.229  0.5883 -0.4482 -0.7764
  882MOL0     C18969  -2.512   7.019   5.218 -1.5049 -0.4894 -0.4865
  882MOL0     C18970  -2.553   6.930   5.114  0.0048  0.9367 -0.5686
  882MOL0     O18971  -2.690   6.912   5.087  0.1643 -0.2056 -0.3803
  882MOL0     C18972  -2.791   6.981   5.158  0.4512 -0.4556 -1.0628
  882MOL0     C18973  -2.929   6.943   5.093  0.2889  0.1904  0.2687
  882MOL0     C18974  -3.048   6.983   5.194 -0.0538  0.4152 -0.0993
  882MOL0     C18975  -3.180   6.946   5.132  0.3952  0.0169  0.6943
  882MOL0     C18976  -3.277   6.913   5.230  0.3563 -0.3288 -0.2974
  882MOL0     C18977  -3.408   6.856   5.154 -0.0520  0.3817  0.1706
  882MOL0     C18978  -3.514   6.827   5.258 -0.1008 -0.3026  0.1138
  882MOL0     C18979  -3.634   6.770   5.190  0.0347 -0.6107  0.0462
  882MOL0    Cl18980  -3.735   6.713   5.319 -0.0741 -0.0127  0.5194
  882MOL0     C18981  -2.458   6.870   5.035 -0.3955  0.8395 -1.1562
  882MOL0     C18982  -2.325   6.900   5.047 -0.3631  0.4673 -0.0559
  882MOL0     O18983  -2.144   7.146   4.993 -0.6217  0.4806  0.4049
  882MOL0     C18984  -1.920   7.294   5.090  0.3028  0.0808 -0.4010
  882MOL0     C18985  -1.799   7.354   5.139 -0.0275  0.0833  0.6176
  882MOL0     N18986  -1.046   7.337   5.012 -0.2803  0.3105  0.6909
  882MOL0     N18987  -0.916   7.334   5.031  1.2894  0.6182  0.4178
  882MOL0     C18988   0.261   7.816   4.901  0.6318  0.0666  0.3802
  882MOL0     C18989   0.392   7.804   4.859  0.0169 -0.5902 -0.3882
  882MOL0     C18990   0.830   7.645   4.864  0.0008  0.1265 -1.4388
  882MOL0     C18991   0.844   7.724   4.751  0.4808 -0.6904 -0.2585
  882MOL0     C18992   0.962   7.732   4.678 -0.2867 -0.3649 -0.5951
  882MOL0     C18993   1.073   7.673   4.726 -0.4088 -0.5165 -0.4667
  882MOL0     O18994   1.190   7.656   4.670  0.0131 -0.0653  0.6294
  882MOL0     C18995   1.212   7.741   4.558 -0.0349  0.2678 -0.5963
  882MOL0     C18996   1.346   7.700   4.496 -0.2347 -0.1215 -1.0191
  882MOL0     C18997   1.324   7.589   4.391  0.0084 -0.3203  0.1127
  882MOL0     C18998   1.445   7.507   4.365  0.0417 -0.2481 -0.8026
  882MOL0     C18999   1.566   7.585   4.326 -0.1165  0.7461  0.7942
  882MOL0     C19000   1.658   7.646   4.289 -1.0475 -0.2915  0.0657
  882MOL0     C19001   1.060   7.591   4.835  0.4046  0.5045  0.1092
  882MOL0     C19002   0.937   7.571   4.912  0.5374 -0.1651  0.2682
  882MOL0     H19003   0.507   7.635   5.129  1.4800  1.8434 -0.2133
  882MOL0     H19004   0.264   7.638   5.181 -2.3392 -0.5254 -0.8865
  882MOL0     H19005   0.002   7.615   4.954  2.1544  0.5243 -0.2382
  882MOL0     H19006   0.009   7.601   5.124 -2.0658 -0.3006 -0.8426
  882MOL0     H19007  -0.193   7.745   5.144 -1.9283  0.2777 -0.9042
  882MOL0     H19008  -0.179   7.784   4.966 -5.4627 -2.2142 -1.3822
  882MOL0     H19009  -0.251   7.575   4.899  1.5543 -0.8419 -1.4123
  882MOL0     H19010  -0.223   7.505   5.062  0.5463 -0.4866 -1.4569
  882MOL0     H19011  -0.405   7.610   5.156 -0.8728 -0.9038  0.8067
  882MOL0     H19012  -0.433   7.725   5.031 -1.3901  0.2862  0.2838
  882MOL0     H19013  -0.511   7.530   4.882  1.1230  1.7544  0.3007
  882MOL0     H19014  -0.507   7.426   5.027 -0.4680  0.1684  0.7579
  882MOL0     H19015  -0.657   7.693   5.006  1.7504 -0.7472  0.5948
  882MOL0     H19016  -0.740   7.548   4.961  2.0744 -2.4919 -0.4700
  882MOL0     H19017  -0.622   7.587   5.246 -0.4157  0.0386 -0.1289
  882MOL0     H19018  -0.787   7.645   5.199  2.2657  1.6681  1.7176
  882MOL0     H19019  -0.761   7.408   5.305  1.9183  0.9424 -0.6080
  882MOL0     H19020  -0.689   7.359   5.161 -2.3196 -2.4822 -0.4845
  882MOL0     H19021  -1.021   7.574   5.231 -0.0060  0.0369 -1.2947
  882MOL0     H19022  -1.245   7.590   5.129  2.4243 -0.3203  0.1098
  882MOL0     H19023  -1.268   7.520   4.971 -1.7249  1.4010  0.9061
  882MOL0     H19024  -1.336   7.294   5.112  2.8725  0.1644 -1.1098
  882MOL0     H19025  -1.431   7.438   5.074  1.9116  0.6582 -3.1223
  882MOL0     H19026  -1.397   7.518   5.313 -0.8621  1.4137 -3.8751
  882MOL0     H19027  -1.281   7.386   5.343 -0.8532  0.8908 -0.0609
  882MOL0     H19028  -1.487   7.310   5.411  2.2548 -0.4526 -0.0927
  882MOL0     H19029  -1.463   7.213   5.274  0.8306 -0.5244 -0.6085
  882MOL0     H19030  -1.728   7.158   5.402 -0.5360  0.4828 -0.0264
  882MOL0     H19031  -1.890   7.021   5.457  1.7011  1.5924 -0.3689
  882MOL0     H19032  -2.053   7.057   5.391 -0.7080  0.2101 -1.9325
  882MOL0     H19033  -1.959   6.932   5.324  3.8161 -1.4984  0.8474
  882MOL0     H19034  -2.335   7.103   5.311 -0.9725 -3.6721  2.6050
  882MOL0     H19035  -2.589   7.070   5.275 -1.5898  0.0104 -1.0425
  882MOL0     H19036  -2.793   6.958   5.265  0.9477  1.5949 -0.5838
  882MOL0     H19037  -2.779   7.089   5.155 -4.2519  0.2718 -1.5271
  882MOL0     H19038  -2.943   6.988   4.994  1.1218 -1.7674 -0.7991
  882MOL0     H19039  -2.931   6.835   5.077 -1.7182  0.5636 -2.7926
  882MOL0     H19040  -3.042   7.092   5.201 -1.3643  0.7200 -2.5776
  882MOL0     H19041  -3.042   6.929   5.289 -0.6930 -0.4897 -0.5536
  882MOL0     H19042  -3.220   7.027   5.070 -1.7859 -1.0424  0.6111
  882MOL0     H19043  -3.167   6.858   5.068  1.1302  0.1930  0.5861
  882MOL0     H19044  -3.298   6.998   5.295 -0.7496 -1.1246  0.4115
  882MOL0     H19045  -3.247   6.848   5.313 -3.2206 -1.0581  0.6098
  882MOL0     H19046  -3.451   6.925   5.082 -1.5863 -2.0727 -1.4199
  882MOL0     H19047  -3.373   6.772   5.092 -1.8588  0.7342 -1.4181
  882MOL0     H19048  -3.546   6.919   5.308  0.3467 -1.2617  2.2694
  882MOL0     H19049  -3.466   6.759   5.329  1.3339  1.8245  1.2988
  882MOL0     H19050  -3.610   6.693   5.116  1.6380 -0.0711 -0.0512
  882MOL0     H19051  -3.686   6.855   5.144  0.5205 -0.1651  0.3012
  882MOL0     H19052  -2.489   6.791   4.967  1.0740 -1.2257  0.4799
  882MOL0     H19053  -2.245   6.858   4.986  0.3407  0.7559  0.6645
  882MOL0     H19054  -1.980   7.336   5.009 -0.6009 -1.2417 -0.4377
  882MOL0     H19055  -1.771   7.447   5.090  0.0014 -0.4035 -0.3116
  882MOL0     H19056   0.195   7.878   4.841 -0.5913 -2.3703 -0.9010
  882MOL0     H19057   0.439   7.843   4.769  0.5194 -1.9576 -0.7465
  882MOL0     H19058   0.753   7.762   4.707 -0.2723 -1.7225  0.3481
  882MOL0     H19059   0.970   7.791   4.587  2.0041  4.9512  2.6184
  882MOL0     H19060   1.135   7.726   4.482  0.0349  2.0736 -1.0707
  882MOL0     H19061   1.218   7.847   4.583 -0.6099  0.3844 -0.9322
  882MOL0     H19062   1.409   7.675   4.583 -1.4388  0.5521  0.0764
  882MOL0     H19063   1.391   7.786   4.446  2.0691 -2.2623 -2.9027
  882MOL0     H19064   1.299   7.645   4.301 -0.0224 -0.9952 -0.3094
  882MOL0     H19065   1.241   7.525   4.422 -2.4197  2.1853 -0.8312
  882MOL0     H19066   1.431   7.441   4.279 -2.7207  0.0230 -0.6519
  882MOL0     H19067   1.460   7.456   4.460  0.7337  0.3226 -0.5988
  882MOL0     H19068   1.737   7.702   4.243  1.7153 -2.6504  1.5385
  882MOL0     H19069   1.135   7.515   4.853  1.2408  1.4179  0.5414
  882MOL0     H19070   0.924   7.508   5.000 -0.3976  1.3368  1.2601
  883MOL0     O19071   5.774  11.262   1.795  0.2962  0.6660  0.0755
  883MOL0     C19072   5.868  11.337   1.819  0.2504 -0.4244 -0.0333
  883MOL0     O19073   5.862  11.447   1.897  0.3683 -0.0108 -0.4455
  883MOL0     C19074   5.734  11.482   1.925 -0.0539  0.3481 -0.2997
  883MOL0     C19075   5.658  11.411   2.024 -0.4761 -0.1116 -0.6113
  883MOL0     C19076   5.532  11.449   2.054  0.0063  0.1715 -0.4803
  883MOL0     C19077   5.471  11.562   1.984 -0.1653  0.3423  0.3422
  883MOL0     O19078   5.345  11.588   2.027  0.4015  0.0082  0.1370
  883MOL0     C19079   5.296  11.717   1.991 -0.9588 -0.1211  0.1001
  883MOL0     C19080   5.156  11.740   2.057 -0.8653 -0.7527  0.4997
  883MOL0     C19081   5.039  11.636   2.032 -0.8743  0.3592  0.1058
  883MOL0     C19082   4.910  11.690   2.096  0.3832  0.6510 -0.2832
  883MOL0     C19083   4.798  11.588   2.065  0.5529 -0.2651 -0.4142
  883MOL0     C19084   4.657  11.659   2.066 -0.0154 -0.0860 -1.0343
  883MOL0     C19085   4.537  11.561   2.079  1.5152 -0.0310  0.5426
  883MOL0     C19086   4.407  11.637   2.039 -0.3586  0.6809  0.1309
  883MOL0     N19087   4.287  11.562   2.064  0.1207  0.0551  0.3245
  883MOL0     C19088   4.244  11.459   1.982  0.4888  0.7486 -0.7082
  883MOL0     C19089   4.127  11.411   2.038 -0.7338  0.0210  0.4039
  883MOL0     C19090   4.051  11.290   1.987 -0.1999  0.1957  0.2336
  883MOL0     C19091   3.905  11.322   1.937 -0.4919 -0.1526 -0.4623
  883MOL0     C19092   3.894  11.414   1.819  0.5723  0.5353  0.0428
  883MOL0     C19093   3.746  11.416   1.785  0.5395  0.4041 -0.0254
  883MOL0     O19094   3.700  11.302   1.715  0.4377  0.5079 -0.2062
  883MOL0     C19095   3.562  11.304   1.681 -1.1478  0.7756 -0.9361
  883MOL0     C19096   3.511  11.230   1.571 -0.3461 -0.3943  0.7187
  883MOL0     C19097   3.378  11.232   1.535  0.2959  0.2097  0.0991
  883MOL0     C19098   3.350  11.170   1.395  0.2215 -0.5856 -0.0589
  883MOL0     C19099   3.282  11.302   1.604  0.0672 -0.4652 -0.4986
  883MOL0     C19100   3.138  11.305   1.566 -0.9836  0.4194  0.3571
  883MOL0     O19101   3.043  11.329   1.658 -0.6705  0.1194 -0.2409
  883MOL0     C19102   2.913  11.373   1.629  0.2452  0.7901 -1.1591
  883MOL0     C19103   2.873  11.481   1.541  0.1496  0.3098  0.0525
  883MOL0     C19104   2.738  11.520   1.542 -1.0505  0.3424  0.0129
  883MOL0     C19105   2.647  11.466   1.619 -0.3899  0.2470 -2.2273
  883MOL0     O19106   2.515  11.501   1.621  0.3732  0.6548 -1.2498
  883MOL0     C19107   2.443  11.500   1.501  0.2847  0.0002 -0.6614
  883MOL0     C19108   2.313  11.571   1.528 -0.4838  0.0344 -0.5516
  883MOL0     C19109   2.225  11.582   1.403  0.3374 -0.2960 -0.2543
  883MOL0     C19110   2.180  11.447   1.351  0.3574  0.2049 -0.4719
  883MOL0     C19111   2.080  11.437   1.240  0.0885  0.2507  0.5996
  883MOL0     C19112   1.937  11.449   1.287  0.2870  1.3284  0.0276
  883MOL0     C19113   1.895  11.314   1.349  0.2611 -0.0867 -0.0163
  883MOL0     C19114   1.812  11.233   1.248 -0.0964  0.6564  0.1293
  883MOL0    Cl19115   1.757  11.086   1.320 -0.0717  0.3548  0.2886
  883MOL0     C19116   2.685  11.354   1.699 -0.5418  0.7679  0.8025
  883MOL0     C19117   2.811  11.311   1.707 -1.0275  0.1523  0.2128
  883MOL0     O19118   3.113  11.307   1.449 -0.3736 -0.1976  0.4285
  883MOL0     C19119   3.331  11.382   1.714  0.8234 -0.6365 -0.2443
  883MOL0     C19120   3.469  11.385   1.752  0.8815  0.0878 -0.5050
  883MOL0     N19121   4.110  11.492   2.156 -0.9782  0.7789 -0.9344
  883MOL0     N19122   4.209  11.574   2.168  0.5537  0.2955 -0.2594
  883MOL0     C19123   5.547  11.627   1.889 -0.4907  0.0017 -0.0818
  883MOL0     C19124   5.679  11.590   1.862 -0.4606  0.4745 -0.3390
  883MOL0     C19125   5.982  11.300   1.744  0.7205 -0.5769 -0.7746
  883MOL0     C19126   5.973  11.210   1.640 -0.8471  0.7999  0.0178
  883MOL0     C19127   6.089  11.160   1.578  0.7951  0.3480 -0.7738
  883MOL0     C19128   6.211  11.201   1.622 -0.0873  0.4037 -0.6535
  883MOL0     O19129   6.327  11.140   1.592 -0.5454  0.9497 -0.4231
  883MOL0     C19130   6.325  11.017   1.516 -0.6668 -0.9829 -0.9317
  883MOL0     C19131   6.292  10.901   1.595 -0.5912  0.6542  0.0003
  883MOL0     C19132   6.275  10.775   1.504 -0.3620  0.2198  0.4632
  883MOL0     C19133   6.153  10.689   1.549 -0.0895 -1.1688 -0.5056
  883MOL0     C19134   6.170  10.638   1.681 -0.1204 -0.6230 -0.4693
  883MOL0     C19135   6.175  10.584   1.791  0.7089 -0.4877 -0.6071
  883MOL0     C19136   6.222  11.311   1.709 -0.1557  0.5133 -0.2665
  883MOL0     C19137   6.107  11.349   1.775  0.3345  1.3339  0.3511
  883MOL0     H19138   5.714  11.333   2.073 -0.9193  1.4896  2.7082
  883MOL0     H19139   5.474  11.406   2.135  0.0856  0.1647 -0.4275
  883MOL0     H19140   5.366  11.794   2.025  0.1005 -1.5508  1.2756
  883MOL0     H19141   5.291  11.718   1.882  1.9667 -0.7339 -0.1161
  883MOL0     H19142   5.185  11.740   2.162 -0.7856 -0.5882  0.4779
  883MOL0     H19143   5.127  11.842   2.030 -1.2422 -1.0085 -0.0980
  883MOL0     H19144   5.027  11.591   1.933 -2.0903 -0.1953  0.4826
  883MOL0     H19145   5.063  11.547   2.090  1.7442  1.6466  1.1557
  883MOL0     H19146   4.904  11.725   2.200  0.1589  1.1788 -0.4685
  883MOL0     H19147   4.876  11.771   2.031 -0.2751 -2.0791 -3.5757
  883MOL0     H19148   4.810  11.533   1.970  0.4921 -0.9981 -0.0061
  883MOL0     H19149   4.810  11.507   2.138 -1.2506 -1.0418 -0.9120
  883MOL0     H19150   4.654  11.714   2.161  3.8821 -0.0385 -0.7794
  883MOL0     H19151   4.641  11.730   1.983 -0.6252  1.6943  0.5229
  883MOL0     H19152   4.556  11.479   2.009 -0.5454 -1.4594  1.5281
  883MOL0     H19153   4.527  11.524   2.182 -2.1373  0.3072  0.4567
  883MOL0     H19154   4.408  11.675   1.937  2.1208  2.8342  0.8218
  883MOL0     H19155   4.407  11.728   2.100 -2.5797  0.7864  0.0539
  883MOL0     H19156   4.285  11.418   1.891  2.0046 -3.3863  1.5594
  883MOL0     H19157   4.103  11.229   1.914 -0.1615 -1.4865  1.6025
  883MOL0     H19158   4.044  11.230   2.078 -0.0580 -0.8033 -0.4072
  883MOL0     H19159   3.863  11.371   2.025  2.4854 -1.0836  1.6314
  883MOL0     H19160   3.851  11.228   1.923 -2.5272  0.7372  0.9864
  883MOL0     H19161   3.958  11.385   1.736  0.2750 -0.5410  0.1815
  883MOL0     H19162   3.926  11.517   1.837  0.7973  0.5912 -0.6392
  883MOL0     H19163   3.716  11.509   1.735 -0.3404 -0.0305 -0.3431
  883MOL0     H19164   3.689  11.429   1.877 -0.2242 -1.8101 -0.1364
  883MOL0     H19165   3.579  11.170   1.512 -1.4700  1.6540 -2.9655
  883MOL0     H19166   3.313  11.247   1.327 -0.1907  0.1503  0.9655
  883MOL0     H19167   3.440  11.118   1.362  1.6109  0.6900  1.5197
  883MOL0     H19168   3.270  11.096   1.405 -1.0385  0.8078  0.7196
  883MOL0     H19169   2.943  11.533   1.476  0.4219  0.2830  0.3251
  883MOL0     H19170   2.704  11.599   1.476 -1.2501 -0.9705 -1.5118
  883MOL0     H19171   2.491  11.554   1.418  1.5215  0.5792  0.3972
  883MOL0     H19172   2.427  11.394   1.478  2.0620 -0.4819  0.1739
  883MOL0     H19173   2.241  11.525   1.597  0.4137 -1.7523 -0.7579
  883MOL0     H19174   2.325  11.669   1.576 -0.8915 -0.8641  1.5047
  883MOL0     H19175   2.270  11.627   1.314  0.4186 -2.4034 -1.3201
  883MOL0     H19176   2.131  11.631   1.431  0.6357 -0.7322  1.6813
  883MOL0     H19177   2.271  11.400   1.312  0.5863  0.8403 -0.7178
  883MOL0     H19178   2.156  11.385   1.438  0.6805 -1.6730 -1.6588
  883MOL0     H19179   2.093  11.342   1.188 -0.0595 -0.2347  1.4355
  883MOL0     H19180   2.089  11.514   1.162 -3.1361 -0.7935 -0.9789
  883MOL0     H19181   1.939  11.528   1.363 -1.0357  1.5032 -0.0881
  883MOL0     H19182   1.869  11.474   1.206  1.5156 -1.7592 -2.1528
  883MOL0     H19183   1.826  11.332   1.432 -0.6113  1.1762 -0.9698
  883MOL0     H19184   1.985  11.258   1.376  1.4077  1.6101 -0.2009
  883MOL0     H19185   1.876  11.207   1.163 -1.2295 -0.6741 -0.3635
  883MOL0     H19186   1.726  11.288   1.210 -1.2620 -0.7910  0.5722
  883MOL0     H19187   2.623  11.305   1.773  0.1644 -2.3052 -0.4974
  883MOL0     H19188   2.832  11.224   1.769  0.3246 -1.2949 -2.1192
  883MOL0     H19189   3.262  11.443   1.772 -0.9007 -2.7291  0.0382
  883MOL0     H19190   3.484  11.447   1.840  1.1723  1.7617 -1.6928
  883MOL0     H19191   5.503  11.710   1.835  0.7548 -1.2860 -3.3343
  883MOL0     H19192   5.724  11.654   1.786 -2.4732  2.0069 -0.3040
  883MOL0     H19193   5.875  11.180   1.605 -0.4866 -2.4523  1.4529
  883MOL0     H19194   6.073  11.090   1.497  1.1512  0.5325 -1.0051
  883MOL0     H19195   6.247  11.015   1.438 -2.0341  0.3499  0.3419
  883MOL0     H19196   6.418  11.009   1.459  0.3281 -0.0779  0.5351
  883MOL0     H19197   6.205  10.924   1.656  1.3079  2.5917  2.1895
  883MOL0     H19198   6.371  10.886   1.670 -0.2042 -0.3413 -0.5816
  883MOL0     H19199   6.371  10.721   1.502 -0.9501 -0.9022  1.0786
  883MOL0     H19200   6.257  10.803   1.400  0.2020 -1.4102 -0.1071
  883MOL0     H19201   6.134  10.596   1.496 -2.6569 -2.1189  1.8089
  883MOL0     H19202   6.065  10.754   1.552  2.0254  1.9818  2.5281
  883MOL0     H19203   6.180  10.571   1.897  0.0217  1.8389 -0.2216
  883MOL0     H19204   6.320  11.346   1.739 -0.4447 -0.6210  2.2152
  883MOL0     H19205   6.127  11.407   1.865 -1.0338  0.0066  1.5757
  884MOL0     O19206   3.228   6.814   8.785 -0.5656 -0.1144 -0.5320
  884MOL0     C19207   3.251   6.707   8.826  0.8117  1.2825 -0.0142
  884MOL0     O19208   3.184   6.637   8.918  0.3346 -0.1268 -0.7387
  884MOL0     C19209   3.074   6.685   8.985  0.0176  0.7740 -0.0609
  884MOL0     C19210   2.958   6.601   9.000 -0.2686 -0.2123  0.0219
  884MOL0     C19211   2.843   6.650   9.051  0.1592  0.4250  0.2295
  884MOL0     C19212   2.831   6.786   9.085 -0.0250  0.0428  0.1841
  884MOL0     O19213   2.716   6.840   9.130 -0.8564 -0.0731 -0.4725
  884MOL0     C19214   2.633   6.764   9.223 -0.3346  0.2321 -0.2281
  884MOL0     C19215   2.508   6.844   9.270  0.2944 -0.4442 -0.9574
  884MOL0     C19216   2.408   6.863   9.157 -0.5919  0.2095 -0.5775
  884MOL0     C19217   2.278   6.936   9.219 -0.9414 -0.2340  0.4031
  884MOL0     C19218   2.156   6.942   9.125 -0.7896  0.2577  0.3008
  884MOL0     C19219   2.045   7.019   9.196  0.8508 -0.4230 -0.0554
  884MOL0     C19220   1.903   6.968   9.181  0.0581 -0.8424 -0.0667
  884MOL0     C19221   1.855   6.983   9.033 -0.3293 -0.5135 -0.0876
  884MOL0     N19222   1.732   6.902   9.025 -0.1668  0.1991  0.3863
  884MOL0     C19223   1.609   6.952   9.002 -0.0825  0.2501 -1.0321
  884MOL0     C19224   1.528   6.844   8.987 -0.3940 -0.0315  0.1071
  884MOL0     C19225   1.375   6.846   8.963  0.3417 -0.3427  0.0790
  884MOL0     C19226   1.303   6.871   9.086  0.0615  0.0927 -0.3430
  884MOL0     C19227   1.156   6.853   9.058 -0.3379 -0.2209 -0.7438
  884MOL0     C19228   1.103   6.705   9.052 -0.7448  0.5704 -0.0544
  884MOL0     O19229   0.982   6.700   9.131  0.4980 -0.0009  0.4156
  884MOL0     C19230   0.876   6.620   9.091 -0.0059  0.2302 -0.0496
  884MOL0     C19231   0.878   6.481   9.097 -0.1313 -0.0464  0.4294
  884MOL0     C19232   0.762   6.401   9.060  0.5891 -0.3974 -0.7143
  884MOL0     C19233   0.773   6.252   9.090 -0.1905 -0.5459 -0.1425
  884MOL0     C19234   0.644   6.469   9.019 -1.0456 -0.3246  0.8046
  884MOL0     C19235   0.528   6.390   8.991 -0.2420  0.1260 -0.3977
  884MOL0     O19236   0.411   6.449   9.018 -0.3716 -0.6385  0.0787
  884MOL0     C19237   0.294   6.400   8.981 -0.2599 -0.2959 -1.0017
  884MOL0     C19238   0.246   6.417   8.856  0.0400 -0.6457  0.1907
  884MOL0     C19239   0.118   6.377   8.825  0.0022  1.0487  0.8591
  884MOL0     C19240   0.028   6.322   8.917 -0.3824  0.7437  0.4320
  884MOL0     O19241  -0.090   6.274   8.883 -0.0041 -0.6534  0.6426
  884MOL0     C19242  -0.186   6.252   8.984  0.0862  0.6033 -0.8735
  884MOL0     C19243  -0.250   6.383   9.043  0.0196  0.4836  0.7210
  884MOL0     C19244  -0.333   6.457   8.945  0.1846 -0.0506 -0.0660
  884MOL0     C19245  -0.459   6.376   8.921  0.2777 -0.0635 -0.0159
  884MOL0     C19246  -0.510   6.397   8.776 -0.4748 -1.1436 -0.1185
  884MOL0     C19247  -0.658   6.343   8.757 -0.1475 -0.8206  0.1266
  884MOL0     C19248  -0.687   6.350   8.607 -0.5772 -0.0819 -0.1354
  884MOL0     C19249  -0.828   6.306   8.564  0.4561 -0.0133  0.0379
  884MOL0    Cl19250  -0.848   6.137   8.557 -0.5114  0.2733  0.3591
  884MOL0     C19251   0.081   6.309   9.048 -0.4043  0.1996  0.4076
  884MOL0     C19252   0.211   6.354   9.079 -0.2903 -0.0961  0.8726
  884MOL0     O19253   0.538   6.281   8.943 -0.1331 -0.5762 -0.1927
  884MOL0     C19254   0.644   6.610   9.018  0.3369 -0.6879  0.2027
  884MOL0     C19255   0.758   6.687   9.057 -0.0359 -0.1014  0.4235
  884MOL0     N19256   1.607   6.734   8.979 -0.4905  0.7489 -0.3903
  884MOL0     N19257   1.728   6.771   8.985 -0.1544 -1.2093 -0.3383
  884MOL0     C19258   2.946   6.866   9.080 -0.0527 -0.3826 -0.7049
  884MOL0     C19259   3.066   6.816   9.026  0.0626  0.4630  0.5613
  884MOL0     C19260   3.360   6.635   8.754  0.4807 -0.3312 -0.0133
  884MOL0     C19261   3.377   6.495   8.779  0.9370  0.0039 -0.0219
  884MOL0     C19262   3.474   6.423   8.715  0.2481 -0.3161 -0.1396
  884MOL0     C19263   3.573   6.493   8.633  0.4436 -0.0993 -0.4042
  884MOL0     O19264   3.682   6.435   8.576  0.1065  0.0841 -0.0523
  884MOL0     C19265   3.718   6.303   8.620  0.4556 -0.4431  0.7030
  884MOL0     C19266   3.835   6.258   8.533  0.8806  0.4027 -0.1739
  884MOL0     C19267   3.977   6.315   8.573 -0.6493  0.3900  0.2057
  884MOL0     C19268   3.979   6.460   8.615 -0.7735 -0.3874  0.8114
  884MOL0     C19269   4.108   6.540   8.594 -0.1075  0.2662  0.1002
  884MOL0     C19270   4.216   6.580   8.573 -1.0458  0.3810  0.3180
  884MOL0     C19271   3.551   6.626   8.604 -0.4112 -0.8915 -0.6763
  884MOL0     C19272   3.444   6.701   8.659 -0.6325  0.7990 -0.3922
  884MOL0     H19273   2.950   6.496   8.975  3.0586  0.1125 -3.3002
  884MOL0     H19274   2.764   6.579   9.072  1.4115 -1.4070 -0.9560
  884MOL0     H19275   2.614   6.665   9.180 -1.2936  0.5596 -0.6004
  884MOL0     H19276   2.690   6.757   9.316 -1.6626 -1.5267  0.5125
  884MOL0     H19277   2.459   6.794   9.355  2.4076 -1.1921 -0.1189
  884MOL0     H19278   2.540   6.945   9.296  0.0058 -0.2856 -1.2235
  884MOL0     H19279   2.459   6.917   9.077  0.0507 -0.1802 -0.4362
  884MOL0     H19280   2.389   6.763   9.117  2.9297 -0.1682 -1.5627
  884MOL0     H19281   2.253   6.878   9.308 -2.7421 -0.6377 -0.3233
  884MOL0     H19282   2.279   7.037   9.260 -1.1725  0.5258 -1.3595
  884MOL0     H19283   2.180   6.975   9.024 -2.5129 -0.1821 -0.2795
  884MOL0     H19284   2.116   6.841   9.115  0.1446 -0.0123 -0.8774
  884MOL0     H19285   2.064   7.008   9.303 -1.7458 -0.4863  0.4716
  884MOL0     H19286   2.053   7.127   9.180 -0.5199 -0.3389 -0.2944
  884MOL0     H19287   1.910   6.867   9.225  0.2083 -0.1592  1.5729
  884MOL0     H19288   1.849   7.027   9.256  3.1221 -0.6066  2.1623
  884MOL0     H19289   1.923   6.944   8.957 -1.7617  0.7352 -2.1103
  884MOL0     H19290   1.841   7.087   9.005  1.0264 -0.4221 -0.4918
  884MOL0     H19291   1.588   7.058   8.997  0.2000  0.6407  3.1145
  884MOL0     H19292   1.354   6.926   8.892  1.7749  2.8011  2.9280
  884MOL0     H19293   1.349   6.745   8.931 -2.3159  0.1925  0.3259
  884MOL0     H19294   1.318   6.979   9.097 -1.3342  0.6280 -2.9227
  884MOL0     H19295   1.335   6.806   9.168 -1.5425  0.6078  0.7380
  884MOL0     H19296   1.136   6.907   8.964 -1.8011 -2.6603 -1.9462
  884MOL0     H19297   1.103   6.918   9.129  1.3177  1.9092 -1.3300
  884MOL0     H19298   1.171   6.633   9.098 -1.0481  1.2203  1.4509
  884MOL0     H19299   1.085   6.677   8.948 -3.9642  3.3369 -0.4146
  884MOL0     H19300   0.970   6.435   9.132  0.4108  1.6918  1.3734
  884MOL0     H19301   0.787   6.186   9.004  0.1243 -0.3073 -0.2781
  884MOL0     H19302   0.861   6.245   9.155  0.3799  1.5778 -0.6061
  884MOL0     H19303   0.681   6.211   9.133 -0.9646 -0.5706 -1.7659
  884MOL0     H19304   0.319   6.443   8.781  0.8787 -1.6887  0.6164
  884MOL0     H19305   0.081   6.383   8.723 -1.1760 -2.7608  0.8915
  884MOL0     H19306  -0.269   6.201   8.934  0.1986  0.5272 -0.9818
  884MOL0     H19307  -0.165   6.173   9.057 -0.3653 -0.0874 -1.4764
  884MOL0     H19308  -0.305   6.363   9.135  0.3747 -1.4392  0.5492
  884MOL0     H19309  -0.164   6.444   9.072 -1.2310  1.1384  3.3295
  884MOL0     H19310  -0.277   6.458   8.851  0.5753  1.4780  0.1474
  884MOL0     H19311  -0.354   6.556   8.988  1.3308 -0.0941  0.6019
  884MOL0     H19312  -0.445   6.268   8.931 -1.0346 -0.4391 -1.7102
  884MOL0     H19313  -0.536   6.402   8.994 -0.1020 -1.3043  0.0466
  884MOL0     H19314  -0.449   6.341   8.705  0.4844 -2.1763  1.4330
  884MOL0     H19315  -0.500   6.504   8.756  3.7479 -1.0590  1.4486
  884MOL0     H19316  -0.654   6.242   8.799  2.3236 -1.0787 -0.5507
  884MOL0     H19317  -0.728   6.409   8.809 -0.0242  1.4694 -2.3471
  884MOL0     H19318  -0.614   6.287   8.556  0.9839  0.1266  1.7039
  884MOL0     H19319  -0.664   6.451   8.571  2.2201 -0.7231 -0.3341
  884MOL0     H19320  -0.845   6.341   8.461  4.2294  0.1489 -0.6713
  884MOL0     H19321  -0.906   6.354   8.625 -0.9273 -0.8718 -0.9840
  884MOL0     H19322   0.022   6.270   9.130  0.4819 -0.1077  0.9193
  884MOL0     H19323   0.247   6.347   9.181  0.0928  1.6095  0.8861
  884MOL0     H19324   0.558   6.675   9.001  0.9130 -0.2482 -1.1430
  884MOL0     H19325   0.752   6.795   9.057  0.1273 -0.0886  0.1117
  884MOL0     H19326   2.950   6.973   9.100  1.7484 -0.1955 -1.8104
  884MOL0     H19327   3.152   6.882   9.022  0.0328  0.7984  3.1905
  884MOL0     H19328   3.309   6.440   8.843  2.8049 -2.3751  0.0947
  884MOL0     H19329   3.461   6.316   8.729 -0.3694 -0.0508  1.5643
  884MOL0     H19330   3.736   6.299   8.728 -1.6354  0.1246  1.1196
  884MOL0     H19331   3.633   6.236   8.606 -0.7309  1.3971 -1.8530
  884MOL0     H19332   3.806   6.252   8.428  1.1402  2.2232 -0.3932
  884MOL0     H19333   3.833   6.152   8.558 -1.1779 -0.0354 -1.8557
  884MOL0     H19334   4.032   6.303   8.479 -1.5727  1.4055 -0.4946
  884MOL0     H19335   4.027   6.251   8.646  1.3916  0.0608 -1.3982
  884MOL0     H19336   3.953   6.463   8.721 -3.2030 -1.9370  0.3295
  884MOL0     H19337   3.900   6.509   8.559  0.8580 -0.2181 -1.4887
  884MOL0     H19338   4.317   6.602   8.548 -0.8082 -1.3685 -0.3948
  884MOL0     H19339   3.596   6.681   8.522 -2.2422  0.9154 -0.5596
  884MOL0     H19340   3.430   6.803   8.626  2.0536 -0.0382 -5.0048
  885MOL0     O19341   9.001  10.885   9.636  0.4234  0.2342 -0.6280
  885MOL0     C19342   9.042  10.941   9.535  0.0320 -0.1302  0.0109
  885MOL0     O19343   8.968  10.963   9.417 -0.8940  0.8423  0.2138
  885MOL0     C19344   8.839  10.940   9.395 -0.2053 -0.0249  0.2355
  885MOL0     C19345   8.795  10.899   9.273 -0.0598  0.4320 -0.3040
  885MOL0     C19346   8.659  10.896   9.237 -0.4177 -0.7557  0.4948
  885MOL0     C19347   8.560  10.934   9.330  0.3075  0.0829  0.4907
  885MOL0     O19348   8.429  10.945   9.307  0.3418  0.5825 -0.0592
  885MOL0     C19349   8.382  10.976   9.174 -0.7878 -0.2862  0.0744
  885MOL0     C19350   8.236  10.956   9.167 -0.0552  0.2745 -0.5189
  885MOL0     C19351   8.172  10.981   9.027 -0.6535  0.6318  0.5506
  885MOL0     C19352   8.031  10.950   9.034 -0.6501  0.1121 -1.4179
  885MOL0     C19353   7.964  10.915   8.908 -0.6384  0.4225 -0.0575
  885MOL0     C19354   7.810  10.905   8.926  0.4543 -0.0763 -1.7684
  885MOL0     C19355   7.742  10.865   8.788 -0.7550 -0.6602 -0.4568
  885MOL0     C19356   7.600  10.849   8.786 -0.4356 -0.2225 -0.0404
  885MOL0     N19357   7.558  10.841   8.647 -0.1887  0.0477  0.6533
  885MOL0     C19358   7.598  10.757   8.547  0.2960  0.2733 -0.0510
  885MOL0     C19359   7.520  10.780   8.443 -0.6129 -0.0255  0.3879
  885MOL0     C19360   7.498  10.713   8.314  0.0538  0.3650 -0.2724
  885MOL0     C19361   7.367  10.636   8.321 -0.1429 -0.0730 -0.3900
  885MOL0     C19362   7.347  10.524   8.220 -0.4356 -0.6617  0.1410
  885MOL0     C19363   7.222  10.459   8.248  0.6208 -0.5087 -0.4635
  885MOL0     O19364   7.105  10.536   8.207 -0.1190 -1.5831 -0.1832
  885MOL0     C19365   6.983  10.473   8.190  1.2310  0.2683  0.4447
  885MOL0     C19366   6.960  10.340   8.238 -0.2508  0.7449 -0.5894
  885MOL0     C19367   6.845  10.270   8.205  0.3157 -1.0028  1.9805
  885MOL0     C19368   6.833  10.126   8.234 -0.0747  0.2415 -0.6266
  885MOL0     C19369   6.741  10.333   8.134 -0.1699 -0.4705  0.0490
  885MOL0     C19370   6.623  10.268   8.075  0.4432  0.3616 -0.1555
  885MOL0     O19371   6.548  10.337   7.986 -0.7294 -0.3941 -0.4546
  885MOL0     C19372   6.419  10.301   7.975  0.1632  0.4143 -0.0922
  885MOL0     C19373   6.379  10.195   7.887  0.7303 -0.2388 -0.6813
  885MOL0     C19374   6.252  10.186   7.844  0.4585  0.6298  0.7899
  885MOL0     C19375   6.160  10.281   7.873  0.3676 -0.6749 -1.5855
  885MOL0     O19376   6.033  10.285   7.820  0.2046  0.0409 -0.5018
  885MOL0     C19377   5.921  10.314   7.905  0.0514  0.0521  1.0686
  885MOL0     C19378   5.788  10.321   7.833 -0.5796  0.5829 -0.3774
  885MOL0     C19379   5.672  10.339   7.924 -0.6630  0.4449 -0.2551
  885MOL0     C19380   5.541  10.339   7.851  0.3378 -0.3167 -0.2377
  885MOL0     C19381   5.422  10.363   7.943 -1.0050 -0.5952 -0.4378
  885MOL0     C19382   5.284  10.335   7.878 -0.6583 -1.1169 -0.7812
  885MOL0     C19383   5.233  10.453   7.797 -0.4848 -0.5253 -0.4713
  885MOL0     C19384   5.079  10.449   7.763 -0.4205 -0.3647  0.1805
  885MOL0    Cl19385   4.988  10.457   7.907 -0.1566  0.2910  0.3013
  885MOL0     C19386   6.193  10.380   7.956 -0.2043 -0.0136 -0.0525
  885MOL0     C19387   6.318  10.392   8.012  0.8730  0.8162 -0.1288
  885MOL0     O19388   6.590  10.158   8.113  0.4372 -0.1062  0.8456
  885MOL0     C19389   6.755  10.475   8.107  0.0676  0.0964  0.1112
  885MOL0     C19390   6.871  10.535   8.130 -0.3028  0.5215 -0.1492
  885MOL0     N19391   7.429  10.885   8.477 -0.7452 -0.0681 -0.0472
  885MOL0     N19392   7.453  10.914   8.600  0.0216  0.5194 -0.1239
  885MOL0     C19393   8.609  10.970   9.457 -0.0862  0.2819  0.3387
  885MOL0     C19394   8.744  10.979   9.484  0.0933  0.4951  0.1677
  885MOL0     C19395   9.187  10.983   9.540 -0.0852  0.3420 -0.0352
  885MOL0     C19396   9.225  11.069   9.435 -0.0659  0.2071 -0.3663
  885MOL0     C19397   9.355  11.129   9.438  0.4778  0.7460 -0.3988
  885MOL0     C19398   9.444  11.116   9.550  0.1076 -0.2380 -0.2249
  885MOL0     O19399   9.563  11.189   9.572  0.3899  0.6933  0.4053
  885MOL0     C19400   9.598  11.274   9.458  0.0295 -0.3410  0.2441
  885MOL0     C19401   9.751  11.303   9.483  0.5444  0.4029 -0.1099
  885MOL0     C19402   9.844  11.192   9.421  0.2709  0.1520 -0.2209
  885MOL0     C19403   9.991  11.210   9.447  0.1995  1.2299 -0.2956
  885MOL0     C19404  10.024  11.200   9.591 -0.3479 -0.3879  0.0551
  885MOL0     C19405  10.049  11.185   9.704  1.2424 -0.4561  0.7792
  885MOL0     C19406   9.391  11.029   9.653 -0.5616  0.4978 -1.0780
  885MOL0     C19407   9.275  10.961   9.645 -0.6643  0.5275 -0.6592
  885MOL0     H19408   8.862  10.877   9.191  1.6752 -0.7668  1.3405
  885MOL0     H19409   8.637  10.858   9.138 -2.4918 -2.5335  1.5486
  885MOL0     H19410   8.390  11.082   9.147 -2.1225 -0.3018 -0.4334
  885MOL0     H19411   8.440  10.929   9.095 -2.3871  0.6475 -1.7371
  885MOL0     H19412   8.207  10.856   9.203 -0.1068  0.4610 -0.0338
  885MOL0     H19413   8.195  11.029   9.237  3.2395  1.3061  0.4908
  885MOL0     H19414   8.185  11.082   8.986  0.9348  0.5015  0.6684
  885MOL0     H19415   8.221  10.913   8.957 -2.3930 -2.3566  2.0440
  885MOL0     H19416   8.012  10.862   9.095  1.9119 -1.0450 -2.1541
  885MOL0     H19417   7.978  11.040   9.068 -0.0222  0.2218 -0.6979
  885MOL0     H19418   7.980  10.987   8.828 -3.3847 -1.2659 -2.3298
  885MOL0     H19419   8.009  10.819   8.878  2.7597  1.7750  0.2858
  885MOL0     H19420   7.785  10.822   8.993  2.9175 -3.1296 -4.3118
  885MOL0     H19421   7.778  11.000   8.971 -0.5819 -1.3476  0.3356
  885MOL0     H19422   7.770  10.936   8.710 -4.2072  0.9427 -0.4109
  885MOL0     H19423   7.784  10.767   8.762  3.0479  0.3875  1.0567
  885MOL0     H19424   7.548  10.919   8.852  0.3884  2.5856 -2.2108
  885MOL0     H19425   7.584  10.752   8.835  3.1181 -0.7140  0.3881
  885MOL0     H19426   7.667  10.674   8.556 -1.1599 -0.9526  0.3706
  885MOL0     H19427   7.500  10.793   8.239  3.4804 -0.4416 -1.2106
  885MOL0     H19428   7.577  10.638   8.300 -1.4125 -1.7630  1.9951
  885MOL0     H19429   7.290  10.713   8.312 -2.0024 -1.3889  2.6229
  885MOL0     H19430   7.359  10.602   8.425 -2.9791 -0.8281 -0.7598
  885MOL0     H19431   7.430  10.453   8.215 -1.1989 -1.5522 -0.0627
  885MOL0     H19432   7.343  10.571   8.122  0.0658  0.7916  0.7894
  885MOL0     H19433   7.215  10.432   8.354  0.3992 -1.5358 -0.7248
  885MOL0     H19434   7.211  10.364   8.194 -1.9703 -0.1154 -0.7798
  885MOL0     H19435   7.042  10.289   8.287 -0.3593  2.5153  1.6058
  885MOL0     H19436   6.754  10.100   8.305 -0.4283  0.2342 -1.0176
  885MOL0     H19437   6.815  10.070   8.141 -2.0428  2.9203 -2.0050
  885MOL0     H19438   6.930  10.099   8.277  0.5042  0.0636 -1.9865
  885MOL0     H19439   6.457  10.132   7.846  2.8461  1.2619  0.7700
  885MOL0     H19440   6.231  10.102   7.778  1.5427 -0.6645  2.0346
  885MOL0     H19441   5.927  10.225   7.969  1.1526 -1.5629 -1.1634
  885MOL0     H19442   5.936  10.405   7.963 -0.6721  1.6480 -1.1393
  885MOL0     H19443   5.801  10.399   7.757  0.5635 -0.2722 -1.1017
  885MOL0     H19444   5.776  10.235   7.766  1.5759  1.9215 -2.6540
  885MOL0     H19445   5.693  10.434   7.973  3.5700  1.0062 -2.6766
  885MOL0     H19446   5.676  10.255   7.994 -0.2904 -0.7488 -1.6486
  885MOL0     H19447   5.543  10.415   7.772  3.0127  0.1921  0.1963
  885MOL0     H19448   5.535  10.245   7.796 -0.0694  0.7959 -2.1873
  885MOL0     H19449   5.427  10.468   7.975 -1.1591 -0.7861  0.2240
  885MOL0     H19450   5.430  10.293   8.027  0.0996 -0.8138 -0.7031
  885MOL0     H19451   5.292  10.242   7.821  3.1523 -0.3167 -1.8459
  885MOL0     H19452   5.218  10.316   7.964  0.2482 -1.8195 -0.2272
  885MOL0     H19453   5.276  10.445   7.697 -1.0373  0.4826 -0.8075
  885MOL0     H19454   5.265  10.549   7.841 -0.2393 -0.7990 -0.0436
  885MOL0     H19455   5.058  10.352   7.718 -1.7205 -0.5344  1.0992
  885MOL0     H19456   5.048  10.530   7.696  0.9698  0.4173  0.4340
  885MOL0     H19457   6.120  10.454   7.989  1.0409  0.2334  2.3780
  885MOL0     H19458   6.345  10.480   8.069 -0.0269  1.5086 -0.7473
  885MOL0     H19459   6.674  10.525   8.055 -0.7017 -3.5207 -2.6524
  885MOL0     H19460   6.875  10.642   8.110 -0.9985  0.9668  1.8709
  885MOL0     H19461   8.527  10.991   9.525 -0.4785  1.7211 -0.5335
  885MOL0     H19462   8.780  11.023   9.576 -0.7703  3.4836 -0.7892
  885MOL0     H19463   9.160  11.103   9.355 -0.8997 -2.0920 -0.7486
  885MOL0     H19464   9.380  11.193   9.354  1.2962 -0.9551 -1.4894
  885MOL0     H19465   9.585  11.221   9.363  0.9121  1.6970 -1.0803
  885MOL0     H19466   9.546  11.369   9.447  0.3977 -0.4270 -3.7807
  885MOL0     H19467   9.766  11.301   9.591 -0.5388  0.6953  0.0646
  885MOL0     H19468   9.783  11.402   9.448 -0.2248  0.9133  0.5757
  885MOL0     H19469   9.828  11.186   9.313 -0.5252 -0.9660 -0.0659
  885MOL0     H19470   9.811  11.094   9.457  0.1928  0.0618 -0.5350
  885MOL0     H19471  10.006  11.314   9.417 -3.1505  1.6222 -0.9055
  885MOL0     H19472  10.060  11.146   9.390  0.1352  1.1221 -0.2539
  885MOL0     H19473  10.046  11.179   9.811  3.1921  1.8448  1.0606
  885MOL0     H19474   9.448  11.013   9.745 -4.3889  2.4158  1.9056
  885MOL0     H19475   9.246  10.896   9.727  0.9998  0.1082 -0.3715
  886MOL0     O19476   1.672   6.269   8.159  0.0922  0.2249 -0.5305
  886MOL0     C19477   1.687   6.367   8.233 -0.1509  0.2210 -0.2564
  886MOL0     O19478   1.588   6.453   8.289  0.3627  0.5474 -0.3487
  886MOL0     C19479   1.451   6.439   8.259 -0.3250 -0.1750 -0.9257
  886MOL0     C19480   1.402   6.448   8.125  0.5336  0.4589  0.1217
  886MOL0     C19481   1.259   6.444   8.110 -0.3808  0.0288  0.0490
  886MOL0     C19482   1.167   6.409   8.213 -0.9352  0.3839 -0.6123
  886MOL0     O19483   1.038   6.421   8.190 -0.3769  0.3209  0.9450
  886MOL0     C19484   0.956   6.454   8.291 -0.7482  0.0800 -0.2877
  886MOL0     C19485   0.893   6.322   8.331 -0.1046  0.2628 -0.0507
  886MOL0     C19486   0.789   6.267   8.235  0.0689 -1.0498  0.2807
  886MOL0     C19487   0.674   6.368   8.226 -0.4031 -0.1902 -0.3296
  886MOL0     C19488   0.581   6.296   8.130 -0.0793  0.9386  0.5305
  886MOL0     C19489   0.450   6.358   8.127 -0.2691 -0.0569 -0.3469
  886MOL0     C19490   0.339   6.309   8.024 -0.1532  0.4754 -0.9506
  886MOL0     C19491   0.193   6.361   8.029  0.1345  0.8961  0.4171
  886MOL0     N19492   0.129   6.389   7.901 -0.1604 -0.1274  0.1480
  886MOL0     C19493   0.138   6.317   7.786 -0.2241 -0.2329  0.5782
  886MOL0     C19494   0.069   6.372   7.696 -0.0247  0.3015 -0.2226
  886MOL0     C19495   0.043   6.330   7.554 -0.8118 -0.0422  0.0796
  886MOL0     C19496  -0.108   6.311   7.517  0.2180  0.7315  0.5091
  886MOL0     C19497  -0.136   6.238   7.383  0.2404  0.4830 -0.6199
  886MOL0     C19498  -0.284   6.214   7.349  0.3815  0.0662  0.5602
  886MOL0     O19499  -0.321   6.071   7.347 -0.6629  0.6107 -0.4284
  886MOL0     C19500  -0.446   6.039   7.395 -0.1780 -0.4482  1.0295
  886MOL0     C19501  -0.534   5.973   7.314 -0.3636 -0.4982 -0.0515
  886MOL0     C19502  -0.660   5.919   7.357  0.4689 -0.4232  0.0878
  886MOL0     C19503  -0.745   5.853   7.256 -0.1068  0.4565 -0.3737
  886MOL0     C19504  -0.689   5.942   7.501  0.1176 -0.0303  1.0873
  886MOL0     C19505  -0.810   5.877   7.553 -0.4015 -0.0067 -0.6123
  886MOL0     O19506  -0.818   5.735   7.539 -0.1825  0.0003 -0.7127
  886MOL0     C19507  -0.940   5.677   7.563 -0.2252  0.1406 -0.4282
  886MOL0     C19508  -1.016   5.623   7.457 -0.2404 -0.4094  0.4424
  886MOL0     C19509  -1.141   5.558   7.475 -0.3520  0.5335  0.0128
  886MOL0     C19510  -1.186   5.541   7.611 -0.7777 -0.4348  0.7208
  886MOL0     O19511  -1.304   5.480   7.643  0.6267  0.5186 -0.1329
  886MOL0     C19512  -1.428   5.534   7.602  0.3292 -0.2865  1.0989
  886MOL0     C19513  -1.532   5.489   7.697  0.0457  0.5708  0.0725
  886MOL0     C19514  -1.654   5.426   7.634 -0.1187  0.6053  0.7923
  886MOL0     C19515  -1.778   5.441   7.724 -0.0307  0.7718 -0.2223
  886MOL0     C19516  -1.905   5.374   7.660  0.2812  0.9115  0.0414
  886MOL0     C19517  -1.900   5.220   7.653 -0.3377  0.8166 -0.3343
  886MOL0     C19518  -2.038   5.171   7.629  0.3828 -1.0531 -0.5342
  886MOL0     C19519  -2.033   5.020   7.602 -0.7391  0.2262  0.4933
  886MOL0    Cl19520  -1.953   4.931   7.742 -0.4109  0.1580  0.2009
  886MOL0     C19521  -1.102   5.579   7.714  0.0919 -0.1612  0.2099
  886MOL0     C19522  -0.985   5.653   7.696  0.4199 -0.4813 -0.0310
  886MOL0     O19523  -0.893   5.944   7.612 -0.0653  0.1150 -0.2788
  886MOL0     C19524  -0.591   5.986   7.586 -0.9066 -0.3809 -0.3751
  886MOL0     C19525  -0.468   6.036   7.527  0.1012  0.2902 -0.0343
  886MOL0     N19526  -0.003   6.481   7.754  0.8737  0.4421 -0.4704
  886MOL0     N19527   0.051   6.496   7.871  0.6823  0.7545 -0.0933
  886MOL0     C19528   1.219   6.381   8.346  0.0445 -0.3184  1.0572
  886MOL0     C19529   1.363   6.399   8.362  0.2068 -0.5447  0.5316
  886MOL0     C19530   1.828   6.400   8.286  1.3114  0.1538 -0.1371
  886MOL0     C19531   1.934   6.318   8.242 -0.3222  0.8311 -1.0729
  886MOL0     C19532   2.067   6.338   8.292 -0.8971 -0.4606  0.2042
  886MOL0     C19533   2.083   6.442   8.387  0.0524 -0.9512 -0.1363
  886MOL0     O19534   2.204   6.475   8.443  0.0247 -0.2758  0.0573
  886MOL0     C19535   2.315   6.388   8.447  0.3967  0.5144  1.2158
  886MOL0     C19536   2.435   6.460   8.501  0.2846 -0.2613 -0.1046
  886MOL0     C19537   2.472   6.576   8.415 -0.3193 -0.0891 -0.2366
  886MOL0     C19538   2.623   6.601   8.430  0.4254  0.2753  0.3040
  886MOL0     C19539   2.703   6.508   8.349 -0.3166 -0.0946 -0.2159
  886MOL0     C19540   2.763   6.430   8.287 -0.1628  0.8371  0.7978
  886MOL0     C19541   1.975   6.522   8.433 -0.1304  0.2420 -0.1180
  886MOL0     C19542   1.849   6.505   8.379 -0.8670 -0.0874 -0.9885
  886MOL0     H19543   1.474   6.470   8.048  1.5766  2.9829  1.6882
  886MOL0     H19544   1.223   6.490   8.018  2.1446  3.4870  0.5802
  886MOL0     H19545   1.011   6.496   8.376  0.7113  0.2593 -1.2732
  886MOL0     H19546   0.883   6.531   8.264 -3.2362 -1.4961  1.4833
  886MOL0     H19547   0.975   6.250   8.329 -0.1371  0.2165  0.3163
  886MOL0     H19548   0.846   6.341   8.427  0.3500 -1.3692  0.5268
  886MOL0     H19549   0.841   6.254   8.140  2.6080  1.6991  1.1489
  886MOL0     H19550   0.740   6.177   8.274 -0.3285 -1.7113 -1.6544
  886MOL0     H19551   0.632   6.382   8.326 -0.2856 -1.3888 -0.1044
  886MOL0     H19552   0.708   6.462   8.182  0.7357  0.6608  2.2051
  886MOL0     H19553   0.619   6.303   8.028  0.0806 -2.2545  0.2696
  886MOL0     H19554   0.552   6.196   8.163 -1.1230  1.5558  1.5409
  886MOL0     H19555   0.422   6.339   8.231  2.2015  3.4438  1.1520
  886MOL0     H19556   0.454   6.467   8.119 -0.6728 -0.0161 -0.0163
  886MOL0     H19557   0.376   6.346   7.927  0.8691  2.0330 -0.0145
  886MOL0     H19558   0.334   6.201   8.036 -0.6742  0.6410  0.4780
  886MOL0     H19559   0.189   6.449   8.093 -0.4323 -0.0887  1.7821
  886MOL0     H19560   0.149   6.270   8.072  3.7201 -0.5128  1.3967
  886MOL0     H19561   0.197   6.226   7.774  0.3291  0.3769 -1.7685
  886MOL0     H19562   0.077   6.418   7.499  0.5806 -0.1103  0.7891
  886MOL0     H19563   0.095   6.237   7.531  1.4940  1.0962  0.4405
  886MOL0     H19564  -0.163   6.405   7.524 -0.5688  0.1637  3.5836
  886MOL0     H19565  -0.161   6.252   7.593 -1.0936  0.4188 -0.6097
  886MOL0     H19566  -0.085   6.142   7.389 -1.6730 -0.6186 -1.1783
  886MOL0     H19567  -0.090   6.302   7.307  1.9474 -1.3623 -1.2094
  886MOL0     H19568  -0.290   6.260   7.250 -0.5086 -2.3289 -0.5698
  886MOL0     H19569  -0.349   6.271   7.416 -0.7686 -0.7304  0.1437
  886MOL0     H19570  -0.511   5.955   7.209  1.2579  2.8335 -0.4008
  886MOL0     H19571  -0.854   5.847   7.272 -0.5465 -3.2786 -3.3307
  886MOL0     H19572  -0.732   5.914   7.166  1.1196  1.5899  0.5367
  886MOL0     H19573  -0.703   5.754   7.238 -1.8833 -0.5144  0.4766
  886MOL0     H19574  -0.986   5.628   7.353 -2.3690  1.7208 -0.1694
  886MOL0     H19575  -1.200   5.511   7.397 -1.4191 -3.1931  2.7887
  886MOL0     H19576  -1.428   5.643   7.597 -1.5057 -0.1924  2.3621
  886MOL0     H19577  -1.457   5.487   7.507  1.4694 -2.1609  1.6158
  886MOL0     H19578  -1.494   5.414   7.766  0.1821 -1.2797 -1.9017
  886MOL0     H19579  -1.571   5.583   7.735 -0.4978  0.5387 -0.3961
  886MOL0     H19580  -1.635   5.319   7.623 -1.8129 -0.0055  3.0768
  886MOL0     H19581  -1.682   5.475   7.540  1.0200 -0.4052 -0.1039
  886MOL0     H19582  -1.756   5.403   7.824 -1.9037 -0.7816 -0.3431
  886MOL0     H19583  -1.795   5.547   7.744  1.6187  0.8731  0.8658
  886MOL0     H19584  -1.925   5.411   7.559  1.2692  0.7829 -0.2050
  886MOL0     H19585  -1.985   5.405   7.729  0.8273  4.2329 -0.6394
  886MOL0     H19586  -1.832   5.182   7.575  0.4479 -0.7802  1.0719
  886MOL0     H19587  -1.865   5.190   7.752 -3.5824 -0.5097  0.5155
  886MOL0     H19588  -2.096   5.215   7.547  0.3479  2.0590  1.0236
  886MOL0     H19589  -2.104   5.183   7.715  0.8024 -0.2853 -0.3168
  886MOL0     H19590  -1.978   4.999   7.510 -0.6835  3.6498 -0.3926
  886MOL0     H19591  -2.133   4.977   7.595 -0.0190 -1.6180  1.0505
  886MOL0     H19592  -1.141   5.559   7.813 -1.0594 -2.0707 -0.5775
  886MOL0     H19593  -0.922   5.685   7.779 -2.2418  0.1002  1.8846
  886MOL0     H19594  -0.610   6.008   7.691 -2.9985 -3.6455  0.0747
  886MOL0     H19595  -0.393   6.073   7.595 -2.0764 -0.3782  2.9704
  886MOL0     H19596   1.152   6.346   8.424 -1.8610  2.0801  0.6170
  886MOL0     H19597   1.411   6.392   8.459 -3.4857 -1.4517  2.4821
  886MOL0     H19598   1.924   6.224   8.189  2.9871 -1.6940  2.2246
  886MOL0     H19599   2.144   6.270   8.257 -1.5590 -0.0752 -2.2163
  886MOL0     H19600   2.281   6.306   8.510 -1.4999  0.4006  0.1205
  886MOL0     H19601   2.348   6.344   8.353  1.7410 -0.5065  2.1186
  886MOL0     H19602   2.521   6.394   8.514  1.0473  0.3559 -1.7928
  886MOL0     H19603   2.394   6.496   8.596  1.1534 -2.1950  1.0746
  886MOL0     H19604   2.411   6.663   8.440  0.5587  0.2052  0.9780
  886MOL0     H19605   2.449   6.546   8.312 -1.8763  1.6406 -0.4232
  886MOL0     H19606   2.650   6.594   8.536  1.0544  1.2687  0.2209
  886MOL0     H19607   2.649   6.706   8.415  0.8472  0.2977  1.1217
  886MOL0     H19608   2.810   6.370   8.211 -0.4639  0.6781  0.7351
  886MOL0     H19609   1.978   6.602   8.506  2.4265 -0.7538  0.9757
  886MOL0     H19610   1.772   6.573   8.415  1.2074 -0.0432  4.1778
  887MOL0     O19611   6.245   9.421   5.832 -0.5222  0.3464  0.9784
  887MOL0     C19612   6.324   9.351   5.896  0.7664  0.3664 -0.1399
  887MOL0     O19613   6.291   9.270   5.997  1.1475  0.1045 -0.3197
  887MOL0     C19614   6.156   9.268   6.029  0.0030  0.5962 -0.0648
  887MOL0     C19615   6.093   9.145   6.042 -0.2849 -1.0570 -0.3847
  887MOL0     C19616   5.965   9.131   6.094 -0.2479  0.3379 -0.3934
  887MOL0     C19617   5.888   9.252   6.129 -0.5753 -0.5167  0.5457
  887MOL0     O19618   5.765   9.227   6.186  0.2639  0.0418  0.1130
  887MOL0     C19619   5.703   9.335   6.261 -0.5801 -0.2573  0.9147
  887MOL0     C19620   5.565   9.299   6.321 -1.0349  0.0739  0.8119
  887MOL0     C19621   5.516   9.416   6.395  0.5223 -0.1608  0.9023
  887MOL0     C19622   5.376   9.385   6.478 -0.7063  0.0616  0.3642
  887MOL0     C19623   5.272   9.331   6.382  0.2536  0.6529 -0.6846
  887MOL0     C19624   5.146   9.277   6.457 -0.1044 -0.8728  0.0020
  887MOL0     C19625   5.029   9.231   6.355 -0.0763  0.7258  0.1322
  887MOL0     C19626   4.995   9.330   6.251 -0.0257 -0.5592 -0.0185
  887MOL0     N19627   4.857   9.311   6.206 -0.4521  0.6452 -0.2500
  887MOL0     C19628   4.751   9.365   6.267  0.6179  0.3260 -0.2949
  887MOL0     C19629   4.642   9.333   6.190 -0.2867 -0.0065 -0.7188
  887MOL0     C19630   4.492   9.362   6.225  0.1844  0.1596  0.8373
  887MOL0     C19631   4.460   9.506   6.174 -0.5225 -0.0512 -0.3829
  887MOL0     C19632   4.318   9.545   6.222  0.7874  0.8208 -0.8362
  887MOL0     C19633   4.289   9.697   6.197 -0.8669 -0.3338  0.0100
  887MOL0     O19634   4.188   9.754   6.275  0.4476  0.0388 -0.3195
  887MOL0     C19635   4.066   9.701   6.257  0.3143  0.0137  1.1054
  887MOL0     C19636   3.969   9.772   6.196 -0.0106  0.1738  0.2537
  887MOL0     C19637   3.841   9.720   6.170 -0.4495  0.4404 -0.2213
  887MOL0     C19638   3.756   9.811   6.087 -0.6000 -0.3225 -0.0010
  887MOL0     C19639   3.797   9.599   6.224 -0.4137  0.4267  0.5493
  887MOL0     C19640   3.652   9.546   6.209 -1.0358 -0.0079  0.6894
  887MOL0     O19641   3.616   9.453   6.300 -0.6770  0.5754  0.0565
  887MOL0     C19642   3.480   9.436   6.318  0.4499  0.5814  0.2417
  887MOL0     C19643   3.414   9.340   6.244 -0.1383  0.4254  0.7161
  887MOL0     C19644   3.279   9.310   6.274  0.5059 -0.3632  0.1331
  887MOL0     C19645   3.199   9.376   6.367  1.4595 -0.3006  0.4481
  887MOL0     O19646   3.071   9.333   6.370 -0.3044  0.0095 -0.8820
  887MOL0     C19647   2.977   9.374   6.472  0.7695 -0.1873  0.7170
  887MOL0     C19648   2.889   9.474   6.403 -0.0751 -0.0380 -0.3832
  887MOL0     C19649   2.786   9.528   6.509 -0.6870  0.2115 -1.4118
  887MOL0     C19650   2.680   9.625   6.447 -0.7251  1.1619 -0.0655
  887MOL0     C19651   2.563   9.561   6.372 -0.1608  0.4043 -0.3321
  887MOL0     C19652   2.488   9.669   6.292 -0.1024  0.2360  0.7873
  887MOL0     C19653   2.561   9.731   6.172 -0.1098  0.3647  0.1463
  887MOL0     C19654   2.513   9.673   6.040 -0.5696 -0.3417  0.1058
  887MOL0    Cl19655   2.595   9.766   5.922 -0.1140 -0.1186 -0.0753
  887MOL0     C19656   3.261   9.487   6.433  0.5558  0.4133 -0.7905
  887MOL0     C19657   3.407   9.502   6.416 -0.4233 -0.4917 -0.4658
  887MOL0     O19658   3.574   9.582   6.119  0.3751  0.0752  0.3115
  887MOL0     C19659   3.891   9.538   6.308 -0.1543  0.3427 -0.0897
  887MOL0     C19660   4.023   9.588   6.322 -0.7931 -0.1842  0.4894
  887MOL0     N19661   4.685   9.260   6.079 -0.2326 -0.2392 -0.3550
  887MOL0     N19662   4.816   9.229   6.105 -0.2338  0.4719 -0.6935
  887MOL0     C19663   5.950   9.377   6.121  0.0026 -0.2365  0.5824
  887MOL0     C19664   6.083   9.380   6.072 -0.2845  0.1341 -0.5510
  887MOL0     C19665   6.465   9.367   5.858 -0.2809  0.0673  0.2663
  887MOL0     C19666   6.514   9.468   5.775  0.0670 -0.0294 -0.7059
  887MOL0     C19667   6.649   9.494   5.762  0.0222  0.3881 -0.7938
  887MOL0     C19668   6.737   9.403   5.815 -0.3305  1.2113  0.1045
  887MOL0     O19669   6.860   9.458   5.817 -0.2811  0.3992  0.9057
  887MOL0     C19670   6.977   9.374   5.831  0.0951 -0.0154 -0.2872
  887MOL0     C19671   7.019   9.354   5.977 -0.0217 -0.7717  0.0152
  887MOL0     C19672   7.082   9.485   6.036 -0.1796  0.2149 -0.6282
  887MOL0     C19673   7.108   9.475   6.187 -0.0322 -0.0638  0.1621
  887MOL0     C19674   7.167   9.600   6.233 -0.5068 -0.7663  0.1675
  887MOL0     C19675   7.210   9.706   6.262  0.5394 -0.9662 -0.7448
  887MOL0     C19676   6.693   9.284   5.880 -0.3214 -0.4622  0.4223
  887MOL0     C19677   6.560   9.274   5.907  1.6384 -0.1485  0.0452
  887MOL0     H19678   6.149   9.058   6.013 -2.1044 -1.7354 -2.0917
  887MOL0     H19679   5.938   9.027   6.112 -0.7320  0.6275  0.6301
  887MOL0     H19680   5.772   9.368   6.339  2.0336  2.3632 -2.2029
  887MOL0     H19681   5.676   9.415   6.192 -1.0921 -0.4102  0.9323
  887MOL0     H19682   5.513   9.255   6.236 -0.5091 -2.5355  1.7420
  887MOL0     H19683   5.589   9.221   6.393  2.1977 -1.4205 -1.6289
  887MOL0     H19684   5.592   9.449   6.467 -0.7374  3.5556  0.7488
  887MOL0     H19685   5.494   9.501   6.330  2.0817 -1.1381 -1.0121
  887MOL0     H19686   5.403   9.312   6.556  0.9970 -0.0678 -0.2932
  887MOL0     H19687   5.340   9.482   6.514  1.1450  1.1698 -0.5703
  887MOL0     H19688   5.238   9.412   6.317 -0.4228  1.2714  0.4204
  887MOL0     H19689   5.325   9.258   6.319  1.5323 -0.2116  1.2606
  887MOL0     H19690   5.161   9.189   6.521 -2.9600  0.9487  3.5552
  887MOL0     H19691   5.106   9.354   6.523  0.7558  0.1207 -0.6040
  887MOL0     H19692   5.071   9.147   6.299  0.3119 -0.2039  1.7583
  887MOL0     H19693   4.953   9.181   6.415  1.2875 -0.4764  0.9186
  887MOL0     H19694   5.072   9.334   6.173 -2.6876 -0.1207 -2.7828
  887MOL0     H19695   4.998   9.427   6.301  0.1183 -0.0126 -1.0818
  887MOL0     H19696   4.757   9.414   6.363  0.1807 -0.8707  0.3620
  887MOL0     H19697   4.433   9.287   6.172 -0.1424  0.8851  0.1454
  887MOL0     H19698   4.465   9.345   6.329  1.4769 -1.8638  0.9072
  887MOL0     H19699   4.460   9.492   6.065 -1.8224 -1.0118 -0.2951
  887MOL0     H19700   4.524   9.582   6.219 -1.1249 -0.5577  1.4037
  887MOL0     H19701   4.305   9.520   6.328 -1.4792  0.1069 -1.2355
  887MOL0     H19702   4.254   9.487   6.156  0.4596 -1.1636  1.1094
  887MOL0     H19703   4.258   9.696   6.092  2.1554  0.1204 -0.9860
  887MOL0     H19704   4.378   9.760   6.208 -0.0389 -1.3611 -0.6311
  887MOL0     H19705   3.992   9.876   6.176 -1.7662  0.7822  1.1967
  887MOL0     H19706   3.669   9.827   6.151  0.9077 -1.5326  2.5051
  887MOL0     H19707   3.812   9.901   6.060 -0.8319 -0.5520 -1.3556
  887MOL0     H19708   3.727   9.772   5.988  0.0819  2.4195 -1.3830
  887MOL0     H19709   3.464   9.281   6.168 -1.3071 -1.2675  1.2141
  887MOL0     H19710   3.226   9.232   6.220 -2.9463  0.6624  1.7381
  887MOL0     H19711   2.933   9.277   6.498  2.6737 -1.5804 -0.8651
  887MOL0     H19712   3.024   9.403   6.566  4.1156 -0.3121 -0.7639
  887MOL0     H19713   2.943   9.563   6.371 -0.9511  0.8538  0.5328
  887MOL0     H19714   2.844   9.432   6.313 -1.5920  2.5434 -0.9093
  887MOL0     H19715   2.839   9.579   6.590  0.9595 -1.2083 -1.5476
  887MOL0     H19716   2.737   9.440   6.551  1.7190 -0.5357  0.0235
  887MOL0     H19717   2.644   9.701   6.517 -1.2087  1.0497 -0.1823
  887MOL0     H19718   2.728   9.694   6.377  1.7410  0.1191  0.4993
  887MOL0     H19719   2.504   9.497   6.438  2.3156 -0.7473  0.9132
  887MOL0     H19720   2.591   9.480   6.304  0.5095 -1.6803  2.2567
  887MOL0     H19721   2.399   9.624   6.249  0.3056 -0.2499  0.4507
  887MOL0     H19722   2.452   9.743   6.364 -0.3871  0.2507  0.6283
  887MOL0     H19723   2.669   9.715   6.170  0.1401  1.8508 -2.5173
  887MOL0     H19724   2.538   9.838   6.172 -0.4131  0.3091  1.0452
  887MOL0     H19725   2.408   9.691   6.017 -1.0479 -1.8546  0.9125
  887MOL0     H19726   2.539   9.566   6.039 -1.0295 -0.4858 -2.8288
  887MOL0     H19727   3.215   9.549   6.510 -0.8279  0.5764 -1.7244
  887MOL0     H19728   3.460   9.579   6.471  0.4750  0.8481 -2.9972
  887MOL0     H19729   3.863   9.450   6.364 -1.8762  2.3005  2.3600
  887MOL0     H19730   4.096   9.529   6.375 -0.4968  1.4690  2.0230
  887MOL0     H19731   5.903   9.469   6.153 -2.9653 -1.6691  0.6159
  887MOL0     H19732   6.142   9.469   6.090  1.6038 -1.2510  0.6789
  887MOL0     H19733   6.437   9.533   5.734  1.0605  1.0593 -0.8837
  887MOL0     H19734   6.680   9.585   5.712  1.1368 -0.1662 -1.1368
  887MOL0     H19735   6.960   9.278   5.781 -0.3457 -0.6370  1.0030
  887MOL0     H19736   7.066   9.410   5.778  0.6365 -1.4658 -0.4025
  887MOL0     H19737   7.094   9.275   5.971  1.3039  0.5271 -2.3797
  887MOL0     H19738   6.938   9.329   6.046 -0.5631  1.2914  0.2106
  887MOL0     H19739   7.002   9.557   6.022 -3.0359 -3.0119 -2.1730
  887MOL0     H19740   7.174   9.505   5.981 -0.0121 -0.1014 -0.4684
  887MOL0     H19741   7.176   9.395   6.221  0.7809  0.9000  0.8745
  887MOL0     H19742   7.009   9.470   6.234  0.0974 -1.7177  0.3356
  887MOL0     H19743   7.272   9.792   6.281  0.5221 -0.5738 -2.2784
  887MOL0     H19744   6.767   9.214   5.919 -0.8212 -3.0875 -2.8652
  887MOL0     H19745   6.543   9.191   5.975  4.4071  0.0416  1.0881
  888MOL0     O19746   7.202   8.845   5.684  0.5866 -0.1823  0.2465
  888MOL0     C19747   7.181   8.968   5.667  0.1662 -0.3794 -0.5202
  888MOL0     O19748   7.087   9.021   5.590 -0.5317  0.8454  0.1790
  888MOL0     C19749   6.996   8.934   5.529 -0.2737 -0.2417 -0.8262
  888MOL0     C19750   6.924   8.835   5.592  0.5973  0.8457  0.2619
  888MOL0     C19751   6.840   8.749   5.528 -0.3566  0.5361  0.4479
  888MOL0     C19752   6.824   8.753   5.388  0.0841 -0.0344  0.6139
  888MOL0     O19753   6.731   8.677   5.315 -0.6924  0.4225 -0.2010
  888MOL0     C19754   6.702   8.544   5.366  0.4372  0.5924 -0.3238
  888MOL0     C19755   6.663   8.455   5.248 -0.5063 -0.4870  0.2441
  888MOL0     C19756   6.791   8.446   5.166  0.1327  0.2803  1.0136
  888MOL0     C19757   6.763   8.382   5.022 -0.1196 -0.6083  0.1503
  888MOL0     C19758   6.803   8.236   5.042  0.5203 -0.5492  0.2004
  888MOL0     C19759   6.780   8.149   4.922 -0.6692 -0.6056 -0.3624
  888MOL0     C19760   6.815   8.001   4.961 -0.0631  0.0337 -0.0639
  888MOL0     C19761   6.727   7.885   4.898  0.3717  0.4507 -0.4632
  888MOL0     N19762   6.614   7.855   4.983 -0.6880  1.0153 -0.2844
  888MOL0     C19763   6.511   7.941   5.030 -0.1991  0.8657  0.0361
  888MOL0     C19764   6.450   7.868   5.121 -0.0113 -0.8727 -0.3728
  888MOL0     C19765   6.342   7.921   5.221 -0.7358 -0.3358  0.0513
  888MOL0     C19766   6.202   7.933   5.156  0.4343 -0.2090  0.0246
  888MOL0     C19767   6.102   8.002   5.251  0.4441 -0.6396 -0.6489
  888MOL0     C19768   5.948   7.995   5.216 -0.5514  0.1056 -0.1868
  888MOL0     O19769   5.884   8.026   5.346 -0.2747 -0.5470 -0.4027
  888MOL0     C19770   5.745   8.018   5.346  0.6207 -0.1630  0.4729
  888MOL0     C19771   5.680   8.057   5.467 -0.9358  1.2597 -0.6449
  888MOL0     C19772   5.544   8.061   5.486  0.6897  0.6879 -0.2357
  888MOL0     C19773   5.502   8.109   5.620  0.2220  0.2788 -0.4180
  888MOL0     C19774   5.459   8.044   5.374  0.6161 -0.4720 -0.6258
  888MOL0     C19775   5.311   8.027   5.380  0.9262  0.6396 -0.1299
  888MOL0     O19776   5.251   8.040   5.504  0.3334 -0.4535  0.2924
  888MOL0     C19777   5.122   8.088   5.510  0.0377  0.7400 -0.4088
  888MOL0     C19778   5.004   8.016   5.470 -0.5228 -0.1249  0.0807
  888MOL0     C19779   4.878   8.068   5.506 -0.3025  0.0241 -0.2003
  888MOL0     C19780   4.867   8.177   5.590  0.0136 -0.6281 -0.1464
  888MOL0     O19781   4.751   8.242   5.631 -0.4654  0.0193 -1.0232
  888MOL0     C19782   4.627   8.178   5.610 -0.9782 -1.0950  0.6055
  888MOL0     C19783   4.523   8.262   5.677  0.2475  0.0059 -0.3393
  888MOL0     C19784   4.526   8.401   5.625 -0.3188  0.3829 -0.5462
  888MOL0     C19785   4.427   8.488   5.699  0.0115  0.4920  0.1509
  888MOL0     C19786   4.442   8.625   5.627 -0.0769  0.1261 -1.0243
  888MOL0     C19787   4.342   8.716   5.699  0.0677 -0.0424  0.1427
  888MOL0     C19788   4.347   8.861   5.640 -0.1690 -0.1320  0.6821
  888MOL0     C19789   4.233   8.945   5.693  0.4398  0.2935 -1.1405
  888MOL0    Cl19790   4.251   8.956   5.872  0.1442  0.3394 -0.1222
  888MOL0     C19791   4.983   8.242   5.636  0.0863  0.4038 -1.0886
  888MOL0     C19792   5.111   8.197   5.587  0.3989 -0.5443  0.5091
  888MOL0     O19793   5.251   7.993   5.278 -0.0204  0.6702 -0.0340
  888MOL0     C19794   5.518   8.013   5.250  0.3561 -0.1876 -0.7734
  888MOL0     C19795   5.659   8.002   5.237  0.9416  0.5369  0.4419
  888MOL0     N19796   6.528   7.754   5.142  0.2581  0.6563  0.1331
  888MOL0     N19797   6.620   7.738   5.055  0.6183 -0.3932 -0.4673
  888MOL0     C19798   6.886   8.862   5.323 -0.1490 -0.6192  0.3672
  888MOL0     C19799   6.973   8.951   5.396 -0.8013  0.4446  0.1809
  888MOL0     C19800   7.274   9.061   5.741 -0.1671  0.2583  0.6823
  888MOL0     C19801   7.295   9.189   5.687 -0.5132  0.2839 -0.4224
  888MOL0     C19802   7.374   9.281   5.760  0.4506 -0.9713 -0.5120
  888MOL0     C19803   7.434   9.248   5.882  0.0813  1.0495  0.4086
  888MOL0     O19804   7.509   9.339   5.949 -0.2528  0.2584  0.5979
  888MOL0     C19805   7.516   9.479   5.920 -0.2932 -0.7995  0.2216
  888MOL0     C19806   7.634   9.548   6.000 -0.4571 -0.2632  0.2442
  888MOL0     C19807   7.613   9.524   6.150 -0.1008  0.1115 -0.0871
  888MOL0     C19808   7.727   9.557   6.243  0.6931 -0.0216  0.0957
  888MOL0     C19809   7.859   9.522   6.199  0.4720 -0.2511 -0.5929
  888MOL0     C19810   7.968   9.483   6.174 -0.2014 -0.0569  0.4013
  888MOL0     C19811   7.403   9.129   5.940 -0.2575  0.1296  0.6962
  888MOL0     C19812   7.326   9.035   5.868  0.2991  0.0382  0.1685
  888MOL0     H19813   6.934   8.818   5.698  0.3389  0.5558  0.2396
  888MOL0     H19814   6.772   8.689   5.587 -2.9821  0.7558 -2.1344
  888MOL0     H19815   6.772   8.498   5.437  1.4097 -0.3205 -1.8212
  888MOL0     H19816   6.609   8.554   5.422  1.6683  1.7411  1.6514
  888MOL0     H19817   6.623   8.357   5.276 -0.6739 -0.8189 -1.0808
  888MOL0     H19818   6.594   8.506   5.180  1.2296 -1.3228 -2.2920
  888MOL0     H19819   6.821   8.550   5.150 -2.5211  1.1252  1.0238
  888MOL0     H19820   6.873   8.392   5.214  0.6181  1.0568  1.0879
  888MOL0     H19821   6.660   8.394   4.990  0.1487 -1.0598 -0.9368
  888MOL0     H19822   6.833   8.422   4.948 -0.7109  0.5290  0.1874
  888MOL0     H19823   6.910   8.231   5.064  0.0912 -0.6193  2.5473
  888MOL0     H19824   6.743   8.195   5.124 -1.2020 -0.1368 -0.8091
  888MOL0     H19825   6.672   8.157   4.906 -0.8338 -1.8323  0.0879
  888MOL0     H19826   6.842   8.181   4.838  1.2002 -0.9432  0.8340
  888MOL0     H19827   6.916   7.993   4.920  1.1400 -2.5323  2.9987
  888MOL0     H19828   6.815   7.993   5.070 -0.0666 -1.1461 -0.1373
  888MOL0     H19829   6.788   7.795   4.890 -0.9518 -0.9245  2.8979
  888MOL0     H19830   6.675   7.895   4.802 -2.4098 -0.3031  0.8722
  888MOL0     H19831   6.493   8.041   4.994 -1.7072  0.2230 -1.0803
  888MOL0     H19832   6.340   7.858   5.310 -0.8224  2.0177  1.8294
  888MOL0     H19833   6.368   8.021   5.257  0.2933 -0.6376  0.1749
  888MOL0     H19834   6.158   7.836   5.133 -0.8592  0.5098 -0.7122
  888MOL0     H19835   6.214   7.989   5.063 -0.4675 -1.3251 -0.7932
  888MOL0     H19836   6.141   8.103   5.260 -0.6567  0.0389 -2.7597
  888MOL0     H19837   6.112   7.946   5.344 -1.8778 -0.9028 -0.5026
  888MOL0     H19838   5.923   7.895   5.181 -1.7431  0.2049  0.3330
  888MOL0     H19839   5.923   8.054   5.127 -0.3014  0.6561  0.1015
  888MOL0     H19840   5.748   8.071   5.550 -0.4268  1.2005 -1.0426
  888MOL0     H19841   5.571   8.181   5.665  1.0143 -1.1627  0.7461
  888MOL0     H19842   5.409   8.166   5.610  1.1473  1.7152 -1.1931
  888MOL0     H19843   5.489   8.035   5.699 -1.3069 -0.5952 -1.4514
  888MOL0     H19844   5.012   7.918   5.425 -1.6355 -0.6588  0.9882
  888MOL0     H19845   4.783   8.025   5.475 -1.5219  3.4836 -1.8050
  888MOL0     H19846   4.604   8.166   5.504  2.2468 -0.5959 -0.2510
  888MOL0     H19847   4.626   8.078   5.654  0.1636 -0.8365  1.2726
  888MOL0     H19848   4.423   8.216   5.677  0.6558 -0.9111 -0.2231
  888MOL0     H19849   4.537   8.262   5.786  0.4243  0.8572 -0.3601
  888MOL0     H19850   4.513   8.408   5.517 -0.5650 -0.1783 -0.5542
  888MOL0     H19851   4.624   8.445   5.647 -0.1240 -0.1843 -0.2767
  888MOL0     H19852   4.324   8.452   5.690 -0.5205  1.9272  0.2863
  888MOL0     H19853   4.440   8.481   5.808 -2.0876 -1.9758  0.3470
  888MOL0     H19854   4.423   8.603   5.522 -1.9106 -0.7938 -0.5525
  888MOL0     H19855   4.534   8.678   5.652 -0.4049 -0.4979  1.9991
  888MOL0     H19856   4.248   8.668   5.669  0.6587 -3.0850  2.6225
  888MOL0     H19857   4.339   8.698   5.806  2.4806 -2.3817 -0.0813
  888MOL0     H19858   4.346   8.866   5.531 -0.0526 -0.1834  0.6789
  888MOL0     H19859   4.441   8.901   5.677  0.8648  0.3589 -2.2434
  888MOL0     H19860   4.129   8.912   5.679 -0.0317  1.3010 -0.2248
  888MOL0     H19861   4.227   9.043   5.644 -3.5289 -0.8439 -3.3976
  888MOL0     H19862   4.976   8.324   5.707 -2.7122  0.2236 -1.0437
  888MOL0     H19863   5.202   8.243   5.623  0.2435 -0.7844  1.2283
  888MOL0     H19864   5.447   7.993   5.170  0.0538 -1.3986 -0.2284
  888MOL0     H19865   5.686   7.975   5.135 -0.5185 -2.0362  0.6511
  888MOL0     H19866   6.871   8.883   5.218 -0.5571 -0.2411  0.4986
  888MOL0     H19867   7.004   9.041   5.343  1.4309 -0.5143 -0.2756
  888MOL0     H19868   7.240   9.212   5.597 -2.9904 -1.3805  0.5580
  888MOL0     H19869   7.387   9.381   5.720  1.9801 -0.8254  0.2599
  888MOL0     H19870   7.532   9.494   5.813 -3.0769  0.2305 -0.1600
  888MOL0     H19871   7.432   9.541   5.954 -1.3272 -1.6810 -0.6370
  888MOL0     H19872   7.630   9.656   5.978  2.0713 -0.5465 -2.1605
  888MOL0     H19873   7.729   9.508   5.963 -0.1994  0.9648 -0.4958
  888MOL0     H19874   7.599   9.420   6.180  0.1448  0.4539  1.2916
  888MOL0     H19875   7.519   9.573   6.178 -1.1357  0.0282 -3.0078
  888MOL0     H19876   7.686   9.530   6.341 -0.2492  1.4172  0.1266
  888MOL0     H19877   7.726   9.666   6.243 -1.4738  0.0142  0.1180
  888MOL0     H19878   8.065   9.453   6.140  0.4328  1.2215  1.0174
  888MOL0     H19879   7.451   9.095   6.031  1.1676  3.1339  1.1794
  888MOL0     H19880   7.302   8.944   5.922 -1.8450 -0.2155 -1.0719
  889MOL0     O19881   1.347   6.472   9.929  0.0819  0.1930  0.0478
  889MOL0     C19882   1.441   6.548   9.947 -1.1672 -0.0398  0.4448
  889MOL0     O19883   1.430   6.685   9.967  0.9584 -0.3747 -0.5030
  889MOL0     C19884   1.306   6.738   9.981 -0.0424  0.3277  0.4224
  889MOL0     C19885   1.226   6.740   9.865 -0.7193 -0.1847 -0.3184
  889MOL0     C19886   1.105   6.810   9.870 -0.1968 -1.0928  1.0467
  889MOL0     C19887   1.053   6.866   9.986  0.6350  0.1296 -0.0722
  889MOL0     O19888   0.937   6.935   9.978  0.3236  0.2479  0.1569
  889MOL0     C19889   0.844   6.943  10.087 -0.1650 -0.1242  0.1717
  889MOL0     C19890   0.752   7.063  10.090  0.4391  0.0895 -0.5587
  889MOL0     C19891   0.637   7.057  10.196  0.0695 -0.0879 -0.1510
  889MOL0     C19892   0.503   7.004  10.141 -0.2534 -0.1020  0.1799
  889MOL0     C19893   0.414   7.120  10.080 -0.8151 -0.3300 -0.2100
  889MOL0     C19894   0.346   7.208  10.182  0.0004  0.6773 -0.2511
  889MOL0     C19895   0.256   7.138  10.283 -0.0603 -0.5703 -0.4104
  889MOL0     C19896   0.130   7.220  10.297  0.9835 -0.7768 -0.4024
  889MOL0     N19897   0.050   7.213  10.424  0.2421  0.0373  0.6522
  889MOL0     C19898  -0.040   7.310  10.475 -0.2085 -0.7990  0.0805
  889MOL0     C19899  -0.105   7.254  10.574 -0.1378 -0.4159 -1.3372
  889MOL0     C19900  -0.208   7.312  10.663 -0.6451 -0.2431 -0.4551
  889MOL0     C19901  -0.146   7.427  10.749 -0.3700  0.3539  0.2035
  889MOL0     C19902  -0.020   7.376  10.826  0.2570  0.3939  0.3515
  889MOL0     C19903   0.007   7.474  10.947  0.0683  0.0004 -0.0017
  889MOL0     O19904  -0.014   7.608  10.900 -0.3728  0.5989  1.0454
  889MOL0     C19905   0.088   7.693  10.865  0.1661 -0.2798  0.4376
  889MOL0     C19906   0.062   7.825  10.829  0.4718 -0.1061  0.6894
  889MOL0     C19907   0.155   7.920  10.790  0.1899 -0.2778  0.0502
  889MOL0     C19908   0.110   8.059  10.766 -0.2108 -0.4485  0.2560
  889MOL0     C19909   0.296   7.873  10.781  0.0463 -0.4493  0.1906
  889MOL0     C19910   0.408   7.961  10.736 -0.1679  0.1227 -0.4535
  889MOL0     O19911   0.531   7.905  10.750 -0.5783  0.2973 -0.1450
  889MOL0     C19912   0.640   7.965  10.695 -1.0327 -0.4411  0.1025
  889MOL0     C19913   0.678   7.940  10.562  0.1323  0.1523 -0.3159
  889MOL0     C19914   0.776   8.027  10.505 -0.5382 -0.1785  0.1877
  889MOL0     C19915   0.845   8.119  10.582  0.0074 -0.5151  0.1656
  889MOL0     O19916   0.933   8.207  10.523  0.1351  0.2604  0.5122
  889MOL0     C19917   1.062   8.225  10.592  0.0434  1.4813  0.0267
  889MOL0     C19918   1.149   8.326  10.508  0.7405  0.1131 -0.4962
  889MOL0     C19919   1.224   8.282  10.388  0.6983 -0.4377 -0.2715
  889MOL0     C19920   1.350   8.356  10.367 -0.0923 -0.0311  0.3957
  889MOL0     C19921   1.412   8.321  10.228 -0.0814 -0.0290  0.1296
  889MOL0     C19922   1.534   8.406  10.182 -0.2413 -0.4383 -0.4320
  889MOL0     C19923   1.663   8.337  10.228 -0.5453  0.1344 -0.2078
  889MOL0     C19924   1.792   8.404  10.175  0.0909 -0.5772  0.1618
  889MOL0    Cl19925   1.929   8.311  10.217  0.3508  0.3230  0.1450
  889MOL0     C19926   0.817   8.129  10.716  0.4338 -0.8112 -0.4608
  889MOL0     C19927   0.713   8.058  10.775  0.2017 -0.4426 -0.5217
  889MOL0     O19928   0.387   8.063  10.665  0.2392  0.4412  0.4389
  889MOL0     C19929   0.324   7.737  10.801  0.3624 -0.0876 -0.4697
  889MOL0     C19930   0.220   7.651  10.843 -0.7303  0.7693  0.9254
  889MOL0     N19931  -0.058   7.117  10.582 -0.0623 -0.1200  0.5099
  889MOL0     N19932   0.027   7.093  10.491 -0.1582 -0.4073  0.6030
  889MOL0     C19933   1.133   6.851  10.102 -0.4097 -0.6331 -0.3372
  889MOL0     C19934   1.271   6.795  10.101 -0.3755 -0.7630 -0.8300
  889MOL0     C19935   1.574   6.491   9.949 -0.5095  0.4820 -0.3985
  889MOL0     C19936   1.587   6.352   9.965  1.0385  0.0970  0.1029
  889MOL0     C19937   1.709   6.305  10.011  0.7543 -0.0205  0.8815
  889MOL0     C19938   1.824   6.390  10.008  0.2328 -0.0771 -0.5036
  889MOL0     O19939   1.943   6.339  10.058 -0.1932  0.5157  0.5601
  889MOL0     C19940   2.056   6.424  10.079  0.6285 -0.3168 -0.0664
  889MOL0     C19941   2.041   6.543  10.174  0.8632  0.2627  0.2045
  889MOL0     C19942   2.025   6.508  10.314 -0.4864  0.2721  0.4572
  889MOL0     C19943   1.903   6.434  10.371 -0.8194 -0.4337  0.2395
  889MOL0     C19944   1.777   6.501  10.341 -0.3231  0.2725 -1.7116
  889MOL0     C19945   1.675   6.554  10.312  0.5193 -0.4428  0.1839
  889MOL0     C19946   1.810   6.523   9.952 -0.4317  0.2003 -0.1633
  889MOL0     C19947   1.689   6.569   9.914  0.4232 -0.0813 -0.3795
  889MOL0     H19948   1.261   6.722   9.764 -0.8765 -0.4874 -0.3199
  889MOL0     H19949   1.056   6.822   9.774  1.8733  1.8236  0.2168
  889MOL0     H19950   0.771   6.862  10.094  0.7377 -1.1006 -1.3158
  889MOL0     H19951   0.898   6.951  10.182  1.5545 -1.5686 -0.6356
  889MOL0     H19952   0.817   7.150  10.106  1.8263 -0.6181 -2.1219
  889MOL0     H19953   0.698   7.065   9.995  0.3797  0.0467 -0.5256
  889MOL0     H19954   0.662   6.993  10.280  1.8181 -0.9416 -1.2522
  889MOL0     H19955   0.623   7.162  10.226 -1.3516 -0.0601 -0.8322
  889MOL0     H19956   0.523   6.931  10.062 -2.5691  0.5650 -1.1241
  889MOL0     H19957   0.437   6.953  10.211 -0.8388  1.8997  1.1788
  889MOL0     H19958   0.478   7.186  10.020 -1.2851  1.6045  1.2873
  889MOL0     H19959   0.337   7.075  10.017 -0.3634 -1.5687  0.0888
  889MOL0     H19960   0.417   7.264  10.244 -3.1851  1.3418  3.2325
  889MOL0     H19961   0.284   7.278  10.125 -0.8862 -1.0484 -1.4700
  889MOL0     H19962   0.241   7.033  10.256  1.9575 -1.5988  2.0443
  889MOL0     H19963   0.314   7.126  10.375 -2.9111  1.7114  1.8923
  889MOL0     H19964   0.069   7.196  10.210  0.5900  1.5299 -0.8256
  889MOL0     H19965   0.143   7.328  10.290 -0.2123 -0.5391  0.6718
  889MOL0     H19966  -0.067   7.407  10.436 -1.9927 -1.2703  0.0834
  889MOL0     H19967  -0.304   7.341  10.619 -0.6788  4.7463  2.2112
  889MOL0     H19968  -0.224   7.232  10.736 -0.2782  2.6117  2.9875
  889MOL0     H19969  -0.217   7.472  10.820  1.3596 -1.4118  3.2788
  889MOL0     H19970  -0.114   7.509  10.684 -3.5427  0.6167 -1.2594
  889MOL0     H19971   0.068   7.383  10.761 -1.4407 -0.1978 -2.1411
  889MOL0     H19972  -0.024   7.272  10.860 -1.2814 -0.0700 -1.0961
  889MOL0     H19973   0.101   7.457  10.999  0.2330  0.8026 -0.0298
  889MOL0     H19974  -0.060   7.461  11.033  0.2175  0.3948  0.1781
  889MOL0     H19975  -0.044   7.848  10.839  0.2037  0.6419 -2.7442
  889MOL0     H19976   0.135   8.088  10.663  0.4188  0.6123  0.6900
  889MOL0     H19977   0.003   8.070  10.784 -0.2305 -0.8330  0.3783
  889MOL0     H19978   0.155   8.131  10.835  0.2070 -1.9171  1.5695
  889MOL0     H19979   0.633   7.867  10.495  0.9761  0.1710 -0.9120
  889MOL0     H19980   0.805   8.005  10.403  0.9592 -0.6295  0.6806
  889MOL0     H19981   1.048   8.264  10.694 -2.0161 -1.2072  0.8954
  889MOL0     H19982   1.117   8.131  10.603 -0.1491  1.4763  1.1393
  889MOL0     H19983   1.068   8.396  10.483 -0.2733 -1.1416 -0.8577
  889MOL0     H19984   1.209   8.384  10.579  0.5528  0.5917 -0.7250
  889MOL0     H19985   1.171   8.298  10.294 -0.7478 -1.0948  0.3984
  889MOL0     H19986   1.254   8.177  10.390 -2.5151 -1.4986 -1.6573
  889MOL0     H19987   1.339   8.464  10.378 -0.1722 -0.0533  0.5369
  889MOL0     H19988   1.417   8.326  10.449 -1.3870  2.3239  2.4374
  889MOL0     H19989   1.334   8.340  10.154 -0.7336 -0.6551  0.6401
  889MOL0     H19990   1.432   8.213  10.222  0.5969  0.1951 -2.9619
  889MOL0     H19991   1.526   8.420  10.074 -1.0564 -0.7506 -0.4191
  889MOL0     H19992   1.527   8.504  10.229  0.1346 -0.6411  0.0493
  889MOL0     H19993   1.671   8.234  10.191  2.2706 -0.0869  0.7568
  889MOL0     H19994   1.669   8.346  10.337  1.1755  1.2597 -0.3421
  889MOL0     H19995   1.803   8.501  10.223  0.9832 -0.2240 -0.7080
  889MOL0     H19996   1.786   8.423  10.067 -0.8073  0.6426  0.4139
  889MOL0     H19997   0.862   8.206  10.778 -1.7064 -0.4158  0.6855
  889MOL0     H19998   0.682   8.085  10.875  1.7800  2.3896 -0.6740
  889MOL0     H19999   0.423   7.696  10.783  0.5624 -0.8027  1.8581
  889MOL0     H20000   0.242   7.546  10.861 -0.4798  0.3667 -1.3891
  889MOL0     H20001   1.102   6.900  10.194  3.9078  1.5296  0.1792
  889MOL0     H20002   1.342   6.795  10.183 -0.2461  0.0121 -0.9414
  889MOL0     H20003   1.507   6.280   9.980  1.4022  0.1267  2.7175
  889MOL0     H20004   1.733   6.202  10.032 -1.2670 -0.7280 -0.0400
  889MOL0     H20005   2.141   6.361  10.107  0.9445  0.3800  0.5885
  889MOL0     H20006   2.081   6.462   9.980  1.4871  0.2274  0.3497
  889MOL0     H20007   1.963   6.616  10.151 -0.2828 -0.0237  2.8830
  889MOL0     H20008   2.138   6.592  10.159  0.4259  0.6509 -1.6513
  889MOL0     H20009   2.015   6.599  10.374 -1.2329  1.0568 -0.8173
  889MOL0     H20010   2.118   6.458  10.342  0.5612  1.1044 -1.3977
  889MOL0     H20011   1.909   6.435  10.480 -0.5183  0.4848  0.2270
  889MOL0     H20012   1.890   6.334  10.329 -0.3076  0.3360 -1.8847
  889MOL0     H20013   1.591   6.620  10.300  3.6101  3.7063 -1.0710
  889MOL0     H20014   1.896   6.587   9.933  1.8852 -2.5398  0.4136
  889MOL0     H20015   1.683   6.665   9.864  1.1475  1.5356  2.4039
  890MOL0     O20016   2.426   0.231   6.947  0.7779 -0.5906 -0.0740
  890MOL0     C20017   2.469   0.327   6.882 -0.3463 -0.0188  0.1051
  890MOL0     O20018   2.388   0.429   6.831  0.0532 -0.4367  0.5356
  890MOL0     C20019   2.254   0.415   6.849  1.1079  0.2563  0.1103
  890MOL0     C20020   2.182   0.432   6.969  0.2521  0.5479  0.3302
  890MOL0     C20021   2.045   0.414   6.974 -0.5906 -0.2631 -1.1043
  890MOL0     C20022   1.974   0.383   6.862  0.1510 -0.2635 -0.0419
  890MOL0     O20023   1.842   0.361   6.882 -0.4572  0.1165  0.4283
  890MOL0     C20024   1.755   0.416   6.787 -0.5665  0.1902 -0.4194
  890MOL0     C20025   1.611   0.442   6.834  0.3576  0.2050 -0.0467
  890MOL0     C20026   1.612   0.545   6.949 -0.3770 -0.1864  0.3269
  890MOL0     C20027   1.484   0.643   6.941 -0.3513 -0.2666  0.1797
  890MOL0     C20028   1.352   0.559   6.935 -0.8611  0.5027  0.2162
  890MOL0     C20029   1.229   0.644   6.903 -0.1658  0.4433  0.2222
  890MOL0     C20030   1.115   0.552   6.869 -0.2621  0.4995 -0.1945
  890MOL0     C20031   0.978   0.618   6.867 -0.1835  0.5840  0.2754
  890MOL0     N20032   0.875   0.532   6.920 -0.2239  0.1347 -0.2121
  890MOL0     C20033   0.806   0.544   7.043  0.0373 -0.8159  1.3772
  890MOL0     C20034   0.739   0.427   7.062  0.5232  0.3945 -0.5900
  890MOL0     C20035   0.645   0.391   7.177 -0.5558  0.7174  0.7386
  890MOL0     C20036   0.504   0.399   7.136 -0.4043  0.2015 -0.0533
  890MOL0     C20037   0.405   0.388   7.255 -1.0157 -0.2166 -0.4043
  890MOL0     C20038   0.269   0.428   7.208  0.2365 -0.3585 -0.2021
  890MOL0     O20039   0.181   0.327   7.158 -0.3624 -0.2724 -0.0402
  890MOL0     C20040   0.058   0.375   7.143  0.1872  0.1366  0.1105
  890MOL0     C20041   0.038   0.448   7.023 -0.8777  0.2598  0.0322
  890MOL0     C20042  -0.089   0.488   6.983  0.1363  0.5038 -0.2313
  890MOL0     C20043  -0.104   0.552   6.847  0.0937  1.0564  0.3542
  890MOL0     C20044  -0.197   0.461   7.070 -0.3758 -0.2057 -0.2280
  890MOL0     C20045  -0.336   0.490   7.021  0.0865 -0.4211  0.1355
  890MOL0     O20046  -0.426   0.386   7.032 -0.0174 -0.0492 -0.6088
  890MOL0     C20047  -0.557   0.428   7.018  0.3306  0.4731  0.0555
  890MOL0     C20048  -0.651   0.429   7.122  0.9502 -0.6109 -0.2621
  890MOL0     C20049  -0.782   0.476   7.095  0.1209 -0.2531 -0.7375
  890MOL0     C20050  -0.826   0.502   6.970 -0.0577  0.5979  0.3522
  890MOL0     O20051  -0.960   0.525   6.957 -0.2968 -0.4746 -0.0862
  890MOL0     C20052  -1.000   0.560   6.827  0.0027 -0.0994 -0.3998
  890MOL0     C20053  -1.143   0.614   6.836 -0.6105 -0.3088 -0.2482
  890MOL0     C20054  -1.213   0.624   6.701 -0.7283 -0.3817  0.3357
  890MOL0     C20055  -1.366   0.634   6.704 -0.0825  0.1244 -0.0496
  890MOL0     C20056  -1.421   0.672   6.566  0.0137  0.0952  0.2976
  890MOL0     C20057  -1.570   0.705   6.565  0.0337  1.1130 -0.1256
  890MOL0     C20058  -1.661   0.585   6.536 -0.2557  0.7977 -0.0028
  890MOL0     C20059  -1.807   0.617   6.525  0.0713  0.3122  0.1583
  890MOL0    Cl20060  -1.864   0.599   6.696  0.3115 -0.1038  0.3808
  890MOL0     C20061  -0.733   0.493   6.862 -0.3045 -0.4625  0.7477
  890MOL0     C20062  -0.600   0.449   6.884 -0.1958 -0.3278  0.0484
  890MOL0     O20063  -0.361   0.598   6.964 -0.9484  0.3282 -0.1484
  890MOL0     C20064  -0.165   0.406   7.198  1.4283  0.0874 -0.5136
  890MOL0     C20065  -0.035   0.361   7.238  0.1982 -0.6471 -1.4755
  890MOL0     N20066   0.746   0.353   6.944 -0.6764 -0.1130  0.2257
  890MOL0     N20067   0.822   0.416   6.854 -0.2594 -0.4488 -0.2205
  890MOL0     C20068   2.040   0.384   6.740 -0.4896  0.0522 -0.5409
  890MOL0     C20069   2.174   0.387   6.731 -0.4278  0.1217 -0.0916
  890MOL0     C20070   2.612   0.339   6.865 -0.6779 -0.0210 -0.6238
  890MOL0     C20071   2.674   0.464   6.837 -0.0949  0.4881  0.6060
  890MOL0     C20072   2.808   0.470   6.813 -0.0003  0.1992  0.2677
  890MOL0     C20073   2.891   0.358   6.835  0.3852  0.2198  0.4267
  890MOL0     O20074   3.030   0.384   6.821  0.4515 -0.4471  0.1495
  890MOL0     C20075   3.113   0.271   6.786  0.5552 -0.3248  0.3140
  890MOL0     C20076   3.182   0.223   6.910 -0.6347 -0.3114 -1.0324
  890MOL0     C20077   3.240   0.089   6.891 -0.1048  0.4168  0.4195
  890MOL0     C20078   3.360   0.074   6.788 -0.1958 -0.2850  0.5371
  890MOL0     C20079   3.306   0.074   6.651 -0.2040 -0.6038 -0.3166
  890MOL0     C20080   3.245   0.055   6.555  0.7330 -0.1176  0.6499
  890MOL0     C20081   2.837   0.226   6.865 -0.2279 -0.9542 -0.0613
  890MOL0     C20082   2.694   0.224   6.881  0.5939 -0.1966  0.2545
  890MOL0     H20083   2.238   0.468   7.055 -2.9246  0.6090  2.5533
  890MOL0     H20084   1.986   0.414   7.066 -0.7241 -3.2024 -1.0859
  890MOL0     H20085   1.797   0.507   6.744 -1.2518 -0.3261 -2.2672
  890MOL0     H20086   1.740   0.344   6.706 -2.7232  0.1080 -0.0099
  890MOL0     H20087   1.549   0.474   6.750  2.0219  1.5758 -0.8078
  890MOL0     H20088   1.560   0.348   6.861  0.0715 -0.6340 -3.1690
  890MOL0     H20089   1.604   0.497   7.047 -2.8635  2.3823  1.5166
  890MOL0     H20090   1.702   0.606   6.939  0.7260 -1.4071  2.1886
  890MOL0     H20091   1.484   0.715   7.023 -0.6535 -1.1886  1.0095
  890MOL0     H20092   1.483   0.710   6.855 -2.7464  0.6072  0.7937
  890MOL0     H20093   1.360   0.467   6.877  2.1277 -1.3976  3.2532
  890MOL0     H20094   1.344   0.525   7.039  1.0802  2.5589  1.1200
  890MOL0     H20095   1.207   0.701   6.994 -1.6815 -1.6494  1.2332
  890MOL0     H20096   1.240   0.712   6.818 -2.6157 -0.6913 -1.1161
  890MOL0     H20097   1.122   0.512   6.768 -0.0193  0.7764 -0.2855
  890MOL0     H20098   1.123   0.471   6.942  3.4605 -0.8156 -1.8228
  890MOL0     H20099   0.965   0.658   6.766 -0.6002 -0.7542 -0.2207
  890MOL0     H20100   0.990   0.698   6.941  0.4306  0.5390  0.2298
  890MOL0     H20101   0.814   0.621   7.118  0.3003  1.7601 -1.1122
  890MOL0     H20102   0.674   0.293   7.216  1.5051  0.9803 -0.0589
  890MOL0     H20103   0.665   0.462   7.259 -3.2722  0.6799  1.5387
  890MOL0     H20104   0.478   0.309   7.078 -0.8465  0.1806  0.1740
  890MOL0     H20105   0.486   0.496   7.089 -2.3078  0.2924  0.7785
  890MOL0     H20106   0.436   0.452   7.338  3.5898 -1.2281 -1.0450
  890MOL0     H20107   0.416   0.283   7.285  2.0354 -0.1064 -0.7993
  890MOL0     H20108   0.281   0.501   7.128  1.7328 -1.3486 -0.9382
  890MOL0     H20109   0.223   0.477   7.295 -0.2905 -0.1192 -0.6165
  890MOL0     H20110   0.132   0.461   6.971  0.8918 -2.4056  2.3155
  890MOL0     H20111  -0.181   0.492   6.798  0.5781  1.4896 -0.9873
  890MOL0     H20112  -0.136   0.656   6.840 -1.9137  0.5880  1.6203
  890MOL0     H20113  -0.012   0.545   6.788 -0.0147  0.3702  0.2587
  890MOL0     H20114  -0.607   0.390   7.214  0.6777 -3.3216 -1.1822
  890MOL0     H20115  -0.847   0.481   7.182  0.1219 -1.6847 -0.6172
  890MOL0     H20116  -0.942   0.641   6.780 -0.6872 -0.4160 -1.8657
  890MOL0     H20117  -0.983   0.484   6.750 -3.3791  0.9191 -2.3406
  890MOL0     H20118  -1.210   0.567   6.909 -0.4836  1.4414  1.0718
  890MOL0     H20119  -1.123   0.713   6.877  2.0848 -0.7401 -0.3300
  890MOL0     H20120  -1.187   0.542   6.633  1.4914  1.4645 -1.1881
  890MOL0     H20121  -1.175   0.721   6.668 -0.7333 -1.0682 -1.8254
  890MOL0     H20122  -1.405   0.535   6.728  0.5142 -0.1537 -0.2252
  890MOL0     H20123  -1.391   0.708   6.781  2.2179 -0.8417  1.7583
  890MOL0     H20124  -1.392   0.602   6.486 -0.4574  0.5540 -0.2800
  890MOL0     H20125  -1.387   0.773   6.545 -0.1263  0.1955  0.5599
  890MOL0     H20126  -1.582   0.743   6.667 -2.9525 -0.1129  0.0682
  890MOL0     H20127  -1.587   0.772   6.479  0.5763  0.1032 -1.0440
  890MOL0     H20128  -1.651   0.504   6.609 -2.3612  1.5543  1.2251
  890MOL0     H20129  -1.619   0.542   6.444  0.5558  5.0984 -1.9194
  890MOL0     H20130  -1.854   0.538   6.466  0.5962  0.0943  0.0288
  890MOL0     H20131  -1.830   0.713   6.478  1.7550  1.1144  0.8910
  890MOL0     H20132  -0.771   0.500   6.761 -0.8432 -2.8734  0.7036
  890MOL0     H20133  -0.527   0.442   6.805 -1.8993 -0.7038 -1.5633
  890MOL0     H20134  -0.255   0.401   7.258  1.3112  4.0888 -0.0602
  890MOL0     H20135  -0.026   0.313   7.335 -2.3090  0.6628 -0.5118
  890MOL0     H20136   1.994   0.362   6.644  0.5480 -3.3163 -0.3909
  890MOL0     H20137   2.220   0.363   6.635 -1.8994 -1.3845 -0.4671
  890MOL0     H20138   2.614   0.555   6.837 -0.2282  0.4028  0.4307
  890MOL0     H20139   2.869   0.558   6.794  1.1444 -0.6288 -0.0237
  890MOL0     H20140   3.054   0.185   6.753  0.9593 -0.9837  1.2554
  890MOL0     H20141   3.177   0.304   6.704  0.3669  1.5895  0.8783
  890MOL0     H20142   3.114   0.224   6.995  2.0383  2.4343  1.3322
  890MOL0     H20143   3.261   0.294   6.938  0.7043 -1.8269 -0.8074
  890MOL0     H20144   3.159   0.022   6.862  0.5366 -0.4083  0.4964
  890MOL0     H20145   3.268   0.049   6.989  1.6393 -1.8474 -0.9123
  890MOL0     H20146   3.404  -0.026   6.795 -0.6347 -0.7398 -2.2124
  890MOL0     H20147   3.449   0.135   6.808  0.4232 -0.9555 -0.0954
  890MOL0     H20148   3.189   0.029   6.467  1.4809 -1.1236  0.4479
  890MOL0     H20149   2.906   0.148   6.894  1.8104  2.1031  4.3570
  890MOL0     H20150   2.654   0.128   6.913 -0.6064  0.2108  0.0003
  891MOL0     O20151   9.021   2.285   5.917 -0.3965 -0.3663  1.0543
  891MOL0     C20152   9.083   2.384   5.890 -0.4968 -0.4463 -0.4566
  891MOL0     O20153   9.052   2.516   5.945 -0.7000 -0.0434  0.1392
  891MOL0     C20154   8.932   2.525   6.015 -0.0269 -0.4935 -0.8914
  891MOL0     C20155   8.805   2.510   5.951  0.1467  1.0932  0.9549
  891MOL0     C20156   8.678   2.501   6.014 -0.8145  0.7488  0.2401
  891MOL0     C20157   8.671   2.524   6.151  0.1486 -0.2158 -0.3948
  891MOL0     O20158   8.552   2.514   6.219 -0.4744 -0.0063  0.6545
  891MOL0     C20159   8.498   2.615   6.302 -0.5044  0.3067  0.2750
  891MOL0     C20160   8.389   2.701   6.232  0.1135  0.0257 -0.3278
  891MOL0     C20161   8.270   2.625   6.163  0.2731  0.2772  0.3682
  891MOL0     C20162   8.162   2.597   6.268 -0.8689  0.1272  0.2255
  891MOL0     C20163   8.056   2.507   6.214  1.4418 -0.0289 -0.3800
  891MOL0     C20164   7.977   2.573   6.098 -0.2810  0.2362 -0.7773
  891MOL0     C20165   7.850   2.639   6.151 -0.1115 -0.1710 -0.5845
  891MOL0     C20166   7.747   2.686   6.045 -0.3398 -0.6778 -0.1216
  891MOL0     N20167   7.620   2.699   6.107  0.2822  0.3277 -0.0015
  891MOL0     C20168   7.585   2.784   6.213  0.0067 -0.8125 -0.6185
  891MOL0     C20169   7.448   2.780   6.221 -0.5035 -0.9450 -0.1615
  891MOL0     C20170   7.365   2.868   6.311 -0.2588  0.3342  0.0720
  891MOL0     C20171   7.216   2.842   6.315 -0.1292 -0.3891 -0.8981
  891MOL0     C20172   7.136   2.948   6.401 -1.1324  0.0707 -0.6199
  891MOL0     C20173   6.983   2.944   6.376 -0.8063  0.1273  0.2596
  891MOL0     O20174   6.924   2.828   6.431  0.2413 -0.6671 -0.4220
  891MOL0     C20175   6.789   2.814   6.431 -0.1177 -0.4346  0.8868
  891MOL0     C20176   6.734   2.690   6.473 -0.3557  1.0307  0.2116
  891MOL0     C20177   6.593   2.654   6.446  0.0653  0.1772 -0.8577
  891MOL0     C20178   6.558   2.516   6.470 -0.0883  0.6238  0.1458
  891MOL0     C20179   6.500   2.754   6.401  0.5109  0.1516  0.2208
  891MOL0     C20180   6.357   2.733   6.362  0.5640  0.0979 -0.6537
  891MOL0     O20181   6.277   2.848   6.356  0.5005 -0.4011 -0.2915
  891MOL0     C20182   6.159   2.830   6.291  0.5048  0.0029  0.4109
  891MOL0     C20183   6.157   2.794   6.152 -0.6528 -0.8954 -0.0655
  891MOL0     C20184   6.041   2.770   6.087 -0.1639 -0.3551  0.3651
  891MOL0     C20185   5.922   2.776   6.153 -0.4511  0.7315 -0.5665
  891MOL0     O20186   5.812   2.754   6.077  0.4835  0.7261 -0.5218
  891MOL0     C20187   5.683   2.764   6.136 -0.0751 -0.0477  0.1266
  891MOL0     C20188   5.578   2.713   6.039  0.8092  0.3039 -0.7230
  891MOL0     C20189   5.598   2.557   6.030  0.6586 -0.4131  0.4689
  891MOL0     C20190   5.515   2.504   5.907 -0.7053  0.7284  0.0722
  891MOL0     C20191   5.504   2.345   5.910 -0.0545 -0.4662  0.2747
  891MOL0     C20192   5.649   2.280   5.933  0.5799  0.4207  0.0455
  891MOL0     C20193   5.655   2.133   5.881 -1.1575  0.1358 -0.0137
  891MOL0     C20194   5.640   2.126   5.734 -0.5868  0.6632  0.1837
  891MOL0    Cl20195   5.618   1.955   5.681 -0.1847 -0.0209  0.0201
  891MOL0     C20196   5.921   2.819   6.291 -0.4566  1.0275  0.1594
  891MOL0     C20197   6.044   2.838   6.358  0.5700  0.2448 -0.1808
  891MOL0     O20198   6.316   2.620   6.326  0.2222 -0.1373  0.1913
  891MOL0     C20199   6.559   2.882   6.368 -0.8011 -0.0053  0.0752
  891MOL0     C20200   6.697   2.905   6.374 -0.1816 -0.1092  0.3976
  891MOL0     N20201   7.405   2.677   6.138  0.6851 -0.2219 -0.6426
  891MOL0     N20202   7.506   2.631   6.078 -0.2720 -0.0186 -0.2145
  891MOL0     C20203   8.796   2.551   6.219 -0.9103 -0.2781  0.5676
  891MOL0     C20204   8.924   2.550   6.153  0.1372  0.1525  0.2820
  891MOL0     C20205   9.202   2.355   5.816 -0.5808 -1.1610 -0.5396
  891MOL0     C20206   9.324   2.431   5.834 -0.2561 -0.2218  0.7195
  891MOL0     C20207   9.442   2.396   5.764 -0.2015  0.6958  0.3605
  891MOL0     C20208   9.449   2.299   5.674 -0.7436 -0.1104 -0.4323
  891MOL0     O20209   9.561   2.258   5.606 -0.6430  0.4528 -0.2035
  891MOL0     C20210   9.674   2.349   5.616  0.7428 -0.7876 -0.2846
  891MOL0     C20211   9.795   2.307   5.529  1.1256 -0.8094 -0.0321
  891MOL0     C20212   9.831   2.175   5.580  0.3575  0.8979  0.3079
  891MOL0     C20213   9.975   2.129   5.539  0.2963  0.2847  0.9255
  891MOL0     C20214   9.993   2.114   5.395  1.6201 -1.0804 -0.3103
  891MOL0     C20215  10.017   2.097   5.272  0.8745 -0.0666 -0.0037
  891MOL0     C20216   9.335   2.227   5.645  0.3610  0.4741 -0.1115
  891MOL0     C20217   9.213   2.246   5.718 -0.1697 -0.4131  1.2664
  891MOL0     H20218   8.803   2.512   5.842  3.2616 -1.2333  0.7219
  891MOL0     H20219   8.589   2.477   5.957 -0.6688  1.0659 -0.1244
  891MOL0     H20220   8.441   2.566   6.382  1.7448  1.9358  3.0748
  891MOL0     H20221   8.572   2.683   6.346 -2.0474  1.2429  1.5518
  891MOL0     H20222   8.353   2.780   6.298 -1.1070 -2.0459  1.6382
  891MOL0     H20223   8.442   2.743   6.146  0.9530 -0.4922 -0.0788
  891MOL0     H20224   8.234   2.692   6.084  0.4250 -0.6575 -0.5171
  891MOL0     H20225   8.309   2.532   6.120  2.8425  1.4893 -0.0639
  891MOL0     H20226   8.207   2.542   6.352 -1.4852  1.3880  1.4245
  891MOL0     H20227   8.128   2.692   6.310  2.4534  1.1690  0.9140
  891MOL0     H20228   8.113   2.418   6.184  0.3281 -0.5365 -1.0646
  891MOL0     H20229   7.990   2.476   6.295  0.5958  3.8617  0.6309
  891MOL0     H20230   8.037   2.648   6.045  1.4224  1.3472  2.4272
  891MOL0     H20231   7.952   2.498   6.023 -0.0490 -1.6427  0.9366
  891MOL0     H20232   7.803   2.564   6.215  0.1669  1.4471  1.6423
  891MOL0     H20233   7.883   2.728   6.205 -0.4656  0.0482 -0.7292
  891MOL0     H20234   7.731   2.600   5.979 -0.9306  1.0713 -2.4004
  891MOL0     H20235   7.766   2.776   5.985 -0.1464 -1.4156 -1.1969
  891MOL0     H20236   7.639   2.852   6.278 -0.7099  0.8188 -1.6835
  891MOL0     H20237   7.394   2.847   6.415 -1.9420 -0.4409  0.4234
  891MOL0     H20238   7.383   2.971   6.280 -0.0348  0.2299 -0.1524
  891MOL0     H20239   7.205   2.749   6.371 -1.3907  0.9556  1.2193
  891MOL0     H20240   7.179   2.831   6.212  2.0215 -0.8697 -1.6828
  891MOL0     H20241   7.179   3.044   6.369  0.0046 -0.9638 -2.3643
  891MOL0     H20242   7.156   2.918   6.504  4.1840  2.5307 -0.6180
  891MOL0     H20243   6.964   2.944   6.268 -0.7271  1.8464  0.2211
  891MOL0     H20244   6.939   3.035   6.417 -1.9037  0.0968 -0.7601
  891MOL0     H20245   6.806   2.616   6.508  0.2713 -0.5080 -3.8291
  891MOL0     H20246   6.644   2.462   6.510 -2.0952 -2.2281  0.9078
  891MOL0     H20247   6.474   2.505   6.539  0.3737  1.5235  0.8669
  891MOL0     H20248   6.523   2.472   6.376 -0.2704 -0.5426  0.7425
  891MOL0     H20249   6.248   2.794   6.093  0.2351  4.4550  0.7881
  891MOL0     H20250   6.027   2.737   5.985 -2.5242 -1.4414  0.9677
  891MOL0     H20251   5.679   2.697   6.222 -0.9813  0.5418  0.5474
  891MOL0     H20252   5.666   2.867   6.166  0.8843  0.6837 -1.6635
  891MOL0     H20253   5.478   2.735   6.079  0.2814 -0.4171 -1.6283
  891MOL0     H20254   5.589   2.763   5.942  0.0076 -1.3507 -1.7066
  891MOL0     H20255   5.564   2.510   6.123 -2.3831 -0.0335 -0.3517
  891MOL0     H20256   5.702   2.523   6.026  0.4050 -1.0529 -1.5248
  891MOL0     H20257   5.417   2.551   5.906  0.6811  3.9540  1.6311
  891MOL0     H20258   5.558   2.540   5.813  2.9528  3.3388  2.4961
  891MOL0     H20259   5.456   2.299   5.824  2.5030 -1.1665 -0.8766
  891MOL0     H20260   5.440   2.310   5.991 -2.9490 -1.0575 -2.0855
  891MOL0     H20261   5.726   2.332   5.875  0.7702 -0.6298 -0.6730
  891MOL0     H20262   5.682   2.285   6.037  0.7035  1.4852 -0.0370
  891MOL0     H20263   5.581   2.066   5.925 -0.3510 -0.4894  0.4332
  891MOL0     H20264   5.751   2.091   5.912  0.2463  1.3729 -2.4226
  891MOL0     H20265   5.732   2.173   5.698  2.3782 -2.0464  3.4262
  891MOL0     H20266   5.561   2.185   5.688  1.7262  2.6200 -1.5751
  891MOL0     H20267   5.831   2.834   6.350 -1.8740  0.6126 -1.7993
  891MOL0     H20268   6.029   2.880   6.457 -0.0307  4.2296 -1.7481
  891MOL0     H20269   6.496   2.965   6.339  1.1236  1.3048 -0.5244
  891MOL0     H20270   6.713   3.007   6.339 -1.9334  1.3289  3.4017
  891MOL0     H20271   8.784   2.560   6.326 -2.6135  0.1697  0.3748
  891MOL0     H20272   9.012   2.592   6.202  0.2147  1.1700 -0.6813
  891MOL0     H20273   9.325   2.509   5.910 -1.8625 -1.6938  2.3417
  891MOL0     H20274   9.527   2.457   5.794 -1.1222  2.9363 -1.3045
  891MOL0     H20275   9.645   2.448   5.580  1.3218 -0.5435 -0.1045
  891MOL0     H20276   9.711   2.361   5.719 -0.4275  0.4998  0.0160
  891MOL0     H20277   9.878   2.376   5.514  0.0886  0.4060 -0.3869
  891MOL0     H20278   9.744   2.292   5.434 -2.2386  0.9410  1.3086
  891MOL0     H20279   9.764   2.097   5.543  1.8885 -0.6187  0.5855
  891MOL0     H20280   9.832   2.178   5.690  1.5628 -0.4114  0.3565
  891MOL0     H20281  10.000   2.033   5.586 -0.1233 -0.2478  0.0862
  891MOL0     H20282  10.044   2.200   5.585  2.7084 -1.3669  0.0211
  891MOL0     H20283  10.049   2.089   5.170 -0.7234 -1.9166 -0.4237
  891MOL0     H20284   9.337   2.135   5.587  1.9919 -1.8554  3.2899
  891MOL0     H20285   9.128   2.180   5.702  0.8678 -1.4298 -0.4354
  892MOL0     O20286   1.818   0.138   4.543  0.2209 -0.1844 -0.4060
  892MOL0     C20287   1.873   0.217   4.620  0.8148 -0.8767 -0.3128
  892MOL0     O20288   1.849   0.228   4.751 -0.1328  0.5073 -0.1678
  892MOL0     C20289   1.741   0.165   4.804 -0.6625  0.6348 -0.2092
  892MOL0     C20290   1.612   0.148   4.743  0.1927 -0.3770  0.3766
  892MOL0     C20291   1.503   0.096   4.821 -0.7199 -0.4627  0.0450
  892MOL0     C20292   1.526   0.059   4.954  0.4597 -0.6138 -0.0691
  892MOL0     O20293   1.421   0.025   5.034 -0.9454 -0.0394  0.1510
  892MOL0     C20294   1.433   0.025   5.174 -0.3705 -0.4932  0.4511
  892MOL0     C20295   1.305   0.003   5.248 -0.4049 -0.0112 -0.2116
  892MOL0     C20296   1.205   0.123   5.227 -0.7319 -0.4154 -0.1302
  892MOL0     C20297   1.096   0.097   5.323 -0.1359 -0.4838 -0.2321
  892MOL0     C20298   1.007   0.225   5.343  0.3373  0.5926  0.3935
  892MOL0     C20299   0.861   0.191   5.384  0.1650  1.0339 -0.1560
  892MOL0     C20300   0.777   0.316   5.419 -0.2865 -0.2395 -0.3823
  892MOL0     C20301   0.642   0.265   5.477  0.5672  0.5901 -0.3530
  892MOL0     N20302   0.553   0.185   5.386 -0.8864 -0.1355 -0.2090
  892MOL0     C20303   0.522   0.213   5.254  0.0045  0.5706 -0.0299
  892MOL0     C20304   0.424   0.113   5.226 -0.1285  0.6805  0.1350
  892MOL0     C20305   0.344   0.090   5.106  0.0359  0.1480  0.4573
  892MOL0     C20306   0.205   0.049   5.121  0.0806 -0.1479 -0.4868
  892MOL0     C20307   0.121   0.148   5.206 -0.3839  0.0730  0.7242
  892MOL0     C20308  -0.009   0.080   5.239  0.8770 -0.4014  0.0517
  892MOL0     O20309  -0.094   0.184   5.298  0.2883  0.2793  0.8398
  892MOL0     C20310  -0.229   0.163   5.322 -0.5429  1.2190  0.4325
  892MOL0     C20311  -0.299   0.040   5.318 -0.4783  1.1620  0.0023
  892MOL0     C20312  -0.439   0.038   5.337 -1.0516 -0.5556  0.1314
  892MOL0     C20313  -0.504  -0.097   5.343 -0.0356 -1.1764 -1.3358
  892MOL0     C20314  -0.504   0.159   5.364 -0.2180  0.7415 -0.1743
  892MOL0     C20315  -0.646   0.173   5.399 -0.4768  0.8259 -0.1795
  892MOL0     O20316  -0.727   0.080   5.338 -0.5829 -0.3193 -0.1911
  892MOL0     C20317  -0.862   0.081   5.336 -0.0854 -0.6411  0.8215
  892MOL0     C20318  -0.948   0.176   5.391 -0.1398 -0.0351 -0.1561
  892MOL0     C20319  -1.084   0.156   5.373  0.3719  0.4049 -0.0208
  892MOL0     C20320  -1.138   0.040   5.306 -0.3037 -0.7873 -0.4689
  892MOL0     O20321  -1.269  -0.000   5.306  0.0356 -0.0902  0.0919
  892MOL0     C20322  -1.361   0.032   5.195 -0.4052  0.0971  0.2176
  892MOL0     C20323  -1.464   0.138   5.237 -0.1762 -0.3070 -0.1441
  892MOL0     C20324  -1.576   0.147   5.124 -0.0464 -0.0599  0.2528
  892MOL0     C20325  -1.681   0.037   5.141 -0.1498  0.5521 -0.3875
  892MOL0     C20326  -1.803   0.078   5.058 -0.5975  0.6576  0.1974
  892MOL0     C20327  -1.921  -0.006   5.097  0.4977 -0.3494  1.0976
  892MOL0     C20328  -2.037  -0.007   4.998  0.1989 -1.2885 -0.1254
  892MOL0     C20329  -2.144  -0.109   5.037 -0.2372  0.2223  0.4328
  892MOL0    Cl20330  -2.084  -0.275   5.076 -0.1834  0.4984  0.3948
  892MOL0     C20331  -1.049  -0.043   5.257 -0.2066  0.0290 -0.2163
  892MOL0     C20332  -0.916  -0.027   5.269  0.0466  0.8280  0.5256
  892MOL0     O20333  -0.676   0.253   5.483 -0.5931 -0.1756  0.5015
  892MOL0     C20334  -0.437   0.281   5.365 -0.8277  0.3810  0.3131
  892MOL0     C20335  -0.294   0.283   5.349 -0.4584  0.0474 -0.0696
  892MOL0     N20336   0.399   0.048   5.353  0.0357  0.1832  0.4221
  892MOL0     N20337   0.473   0.092   5.448  0.1426 -0.3532  0.3239
  892MOL0     C20338   1.663   0.061   5.001 -0.3318 -0.0956  0.4135
  892MOL0     C20339   1.767   0.111   4.929  0.5564 -0.4930  0.5235
  892MOL0     C20340   1.981   0.303   4.574 -0.4873 -0.2597  0.3754
  892MOL0     C20341   2.018   0.416   4.644 -0.4468 -0.0540  0.0141
  892MOL0     C20342   2.121   0.507   4.597  0.4353 -0.5633  0.0388
  892MOL0     C20343   2.184   0.479   4.483  0.4476  0.2256  0.0179
  892MOL0     O20344   2.284   0.567   4.440 -0.1549  0.6739  1.1201
  892MOL0     C20345   2.382   0.515   4.346 -0.7216  0.0366 -0.4285
  892MOL0     C20346   2.473   0.634   4.296 -0.1409 -0.3798  0.3779
  892MOL0     C20347   2.406   0.763   4.266 -0.3177 -0.0470 -0.6515
  892MOL0     C20348   2.324   0.762   4.132 -0.1004 -0.1272  0.2172
  892MOL0     C20349   2.259   0.892   4.105 -0.8824 -0.6847 -0.0018
  892MOL0     C20350   2.211   1.000   4.068  0.6000  0.3182 -0.1586
  892MOL0     C20351   2.148   0.365   4.416  0.8473 -0.1525  0.4015
  892MOL0     C20352   2.051   0.275   4.456  0.0070  0.3882 -1.0613
  892MOL0     H20353   1.598   0.183   4.641 -2.3078 -1.5467  0.2574
  892MOL0     H20354   1.400   0.104   4.790 -0.5160  2.4008 -0.2233
  892MOL0     H20355   1.503  -0.055   5.202  2.9998  0.7653 -3.2947
  892MOL0     H20356   1.479   0.117   5.211 -1.0304 -0.2119  0.5797
  892MOL0     H20357   1.269  -0.095   5.216 -0.9104  0.1615 -0.1801
  892MOL0     H20358   1.328   0.005   5.355  0.7668  0.7049 -0.4587
  892MOL0     H20359   1.257   0.218   5.242  1.1319 -1.2528 -0.9498
  892MOL0     H20360   1.172   0.126   5.123  0.9682 -2.0997 -0.7667
  892MOL0     H20361   1.046   0.010   5.278 -1.3788 -0.4462  0.9977
  892MOL0     H20362   1.132   0.059   5.419  0.1406 -0.4691 -0.3291
  892MOL0     H20363   1.048   0.286   5.425 -1.4893  2.5497 -0.0533
  892MOL0     H20364   1.011   0.293   5.258 -1.9554  3.3001  2.2579
  892MOL0     H20365   0.803   0.144   5.305 -0.3273  0.8025  0.3358
  892MOL0     H20366   0.862   0.122   5.469  1.6811  0.5774 -0.5132
  892MOL0     H20367   0.826   0.371   5.499 -2.9126 -1.0183  1.9064
  892MOL0     H20368   0.762   0.373   5.327 -1.0276  1.8478  0.9551
  892MOL0     H20369   0.596   0.363   5.490  1.3710  0.9541 -0.2081
  892MOL0     H20370   0.649   0.220   5.576 -1.5950  2.2031  0.6108
  892MOL0     H20371   0.538   0.304   5.199 -0.6088  0.8679  0.2684
  892MOL0     H20372   0.338   0.192   5.065 -2.1127  0.3399  1.1110
  892MOL0     H20373   0.399   0.017   5.047  1.1105  1.5200 -0.3198
  892MOL0     H20374   0.201  -0.047   5.172 -2.6671 -0.9500 -1.9836
  892MOL0     H20375   0.159   0.038   5.022 -1.7013  0.0487  0.2648
  892MOL0     H20376   0.114   0.239   5.145  1.8756  0.3936  0.8766
  892MOL0     H20377   0.172   0.175   5.299  0.6790 -1.0901  0.4969
  892MOL0     H20378  -0.003  -0.006   5.306 -0.8648 -1.5705 -1.1906
  892MOL0     H20379  -0.053   0.039   5.147 -0.0586  0.4332  0.1083
  892MOL0     H20380  -0.239  -0.049   5.301 -0.5498  0.3879  3.1523
  892MOL0     H20381  -0.435  -0.173   5.307  0.2513 -0.6201 -1.9731
  892MOL0     H20382  -0.544  -0.110   5.445 -0.2617 -0.7318 -1.3647
  892MOL0     H20383  -0.581  -0.108   5.266 -0.0331 -0.0161 -1.5187
  892MOL0     H20384  -0.914   0.264   5.444  0.6832 -0.7878  0.6072
  892MOL0     H20385  -1.148   0.228   5.425  0.2084  0.3057 -0.0833
  892MOL0     H20386  -1.309   0.064   5.104  0.2806 -1.4124  0.0488
  892MOL0     H20387  -1.415  -0.060   5.169  1.0809 -0.3358 -1.6040
  892MOL0     H20388  -1.516   0.109   5.329  0.5709 -0.2947  0.2825
  892MOL0     H20389  -1.413   0.233   5.255  1.2035 -0.2195 -3.6815
  892MOL0     H20390  -1.534   0.136   5.024 -0.5811  0.6775 -0.0657
  892MOL0     H20391  -1.627   0.243   5.136 -0.2015  0.0962 -1.4189
  892MOL0     H20392  -1.637  -0.058   5.108  1.6084  0.8263  0.9612
  892MOL0     H20393  -1.715   0.021   5.244  0.7493 -2.7526 -0.4846
  892MOL0     H20394  -1.793   0.075   4.949 -1.9010 -1.8316  0.0820
  892MOL0     H20395  -1.819   0.186   5.069 -0.2260  0.7353  0.0220
  892MOL0     H20396  -1.893  -0.111   5.110 -0.3538 -0.5921  1.0286
  892MOL0     H20397  -1.955   0.034   5.193 -0.0299 -0.9319  1.1653
  892MOL0     H20398  -2.004  -0.032   4.897  0.4642  0.2372 -0.4377
  892MOL0     H20399  -2.079   0.094   5.006  2.0474 -0.1105 -3.2934
  892MOL0     H20400  -2.208  -0.117   4.949 -1.4299 -0.5083  1.3454
  892MOL0     H20401  -2.203  -0.068   5.119 -2.3727 -1.4159 -0.2056
  892MOL0     H20402  -1.076  -0.127   5.194  1.5166 -0.6507 -0.0907
  892MOL0     H20403  -0.853  -0.107   5.231 -0.1312  0.3521  1.2153
  892MOL0     H20404  -0.493   0.371   5.388 -1.6199 -0.2758  1.0022
  892MOL0     H20405  -0.239   0.377   5.353  0.3816 -0.4291 -0.1783
  892MOL0     H20406   1.692   0.015   5.095 -0.5516 -0.0809  0.4895
  892MOL0     H20407   1.866   0.124   4.969  1.1555  0.5210 -1.1598
  892MOL0     H20408   1.976   0.455   4.736 -2.7754 -0.5092 -0.7973
  892MOL0     H20409   2.144   0.598   4.652  0.5594 -0.3134 -0.4138
  892MOL0     H20410   2.429   0.432   4.400  0.3384  0.6048 -0.4500
  892MOL0     H20411   2.324   0.480   4.260 -0.5728 -1.2124 -0.0387
  892MOL0     H20412   2.536   0.609   4.210  0.2619  0.7714  0.3148
  892MOL0     H20413   2.551   0.659   4.369  2.6911 -0.1595 -2.4953
  892MOL0     H20414   2.474   0.848   4.260 -0.6710  0.3884  1.0338
  892MOL0     H20415   2.343   0.793   4.350  0.2101 -1.6098  0.3454
  892MOL0     H20416   2.238   0.694   4.131  0.0541 -0.3283 -0.9605
  892MOL0     H20417   2.394   0.733   4.054  1.6150  0.9850  1.2740
  892MOL0     H20418   2.176   1.099   4.047  1.8494  0.4208 -1.9599
  892MOL0     H20419   2.185   0.331   4.320 -3.1080 -1.7484 -0.7703
  892MOL0     H20420   2.014   0.210   4.377 -2.1524  2.2606 -1.7054
  893MOL0     O20421   7.716   5.271   9.657  0.5090 -0.0841  0.5991
  893MOL0     C20422   7.724   5.159   9.708  0.4432  0.5581  1.0521
  893MOL0     O20423   7.621   5.080   9.749  0.5256  0.6352  0.0238
  893MOL0     C20424   7.500   5.078   9.686 -0.0915  0.2224 -0.8130
  893MOL0     C20425   7.401   5.009   9.756  0.0592  0.7166 -0.2684
  893MOL0     C20426   7.274   4.998   9.695 -0.1398  0.6839  0.2761
  893MOL0     C20427   7.241   5.055   9.575  0.7037 -0.2405 -0.3789
  893MOL0     O20428   7.102   5.043   9.542  0.2691 -0.1039  1.2205
  893MOL0     C20429   7.053   5.104   9.423  0.1750  0.3892  0.8230
  893MOL0     C20430   6.908   5.131   9.454  0.6242 -0.0466  0.1031
  893MOL0     C20431   6.848   5.215   9.330 -0.0492 -0.2515 -0.6852
  893MOL0     C20432   6.715   5.282   9.343 -0.1551  0.0199  0.2364
  893MOL0     C20433   6.655   5.328   9.206  0.2517 -0.1599 -0.4268
  893MOL0     C20434   6.615   5.213   9.118 -1.0657  0.0513  0.2451
  893MOL0     C20435   6.479   5.153   9.165 -0.4368 -0.2339  0.3569
  893MOL0     C20436   6.412   5.072   9.050 -0.1753 -0.2018 -0.2593
  893MOL0     N20437   6.351   4.943   9.097  0.7948  0.0645 -0.3456
  893MOL0     C20438   6.250   4.927   9.186  1.0399 -0.2549 -0.1791
  893MOL0     C20439   6.198   4.805   9.168 -0.6660  0.2397  0.0956
  893MOL0     C20440   6.090   4.741   9.257  0.5087  0.0522 -1.2688
  893MOL0     C20441   5.964   4.738   9.180  0.4299  0.9286 -0.1359
  893MOL0     C20442   5.838   4.709   9.260  0.3942  0.2962  0.1818
  893MOL0     C20443   5.719   4.689   9.183  0.3579 -0.7479  0.7628
  893MOL0     O20444   5.621   4.653   9.271 -0.3746  0.3359  0.6942
  893MOL0     C20445   5.503   4.596   9.221 -0.1127  0.1127 -1.1000
  893MOL0     C20446   5.405   4.548   9.304  1.0944  0.8037  0.0490
  893MOL0     C20447   5.284   4.484   9.261 -1.0767  0.4085 -0.3038
  893MOL0     C20448   5.184   4.455   9.365  0.4029  0.5629 -0.1537
  893MOL0     C20449   5.268   4.459   9.120  0.4803 -0.0403 -1.1210
  893MOL0     C20450   5.154   4.386   9.062 -0.2373 -0.1229 -0.5061
  893MOL0     O20451   5.126   4.414   8.926  0.0321 -0.3288 -0.0202
  893MOL0     C20452   5.018   4.353   8.871  0.1797 -0.0606 -0.5426
  893MOL0     C20453   4.911   4.424   8.818  0.1905  0.5637  0.3145
  893MOL0     C20454   4.805   4.359   8.764  0.9266 -0.0901 -0.7789
  893MOL0     C20455   4.810   4.222   8.737  0.0580  0.1629  0.3704
  893MOL0     O20456   4.699   4.152   8.682 -0.5467  0.3451 -0.1742
  893MOL0     C20457   4.665   4.209   8.561 -0.6395 -0.6352  0.3572
  893MOL0     C20458   4.542   4.137   8.508 -1.1894 -0.1788  0.5017
  893MOL0     C20459   4.567   3.990   8.441 -0.3084 -0.8338  0.3397
  893MOL0     C20460   4.444   3.927   8.370 -0.0835  0.4869 -0.3283
  893MOL0     C20461   4.470   3.791   8.295  0.9316 -0.7093 -0.2790
  893MOL0     C20462   4.495   3.668   8.389  0.4295  0.4945 -0.2099
  893MOL0     C20463   4.361   3.598   8.425 -0.4779 -0.6087 -0.4604
  893MOL0     C20464   4.388   3.477   8.512 -0.6030 -0.2453 -0.1542
  893MOL0    Cl20465   4.529   3.379   8.465 -0.0246  0.0613 -0.0691
  893MOL0     C20466   4.924   4.148   8.768  0.1641 -1.0662 -0.4660
  893MOL0     C20467   5.023   4.216   8.844 -0.1970  0.2472 -0.3135
  893MOL0     O20468   5.074   4.326   9.135 -0.2068  0.1646 -0.0091
  893MOL0     C20469   5.374   4.513   9.038  0.4506  0.0321  0.0258
  893MOL0     C20470   5.481   4.583   9.084 -0.2325 -1.2568  0.2713
  893MOL0     N20471   6.268   4.746   9.066  0.1534 -0.6690 -0.2247
  893MOL0     N20472   6.351   4.837   9.018  0.2323  0.6624  0.6227
  893MOL0     C20473   7.340   5.120   9.512 -1.4910  0.4599 -0.0974
  893MOL0     C20474   7.465   5.133   9.567  0.3421 -0.1835  0.3460
  893MOL0     C20475   7.857   5.111   9.729  0.0774  0.3391  0.5285
  893MOL0     C20476   7.969   5.182   9.688 -1.0065  0.4431 -0.0170
  893MOL0     C20477   8.105   5.134   9.695 -0.2803 -0.1051 -0.5489
  893MOL0     C20478   8.125   5.011   9.762 -0.4266  0.2722 -0.9440
  893MOL0     O20479   8.249   4.956   9.801 -0.6095  0.1129  0.0666
  893MOL0     C20480   8.358   5.053   9.794 -0.3277 -0.6790 -0.5277
  893MOL0     C20481   8.489   4.999   9.860  0.0190 -0.8947 -0.1724
  893MOL0     C20482   8.582   4.931   9.756  0.1706  0.3752  1.0520
  893MOL0     C20483   8.717   4.897   9.805  0.8804 -0.4031  0.0868
  893MOL0     C20484   8.790   4.800   9.719  0.8523 -0.1685  0.2678
  893MOL0     C20485   8.847   4.721   9.640  0.8252  0.0475 -1.0209
  893MOL0     C20486   8.015   4.938   9.803  0.3658  0.1518 -0.1935
  893MOL0     C20487   7.884   4.982   9.789  0.1081 -0.0263  0.4083
  893MOL0     H20488   7.434   4.941   9.833  1.3176  2.2570  0.6049
  893MOL0     H20489   7.198   4.929   9.733  0.5830  0.2175  0.9073
  893MOL0     H20490   7.107   5.197   9.405  3.2084 -1.4822 -0.5236
  893MOL0     H20491   7.062   5.040   9.334 -1.5946  0.7118  0.3621
  893MOL0     H20492   6.856   5.036   9.460 -2.8083  1.4053 -3.0037
  893MOL0     H20493   6.896   5.201   9.538 -0.8602  2.6756 -2.2069
  893MOL0     H20494   6.919   5.291   9.295 -0.1843 -0.7066 -2.0305
  893MOL0     H20495   6.836   5.139   9.252 -0.4093 -2.6658  1.6262
  893MOL0     H20496   6.647   5.209   9.389 -0.9613 -0.0342 -1.0185
  893MOL0     H20497   6.737   5.367   9.409  4.1467  1.7793 -2.9997
  893MOL0     H20498   6.558   5.375   9.225 -0.4814 -1.8194  0.0963
  893MOL0     H20499   6.729   5.385   9.150 -0.0341 -1.5914 -2.3647
  893MOL0     H20500   6.603   5.247   9.014  2.1570 -1.6358 -0.8167
  893MOL0     H20501   6.693   5.137   9.110  0.9829  2.0699  0.1746
  893MOL0     H20502   6.501   5.089   9.251  0.7746  1.5834  1.4866
  893MOL0     H20503   6.410   5.230   9.200 -0.4551  0.0430 -0.2767
  893MOL0     H20504   6.475   5.059   8.962 -0.6816 -0.9102 -0.5286
  893MOL0     H20505   6.320   5.115   9.007 -1.3012 -1.6089  0.6403
  893MOL0     H20506   6.223   5.011   9.250  3.9603  1.1192 -0.5975
  893MOL0     H20507   6.113   4.636   9.277 -1.2636 -0.1847 -0.2883
  893MOL0     H20508   6.086   4.806   9.346 -1.1994 -2.4507  0.6006
  893MOL0     H20509   5.976   4.667   9.098  0.9450  1.5075 -0.5640
  893MOL0     H20510   5.949   4.838   9.139  0.8523  2.2445  2.6404
  893MOL0     H20511   5.824   4.790   9.332 -0.2531 -1.2126  1.8285
  893MOL0     H20512   5.852   4.609   9.301 -1.3323 -1.1623 -2.5078
  893MOL0     H20513   5.738   4.602   9.119 -0.7669 -1.5755  1.5331
  893MOL0     H20514   5.692   4.787   9.142 -3.0378 -1.5253  0.8859
  893MOL0     H20515   5.424   4.555   9.411  1.6851  0.4663 -0.0296
  893MOL0     H20516   5.082   4.473   9.331 -1.0785 -2.2202  2.3632
  893MOL0     H20517   5.170   4.349   9.390 -0.5436  0.9609  1.1157
  893MOL0     H20518   5.187   4.515   9.456 -1.8777  1.8378 -0.8503
  893MOL0     H20519   4.914   4.532   8.831  0.0263  0.8670 -1.8585
  893MOL0     H20520   4.722   4.419   8.729  1.4174  2.0394  1.3951
  893MOL0     H20521   4.654   4.317   8.570  2.0405 -0.0345 -2.0307
  893MOL0     H20522   4.739   4.193   8.482  0.1266 -0.1223  0.9565
  893MOL0     H20523   4.471   4.129   8.591 -0.2477 -3.0160  1.1588
  893MOL0     H20524   4.498   4.200   8.431  0.9909  1.7592  0.7332
  893MOL0     H20525   4.600   3.922   8.520  1.0105 -3.0458 -1.9951
  893MOL0     H20526   4.640   4.005   8.362  0.5535 -1.6127  0.9621
  893MOL0     H20527   4.356   3.941   8.433  0.9630  3.3092  0.6838
  893MOL0     H20528   4.422   4.007   8.298  0.0458  2.5140  1.7673
  893MOL0     H20529   4.564   3.795   8.240  1.7636 -0.3970  1.1242
  893MOL0     H20530   4.393   3.758   8.225  1.2013 -0.9442 -0.4660
  893MOL0     H20531   4.557   3.598   8.333 -0.8714 -1.0103  0.1458
  893MOL0     H20532   4.536   3.700   8.485 -3.3106 -0.4036  1.8931
  893MOL0     H20533   4.297   3.566   8.343 -3.6352  0.4246  1.4387
  893MOL0     H20534   4.296   3.673   8.471 -0.1009  0.6737 -1.9517
  893MOL0     H20535   4.293   3.425   8.500 -1.0626  0.9471 -2.0909
  893MOL0     H20536   4.400   3.512   8.615  0.0230  2.8220 -1.1410
  893MOL0     H20537   4.929   4.040   8.759 -0.4484 -1.2518  1.0297
  893MOL0     H20538   5.110   4.156   8.868  0.3493  0.6207 -1.2867
  893MOL0     H20539   5.366   4.494   8.932  1.3142  0.9376 -0.2236
  893MOL0     H20540   5.558   4.625   9.020  1.1350  0.9487  3.1017
  893MOL0     H20541   7.323   5.179   9.422  2.5278 -0.0575 -1.4062
  893MOL0     H20542   7.532   5.189   9.502 -2.5738 -0.9148 -3.6666
  893MOL0     H20543   7.952   5.275   9.636 -1.3687 -0.1804 -1.0436
  893MOL0     H20544   8.190   5.190   9.658  1.8876 -2.3596  0.7045
  893MOL0     H20545   8.389   5.073   9.691 -0.4797 -0.4072 -0.5219
  893MOL0     H20546   8.336   5.142   9.855 -0.7269 -2.9736  2.9610
  893MOL0     H20547   8.471   4.932   9.944 -0.4025  0.8734  1.2135
  893MOL0     H20548   8.542   5.091   9.888 -3.4632  1.2139  0.1597
  893MOL0     H20549   8.604   4.992   9.668  4.3676  1.0685  2.3686
  893MOL0     H20550   8.539   4.836   9.723  1.7310  0.2212 -0.7330
  893MOL0     H20551   8.704   4.850   9.903 -2.8146  0.1365 -0.0183
  893MOL0     H20552   8.775   4.988   9.825  1.8977 -1.3426  1.5431
  893MOL0     H20553   8.884   4.647   9.573  2.4236 -2.2082  2.0878
  893MOL0     H20554   8.040   4.839   9.841  3.0136  1.2794  1.2433
  893MOL0     H20555   7.797   4.928   9.825 -0.0088  0.0893  0.3023
  894MOL0     O20556   4.256   4.743   0.925  0.3888 -0.0650 -0.2732
  894MOL0     C20557   4.320   4.657   0.984 -0.1377 -1.1030  0.1261
  894MOL0     O20558   4.278   4.534   1.014  0.5805 -0.4507  0.3613
  894MOL0     C20559   4.146   4.504   1.022  1.5240  0.3320  0.1793
  894MOL0     C20560   4.033   4.591   1.007 -0.0193  0.1775  0.7413
  894MOL0     C20561   3.909   4.546   0.986 -0.3509  0.4163  0.3419
  894MOL0     C20562   3.877   4.412   0.982 -0.3223  0.4234 -0.1725
  894MOL0     O20563   3.740   4.389   0.954  0.1014  0.0657  0.1917
  894MOL0     C20564   3.696   4.253   0.928  0.0270  0.3622 -0.1371
  894MOL0     C20565   3.566   4.253   0.836 -0.8608  0.1450 -0.2851
  894MOL0     C20566   3.457   4.330   0.897 -0.5074 -0.5836 -0.1395
  894MOL0     C20567   3.319   4.355   0.825 -0.7016 -1.0997 -0.3569
  894MOL0     C20568   3.241   4.441   0.918 -0.0534 -0.3002 -0.3415
  894MOL0     C20569   3.094   4.473   0.862  0.7358  0.7937 -0.3074
  894MOL0     C20570   3.001   4.356   0.841  0.1848  0.1835 -1.2133
  894MOL0     C20571   2.862   4.399   0.783 -0.5641  0.7696  0.3849
  894MOL0     N20572   2.797   4.509   0.850  0.1677  0.5780  0.2983
  894MOL0     C20573   2.742   4.506   0.980 -0.4277  0.2320 -0.1374
  894MOL0     C20574   2.662   4.613   0.980  0.3646 -0.7378  0.3121
  894MOL0     C20575   2.588   4.668   1.094 -1.1853 -0.3484  0.4020
  894MOL0     C20576   2.454   4.600   1.121 -0.0375 -0.5233 -0.1232
  894MOL0     C20577   2.347   4.659   1.025 -0.2033  0.1340 -0.0246
  894MOL0     C20578   2.209   4.596   1.055  0.0550 -0.1196  0.1317
  894MOL0     O20579   2.105   4.674   0.995 -0.0692  0.5813 -0.3603
  894MOL0     C20580   1.989   4.606   0.966  0.1511 -0.7164  0.8839
  894MOL0     C20581   1.893   4.685   0.904 -0.5052 -0.4130  0.3350
  894MOL0     C20582   1.769   4.635   0.873 -0.3820  0.3673 -0.4568
  894MOL0     C20583   1.679   4.732   0.802 -0.4536  0.4264  0.0321
  894MOL0     C20584   1.733   4.504   0.916 -0.2653 -0.1070 -0.6109
  894MOL0     C20585   1.610   4.433   0.891 -0.0905 -0.2608  0.4431
  894MOL0     O20586   1.568   4.446   0.762  0.1739  0.0129 -0.5773
  894MOL0     C20587   1.455   4.387   0.721 -0.4184 -0.1097  1.2689
  894MOL0     C20588   1.458   4.348   0.582 -0.0771  1.2878 -0.7230
  894MOL0     C20589   1.363   4.263   0.521 -0.3624 -0.3256 -0.8897
  894MOL0     C20590   1.247   4.239   0.595  0.6356  0.6965  0.0788
  894MOL0     O20591   1.141   4.157   0.552 -0.5406 -0.0195 -0.0609
  894MOL0     C20592   1.124   4.145   0.407 -0.0486 -0.1206 -0.1386
  894MOL0     C20593   1.005   4.053   0.376 -0.7665 -0.4277  0.2451
  894MOL0     C20594   0.968   4.020   0.233 -0.4383 -0.5325 -0.3111
  894MOL0     C20595   0.865   3.917   0.197  0.1687 -0.1351 -0.6986
  894MOL0     C20596   0.723   3.957   0.254 -0.7491 -0.3667  0.1860
  894MOL0     C20597   0.640   4.066   0.167 -0.0223  0.4874  0.3104
  894MOL0     C20598   0.498   4.061   0.226 -0.3699  0.0207 -0.9394
  894MOL0     C20599   0.421   4.172   0.156 -0.1948  0.8905 -0.0027
  894MOL0    Cl20600   0.264   4.100   0.127  0.7859  0.4318 -0.2566
  894MOL0     C20601   1.241   4.283   0.728  0.7316 -0.7810 -0.2006
  894MOL0     C20602   1.339   4.362   0.790  0.2986 -1.0697 -0.2081
  894MOL0     O20603   1.572   4.350   0.969 -0.4632 -0.6089  0.2133
  894MOL0     C20604   1.830   4.426   0.983 -0.6982 -0.3461  0.1162
  894MOL0     C20605   1.959   4.470   0.999 -0.0332 -0.5224 -0.4765
  894MOL0     N20606   2.662   4.666   0.854 -0.0251 -0.5603  0.2912
  894MOL0     N20607   2.745   4.611   0.775  0.4996  0.0817  0.8917
  894MOL0     C20608   3.982   4.323   1.002 -0.0109  1.1884  0.9069
  894MOL0     C20609   4.107   4.365   1.022  0.0074 -0.2287 -0.1701
  894MOL0     C20610   4.457   4.692   1.011 -0.5202 -0.1378  0.1370
  894MOL0     C20611   4.509   4.824   0.997  0.6350  0.0115 -1.1475
  894MOL0     C20612   4.642   4.856   1.022 -0.7690  0.1428  0.5547
  894MOL0     C20613   4.731   4.756   1.062 -0.3095  0.5281  0.3876
  894MOL0     O20614   4.862   4.795   1.069  0.1122  0.2947 -0.0379
  894MOL0     C20615   4.967   4.699   1.102  0.1579 -0.1245  0.6406
  894MOL0     C20616   5.106   4.767   1.094  0.2578  0.8015  0.3070
  894MOL0     C20617   5.131   4.882   1.191  0.1600  0.0938 -0.7073
  894MOL0     C20618   5.104   4.845   1.339  0.0085 -0.5193  0.7736
  894MOL0     C20619   5.158   4.946   1.423  0.8202 -0.0984  0.2281
  894MOL0     C20620   5.192   5.033   1.502 -1.0925 -0.7835  0.6436
  894MOL0     C20621   4.687   4.620   1.084 -0.3521  0.0445  0.4879
  894MOL0     C20622   4.550   4.591   1.058  0.7896 -0.5121  0.1217
  894MOL0     H20623   4.046   4.699   1.013 -0.4072  0.1700  1.9524
  894MOL0     H20624   3.830   4.615   0.956  0.1846  0.3096 -1.4374
  894MOL0     H20625   3.775   4.204   0.871 -0.1130  1.8339 -1.6682
  894MOL0     H20626   3.684   4.198   1.023  3.2489 -2.2622 -1.0542
  894MOL0     H20627   3.580   4.307   0.742 -1.0357  0.3522 -0.1914
  894MOL0     H20628   3.534   4.149   0.822 -0.2762 -0.3506  1.7457
  894MOL0     H20629   3.441   4.278   0.991  2.5482 -0.8114  0.3358
  894MOL0     H20630   3.495   4.431   0.913  1.2769 -1.0824 -1.0215
  894MOL0     H20631   3.325   4.418   0.736 -0.2009  0.7701  0.9185
  894MOL0     H20632   3.268   4.260   0.812 -2.7615 -0.2931  1.3128
  894MOL0     H20633   3.225   4.388   1.012 -0.4533  2.3022  1.1312
  894MOL0     H20634   3.296   4.535   0.930 -2.2980  1.1186 -0.6518
  894MOL0     H20635   3.053   4.531   0.945 -0.8934 -1.2362  0.4015
  894MOL0     H20636   3.100   4.519   0.763 -1.0442 -2.7743 -2.2605
  894MOL0     H20637   3.034   4.277   0.773  0.1953  0.0800 -1.0887
  894MOL0     H20638   2.984   4.307   0.938  1.9756  2.4451  0.3328
  894MOL0     H20639   2.795   4.313   0.786  0.0402  0.1774 -1.4994
  894MOL0     H20640   2.873   4.425   0.677 -2.4488  2.9987  0.6568
  894MOL0     H20641   2.776   4.445   1.062 -1.4136  0.5607  0.5392
  894MOL0     H20642   2.656   4.663   1.180  1.3777  0.3104 -1.4996
  894MOL0     H20643   2.562   4.773   1.079  0.4437  0.2545  1.5286
  894MOL0     H20644   2.422   4.625   1.222  2.0046  2.2539 -0.0592
  894MOL0     H20645   2.468   4.491   1.117 -0.3683 -0.5718 -0.0246
  894MOL0     H20646   2.380   4.655   0.920  1.7325 -2.5844  0.5744
  894MOL0     H20647   2.341   4.767   1.040  0.6352  0.2450 -0.4121
  894MOL0     H20648   2.199   4.578   1.162  1.3469 -2.6754 -0.1061
  894MOL0     H20649   2.211   4.494   1.015  2.2884 -0.4226  0.8559
  894MOL0     H20650   1.927   4.784   0.874 -1.2044 -0.1999  0.2266
  894MOL0     H20651   1.717   4.740   0.700 -2.1142  0.7167 -0.6035
  894MOL0     H20652   1.578   4.691   0.805 -0.2500 -0.0430  2.3432
  894MOL0     H20653   1.680   4.831   0.850  0.6919  0.2441  0.4185
  894MOL0     H20654   1.547   4.367   0.524  0.5062  2.0393  0.3763
  894MOL0     H20655   1.371   4.213   0.425 -3.6403 -2.5275 -0.1602
  894MOL0     H20656   1.114   4.242   0.358  0.1516  2.8150  4.9206
  894MOL0     H20657   1.211   4.102   0.355 -0.7524  0.8969 -2.2708
  894MOL0     H20658   1.037   3.958   0.420 -1.2234 -0.4663  0.4912
  894MOL0     H20659   0.920   4.085   0.437  1.2950  2.5551  1.8126
  894MOL0     H20660   1.058   3.996   0.175 -0.0872  0.8990 -0.3820
  894MOL0     H20661   0.926   4.109   0.186  1.5661  1.7803  2.0210
  894MOL0     H20662   0.866   3.908   0.088  3.0532 -2.1664 -0.6519
  894MOL0     H20663   0.895   3.818   0.234  1.4294  0.7772  0.8800
  894MOL0     H20664   0.723   3.992   0.357 -3.7479  0.8188 -0.1313
  894MOL0     H20665   0.662   3.867   0.250  0.4488 -1.4477  3.4371
  894MOL0     H20666   0.682   4.167   0.172 -0.5656  0.8772 -1.9379
  894MOL0     H20667   0.647   4.038   0.061  2.8151  0.4913  0.4099
  894MOL0     H20668   0.495   4.080   0.334  3.2446 -1.4667 -0.4180
  894MOL0     H20669   0.447   3.968   0.201  1.8695 -1.4953 -0.2115
  894MOL0     H20670   0.472   4.205   0.064 -1.4946 -2.8514 -2.2805
  894MOL0     H20671   0.418   4.257   0.225 -1.7521 -0.7498  2.0681
  894MOL0     H20672   1.157   4.254   0.790 -0.8151  0.6554 -1.5037
  894MOL0     H20673   1.310   4.402   0.887  1.7189  0.0621 -0.2130
  894MOL0     H20674   1.814   4.330   1.031 -2.5408  0.4899  1.2473
  894MOL0     H20675   2.023   4.407   1.059 -1.7713 -0.5108  1.5000
  894MOL0     H20676   3.961   4.216   0.996  0.7246  1.1074 -0.8177
  894MOL0     H20677   4.198   4.309   1.041  2.7160  3.0541 -2.2724
  894MOL0     H20678   4.449   4.910   0.969  0.1673 -0.0937 -0.4797
  894MOL0     H20679   4.682   4.956   1.008 -4.4123  1.8816  1.5553
  894MOL0     H20680   4.950   4.644   1.195  1.5014 -1.7409 -0.0122
  894MOL0     H20681   4.975   4.621   1.025  2.6412 -0.8340  1.5078
  894MOL0     H20682   5.122   4.804   0.992  2.6346  1.0325  0.7038
  894MOL0     H20683   5.172   4.683   1.117  0.2255  1.1034  1.5616
  894MOL0     H20684   5.061   4.962   1.164 -0.1333 -0.0071 -0.2704
  894MOL0     H20685   5.233   4.921   1.192  1.6106 -3.1772  1.9761
  894MOL0     H20686   5.154   4.748   1.356 -1.1837 -1.3600 -0.3111
  894MOL0     H20687   5.000   4.816   1.355  0.3116 -1.3880  1.2929
  894MOL0     H20688   5.211   5.111   1.573 -1.0947 -2.7741  2.9638
  894MOL0     H20689   4.767   4.547   1.095  1.9195  1.5721 -3.6451
  894MOL0     H20690   4.526   4.486   1.055 -0.7700 -0.1579 -2.7155
  895MOL0     O20691   0.625   3.583   0.909  0.8892  0.2500 -0.0476
  895MOL0     C20692   0.643   3.472   0.963 -1.0596 -0.2870  1.0791
  895MOL0     O20693   0.583   3.347   0.938  0.6132  0.3305 -0.3315
  895MOL0     C20694   0.488   3.331   0.835  0.1029 -0.0706 -0.7810
  895MOL0     C20695   0.481   3.406   0.714  0.1138 -0.5649 -0.0805
  895MOL0     C20696   0.382   3.378   0.624  1.0222 -0.3584  0.0391
  895MOL0     C20697   0.302   3.264   0.632 -0.0207 -0.0636  0.2992
  895MOL0     O20698   0.217   3.228   0.536  0.4356  0.2228 -0.0103
  895MOL0     C20699   0.167   3.334   0.451  0.4754  0.3712  0.1336
  895MOL0     C20700   0.040   3.299   0.376  0.9283 -0.3274  0.6122
  895MOL0     C20701  -0.071   3.272   0.483  0.8493 -0.4679  0.3531
  895MOL0     C20702  -0.207   3.292   0.407 -0.5519  0.5734 -0.4974
  895MOL0     C20703  -0.319   3.269   0.501 -1.3192  0.9209 -0.7367
  895MOL0     C20704  -0.431   3.208   0.422  0.2979  0.1623  1.3711
  895MOL0     C20705  -0.545   3.169   0.509  0.4772  0.1940  0.4951
  895MOL0     C20706  -0.648   3.098   0.416 -0.3100 -0.2718 -0.6653
  895MOL0     N20707  -0.770   3.066   0.499  0.2435 -0.0683  0.4173
  895MOL0     C20708  -0.790   3.012   0.619 -0.7911 -0.5160 -1.0194
  895MOL0     C20709  -0.923   3.017   0.648 -0.0862  0.7463  1.4541
  895MOL0     C20710  -0.991   2.950   0.758 -0.6941 -1.7914  0.4362
  895MOL0     C20711  -1.136   2.995   0.770 -0.3852  0.2111  0.4025
  895MOL0     C20712  -1.165   3.139   0.792 -0.4658 -0.4413  0.3851
  895MOL0     C20713  -1.314   3.159   0.784  0.6956  0.9663  0.2861
  895MOL0     O20714  -1.374   3.061   0.861 -0.1042 -0.5237 -0.3571
  895MOL0     C20715  -1.506   3.083   0.903 -0.4120  0.0313 -0.5893
  895MOL0     C20716  -1.549   3.006   1.013  0.0663  1.0038 -0.4062
  895MOL0     C20717  -1.658   3.037   1.083 -0.6608 -0.2689 -0.0463
  895MOL0     C20718  -1.682   2.959   1.205 -0.8849 -0.4968  0.6255
  895MOL0     C20719  -1.753   3.133   1.044 -0.4186 -0.0684  0.8408
  895MOL0     C20720  -1.869   3.177   1.120  0.9125  0.4657  0.1680
  895MOL0     O20721  -1.947   3.268   1.056  0.0045 -0.3676 -0.2488
  895MOL0     C20722  -2.030   3.346   1.134 -0.1595 -0.0732 -0.3703
  895MOL0     C20723  -2.156   3.304   1.197  0.1736  0.4247 -0.8207
  895MOL0     C20724  -2.232   3.383   1.282  0.4048 -0.4645 -0.2039
  895MOL0     C20725  -2.189   3.514   1.319 -0.9248 -0.0337 -0.3622
  895MOL0     O20726  -2.252   3.605   1.397 -0.1627  0.0202 -0.0876
  895MOL0     C20727  -2.354   3.552   1.484  0.4873 -0.6220  0.8512
  895MOL0     C20728  -2.436   3.679   1.531 -0.6366 -0.6158 -0.5289
  895MOL0     C20729  -2.566   3.646   1.593 -1.0262  0.3052  0.0841
  895MOL0     C20730  -2.569   3.606   1.741 -0.2816 -0.6503 -0.3961
  895MOL0     C20731  -2.717   3.593   1.776  0.2139 -0.8304  0.5785
  895MOL0     C20732  -2.734   3.538   1.915  0.2880 -0.5062 -0.3233
  895MOL0     C20733  -2.889   3.536   1.961 -0.8730  0.5825  0.0308
  895MOL0     C20734  -2.938   3.533   2.105  0.2234 -0.4151  0.5345
  895MOL0    Cl20735  -3.110   3.575   2.086 -0.2916 -0.1501  0.0376
  895MOL0     C20736  -2.066   3.559   1.256  0.0495 -0.0848 -0.2436
  895MOL0     C20737  -1.994   3.477   1.173 -0.4949 -0.0165  0.2722
  895MOL0     O20738  -1.883   3.146   1.237 -0.7223 -0.0826 -0.9004
  895MOL0     C20739  -1.712   3.203   0.924 -0.8648  0.3229  0.2671
  895MOL0     C20740  -1.589   3.176   0.854  0.0711 -0.3960 -1.0538
  895MOL0     N20741  -0.980   3.085   0.540  0.4717  0.1249  0.7829
  895MOL0     N20742  -0.886   3.114   0.454  0.5295 -0.6594 -0.3375
  895MOL0     C20743   0.309   3.184   0.744 -0.5128  0.1423 -0.1563
  895MOL0     C20744   0.395   3.225   0.849 -0.0380  0.0473  0.1622
  895MOL0     C20745   0.745   3.474   1.069 -0.0182 -0.4136 -0.3348
  895MOL0     C20746   0.769   3.356   1.142 -0.3042  0.4989 -0.0360
  895MOL0     C20747   0.872   3.356   1.246  0.5035  0.0098 -0.2585
  895MOL0     C20748   0.955   3.471   1.265  0.6733  0.5852  0.2761
  895MOL0     O20749   1.052   3.459   1.360 -0.1140 -0.6417 -0.3691
  895MOL0     C20750   1.148   3.564   1.384  0.3765 -0.3837  0.6889
  895MOL0     C20751   1.280   3.491   1.377 -0.5096 -0.2852 -0.3465
  895MOL0     C20752   1.320   3.424   1.245 -0.5827 -0.6883  0.7702
  895MOL0     C20753   1.321   3.530   1.132 -0.7513  0.8856  0.0345
  895MOL0     C20754   1.328   3.452   1.014 -0.8075 -0.1914  0.4726
  895MOL0     C20755   1.312   3.404   0.907 -0.6581 -1.0579  0.4316
  895MOL0     C20756   0.923   3.588   1.195 -0.3338 -0.3756  0.0862
  895MOL0     C20757   0.822   3.586   1.096 -0.1173 -0.5532  0.5451
  895MOL0     H20758   0.555   3.482   0.692 -1.7006  1.5182  0.6179
  895MOL0     H20759   0.388   3.442   0.537  4.9732  2.4570  2.0880
  895MOL0     H20760   0.152   3.430   0.501 -1.2071  0.1082  0.2129
  895MOL0     H20761   0.240   3.352   0.372 -2.1341 -0.2056 -2.5875
  895MOL0     H20762   0.013   3.375   0.302  1.9296  2.9513  3.3256
  895MOL0     H20763   0.061   3.208   0.320 -0.9532 -0.5087  0.1379
  895MOL0     H20764  -0.067   3.166   0.508  1.6515 -0.0693  2.0446
  895MOL0     H20765  -0.064   3.335   0.573  4.6220  2.3259 -1.5846
  895MOL0     H20766  -0.223   3.397   0.379  1.0878  0.3080 -2.6461
  895MOL0     H20767  -0.207   3.244   0.309 -4.5329  1.9578 -1.3648
  895MOL0     H20768  -0.287   3.198   0.578 -1.5398  2.0916  0.4770
  895MOL0     H20769  -0.347   3.363   0.551  1.3657  0.7267  1.3751
  895MOL0     H20770  -0.471   3.275   0.345  1.6024  2.5156  2.6351
  895MOL0     H20771  -0.394   3.120   0.369  2.0555  2.4439 -1.4507
  895MOL0     H20772  -0.505   3.099   0.583 -1.7050 -0.9351  0.6650
  895MOL0     H20773  -0.591   3.260   0.550 -1.7560 -1.5017  2.0086
  895MOL0     H20774  -0.603   3.011   0.368  0.4991 -0.6852  0.7736
  895MOL0     H20775  -0.678   3.160   0.331  0.8864 -0.7980 -1.4899
  895MOL0     H20776  -0.728   2.959   0.691 -0.7211 -0.5376 -1.0946
  895MOL0     H20777  -0.981   2.843   0.738 -2.0777 -1.6401 -1.3645
  895MOL0     H20778  -0.938   2.973   0.850 -1.2175  2.4903 -0.1276
  895MOL0     H20779  -1.180   2.928   0.844 -2.5158 -4.3523 -4.3502
  895MOL0     H20780  -1.190   2.973   0.678  0.3813 -0.5281  0.1175
  895MOL0     H20781  -1.109   3.207   0.727 -0.4141 -0.5254  0.3417
  895MOL0     H20782  -1.137   3.162   0.895 -1.2406 -2.9824  1.2357
  895MOL0     H20783  -1.352   3.152   0.681 -0.7557  0.4337  0.8346
  895MOL0     H20784  -1.327   3.259   0.827 -0.0691  1.8171 -1.7917
  895MOL0     H20785  -1.492   2.916   1.035 -4.2025 -1.3469  2.4477
  895MOL0     H20786  -1.604   2.882   1.205 -1.0350 -0.6946 -1.4697
  895MOL0     H20787  -1.664   3.020   1.294  4.4112  1.4659 -1.3594
  895MOL0     H20788  -1.776   2.904   1.206 -1.5983  0.5052  4.3044
  895MOL0     H20789  -2.192   3.202   1.187  2.0302 -0.8184  3.1131
  895MOL0     H20790  -2.323   3.338   1.320 -0.1239  1.3089  0.7638
  895MOL0     H20791  -2.409   3.471   1.435  3.5005 -1.5750 -1.2607
  895MOL0     H20792  -2.310   3.519   1.578 -0.6876  1.2784  2.1252
  895MOL0     H20793  -2.373   3.739   1.597 -0.1357 -0.8434 -0.7985
  895MOL0     H20794  -2.460   3.745   1.447  2.0535  2.6531  1.0439
  895MOL0     H20795  -2.612   3.564   1.538  3.8763 -2.6559 -0.1617
  895MOL0     H20796  -2.630   3.735   1.588  1.6909  2.3275 -2.0570
  895MOL0     H20797  -2.511   3.517   1.768 -1.4241 -1.0696  0.7710
  895MOL0     H20798  -2.530   3.688   1.803 -3.6166  2.8486 -2.5028
  895MOL0     H20799  -2.770   3.522   1.712  1.9742 -2.7581  1.1715
  895MOL0     H20800  -2.768   3.690   1.773 -1.1061 -1.5213 -0.0493
  895MOL0     H20801  -2.685   3.440   1.923 -0.4690 -0.7764  1.8921
  895MOL0     H20802  -2.690   3.603   1.991  1.2339 -0.2123 -1.1144
  895MOL0     H20803  -2.931   3.446   1.916  0.6921 -0.0313 -0.2687
  895MOL0     H20804  -2.940   3.617   1.909 -2.6597  0.0658  0.9019
  895MOL0     H20805  -2.878   3.602   2.163  1.0975 -1.8378  1.3742
  895MOL0     H20806  -2.916   3.431   2.138 -3.1637 -1.2862  0.4876
  895MOL0     H20807  -2.048   3.666   1.265  0.6130 -0.0152 -1.8515
  895MOL0     H20808  -1.906   3.516   1.124 -0.2483 -2.7436 -1.6604
  895MOL0     H20809  -1.779   3.282   0.891 -1.8683 -0.6500 -0.0709
  895MOL0     H20810  -1.561   3.241   0.772  1.2094 -0.4389 -0.7139
  895MOL0     H20811   0.241   3.100   0.753  1.3082 -1.5322 -1.2387
  895MOL0     H20812   0.396   3.173   0.944 -0.9416  0.1745  0.2502
  895MOL0     H20813   0.717   3.262   1.129  2.9763 -1.3368 -1.0985
  895MOL0     H20814   0.900   3.267   1.300  0.9190 -0.2500 -0.8843
  895MOL0     H20815   1.147   3.647   1.313  1.8227 -1.0321 -0.1521
  895MOL0     H20816   1.136   3.610   1.482 -0.8360  0.6994  0.0522
  895MOL0     H20817   1.275   3.418   1.458 -0.6336  0.4846  0.3611
  895MOL0     H20818   1.350   3.572   1.400  1.3630 -2.0977  0.6771
  895MOL0     H20819   1.249   3.346   1.217  0.9810 -2.3141  1.1496
  895MOL0     H20820   1.413   3.370   1.262 -0.1986  0.3229  2.1445
  895MOL0     H20821   1.406   3.599   1.132 -1.4643  1.8392 -2.3536
  895MOL0     H20822   1.230   3.590   1.123 -0.3692  1.3220 -1.1035
  895MOL0     H20823   1.290   3.349   0.819 -4.3934 -0.8302  1.0690
  895MOL0     H20824   0.986   3.676   1.206 -0.5347  0.2787 -3.0129
  895MOL0     H20825   0.820   3.675   1.034  1.2246 -0.6049  0.3858
  896MOL0     O20826   0.743   9.425   4.866  0.0531  1.0356  0.0571
  896MOL0     C20827   0.733   9.309   4.821  0.3686 -0.2020 -0.1695
  896MOL0     O20828   0.615   9.238   4.806  0.2770 -0.1192  0.1779
  896MOL0     C20829   0.497   9.308   4.830 -0.4044  0.5839 -0.1694
  896MOL0     C20830   0.450   9.307   4.963  0.1486  0.6726  0.0126
  896MOL0     C20831   0.332   9.367   5.000  0.1189  0.0366  0.3809
  896MOL0     C20832   0.248   9.423   4.905 -0.2809 -0.0453 -0.3297
  896MOL0     O20833   0.132   9.487   4.930 -0.5731 -0.5882 -0.0434
  896MOL0     C20834   0.038   9.438   5.022 -0.8691  0.4023 -0.6367
  896MOL0     C20835  -0.076   9.385   4.942  0.3991  0.7611  0.1057
  896MOL0     C20836  -0.180   9.492   4.917 -0.8265 -0.5931  0.4640
  896MOL0     C20837  -0.291   9.432   4.835 -0.2256 -0.5654 -0.1543
  896MOL0     C20838  -0.435   9.495   4.854 -1.2497  0.1765 -0.0176
  896MOL0     C20839  -0.488   9.489   5.001 -0.8220 -0.0911 -0.5746
  896MOL0     C20840  -0.608   9.587   5.016 -0.2221  0.0599 -0.9140
  896MOL0     C20841  -0.671   9.590   5.160 -0.4523  0.2347  0.4028
  896MOL0     N20842  -0.753   9.466   5.172 -0.0283  0.1474 -0.5380
  896MOL0     C20843  -0.853   9.427   5.077  0.8283 -0.0200 -0.8287
  896MOL0     C20844  -0.889   9.300   5.126  0.0552 -0.1841  0.4348
  896MOL0     C20845  -0.993   9.208   5.068 -0.3960 -0.4725 -0.7011
  896MOL0     C20846  -1.119   9.210   5.148  1.0070 -0.3941 -0.2651
  896MOL0     C20847  -1.241   9.166   5.069  0.2349  0.2118 -0.4741
  896MOL0     C20848  -1.317   9.264   4.992 -0.0771  1.1261  0.2025
  896MOL0     O20849  -1.430   9.223   4.910 -0.2727  0.5747  0.1663
  896MOL0     C20850  -1.399   9.159   4.791 -0.3856  0.7501 -0.0672
  896MOL0     C20851  -1.272   9.114   4.734  0.0390 -0.6088  0.3778
  896MOL0     C20852  -1.259   9.046   4.617 -0.7321 -1.1279  0.1220
  896MOL0     C20853  -1.112   9.016   4.580 -0.4258  0.2791  0.0497
  896MOL0     C20854  -1.381   9.023   4.535 -0.4734  0.2475  0.0510
  896MOL0     C20855  -1.377   8.978   4.396  0.4298  0.0463  0.2384
  896MOL0     O20856  -1.255   8.939   4.354  0.4634 -0.2026 -0.0228
  896MOL0     C20857  -1.224   8.924   4.228 -0.0627  0.3221  0.0439
  896MOL0     C20858  -1.271   8.822   4.141 -0.2271 -0.2490 -0.6204
  896MOL0     C20859  -1.224   8.812   4.009 -0.1477 -0.5863  1.0626
  896MOL0     C20860  -1.129   8.905   3.959 -0.1302 -0.0342 -0.3707
  896MOL0     O20861  -1.086   8.888   3.830  0.4032 -0.7270  0.0019
  896MOL0     C20862  -1.034   9.003   3.758  0.1084 -0.7860  0.5348
  896MOL0     C20863  -0.982   8.956   3.625  0.0411 -0.1757  0.4166
  896MOL0     C20864  -1.100   8.958   3.519  0.4493  0.7017 -0.2935
  896MOL0     C20865  -1.035   8.931   3.378  0.7312  0.1942 -0.7164
  896MOL0     C20866  -1.149   8.931   3.264 -0.9739 -0.3549  0.4194
  896MOL0     C20867  -1.199   9.077   3.239  0.2585  0.0742 -0.2166
  896MOL0     C20868  -1.101   9.163   3.165 -0.2116  0.2065 -0.4704
  896MOL0     C20869  -1.110   9.160   3.010  0.4943 -0.7121 -0.5090
  896MOL0    Cl20870  -0.958   9.219   2.959  0.2119 -0.8581  0.3241
  896MOL0     C20871  -1.096   9.010   4.043  0.0301  0.6093  0.1448
  896MOL0     C20872  -1.130   9.012   4.170  0.5799  0.3331 -0.7052
  896MOL0     O20873  -1.484   8.974   4.335  0.0672 -0.3759  0.5255
  896MOL0     C20874  -1.501   9.064   4.595 -0.5021 -0.0896  0.2097
  896MOL0     C20875  -1.510   9.121   4.720  0.1388 -0.0606 -0.1269
  896MOL0     N20876  -0.806   9.269   5.240 -0.2065 -0.0139  0.3662
  896MOL0     N20877  -0.729   9.366   5.263 -0.7379 -0.4572 -0.3833
  896MOL0     C20878   0.294   9.414   4.771  0.4654 -0.5485 -0.0056
  896MOL0     C20879   0.415   9.361   4.734 -0.1648 -0.3883 -0.0539
  896MOL0     C20880   0.858   9.250   4.760  0.0860  0.4856 -0.1742
  896MOL0     C20881   0.859   9.119   4.705 -0.9312  0.3267 -1.0151
  896MOL0     C20882   0.971   9.067   4.647 -1.0207  0.3330  0.3487
  896MOL0     C20883   1.095   9.135   4.642 -0.0034  0.0077  0.2984
  896MOL0     O20884   1.217   9.077   4.611  0.0617  0.3654  0.1417
  896MOL0     C20885   1.229   8.933   4.622  0.7774  0.1167 -0.1770
  896MOL0     C20886   1.367   8.884   4.577  0.5031 -0.6233  0.1754
  896MOL0     C20887   1.471   8.918   4.683 -0.1211  0.0461 -0.8693
  896MOL0     C20888   1.622   8.883   4.656  0.4371  0.1107  0.4244
  896MOL0     C20889   1.651   8.792   4.541  0.3927  0.4138  0.7699
  896MOL0     C20890   1.664   8.715   4.441  0.5069  0.1733 -0.0978
  896MOL0     C20891   1.095   9.265   4.698 -0.9192 -0.8014  0.1373
  896MOL0     C20892   0.983   9.319   4.760  0.9178  0.1167  0.2218
  896MOL0     H20893   0.519   9.258   5.032 -0.6809 -1.9815 -0.9188
  896MOL0     H20894   0.306   9.381   5.105  0.5789  0.6271  0.4169
  896MOL0     H20895   0.085   9.359   5.081  1.6569  1.7106 -0.7447
  896MOL0     H20896   0.006   9.515   5.094 -1.0872 -3.0087  3.3232
  896MOL0     H20897  -0.035   9.347   4.848 -0.7976  0.3192 -0.2494
  896MOL0     H20898  -0.126   9.295   4.979  0.3154 -0.2272 -2.2310
  896MOL0     H20899  -0.199   9.530   5.017  0.2431 -1.5581  1.0594
  896MOL0     H20900  -0.128   9.573   4.865 -0.0678 -1.0586  0.4953
  896MOL0     H20901  -0.260   9.431   4.730 -3.3464 -0.2378 -1.1816
  896MOL0     H20902  -0.303   9.326   4.858  2.0964 -1.3693 -2.2522
  896MOL0     H20903  -0.436   9.600   4.823 -1.5694  0.3067  0.4296
  896MOL0     H20904  -0.504   9.437   4.792 -2.1875  0.8605  0.3655
  896MOL0     H20905  -0.527   9.388   5.017  1.5261 -0.9920 -0.1137
  896MOL0     H20906  -0.413   9.520   5.075 -0.4388  2.5559 -1.9450
  896MOL0     H20907  -0.582   9.693   5.004 -1.0465  0.8441  2.7765
  896MOL0     H20908  -0.687   9.568   4.943 -0.1767 -1.9375 -0.4838
  896MOL0     H20909  -0.736   9.677   5.175 -0.7295 -0.3360  3.0152
  896MOL0     H20910  -0.591   9.599   5.233 -2.3517  1.3113  2.4989
  896MOL0     H20911  -0.879   9.484   4.988 -0.1261 -0.6037 -0.9352
  896MOL0     H20912  -0.990   9.249   4.967  0.6415  1.4279  0.0422
  896MOL0     H20913  -0.963   9.103   5.061 -0.1578 -0.3711 -1.2139
  896MOL0     H20914  -1.139   9.313   5.181 -4.3225 -1.0804 -0.4933
  896MOL0     H20915  -1.109   9.145   5.235  2.4620 -1.3946 -1.1350
  896MOL0     H20916  -1.317   9.112   5.125  0.4226  0.9348  0.5039
  896MOL0     H20917  -1.209   9.091   4.995 -3.6557 -4.1889  1.8047
  896MOL0     H20918  -1.251   9.317   4.923 -0.3314  0.8342 -0.2708
  896MOL0     H20919  -1.351   9.340   5.064 -0.5582  0.7333  0.4006
  896MOL0     H20920  -1.184   9.153   4.784 -0.1758 -0.3865  0.5848
  896MOL0     H20921  -1.084   9.061   4.484  1.7979  1.3562  1.1513
  896MOL0     H20922  -1.049   9.066   4.654  0.5040  0.4361 -0.8174
  896MOL0     H20923  -1.105   8.907   4.575 -1.6829  0.2213 -1.7809
  896MOL0     H20924  -1.354   8.759   4.172 -0.4356  0.8004  1.0945
  896MOL0     H20925  -1.260   8.735   3.941 -0.8880  0.0581  0.7100
  896MOL0     H20926  -1.120   9.068   3.744  0.4877 -0.1661  1.0778
  896MOL0     H20927  -0.951   9.059   3.803 -1.7639  1.2232  1.6363
  896MOL0     H20928  -0.900   9.017   3.586 -0.7009  0.2704 -0.4865
  896MOL0     H20929  -0.953   8.852   3.636 -2.5805 -1.1775 -1.1457
  896MOL0     H20930  -1.165   9.046   3.525 -1.8567 -0.7029 -2.4983
  896MOL0     H20931  -1.169   8.875   3.537  0.7002  0.4898 -0.3115
  896MOL0     H20932  -0.959   9.010   3.375 -0.7103  2.0661  3.7833
  896MOL0     H20933  -0.988   8.833   3.383  1.8950  0.7917  0.4274
  896MOL0     H20934  -1.226   8.866   3.307  0.9269 -2.1353  1.2946
  896MOL0     H20935  -1.103   8.900   3.169 -1.2360  0.7154 -0.0636
  896MOL0     H20936  -1.298   9.079   3.192  0.0919  0.5583  0.1585
  896MOL0     H20937  -1.224   9.129   3.332 -1.1847 -1.3321  0.2379
  896MOL0     H20938  -0.995   9.155   3.191 -0.6126 -0.1931  1.1856
  896MOL0     H20939  -1.108   9.270   3.188 -3.6564  0.5744 -2.5043
  896MOL0     H20940  -1.190   9.220   2.966  0.3089 -0.5465  0.0415
  896MOL0     H20941  -1.117   9.058   2.969 -0.2504 -0.8674 -0.0341
  896MOL0     H20942  -1.020   9.084   4.017  0.9677  0.0404  1.1756
  896MOL0     H20943  -1.096   9.098   4.227 -1.7576 -0.8333  2.8266
  896MOL0     H20944  -1.589   9.052   4.532 -0.8330  0.5842  0.5432
  896MOL0     H20945  -1.614   9.135   4.748 -1.0460 -1.7248 -3.1843
  896MOL0     H20946   0.238   9.460   4.690  1.4649  0.3402 -0.2149
  896MOL0     H20947   0.451   9.369   4.632 -1.3404  1.6888 -0.3756
  896MOL0     H20948   0.772   9.054   4.705  0.9205 -2.4142  0.6145
  896MOL0     H20949   0.961   8.971   4.597 -0.6543  0.8786 -0.8204
  896MOL0     H20950   1.192   8.895   4.717 -1.4460  1.8765 -0.2486
  896MOL0     H20951   1.162   8.887   4.548  1.0027  1.3598 -1.1884
  896MOL0     H20952   1.398   8.935   4.485  0.1969 -1.5911 -0.4800
  896MOL0     H20953   1.365   8.779   4.547 -2.6379 -0.0821 -1.8793
  896MOL0     H20954   1.454   8.858   4.773  3.2111 -1.9117 -1.3873
  896MOL0     H20955   1.470   9.024   4.713  0.8966  0.0669 -0.8488
  896MOL0     H20956   1.661   8.836   4.747  1.8124 -1.2745 -0.8324
  896MOL0     H20957   1.681   8.968   4.621 -0.7539 -0.4490 -3.4984
  896MOL0     H20958   1.668   8.640   4.364  1.4343 -1.8253  1.7710
  896MOL0     H20959   1.185   9.325   4.690 -0.3797 -1.6380 -0.2617
  896MOL0     H20960   1.011   9.414   4.802  0.9557  0.4083 -0.4442
  897MOL0     O20961  10.625   8.743   3.701  0.2761 -0.1422 -0.2354
  897MOL0     C20962  10.687   8.853   3.700 -0.0505  0.9642 -0.5916
  897MOL0     O20963  10.729   8.918   3.592 -0.1097  0.3383  1.4416
  897MOL0     C20964  10.682   8.883   3.466  0.0313 -0.7035 -0.1751
  897MOL0     C20965  10.680   8.979   3.364 -0.4688 -0.4562  0.6044
  897MOL0     C20966  10.661   8.932   3.230 -0.2968  0.4178  0.8761
  897MOL0     C20967  10.639   8.797   3.198  0.0483 -0.1658 -0.7841
  897MOL0     O20968  10.613   8.771   3.066 -1.3104  0.0181 -0.5129
  897MOL0     C20969  10.584   8.639   3.027  0.2855 -0.1205  0.1808
  897MOL0     C20970  10.541   8.637   2.877  1.0965  0.2706 -0.4073
  897MOL0     C20971  10.398   8.699   2.863 -1.6678  0.6642  0.9276
  897MOL0     C20972  10.363   8.701   2.723 -0.1991  1.1257  0.5919
  897MOL0     C20973  10.228   8.766   2.699  0.1787  1.0865 -0.4910
  897MOL0     C20974  10.156   8.746   2.561 -0.1622  0.0029  0.4886
  897MOL0     C20975  10.099   8.616   2.518 -0.1357 -0.1913 -0.0116
  897MOL0     C20976   9.978   8.565   2.594 -0.0268  0.2158 -0.1603
  897MOL0     N20977   9.910   8.447   2.539  0.0131 -0.2428 -0.2785
  897MOL0     C20978   9.796   8.446   2.464 -0.6475  0.3886  1.0099
  897MOL0     C20979   9.777   8.309   2.430  0.0374 -0.1581  0.1353
  897MOL0     C20980   9.677   8.269   2.320 -0.2374 -0.2062  0.5601
  897MOL0     C20981   9.533   8.269   2.353 -0.4938  0.0900  0.3063
  897MOL0     C20982   9.453   8.224   2.239  0.3521  0.4952  0.4985
  897MOL0     C20983   9.306   8.267   2.263  0.3055 -0.6188  0.0052
  897MOL0     O20984   9.268   8.226   2.394 -0.7214  0.2832  0.0344
  897MOL0     C20985   9.131   8.206   2.403 -0.2103 -1.2036  0.1027
  897MOL0     C20986   9.037   8.313   2.371 -0.3995 -0.0516  0.3221
  897MOL0     C20987   8.899   8.289   2.388  0.0343 -0.1212  0.0240
  897MOL0     C20988   8.803   8.396   2.345  0.0462 -0.3441 -0.1156
  897MOL0     C20989   8.854   8.158   2.430  0.5685 -0.3818 -0.3011
  897MOL0     C20990   8.713   8.116   2.449  0.2812 -0.9213  0.1862
  897MOL0     O20991   8.695   7.988   2.479  0.5792 -0.5266  0.2212
  897MOL0     C20992   8.568   7.935   2.459  0.0354 -0.2127  0.3793
  897MOL0     C20993   8.512   7.911   2.325  0.4654 -0.1771  0.8396
  897MOL0     C20994   8.377   7.871   2.318 -0.0648  0.9535 -0.2205
  897MOL0     C20995   8.308   7.839   2.436  0.4923 -0.6694 -0.2772
  897MOL0     O20996   8.175   7.813   2.405  0.6342  0.5196 -0.2675
  897MOL0     C20997   8.098   7.730   2.496  0.5594 -0.0103  0.3943
  897MOL0     C20998   7.954   7.721   2.453  0.2633 -0.1430 -0.1661
  897MOL0     C20999   7.958   7.645   2.322 -0.0712  0.1351  0.6890
  897MOL0     C21000   7.935   7.489   2.335  0.2128 -0.1508  0.1142
  897MOL0     C21001   7.887   7.422   2.206 -0.3415 -0.0586 -0.6029
  897MOL0     C21002   7.883   7.268   2.231  0.3214  0.1420 -0.0090
  897MOL0     C21003   8.012   7.196   2.279  0.1735 -0.1715 -0.0062
  897MOL0     C21004   7.987   7.045   2.310 -0.1432 -0.0520  0.1239
  897MOL0    Cl21005   7.997   6.947   2.158 -0.1907 -0.3491 -0.0271
  897MOL0     C21006   8.362   7.858   2.561  0.6062 -0.0066  0.3779
  897MOL0     C21007   8.490   7.895   2.572  0.5769 -0.1287  0.5067
  897MOL0     O21008   8.627   8.203   2.463  0.0749  0.8803  0.2942
  897MOL0     C21009   8.955   8.073   2.477  0.0406  0.4832  0.7311
  897MOL0     C21010   9.090   8.090   2.464 -0.4656  0.2293  0.3822
  897MOL0     N21011   9.872   8.234   2.504  0.2674  0.4516  0.8475
  897MOL0     N21012   9.957   8.315   2.552 -0.2751 -0.7401 -0.8509
  897MOL0     C21013  10.636   8.706   3.304  0.1152 -0.9880 -0.2078
  897MOL0     C21014  10.660   8.749   3.433  0.0257  0.0120  0.0435
  897MOL0     C21015  10.690   8.937   3.823  0.0200 -0.5106  0.0005
  897MOL0     C21016  10.625   8.902   3.940  0.1528 -0.3045 -0.3338
  897MOL0     C21017  10.616   8.990   4.046  0.0656 -0.7957 -0.2576
  897MOL0     C21018  10.680   9.122   4.046 -0.4826  0.0211 -0.3497
  897MOL0     O21019  10.683   9.212   4.156  0.5993 -0.2995  0.3636
  897MOL0     C21020  10.629   9.166   4.278 -0.3377  1.2582  0.1073
  897MOL0     C21021  10.658   9.252   4.397 -1.6381 -0.5157 -0.1598
  897MOL0     C21022  10.595   9.186   4.520 -0.8106 -1.0960 -0.1016
  897MOL0     C21023  10.599   9.285   4.632 -0.1877 -0.3465 -0.5997
  897MOL0     C21024  10.480   9.355   4.666  0.4987 -0.7679 -0.8372
  897MOL0     C21025  10.376   9.407   4.709  0.5314  1.2009  0.8050
  897MOL0     C21026  10.755   9.156   3.934 -0.2393 -0.3576 -0.4459
  897MOL0     C21027  10.761   9.064   3.826  0.5896 -1.1917 -0.2974
  897MOL0     H21028  10.719   9.078   3.385 -2.2900  0.3617  0.3198
  897MOL0     H21029  10.679   9.011   3.157 -1.3161 -1.3260 -1.4131
  897MOL0     H21030  10.664   8.567   3.045  1.2026  1.1682  1.5643
  897MOL0     H21031  10.506   8.603   3.095  1.4260 -1.4318  0.8384
  897MOL0     H21032  10.618   8.685   2.816  0.7899  0.3917 -0.7011
  897MOL0     H21033  10.542   8.532   2.847  0.5878  0.3909 -0.8686
  897MOL0     H21034  10.330   8.641   2.926 -1.1014 -2.3831 -1.0621
  897MOL0     H21035  10.385   8.797   2.911  0.8506  1.1006  0.8825
  897MOL0     H21036  10.453   8.741   2.675  1.0464 -0.9377  1.0697
  897MOL0     H21037  10.366   8.597   2.690  0.5835  1.7456 -1.4084
  897MOL0     H21038  10.161   8.731   2.778  1.4723  3.3069  1.7264
  897MOL0     H21039  10.252   8.872   2.709 -1.2523  1.2290  2.6510
  897MOL0     H21040  10.062   8.802   2.555 -0.6525 -0.8134  0.5038
  897MOL0     H21041  10.221   8.773   2.478 -0.0998 -1.2467  0.1117
  897MOL0     H21042  10.077   8.629   2.411  1.1045  0.1082 -0.2449
  897MOL0     H21043  10.184   8.547   2.514  0.4326  0.5331 -0.6682
  897MOL0     H21044   9.909   8.650   2.596  0.2541  0.8743 -5.2417
  897MOL0     H21045  10.018   8.537   2.692  1.8176  0.3274 -0.8354
  897MOL0     H21046   9.753   8.536   2.422  2.6458  1.7634  0.2354
  897MOL0     H21047   9.704   8.329   2.233  1.8224 -1.1582  0.4613
  897MOL0     H21048   9.698   8.164   2.296 -1.5124 -0.7088  1.5561
  897MOL0     H21049   9.513   8.371   2.389  2.1662  0.7456  0.1196
  897MOL0     H21050   9.518   8.207   2.442 -0.2471 -0.1318  0.1951
  897MOL0     H21051   9.463   8.118   2.216 -1.0687  0.7824 -1.7162
  897MOL0     H21052   9.485   8.271   2.145  1.0413 -0.0590  0.4549
  897MOL0     H21053   9.243   8.216   2.190 -1.3585  1.1509  0.1327
  897MOL0     H21054   9.290   8.375   2.264  2.6796 -0.1787  2.2261
  897MOL0     H21055   9.079   8.408   2.340  1.0834 -1.0593 -0.8925
  897MOL0     H21056   8.730   8.354   2.274  1.7182  0.2114 -2.2754
  897MOL0     H21057   8.758   8.438   2.435  1.6690  1.1329  0.0619
  897MOL0     H21058   8.855   8.477   2.294 -1.5364  0.0538 -1.1833
  897MOL0     H21059   8.560   7.952   2.237 -0.7164  3.1534  1.6256
  897MOL0     H21060   8.318   7.869   2.227 -3.7758 -0.4422  1.9785
  897MOL0     H21061   8.148   7.634   2.510  1.6785  0.7012  1.5679
  897MOL0     H21062   8.101   7.773   2.597  1.5732 -1.1827  0.8880
  897MOL0     H21063   7.887   7.681   2.530 -0.2263  0.2847 -0.3630
  897MOL0     H21064   7.925   7.823   2.424 -0.8437 -0.8011 -1.4166
  897MOL0     H21065   8.052   7.661   2.268 -0.4263  0.1390  0.0643
  897MOL0     H21066   7.868   7.680   2.270 -0.8157 -1.3783  0.8860
  897MOL0     H21067   8.031   7.455   2.375  0.6341  0.2011 -0.5683
  897MOL0     H21068   7.861   7.466   2.412 -2.5362 -0.7281 -2.5099
  897MOL0     H21069   7.963   7.446   2.131  0.8606 -0.1894  0.5368
  897MOL0     H21070   7.797   7.474   2.171 -0.3983  0.5593  0.4089
  897MOL0     H21071   7.811   7.250   2.312  0.6092 -0.5600  0.0964
  897MOL0     H21072   7.851   7.214   2.142  1.1383 -0.3190 -0.0367
  897MOL0     H21073   8.041   7.246   2.372 -3.1518  1.2575  0.4168
  897MOL0     H21074   8.099   7.204   2.213  0.7895 -1.3207  0.6411
  897MOL0     H21075   7.897   7.031   2.370  1.5189 -2.5610  2.2771
  897MOL0     H21076   8.066   7.015   2.379  0.5958 -0.0232 -0.6853
  897MOL0     H21077   8.294   7.840   2.644 -0.9404  1.2354 -0.5580
  897MOL0     H21078   8.526   7.887   2.675 -3.9484 -2.8482  2.1717
  897MOL0     H21079   8.914   7.989   2.533  1.2012  0.6936  1.9367
  897MOL0     H21080   9.163   8.016   2.495 -0.3153  0.7483  1.2957
  897MOL0     H21081  10.620   8.600   3.288 -1.6556 -0.7602 -0.1990
  897MOL0     H21082  10.650   8.664   3.500  1.8603 -1.3448 -1.2936
  897MOL0     H21083  10.565   8.811   3.942  0.3938 -0.5347 -1.9325
  897MOL0     H21084  10.555   8.963   4.131 -2.8444 -1.5863 -2.4288
  897MOL0     H21085  10.523   9.145   4.266 -0.3713  0.7864  1.1033
  897MOL0     H21086  10.684   9.072   4.289  0.9738  1.9299 -0.3804
  897MOL0     H21087  10.626   9.355   4.380 -1.9951 -0.7556 -0.9676
  897MOL0     H21088  10.766   9.261   4.408 -1.4761 -1.7682 -0.5882
  897MOL0     H21089  10.654   9.102   4.557  1.2799  0.5962  0.6313
  897MOL0     H21090  10.490   9.162   4.501 -1.5445  0.4567  1.6632
  897MOL0     H21091  10.677   9.361   4.621 -2.3073  1.6669 -2.8380
  897MOL0     H21092  10.619   9.233   4.726  0.8296  0.5516 -0.2868
  897MOL0     H21093  10.293   9.469   4.739  0.1785  0.9458  0.3738
  897MOL0     H21094  10.808   9.248   3.913 -1.5684  0.3582 -0.7887
  897MOL0     H21095  10.826   9.094   3.744 -3.2459  0.3115 -3.1051
  898MOL0     O21096   8.286   7.545   6.884 -0.8081 -0.7745  0.3770
  898MOL0     C21097   8.306   7.429   6.936  0.2809 -0.2867  0.1971
  898MOL0     O21098   8.222   7.321   6.925 -0.1384  0.2950 -0.3511
  898MOL0     C21099   8.098   7.351   6.877 -0.0126  0.1180 -0.6814
  898MOL0     C21100   8.053   7.283   6.769 -0.6161 -0.3179 -0.7105
  898MOL0     C21101   7.917   7.304   6.722  0.6353 -0.7980  1.5726
  898MOL0     C21102   7.834   7.398   6.784 -0.4254 -0.0519  0.0498
  898MOL0     O21103   7.710   7.405   6.735  0.4336 -0.4705 -0.2200
  898MOL0     C21104   7.622   7.502   6.780  0.8927 -0.0030  0.3240
  898MOL0     C21105   7.543   7.461   6.912 -0.0032 -0.1897  0.2746
  898MOL0     C21106   7.431   7.351   6.886 -0.6626  0.5260  0.4054
  898MOL0     C21107   7.312   7.401   6.803 -0.7840  0.1579 -0.2056
  898MOL0     C21108   7.185   7.325   6.831  0.5294 -0.3190 -0.1723
  898MOL0     C21109   7.208   7.178   6.821 -0.7497 -0.4928 -0.7076
  898MOL0     C21110   7.255   7.120   6.689 -0.7700 -0.0338  0.8148
  898MOL0     C21111   7.173   7.173   6.562 -0.0879  0.6359 -0.1679
  898MOL0     N21112   7.032   7.187   6.587  0.1071  0.0060  0.4925
  898MOL0     C21113   6.949   7.083   6.627  0.2076 -0.2048 -0.3038
  898MOL0     C21114   6.827   7.141   6.658  0.2656 -0.9059 -0.6072
  898MOL0     C21115   6.701   7.076   6.716 -1.2529 -0.6217  0.4538
  898MOL0     C21116   6.608   7.057   6.600  0.0143 -0.2131  0.7112
  898MOL0     C21117   6.523   6.931   6.621 -0.4081 -0.0785 -0.2618
  898MOL0     C21118   6.396   6.941   6.536 -0.9924  0.1128 -0.2336
  898MOL0     O21119   6.317   7.045   6.589  0.1001  0.4360  0.0434
  898MOL0     C21120   6.184   7.042   6.573  0.3505 -0.9994  0.5342
  898MOL0     C21121   6.112   6.945   6.516 -0.2229 -0.5747  0.9252
  898MOL0     C21122   5.971   6.956   6.488 -0.3662  0.2537 -0.7904
  898MOL0     C21123   5.908   6.847   6.413 -0.0341 -0.0693 -0.5224
  898MOL0     C21124   5.903   7.064   6.545 -0.0666  0.4482 -0.7100
  898MOL0     C21125   5.759   7.073   6.529  0.0897  0.6108 -0.4069
  898MOL0     O21126   5.705   7.195   6.548 -1.1459  0.6821  0.0794
  898MOL0     C21127   5.586   7.216   6.511 -0.1642 -0.1930 -0.2137
  898MOL0     C21128   5.496   7.273   6.608 -0.8037 -0.0705  0.4836
  898MOL0     C21129   5.373   7.317   6.571  0.2804  0.1768 -0.7565
  898MOL0     C21130   5.323   7.280   6.442  0.0634  0.2781 -0.4246
  898MOL0     O21131   5.190   7.312   6.415  0.4581  0.9631  0.3339
  898MOL0     C21132   5.116   7.209   6.343  0.2381 -0.0425  0.3319
  898MOL0     C21133   5.010   7.151   6.436  0.2532  0.0048  0.6343
  898MOL0     C21134   4.906   7.079   6.354  0.0811 -0.4880  0.5682
  898MOL0     C21135   4.815   6.992   6.441 -0.0177  1.0121 -0.1751
  898MOL0     C21136   4.694   6.938   6.368 -0.9594 -0.3981  0.0534
  898MOL0     C21137   4.585   6.877   6.471  0.7587 -0.2499  0.0777
  898MOL0     C21138   4.456   6.846   6.390 -0.1019 -0.7070 -0.5289
  898MOL0     C21139   4.336   6.828   6.490 -0.6387 -0.3715  0.0565
  898MOL0    Cl21140   4.168   6.815   6.417 -0.1786  0.0201  0.1433
  898MOL0     C21141   5.408   7.218   6.346 -0.4307  0.4035  0.1694
  898MOL0     C21142   5.537   7.186   6.380  0.6238  1.7290 -1.1372
  898MOL0     O21143   5.686   6.969   6.532  0.2985 -0.2083 -0.5862
  898MOL0     C21144   5.979   7.172   6.601 -0.4590  0.2682  0.8152
  898MOL0     C21145   6.121   7.164   6.610  1.3124 -0.2611 -0.5046
  898MOL0     N21146   6.839   7.271   6.619  0.3793  0.2719 -0.2974
  898MOL0     N21147   6.958   7.295   6.577 -0.9056 -0.2115  0.3368
  898MOL0     C21148   7.892   7.481   6.883 -0.1550 -0.4160 -0.2267
  898MOL0     C21149   8.019   7.454   6.933  0.7295 -0.1215 -0.1374
  898MOL0     C21150   8.436   7.413   7.001 -0.5393  0.2825 -1.0621
  898MOL0     C21151   8.518   7.529   7.031 -0.6214 -0.3041  0.5763
  898MOL0     C21152   8.654   7.513   7.073  0.1236  0.3831 -0.5051
  898MOL0     C21153   8.697   7.380   7.102  0.0758  0.5071 -0.4923
  898MOL0     O21154   8.829   7.375   7.149 -0.0257 -0.9242 -0.1148
  898MOL0     C21155   8.898   7.255   7.112 -0.0139 -0.5498  0.4299
  898MOL0     C21156   9.043   7.235   7.167  0.9487 -0.6293  0.0401
  898MOL0     C21157   9.129   7.356   7.136 -0.3647  0.7610 -0.0373
  898MOL0     C21158   9.100   7.472   7.240 -0.7269 -0.3697 -0.0647
  898MOL0     C21159   9.212   7.575   7.231 -0.2020  0.3244  0.6406
  898MOL0     C21160   9.315   7.642   7.207 -0.8307  0.5942  0.7318
  898MOL0     C21161   8.610   7.270   7.080 -0.4472  0.2581  0.2521
  898MOL0     C21162   8.483   7.283   7.035  0.5195 -0.1471  0.0079
  898MOL0     H21163   8.115   7.208   6.721  0.1030  0.0248 -0.3379
  898MOL0     H21164   7.876   7.255   6.635  0.4174  2.8321 -0.5616
  898MOL0     H21165   7.678   7.596   6.787  1.3638 -0.1847 -0.8986
  898MOL0     H21166   7.552   7.531   6.702  0.8461  1.0692  0.7455
  898MOL0     H21167   7.625   7.423   6.974  0.9700 -1.8199 -1.8693
  898MOL0     H21168   7.494   7.545   6.960  0.0497 -0.5900  1.0463
  898MOL0     H21169   7.469   7.259   6.841 -0.0616 -0.0120  1.9241
  898MOL0     H21170   7.407   7.328   6.990 -0.5715  4.0841  1.3326
  898MOL0     H21171   7.293   7.500   6.845 -0.8694  0.2084 -0.3627
  898MOL0     H21172   7.340   7.418   6.698 -1.8263  1.9141 -0.2337
  898MOL0     H21173   7.136   7.359   6.923 -2.4525  3.0161 -2.6872
  898MOL0     H21174   7.108   7.354   6.759  0.7319  0.3261 -0.1392
  898MOL0     H21175   7.273   7.152   6.905 -2.4927 -1.8543  0.2756
  898MOL0     H21176   7.119   7.126   6.857  0.2289  0.3513  3.3428
  898MOL0     H21177   7.363   7.132   6.673 -1.1430  0.2973 -1.9895
  898MOL0     H21178   7.254   7.011   6.691 -2.3602 -0.1447 -1.4181
  898MOL0     H21179   7.192   7.096   6.487  2.3410 -0.4501  1.4102
  898MOL0     H21180   7.210   7.268   6.520  0.9806 -0.9608 -3.1191
  898MOL0     H21181   6.992   6.986   6.649 -1.2494 -0.3261  2.3659
  898MOL0     H21182   6.713   6.980   6.766  2.1025  0.0174  1.1560
  898MOL0     H21183   6.655   7.147   6.786  2.2049  0.8253  1.4946
  898MOL0     H21184   6.661   7.028   6.509 -0.1611 -1.5775  1.0140
  898MOL0     H21185   6.551   7.150   6.600  0.0320 -0.1981  0.1526
  898MOL0     H21186   6.502   6.926   6.728 -0.2349  0.8942 -0.1753
  898MOL0     H21187   6.585   6.849   6.583 -0.3644  0.5396 -1.5957
  898MOL0     H21188   6.353   6.842   6.557 -2.1541  0.5465 -0.5363
  898MOL0     H21189   6.410   6.956   6.429 -1.0475  1.3098 -0.0842
  898MOL0     H21190   6.158   6.858   6.469 -3.4613 -0.5032 -2.9619
  898MOL0     H21191   5.858   6.778   6.481 -0.1267 -1.3037 -1.7776
  898MOL0     H21192   5.851   6.884   6.327  1.3772 -1.3113 -2.0655
  898MOL0     H21193   5.978   6.780   6.362 -1.1402 -0.0739 -2.1192
  898MOL0     H21194   5.528   7.295   6.710  2.8627 -3.6880  0.4255
  898MOL0     H21195   5.305   7.363   6.642 -1.4425  1.8490 -3.3395
  898MOL0     H21196   5.067   7.258   6.259  1.8777 -0.3984 -0.8795
  898MOL0     H21197   5.190   7.139   6.303  2.6773  1.3334  2.1140
  898MOL0     H21198   5.053   7.077   6.504 -0.4925 -1.7646 -0.7291
  898MOL0     H21199   4.964   7.232   6.493 -3.1207 -1.7095  0.5577
  898MOL0     H21200   4.953   7.016   6.277  0.4218  2.0484 -1.4289
  898MOL0     H21201   4.840   7.150   6.302  0.7401 -1.1872 -1.3320
  898MOL0     H21202   4.866   6.900   6.470 -0.4671  1.9779  4.4538
  898MOL0     H21203   4.785   7.033   6.538  3.1950 -0.1334  1.4692
  898MOL0     H21204   4.731   6.867   6.293  0.0131 -0.0248  0.1598
  898MOL0     H21205   4.665   7.031   6.320  1.0127 -0.0355 -0.5489
  898MOL0     H21206   4.630   6.792   6.523 -2.1651 -2.6702 -1.0258
  898MOL0     H21207   4.565   6.961   6.537  0.1077  0.8803 -1.4895
  898MOL0     H21208   4.469   6.762   6.320 -0.7872  1.1999 -3.1007
  898MOL0     H21209   4.440   6.933   6.326 -0.4067 -1.7353 -1.9153
  898MOL0     H21210   4.335   6.917   6.553 -0.7959  0.7457 -1.4657
  898MOL0     H21211   4.353   6.743   6.557  0.0169  0.0828  0.4827
  898MOL0     H21212   5.371   7.207   6.245  1.5099 -2.0657 -0.3962
  898MOL0     H21213   5.603   7.133   6.312 -1.1950  0.4989 -2.0399
  898MOL0     H21214   5.934   7.265   6.636 -0.0806 -0.0312  2.1419
  898MOL0     H21215   6.174   7.253   6.641 -2.0898  0.6364  3.6599
  898MOL0     H21216   7.827   7.561   6.917 -0.4090 -0.6052 -0.2640
  898MOL0     H21217   8.049   7.526   7.008  0.0059  0.8395 -0.7440
  898MOL0     H21218   8.505   7.633   7.001  0.7303 -0.6918 -1.5861
  898MOL0     H21219   8.720   7.597   7.091  2.1440 -1.3251  0.4007
  898MOL0     H21220   8.835   7.178   7.159 -2.3990  0.5565 -0.7780
  898MOL0     H21221   8.896   7.233   7.005 -0.8616 -3.4251  0.9429
  898MOL0     H21222   9.073   7.143   7.117 -0.9321 -0.5358 -1.3442
  898MOL0     H21223   9.040   7.208   7.273  1.9456 -3.4549 -0.5510
  898MOL0     H21224   9.121   7.384   7.031 -0.2494 -0.3001 -0.3369
  898MOL0     H21225   9.230   7.316   7.146  0.3105  2.7444  1.7803
  898MOL0     H21226   9.111   7.440   7.344  0.0929 -2.4413 -0.7403
  898MOL0     H21227   8.999   7.514   7.233 -1.2303 -1.2516  1.4182
  898MOL0     H21228   9.410   7.690   7.191 -0.7443 -0.1716 -1.5226
  898MOL0     H21229   8.650   7.173   7.109  0.4936  0.4000 -0.5299
  898MOL0     H21230   8.428   7.190   7.022  0.3325  0.0053 -0.3145
  899MOL0     O21231   0.679   4.196   5.333  0.2442  0.6914  0.2817
  899MOL0     C21232   0.744   4.298   5.317  0.4786  0.3905 -0.0463
  899MOL0     O21233   0.726   4.415   5.387  0.1916 -0.3599  0.4758
  899MOL0     C21234   0.633   4.411   5.486  0.0309 -0.2204  0.0066
  899MOL0     C21235   0.675   4.455   5.610  0.1130  0.1790  0.8198
  899MOL0     C21236   0.595   4.466   5.721 -0.0517 -0.1757 -0.3146
  899MOL0     C21237   0.469   4.407   5.715  0.4375 -0.3644  0.5545
  899MOL0     O21238   0.375   4.391   5.817  0.4601 -0.4535 -0.1885
  899MOL0     C21239   0.373   4.500   5.912  0.1568 -0.4777  0.2588
  899MOL0     C21240   0.234   4.497   5.979  0.5504  0.3311  0.0457
  899MOL0     C21241   0.119   4.478   5.874  0.2245 -0.1578 -0.4113
  899MOL0     C21242  -0.001   4.441   5.958  0.3808  0.8606  0.2471
  899MOL0     C21243  -0.122   4.411   5.866 -0.1488  0.1329  0.5440
  899MOL0     C21244  -0.251   4.458   5.916 -0.5168  0.3164  0.8883
  899MOL0     C21245  -0.280   4.401   6.059 -0.1467  0.4332  0.9035
  899MOL0     C21246  -0.436   4.379   6.074  0.0432 -0.5571  0.1750
  899MOL0     N21247  -0.502   4.281   5.976  0.3010 -0.0220  0.7988
  899MOL0     C21248  -0.507   4.144   5.987 -0.5053  0.6246  0.1935
  899MOL0     C21249  -0.588   4.091   5.894  0.9799  0.8822 -0.3670
  899MOL0     C21250  -0.610   3.946   5.870  0.9884  0.0762  0.1412
  899MOL0     C21251  -0.762   3.914   5.869  0.2539  0.0112  0.5407
  899MOL0     C21252  -0.833   3.894   6.006  0.6594  0.6448  0.3481
  899MOL0     C21253  -0.980   3.858   5.986 -0.1325  0.9863 -0.0668
  899MOL0     O21254  -0.988   3.725   5.931  0.8976 -0.2855 -1.1078
  899MOL0     C21255  -1.109   3.656   5.919  0.0723  0.0452 -0.0240
  899MOL0     C21256  -1.236   3.707   5.936  0.4228  0.7437 -0.0889
  899MOL0     C21257  -1.349   3.620   5.947  0.3016  0.1141 -0.3075
  899MOL0     C21258  -1.480   3.682   5.985  0.5946  0.5223 -0.2521
  899MOL0     C21259  -1.332   3.477   5.925 -0.0205 -0.2109 -1.5553
  899MOL0     C21260  -1.448   3.374   5.929  0.2240  1.1870 -0.0889
  899MOL0     O21261  -1.431   3.244   5.956 -0.4347 -0.2413  0.0747
  899MOL0     C21262  -1.531   3.147   5.926 -0.6322  0.1986 -0.1008
  899MOL0     C21263  -1.559   3.061   6.025  0.8138  0.6458 -0.1194
  899MOL0     C21264  -1.649   2.962   6.012  0.7199  0.3066  0.3012
  899MOL0     C21265  -1.732   2.952   5.899  0.4044 -0.6522  0.4257
  899MOL0     O21266  -1.828   2.856   5.900 -0.1865 -0.1767  0.9506
  899MOL0     C21267  -1.914   2.830   5.791  0.0241 -0.5560  1.0041
  899MOL0     C21268  -2.051   2.814   5.858  0.4230 -0.3109 -0.1319
  899MOL0     C21269  -2.175   2.774   5.775 -0.1873  0.0369  0.2866
  899MOL0     C21270  -2.214   2.878   5.670  0.6199  0.3875  0.3983
  899MOL0     C21271  -2.359   2.860   5.616  0.1485 -0.1629  0.1620
  899MOL0     C21272  -2.411   2.974   5.531 -0.4466 -0.1797 -0.1867
  899MOL0     C21273  -2.312   3.025   5.428 -0.3689 -0.6117  0.2413
  899MOL0     C21274  -2.379   3.124   5.331  0.2469 -0.6569  0.4418
  899MOL0    Cl21275  -2.435   3.265   5.417  0.2699 -0.2170 -0.1319
  899MOL0     C21276  -1.691   3.039   5.793 -0.8414  0.5699 -0.3516
  899MOL0     C21277  -1.597   3.139   5.805  0.9711  0.6064  0.3213
  899MOL0     O21278  -1.551   3.413   5.883 -0.6036 -0.4471 -0.1634
  899MOL0     C21279  -1.200   3.435   5.903  0.4254  0.4371 -0.4828
  899MOL0     C21280  -1.095   3.523   5.897 -0.4774 -0.2321  0.6545
  899MOL0     N21281  -0.639   4.202   5.822  0.1697 -0.3425  0.0820
  899MOL0     N21282  -0.589   4.312   5.875  0.3888 -0.4935 -0.2969
  899MOL0     C21283   0.426   4.350   5.591  0.2221  0.2441 -0.3166
  899MOL0     C21284   0.506   4.354   5.482  0.5049 -0.6911  0.0534
  899MOL0     C21285   0.838   4.300   5.195  0.5978  0.0990 -0.4865
  899MOL0     C21286   0.909   4.417   5.176 -0.1266  1.0936  0.1740
  899MOL0     C21287   0.980   4.434   5.062 -0.3536  0.3272  0.2755
  899MOL0     C21288   0.985   4.333   4.958  0.7449 -0.5376 -0.1144
  899MOL0     O21289   1.062   4.337   4.836 -0.0426 -0.1158 -0.2735
  899MOL0     C21290   1.183   4.415   4.836 -0.9732 -0.0515  0.3442
  899MOL0     C21291   1.281   4.383   4.725  0.2861  0.5736  0.1202
  899MOL0     C21292   1.223   4.390   4.574  0.3099  0.3219  0.7571
  899MOL0     C21293   1.328   4.375   4.461  0.3223  0.5760 -0.4658
  899MOL0     C21294   1.419   4.490   4.463 -0.3823 -0.0482  0.4915
  899MOL0     C21295   1.507   4.569   4.465 -0.3114 -0.2883 -0.8969
  899MOL0     C21296   0.906   4.223   4.976 -0.1508  0.4256 -0.5597
  899MOL0     C21297   0.838   4.196   5.097  0.4656 -0.2820 -0.5781
  899MOL0     H21298   0.778   4.489   5.616 -0.3568  1.4441  3.6984
  899MOL0     H21299   0.650   4.505   5.806 -0.4464  3.0663 -1.3935
  899MOL0     H21300   0.447   4.494   5.993 -0.2654  1.6471  0.8824
  899MOL0     H21301   0.396   4.589   5.853 -0.0530 -0.6059 -0.0207
  899MOL0     H21302   0.230   4.418   6.055 -1.0169 -1.5518 -1.8520
  899MOL0     H21303   0.206   4.586   6.037  0.7146  1.2413 -1.2327
  899MOL0     H21304   0.099   4.574   5.827  2.7564  1.4988  1.6600
  899MOL0     H21305   0.138   4.400   5.799  1.9580  0.6008 -0.8032
  899MOL0     H21306   0.021   4.355   6.022  1.6457  1.3312  0.4891
  899MOL0     H21307  -0.022   4.524   6.026  0.9464  1.4046 -0.2350
  899MOL0     H21308  -0.114   4.446   5.763 -1.7726 -3.9557 -1.1831
  899MOL0     H21309  -0.133   4.305   5.841  0.9128  0.1784 -0.2080
  899MOL0     H21310  -0.261   4.567   5.915  0.0145  0.3834 -0.7166
  899MOL0     H21311  -0.325   4.406   5.854  0.6684  1.0986 -1.3188
  899MOL0     H21312  -0.225   4.309   6.080 -0.5536  0.6117  2.9294
  899MOL0     H21313  -0.236   4.471   6.131 -2.0693  1.7609  0.8643
  899MOL0     H21314  -0.492   4.473   6.067 -0.6350 -1.0410 -1.5889
  899MOL0     H21315  -0.464   4.344   6.174  0.2787 -0.1630  0.3771
  899MOL0     H21316  -0.450   4.093   6.064  1.8578 -0.6293 -2.2106
  899MOL0     H21317  -0.561   3.920   5.776  2.4901  0.1788  0.8742
  899MOL0     H21318  -0.550   3.886   5.940  0.3230 -0.6009  0.1537
  899MOL0     H21319  -0.777   3.823   5.810  1.6080  1.9274 -3.0875
  899MOL0     H21320  -0.817   3.991   5.813 -0.7034 -2.5901 -2.3678
  899MOL0     H21321  -0.826   3.992   6.056  1.4410  2.2732 -2.7425
  899MOL0     H21322  -0.784   3.816   6.064 -1.1675  0.5389  1.8679
  899MOL0     H21323  -1.032   3.919   5.912 -1.7064 -0.2776 -0.0643
  899MOL0     H21324  -1.030   3.861   6.083 -1.3209 -0.7629 -0.5730
  899MOL0     H21325  -1.256   3.814   5.944  1.2600  0.8037  1.6706
  899MOL0     H21326  -1.447   3.751   6.063  2.5131 -0.1795 -0.3870
  899MOL0     H21327  -1.529   3.742   5.908 -0.1934  1.3037  0.8334
  899MOL0     H21328  -1.557   3.610   6.016 -1.3554  1.7148 -2.0932
  899MOL0     H21329  -1.519   3.077   6.124 -1.3319 -1.9194  1.3006
  899MOL0     H21330  -1.676   2.889   6.088 -3.3874  1.0441 -0.2169
  899MOL0     H21331  -1.922   2.914   5.722  0.2073  0.6678  2.4144
  899MOL0     H21332  -1.886   2.740   5.736 -2.6409  0.4047 -2.2232
  899MOL0     H21333  -2.049   2.752   5.948 -2.2116  2.1659  1.8122
  899MOL0     H21334  -2.066   2.912   5.905 -1.3772 -0.1142 -1.0110
  899MOL0     H21335  -2.250   2.751   5.851  1.0256  2.5812  2.4544
  899MOL0     H21336  -2.150   2.685   5.718  0.9710  1.4643 -1.5510
  899MOL0     H21337  -2.207   2.976   5.718 -0.6721 -0.6152  2.7811
  899MOL0     H21338  -2.138   2.884   5.592 -2.0022 -1.3994 -2.5462
  899MOL0     H21339  -2.419   2.860   5.707 -0.3761 -0.6971 -0.1761
  899MOL0     H21340  -2.359   2.766   5.560  0.6025 -0.1461  0.1247
  899MOL0     H21341  -2.502   2.944   5.479  1.2866 -1.7340 -2.5261
  899MOL0     H21342  -2.440   3.060   5.592  1.8383  0.3913  0.1779
  899MOL0     H21343  -2.267   2.953   5.359 -1.0576  0.3320 -1.2573
  899MOL0     H21344  -2.237   3.076   5.489 -0.8156 -2.6509  2.6403
  899MOL0     H21345  -2.467   3.080   5.284 -3.0634  3.9211  1.6031
  899MOL0     H21346  -2.307   3.148   5.252  1.5455 -2.4564  1.0270
  899MOL0     H21347  -1.733   3.028   5.693  2.1572 -0.9236 -1.5850
  899MOL0     H21348  -1.580   3.207   5.722 -2.0159  1.7132  0.4781
  899MOL0     H21349  -1.187   3.327   5.895  2.7659  0.6128  0.2538
  899MOL0     H21350  -0.989   3.497   5.901  0.9400  4.1533 -1.5552
  899MOL0     H21351   0.328   4.304   5.582  1.1691 -2.5992  2.0925
  899MOL0     H21352   0.471   4.307   5.391  0.3114  0.0433 -0.2591
  899MOL0     H21353   0.922   4.487   5.259  0.5212  2.4699 -1.0513
  899MOL0     H21354   1.049   4.517   5.064 -1.7811  1.5490  1.6474
  899MOL0     H21355   1.152   4.519   4.847 -3.7168 -0.8638  1.2404
  899MOL0     H21356   1.239   4.399   4.928 -2.4110  1.6390  1.5870
  899MOL0     H21357   1.330   4.286   4.742  0.3049  0.8008  1.4160
  899MOL0     H21358   1.368   4.449   4.721  1.5923 -1.1033 -1.6851
  899MOL0     H21359   1.175   4.486   4.556  1.3324  0.4076 -1.9040
  899MOL0     H21360   1.145   4.314   4.561 -0.6969  1.7839 -3.1630
  899MOL0     H21361   1.291   4.372   4.358 -0.0021  4.4191 -0.6019
  899MOL0     H21362   1.381   4.282   4.486 -0.3420  0.2901 -0.1040
  899MOL0     H21363   1.592   4.631   4.484 -1.6168  1.4709 -0.4350
  899MOL0     H21364   0.910   4.141   4.905 -0.9941 -0.4760  0.3986
  899MOL0     H21365   0.787   4.101   5.115 -0.8127  0.7173  1.3488
  900MOL0     O21366   7.453   8.626   7.796  0.2840 -0.4686  0.2353
  900MOL0     C21367   7.525   8.724   7.762  0.0353  0.0778 -0.6687
  900MOL0     O21368   7.481   8.848   7.731 -0.0002  0.2063  0.2476
  900MOL0     C21369   7.350   8.847   7.699 -0.2723  0.3590  0.0290
  900MOL0     C21370   7.248   8.843   7.802 -0.1389 -0.2630  0.2363
  900MOL0     C21371   7.116   8.821   7.763  0.0756 -0.2616 -0.4753
  900MOL0     C21372   7.078   8.806   7.633  0.1402  1.4014  0.1781
  900MOL0     O21373   6.949   8.802   7.600 -0.0990  0.5688 -0.2360
  900MOL0     C21374   6.902   8.674   7.566  0.6397  0.2160  0.1931
  900MOL0     C21375   6.820   8.605   7.676 -0.6416  0.3004  0.4092
  900MOL0     C21376   6.694   8.689   7.720 -0.2792  0.2839 -0.0011
  900MOL0     C21377   6.578   8.593   7.759 -0.1611  0.0928 -0.4128
  900MOL0     C21378   6.457   8.661   7.825 -0.5875 -0.3525  0.8866
  900MOL0     C21379   6.351   8.558   7.854  0.0859 -0.3507  0.1671
  900MOL0     C21380   6.222   8.643   7.892  0.7844 -0.6378  0.6453
  900MOL0     C21381   6.238   8.717   8.019  0.0219 -0.9438  0.4438
  900MOL0     N21382   6.115   8.798   8.048  0.1298  0.0742  0.1519
  900MOL0     C21383   5.984   8.758   8.011 -0.9254 -0.5126 -0.4152
  900MOL0     C21384   5.902   8.841   8.083  0.0717 -0.0674 -0.1639
  900MOL0     C21385   5.754   8.850   8.083 -0.3758 -0.1666  0.7571
  900MOL0     C21386   5.709   8.968   8.163 -0.2908 -0.1765 -0.0343
  900MOL0     C21387   5.556   8.977   8.147  0.5574  0.4083  0.0467
  900MOL0     C21388   5.472   9.054   8.249  0.4029  0.6422 -0.3540
  900MOL0     O21389   5.333   9.037   8.198  0.1238  0.1302 -0.0186
  900MOL0     C21390   5.230   9.101   8.261  0.9313  0.9341  0.6314
  900MOL0     C21391   5.129   9.027   8.323 -0.0934  0.1553 -0.5779
  900MOL0     C21392   5.013   9.074   8.379  0.8726  0.8612 -0.7455
  900MOL0     C21393   4.928   8.971   8.446  0.3691 -1.2345 -0.0960
  900MOL0     C21394   4.988   9.216   8.371 -0.4733  0.2358  0.4344
  900MOL0     C21395   4.863   9.280   8.416 -0.4883 -0.4710 -0.3265
  900MOL0     O21396   4.757   9.206   8.453  0.3584 -0.2011  0.6748
  900MOL0     C21397   4.628   9.247   8.477  0.6492 -0.9763 -0.2641
  900MOL0     C21398   4.561   9.365   8.424 -0.1501 -0.2718  0.5539
  900MOL0     C21399   4.428   9.390   8.442 -0.1174  0.0595 -1.1259
  900MOL0     C21400   4.341   9.286   8.498 -0.4084 -0.8415  0.6077
  900MOL0     O21401   4.210   9.319   8.526  0.1609 -0.1428 -0.0393
  900MOL0     C21402   4.177   9.440   8.605  0.1047 -1.0992  0.6205
  900MOL0     C21403   4.036   9.419   8.652  0.0756 -0.1342  0.7438
  900MOL0     C21404   3.984   9.520   8.750  0.7640 -0.7446  0.1641
  900MOL0     C21405   3.833   9.507   8.775  0.7670 -0.3639 -0.4454
  900MOL0     C21406   3.778   9.609   8.883  0.4126  0.5012 -0.2193
  900MOL0     C21407   3.639   9.569   8.929 -0.9431  0.7941  0.0377
  900MOL0     C21408   3.537   9.582   8.815  0.6304  0.3142 -0.2342
  900MOL0     C21409   3.394   9.582   8.860  0.0278 -0.2643 -0.9586
  900MOL0    Cl21410   3.343   9.700   9.001 -0.3344  0.3235 -0.1597
  900MOL0     C21411   4.397   9.161   8.538  0.1847 -1.1375 -0.4229
  900MOL0     C21412   4.541   9.142   8.521  0.3937  0.3076 -0.1952
  900MOL0     O21413   4.865   9.401   8.436 -0.3596  0.2109  0.5787
  900MOL0     C21414   5.090   9.292   8.310  0.3615 -0.6500  0.2586
  900MOL0     C21415   5.209   9.240   8.251 -0.7539 -0.6445 -0.2207
  900MOL0     N21416   5.983   8.936   8.143 -0.2167  0.1330 -0.1076
  900MOL0     N21417   6.107   8.906   8.122 -1.1164 -0.6433  0.6179
  900MOL0     C21418   7.175   8.827   7.534  0.0351 -1.1114  0.1951
  900MOL0     C21419   7.308   8.843   7.563  0.1927 -1.4178 -0.5852
  900MOL0     C21420   7.677   8.699   7.748  0.5680  0.7134 -0.0241
  900MOL0     C21421   7.763   8.772   7.669 -0.6244  0.5117 -0.2727
  900MOL0     C21422   7.896   8.731   7.652 -1.1536  0.1791 -0.0934
  900MOL0     C21423   7.953   8.621   7.715  0.1370 -0.3108 -0.0983
  900MOL0     O21424   8.083   8.588   7.699 -0.1199 -0.0889 -0.4384
  900MOL0     C21425   8.135   8.468   7.757 -0.4054  0.4543  0.1215
  900MOL0     C21426   8.287   8.471   7.717  0.4399  0.2952 -0.2639
  900MOL0     C21427   8.379   8.389   7.806 -0.2039 -0.2053  0.0891
  900MOL0     C21428   8.522   8.427   7.766 -0.0451 -0.7293 -0.0165
  900MOL0     C21429   8.545   8.341   7.641 -0.2239 -0.3135 -0.4843
  900MOL0     C21430   8.573   8.282   7.541  0.5196 -0.3802  0.2512
  900MOL0     C21431   7.859   8.539   7.783  0.0232 -0.9595  0.2608
  900MOL0     C21432   7.735   8.588   7.800  0.0851 -0.1417 -0.2658
  900MOL0     H21433   7.278   8.833   7.906 -1.2055 -3.0886  0.3579
  900MOL0     H21434   7.033   8.818   7.833 -0.7851 -0.9922 -1.5168
  900MOL0     H21435   6.834   8.687   7.482 -1.9041 -3.9273  1.3405
  900MOL0     H21436   6.980   8.606   7.530  3.0247  3.9602 -2.4701
  900MOL0     H21437   6.795   8.509   7.628  0.6663  0.4834 -0.6723
  900MOL0     H21438   6.886   8.587   7.762 -0.5556 -0.3539  0.2093
  900MOL0     H21439   6.719   8.744   7.811  0.6872  2.8541 -1.6757
  900MOL0     H21440   6.657   8.749   7.636 -4.9883 -2.8249 -0.5136
  900MOL0     H21441   6.558   8.533   7.670 -1.0081  0.0001 -0.1693
  900MOL0     H21442   6.612   8.526   7.838 -0.9071 -0.7141 -0.7628
  900MOL0     H21443   6.491   8.702   7.921 -1.6908  0.2857  1.0308
  900MOL0     H21444   6.424   8.748   7.766 -1.3065  0.0637  1.8769
  900MOL0     H21445   6.334   8.504   7.761 -2.5418  0.7277 -0.0603
  900MOL0     H21446   6.388   8.481   7.923 -0.0492 -2.4014 -1.9299
  900MOL0     H21447   6.197   8.711   7.810  2.4647  0.1805  0.7825
  900MOL0     H21448   6.143   8.568   7.904  1.6295 -2.1524 -2.3380
  900MOL0     H21449   6.320   8.789   8.023 -0.6469 -0.1537  0.2604
  900MOL0     H21450   6.263   8.644   8.097 -0.5876 -0.0420  1.5065
  900MOL0     H21451   5.941   8.680   7.949 -1.1885 -0.5519 -0.1827
  900MOL0     H21452   5.720   8.845   7.979 -1.2975  0.3894  1.0181
  900MOL0     H21453   5.710   8.759   8.124 -1.2312 -0.1162 -0.0159
  900MOL0     H21454   5.752   9.062   8.126  2.0176 -1.4599 -0.8264
  900MOL0     H21455   5.737   8.948   8.266 -2.0733 -0.6723  0.3807
  900MOL0     H21456   5.514   8.877   8.139 -0.4255  0.9476 -4.0402
  900MOL0     H21457   5.542   9.009   8.043  1.1974 -0.4977 -0.3306
  900MOL0     H21458   5.514   9.155   8.245 -0.1158  0.9422  0.9801
  900MOL0     H21459   5.482   9.012   8.350  1.3922  0.3367 -0.5709
  900MOL0     H21460   5.155   8.921   8.323  1.5002  0.4599 -2.8459
  900MOL0     H21461   4.974   8.872   8.458 -0.3509 -1.3829  1.7974
  900MOL0     H21462   4.908   8.994   8.551 -1.1777 -1.1974 -0.3790
  900MOL0     H21463   4.835   8.963   8.389 -1.9208  1.9296  2.8147
  900MOL0     H21464   4.627   9.441   8.383  2.3329  0.0734  4.6522
  900MOL0     H21465   4.384   9.477   8.394 -1.2015  1.6988  2.4517
  900MOL0     H21466   4.247   9.447   8.689  0.9900 -0.8315 -0.1336
  900MOL0     H21467   4.193   9.530   8.546 -0.0739 -1.7463 -0.4314
  900MOL0     H21468   3.980   9.426   8.558  0.7522  0.6252  0.3805
  900MOL0     H21469   4.029   9.320   8.697  0.8690  0.4191  2.1786
  900MOL0     H21470   3.988   9.620   8.705 -0.9394 -0.6339  0.1857
  900MOL0     H21471   4.040   9.524   8.843 -0.2898  0.9484  0.7736
  900MOL0     H21472   3.776   9.517   8.682 -0.6501  0.9489  0.5316
  900MOL0     H21473   3.812   9.405   8.810  0.2112 -0.4254 -0.9368
  900MOL0     H21474   3.781   9.709   8.838  2.0012  1.5859  2.0992
  900MOL0     H21475   3.849   9.605   8.966 -0.6724 -1.6661  0.6661
  900MOL0     H21476   3.632   9.465   8.964 -1.2877  0.0960 -1.9463
  900MOL0     H21477   3.611   9.632   9.014  3.9030 -1.1668  3.5192
  900MOL0     H21478   3.549   9.501   8.742 -2.8620  0.7333 -1.4591
  900MOL0     H21479   3.529   9.680   8.766 -2.6835 -0.4825 -1.5165
  900MOL0     H21480   3.361   9.483   8.891  4.0244 -1.5152 -0.0526
  900MOL0     H21481   3.336   9.615   8.774  0.2892 -0.6627 -1.2915
  900MOL0     H21482   4.343   9.077   8.581  0.9789  0.0093  3.0977
  900MOL0     H21483   4.583   9.048   8.555 -0.0260 -1.3198 -3.7660
  900MOL0     H21484   5.080   9.400   8.304 -1.3086 -0.8649 -2.2102
  900MOL0     H21485   5.281   9.307   8.205 -0.9455  0.3673  0.8942
  900MOL0     H21486   7.144   8.800   7.433 -1.1335  1.7731 -0.2969
  900MOL0     H21487   7.384   8.847   7.486 -2.5369  0.4000 -3.4281
  900MOL0     H21488   7.715   8.855   7.617 -0.4394 -1.2553 -3.5296
  900MOL0     H21489   7.958   8.805   7.602  0.0234  0.1369  1.2559
  900MOL0     H21490   8.121   8.470   7.865 -2.2987 -1.6986  0.0001
  900MOL0     H21491   8.090   8.379   7.712  0.1204 -0.0239  0.5368
  900MOL0     H21492   8.311   8.578   7.725 -1.0316  0.6317 -0.0154
  900MOL0     H21493   8.298   8.435   7.615 -3.1853 -0.7855 -0.4121
  900MOL0     H21494   8.346   8.287   7.786 -1.6815 -0.0453  1.4493
  900MOL0     H21495   8.351   8.410   7.910 -3.8415 -0.8616 -0.6357
  900MOL0     H21496   8.603   8.388   7.830  0.0999  1.5640  1.2875
  900MOL0     H21497   8.546   8.533   7.762 -1.1057 -0.1871  3.7371
  900MOL0     H21498   8.592   8.234   7.447  0.0131  0.9520 -0.5580
  900MOL0     H21499   7.877   8.445   7.833 -1.3508 -0.9665  0.7868
  900MOL0     H21500   7.679   8.514   7.857  0.0220 -0.3197 -0.5578
  901MOL0     O21501   7.018   9.157   1.557  0.3900 -0.6722 -0.2694
  901MOL0     C21502   6.990   9.274   1.581  0.7906 -0.1585 -0.0809
  901MOL0     O21503   6.865   9.314   1.614 -0.7706 -0.6323  0.1066
  901MOL0     C21504   6.790   9.221   1.669  0.2861  0.0402  0.7377
  901MOL0     C21505   6.663   9.183   1.617  0.2893 -1.2190 -0.0444
  901MOL0     C21506   6.584   9.095   1.693 -0.0484  0.0711  0.1461
  901MOL0     C21507   6.619   9.048   1.825 -0.0539  1.5964  0.8760
  901MOL0     O21508   6.524   8.988   1.902  0.3684  0.1469 -0.1132
  901MOL0     C21509   6.449   9.066   1.998  0.1580 -0.6381  0.1853
  901MOL0     C21510   6.314   9.127   1.950 -0.7560 -0.2805  0.1004
  901MOL0     C21511   6.264   9.228   2.067 -0.0477 -0.4676 -0.4093
  901MOL0     C21512   6.139   9.304   2.027 -0.9661  0.5424 -0.7162
  901MOL0     C21513   6.074   9.356   2.159  0.6596 -0.2237  0.6412
  901MOL0     C21514   6.160   9.441   2.249  0.1837 -0.0491 -0.1613
  901MOL0     C21515   6.081   9.511   2.361  0.5146  0.1775  0.5351
  901MOL0     C21516   6.025   9.408   2.470  0.3710 -0.3007  0.7759
  901MOL0     N21517   6.128   9.313   2.516  1.0203  0.4767 -1.0330
  901MOL0     C21518   6.245   9.338   2.592 -0.0675 -0.5264 -1.1389
  901MOL0     C21519   6.289   9.217   2.641  0.4348 -0.6346 -0.8757
  901MOL0     C21520   6.392   9.177   2.753 -0.0476  0.6731  0.1965
  901MOL0     C21521   6.331   9.107   2.878  1.0445  0.5723 -0.8523
  901MOL0     C21522   6.250   9.204   2.977  0.2023  0.6429  0.0740
  901MOL0     C21523   6.106   9.227   2.939  0.0949 -0.1326  0.0752
  901MOL0     O21524   6.019   9.255   3.056 -0.0415  0.2650 -0.5141
  901MOL0     C21525   5.884   9.275   3.044 -0.5917  0.1987  0.3306
  901MOL0     C21526   5.815   9.331   3.148 -0.0688 -0.1080 -0.2788
  901MOL0     C21527   5.680   9.340   3.157  0.4370  0.0320  0.0238
  901MOL0     C21528   5.631   9.416   3.282 -0.1365  0.0221  0.4473
  901MOL0     C21529   5.601   9.287   3.051  0.4489 -0.5466  0.0939
  901MOL0     C21530   5.449   9.266   3.039  0.2733 -1.2190  0.1366
  901MOL0     O21531   5.394   9.170   2.963  0.4096 -0.4904  0.3896
  901MOL0     C21532   5.260   9.183   2.934  0.5911 -0.4469  0.3583
  901MOL0     C21533   5.193   9.064   2.920 -0.2398 -0.1218 -0.5373
  901MOL0     C21534   5.062   9.057   2.892 -0.7868  0.0423  0.6072
  901MOL0     C21535   4.990   9.172   2.864  0.0974  0.3667  0.0345
  901MOL0     O21536   4.855   9.154   2.838  0.2315  0.1770  0.5061
  901MOL0     C21537   4.773   9.270   2.861 -0.2467  0.6957  0.5346
  901MOL0     C21538   4.623   9.244   2.863 -0.5194 -0.0905  0.6588
  901MOL0     C21539   4.589   9.140   2.964  0.6494  0.4608 -0.5190
  901MOL0     C21540   4.435   9.135   2.988  0.3613 -0.8868  0.7460
  901MOL0     C21541   4.407   9.019   3.078 -0.4675  1.1822  0.3069
  901MOL0     C21542   4.264   9.019   3.129 -0.5099  0.4782 -0.3384
  901MOL0     C21543   4.248   8.897   3.216 -0.3942  0.3549 -0.4285
  901MOL0     C21544   4.296   8.927   3.361  0.5413 -0.9866 -0.0202
  901MOL0    Cl21545   4.268   8.784   3.474 -0.4349  0.1512 -0.1713
  901MOL0     C21546   5.054   9.298   2.879  0.1317  0.2690 -0.3078
  901MOL0     C21547   5.189   9.302   2.909 -0.3199  0.6740 -0.2715
  901MOL0     O21548   5.394   9.345   3.107  0.2418  0.0290 -0.6548
  901MOL0     C21549   5.670   9.248   2.935 -0.5692  0.5934  0.2616
  901MOL0     C21550   5.812   9.240   2.936  0.6383  0.9646 -0.0048
  901MOL0     N21551   6.204   9.119   2.602  0.6140 -0.1565  0.3186
  901MOL0     N21552   6.114   9.175   2.525 -0.1566  0.0688  0.2730
  901MOL0     C21553   6.751   9.073   1.860  1.3551  0.5778  0.1807
  901MOL0     C21554   6.832   9.163   1.787  0.3113 -0.4220  0.6035
  901MOL0     C21555   7.104   9.367   1.576  0.0439 -0.5481  0.2904
  901MOL0     C21556   7.093   9.490   1.636  0.3547  0.0020  0.3420
  901MOL0     C21557   7.196   9.583   1.634 -0.7871 -0.0425 -0.3584
  901MOL0     C21558   7.328   9.550   1.592  0.6249 -0.2610 -0.1069
  901MOL0     O21559   7.427   9.645   1.597 -0.4323  0.1320  0.0932
  901MOL0     C21560   7.565   9.606   1.590 -1.1186 -0.0093  0.5620
  901MOL0     C21561   7.649   9.731   1.615 -1.4286  0.0579 -0.2705
  901MOL0     C21562   7.712   9.748   1.761  0.5232 -0.3101  0.0386
  901MOL0     C21563   7.612   9.821   1.862  0.1599  0.8380  0.2342
  901MOL0     C21564   7.680   9.821   1.989 -0.4433  0.0903 -0.3517
  901MOL0     C21565   7.753   9.825   2.082  0.3073  0.2738 -0.3091
  901MOL0     C21566   7.344   9.429   1.534 -0.7501  0.9075 -0.3838
  901MOL0     C21567   7.235   9.338   1.533 -0.7712  0.9914  0.0752
  901MOL0     H21568   6.634   9.230   1.523 -2.8832 -1.3033  0.7900
  901MOL0     H21569   6.483   9.076   1.656 -0.7300  1.2568  1.3256
  901MOL0     H21570   6.423   9.000   2.081 -0.6226  4.0398  4.1352
  901MOL0     H21571   6.516   9.143   2.037 -0.5545 -1.3980  3.1302
  901MOL0     H21572   6.330   9.192   1.863 -3.2747 -2.1203 -1.8818
  901MOL0     H21573   6.235   9.054   1.930  1.4597 -4.4175  4.4393
  901MOL0     H21574   6.248   9.168   2.157 -1.4002  0.5502  0.0772
  901MOL0     H21575   6.348   9.296   2.086  1.5655 -1.7562 -2.5150
  901MOL0     H21576   6.170   9.386   1.961 -0.1103 -1.1175 -2.4729
  901MOL0     H21577   6.075   9.234   1.974 -0.6812  0.7989 -1.4081
  901MOL0     H21578   5.993   9.423   2.127  1.3896 -0.0693 -0.9860
  901MOL0     H21579   6.026   9.268   2.204 -1.4081 -1.1595 -2.9247
  901MOL0     H21580   6.237   9.372   2.287  0.6228 -0.2137 -1.3216
  901MOL0     H21581   6.213   9.521   2.196 -0.6858  1.2201  0.8348
  901MOL0     H21582   6.156   9.575   2.408  3.0196 -2.2548  0.0892
  901MOL0     H21583   5.995   9.566   2.321  0.5620  0.8073  1.2694
  901MOL0     H21584   5.943   9.347   2.431 -0.8883  0.3394  2.3046
  901MOL0     H21585   5.978   9.461   2.554 -2.0381 -0.7446 -0.2134
  901MOL0     H21586   6.291   9.434   2.616  1.6216 -1.0001 -2.3434
  901MOL0     H21587   6.459   9.108   2.701 -0.2128  0.4108  0.3364
  901MOL0     H21588   6.446   9.265   2.791  0.0751 -0.4535  2.8315
  901MOL0     H21589   6.411   9.062   2.937 -1.0454 -1.5098  0.5705
  901MOL0     H21590   6.257   9.035   2.841  3.0481 -2.1459  0.1185
  901MOL0     H21591   6.308   9.294   2.999  0.1373  0.2141  2.1443
  901MOL0     H21592   6.254   9.151   3.072  0.3204 -0.6126 -0.6097
  901MOL0     H21593   6.058   9.141   2.890 -2.4420 -0.1807  2.3602
  901MOL0     H21594   6.092   9.306   2.865 -0.6304  1.2697  1.6196
  901MOL0     H21595   5.870   9.369   3.233  1.6178  1.6665 -2.0754
  901MOL0     H21596   5.703   9.492   3.313 -3.5190  2.9789  1.7055
  901MOL0     H21597   5.538   9.470   3.266  0.1568  1.8568  4.0098
  901MOL0     H21598   5.604   9.346   3.362  0.4998  0.0638  0.7032
  901MOL0     H21599   5.230   8.967   2.952  1.3355  0.6664  0.1478
  901MOL0     H21600   5.010   8.964   2.873  0.1682 -0.4275  0.2452
  901MOL0     H21601   4.793   9.302   2.964  2.1154 -2.3113  1.1645
  901MOL0     H21602   4.790   9.345   2.783 -0.0481 -1.1421 -1.2635
  901MOL0     H21603   4.579   9.338   2.898  2.3433  1.8437 -0.5544
  901MOL0     H21604   4.594   9.229   2.758  0.0297 -0.0981  0.5037
  901MOL0     H21605   4.641   9.157   3.058  0.1859 -2.6082  0.4035
  901MOL0     H21606   4.628   9.043   2.932  1.1579  1.0266 -1.7343
  901MOL0     H21607   4.397   9.232   3.018  0.7353 -1.1343  2.1217
  901MOL0     H21608   4.381   9.120   2.895 -3.2829  4.2263  1.6295
  901MOL0     H21609   4.476   9.019   3.163  0.0186 -0.8970 -0.0208
  901MOL0     H21610   4.430   8.931   3.018 -2.6803  1.3112 -0.8265
  901MOL0     H21611   4.239   9.104   3.193 -1.9257 -0.4487  0.3938
  901MOL0     H21612   4.186   9.009   3.052 -0.7303 -0.5087 -0.0002
  901MOL0     H21613   4.298   8.807   3.178 -1.2478 -0.4760  0.3719
  901MOL0     H21614   4.145   8.869   3.240 -0.1888  2.2093  3.2596
  901MOL0     H21615   4.241   9.011   3.403 -0.2202 -1.5503  0.1295
  901MOL0     H21616   4.402   8.953   3.361  0.3590  0.1074 -2.9137
  901MOL0     H21617   4.999   9.392   2.879 -1.3859 -0.5949 -0.7659
  901MOL0     H21618   5.239   9.397   2.914  1.1282 -0.1067  0.9563
  901MOL0     H21619   5.626   9.217   2.841  0.5099 -0.0694 -0.0409
  901MOL0     H21620   5.859   9.204   2.845  3.2598  1.6719  0.9884
  901MOL0     H21621   6.795   9.036   1.953 -0.5462  2.0966  1.7547
  901MOL0     H21622   6.924   9.192   1.836  1.3972 -1.2915 -0.8251
  901MOL0     H21623   7.000   9.527   1.678 -0.2432 -0.8230 -0.2192
  901MOL0     H21624   7.179   9.684   1.670  0.0437 -0.9158  2.8622
  901MOL0     H21625   7.581   9.516   1.650  4.5316  0.6160  0.5229
  901MOL0     H21626   7.584   9.573   1.487 -0.7191  0.8188  0.3606
  901MOL0     H21627   7.590   9.819   1.588 -1.7427 -0.4190 -1.1822
  901MOL0     H21628   7.737   9.723   1.550 -0.5593 -3.2786  1.1298
  901MOL0     H21629   7.799   9.812   1.745 -0.8561  1.5503 -0.5434
  901MOL0     H21630   7.743   9.650   1.798  1.5685  0.1418  0.3869
  901MOL0     H21631   7.520   9.762   1.865  2.0453 -2.2625  1.5581
  901MOL0     H21632   7.594   9.924   1.830  0.7285  0.2179 -2.2784
  901MOL0     H21633   7.820   9.820   2.166  1.2850 -2.1973 -1.1586
  901MOL0     H21634   7.432   9.396   1.479 -0.1708 -0.3256  1.2038
  901MOL0     H21635   7.240   9.236   1.494 -0.3063  1.7557 -1.9975
  902MOL0     O21636   3.817   8.280  10.028  0.2963 -0.8121  0.2993
  902MOL0     C21637   3.905   8.364  10.040  0.1362  0.3122 -0.1194
  902MOL0     O21638   3.926   8.430  10.155  0.0279 -0.0134 -0.2373
  902MOL0     C21639   3.830   8.443  10.256 -0.2044 -0.0149 -0.2605
  902MOL0     C21640   3.873   8.426  10.392 -0.0052  0.7366 -1.0294
  902MOL0     C21641   3.777   8.427  10.505  0.1943 -0.3558 -0.2134
  902MOL0     C21642   3.636   8.421  10.478 -0.0145 -0.0039 -0.1350
  902MOL0     O21643   3.549   8.411  10.583  0.3689 -0.0792 -0.1078
  902MOL0     C21644   3.431   8.345  10.547 -0.1755  0.5183 -0.4568
  902MOL0     C21645   3.343   8.303  10.666 -0.5702  0.3412  0.6010
  902MOL0     C21646   3.212   8.377  10.678  0.9164  0.7502 -0.4183
  902MOL0     C21647   3.113   8.347  10.568  0.7728  1.7738 -0.3567
  902MOL0     C21648   2.972   8.393  10.620  0.4788  0.8655 -0.3342
  902MOL0     C21649   2.951   8.535  10.670 -0.4559 -0.2810  0.0915
  902MOL0     C21650   2.808   8.564  10.722 -0.6013 -0.7234 -0.3365
  902MOL0     C21651   2.805   8.706  10.789  0.2120  0.4430  0.0239
  902MOL0     N21652   2.663   8.766  10.779 -0.1167 -0.2962  0.0373
  902MOL0     C21653   2.566   8.751  10.877  0.9244  0.2771  0.1046
  902MOL0     C21654   2.461   8.823  10.835  0.7109 -0.1018 -0.7719
  902MOL0     C21655   2.338   8.846  10.919  0.1268  0.4935  0.2563
  902MOL0     C21656   2.207   8.761  10.879 -0.1469 -0.4008  0.4999
  902MOL0     C21657   2.079   8.834  10.939 -0.7276  0.0935 -0.5957
  902MOL0     C21658   1.950   8.786  10.886 -0.1230  0.0185  0.1989
  902MOL0     O21659   1.852   8.841  10.979  0.0241  0.6316  0.3333
  902MOL0     C21660   1.718   8.829  10.956  0.1192  0.2480 -0.9621
  902MOL0     C21661   1.623   8.911  11.024 -0.4869 -0.1896  0.1256
  902MOL0     C21662   1.481   8.899  11.010  0.1681  0.3630  1.1675
  902MOL0     C21663   1.390   8.999  11.083  0.6290  0.6540  0.1117
  902MOL0     C21664   1.425   8.806  10.920 -0.3435  1.0461  0.0228
  902MOL0     C21665   1.281   8.778  10.891  0.3683  0.1299 -0.1288
  902MOL0     O21666   1.239   8.654  10.843 -0.5445 -0.1312 -0.1935
  902MOL0     C21667   1.109   8.638  10.824 -0.7251 -0.3964 -0.3502
  902MOL0     C21668   1.067   8.608  10.691  0.0420 -0.3491  0.0118
  902MOL0     C21669   0.932   8.587  10.666  0.2495  0.8781  1.2137
  902MOL0     C21670   0.840   8.575  10.766 -0.6246 -0.6011 -0.7055
  902MOL0     O21671   0.719   8.525  10.731  0.5952 -0.1065 -0.4214
  902MOL0     C21672   0.642   8.439  10.822  0.3676  0.3939  0.4448
  902MOL0     C21673   0.515   8.384  10.764  0.1821  0.1375  0.1569
  902MOL0     C21674   0.407   8.490  10.758  0.3712 -0.1929  0.3905
  902MOL0     C21675   0.282   8.408  10.730 -0.1136  0.6792 -0.0874
  902MOL0     C21676   0.166   8.503  10.737  0.2364 -0.3660  0.2921
  902MOL0     C21677   0.048   8.409  10.763  0.2876  0.0421 -0.7809
  902MOL0     C21678  -0.072   8.496  10.774 -0.4096 -0.3022  0.5570
  902MOL0     C21679  -0.200   8.407  10.776  0.0000 -0.1515  0.1253
  902MOL0    Cl21680  -0.212   8.326  10.609  0.0713 -0.1544 -0.1207
  902MOL0     C21681   0.884   8.606  10.896  0.0132  0.0459 -0.9648
  902MOL0     C21682   1.018   8.630  10.928 -0.5997  0.7491  0.2517
  902MOL0     O21683   1.201   8.877  10.908 -0.6356  0.4982  0.1252
  902MOL0     C21684   1.518   8.716  10.856  0.7340  0.2672 -1.0307
  902MOL0     C21685   1.658   8.734  10.874  0.5074 -0.1760  0.4577
  902MOL0     N21686   2.506   8.902  10.730 -0.0775 -0.0020 -0.3008
  902MOL0     N21687   2.625   8.865  10.694 -0.3737 -0.4655 -0.0863
  902MOL0     C21688   3.598   8.419  10.344 -0.0883 -0.3258 -0.4455
  902MOL0     C21689   3.689   8.433  10.240  0.1951  0.2502  0.2317
  902MOL0     C21690   3.991   8.389   9.922  0.1305 -0.8204  0.3674
  902MOL0     C21691   3.959   8.317   9.804  0.3212 -0.2873  0.0369
  902MOL0     C21692   4.021   8.346   9.690  0.5165  0.6091 -0.3559
  902MOL0     C21693   4.129   8.439   9.685 -0.0352  0.4509  0.4490
  902MOL0     O21694   4.200   8.475   9.572 -0.3424 -0.2345 -0.7505
  902MOL0     C21695   4.157   8.422   9.448 -0.2722  0.3695 -0.5524
  902MOL0     C21696   4.253   8.471   9.336 -0.6407 -0.2519 -0.9044
  902MOL0     C21697   4.402   8.493   9.376 -0.2247 -0.2459 -0.9168
  902MOL0     C21698   4.489   8.469   9.252  0.6926 -0.2424 -0.2388
  902MOL0     C21699   4.593   8.576   9.243  0.4224  0.4742  0.2556
  902MOL0     C21700   4.672   8.666   9.243  0.0328 -0.3195 -0.4947
  902MOL0     C21701   4.160   8.504   9.804 -0.3010 -0.2436 -0.0010
  902MOL0     C21702   4.093   8.476   9.928 -0.7001 -0.5028 -0.0115
  902MOL0     H21703   3.979   8.411  10.407  0.3208  1.9267 -1.9699
  902MOL0     H21704   3.800   8.406  10.609  0.3233 -2.1970 -0.5756
  902MOL0     H21705   3.364   8.403  10.482 -1.5550  3.6331  3.3289
  902MOL0     H21706   3.457   8.250  10.500  0.1625  0.5571 -0.3471
  902MOL0     H21707   3.336   8.195  10.650 -1.8857  0.5977 -0.8602
  902MOL0     H21708   3.394   8.317  10.761 -2.3929  0.8229  1.5613
  902MOL0     H21709   3.173   8.345  10.775  2.0537 -1.6848 -0.6976
  902MOL0     H21710   3.248   8.481  10.684  2.3109  0.2429  0.4468
  902MOL0     H21711   3.150   8.404  10.482  1.3954 -2.0954 -2.9286
  902MOL0     H21712   3.108   8.244  10.530 -0.4811  0.5015  2.9089
  902MOL0     H21713   2.907   8.374  10.534  1.9649 -4.4773 -0.6677
  902MOL0     H21714   2.936   8.321  10.695  5.5100 -1.8495 -0.0550
  902MOL0     H21715   3.019   8.559  10.752 -2.4124  1.1257  1.3913
  902MOL0     H21716   2.957   8.595  10.578  1.7354 -3.1515 -1.8027
  902MOL0     H21717   2.728   8.566  10.647  2.1497  2.7614 -3.5927
  902MOL0     H21718   2.773   8.503  10.806  0.4156 -0.1530  0.5356
  902MOL0     H21719   2.872   8.775  10.737 -0.9814  2.1417  0.6462
  902MOL0     H21720   2.851   8.712  10.888  2.1084  1.8314 -0.8799
  902MOL0     H21721   2.581   8.685  10.962 -2.6721 -2.8321 -1.3915
  902MOL0     H21722   2.361   8.815  11.022  1.1997 -0.8786 -0.3580
  902MOL0     H21723   2.312   8.951  10.930  0.3078  0.9195 -2.7534
  902MOL0     H21724   2.233   8.664  10.922  0.2207 -0.6418 -0.2412
  902MOL0     H21725   2.197   8.750  10.771 -2.9216 -0.9096  0.7530
  902MOL0     H21726   2.093   8.938  10.909  0.1691 -0.5463 -2.5865
  902MOL0     H21727   2.085   8.812  11.046 -1.5017 -1.1027 -0.7873
  902MOL0     H21728   1.949   8.676  10.892  3.0772 -0.0617  1.3543
  902MOL0     H21729   1.934   8.813  10.782  1.3154 -3.1817 -1.0101
  902MOL0     H21730   1.670   8.976  11.098  0.7859 -0.2197 -0.6327
  902MOL0     H21731   1.298   8.949  11.114  1.5047 -1.1714 -0.1305
  902MOL0     H21732   1.440   9.047  11.168  0.5612  2.5784 -0.8751
  902MOL0     H21733   1.352   9.075  11.014 -1.0025 -1.4614 -1.4809
  902MOL0     H21734   1.139   8.606  10.610 -0.8952  1.2337 -0.8945
  902MOL0     H21735   0.907   8.545  10.569 -0.6161  3.8991 -0.0182
  902MOL0     H21736   0.703   8.352  10.850 -2.3723 -1.0603  2.3730
  902MOL0     H21737   0.618   8.484  10.918 -0.6262 -3.0570  1.9568
  902MOL0     H21738   0.538   8.335  10.669  0.2405  1.4284 -0.5100
  902MOL0     H21739   0.497   8.302  10.835  1.2645  1.2864  1.8331
  902MOL0     H21740   0.427   8.563  10.679  0.6168 -0.8444 -0.1595
  902MOL0     H21741   0.402   8.546  10.851 -0.9831  1.1663 -0.4416
  902MOL0     H21742   0.292   8.363  10.631  0.2074 -1.4582  0.8447
  902MOL0     H21743   0.264   8.325  10.799 -4.4384  1.8210  0.4088
  902MOL0     H21744   0.159   8.573  10.654 -0.1196 -0.0259  0.6062
  902MOL0     H21745   0.173   8.572  10.821  1.2846  1.1539 -0.9920
  902MOL0     H21746   0.028   8.334  10.686 -2.2057  0.6316 -0.7840
  902MOL0     H21747   0.051   8.353  10.857 -2.0480 -1.3411 -1.4427
  902MOL0     H21748  -0.071   8.564  10.688 -1.8033 -0.1291  0.6628
  902MOL0     H21749  -0.049   8.562  10.858 -0.8043  0.2022  0.2746
  902MOL0     H21750  -0.295   8.454  10.800  0.1662 -0.5772  1.7579
  902MOL0     H21751  -0.176   8.328  10.849 -0.3656  1.4409  2.0601
  902MOL0     H21752   0.814   8.605  10.979  0.6935 -0.9232 -0.3789
  902MOL0     H21753   1.028   8.639  11.036 -1.7646 -1.8616  0.6627
  902MOL0     H21754   1.465   8.647  10.791 -2.2376  2.2972 -0.9693
  902MOL0     H21755   1.724   8.673  10.813 -2.4063 -1.1266 -2.0206
  902MOL0     H21756   3.498   8.417  10.302 -1.1560  1.7523  1.7199
  902MOL0     H21757   3.642   8.438  10.143 -1.3267  2.4815  0.9987
  902MOL0     H21758   3.883   8.240   9.813 -0.9956  1.0753  1.1253
  902MOL0     H21759   4.006   8.293   9.596 -1.3635  1.9238 -0.8596
  902MOL0     H21760   4.169   8.314   9.451  3.3061  0.6602  1.3267
  902MOL0     H21761   4.054   8.446   9.422 -1.1047 -0.8097  1.4290
  902MOL0     H21762   4.209   8.562   9.294  0.2948 -0.2101 -1.8374
  902MOL0     H21763   4.244   8.398   9.255  0.8902 -0.0091 -1.3213
  902MOL0     H21764   4.429   8.426   9.459 -1.7228  1.0182  0.6579
  902MOL0     H21765   4.423   8.591   9.419 -2.8082 -0.2291  0.5163
  902MOL0     H21766   4.430   8.476   9.160  1.0789 -0.7364 -0.5290
  902MOL0     H21767   4.522   8.365   9.248 -1.1996 -0.9663  1.2138
  902MOL0     H21768   4.737   8.750   9.232 -0.0336 -0.1837  0.1333
  902MOL0     H21769   4.237   8.579   9.789 -1.0954  0.3026 -1.4462
  902MOL0     H21770   4.123   8.536  10.013  1.7913 -1.1869 -0.3498
  903MOL0     O21771   6.695   8.777  10.640 -0.3951  0.5518  0.4263
  903MOL0     C21772   6.781   8.826  10.562  0.2482  0.5139 -0.3569
  903MOL0     O21773   6.774   8.839  10.425 -0.0272 -0.2445  0.2086
  903MOL0     C21774   6.658   8.817  10.354 -0.6656 -0.5862  0.1064
  903MOL0     C21775   6.542   8.892  10.364 -0.1785  0.3205 -0.4341
  903MOL0     C21776   6.432   8.867  10.278 -0.1245  0.0761  0.8448
  903MOL0     C21777   6.436   8.758  10.188 -0.6245 -0.4606 -0.5576
  903MOL0     O21778   6.336   8.728  10.103  0.4095  0.2310  0.0263
  903MOL0     C21779   6.247   8.637  10.155  0.0005  0.0942  0.2002
  903MOL0     C21780   6.120   8.637  10.070 -0.1319  0.0601 -0.0919
  903MOL0     C21781   6.150   8.591   9.923 -0.3931 -0.4201  0.1761
  903MOL0     C21782   6.156   8.446   9.897  0.0511  1.0349  0.4763
  903MOL0     C21783   6.009   8.378   9.913 -0.3327 -1.1122  0.3823
  903MOL0     C21784   5.998   8.241   9.840  0.0965 -0.2261 -0.0380
  903MOL0     C21785   5.870   8.164   9.865  0.7512 -0.5894 -0.2405
  903MOL0     C21786   5.743   8.248   9.808  0.0929 -0.9205 -0.0077
  903MOL0     N21787   5.612   8.182   9.812 -0.2055  0.6698  0.0768
  903MOL0     C21788   5.546   8.098   9.730 -1.6077  0.3404  0.4757
  903MOL0     C21789   5.436   8.056   9.788  0.5337 -0.4779 -0.2405
  903MOL0     C21790   5.325   7.977   9.720  0.0912 -0.1966  0.1709
  903MOL0     C21791   5.184   8.054   9.733 -0.5315  0.2057 -0.2311
  903MOL0     C21792   5.089   7.971   9.645  0.2462 -0.3113 -0.8429
  903MOL0     C21793   4.942   8.029   9.652  0.2563 -0.2101 -0.0901
  903MOL0     O21794   4.905   8.013   9.793  0.5243  0.4680  0.8728
  903MOL0     C21795   4.787   8.067   9.836 -0.0108 -0.2320  0.6239
  903MOL0     C21796   4.699   8.138   9.755  0.0953 -0.0263  0.4549
  903MOL0     C21797   4.577   8.184   9.812  0.4905 -0.4273  0.6695
  903MOL0     C21798   4.469   8.244   9.723 -0.0888 -0.3588 -0.0184
  903MOL0     C21799   4.544   8.155   9.952  0.1869 -0.2624  0.5047
  903MOL0     C21800   4.429   8.206  10.032  0.3602 -0.3212 -0.7659
  903MOL0     O21801   4.415   8.140  10.154 -0.3305  0.0441  0.5250
  903MOL0     C21802   4.293   8.155  10.215  0.3746  0.1737 -0.4483
  903MOL0     C21803   4.179   8.113  10.156 -0.2060 -0.3405 -0.6554
  903MOL0     C21804   4.058   8.108  10.220 -0.4225 -0.9507  0.4782
  903MOL0     C21805   4.061   8.148  10.354  0.1906 -0.9546  0.1501
  903MOL0     O21806   3.954   8.132  10.427  0.7373 -0.1755 -0.0864
  903MOL0     C21807   3.867   8.012  10.393  0.8254 -0.4830 -0.2382
  903MOL0     C21808   3.732   8.068  10.352 -0.9222 -0.2175  0.1137
  903MOL0     C21809   3.618   7.978  10.402  0.4620 -0.2147  1.4151
  903MOL0     C21810   3.583   7.871  10.299  0.2082  0.3679  0.4690
  903MOL0     C21811   3.446   7.798  10.330 -0.1548 -0.5954  0.0719
  903MOL0     C21812   3.345   7.890  10.391 -0.3121  0.2292 -0.0662
  903MOL0     C21813   3.214   7.818  10.411  1.0297  0.1605  0.0472
  903MOL0     C21814   3.106   7.916  10.463 -0.1244 -0.1595  0.0488
  903MOL0    Cl21815   2.957   7.839  10.493 -0.3001 -0.0316  0.4231
  903MOL0     C21816   4.172   8.189  10.421  0.0178 -0.3362  0.2988
  903MOL0     C21817   4.290   8.188  10.353  0.4329 -0.1955  0.7999
  903MOL0     O21818   4.351   8.279   9.979 -0.5674 -0.2759  0.3129
  903MOL0     C21819   4.637   8.082  10.028 -0.1125  0.8343  0.5285
  903MOL0     C21820   4.757   8.037   9.970 -0.1415 -0.8640  0.8091
  903MOL0     N21821   5.438   8.105   9.915  1.0507 -0.1403 -0.3652
  903MOL0     N21822   5.531   8.194   9.919 -0.7797  0.3148  0.3786
  903MOL0     C21823   6.551   8.680  10.184  0.6409 -0.2008  1.3120
  903MOL0     C21824   6.660   8.704  10.265  0.6382  0.3781  0.8628
  903MOL0     C21825   6.909   8.867  10.623 -0.1268 -0.0684 -0.3627
  903MOL0     C21826   7.015   8.931  10.551 -0.0797  0.1194  0.0821
  903MOL0     C21827   7.138   8.963  10.613  0.4935  1.3809 -0.3371
  903MOL0     C21828   7.149   8.955  10.752  0.6884 -0.9254 -0.4651
  903MOL0     O21829   7.271   8.994  10.802 -0.3904 -0.5709  0.9520
  903MOL0     C21830   7.283   9.051  10.936  0.0719  1.2621 -0.5011
  903MOL0     C21831   7.417   9.108  10.934  0.0408  1.2336  0.1933
  903MOL0     C21832   7.409   9.251  10.868 -0.3481  0.1719 -0.1571
  903MOL0     C21833   7.537   9.327  10.896 -0.6824 -0.1526  0.0032
  903MOL0     C21834   7.655   9.284  10.819  0.4390 -0.3300  0.5749
  903MOL0     C21835   7.748   9.258  10.752  0.4823  0.3854  0.2007
  903MOL0     C21836   7.032   8.925  10.829  0.3801 -0.3876  0.0872
  903MOL0     C21837   6.919   8.888  10.763 -0.6690  0.2813  0.0206
  903MOL0     H21838   6.543   8.977  10.432  0.4592 -0.4395  0.5294
  903MOL0     H21839   6.345   8.932  10.273  0.4209  1.0156  2.6596
  903MOL0     H21840   6.310   8.548  10.147  1.6187  1.3846 -3.0748
  903MOL0     H21841   6.212   8.661  10.256 -2.3702  1.6821 -0.9315
  903MOL0     H21842   6.039   8.581  10.117  1.2020 -1.7502  0.1553
  903MOL0     H21843   6.088   8.741  10.061 -0.7934 -0.2497 -1.8181
  903MOL0     H21844   6.073   8.633   9.857  0.7757  0.1514 -0.8861
  903MOL0     H21845   6.236   8.647   9.884 -2.5087  2.8222 -0.2630
  903MOL0     H21846   6.185   8.435   9.792 -0.1259  0.7242  0.4569
  903MOL0     H21847   6.223   8.400   9.970 -1.1767  0.1601  1.1012
  903MOL0     H21848   5.976   8.377  10.017  0.2026 -0.3691  0.5731
  903MOL0     H21849   5.942   8.444   9.857 -0.5312  0.4728  2.3561
  903MOL0     H21850   6.015   8.256   9.733  0.3176  0.1985  0.0521
  903MOL0     H21851   6.079   8.178   9.879 -2.0313 -3.4244 -0.4573
  903MOL0     H21852   5.870   8.071   9.808 -2.5868 -1.1236  0.4490
  903MOL0     H21853   5.844   8.135   9.967 -3.5364 -0.5957 -1.1521
  903MOL0     H21854   5.766   8.282   9.707 -0.1818 -2.1392 -0.4961
  903MOL0     H21855   5.730   8.338   9.869  2.8467 -1.0312  0.9310
  903MOL0     H21856   5.581   8.056   9.636 -0.7859 -0.7251  1.2277
  903MOL0     H21857   5.365   7.962   9.619  1.8067 -2.3791  1.1026
  903MOL0     H21858   5.314   7.879   9.768 -0.3002 -1.1309 -1.7066
  903MOL0     H21859   5.189   8.151   9.683  2.1372 -1.6995 -4.1592
  903MOL0     H21860   5.161   8.052   9.839 -1.4395 -1.8665 -0.4100
  903MOL0     H21861   5.075   7.868   9.682  0.2803  0.4968  1.6158
  903MOL0     H21862   5.127   7.955   9.544  0.8075 -2.3441 -0.3629
  903MOL0     H21863   4.873   7.985   9.580  0.5799 -0.3585 -0.3091
  903MOL0     H21864   4.946   8.137   9.631 -3.4755  0.2284  0.7317
  903MOL0     H21865   4.715   8.161   9.650  0.9040 -2.4824 -0.0213
  903MOL0     H21866   4.493   8.210   9.622  0.3026 -0.7142  0.1911
  903MOL0     H21867   4.370   8.198   9.731  0.8162 -3.2685 -3.2298
  903MOL0     H21868   4.474   8.353   9.719  0.6623 -0.3924 -0.0604
  903MOL0     H21869   4.183   8.101  10.048  2.7897  0.2715 -0.6917
  903MOL0     H21870   3.964   8.083  10.172  0.0810  2.5679 -2.8817
  903MOL0     H21871   3.913   7.954  10.313  2.3199  1.1308 -0.6013
  903MOL0     H21872   3.852   7.961  10.489  0.8264  3.1854  1.9094
  903MOL0     H21873   3.714   8.172  10.380  3.2496  0.5220  0.8173
  903MOL0     H21874   3.740   8.059  10.243  0.7532 -0.1375  0.1942
  903MOL0     H21875   3.535   8.048  10.417 -2.3575 -2.9678 -0.1805
  903MOL0     H21876   3.641   7.935  10.500  0.9080 -1.9461  0.5826
  903MOL0     H21877   3.577   7.928  10.206 -0.9645  1.5110  1.2167
  903MOL0     H21878   3.665   7.800  10.285  1.6983  2.3849 -1.9211
  903MOL0     H21879   3.469   7.708  10.389  0.8505  0.4832  1.3830
  903MOL0     H21880   3.407   7.764  10.234 -0.1401  1.2823 -0.6228
  903MOL0     H21881   3.371   7.912  10.494  1.0094  1.5380 -0.6360
  903MOL0     H21882   3.317   7.971  10.322  0.8179 -1.3871 -2.5804
  903MOL0     H21883   3.217   7.728  10.474  2.5744 -1.2490 -1.9065
  903MOL0     H21884   3.182   7.781  10.313  1.2421  0.2225 -0.0457
  903MOL0     H21885   3.087   8.003  10.400  1.5335 -0.2968 -0.7020
  903MOL0     H21886   3.137   7.948  10.563 -0.5026 -1.1598  0.5007
  903MOL0     H21887   4.159   8.216  10.526 -0.8009 -0.0492  0.1302
  903MOL0     H21888   4.372   8.238  10.402  0.3287  0.9963 -0.2139
  903MOL0     H21889   4.625   8.061  10.134 -3.4474  2.2709  0.5550
  903MOL0     H21890   4.821   7.980  10.036  0.5281 -0.4270  0.5386
  903MOL0     H21891   6.552   8.621  10.093 -3.9256  1.0313  0.1935
  903MOL0     H21892   6.757   8.658  10.252 -0.5427 -1.8304 -0.8837
  903MOL0     H21893   7.000   8.943  10.445 -0.1603 -0.1897  0.0559
  903MOL0     H21894   7.208   9.016  10.550 -0.0346  0.0692 -2.1442
  903MOL0     H21895   7.210   9.125  10.970 -0.4339 -0.7263  3.3578
  903MOL0     H21896   7.291   8.982  11.021 -1.1385 -0.5387 -1.7809
  903MOL0     H21897   7.481   9.038  10.878 -0.3547  0.6416  0.4768
  903MOL0     H21898   7.459   9.106  11.035  2.7651 -3.5430 -0.7477
  903MOL0     H21899   7.327   9.296  10.926 -0.2560 -0.9346  0.8912
  903MOL0     H21900   7.394   9.251  10.760  1.1411  1.3832 -0.3831
  903MOL0     H21901   7.551   9.320  11.004 -0.7803 -4.3319 -0.0664
  903MOL0     H21902   7.502   9.428  10.875  0.5726 -0.0015 -1.5746
  903MOL0     H21903   7.831   9.225  10.693 -1.8265 -3.3565 -1.3128
  903MOL0     H21904   7.039   8.933  10.937 -0.7763  1.2876  0.0836
  903MOL0     H21905   6.833   8.877  10.828 -0.6035 -0.9891 -0.1006
  904MOL0     O21906   9.397   1.033   7.484  0.6287  1.0821  0.2287
  904MOL0     C21907   9.432   0.916   7.456  0.0240 -0.0963  0.3988
  904MOL0     O21908   9.355   0.806   7.464 -0.1978  0.0694  0.1984
  904MOL0     C21909   9.243   0.808   7.548 -0.4410  0.5872 -0.0604
  904MOL0     C21910   9.211   0.682   7.592  0.5992  0.2265 -0.3817
  904MOL0     C21911   9.099   0.663   7.670  0.5573 -0.2235 -0.0832
  904MOL0     C21912   9.019   0.774   7.695 -0.4956  1.2167 -0.2213
  904MOL0     O21913   8.902   0.758   7.760 -0.1423  0.0262  0.0358
  904MOL0     C21914   8.843   0.631   7.765 -0.2892 -0.3180 -1.1424
  904MOL0     C21915   8.695   0.652   7.817  0.0266  0.1262 -0.2167
  904MOL0     C21916   8.604   0.698   7.704  0.4882  0.1788  0.0095
  904MOL0     C21917   8.459   0.704   7.753 -0.4204 -0.4622 -0.3824
  904MOL0     C21918   8.352   0.694   7.636 -0.3997  0.4564 -0.3231
  904MOL0     C21919   8.218   0.744   7.682  0.3726 -0.2343  0.2735
  904MOL0     C21920   8.096   0.705   7.604 -0.5509 -0.5951 -0.7789
  904MOL0     C21921   8.041   0.565   7.632  0.2182 -0.4388  0.3487
  904MOL0     N21922   7.933   0.536   7.540  1.1167 -0.5430 -0.1432
  904MOL0     C21923   7.937   0.442   7.443  0.5974 -0.8366 -0.3014
  904MOL0     C21924   7.806   0.447   7.397 -0.1668 -0.5196  1.1240
  904MOL0     C21925   7.767   0.384   7.266 -0.3608 -0.2534 -0.3792
  904MOL0     C21926   7.682   0.255   7.284  0.0895  0.4264 -0.1808
  904MOL0     C21927   7.546   0.295   7.328  0.7750 -0.1486  0.7422
  904MOL0     C21928   7.470   0.169   7.367 -0.1014 -0.2253  0.2737
  904MOL0     O21929   7.430   0.093   7.251 -0.0019  0.0494 -0.1815
  904MOL0     C21930   7.318   0.017   7.258  0.5303  0.3367  0.3218
  904MOL0     C21931   7.287  -0.073   7.361  0.7604  0.3061 -0.5025
  904MOL0     C21932   7.171  -0.150   7.372 -0.4239 -0.1484  0.4218
  904MOL0     C21933   7.146  -0.241   7.486 -0.9511  0.3949 -0.7450
  904MOL0     C21934   7.067  -0.118   7.275 -0.1439 -0.5544  0.7996
  904MOL0     C21935   6.922  -0.174   7.278 -0.3707 -0.3965 -0.0017
  904MOL0     O21936   6.888  -0.267   7.370 -0.4628  0.0751  0.0239
  904MOL0     C21937   6.764  -0.328   7.348  0.0123  0.2818  0.0256
  904MOL0     C21938   6.749  -0.461   7.308  0.5428  0.1042 -0.3265
  904MOL0     C21939   6.624  -0.517   7.275 -1.1736 -0.3081 -0.5445
  904MOL0     C21940   6.506  -0.437   7.281  0.3008  0.6398 -0.0697
  904MOL0     O21941   6.390  -0.497   7.238  0.6041 -0.0662  0.2344
  904MOL0     C21942   6.274  -0.415   7.216  0.9704 -0.4343 -0.1310
  904MOL0     C21943   6.175  -0.488   7.128 -0.0462 -0.6291 -0.3634
  904MOL0     C21944   6.140  -0.637   7.176  0.5804  0.0781  0.0597
  904MOL0     C21945   6.034  -0.701   7.082  0.0942  0.6484  0.0256
  904MOL0     C21946   5.993  -0.837   7.130  0.2749  1.0328 -0.0069
  904MOL0     C21947   5.860  -0.853   7.204  0.2420  0.5394 -0.5501
  904MOL0     C21948   5.883  -0.814   7.350  0.3676 -0.9588 -0.2383
  904MOL0     C21949   5.756  -0.835   7.433 -0.2179  0.8289 -0.4361
  904MOL0    Cl21950   5.596  -0.788   7.353 -0.0663  0.3625 -0.3484
  904MOL0     C21951   6.521  -0.306   7.335  0.8398  0.6419  0.7490
  904MOL0     C21952   6.647  -0.257   7.377  0.1440 -0.1907  0.1170
  904MOL0     O21953   6.848  -0.124   7.190  0.6022  0.1456  0.6303
  904MOL0     C21954   7.100  -0.031   7.167  0.2118  0.2625  0.1692
  904MOL0     C21955   7.234   0.022   7.145 -0.0840 -0.0652 -0.0014
  904MOL0     N21956   7.727   0.534   7.473 -0.4991  0.3021 -0.2832
  904MOL0     N21957   7.805   0.575   7.561  0.1216  0.8606 -0.0339
  904MOL0     C21958   9.050   0.897   7.655 -0.0982 -0.4544 -0.4367
  904MOL0     C21959   9.156   0.915   7.572  1.1803  0.9417 -0.5396
  904MOL0     C21960   9.573   0.892   7.418 -0.6565 -0.5291  0.6308
  904MOL0     C21961   9.631   0.763   7.417  0.7919  0.0958 -0.0778
  904MOL0     C21962   9.767   0.747   7.391 -1.1484 -0.0031  0.5393
  904MOL0     C21963   9.850   0.858   7.366 -0.5490  0.6013  0.4235
  904MOL0     O21964   9.980   0.852   7.331  0.2243 -0.4154  0.2005
  904MOL0     C21965  10.031   0.732   7.284 -0.3030 -0.5369 -0.5499
  904MOL0     C21966  10.181   0.744   7.230 -0.4347  0.2364 -0.4462
  904MOL0     C21967  10.265   0.829   7.336 -0.7135  0.4301 -0.1119
  904MOL0     C21968  10.415   0.790   7.344  0.4320 -0.2178 -0.1917
  904MOL0     C21969  10.499   0.811   7.224 -0.1909  0.6419 -0.2271
  904MOL0     C21970  10.572   0.805   7.126 -0.1511  0.0706 -0.2791
  904MOL0     C21971   9.790   0.983   7.354  0.4115  0.7114 -0.5706
  904MOL0     C21972   9.654   0.995   7.371  0.6524 -0.1006 -0.8323
  904MOL0     H21973   9.260   0.589   7.565  0.6002 -0.8002  2.7890
  904MOL0     H21974   9.069   0.568   7.713  1.0623 -0.9022 -1.1693
  904MOL0     H21975   8.852   0.583   7.667  1.3639 -0.2857 -1.0447
  904MOL0     H21976   8.894   0.569   7.839  0.5673  2.9905  1.2600
  904MOL0     H21977   8.649   0.561   7.856  0.3964  0.6975  1.6280
  904MOL0     H21978   8.691   0.732   7.891  0.7043 -0.1857  0.1615
  904MOL0     H21979   8.633   0.791   7.655 -1.0395  2.4774  3.0808
  904MOL0     H21980   8.609   0.621   7.627  1.1267  0.7019 -0.4816
  904MOL0     H21981   8.447   0.620   7.822  3.4257 -1.9309 -1.2591
  904MOL0     H21982   8.448   0.802   7.802  1.1286  0.0845 -1.0487
  904MOL0     H21983   8.391   0.749   7.549  0.7143 -0.8250 -0.6797
  904MOL0     H21984   8.348   0.586   7.618  0.0910  0.1446  1.3335
  904MOL0     H21985   8.203   0.698   7.780 -1.2275 -3.8877 -1.5217
  904MOL0     H21986   8.212   0.853   7.681  2.1575 -0.0605 -2.0027
  904MOL0     H21987   8.017   0.779   7.617 -1.9290 -1.7501 -2.1616
  904MOL0     H21988   8.123   0.707   7.498 -0.5087 -0.0119 -0.7600
  904MOL0     H21989   8.016   0.562   7.738 -0.1637  2.4000  0.4263
  904MOL0     H21990   8.123   0.495   7.613  0.3861  0.2389 -1.6308
  904MOL0     H21991   8.019   0.384   7.402  0.2023 -1.1050 -0.7257
  904MOL0     H21992   7.722   0.465   7.208  0.3791 -0.1727 -0.8492
  904MOL0     H21993   7.862   0.359   7.217 -0.1178  1.0306 -0.5938
  904MOL0     H21994   7.724   0.186   7.357 -0.2437  1.3173  0.8899
  904MOL0     H21995   7.678   0.197   7.191 -2.6167  0.5656 -0.2306
  904MOL0     H21996   7.500   0.353   7.247  1.2799  3.6173  2.9600
  904MOL0     H21997   7.546   0.357   7.418 -2.1303  1.0511  0.0381
  904MOL0     H21998   7.382   0.202   7.423  0.8011  1.2181  0.8978
  904MOL0     H21999   7.534   0.117   7.439  1.2138  0.7126 -0.1780
  904MOL0     H22000   7.360  -0.076   7.442  0.0631 -1.6281  0.1059
  904MOL0     H22001   7.073  -0.197   7.554 -0.7996  1.0142 -0.9690
  904MOL0     H22002   7.125  -0.341   7.447 -0.1957 -0.0957  0.0506
  904MOL0     H22003   7.238  -0.248   7.545  0.2022  0.5009 -2.4473
  904MOL0     H22004   6.839  -0.522   7.307 -0.8462 -2.0265  0.6060
  904MOL0     H22005   6.626  -0.620   7.241 -2.6173  0.4580 -3.2693
  904MOL0     H22006   6.227  -0.376   7.307  1.8767  1.6658 -0.4925
  904MOL0     H22007   6.306  -0.327   7.159  0.6687 -0.7177 -0.7443
  904MOL0     H22008   6.078  -0.437   7.126 -0.3853 -1.2523 -0.0803
  904MOL0     H22009   6.216  -0.490   7.026  1.2958  1.1747  0.0894
  904MOL0     H22010   6.108  -0.644   7.280 -0.5016 -2.1307 -0.3602
  904MOL0     H22011   6.226  -0.704   7.182 -0.3217 -0.9874  4.0924
  904MOL0     H22012   5.944  -0.642   7.065 -1.6010 -2.1206 -1.2609
  904MOL0     H22013   6.071  -0.719   6.981 -2.5720 -2.6312 -0.5479
  904MOL0     H22014   6.075  -0.874   7.193  0.9421 -0.2884 -1.5898
  904MOL0     H22015   5.985  -0.906   7.045  0.7481  1.0932 -0.1014
  904MOL0     H22016   5.776  -0.809   7.150 -0.6956  1.4573  1.5044
  904MOL0     H22017   5.830  -0.957   7.216  1.5908 -0.1566 -2.5975
  904MOL0     H22018   5.911  -0.709   7.361  2.1283 -1.3397 -0.6974
  904MOL0     H22019   5.967  -0.871   7.392 -1.0844 -2.3348  0.9053
  904MOL0     H22020   5.755  -0.773   7.523 -1.1341 -0.6900  0.6580
  904MOL0     H22021   5.729  -0.934   7.472 -0.6219  1.3525  0.6385
  904MOL0     H22022   6.426  -0.253   7.340 -0.9480 -2.2538 -0.1310
  904MOL0     H22023   6.661  -0.161   7.426  0.3938  0.4254 -1.1278
  904MOL0     H22024   7.019  -0.009   7.098 -0.6911  0.8643  1.4031
  904MOL0     H22025   7.251   0.090   7.061  0.6861  2.4356  2.0347
  904MOL0     H22026   8.972   0.970   7.674  2.4709  3.0277 -2.2475
  904MOL0     H22027   9.157   1.014   7.529 -0.3162 -0.1898 -3.3972
  904MOL0     H22028   9.575   0.674   7.446 -0.1805  0.4802 -0.7197
  904MOL0     H22029   9.798   0.644   7.386 -0.6256  0.1581  0.3165
  904MOL0     H22030  10.029   0.674   7.377 -0.0932 -1.4100 -1.0780
  904MOL0     H22031   9.966   0.674   7.218  0.9676 -2.2775 -0.3429
  904MOL0     H22032  10.184   0.793   7.132 -2.9612 -0.2219 -0.8126
  904MOL0     H22033  10.220   0.642   7.224 -0.5668  0.0035  1.8451
  904MOL0     H22034  10.212   0.813   7.430 -0.6199  2.5406  0.3376
  904MOL0     H22035  10.276   0.935   7.313  1.9478 -0.5071 -4.3479
  904MOL0     H22036  10.418   0.689   7.384 -0.0673 -1.5675 -3.2659
  904MOL0     H22037  10.459   0.856   7.420 -0.3893  0.2123 -0.0744
  904MOL0     H22038  10.622   0.801   7.031  2.3457  3.2888  0.6918
  904MOL0     H22039   9.844   1.072   7.324  1.4946  0.2272 -0.1156
  904MOL0     H22040   9.611   1.094   7.356 -0.1446 -0.6558 -2.3747
  905MOL0     O22041   4.412   8.013   0.208  0.8623 -0.2003 -0.6006
  905MOL0     C22042   4.301   7.963   0.217 -0.2586 -0.9846 -0.2267
  905MOL0     O22043   4.259   7.844   0.156 -0.5249 -0.2473 -0.1234
  905MOL0     C22044   4.347   7.763   0.081  0.3761  0.2699 -0.8963
  905MOL0     C22045   4.299   7.689  -0.035 -0.6251  0.0382  0.0004
  905MOL0     C22046   4.391   7.601  -0.098 -0.0573  0.3715 -0.1806
  905MOL0     C22047   4.522   7.582  -0.047  0.6543 -0.2326  0.4171
  905MOL0     O22048   4.612   7.490  -0.090 -0.0747 -0.0090 -0.0374
  905MOL0     C22049   4.596   7.431  -0.216 -0.3586 -0.1067  0.5872
  905MOL0     C22050   4.705   7.322  -0.232 -0.2620  0.5745 -0.6705
  905MOL0     C22051   4.858   7.363  -0.214  0.5171 -0.8191  0.1444
  905MOL0     C22052   4.892   7.417  -0.071  0.0514  0.4194 -0.2551
  905MOL0     C22053   5.048   7.415  -0.043 -0.2475 -0.6101  0.2258
  905MOL0     C22054   5.084   7.434   0.102 -0.2182 -0.0908  0.5142
  905MOL0     C22055   5.234   7.417   0.125 -0.7380  0.7345 -0.0131
  905MOL0     C22056   5.289   7.270   0.117  0.0490 -0.1867 -0.2084
  905MOL0     N22057   5.435   7.257   0.125 -0.7367  0.2517  0.6531
  905MOL0     C22058   5.513   7.269   0.247 -0.7633 -1.1508 -0.2556
  905MOL0     C22059   5.637   7.245   0.199 -0.1141 -0.6947 -0.1970
  905MOL0     C22060   5.762   7.248   0.288 -0.6957  0.3373 -0.6536
  905MOL0     C22061   5.811   7.385   0.310  0.2023  0.1126 -0.5146
  905MOL0     C22062   5.854   7.456   0.174  0.5174  0.8202  0.1825
  905MOL0     C22063   5.898   7.599   0.201  0.2415 -0.3426 -0.3652
  905MOL0     O22064   5.801   7.674   0.276 -0.4517 -0.4472  0.6809
  905MOL0     C22065   5.682   7.730   0.223 -0.4677  0.0824  0.0998
  905MOL0     C22066   5.615   7.799   0.315  0.6073 -0.5378 -0.3689
  905MOL0     C22067   5.491   7.864   0.282  0.0799  0.4894  0.1862
  905MOL0     C22068   5.429   7.955   0.390 -0.1207 -0.3534  0.1758
  905MOL0     C22069   5.437   7.844   0.156  0.5760  0.2588 -0.2393
  905MOL0     C22070   5.301   7.898   0.108 -0.3612  0.7954 -1.3303
  905MOL0     O22071   5.267   7.875  -0.016  0.0368 -0.1547 -0.1239
  905MOL0     C22072   5.139   7.915  -0.059 -0.0472 -0.8757  1.0875
  905MOL0     C22073   5.025   7.854  -0.006 -0.8989 -0.2674  0.0369
  905MOL0     C22074   4.899   7.882  -0.050  0.3750 -0.6249  0.5386
  905MOL0     C22075   4.881   7.978  -0.157 -0.1261  0.3564 -0.2283
  905MOL0     O22076   4.753   8.008  -0.199  0.2536 -0.1904  0.1578
  905MOL0     C22077   4.659   8.043  -0.104 -0.4643 -0.3986 -0.6130
  905MOL0     C22078   4.600   8.178  -0.145 -0.0605 -0.3107 -0.3587
  905MOL0     C22079   4.500   8.233  -0.033 -0.9541  0.1258  0.1620
  905MOL0     C22080   4.424   8.344  -0.100 -0.5959  0.0660  0.3957
  905MOL0     C22081   4.348   8.433   0.007 -0.0724  0.7747  0.1541
  905MOL0     C22082   4.268   8.539  -0.057  0.4371  0.1106  0.4141
  905MOL0     C22083   4.181   8.630   0.038 -1.1205  0.0096 -0.4875
  905MOL0     C22084   4.088   8.733  -0.016  0.2989  0.1890  0.0925
  905MOL0    Cl22085   4.166   8.832  -0.136 -0.1515 -0.2328 -0.1165
  905MOL0     C22086   4.993   8.052  -0.206  0.4789 -0.0486  0.3343
  905MOL0     C22087   5.125   8.025  -0.152  0.1115 -0.2397  0.0816
  905MOL0     O22088   5.226   7.963   0.181  0.0182  0.3157 -0.5328
  905MOL0     C22089   5.516   7.778   0.053 -0.6015 -0.6257 -0.2265
  905MOL0     C22090   5.638   7.719   0.095  0.6683 -0.8812  0.9150
  905MOL0     N22091   5.635   7.219   0.061 -0.7538  0.1775 -0.5325
  905MOL0     N22092   5.514   7.218   0.015  0.6389  0.7143 -0.3254
  905MOL0     C22093   4.571   7.664   0.051  0.1809  0.9236 -0.4644
  905MOL0     C22094   4.486   7.753   0.112 -0.1409 -0.1186 -0.1119
  905MOL0     C22095   4.201   8.039   0.304  0.1773  0.0259  0.3224
  905MOL0     C22096   4.235   8.162   0.364 -0.3735 -1.2244  0.2100
  905MOL0     C22097   4.146   8.238   0.440  0.3345  0.2304  0.9332
  905MOL0     C22098   4.021   8.184   0.461  0.1921  0.5542 -0.3603
  905MOL0     O22099   3.956   8.269   0.545  0.0412  0.1785 -1.1598
  905MOL0     C22100   3.821   8.256   0.566  0.6901 -0.9491 -0.2616
  905MOL0     C22101   3.792   8.402   0.616  0.2119 -0.4584  0.2471
  905MOL0     C22102   3.644   8.407   0.638  0.2836  0.2999 -0.0244
  905MOL0     C22103   3.615   8.531   0.707  0.2932  0.1882 -0.0680
  905MOL0     C22104   3.662   8.526   0.848  0.9233 -0.4256 -0.3164
  905MOL0     C22105   3.673   8.530   0.967 -0.4543  0.2595 -0.3410
  905MOL0     C22106   3.977   8.061   0.402 -0.5093 -0.6760 -0.4875
  905MOL0     C22107   4.063   7.993   0.313 -0.8196 -0.6952  0.1221
  905MOL0     H22108   4.195   7.699  -0.065 -0.8241 -1.3357  0.1682
  905MOL0     H22109   4.352   7.539  -0.178  1.2227 -0.2282 -0.3620
  905MOL0     H22110   4.499   7.382  -0.225 -0.2526 -0.4375  1.2084
  905MOL0     H22111   4.606   7.494  -0.305  2.8038 -2.1642 -0.7019
  905MOL0     H22112   4.688   7.237  -0.165  1.0545  0.2235 -0.7407
  905MOL0     H22113   4.689   7.288  -0.334 -1.5010 -0.4258 -0.1675
  905MOL0     H22114   4.922   7.277  -0.235  1.4516 -0.1570  0.2107
  905MOL0     H22115   4.894   7.436  -0.287 -0.6416  0.3719  0.7218
  905MOL0     H22116   4.869   7.523  -0.061  0.1189  0.4170 -0.0822
  905MOL0     H22117   4.833   7.360   0.001  3.6254  0.2468  2.8173
  905MOL0     H22118   5.081   7.318  -0.083 -2.4658 -0.8031 -1.3347
  905MOL0     H22119   5.103   7.482  -0.109  1.7488 -1.7877  0.6126
  905MOL0     H22120   5.050   7.536   0.126  0.5848  0.6173 -1.1509
  905MOL0     H22121   5.020   7.368   0.160 -0.0884  3.1321  4.9295
  905MOL0     H22122   5.295   7.473   0.053 -1.1910  1.2989  0.0315
  905MOL0     H22123   5.256   7.463   0.222 -2.8739  0.9908  0.4016
  905MOL0     H22124   5.269   7.234   0.016 -0.2073 -0.3389 -0.1046
  905MOL0     H22125   5.247   7.188   0.176 -0.2596 -1.9479 -2.7143
  905MOL0     H22126   5.482   7.287   0.350 -1.1742 -0.9890 -0.4060
  905MOL0     H22127   5.740   7.202   0.384  1.8121  0.4566  0.0555
  905MOL0     H22128   5.840   7.191   0.236 -0.0614 -0.0989  0.7375
  905MOL0     H22129   5.894   7.388   0.380 -2.7389  0.4968  3.2799
  905MOL0     H22130   5.734   7.451   0.352 -0.3542  1.2917 -3.1350
  905MOL0     H22131   5.764   7.457   0.113 -0.9413  0.7649  2.2419
  905MOL0     H22132   5.939   7.404   0.128 -0.6294  0.4277 -1.5828
  905MOL0     H22133   5.932   7.654   0.113 -0.4574 -0.4493 -0.7084
  905MOL0     H22134   5.980   7.588   0.274  0.2941  0.7771 -0.2386
  905MOL0     H22135   5.654   7.797   0.416 -0.3032  0.8184  0.0453
  905MOL0     H22136   5.409   8.054   0.349 -1.3655 -1.2271 -1.4513
  905MOL0     H22137   5.342   7.902   0.430  0.4865 -0.2125  1.7876
  905MOL0     H22138   5.494   7.963   0.478 -0.6074  1.8712  0.3932
  905MOL0     H22139   5.036   7.766   0.056 -1.4916 -1.4560 -1.4729
  905MOL0     H22140   4.815   7.830  -0.007 -0.7712 -0.9272 -1.8774
  905MOL0     H22141   4.587   7.962  -0.093  0.9442 -1.5948  0.1716
  905MOL0     H22142   4.700   8.063  -0.004 -2.9278  1.4732  0.1389
  905MOL0     H22143   4.679   8.252  -0.164  0.0199 -0.7618 -1.8991
  905MOL0     H22144   4.552   8.155  -0.240  0.9477 -2.2277 -0.4479
  905MOL0     H22145   4.551   8.265   0.058  1.8908 -0.0594 -1.2187
  905MOL0     H22146   4.418   8.166  -0.007 -0.4972  0.0269  1.4027
  905MOL0     H22147   4.489   8.407  -0.160 -0.5046 -0.3363  0.0628
  905MOL0     H22148   4.351   8.309  -0.174  0.5404  0.2379 -0.8245
  905MOL0     H22149   4.420   8.487   0.070 -0.0545  3.1741 -1.7729
  905MOL0     H22150   4.281   8.382   0.077 -0.5364  1.6824  0.3921
  905MOL0     H22151   4.334   8.606  -0.114  1.3934 -1.0975  0.0605
  905MOL0     H22152   4.198   8.498  -0.131  0.3508 -3.5815  2.3411
  905MOL0     H22153   4.264   8.683   0.086 -0.7229 -0.1574 -0.9847
  905MOL0     H22154   4.122   8.569   0.108  2.1955 -3.0413 -0.0837
  905MOL0     H22155   4.057   8.799   0.065 -1.0312 -0.1781 -0.0904
  905MOL0     H22156   4.002   8.684  -0.064 -0.1115  1.5866 -0.6590
  905MOL0     H22157   4.988   8.128  -0.283  2.6512  0.8843  1.0282
  905MOL0     H22158   5.216   8.071  -0.190  0.1130 -0.3484 -0.0491
  905MOL0     H22159   5.483   7.771  -0.050 -0.3876 -1.7979 -0.2313
  905MOL0     H22160   5.697   7.661   0.025 -0.9643 -0.8721 -0.5510
  905MOL0     H22161   4.670   7.650   0.093 -0.1646  0.6070  0.2529
  905MOL0     H22162   4.520   7.804   0.202  1.6357 -0.6160 -0.4615
  905MOL0     H22163   4.337   8.197   0.353  0.0909 -3.1188 -2.2491
  905MOL0     H22164   4.172   8.330   0.492 -0.7441  1.6442 -0.9052
  905MOL0     H22165   3.759   8.233   0.480 -0.6732 -1.4108  0.8059
  905MOL0     H22166   3.803   8.183   0.646  0.5256 -0.9345 -0.2856
  905MOL0     H22167   3.821   8.472   0.537 -0.6885 -0.6132 -0.2351
  905MOL0     H22168   3.846   8.422   0.709 -0.7501 -0.9658  0.9428
  905MOL0     H22169   3.609   8.325   0.702  1.6158  0.0206  0.3747
  905MOL0     H22170   3.584   8.402   0.546 -1.9106  1.0089  1.3154
  905MOL0     H22171   3.507   8.546   0.702  0.3831  0.9867  0.2047
  905MOL0     H22172   3.666   8.617   0.662  4.0787  1.2117  5.2066
  905MOL0     H22173   3.701   8.537   1.070  1.3560  0.6521 -0.8167
  905MOL0     H22174   3.873   8.034   0.417 -1.0877  1.6898  0.2438
  905MOL0     H22175   4.031   7.906   0.258  0.6643 -0.4019 -1.2743
  906MOL0     O22176   5.925  10.473  11.340 -0.3179 -0.4687 -0.0537
  906MOL0     C22177   6.001  10.559  11.391  0.3122 -0.4649 -0.4233
  906MOL0     O22178   5.967  10.685  11.431 -0.7184 -0.3299  0.7521
  906MOL0     C22179   5.833  10.720  11.442 -0.0462  0.1172  0.7619
  906MOL0     C22180   5.801  10.819  11.536  0.4299  0.1360 -0.5757
  906MOL0     C22181   5.676  10.885  11.540  0.3120  0.0702  0.4473
  906MOL0     C22182   5.577  10.848  11.446  0.3348 -0.6243 -0.3505
  906MOL0     O22183   5.447  10.895  11.446 -0.8309  0.2445 -0.0567
  906MOL0     C22184   5.406  10.990  11.545 -0.1373 -0.1145 -0.7416
  906MOL0     C22185   5.249  11.010  11.536  0.4472 -0.4629  0.2032
  906MOL0     C22186   5.178  10.877  11.577  0.0570 -0.4625  0.3603
  906MOL0     C22187   5.029  10.904  11.628 -0.7389  0.0145 -0.1471
  906MOL0     C22188   4.960  10.772  11.648  0.0836 -0.3209  0.4608
  906MOL0     C22189   4.826  10.789  11.724 -0.0882 -0.0761 -0.5583
  906MOL0     C22190   4.745  10.657  11.749  0.5246 -0.7297 -0.5301
  906MOL0     C22191   4.610  10.679  11.810  0.0857 -0.1845 -0.4325
  906MOL0     N22192   4.629  10.701  11.953  1.0215 -0.0587 -0.4856
  906MOL0     C22193   4.658  10.609  12.056 -0.8749 -0.3031  0.2467
  906MOL0     C22194   4.660  10.677  12.174  0.1874 -0.4655  0.1816
  906MOL0     C22195   4.672  10.623  12.313 -0.3084 -0.1897 -0.4780
  906MOL0     C22196   4.546  10.540  12.367  0.2128 -0.0747 -0.3702
  906MOL0     C22197   4.415  10.623  12.359  0.4645  0.2297  0.0438
  906MOL0     C22198   4.298  10.545  12.418  0.2509  0.3552  0.7924
  906MOL0     O22199   4.257  10.448  12.326 -0.4254 -0.0823 -0.3775
  906MOL0     C22200   4.125  10.399  12.348 -0.3526  0.5545 -0.0001
  906MOL0     C22201   4.026  10.461  12.427  0.9959  0.3400 -0.4529
  906MOL0     C22202   3.890  10.418  12.424 -0.4097  0.4937 -0.4165
  906MOL0     C22203   3.796  10.485  12.516 -1.1235 -0.5116 -0.4953
  906MOL0     C22204   3.850  10.313  12.340 -0.0575 -0.6533 -0.0886
  906MOL0     C22205   3.710  10.262  12.333  0.0042 -1.5343  0.3366
  906MOL0     O22206   3.638  10.264  12.453  0.1697  0.1436 -0.1529
  906MOL0     C22207   3.509  10.234  12.450 -0.0922 -0.6966  0.0715
  906MOL0     C22208   3.414  10.322  12.512 -0.2733  0.0834 -0.3389
  906MOL0     C22209   3.276  10.297  12.509  0.1985  0.0939 -0.2713
  906MOL0     C22210   3.231  10.178  12.453  0.3645  0.3077 -0.5331
  906MOL0     O22211   3.097  10.140  12.455  0.6246 -0.2418 -0.4277
  906MOL0     C22212   3.016  10.208  12.365 -0.6726  1.1231 -0.8185
  906MOL0     C22213   2.870  10.154  12.383 -0.2378  0.2059 -0.4060
  906MOL0     C22214   2.844  10.034  12.299 -0.6011  0.1738  0.0388
  906MOL0     C22215   2.724   9.960  12.356 -0.0358  0.8291 -0.2529
  906MOL0     C22216   2.667   9.864  12.255  0.2081  0.3398  0.0760
  906MOL0     C22217   2.547   9.799  12.327 -0.4905 -0.1454  0.3729
  906MOL0     C22218   2.438   9.746  12.221 -0.5655  0.3768  0.1403
  906MOL0     C22219   2.323   9.683  12.300  0.4846 -0.1172 -0.1744
  906MOL0    Cl22220   2.249   9.795  12.412  0.0808  0.0515 -0.1406
  906MOL0     C22221   3.328  10.087  12.404 -0.2987  0.5584 -0.2143
  906MOL0     C22222   3.465  10.113  12.403  0.3128  0.5001  0.2145
  906MOL0     O22223   3.669  10.224  12.227  0.1578 -0.1246  0.2093
  906MOL0     C22224   3.947  10.245  12.267  0.2302 -0.3487  0.1595
  906MOL0     C22225   4.080  10.288  12.275  0.1317  0.0238 -0.1748
  906MOL0     N22226   4.614  10.801  12.145  0.1318 -0.1038 -0.7409
  906MOL0     N22227   4.603  10.813  12.018 -0.4009 -0.0046 -0.1810
  906MOL0     C22228   5.602  10.739  11.361  0.3146 -0.0577 -0.2962
  906MOL0     C22229   5.730  10.687  11.353 -0.5432  0.4820  0.7283
  906MOL0     C22230   6.144  10.515  11.413  0.9923 -0.3955  0.1517
  906MOL0     C22231   6.217  10.533  11.525 -0.2148  0.1683 -0.6459
  906MOL0     C22232   6.356  10.494  11.521  0.9500  0.4374  0.1583
  906MOL0     C22233   6.410  10.422  11.410 -0.2873  0.1106 -0.4324
  906MOL0     O22234   6.544  10.392  11.413  0.3223  0.1183  0.1839
  906MOL0     C22235   6.633  10.480  11.356  0.7006 -0.1302 -0.4737
  906MOL0     C22236   6.667  10.589  11.455 -0.7818 -0.3430 -0.0861
  906MOL0     C22237   6.784  10.544  11.545  0.4370 -0.2654 -0.0293
  906MOL0     C22238   6.857  10.670  11.603  0.2311  0.0771 -0.9553
  906MOL0     C22239   6.775  10.768  11.670  1.0506 -0.2897 -0.0461
  906MOL0     C22240   6.716  10.856  11.722  0.0783 -0.9740  0.0139
  906MOL0     C22241   6.332  10.395  11.301  1.2811  0.1215  0.5657
  906MOL0     C22242   6.192  10.440  11.302 -0.2805 -0.3460 -0.0238
  906MOL0     H22243   5.882  10.843  11.604  1.9968  1.3925 -2.7577
  906MOL0     H22244   5.656  10.964  11.612 -1.1130  0.2620 -0.1431
  906MOL0     H22245   5.427  10.957  11.647 -1.5407 -1.4910 -0.8502
  906MOL0     H22246   5.469  11.076  11.522 -0.8785  0.2985 -1.2774
  906MOL0     H22247   5.217  11.098  11.592  3.8871  1.2154 -0.2399
  906MOL0     H22248   5.219  11.037  11.434  0.4399  2.1043  0.8108
  906MOL0     H22249   5.180  10.807  11.493 -0.7041 -1.2928  1.0145
  906MOL0     H22250   5.231  10.827  11.658 -1.9807 -3.1521  0.1627
  906MOL0     H22251   5.023  10.963  11.720 -5.1759  1.2030 -1.0022
  906MOL0     H22252   4.975  10.963  11.554  1.1562  0.3312 -1.3482
  906MOL0     H22253   4.945  10.732  11.547 -0.6499  3.1805 -0.9627
  906MOL0     H22254   5.027  10.700  11.695  0.3826 -0.8239 -0.6775
  906MOL0     H22255   4.855  10.845  11.813 -3.2726 -0.7511  1.0368
  906MOL0     H22256   4.751  10.845  11.666  0.4583 -1.9079 -3.2567
  906MOL0     H22257   4.715  10.618  11.651 -1.0600  0.0560 -0.3866
  906MOL0     H22258   4.798  10.583  11.810  0.7629  0.3408  0.6047
  906MOL0     H22259   4.554  10.588  11.789 -0.7740  0.3792 -0.6653
  906MOL0     H22260   4.556  10.763  11.763  0.4542  1.8491  2.5101
  906MOL0     H22261   4.685  10.505  12.041  1.3851  0.3805 -1.0132
  906MOL0     H22262   4.755  10.551  12.310 -2.3917 -2.7643 -0.5973
  906MOL0     H22263   4.692  10.699  12.388 -0.7734  1.2883 -1.7972
  906MOL0     H22264   4.562  10.521  12.474  0.2733 -1.5622 -0.6125
  906MOL0     H22265   4.538  10.448  12.307  0.2850 -1.3696  1.5075
  906MOL0     H22266   4.393  10.656  12.257 -1.0450 -1.4993 -0.2323
  906MOL0     H22267   4.433  10.714  12.418  2.2061  1.3267 -2.0177
  906MOL0     H22268   4.220  10.620  12.430  1.9271  2.8656 -2.3394
  906MOL0     H22269   4.317  10.494  12.513  0.7697 -0.5667  0.2095
  906MOL0     H22270   4.043  10.549  12.489  2.5098  0.0543 -0.4407
  906MOL0     H22271   3.839  10.570  12.569 -1.6845 -0.0085 -0.8396
  906MOL0     H22272   3.697  10.512  12.476 -1.9556  0.7049  2.1382
  906MOL0     H22273   3.762  10.421  12.598 -4.2814  1.9579  0.3195
  906MOL0     H22274   3.447  10.414  12.559  0.1081  0.6322 -1.6261
  906MOL0     H22275   3.209  10.365  12.561  2.5436 -0.2521  3.6250
  906MOL0     H22276   3.023  10.316  12.382  1.9866  0.6920  1.7761
  906MOL0     H22277   3.052  10.195  12.263 -0.7930 -0.1804 -0.7106
  906MOL0     H22278   2.852  10.136  12.490 -1.1982  2.0803 -0.2121
  906MOL0     H22279   2.807  10.236  12.347 -0.9726 -1.6078 -3.6468
  906MOL0     H22280   2.939   9.981  12.289  1.2987  3.4937 -1.1883
  906MOL0     H22281   2.827  10.068  12.197 -0.6710  1.8464  0.5806
  906MOL0     H22282   2.748   9.907  12.449  1.0053  3.2625  0.9679
  906MOL0     H22283   2.646  10.033  12.379  0.0587  0.1308  2.8373
  906MOL0     H22284   2.746   9.795  12.224 -0.4741 -0.4247  0.0040
  906MOL0     H22285   2.630   9.932  12.178 -5.6153  0.1602  2.1775
  906MOL0     H22286   2.593   9.713  12.375 -0.3834  1.0727  2.5883
  906MOL0     H22287   2.499   9.857  12.407  0.5727 -2.2626  2.6563
  906MOL0     H22288   2.498   9.679  12.159 -1.6240  0.3673 -0.9135
  906MOL0     H22289   2.386   9.824  12.163  0.1955  1.2890  0.6551
  906MOL0     H22290   2.346   9.587  12.347 -1.9659 -0.7096 -0.0783
  906MOL0     H22291   2.248   9.658  12.224 -2.0574  1.3385  1.7035
  906MOL0     H22292   3.297   9.992  12.364 -3.4202  1.0607  0.6869
  906MOL0     H22293   3.528  10.034  12.363 -0.0926  0.0598  0.4370
  906MOL0     H22294   3.919  10.157  12.210 -2.0099  1.1045 -1.1399
  906MOL0     H22295   4.153  10.239  12.211 -0.6288  0.5866 -1.5318
  906MOL0     H22296   5.518  10.699  11.305  0.9137 -3.1356  0.7963
  906MOL0     H22297   5.730  10.616  11.271 -0.4240  2.6221 -1.2307
  906MOL0     H22298   6.167  10.573  11.613 -1.0203 -5.1512  1.6811
  906MOL0     H22299   6.412  10.497  11.614  1.2315 -1.7893  0.1152
  906MOL0     H22300   6.724  10.422  11.334  1.4310  2.3940 -5.4633
  906MOL0     H22301   6.595  10.522  11.262 -0.7607  2.3764  1.1188
  906MOL0     H22302   6.584  10.617  11.522  0.4099 -0.6516  1.5918
  906MOL0     H22303   6.696  10.680  11.402  1.3149 -1.5413 -1.1248
  906MOL0     H22304   6.865  10.499  11.487  2.7525  0.7105  2.2390
  906MOL0     H22305   6.756  10.471  11.621  3.3726  1.7969  3.3400
  906MOL0     H22306   6.896  10.718  11.513 -2.4901  0.1753 -2.1866
  906MOL0     H22307   6.938  10.646  11.672 -0.6062 -0.1210 -0.0158
  906MOL0     H22308   6.675  10.941  11.774  0.1599 -0.3869 -0.8570
  906MOL0     H22309   6.365  10.350  11.208  1.3072  0.4514  0.4156
  906MOL0     H22310   6.126  10.421  11.219 -0.9649 -3.0664  1.0364
  907MOL0     O22311   2.081  11.340   4.216 -0.1473 -0.8307 -0.3316
  907MOL0     C22312   2.080  11.436   4.131 -0.4592  0.6235  1.0454
  907MOL0     O22313   1.972  11.471   4.063  0.3988  0.2233  0.4124
  907MOL0     C22314   1.858  11.395   4.083  0.1131  1.0287 -0.1088
  907MOL0     C22315   1.782  11.423   4.196  0.1050 -0.3829  0.7254
  907MOL0     C22316   1.674  11.342   4.222 -0.3785  0.8849 -0.5831
  907MOL0     C22317   1.636  11.234   4.134  0.9671  0.4366  0.7570
  907MOL0     O22318   1.523  11.161   4.167  0.4308 -0.7943 -0.1065
  907MOL0     C22319   1.543  11.020   4.156  0.3073 -0.4750  0.8113
  907MOL0     C22320   1.427  10.943   4.225 -0.7999  0.5351  0.4297
  907MOL0     C22321   1.288  10.949   4.150 -0.8195 -0.8449  0.6143
  907MOL0     C22322   1.188  10.868   4.242 -0.3716  0.0410 -0.8387
  907MOL0     C22323   1.040  10.874   4.204  0.1858 -0.4954  0.1069
  907MOL0     C22324   0.954  10.869   4.330  0.7712 -0.3779 -0.1187
  907MOL0     C22325   0.807  10.856   4.287  0.6669 -0.2715  0.0101
  907MOL0     C22326   0.695  10.819   4.393 -0.3127 -0.5101 -0.6092
  907MOL0     N22327   0.561  10.839   4.339  1.0223 -0.8248 -0.1192
  907MOL0     C22328   0.510  10.954   4.271 -0.3549  0.6872 -0.9213
  907MOL0     C22329   0.385  10.915   4.226  0.2578  0.0931 -0.2029
  907MOL0     C22330   0.293  11.006   4.153  0.7806 -0.1637 -0.3815
  907MOL0     C22331   0.226  11.132   4.224  0.2353 -0.2503 -0.2176
  907MOL0     C22332   0.141  11.219   4.123  0.3000 -0.9278 -0.5288
  907MOL0     C22333   0.082  11.348   4.188  0.3229 -0.4729  0.6024
  907MOL0     O22334   0.164  11.424   4.277 -0.8161  0.2070  0.6030
  907MOL0     C22335   0.264  11.505   4.227  0.8502 -0.3878 -0.2760
  907MOL0     C22336   0.331  11.568   4.326  0.0063  0.8314  0.6594
  907MOL0     C22337   0.440  11.651   4.300  0.0655 -0.3743 -0.4070
  907MOL0     C22338   0.525  11.692   4.426 -0.1719 -0.4520  0.4898
  907MOL0     C22339   0.479  11.681   4.161  0.6430  0.6629 -0.2670
  907MOL0     C22340   0.595  11.767   4.131 -0.2083 -0.1383  1.1276
  907MOL0     O22341   0.650  11.761   4.006 -0.0081 -0.4623  0.7154
  907MOL0     C22342   0.765  11.830   3.998 -0.5825 -0.8840  0.1830
  907MOL0     C22343   0.881  11.761   4.022  0.9494  0.9098 -0.3899
  907MOL0     C22344   1.008  11.820   4.019  0.4026 -0.1760 -0.4624
  907MOL0     C22345   1.027  11.951   3.986 -0.2667 -0.7184  0.7001
  907MOL0     O22346   1.140  12.033   3.984  0.4184  0.2817  0.7619
  907MOL0     C22347   1.259  11.967   4.041 -0.1133 -0.4235  0.2702
  907MOL0     C22348   1.360  12.072   4.070 -0.4260 -0.0905 -0.8097
  907MOL0     C22349   1.386  12.165   3.951  0.3164 -0.6280 -0.2404
  907MOL0     C22350   1.461  12.291   3.995 -0.1377  0.2974  0.8942
  907MOL0     C22351   1.503  12.374   3.874 -0.1607  0.3310 -0.9887
  907MOL0     C22352   1.641  12.437   3.910  0.6696 -0.6564 -0.7620
  907MOL0     C22353   1.665  12.549   3.821  0.0529  0.4738  0.2021
  907MOL0     C22354   1.825  12.580   3.816  0.3745  0.3463 -0.2357
  907MOL0    Cl22355   1.882  12.720   3.727 -0.3128 -0.1919 -0.2921
  907MOL0     C22356   0.908  12.026   3.960 -0.4864 -0.0333  0.2367
  907MOL0     C22357   0.783  11.965   3.971 -0.1488  0.6799 -0.1385
  907MOL0     O22358   0.638  11.838   4.222 -0.5228  0.5064 -0.3990
  907MOL0     C22359   0.416  11.607   4.059 -0.0756 -0.1795 -1.1727
  907MOL0     C22360   0.302  11.523   4.088  0.1173 -0.0846 -0.4803
  907MOL0     N22361   0.363  10.780   4.260  0.9281 -0.5458 -0.4073
  907MOL0     N22362   0.468  10.736   4.320 -0.4213  0.7774 -0.1145
  907MOL0     C22363   1.712  11.205   4.016  0.2150  0.7948 -0.8685
  907MOL0     C22364   1.822  11.284   3.995  0.0904 -0.1856 -0.2313
  907MOL0     C22365   2.194  11.526   4.106 -0.2331  0.4517  0.1980
  907MOL0     C22366   2.181  11.660   4.048 -0.2500 -0.2018  0.5891
  907MOL0     C22367   2.288  11.739   4.015  0.5344 -0.7776  0.2137
  907MOL0     C22368   2.417  11.690   4.026 -0.1696 -0.1190  0.2777
  907MOL0     O22369   2.520  11.781   3.990  0.1428  0.1969 -0.1146
  907MOL0     C22370   2.653  11.733   3.998  0.0675 -0.3863 -0.9188
  907MOL0     C22371   2.724  11.810   3.891 -0.0165  0.3206 -0.7170
  907MOL0     C22372   2.852  11.736   3.860 -0.7791  0.2946  0.5820
  907MOL0     C22373   2.940  11.715   3.984 -1.0046  0.1420  0.0746
  907MOL0     C22374   3.079  11.675   3.938  0.3504 -0.3562  0.5407
  907MOL0     C22375   3.191  11.637   3.915  0.1254  0.0871 -0.0243
  907MOL0     C22376   2.434  11.561   4.090 -0.0277 -0.8374  0.7251
  907MOL0     C22377   2.325  11.476   4.122  0.9788 -0.1245 -0.1182
  907MOL0     H22378   1.803  11.504   4.266  1.9535 -1.0884  1.0641
  907MOL0     H22379   1.605  11.361   4.303  0.5471 -0.8554  0.6869
  907MOL0     H22380   1.549  10.998   4.049  2.1739  2.7861  0.1113
  907MOL0     H22381   1.637  10.980   4.197 -0.6140 -3.8115 -0.0434
  907MOL0     H22382   1.450  10.836   4.224  1.6271  0.9895 -1.0109
  907MOL0     H22383   1.421  10.968   4.332 -0.5207  0.5407  0.4452
  907MOL0     H22384   1.259  11.048   4.113  0.0863 -1.2680 -1.3433
  907MOL0     H22385   1.282  10.889   4.059 -1.8818  3.3348 -2.3865
  907MOL0     H22386   1.217  10.763   4.253 -3.1487 -0.9378 -1.7537
  907MOL0     H22387   1.193  10.912   4.342 -0.3954  0.4163 -1.0012
  907MOL0     H22388   1.005  10.963   4.153 -1.6670 -1.3869 -0.2483
  907MOL0     H22389   1.025  10.787   4.139 -1.6057 -2.1714  2.5931
  907MOL0     H22390   0.978  10.774   4.380  1.1135 -0.5565 -0.6127
  907MOL0     H22391   0.957  10.944   4.409 -3.3964 -0.7502  0.6769
  907MOL0     H22392   0.777  10.947   4.235 -3.6954 -1.5777 -0.1362
  907MOL0     H22393   0.818  10.766   4.226 -0.5745  0.4039 -1.2724
  907MOL0     H22394   0.715  10.874   4.485  0.7979 -1.1613 -0.4413
  907MOL0     H22395   0.699  10.713   4.420 -0.7130 -0.4666 -0.3769
  907MOL0     H22396   0.558  11.047   4.242  0.8596  0.3273 -0.1214
  907MOL0     H22397   0.341  11.044   4.062  0.6116 -0.9909 -0.8298
  907MOL0     H22398   0.209  10.946   4.118  0.4095  0.4629 -0.5934
  907MOL0     H22399   0.307  11.190   4.270  0.2522 -1.5050  1.4231
  907MOL0     H22400   0.158  11.098   4.303  1.6108 -1.8283  0.3565
  907MOL0     H22401   0.051  11.162   4.096  0.1631 -0.5299 -0.9187
  907MOL0     H22402   0.209  11.250   4.043 -1.7533  0.2772 -1.8948
  907MOL0     H22403  -0.007  11.307   4.238 -0.2224 -0.8695 -0.6437
  907MOL0     H22404   0.051  11.417   4.110 -1.0720 -0.6174  0.9973
  907MOL0     H22405   0.305  11.541   4.428  0.5640  0.9052  0.8234
  907MOL0     H22406   0.522  11.801   4.436 -2.8042 -0.3101 -1.1424
  907MOL0     H22407   0.484  11.649   4.518  0.1286  0.0276  0.8589
  907MOL0     H22408   0.622  11.642   4.418 -0.4690 -0.7069 -2.7579
  907MOL0     H22409   0.870  11.654   4.036  0.5904  1.1259  1.2571
  907MOL0     H22410   1.095  11.757   4.028  0.3503 -0.1984 -0.0753
  907MOL0     H22411   1.240  11.914   4.134 -1.2559  0.5184  0.6042
  907MOL0     H22412   1.299  11.895   3.969 -1.5668  0.9925 -2.1341
  907MOL0     H22413   1.324  12.137   4.150 -0.3360 -1.1755  0.1325
  907MOL0     H22414   1.449  12.022   4.108 -2.6160 -2.5315  1.6087
  907MOL0     H22415   1.294  12.197   3.901 -0.2761 -1.0159  0.5781
  907MOL0     H22416   1.439  12.115   3.870 -1.2576 -0.5708 -1.3537
  907MOL0     H22417   1.398  12.347   4.065  0.0400  1.9143 -0.1750
  907MOL0     H22418   1.552  12.257   4.044 -0.2785  1.2709  1.8660
  907MOL0     H22419   1.427  12.448   3.850  2.0684  2.1732 -2.8930
  907MOL0     H22420   1.532  12.320   3.783  2.5275  1.4358 -0.8951
  907MOL0     H22421   1.631  12.476   4.012 -0.9262 -0.3810 -0.9953
  907MOL0     H22422   1.726  12.368   3.902  4.0669  3.3487 -4.2228
  907MOL0     H22423   1.609  12.637   3.853  1.0741  0.6524  1.6137
  907MOL0     H22424   1.642  12.524   3.717  1.6412  0.2422 -0.1173
  907MOL0     H22425   1.880  12.492   3.780  2.2601  0.8346  1.2883
  907MOL0     H22426   1.849  12.578   3.923  4.7134 -0.7668 -1.0526
  907MOL0     H22427   0.917  12.133   3.945  0.8927 -0.2037 -0.3570
  907MOL0     H22428   0.708  12.043   3.964  1.0230  1.7681 -0.8972
  907MOL0     H22429   0.449  11.617   3.957  2.2508  0.3829 -0.4314
  907MOL0     H22430   0.274  11.460   4.004 -0.0772  0.7572 -1.0561
  907MOL0     H22431   1.680  11.123   3.951  0.9239 -1.0987  1.0554
  907MOL0     H22432   1.894  11.257   3.918  1.1931  1.4906  0.1827
  907MOL0     H22433   2.077  11.686   4.030 -0.1995  0.1010  0.7279
  907MOL0     H22434   2.273  11.839   3.976  2.2836 -0.7710 -0.5423
  907MOL0     H22435   2.696  11.751   4.097 -1.3991  3.4572 -0.8030
  907MOL0     H22436   2.666  11.629   3.968 -0.0296 -0.8294  0.5020
  907MOL0     H22437   2.738  11.913   3.924 -0.5665  0.5367 -1.1404
  907MOL0     H22438   2.661  11.819   3.802 -3.0017 -2.7596  0.8258
  907MOL0     H22439   2.897  11.804   3.788 -0.4191  0.3488  0.8553
  907MOL0     H22440   2.833  11.639   3.813  2.3051 -1.0939  1.9171
  907MOL0     H22441   2.896  11.630   4.037 -0.0882 -0.5734 -0.2952
  907MOL0     H22442   2.941  11.803   4.049  0.5278  2.0491 -2.3396
  907MOL0     H22443   3.290  11.604   3.892  0.8042  2.2955 -0.4886
  907MOL0     H22444   2.533  11.521   4.108  0.9624  0.7204 -0.8801
  907MOL0     H22445   2.343  11.373   4.149 -0.4713 -1.4547 -3.6127
  908MOL0     O22446   7.703   3.455   0.945  0.2082  0.2573 -0.2443
  908MOL0     C22447   7.701   3.332   0.920  0.0091  0.2226  1.2724
  908MOL0     O22448   7.590   3.260   0.879 -0.3645  0.1733 -0.5331
  908MOL0     C22449   7.465   3.314   0.902 -0.8704  0.2090 -0.7039
  908MOL0     C22450   7.389   3.279   1.019  0.7509 -0.0538  0.2678
  908MOL0     C22451   7.262   3.334   1.031  0.4395  0.4101  0.8218
  908MOL0     C22452   7.201   3.414   0.940  0.0227  0.5135  0.1884
  908MOL0     O22453   7.075   3.470   0.958 -0.0065 -0.8301  0.5298
  908MOL0     C22454   6.973   3.375   0.973  0.0712 -0.3934  1.1086
  908MOL0     C22455   6.833   3.446   0.977 -0.0277 -0.3687  0.6560
  908MOL0     C22456   6.728   3.338   0.985  0.1266  0.0065  0.0351
  908MOL0     C22457   6.585   3.397   1.010 -0.3917 -0.2733  0.3985
  908MOL0     C22458   6.471   3.303   0.990  0.5022  0.2137  0.5975
  908MOL0     C22459   6.345   3.369   0.940 -0.8472 -0.0603  0.1389
  908MOL0     C22460   6.215   3.304   0.963 -0.3296  0.1723  0.6605
  908MOL0     C22461   6.188   3.189   0.858 -0.4365 -0.0892  0.5401
  908MOL0     N22462   6.056   3.128   0.865 -0.1600  0.6599  0.7228
  908MOL0     C22463   5.953   3.165   0.943 -0.7095 -0.1717 -0.8141
  908MOL0     C22464   5.860   3.074   0.915  0.8899  0.7851 -0.3026
  908MOL0     C22465   5.725   3.059   0.971 -0.4971 -0.4279  0.1151
  908MOL0     C22466   5.649   3.197   0.978 -0.5218  0.2808  0.3081
  908MOL0     C22467   5.624   3.248   0.829 -0.3757 -0.3179  0.8677
  908MOL0     C22468   5.576   3.400   0.830 -0.2347  0.6151 -0.5772
  908MOL0     O22469   5.443   3.400   0.876 -0.5862  0.3053  0.0684
  908MOL0     C22470   5.375   3.519   0.878  0.4862 -0.4186 -0.0296
  908MOL0     C22471   5.250   3.520   0.947 -0.0273  1.2869  0.7380
  908MOL0     C22472   5.176   3.637   0.954  0.3697  0.0052  0.2101
  908MOL0     C22473   5.045   3.622   1.030 -0.0824 -0.7407 -0.7990
  908MOL0     C22474   5.225   3.768   0.912 -0.1679  0.2852 -0.5308
  908MOL0     C22475   5.152   3.897   0.931  0.5883  0.6599  0.1331
  908MOL0     O22476   5.232   4.010   0.931  0.7055  0.8002  0.5222
  908MOL0     C22477   5.196   4.142   0.920 -0.1743 -0.5168 -0.2705
  908MOL0     C22478   5.073   4.179   0.879  0.8236 -0.2448  0.3048
  908MOL0     C22479   5.036   4.309   0.861  0.2124 -0.1567 -0.8809
  908MOL0     C22480   5.139   4.404   0.851 -0.8758  0.1567 -0.6273
  908MOL0     O22481   5.124   4.533   0.802 -0.3160  0.5415 -0.3920
  908MOL0     C22482   5.058   4.552   0.677  0.3038  0.4652 -0.2212
  908MOL0     C22483   5.060   4.702   0.632  0.8068 -0.0627 -0.1681
  908MOL0     C22484   4.959   4.792   0.711  0.6076 -0.0551 -0.0738
  908MOL0     C22485   4.906   4.906   0.624 -0.9500  0.1729 -0.1380
  908MOL0     C22486   4.812   4.977   0.721 -0.3886 -0.5949 -0.1660
  908MOL0     C22487   4.730   5.097   0.669 -0.3700  1.0471 -0.1613
  908MOL0     C22488   4.638   5.154   0.783 -0.0831  0.1785 -0.4818
  908MOL0     C22489   4.587   5.290   0.739  0.1413  0.3989  0.8074
  908MOL0    Cl22490   4.454   5.326   0.853 -0.0760 -0.0002 -0.0338
  908MOL0     C22491   5.268   4.377   0.902  0.0233  0.5060  0.1700
  908MOL0     C22492   5.300   4.241   0.936  0.5448 -0.8847 -0.1624
  908MOL0     O22493   5.033   3.896   0.933  0.7546 -0.2934 -0.2655
  908MOL0     C22494   5.349   3.764   0.836 -0.1704 -0.7065  0.0889
  908MOL0     C22495   5.417   3.643   0.823  0.1961 -0.2814 -0.2654
  908MOL0     N22496   5.900   2.986   0.821  0.0967  0.0397  0.4396
  908MOL0     N22497   6.026   3.013   0.810 -0.2200 -0.3744 -0.3515
  908MOL0     C22498   7.278   3.450   0.826 -0.4313 -0.8197 -0.2845
  908MOL0     C22499   7.403   3.399   0.806  0.7891  0.9251 -0.0355
  908MOL0     C22500   7.818   3.248   0.921 -0.3971  0.4053  0.5209
  908MOL0     C22501   7.943   3.302   0.915 -0.4046  0.6628  0.1803
  908MOL0     C22502   8.061   3.223   0.916 -0.0072 -0.0796  0.3531
  908MOL0     C22503   8.054   3.084   0.925  0.0802  0.1336 -0.1888
  908MOL0     O22504   8.174   3.024   0.918  0.1619 -0.5733  0.3172
  908MOL0     C22505   8.177   2.874   0.923  0.1220 -0.4942  0.7675
  908MOL0     C22506   8.313   2.828   0.933 -0.4731  0.4551 -0.7059
  908MOL0     C22507   8.414   2.878   0.828  0.4370 -0.0927 -0.1429
  908MOL0     C22508   8.466   3.019   0.832 -0.0099 -0.8275 -0.1087
  908MOL0     C22509   8.556   3.038   0.710  0.4701 -1.0674 -0.2133
  908MOL0     C22510   8.629   3.043   0.620 -0.4397  0.1586 -0.3050
  908MOL0     C22511   7.930   3.024   0.928 -0.3311 -0.1371 -1.3597
  908MOL0     C22512   7.812   3.104   0.929 -1.0810  0.0324 -0.2927
  908MOL0     H22513   7.425   3.199   1.083  1.7746 -1.6552 -2.1383
  908MOL0     H22514   7.203   3.306   1.118  0.0157 -2.7993 -0.3382
  908MOL0     H22515   6.969   3.305   0.890 -0.3722  1.7012 -0.7490
  908MOL0     H22516   6.994   3.319   1.064 -2.0335  1.7849  3.1079
  908MOL0     H22517   6.829   3.518   1.060  0.9382 -0.7551  1.0602
  908MOL0     H22518   6.822   3.499   0.882  0.0898  2.4322  2.0843
  908MOL0     H22519   6.717   3.291   0.887 -0.1562 -0.8447  0.4670
  908MOL0     H22520   6.760   3.258   1.053 -0.2363  1.0164  1.4418
  908MOL0     H22521   6.581   3.435   1.113 -1.1788 -0.0640  0.3030
  908MOL0     H22522   6.574   3.483   0.944 -0.4600 -1.1719 -0.7857
  908MOL0     H22523   6.500   3.232   0.912  0.0917  2.2270 -1.5109
  908MOL0     H22524   6.451   3.251   1.084  2.7998 -1.6979  0.1231
  908MOL0     H22525   6.337   3.457   1.004 -0.8287 -0.6079  0.9008
  908MOL0     H22526   6.354   3.381   0.832 -2.3751  0.7684  0.0743
  908MOL0     H22527   6.220   3.263   1.064  0.3541 -0.8133  0.2414
  908MOL0     H22528   6.141   3.384   0.949 -1.2243 -0.8565 -0.7613
  908MOL0     H22529   6.265   3.112   0.869  0.8461  1.0082 -0.4294
  908MOL0     H22530   6.211   3.232   0.760  0.2954 -1.0170  0.2879
  908MOL0     H22531   5.949   3.246   1.015  1.2707  0.6055 -1.4981
  908MOL0     H22532   5.661   2.997   0.908 -0.2077 -0.3242 -0.2861
  908MOL0     H22533   5.726   3.021   1.073  1.4883  0.0348  0.3123
  908MOL0     H22534   5.706   3.277   1.027  1.6498  1.0741 -3.2237
  908MOL0     H22535   5.548   3.184   1.019 -1.8229  4.0849 -1.2299
  908MOL0     H22536   5.551   3.188   0.773 -0.4586 -1.2686  1.9567
  908MOL0     H22537   5.708   3.258   0.760 -2.9832  1.7410 -2.2950
  908MOL0     H22538   5.588   3.438   0.728  2.2875  3.7634  0.7171
  908MOL0     H22539   5.646   3.461   0.887  2.1539 -0.0871 -2.5612
  908MOL0     H22540   5.215   3.423   0.979  1.9829 -0.5216 -2.0995
  908MOL0     H22541   5.045   3.703   1.104 -2.1893 -0.7215 -0.7489
  908MOL0     H22542   4.968   3.620   0.953  1.2373  1.0746 -2.2362
  908MOL0     H22543   5.037   3.524   1.079 -1.4195  0.4242  1.4832
  908MOL0     H22544   4.997   4.104   0.860  2.1635 -1.1845 -1.6540
  908MOL0     H22545   4.929   4.321   0.847 -0.6730 -2.2229  2.8373
  908MOL0     H22546   5.101   4.481   0.606  0.2808  0.0414  0.1845
  908MOL0     H22547   4.955   4.514   0.684  0.8715 -1.0758  0.0416
  908MOL0     H22548   5.161   4.743   0.643  0.6016  0.4276 -0.0573
  908MOL0     H22549   5.022   4.708   0.530 -1.0262  2.6066  0.5460
  908MOL0     H22550   4.989   4.841   0.804 -3.0353 -0.5536  1.5518
  908MOL0     H22551   4.866   4.741   0.739 -0.5811  0.2166 -3.1078
  908MOL0     H22552   4.986   4.978   0.604  1.4469 -1.6903  2.1890
  908MOL0     H22553   4.861   4.870   0.531  1.0816 -3.6710  0.1597
  908MOL0     H22554   4.856   5.015   0.813 -0.6304 -0.0690 -0.2655
  908MOL0     H22555   4.738   4.909   0.763  0.7843  0.4456  4.0790
  908MOL0     H22556   4.791   5.180   0.633 -2.1037  3.9335  2.9188
  908MOL0     H22557   4.663   5.073   0.586 -0.1354  2.1437 -0.6895
  908MOL0     H22558   4.681   5.172   0.882  0.8112 -3.3139 -0.1034
  908MOL0     H22559   4.562   5.078   0.805 -0.0617  0.7613  1.9651
  908MOL0     H22560   4.542   5.293   0.639  2.5518  3.1495 -0.3350
  908MOL0     H22561   4.674   5.356   0.749  1.8116 -1.5478 -0.0493
  908MOL0     H22562   5.346   4.452   0.910  0.5818 -0.2358  2.2598
  908MOL0     H22563   5.394   4.205   0.978  0.9120  0.2174 -0.0159
  908MOL0     H22564   5.388   3.846   0.775  0.2529  0.1482  1.4643
  908MOL0     H22565   5.499   3.651   0.753 -1.4753  0.9383 -2.1663
  908MOL0     H22566   7.226   3.514   0.755 -0.2215  0.0564  0.3319
  908MOL0     H22567   7.451   3.420   0.712  1.3201 -1.8594 -0.4962
  908MOL0     H22568   7.949   3.410   0.905  1.2821  0.5572 -0.1670
  908MOL0     H22569   8.160   3.262   0.892 -0.5200  1.1468  0.1271
  908MOL0     H22570   8.125   2.832   1.010  1.7427 -1.4106  1.3270
  908MOL0     H22571   8.121   2.841   0.835  2.0279  0.6932 -0.9743
  908MOL0     H22572   8.312   2.720   0.919  0.0012  0.0287  1.9505
  908MOL0     H22573   8.340   2.843   1.038 -1.1337 -2.9401  0.0592
  908MOL0     H22574   8.358   2.859   0.736  3.0970 -1.8581 -1.5054
  908MOL0     H22575   8.498   2.808   0.824  1.8802  1.5951 -1.2507
  908MOL0     H22576   8.523   3.031   0.925 -0.8016  0.1071  0.2720
  908MOL0     H22577   8.388   3.096   0.832  1.8695  1.2231  0.8240
  908MOL0     H22578   8.700   3.050   0.539 -1.2257  1.1961 -0.9232
  908MOL0     H22579   7.923   2.916   0.929 -0.0788 -0.1875 -2.9167
  908MOL0     H22580   7.714   3.057   0.940 -1.3872  1.0848  2.3895
  909MOL0     O22581   3.712   7.612   7.336  0.3173  0.2107  0.0696
  909MOL0     C22582   3.684   7.727   7.362  0.6725 -0.0438 -0.0503
  909MOL0     O22583   3.696   7.827   7.274 -1.0071 -0.1297 -0.6346
  909MOL0     C22584   3.738   7.814   7.148  0.6454 -0.3286  0.0707
  909MOL0     C22585   3.668   7.878   7.052 -0.2523 -0.7962  0.4148
  909MOL0     C22586   3.718   7.878   6.922  0.6198  0.1285  0.1241
  909MOL0     C22587   3.837   7.814   6.889 -0.3393  0.5088 -0.4554
  909MOL0     O22588   3.910   7.831   6.774  0.3178  0.1760  0.0206
  909MOL0     C22589   3.910   7.952   6.711 -0.4318 -0.1041 -0.6320
  909MOL0     C22590   4.003   7.931   6.592  0.2368 -0.9894  0.5870
  909MOL0     C22591   4.043   8.072   6.541 -0.3274  0.5796  0.0264
  909MOL0     C22592   4.175   8.055   6.455  0.2606 -0.0305 -1.4890
  909MOL0     C22593   4.194   8.182   6.375 -0.4391  0.5809 -0.1278
  909MOL0     C22594   4.121   8.205   6.244  0.3322 -0.5769  0.4416
  909MOL0     C22595   4.111   8.086   6.151 -0.3633 -0.6209  0.6471
  909MOL0     C22596   3.995   7.990   6.184  0.3161 -0.1095 -0.5051
  909MOL0     N22597   3.866   8.044   6.137  0.4703 -0.6201  0.1847
  909MOL0     C22598   3.778   7.984   6.049 -0.5930 -0.1096 -0.1551
  909MOL0     C22599   3.671   8.059   6.060  0.1441  0.0919 -0.0144
  909MOL0     C22600   3.545   8.028   5.971 -0.2752 -0.4874 -0.5579
  909MOL0     C22601   3.451   7.950   6.054  0.0153  0.0325 -0.0777
  909MOL0     C22602   3.343   7.893   5.969  0.3331 -0.0449  0.5423
  909MOL0     C22603   3.251   7.831   6.066  0.7679  0.6615 -0.4647
  909MOL0     O22604   3.202   7.932   6.153 -0.2980 -0.4225 -0.5392
  909MOL0     C22605   3.082   7.912   6.218  0.0508 -1.0862 -0.0360
  909MOL0     C22606   3.033   8.026   6.292 -0.3810 -0.0256 -0.3155
  909MOL0     C22607   2.909   8.020   6.366 -0.0281 -0.3260 -0.7944
  909MOL0     C22608   2.872   8.138   6.447  0.0400  0.2121 -0.5947
  909MOL0     C22609   2.835   7.898   6.367 -0.7184 -0.0619 -0.3748
  909MOL0     C22610   2.695   7.871   6.424 -0.2532  0.2670 -0.3505
  909MOL0     O22611   2.641   7.738   6.411  0.2886  0.3321  0.4770
  909MOL0     C22612   2.511   7.713   6.435  0.4756  0.2000 -0.0085
  909MOL0     C22613   2.443   7.755   6.543 -0.3646 -0.4581 -0.4666
  909MOL0     C22614   2.312   7.725   6.571 -0.9123 -0.1528  0.0912
  909MOL0     C22615   2.239   7.640   6.491 -0.2424 -0.1006 -0.6325
  909MOL0     O22616   2.113   7.599   6.529  0.0763  0.1130  0.0832
  909MOL0     C22617   2.030   7.552   6.426 -0.0540 -0.0675 -0.3013
  909MOL0     C22618   1.893   7.572   6.470  0.5274 -0.3562  0.7767
  909MOL0     C22619   1.790   7.562   6.356 -0.1367 -0.8464 -0.3143
  909MOL0     C22620   1.655   7.580   6.418  0.8106 -0.2623  0.1454
  909MOL0     C22621   1.546   7.562   6.314 -0.0768 -0.1266 -0.0006
  909MOL0     C22622   1.402   7.552   6.381 -0.6387  0.2852  0.9399
  909MOL0     C22623   1.381   7.666   6.482 -0.2109  0.3449 -0.2172
  909MOL0     C22624   1.254   7.665   6.556  0.7652 -0.4218 -0.3765
  909MOL0    Cl22625   1.112   7.630   6.452  0.1101  0.0573 -0.2113
  909MOL0     C22626   2.306   7.597   6.378  1.0179 -0.2615 -0.1550
  909MOL0     C22627   2.436   7.639   6.346 -0.7644  0.2651 -0.0500
  909MOL0     O22628   2.641   7.967   6.466 -0.3991 -0.2322 -0.8960
  909MOL0     C22629   2.891   7.786   6.292  1.0605 -0.0809 -0.8096
  909MOL0     C22630   3.012   7.786   6.216 -0.5075 -0.2161  0.1720
  909MOL0     N22631   3.686   8.155   6.146  0.1552 -0.1319 -0.0539
  909MOL0     N22632   3.798   8.150   6.194 -0.2221 -0.6253 -0.3889
  909MOL0     C22633   3.909   7.756   6.992 -0.8062  0.0114  0.6322
  909MOL0     C22634   3.860   7.763   7.126 -0.1863 -0.1355 -0.7786
  909MOL0     C22635   3.645   7.758   7.501 -0.0721  0.1857 -0.6159
  909MOL0     C22636   3.632   7.894   7.540 -1.2480  0.2758 -0.7002
  909MOL0     C22637   3.617   7.924   7.676  0.1778 -0.3022  0.5731
  909MOL0     C22638   3.585   7.825   7.774 -0.2669  0.7797 -1.0413
  909MOL0     O22639   3.579   7.845   7.909 -0.3442 -0.1716  0.3518
  909MOL0     C22640   3.578   7.975   7.976  0.0832  0.7749  0.5304
  909MOL0     C22641   3.449   8.005   8.055 -0.0780 -1.0431 -0.2025
  909MOL0     C22642   3.411   7.904   8.164 -0.3005 -0.3062 -0.5520
  909MOL0     C22643   3.330   7.982   8.268  0.4214  0.0523 -0.1118
  909MOL0     C22644   3.203   8.036   8.223  0.7001  0.2019 -0.9644
  909MOL0     C22645   3.105   8.105   8.196  0.0237 -0.5606 -0.9195
  909MOL0     C22646   3.576   7.696   7.724  0.5386 -0.3364  0.1210
  909MOL0     C22647   3.605   7.659   7.591  0.1353  0.1698 -0.3678
  909MOL0     H22648   3.582   7.934   7.088  1.1488 -0.9030  4.4268
  909MOL0     H22649   3.681   7.937   6.839  1.4125  2.2236  1.1749
  909MOL0     H22650   3.811   7.988   6.682  0.1914  0.0912 -2.7346
  909MOL0     H22651   3.955   8.027   6.777 -0.8881  0.1200 -0.5742
  909MOL0     H22652   4.094   7.882   6.629  2.2464  0.4775 -2.0536
  909MOL0     H22653   3.961   7.868   6.513 -0.1347  0.3816 -0.3333
  909MOL0     H22654   3.966   8.116   6.477 -0.6268 -0.4332 -0.3213
  909MOL0     H22655   4.063   8.141   6.624 -1.6060  0.9681  0.0271
  909MOL0     H22656   4.260   8.062   6.524 -0.0383  2.7026 -1.2654
  909MOL0     H22657   4.173   7.962   6.399  1.2389 -3.9231  4.0482
  909MOL0     H22658   4.186   8.263   6.448 -3.0409  1.1369 -0.9250
  909MOL0     H22659   4.297   8.170   6.341 -0.7589 -0.6484 -0.7495
  909MOL0     H22660   4.025   8.247   6.274  1.9035  1.4454  3.0747
  909MOL0     H22661   4.180   8.284   6.196  1.0145 -1.6291 -0.5210
  909MOL0     H22662   4.088   8.118   6.049  1.5478 -0.5523  0.1996
  909MOL0     H22663   4.202   8.024   6.152  0.4666  0.5591  0.2381
  909MOL0     H22664   3.972   7.980   6.290  0.3629 -0.6816 -0.5466
  909MOL0     H22665   4.021   7.889   6.152 -1.8847 -1.4979  1.6543
  909MOL0     H22666   3.808   7.901   5.985  0.2690  0.2282 -0.2080
  909MOL0     H22667   3.509   8.124   5.934 -0.7875 -0.6134 -0.3959
  909MOL0     H22668   3.573   7.970   5.884 -1.9151 -1.3469 -0.5535
  909MOL0     H22669   3.417   8.018   6.133 -2.0463 -1.2107  0.1756
  909MOL0     H22670   3.501   7.871   6.110  0.3324  0.5175  0.3349
  909MOL0     H22671   3.386   7.815   5.906  1.1675  0.6078  0.2877
  909MOL0     H22672   3.289   7.969   5.911  3.1412  0.2940 -1.8731
  909MOL0     H22673   3.283   7.747   6.128 -1.6612  0.4283  0.5851
  909MOL0     H22674   3.170   7.793   6.002 -0.2696  2.0006 -0.0011
  909MOL0     H22675   3.103   8.108   6.288  2.8202 -2.6014 -1.2477
  909MOL0     H22676   2.967   8.189   6.465  2.3240 -2.8380 -2.9251
  909MOL0     H22677   2.808   8.211   6.395 -1.3700  0.0278  0.8072
  909MOL0     H22678   2.831   8.106   6.543 -0.9384  2.5461 -0.1490
  909MOL0     H22679   2.494   7.824   6.609 -0.1114  0.9314 -2.0633
  909MOL0     H22680   2.254   7.756   6.657  0.2009 -0.1290  0.8545
  909MOL0     H22681   2.033   7.616   6.337 -0.2978  2.0582  1.1549
  909MOL0     H22682   2.052   7.445   6.418 -0.1319 -0.0808 -0.3414
  909MOL0     H22683   1.870   7.499   6.549  1.4610 -1.5226  0.0069
  909MOL0     H22684   1.886   7.669   6.521  0.4683 -0.5277  1.1033
  909MOL0     H22685   1.810   7.470   6.299  0.1273 -1.6309  0.9963
  909MOL0     H22686   1.804   7.650   6.293  0.6490  1.6694  3.0877
  909MOL0     H22687   1.647   7.497   6.489  0.8620 -1.8600 -1.6119
  909MOL0     H22688   1.647   7.675   6.471 -0.4873  0.0566 -0.5614
  909MOL0     H22689   1.559   7.471   6.255 -0.0709 -0.2388  0.1756
  909MOL0     H22690   1.545   7.649   6.248 -0.5956 -0.7323 -0.8171
  909MOL0     H22691   1.327   7.548   6.302  0.8463 -0.4126 -0.4945
  909MOL0     H22692   1.392   7.464   6.446 -1.4814 -0.7595 -0.5548
  909MOL0     H22693   1.373   7.759   6.425 -2.1944 -0.1812 -0.8882
  909MOL0     H22694   1.463   7.677   6.553  0.1715  0.2282 -0.6380
  909MOL0     H22695   1.239   7.763   6.603  0.4667 -0.7815  0.3048
  909MOL0     H22696   1.262   7.593   6.638 -1.3180 -0.5810 -0.2703
  909MOL0     H22697   2.254   7.524   6.316 -0.1328  0.0094  0.4612
  909MOL0     H22698   2.493   7.598   6.264 -0.3900 -2.9407  1.6496
  909MOL0     H22699   2.824   7.701   6.290  1.1974 -0.2198 -0.0210
  909MOL0     H22700   3.046   7.694   6.171  3.4725 -0.5175  3.2202
  909MOL0     H22701   4.004   7.709   6.965 -0.4840  1.5469 -1.1399
  909MOL0     H22702   3.911   7.716   7.209  0.6828  1.6349 -0.2570
  909MOL0     H22703   3.647   7.971   7.464  0.8665 -1.0502 -1.7207
  909MOL0     H22704   3.613   8.030   7.697 -3.2791 -0.3509  0.8504
  909MOL0     H22705   3.667   7.978   8.040 -0.7428  0.4327  1.7240
  909MOL0     H22706   3.578   8.058   7.906  0.9556 -0.3235 -0.8364
  909MOL0     H22707   3.366   8.009   7.984 -2.0254  3.7486  1.8947
  909MOL0     H22708   3.471   8.100   8.103  1.2430 -2.0779  1.3633
  909MOL0     H22709   3.499   7.862   8.213  0.2125 -0.8587 -1.9197
  909MOL0     H22710   3.356   7.818   8.126 -2.7967  1.0264 -0.2060
  909MOL0     H22711   3.394   8.067   8.293 -1.0140  0.5630  2.0989
  909MOL0     H22712   3.302   7.921   8.355  2.2168 -0.5509  0.0881
  909MOL0     H22713   3.032   8.172   8.155  1.1022  1.5349  0.4118
  909MOL0     H22714   3.572   7.615   7.797 -2.0677  1.3450  2.0611
  909MOL0     H22715   3.606   7.555   7.562  2.1021 -0.1160  0.5556
  910MOL0     O22716   2.371   2.343   3.409 -0.2403 -0.0874 -0.7863
  910MOL0     C22717   2.485   2.372   3.431 -0.1898 -0.1070  0.1261
  910MOL0     O22718   2.551   2.480   3.380  0.6389 -0.5167  0.1022
  910MOL0     C22719   2.475   2.580   3.316 -1.0287  0.0706 -1.0204
  910MOL0     C22720   2.427   2.690   3.387  0.6131 -0.2262  0.4005
  910MOL0     C22721   2.349   2.791   3.321  0.0809 -0.0437  0.3752
  910MOL0     C22722   2.327   2.778   3.180  0.0569 -0.4439 -0.1193
  910MOL0     O22723   2.250   2.874   3.120 -0.3644 -0.1314  0.8990
  910MOL0     C22724   2.211   2.859   2.976  0.7645 -0.3867 -0.3934
  910MOL0     C22725   2.121   2.983   2.946 -0.0381  0.7527 -0.2656
  910MOL0     C22726   1.988   2.970   3.023 -0.2667 -0.2941  0.1573
  910MOL0     C22727   1.902   2.845   2.988  0.8005 -0.2533  0.0234
  910MOL0     C22728   1.764   2.835   3.062 -0.4104 -0.4564  0.1456
  910MOL0     C22729   1.687   2.702   3.012 -0.1390  0.3215  0.4774
  910MOL0     C22730   1.556   2.680   3.083 -0.0126  0.2141 -0.6074
  910MOL0     C22731   1.452   2.605   2.986  0.1539  0.8203  0.4995
  910MOL0     N22732   1.313   2.632   3.033 -0.2402 -0.1419  0.8449
  910MOL0     C22733   1.270   2.595   3.163  0.2950  0.5221  0.2823
  910MOL0     C22734   1.148   2.657   3.165 -0.7455 -0.0480 -0.0937
  910MOL0     C22735   1.064   2.647   3.289 -0.7133 -0.3026 -0.6525
  910MOL0     C22736   0.979   2.524   3.281  0.8421  0.0498 -0.1858
  910MOL0     C22737   0.900   2.517   3.149 -0.5863 -0.0923  0.0265
  910MOL0     C22738   0.773   2.424   3.161  0.1904  0.4561 -0.1625
  910MOL0     O22739   0.667   2.510   3.205 -0.2243 -0.2448 -0.0784
  910MOL0     C22740   0.545   2.448   3.222  0.1461  1.0009  0.5733
  910MOL0     C22741   0.430   2.522   3.206  0.6753  0.3015 -0.2572
  910MOL0     C22742   0.302   2.468   3.216 -0.1159  0.0394  0.0619
  910MOL0     C22743   0.191   2.569   3.198  0.3874 -0.1062 -0.0660
  910MOL0     C22744   0.285   2.326   3.230 -0.6282  0.2602 -0.7002
  910MOL0     C22745   0.159   2.247   3.224 -0.1810  0.0000  0.5723
  910MOL0     O22746   0.159   2.120   3.259 -0.3919 -0.0520  0.4224
  910MOL0     C22747   0.049   2.054   3.228  0.3604 -0.3371 -0.6725
  910MOL0     C22748  -0.060   2.052   3.314  0.0304  0.6380  0.3249
  910MOL0     C22749  -0.176   1.984   3.288  0.4763  0.0693 -0.2292
  910MOL0     C22750  -0.184   1.915   3.168 -0.1452  0.7397  0.3816
  910MOL0     O22751  -0.296   1.848   3.157  0.0604  0.0216 -0.1201
  910MOL0     C22752  -0.378   1.876   3.040 -0.3023  0.0474  0.7360
  910MOL0     C22753  -0.520   1.812   3.047 -0.2763  0.0225  0.0600
  910MOL0     C22754  -0.605   1.853   3.168 -0.7442 -0.6041 -0.1118
  910MOL0     C22755  -0.733   1.778   3.181 -0.2644 -0.2937 -0.6993
  910MOL0     C22756  -0.855   1.862   3.145  0.6317  0.3687  0.8374
  910MOL0     C22757  -0.987   1.778   3.187 -0.0016 -0.5080 -0.4017
  910MOL0     C22758  -1.031   1.676   3.083  0.1737 -0.2467 -0.1775
  910MOL0     C22759  -1.141   1.581   3.143 -1.0238 -0.6982  0.0809
  910MOL0    Cl22760  -1.301   1.664   3.182 -0.1699  0.6065 -0.1012
  910MOL0     C22761  -0.077   1.912   3.077  0.3249 -0.4724  0.2466
  910MOL0     C22762   0.048   1.973   3.114  0.0987 -0.2923  0.1199
  910MOL0     O22763   0.060   2.319   3.187  0.7634  0.2796  0.3339
  910MOL0     C22764   0.400   2.253   3.273  0.4525 -0.2769  0.3007
  910MOL0     C22765   0.528   2.306   3.255  0.1066 -0.1547 -0.2292
  910MOL0     N22766   1.130   2.735   3.057  0.7503  0.1737 -0.4342
  910MOL0     N22767   1.229   2.725   2.982 -0.2326 -0.0004  0.1753
  910MOL0     C22768   2.395   2.676   3.110  0.1549  0.7034  0.1195
  910MOL0     C22769   2.457   2.571   3.185 -0.2645 -0.4446 -0.2644
  910MOL0     C22770   2.552   2.300   3.550  0.8344 -0.2645 -0.2042
  910MOL0     C22771   2.480   2.229   3.644  0.2567 -0.1783  0.1751
  910MOL0     C22772   2.542   2.173   3.753  0.7624 -0.3826  0.6239
  910MOL0     C22773   2.677   2.198   3.784  0.5630  0.0087  0.0918
  910MOL0     O22774   2.734   2.136   3.892  0.4361 -0.3570  0.5224
  910MOL0     C22775   2.844   2.053   3.856  0.6453  0.3411  0.3913
  910MOL0     C22776   2.921   2.006   3.974  0.2163 -1.1384  0.1370
  910MOL0     C22777   2.990   2.129   4.049  0.4748  0.1801 -0.2762
  910MOL0     C22778   3.025   2.095   4.198  0.2677  0.0359 -0.4698
  910MOL0     C22779   3.115   1.975   4.210  0.5328 -0.1976  0.3841
  910MOL0     C22780   3.187   1.882   4.231  0.2727 -0.1690 -0.0480
  910MOL0     C22781   2.749   2.277   3.695  0.9650 -0.1076 -0.2885
  910MOL0     C22782   2.686   2.328   3.581  0.1610  0.1752 -0.8046
  910MOL0     H22783   2.449   2.701   3.493 -0.5825 -1.9097  0.8648
  910MOL0     H22784   2.308   2.878   3.372 -0.0197 -0.9058  1.8227
  910MOL0     H22785   2.298   2.860   2.911  0.8366 -0.9971 -0.3113
  910MOL0     H22786   2.150   2.773   2.946 -1.7485  1.4780 -0.9894
  910MOL0     H22787   2.176   3.075   2.964 -0.0397  0.4673  1.4114
  910MOL0     H22788   2.096   2.979   2.840  1.1041 -0.9520 -0.5148
  910MOL0     H22789   2.009   2.969   3.130 -2.4444  0.6541  0.6615
  910MOL0     H22790   1.933   3.063   3.004  0.6497  0.3539  0.5807
  910MOL0     H22791   1.878   2.842   2.881 -0.2270 -1.8390  0.2686
  910MOL0     H22792   1.956   2.750   2.994 -1.4323 -1.8256 -2.4191
  910MOL0     H22793   1.788   2.825   3.169  1.3857 -1.0669 -0.2870
  910MOL0     H22794   1.705   2.923   3.036  0.3725 -0.5506 -2.1685
  910MOL0     H22795   1.670   2.700   2.904 -4.8555 -1.0088  0.9982
  910MOL0     H22796   1.744   2.609   3.023 -2.7402 -1.4399 -0.1317
  910MOL0     H22797   1.563   2.626   3.177  1.1431 -0.0539 -0.8347
  910MOL0     H22798   1.513   2.777   3.111 -0.1005 -0.1961  0.7186
  910MOL0     H22799   1.477   2.498   2.992 -0.7272  0.6872  3.0449
  910MOL0     H22800   1.459   2.647   2.886 -1.5487  3.5683  1.4356
  910MOL0     H22801   1.315   2.531   3.238 -2.8620  0.9992  2.8101
  910MOL0     H22802   1.133   2.633   3.373 -0.6602 -0.4892 -0.7277
  910MOL0     H22803   1.007   2.740   3.298 -1.5368 -0.8908  0.3570
  910MOL0     H22804   0.901   2.517   3.358 -1.4630  1.7731 -2.1854
  910MOL0     H22805   1.034   2.431   3.293 -2.1049 -1.7884  0.1514
  910MOL0     H22806   0.973   2.467   3.084  1.8037  2.8921  0.2029
  910MOL0     H22807   0.876   2.613   3.104 -2.7217 -0.7295 -0.3017
  910MOL0     H22808   0.786   2.336   3.225 -0.3263  1.2595  1.0948
  910MOL0     H22809   0.740   2.390   3.063 -1.4923  2.0287 -0.2011
  910MOL0     H22810   0.461   2.619   3.169 -0.2823  0.0443 -1.8619
  910MOL0     H22811   0.145   2.552   3.100 -0.3997 -0.2414  0.3222
  910MOL0     H22812   0.121   2.551   3.279 -0.6175  3.4501 -0.0004
  910MOL0     H22813   0.227   2.672   3.195 -1.6524  0.6906  1.1171
  910MOL0     H22814  -0.041   2.100   3.409  0.5961 -2.5972  2.0195
  910MOL0     H22815  -0.256   1.968   3.359  0.3268 -2.1492 -0.8466
  910MOL0     H22816  -0.386   1.983   3.019 -1.7120 -0.2384 -0.2931
  910MOL0     H22817  -0.325   1.847   2.948 -0.3350  1.7242  0.1612
  910MOL0     H22818  -0.574   1.830   2.953  0.1752 -0.9195 -0.4000
  910MOL0     H22819  -0.497   1.708   3.074  1.6749  0.6071  0.8228
  910MOL0     H22820  -0.625   1.960   3.158 -1.0096 -0.6718 -0.3309
  910MOL0     H22821  -0.541   1.834   3.255 -1.2184 -2.8340 -0.1754
  910MOL0     H22822  -0.730   1.688   3.118 -1.3176 -0.4821 -0.4879
  910MOL0     H22823  -0.745   1.743   3.284 -0.9382  0.3720 -0.5452
  910MOL0     H22824  -0.871   1.889   3.041  1.0115 -0.2930  0.6032
  910MOL0     H22825  -0.862   1.953   3.207 -0.4946 -0.1005  1.4379
  910MOL0     H22826  -0.964   1.721   3.277 -1.6642 -0.4934  0.0531
  910MOL0     H22827  -1.070   1.843   3.214  0.7726  0.0585  0.6706
  910MOL0     H22828  -0.951   1.609   3.050 -0.1237 -0.5314 -0.3238
  910MOL0     H22829  -1.064   1.734   2.996 -0.2382  0.0346  0.1614
  910MOL0     H22830  -1.105   1.536   3.236 -0.6375  1.7210  1.1889
  910MOL0     H22831  -1.153   1.507   3.064 -3.0658 -0.9854  0.6035
  910MOL0     H22832  -0.076   1.849   2.989  2.2369 -0.8416  0.4995
  910MOL0     H22833   0.143   1.964   3.062  0.5034 -1.1531  0.9782
  910MOL0     H22834   0.391   2.153   3.315 -2.4739 -0.4201 -0.4763
  910MOL0     H22835   0.611   2.242   3.284 -0.0273 -0.4437 -0.4802
  910MOL0     H22836   2.386   2.668   3.002  1.7467 -1.5822  0.0934
  910MOL0     H22837   2.517   2.493   3.138 -1.6104 -1.0349 -1.0822
  910MOL0     H22838   2.373   2.212   3.630  0.0392 -1.1174  2.6337
  910MOL0     H22839   2.489   2.098   3.811 -0.5561 -1.4902 -1.8455
  910MOL0     H22840   2.807   1.959   3.815  0.7481  1.4312 -2.3981
  910MOL0     H22841   2.911   2.101   3.784  1.8550 -0.9536  0.6263
  910MOL0     H22842   2.991   1.928   3.940  0.0019 -1.6163  0.7666
  910MOL0     H22843   2.869   1.949   4.051  0.2573 -1.2398  0.0903
  910MOL0     H22844   2.925   2.216   4.060  1.0427  0.6017 -0.1973
  910MOL0     H22845   3.080   2.148   3.989  1.0683 -3.4515 -0.7739
  910MOL0     H22846   2.938   2.062   4.255  1.3508  0.4684  1.5200
  910MOL0     H22847   3.065   2.183   4.249  1.9435 -2.0206  2.0109
  910MOL0     H22848   3.268   1.819   4.259  0.4913  0.6042  1.1527
  910MOL0     H22849   2.849   2.307   3.723  0.0908  4.7707 -1.3240
  910MOL0     H22850   2.757   2.384   3.521  2.0029 -1.4652 -0.2868
  911MOL0     O22851   9.444   5.027   9.785 -0.3431 -0.2262 -0.0718
  911MOL0     C22852   9.563   5.032   9.752 -0.5156  0.3084 -1.1723
  911MOL0     O22853   9.619   5.026   9.624 -0.2872 -0.0463  0.0696
  911MOL0     C22854   9.538   4.985   9.516 -0.5499  0.2157  0.1139
  911MOL0     C22855   9.588   5.031   9.397  0.2551  0.8769  0.5882
  911MOL0     C22856   9.520   5.022   9.275  0.0647 -0.4987 -0.2870
  911MOL0     C22857   9.391   4.956   9.265  0.4078  0.1834  0.5080
  911MOL0     O22858   9.327   4.934   9.143 -0.1136  0.1051 -0.6210
  911MOL0     C22859   9.191   4.939   9.134  0.4496  1.3685 -0.5273
  911MOL0     C22860   9.137   4.821   9.048 -0.6326 -0.0170  0.1981
  911MOL0     C22861   9.010   4.858   8.975 -0.6273  0.1668  0.2784
  911MOL0     C22862   8.968   4.741   8.892 -0.1598 -0.0354  0.6333
  911MOL0     C22863   8.815   4.732   8.854 -0.9762 -0.1344 -0.1024
  911MOL0     C22864   8.750   4.608   8.914  0.4238  0.2287  0.1279
  911MOL0     C22865   8.613   4.565   8.848 -0.4093  0.2921 -0.2805
  911MOL0     C22866   8.574   4.430   8.907  0.6740  0.9020  0.6805
  911MOL0     N22867   8.455   4.380   8.833 -0.0399  1.2143  0.7780
  911MOL0     C22868   8.465   4.309   8.714 -0.9686 -0.1345 -1.3442
  911MOL0     C22869   8.342   4.261   8.710 -0.0384  0.0294 -0.1925
  911MOL0     C22870   8.294   4.155   8.613 -0.3326 -0.9742  0.2287
  911MOL0     C22871   8.286   4.023   8.681  0.3705 -1.1706  0.4702
  911MOL0     C22872   8.418   3.968   8.744  0.3836  0.7109  0.2541
  911MOL0     C22873   8.390   3.836   8.820  0.5611  0.1032 -0.0885
  911MOL0     O22874   8.283   3.853   8.911 -0.0258  0.4485 -0.2008
  911MOL0     C22875   8.230   3.748   8.979  0.4575 -0.3536  0.4794
  911MOL0     C22876   8.289   3.619   8.994  0.2035 -0.1911 -0.0105
  911MOL0     C22877   8.219   3.511   9.055 -0.0173 -0.0202  1.1863
  911MOL0     C22878   8.273   3.372   9.033  0.1698 -0.0957  0.4584
  911MOL0     C22879   8.090   3.542   9.106 -0.0362 -0.1263  1.0909
  911MOL0     C22880   8.005   3.430   9.172  0.1872 -0.0897  0.9009
  911MOL0     O22881   7.886   3.474   9.215 -0.6712 -0.1937 -0.7260
  911MOL0     C22882   7.775   3.393   9.217  0.5675 -0.1789  0.6130
  911MOL0     C22883   7.751   3.285   9.123  0.5781  0.1355 -0.1320
  911MOL0     C22884   7.632   3.207   9.138  0.3358  0.8947 -0.8984
  911MOL0     C22885   7.538   3.232   9.241 -0.1394  0.2433  0.0547
  911MOL0     O22886   7.428   3.150   9.257  0.4768 -0.0710  0.4701
  911MOL0     C22887   7.459   3.016   9.275  0.1755  0.4114 -0.1754
  911MOL0     C22888   7.325   2.926   9.296  0.0556  0.5222  0.1438
  911MOL0     C22889   7.245   2.959   9.417 -0.2769  0.5585 -0.5976
  911MOL0     C22890   7.112   2.875   9.422 -0.8872  0.2455 -0.2022
  911MOL0     C22891   7.010   2.937   9.520 -0.3254  0.1281 -0.8085
  911MOL0     C22892   6.886   2.848   9.507  1.2672 -0.2987  0.0796
  911MOL0     C22893   6.769   2.902   9.598  0.0883 -0.7515 -0.0362
  911MOL0     C22894   6.799   2.883   9.745  0.3659  1.1314 -1.0242
  911MOL0    Cl22895   6.751   3.032   9.832  0.5417  0.1242  0.4522
  911MOL0     C22896   7.557   3.344   9.326 -0.0283 -0.1225  0.2367
  911MOL0     C22897   7.673   3.416   9.319  0.4757 -0.0943  0.1604
  911MOL0     O22898   8.051   3.325   9.204 -0.1238  0.6093  0.4840
  911MOL0     C22899   8.038   3.668   9.100  0.2821  0.1688 -0.1667
  911MOL0     C22900   8.104   3.768   9.028  0.7083 -0.8629  0.2177
  911MOL0     N22901   8.271   4.311   8.813 -0.5032  0.0666 -0.0354
  911MOL0     N22902   8.343   4.375   8.891 -0.3903  0.4531 -0.0674
  911MOL0     C22903   9.350   4.897   9.386  0.3212 -0.4499  0.0074
  911MOL0     C22904   9.416   4.916   9.507 -0.0757 -0.2503  0.0549
  911MOL0     C22905   9.659   5.055   9.861 -0.3598 -0.2200 -0.2097
  911MOL0     C22906   9.622   5.062   9.999  1.1352  0.5305  0.6952
  911MOL0     C22907   9.711   5.080  10.098 -0.5700 -0.7517 -1.3805
  911MOL0     C22908   9.845   5.108  10.073 -0.0201 -0.1623 -0.4551
  911MOL0     O22909   9.929   5.153  10.170 -0.7465 -0.2793  0.1835
  911MOL0     C22910   9.908   5.148  10.313 -0.4477  0.1031  1.0240
  911MOL0     C22911  10.029   5.170  10.407 -0.0543 -0.6135  0.7637
  911MOL0     C22912  10.153   5.067  10.398  0.4445 -0.9070 -0.5810
  911MOL0     C22913  10.259   5.103  10.504 -0.2747 -0.2787 -0.2863
  911MOL0     C22914  10.377   5.023  10.494 -0.7273 -0.1691  0.8565
  911MOL0     C22915  10.471   4.947  10.499 -0.2683 -0.6484  0.1853
  911MOL0     C22916   9.888   5.112   9.939 -0.2671 -0.2389 -0.1468
  911MOL0     C22917   9.796   5.081   9.835 -1.0513 -0.8491 -0.7049
  911MOL0     H22918   9.685   5.078   9.398  1.0434 -0.5113 -1.7603
  911MOL0     H22919   9.561   5.068   9.185 -0.2050 -0.7511 -0.5428
  911MOL0     H22920   9.144   4.932   9.232  2.0963  0.6989  0.2599
  911MOL0     H22921   9.173   5.036   9.087  0.4710  2.5307  1.7236
  911MOL0     H22922   9.223   4.799   8.985 -1.2315 -0.8583 -0.3349
  911MOL0     H22923   9.121   4.738   9.117 -0.6007  0.8164  1.2532
  911MOL0     H22924   8.935   4.894   9.047  0.5869  0.0362  1.6380
  911MOL0     H22925   9.021   4.943   8.907  1.5167 -0.6465 -0.4666
  911MOL0     H22926   9.021   4.745   8.796 -1.2840 -0.6296 -0.0293
  911MOL0     H22927   8.990   4.645   8.939 -0.7729  0.5132  2.0903
  911MOL0     H22928   8.768   4.815   8.907  0.0553  0.2981  0.1593
  911MOL0     H22929   8.791   4.735   8.747 -0.8836 -0.5061 -0.1339
  911MOL0     H22930   8.819   4.525   8.896 -1.5024 -1.4012 -0.0968
  911MOL0     H22931   8.743   4.617   9.022  3.0925 -0.1508  0.3828
  911MOL0     H22932   8.527   4.628   8.871  0.5053  1.2443  0.6311
  911MOL0     H22933   8.627   4.549   8.740 -0.7014  0.9067 -0.4097
  911MOL0     H22934   8.544   4.431   9.012  0.0088 -0.0473  0.5167
  911MOL0     H22935   8.651   4.352   8.911  0.5503  0.7515  0.2210
  911MOL0     H22936   8.552   4.286   8.653  0.1435 -2.1787  0.8486
  911MOL0     H22937   8.200   4.189   8.569  0.3238  2.1206  1.0352
  911MOL0     H22938   8.364   4.150   8.529 -0.3079 -0.4306  0.2154
  911MOL0     H22939   8.247   3.944   8.617 -1.2885 -1.1189  1.3534
  911MOL0     H22940   8.211   4.035   8.761 -1.8281  1.5883 -1.7968
  911MOL0     H22941   8.458   4.030   8.826 -1.4163  4.8409 -1.6813
  911MOL0     H22942   8.487   3.946   8.662 -1.9080 -2.2915 -1.0096
  911MOL0     H22943   8.481   3.806   8.873  0.5786 -2.3775 -1.3434
  911MOL0     H22944   8.364   3.761   8.744  2.8549 -0.3119 -0.5202
  911MOL0     H22945   8.391   3.600   8.962  0.9748  2.0733  0.9154
  911MOL0     H22946   8.358   3.352   8.966  1.7666 -1.8424  2.7959
  911MOL0     H22947   8.304   3.327   9.128 -1.1057 -1.2573  0.3562
  911MOL0     H22948   8.192   3.308   8.997  2.7544 -2.9595 -0.7675
  911MOL0     H22949   7.816   3.254   9.042  1.1339 -0.8683  0.6720
  911MOL0     H22950   7.620   3.125   9.068  2.5465 -0.9033  0.6893
  911MOL0     H22951   7.507   2.975   9.186 -1.6439  0.4126 -1.2138
  911MOL0     H22952   7.521   2.992   9.362 -1.9695 -0.8013  1.0943
  911MOL0     H22953   7.264   2.941   9.206  0.0857 -3.2483 -0.6607
  911MOL0     H22954   7.350   2.820   9.299 -2.2903 -0.2193 -2.2345
  911MOL0     H22955   7.216   3.063   9.400  1.3980  0.9245 -1.4353
  911MOL0     H22956   7.308   2.953   9.506  2.3160 -0.6062 -2.3575
  911MOL0     H22957   7.060   2.897   9.328 -0.8838  3.7700  0.4686
  911MOL0     H22958   7.128   2.768   9.438 -3.1808  0.0137  1.0733
  911MOL0     H22959   6.981   3.033   9.478 -0.9246 -0.6136 -2.1570
  911MOL0     H22960   7.048   2.942   9.623 -1.4653  3.2230 -0.4547
  911MOL0     H22961   6.846   2.860   9.406  0.0737 -1.0572  0.4411
  911MOL0     H22962   6.916   2.748   9.539 -0.9625 -0.6933  1.0905
  911MOL0     H22963   6.680   2.842   9.577 -0.9990  1.0817 -0.8432
  911MOL0     H22964   6.755   3.007   9.572  0.5566 -0.5125  0.6457
  911MOL0     H22965   6.906   2.875   9.765  0.2047  1.2712 -0.0344
  911MOL0     H22966   6.755   2.791   9.784 -1.1265  2.7025  1.3227
  911MOL0     H22967   7.483   3.380   9.397 -1.2609 -0.8003 -0.6667
  911MOL0     H22968   7.679   3.506   9.380  0.7835 -2.1897  3.4849
  911MOL0     H22969   7.942   3.707   9.133  0.6926  0.2297  1.0245
  911MOL0     H22970   8.046   3.857   9.008 -2.3029 -2.4695  1.2159
  911MOL0     H22971   9.277   4.817   9.380 -1.1173  0.8873 -1.1341
  911MOL0     H22972   9.389   4.861   9.596  2.1458 -0.3851  0.7097
  911MOL0     H22973   9.519   5.042  10.024  0.2398  1.3178 -2.0242
  911MOL0     H22974   9.667   5.093  10.197 -1.0439  1.4668 -1.8252
  911MOL0     H22975   9.836   5.225  10.342  0.0029 -0.1004  2.7942
  911MOL0     H22976   9.874   5.048  10.340  0.8812 -0.9275 -0.8583
  911MOL0     H22977   9.989   5.182  10.508 -1.9487  0.6391 -0.0741
  911MOL0     H22978  10.065   5.272  10.388  0.2659 -0.4761  2.0381
  911MOL0     H22979  10.192   5.065  10.296 -1.8236  0.4400 -1.5507
  911MOL0     H22980  10.105   4.975  10.431  0.8018 -0.8855  0.0073
  911MOL0     H22981  10.218   5.075  10.602 -2.4311  0.3430 -0.9470
  911MOL0     H22982  10.280   5.211  10.507  1.4351 -0.5815 -0.3218
  911MOL0     H22983  10.546   4.872  10.502  1.5105  1.0734  1.1494
  911MOL0     H22984   9.987   5.140   9.902 -0.7713  0.4353 -1.0410
  911MOL0     H22985   9.836   5.072   9.735  1.9283 -0.5389  0.3535
  912MOL0     O22986   6.662   4.056   7.879  0.6060  0.2428 -0.0419
  912MOL0     C22987   6.741   4.002   7.956  0.0991 -0.0144  0.1823
  912MOL0     O22988   6.699   3.936   8.066 -0.0543 -0.7664 -0.2780
  912MOL0     C22989   6.572   3.882   8.073  0.0521 -1.5696 -0.0126
  912MOL0     C22990   6.508   3.813   7.968  0.5422 -0.8424  0.0604
  912MOL0     C22991   6.376   3.762   7.978  0.5776  0.4844  0.3270
  912MOL0     C22992   6.314   3.761   8.101 -0.4319  0.3178 -0.2467
  912MOL0     O22993   6.187   3.715   8.107 -0.5400  0.4024 -0.4081
  912MOL0     C22994   6.095   3.811   8.067  0.0785  0.3518  1.0105
  912MOL0     C22995   5.953   3.748   8.052  0.3088  0.8196 -0.1903
  912MOL0     C22996   5.940   3.684   7.913 -0.3861 -0.7556  0.1987
  912MOL0     C22997   5.868   3.774   7.813 -0.0471  0.0014 -0.2571
  912MOL0     C22998   5.927   3.767   7.668 -0.5212 -0.7048  0.6515
  912MOL0     C22999   5.911   3.615   7.620 -0.0958 -0.3221  0.9975
  912MOL0     C23000   5.761   3.560   7.606  0.3304  0.1564  0.6487
  912MOL0     C23001   5.692   3.623   7.481 -0.7168  0.2535  0.1201
  912MOL0     N23002   5.572   3.548   7.440 -0.1380 -0.2020 -0.5149
  912MOL0     C23003   5.579   3.442   7.354  0.7408 -0.1250  0.3134
  912MOL0     C23004   5.453   3.405   7.345 -0.0994 -1.0231  0.6999
  912MOL0     C23005   5.406   3.289   7.261 -0.4778 -0.3834  0.3490
  912MOL0     C23006   5.481   3.288   7.127  1.1970  0.4894  0.6935
  912MOL0     C23007   5.388   3.222   7.019 -0.2935 -1.1177 -0.7867
  912MOL0     C23008   5.475   3.154   6.919 -0.1066 -0.3349  0.4387
  912MOL0     O23009   5.392   3.084   6.823 -0.3468 -0.0322  0.5195
  912MOL0     C23010   5.329   3.153   6.722 -1.3440  0.7248 -0.2541
  912MOL0     C23011   5.228   3.083   6.650 -0.5106 -0.0456  0.2297
  912MOL0     C23012   5.157   3.136   6.547 -0.5544  0.1292 -0.7196
  912MOL0     C23013   5.057   3.052   6.482  0.0190 -1.2111  0.4474
  912MOL0     C23014   5.188   3.269   6.499 -0.1097 -0.7385 -0.0982
  912MOL0     C23015   5.116   3.347   6.384 -0.8136  0.6985  0.0577
  912MOL0     O23016   5.010   3.289   6.329 -0.0736 -0.0926  0.1610
  912MOL0     C23017   4.966   3.343   6.213 -0.0362 -0.2362  0.8164
  912MOL0     C23018   4.989   3.274   6.095 -0.1012  0.0962 -0.2309
  912MOL0     C23019   4.941   3.318   5.975 -0.5411  0.2837  0.1520
  912MOL0     C23020   4.835   3.407   5.970  0.4902  0.3117  0.7908
  912MOL0     O23021   4.783   3.447   5.849  0.6124  0.1996  0.5631
  912MOL0     C23022   4.767   3.351   5.749  0.2557  0.2427 -0.7039
  912MOL0     C23023   4.746   3.433   5.620  0.3606  0.4810  0.4271
  912MOL0     C23024   4.617   3.519   5.627  0.6458  1.2568 -0.4427
  912MOL0     C23025   4.639   3.661   5.572  0.2291  0.1854  0.4817
  912MOL0     C23026   4.510   3.744   5.570  0.5268  0.2687  0.3935
  912MOL0     C23027   4.451   3.794   5.706 -0.8640 -0.1642  0.6439
  912MOL0     C23028   4.549   3.881   5.790  0.0046 -0.2897 -0.1843
  912MOL0     C23029   4.621   3.798   5.904  0.1933  0.6682  0.0115
  912MOL0    Cl23030   4.513   3.814   6.039 -0.6726  0.2848  0.1476
  912MOL0     C23031   4.807   3.486   6.086 -0.0007  0.5688 -0.5992
  912MOL0     C23032   4.876   3.454   6.207  0.4442 -0.1027 -0.4800
  912MOL0     O23033   5.173   3.447   6.346 -0.6676  0.2650  0.3787
  912MOL0     C23034   5.288   3.338   6.571  0.0246 -0.6705 -0.0473
  912MOL0     C23035   5.363   3.284   6.674 -0.5505  0.0825 -0.4268
  912MOL0     N23036   5.368   3.499   7.408 -0.3318 -0.5319 -0.5727
  912MOL0     N23037   5.444   3.594   7.455  0.5653  0.4869  0.1236
  912MOL0     C23038   6.382   3.830   8.206  0.7061  0.2588 -0.0388
  912MOL0     C23039   6.512   3.888   8.194  0.1282 -0.1502  0.0535
  912MOL0     C23040   6.883   4.013   7.914  0.9374 -0.0919  0.1585
  912MOL0     C23041   6.986   3.946   7.985  0.8000 -0.1004  0.0522
  912MOL0     C23042   7.122   3.952   7.942  0.1057  0.2203 -0.3878
  912MOL0     C23043   7.150   4.026   7.825  0.0212  0.2256 -0.4949
  912MOL0     O23044   7.273   4.018   7.765  0.2271 -0.0664  0.2011
  912MOL0     C23045   7.382   4.080   7.835 -0.0874 -0.8821  0.2182
  912MOL0     C23046   7.372   4.236   7.797  0.2136  0.2893  0.9213
  912MOL0     C23047   7.375   4.266   7.645 -0.1667 -0.9867  0.4073
  912MOL0     C23048   7.480   4.202   7.562 -0.0546 -0.5970  0.4250
  912MOL0     C23049   7.622   4.205   7.603  0.3938  1.0332  0.4464
  912MOL0     C23050   7.743   4.208   7.615 -0.1822  0.2393 -0.1193
  912MOL0     C23051   7.044   4.093   7.754  0.0630 -0.7460 -0.1614
  912MOL0     C23052   6.915   4.091   7.796  0.1468  0.2711 -0.8576
  912MOL0     H23053   6.567   3.803   7.877  0.8604  0.6438  0.0740
  912MOL0     H23054   6.343   3.709   7.890  4.5888  2.5286 -2.7614
  912MOL0     H23055   6.083   3.899   8.131  1.1646  1.1199  0.1967
  912MOL0     H23056   6.136   3.864   7.980  0.0427 -0.0251  0.7638
  912MOL0     H23057   5.940   3.665   8.121  3.1963 -0.8721 -1.4686
  912MOL0     H23058   5.881   3.826   8.077  0.6913  0.6046  1.6780
  912MOL0     H23059   6.043   3.655   7.889 -0.1958 -1.6097  1.8898
  912MOL0     H23060   5.884   3.590   7.916 -2.2002  0.2550 -0.4637
  912MOL0     H23061   5.766   3.736   7.811  0.4624 -1.4253 -2.3875
  912MOL0     H23062   5.863   3.882   7.834 -2.4479  0.4355 -2.6203
  912MOL0     H23063   5.868   3.832   7.603  0.4100 -2.0206 -1.6316
  912MOL0     H23064   6.032   3.798   7.673 -1.0942  1.1331  2.7600
  912MOL0     H23065   5.965   3.610   7.526  3.1806 -0.4585  2.7418
  912MOL0     H23066   5.963   3.543   7.684 -0.0723 -1.3050 -0.0908
  912MOL0     H23067   5.778   3.456   7.579 -0.1918 -0.0170  0.9807
  912MOL0     H23068   5.690   3.568   7.689 -1.0436  0.6174 -0.5414
  912MOL0     H23069   5.764   3.613   7.400 -0.7721 -0.8618  0.1868
  912MOL0     H23070   5.683   3.731   7.492  0.9424  0.3621  0.6194
  912MOL0     H23071   5.671   3.400   7.315  0.7706 -0.3266  0.5967
  912MOL0     H23072   5.432   3.195   7.312  2.2045  0.0592 -0.0107
  912MOL0     H23073   5.300   3.306   7.243 -0.0793  3.6914  0.9125
  912MOL0     H23074   5.568   3.225   7.145  0.6919  0.3708  3.0196
  912MOL0     H23075   5.506   3.388   7.090  0.3588  1.4675  2.6478
  912MOL0     H23076   5.336   3.302   6.964  2.1890 -0.9292 -3.0491
  912MOL0     H23077   5.314   3.156   7.064  0.9236 -2.9767 -1.3918
  912MOL0     H23078   5.511   3.066   6.972 -1.7453 -2.2964 -1.4608
  912MOL0     H23079   5.557   3.215   6.879  0.1414 -1.5594 -0.9875
  912MOL0     H23080   5.196   2.986   6.686  1.5383 -2.3150 -3.3955
  912MOL0     H23081   4.957   3.096   6.480 -0.5301 -2.3807 -2.1165
  912MOL0     H23082   5.085   3.050   6.376  0.9298 -1.5491  0.6815
  912MOL0     H23083   5.049   2.948   6.517 -1.7235 -1.5920 -0.9252
  912MOL0     H23084   5.050   3.184   6.094  3.5980  2.3841 -1.2298
  912MOL0     H23085   4.981   3.255   5.896 -0.2613  1.6358 -0.8325
  912MOL0     H23086   4.860   3.297   5.732 -0.6308 -0.8115 -2.4431
  912MOL0     H23087   4.692   3.276   5.777  0.9049 -1.0010 -2.1638
  912MOL0     H23088   4.839   3.484   5.594  1.2574 -1.9865 -1.5293
  912MOL0     H23089   4.728   3.362   5.539  0.9418  1.6486 -0.7473
  912MOL0     H23090   4.589   3.538   5.731 -2.0128  1.4656 -1.1185
  912MOL0     H23091   4.533   3.468   5.579 -0.3505  2.9237 -0.5385
  912MOL0     H23092   4.717   3.708   5.633 -0.9051 -0.7901  2.8169
  912MOL0     H23093   4.680   3.650   5.471 -1.2145 -3.7029  0.1725
  912MOL0     H23094   4.431   3.685   5.521  1.9629 -0.4205 -1.1834
  912MOL0     H23095   4.532   3.835   5.513 -1.5250  1.2690  1.0882
  912MOL0     H23096   4.362   3.851   5.677 -0.3986  0.5877  0.6676
  912MOL0     H23097   4.413   3.710   5.764  2.0066 -1.3780  0.9250
  912MOL0     H23098   4.495   3.964   5.837 -1.1156 -0.1369 -1.6706
  912MOL0     H23099   4.629   3.918   5.726  0.4918 -0.8298  0.0983
  912MOL0     H23100   4.719   3.842   5.924  0.5504 -0.1916  0.2122
  912MOL0     H23101   4.639   3.691   5.890  2.6484  0.5841  2.8051
  912MOL0     H23102   4.759   3.583   6.090  0.7680  0.9130  0.7630
  912MOL0     H23103   4.866   3.505   6.302  0.1528  0.3771 -0.7700
  912MOL0     H23104   5.309   3.441   6.545 -1.4123  0.0701  1.5206
  912MOL0     H23105   5.442   3.341   6.722  0.7938 -1.5933 -0.5893
  912MOL0     H23106   6.330   3.832   8.301 -0.4299 -0.6832 -0.6020
  912MOL0     H23107   6.565   3.947   8.268 -2.2405 -0.1704  1.9104
  912MOL0     H23108   6.975   3.892   8.078  2.6801  1.3487  1.1745
  912MOL0     H23109   7.196   3.882   7.980  0.1362 -0.0639 -0.9577
  912MOL0     H23110   7.372   4.067   7.944  0.5577  0.7082  0.4979
  912MOL0     H23111   7.476   4.034   7.805  0.2091 -2.2742  2.9772
  912MOL0     H23112   7.465   4.285   7.829  0.6113 -0.2947  0.6863
  912MOL0     H23113   7.282   4.277   7.843 -0.1507 -1.4939  1.8834
  912MOL0     H23114   7.391   4.374   7.636  0.4188 -1.0555  0.5622
  912MOL0     H23115   7.278   4.249   7.598 -0.5007 -0.1942  0.7951
  912MOL0     H23116   7.468   4.238   7.459 -3.4767 -1.9982  0.2095
  912MOL0     H23117   7.459   4.094   7.559 -1.0362 -0.4385  1.2523
  912MOL0     H23118   7.848   4.216   7.634 -0.2825  3.1715 -0.4565
  912MOL0     H23119   7.072   4.149   7.665  2.7472 -0.2288  0.9177
  912MOL0     H23120   6.836   4.140   7.740  0.1197 -0.3897 -1.4129
  913MOL0     O23121   7.662  10.358   9.978 -0.1738  0.1715 -0.4209
  913MOL0     C23122   7.747  10.402   9.912  0.3706 -0.5030 -0.3095
  913MOL0     O23123   7.759  10.405   9.780 -0.5020 -0.7555 -0.4400
  913MOL0     C23124   7.665  10.354   9.692 -0.6205 -0.2040 -0.0604
  913MOL0     C23125   7.659  10.411   9.565  0.5869 -0.6770  0.4868
  913MOL0     C23126   7.570  10.371   9.466  0.4845  0.1368 -0.0344
  913MOL0     C23127   7.499  10.253   9.485 -0.6025  0.1563  0.1036
  913MOL0     O23128   7.423  10.215   9.375  0.2931 -0.6839 -0.8709
  913MOL0     C23129   7.487  10.166   9.262  0.0151 -0.5411  0.2436
  913MOL0     C23130   7.374  10.148   9.150 -0.1541 -0.6050  0.0289
  913MOL0     C23131   7.449  10.125   9.018 -0.3284  0.1907  0.3372
  913MOL0     C23132   7.347  10.056   8.926  0.2704 -0.0965 -0.5554
  913MOL0     C23133   7.323   9.908   8.965 -0.0743 -0.3091 -0.2605
  913MOL0     C23134   7.243   9.819   8.862 -0.3080  0.2297  0.1341
  913MOL0     C23135   7.197   9.678   8.925 -0.6073 -0.5969 -0.4759
  913MOL0     C23136   7.077   9.623   8.841 -0.3534 -0.6513  1.0183
  913MOL0     N23137   7.139   9.581   8.714 -0.8603  0.7722  0.0771
  913MOL0     C23138   7.207   9.463   8.697  0.5562 -0.3111 -0.2033
  913MOL0     C23139   7.231   9.445   8.563  0.7223 -0.5208  0.1127
  913MOL0     C23140   7.291   9.330   8.498 -1.4679  0.3193  0.5774
  913MOL0     C23141   7.444   9.333   8.492  0.8471  0.2165  0.3144
  913MOL0     C23142   7.493   9.215   8.412  0.0974  0.5388 -0.5836
  913MOL0     C23143   7.642   9.226   8.369  0.3549  0.8448  1.0118
  913MOL0     O23144   7.671   9.326   8.274 -0.5508  0.1918 -0.3344
  913MOL0     C23145   7.801   9.332   8.227  0.9857 -0.7054  0.2626
  913MOL0     C23146   7.908   9.256   8.269 -0.5104  0.1422 -0.4451
  913MOL0     C23147   8.043   9.269   8.226  0.7016  0.5142  0.1098
  913MOL0     C23148   8.145   9.174   8.277 -0.0177  0.2343 -0.1233
  913MOL0     C23149   8.070   9.380   8.137 -0.6511 -0.2220  0.2387
  913MOL0     C23150   8.212   9.423   8.102  0.3845  0.6734  0.1301
  913MOL0     O23151   8.304   9.324   8.107  0.2680  0.2083  0.4898
  913MOL0     C23152   8.432   9.345   8.065 -0.5785 -0.0321 -0.5989
  913MOL0     C23153   8.549   9.339   8.146  0.9873  0.2735  0.3573
  913MOL0     C23154   8.673   9.350   8.094 -0.3477 -0.0204 -0.0086
  913MOL0     C23155   8.705   9.381   7.966  0.1991 -0.3509  0.1308
  913MOL0     O23156   8.836   9.398   7.926 -0.2634  0.2494 -0.0843
  913MOL0     C23157   8.861   9.465   7.805  0.6210 -0.2201 -0.0817
  913MOL0     C23158   9.001   9.502   7.796  0.3233 -0.3991  0.3751
  913MOL0     C23159   9.091   9.374   7.791  0.4191  0.4224  0.4611
  913MOL0     C23160   9.238   9.418   7.759  0.5627  0.2245  0.1247
  913MOL0     C23161   9.328   9.291   7.759  0.3095 -0.0458  0.8031
  913MOL0     C23162   9.290   9.189   7.642 -0.6036 -0.0573 -0.2106
  913MOL0     C23163   9.390   9.077   7.606 -0.3338 -0.2259  0.2629
  913MOL0     C23164   9.351   8.998   7.485 -0.4313  0.4508 -0.1459
  913MOL0    Cl23165   9.195   8.914   7.516  0.0515  0.1483  0.5417
  913MOL0     C23166   8.589   9.390   7.878 -0.5334 -0.8581 -0.2029
  913MOL0     C23167   8.462   9.379   7.930  0.7691  0.1851  0.4514
  913MOL0     O23168   8.229   9.537   8.064 -0.4816  0.8651 -0.2756
  913MOL0     C23169   7.962   9.470   8.097  0.0835  0.4168  0.8748
  913MOL0     C23170   7.838   9.440   8.145  0.0054 -0.0832 -0.6012
  913MOL0     N23171   7.162   9.546   8.503 -0.8399 -0.2147  0.1262
  913MOL0     N23172   7.104   9.626   8.589 -1.1587  0.1342  0.6823
  913MOL0     C23173   7.494  10.197   9.609 -0.6665  0.9579 -0.1378
  913MOL0     C23174   7.584  10.242   9.707  0.3819  0.2536  0.2686
  913MOL0     C23175   7.860  10.464   9.994 -0.1816 -0.1938 -0.0649
  913MOL0     C23176   7.961  10.543   9.922  0.9543  0.8023  1.0602
  913MOL0     C23177   8.071  10.596   9.992  0.1928  0.0682  0.4209
  913MOL0     C23178   8.089  10.570  10.126  0.1574  0.0752  0.5720
  913MOL0     O23179   8.208  10.618  10.181  0.2868  0.6677  0.0431
  913MOL0     C23180   8.256  10.562  10.300  0.6896 -0.9844  0.8153
  913MOL0     C23181   8.405  10.598  10.311  0.4006 -0.3763  0.2776
  913MOL0     C23182   8.489  10.535  10.205 -0.8233  0.2380 -0.1533
  913MOL0     C23183   8.613  10.451  10.244  1.1581  0.1105 -0.4770
  913MOL0     C23184   8.583  10.311  10.269  0.0559 -0.6620  0.6686
  913MOL0     C23185   8.569  10.191  10.278  0.2449  0.1397 -0.2635
  913MOL0     C23186   8.001  10.484  10.192  0.4853  0.3961 -0.2374
  913MOL0     C23187   7.887  10.436  10.129  0.7358  0.0449 -0.6290
  913MOL0     H23188   7.727  10.496   9.556  1.1814 -1.2726 -0.9784
  913MOL0     H23189   7.577  10.410   9.365  1.7360 -0.2088 -0.0999
  913MOL0     H23190   7.576  10.217   9.224 -1.2569  1.2313 -0.4948
  913MOL0     H23191   7.517  10.064   9.287  2.8355  0.3567  0.7906
  913MOL0     H23192   7.302  10.071   9.179 -2.3333  0.0592 -3.1527
  913MOL0     H23193   7.320  10.243   9.140  0.3089 -0.3394  0.0400
  913MOL0     H23194   7.469  10.214   8.958 -0.5215 -1.1743 -1.8682
  913MOL0     H23195   7.545  10.073   9.025 -0.2145  0.0116 -1.8190
  913MOL0     H23196   7.250  10.105   8.932  0.5596  0.4070  0.1948
  913MOL0     H23197   7.380  10.055   8.822  1.0802  2.1880 -0.3780
  913MOL0     H23198   7.420   9.869   8.994  0.1193 -2.6158 -3.5243
  913MOL0     H23199   7.266   9.919   9.057 -0.1498  2.3413 -0.5237
  913MOL0     H23200   7.149   9.875   8.855  0.2505  1.1428 -0.2277
  913MOL0     H23201   7.296   9.825   8.766  3.7174  1.1034  2.2082
  913MOL0     H23202   7.288   9.617   8.930  0.0293  0.2577 -1.3219
  913MOL0     H23203   7.169   9.691   9.030  0.4876  2.9802 -0.5095
  913MOL0     H23204   7.009   9.708   8.830  0.9510  0.2955 -0.1174
  913MOL0     H23205   7.027   9.534   8.880 -1.1785 -0.8400 -0.4154
  913MOL0     H23206   7.242   9.396   8.775  0.0157  1.5263  1.7225
  913MOL0     H23207   7.256   9.236   8.541 -0.4719 -0.9440 -1.2528
  913MOL0     H23208   7.245   9.321   8.400  0.2891  0.4332 -0.2933
  913MOL0     H23209   7.484   9.330   8.594  0.7191 -0.0083  0.3595
  913MOL0     H23210   7.475   9.422   8.436  0.6403 -0.8886 -1.6531
  913MOL0     H23211   7.433   9.215   8.321 -0.7569  2.1270 -0.0674
  913MOL0     H23212   7.468   9.123   8.466  0.8165 -0.2566 -1.5729
  913MOL0     H23213   7.667   9.125   8.334 -0.0577  0.4605  1.7886
  913MOL0     H23214   7.696   9.225   8.465  4.0372  0.3180 -0.8915
  913MOL0     H23215   7.896   9.183   8.348  2.3888  1.7693  1.6707
  913MOL0     H23216   8.191   9.119   8.194  0.9442  1.5696 -0.5153
  913MOL0     H23217   8.226   9.219   8.336 -0.3563 -2.6927  2.9290
  913MOL0     H23218   8.098   9.100   8.343  1.5503 -1.5339 -0.8759
  913MOL0     H23219   8.532   9.317   8.251  0.0318  4.7397  1.3541
  913MOL0     H23220   8.754   9.340   8.165 -2.0321 -0.0344  2.0218
  913MOL0     H23221   8.829   9.400   7.723  0.6667  0.7972 -0.9195
  913MOL0     H23222   8.805   9.558   7.801 -0.5970 -0.8845  0.9088
  913MOL0     H23223   9.008   9.536   7.693 -2.3695 -3.2299 -0.9121
  913MOL0     H23224   9.036   9.581   7.863  0.5849 -0.5628  0.4348
  913MOL0     H23225   9.050   9.308   7.715 -0.7902  0.1237  1.3375
  913MOL0     H23226   9.099   9.322   7.887  1.5064 -0.6054 -0.1710
  913MOL0     H23227   9.250   9.465   7.661  0.1016 -0.5683 -0.3136
  913MOL0     H23228   9.277   9.486   7.836 -1.3337  1.1666  0.2992
  913MOL0     H23229   9.326   9.237   7.854  1.8833 -0.0699  0.8452
  913MOL0     H23230   9.430   9.331   7.756  0.7952 -1.1236 -3.3510
  913MOL0     H23231   9.194   9.149   7.675 -1.1110  1.0736 -0.2765
  913MOL0     H23232   9.266   9.245   7.551  4.6753  0.2300 -1.7586
  913MOL0     H23233   9.429   9.005   7.680  0.4241 -0.5506 -0.4343
  913MOL0     H23234   9.485   9.123   7.575 -0.5866 -0.7631 -1.4030
  913MOL0     H23235   9.430   8.926   7.462 -0.3085 -0.6452  3.2658
  913MOL0     H23236   9.352   9.069   7.402  0.7016  0.1712 -0.3798
  913MOL0     H23237   8.602   9.403   7.771 -3.4685 -1.6460 -0.7265
  913MOL0     H23238   8.391   9.382   7.848  1.7722 -0.0609 -0.4559
  913MOL0     H23239   7.974   9.539   8.015 -1.8064  0.4081  0.5472
  913MOL0     H23240   7.754   9.500   8.111 -1.4578 -0.9033  1.3071
  913MOL0     H23241   7.419  10.123   9.636 -1.5206  2.7397  2.9212
  913MOL0     H23242   7.589  10.190   9.802 -4.4820  0.3025  0.7990
  913MOL0     H23243   7.950  10.563   9.816  0.1305 -1.5567  0.6532
  913MOL0     H23244   8.138  10.662   9.939  0.1228 -0.4436 -0.3139
  913MOL0     H23245   8.205  10.620  10.377  1.4437 -0.9414  1.2995
  913MOL0     H23246   8.242  10.455  10.314  1.0590 -0.7560  3.2674
  913MOL0     H23247   8.442  10.569  10.409  0.7165  2.0047  0.9274
  913MOL0     H23248   8.409  10.707  10.308 -2.2050 -0.2255  0.6241
  913MOL0     H23249   8.523  10.617  10.141 -1.1766 -0.7331 -1.6540
  913MOL0     H23250   8.424  10.465  10.151 -0.0822 -2.3846  2.0721
  913MOL0     H23251   8.650  10.481  10.343  2.2333  0.3546 -0.9388
  913MOL0     H23252   8.687  10.463  10.164  0.4750 -0.4718 -1.2033
  913MOL0     H23253   8.554  10.088  10.303 -3.1015  0.7325  0.7399
  913MOL0     H23254   8.027  10.467  10.296 -0.9710  1.2733  0.2999
  913MOL0     H23255   7.816  10.389  10.196  1.2659  1.4322  0.9780
  914MOL0     O23256   1.483   8.637   5.980  0.6724 -0.1884 -0.2612
  914MOL0     C23257   1.527   8.567   6.070  0.0138  0.0207  0.7608
  914MOL0     O23258   1.461   8.519   6.180  0.0790  0.1189  0.3294
  914MOL0     C23259   1.324   8.542   6.179  0.4759  0.3883 -1.0767
  914MOL0     C23260   1.240   8.434   6.158 -0.7280 -0.8658 -0.0425
  914MOL0     C23261   1.101   8.454   6.146 -0.6512  0.1166 -0.5051
  914MOL0     C23262   1.042   8.575   6.153  0.5443  0.6059 -0.0668
  914MOL0     O23263   0.904   8.586   6.147  0.4138 -0.6162  0.1197
  914MOL0     C23264   0.856   8.711   6.111  0.0089 -0.1688  0.5650
  914MOL0     C23265   0.701   8.695   6.103  0.0123  0.7420  0.1547
  914MOL0     C23266   0.634   8.830   6.086  0.7453  0.1103  0.2089
  914MOL0     C23267   0.485   8.809   6.048  0.0244 -1.1595 -0.2348
  914MOL0     C23268   0.410   8.937   6.008  0.2516 -0.4321  0.2980
  914MOL0     C23269   0.263   8.908   5.965 -0.1451 -0.0072 -0.1807
  914MOL0     C23270   0.202   9.049   5.922 -0.1516  0.0113  0.6542
  914MOL0     C23271   0.051   9.015   5.909  0.0728 -0.6895 -0.1747
  914MOL0     N23272  -0.023   9.140   5.873  0.8315  0.5118  0.5565
  914MOL0     C23273  -0.021   9.251   5.951 -0.4301 -0.3865 -0.5567
  914MOL0     C23274  -0.126   9.329   5.906 -0.3587  0.2890 -0.0401
  914MOL0     C23275  -0.180   9.464   5.954 -0.3418  0.2223  0.8164
  914MOL0     C23276  -0.104   9.584   5.904 -0.1691 -0.0388 -0.8006
  914MOL0     C23277  -0.123   9.594   5.753  0.5360 -0.9186 -0.0827
  914MOL0     C23278  -0.018   9.672   5.677 -0.0615 -1.0778 -0.0058
  914MOL0     O23279  -0.045   9.808   5.676  0.2472 -0.3945 -0.6759
  914MOL0     C23280  -0.162   9.847   5.616 -0.1027 -0.6248 -0.7739
  914MOL0     C23281  -0.190   9.801   5.487 -0.0273  0.1598 -0.1987
  914MOL0     C23282  -0.306   9.825   5.419  0.0463  1.5085  0.9910
  914MOL0     C23283  -0.301   9.780   5.279 -0.5197  0.3604 -0.4485
  914MOL0     C23284  -0.401   9.901   5.485 -0.0180 -0.6780 -0.5055
  914MOL0     C23285  -0.534   9.943   5.428  0.8395 -0.6694 -0.1965
  914MOL0     O23286  -0.601  10.045   5.491  0.1643 -0.5492  0.8286
  914MOL0     C23287  -0.720  10.097   5.431 -0.7457  0.3796 -0.1181
  914MOL0     C23288  -0.839  10.030   5.468  0.8810 -0.0334  0.0140
  914MOL0     C23289  -0.960  10.056   5.399 -0.1310  0.0516 -0.2014
  914MOL0     C23290  -0.964  10.137   5.285 -0.1251  0.3115  0.3811
  914MOL0     O23291  -1.060  10.158   5.183 -0.3617  0.7812 -0.7224
  914MOL0     C23292  -1.194  10.150   5.232 -0.1546  0.1383  0.2233
  914MOL0     C23293  -1.298  10.227   5.156 -0.4614 -1.1800  0.3622
  914MOL0     C23294  -1.403  10.297   5.248  0.6435 -0.9844  0.2036
  914MOL0     C23295  -1.494  10.381   5.145 -0.2681  0.0439 -0.3385
  914MOL0     C23296  -1.617  10.441   5.228 -0.4361 -0.5218  0.9648
  914MOL0     C23297  -1.690  10.532   5.138 -0.1524 -0.2138 -1.1442
  914MOL0     C23298  -1.811  10.581   5.219 -0.5633 -0.3896  0.4597
  914MOL0     C23299  -1.887  10.691   5.132 -0.4237 -0.2779 -0.2790
  914MOL0    Cl23300  -1.971  10.629   4.987 -0.3578  0.2161  0.2078
  914MOL0     C23301  -0.846  10.202   5.263 -0.7497 -0.3285 -0.6108
  914MOL0     C23302  -0.724  10.191   5.326  0.0282 -0.4989 -1.0365
  914MOL0     O23303  -0.580   9.875   5.341  1.1368  0.8201  0.1362
  914MOL0     C23304  -0.374   9.950   5.621 -0.0476  0.0460  0.3686
  914MOL0     C23305  -0.253   9.927   5.680  0.5519 -0.0028  0.3568
  914MOL0     N23306  -0.200   9.246   5.819 -0.2508  0.1556  1.1082
  914MOL0     N23307  -0.135   9.136   5.801  0.2075 -0.8455  0.6771
  914MOL0     C23308   1.129   8.680   6.177 -1.0277  0.3289 -0.7916
  914MOL0     C23309   1.263   8.666   6.201 -0.4720 -0.4649 -0.1781
  914MOL0     C23310   1.674   8.544   6.083  0.3613 -0.4549  0.8407
  914MOL0     C23311   1.761   8.640   6.041  0.3465 -0.6408  0.2234
  914MOL0     C23312   1.897   8.619   6.070  0.1455 -0.5861  0.4401
  914MOL0     C23313   1.953   8.508   6.136 -1.1072  0.2571 -0.4512
  914MOL0     O23314   2.085   8.499   6.160 -0.7995  0.0485 -1.0253
  914MOL0     C23315   2.136   8.367   6.200 -0.2753 -0.0581  0.1205
  914MOL0     C23316   2.292   8.364   6.208 -0.4468  0.3359  0.5328
  914MOL0     C23317   2.350   8.240   6.280  0.4152 -0.6448  0.2040
  914MOL0     C23318   2.496   8.227   6.252  0.3256  0.7066 -0.1679
  914MOL0     C23319   2.579   8.333   6.315 -0.8635 -0.8015  0.1471
  914MOL0     C23320   2.614   8.429   6.388  0.3245  0.2151  0.6617
  914MOL0     C23321   1.858   8.407   6.174 -0.1138 -0.0418 -0.0409
  914MOL0     C23322   1.720   8.430   6.155 -0.6191  0.4004  0.5322
  914MOL0     H23323   1.276   8.332   6.150  1.8245  0.1077 -2.7437
  914MOL0     H23324   1.030   8.372   6.142  2.6639 -3.0106 -0.5639
  914MOL0     H23325   0.875   8.796   6.176 -0.4530  0.9660 -0.7190
  914MOL0     H23326   0.889   8.732   6.009 -1.3646 -2.9946 -0.5939
  914MOL0     H23327   0.666   8.631   6.020  1.2618  0.4119 -0.1389
  914MOL0     H23328   0.668   8.649   6.196  2.4798  0.5331  0.9922
  914MOL0     H23329   0.648   8.884   6.180  0.9300 -1.6805  1.2652
  914MOL0     H23330   0.691   8.881   6.009 -1.1328 -2.0872 -2.8505
  914MOL0     H23331   0.472   8.731   5.972 -0.2457 -1.9523  0.5982
  914MOL0     H23332   0.425   8.775   6.133 -0.1423 -1.3860 -0.4390
  914MOL0     H23333   0.407   9.006   6.093 -1.5312 -3.4393  2.8812
  914MOL0     H23334   0.465   8.971   5.919 -2.8170  1.0065 -1.1852
  914MOL0     H23335   0.278   8.835   5.884  1.6273  1.3319 -1.1272
  914MOL0     H23336   0.205   8.854   6.040  0.1559  2.0969  1.6427
  914MOL0     H23337   0.227   9.133   5.987 -0.5655 -0.3471  1.2887
  914MOL0     H23338   0.245   9.068   5.823 -3.0255 -0.9963 -0.8998
  914MOL0     H23339   0.009   8.985   6.005  0.5339  0.4784  0.4077
  914MOL0     H23340   0.043   8.940   5.829  0.2028  1.6708 -2.5506
  914MOL0     H23341   0.051   9.267   6.031 -0.4259 -1.0922 -0.4111
  914MOL0     H23342  -0.285   9.479   5.927 -1.1584 -2.6554  1.9982
  914MOL0     H23343  -0.189   9.453   6.062 -1.2340 -2.2203  0.5609
  914MOL0     H23344   0.001   9.565   5.927 -0.2630  1.4149  1.0267
  914MOL0     H23345  -0.133   9.677   5.954 -0.0342  0.4988 -1.6983
  914MOL0     H23346  -0.223   9.628   5.726  0.4119  0.9763  2.3701
  914MOL0     H23347  -0.122   9.490   5.722 -0.0616 -1.9183  2.8845
  914MOL0     H23348  -0.015   9.630   5.576 -0.5232 -0.3359 -0.3311
  914MOL0     H23349   0.082   9.652   5.719  0.5475  1.3438 -0.1327
  914MOL0     H23350  -0.109   9.742   5.446 -0.0391 -0.4059  0.5672
  914MOL0     H23351  -0.225   9.838   5.227  2.8638 -1.2903  2.2980
  914MOL0     H23352  -0.266   9.677   5.282 -3.1563 -0.6074 -0.1893
  914MOL0     H23353  -0.397   9.766   5.227 -1.3711 -2.7452  1.6695
  914MOL0     H23354  -0.845   9.969   5.558  3.1688  0.1679  0.3525
  914MOL0     H23355  -1.052  10.008   5.430 -0.6185  1.5324  0.7603
  914MOL0     H23356  -1.218  10.043   5.228  1.4263 -0.2312 -0.0891
  914MOL0     H23357  -1.194  10.178   5.337  0.8564 -2.8155  1.1270
  914MOL0     H23358  -1.242  10.302   5.098 -2.6304  0.1481 -0.1060
  914MOL0     H23359  -1.337  10.164   5.076  1.0778  0.6374 -1.9916
  914MOL0     H23360  -1.356  10.374   5.309 -1.5907 -0.5041  1.4246
  914MOL0     H23361  -1.466  10.232   5.310  0.0154  0.9061  1.6125
  914MOL0     H23362  -1.424  10.448   5.095  2.1153 -1.5869  0.5879
  914MOL0     H23363  -1.536  10.311   5.072 -0.6578  0.0599 -0.1326
  914MOL0     H23364  -1.577  10.490   5.318  1.2051  0.1741 -0.0951
  914MOL0     H23365  -1.686  10.369   5.272 -1.0474  0.3395  1.4562
  914MOL0     H23366  -1.624  10.614   5.107  2.4808 -2.0555 -0.6995
  914MOL0     H23367  -1.729  10.492   5.044  0.0471  1.8578 -2.1686
  914MOL0     H23368  -1.769  10.626   5.309 -0.0635  0.4293 -0.1650
  914MOL0     H23369  -1.881  10.504   5.251 -1.7535 -0.1313 -1.4035
  914MOL0     H23370  -1.810  10.766   5.112  2.2016 -3.0574 -1.5414
  914MOL0     H23371  -1.967  10.737   5.189 -2.1079 -0.3095 -2.4882
  914MOL0     H23372  -0.845  10.259   5.170  1.0033 -2.8541 -2.3097
  914MOL0     H23373  -0.642  10.256   5.296  0.7449 -1.3720 -1.0251
  914MOL0     H23374  -0.458   9.995   5.673  0.3714  0.8434  0.3740
  914MOL0     H23375  -0.248   9.938   5.788 -4.8144  0.6380  0.7853
  914MOL0     H23376   1.105   8.785   6.175 -1.6786  0.2163  0.2334
  914MOL0     H23377   1.326   8.753   6.218 -0.2361 -0.4826 -0.9292
  914MOL0     H23378   1.724   8.734   6.003  0.5954  0.8205  3.2418
  914MOL0     H23379   1.958   8.696   6.023 -1.2610  1.0209  1.1133
  914MOL0     H23380   2.113   8.345   6.305  2.1149  0.2748  0.7741
  914MOL0     H23381   2.088   8.285   6.146 -0.1989  0.9942 -1.6399
  914MOL0     H23382   2.318   8.452   6.269 -2.9170  0.8457  0.9637
  914MOL0     H23383   2.332   8.378   6.107  1.0948  2.5994  1.3542
  914MOL0     H23384   2.301   8.150   6.243  1.7937 -0.9190 -1.0370
  914MOL0     H23385   2.326   8.246   6.387  0.2024 -1.4686  0.2067
  914MOL0     H23386   2.517   8.229   6.144 -2.0782 -0.9451 -0.7331
  914MOL0     H23387   2.532   8.128   6.281  0.2786 -0.0398 -2.4496
  914MOL0     H23388   2.655   8.509   6.445  4.8398 -2.2220  1.2628
  914MOL0     H23389   1.889   8.316   6.225  1.4356  1.0593  1.0817
  914MOL0     H23390   1.657   8.342   6.171  0.8166 -0.8501 -0.3624
  915MOL0     O23391   8.900   4.412   8.492  0.7909  1.2420 -0.3611
  915MOL0     C23392   8.961   4.448   8.393  0.2912 -0.0858  0.4122
  915MOL0     O23393   8.910   4.444   8.263  0.4896 -0.1777  0.2622
  915MOL0     C23394   8.790   4.373   8.239 -1.6373  0.3306  0.4413
  915MOL0     C23395   8.753   4.242   8.285 -1.0338 -0.4042  0.5716
  915MOL0     C23396   8.636   4.182   8.248  0.3244  0.2094  0.2949
  915MOL0     C23397   8.547   4.242   8.163 -0.1481 -1.3766 -0.6138
  915MOL0     O23398   8.429   4.179   8.125 -0.0438  0.1839 -0.1723
  915MOL0     C23399   8.310   4.269   8.124 -0.1810  0.8709  0.1016
  915MOL0     C23400   8.199   4.188   8.191 -0.3665 -0.0448 -0.1710
  915MOL0     C23401   8.090   4.274   8.243 -0.3171 -0.6623 -0.1708
  915MOL0     C23402   7.981   4.188   8.309 -0.1294 -0.3129  0.1212
  915MOL0     C23403   7.859   4.275   8.349 -0.1416 -0.2076  0.0380
  915MOL0     C23404   7.772   4.318   8.233 -0.3737  0.1315  0.5761
  915MOL0     C23405   7.701   4.198   8.169 -0.6150 -0.5152  0.4977
  915MOL0     C23406   7.678   4.227   8.021 -0.4182 -0.1925 -0.2427
  915MOL0     N23407   7.807   4.194   7.956  0.8933 -0.0588 -0.4276
  915MOL0     C23408   7.852   4.068   7.910 -0.8312 -0.0539  0.6957
  915MOL0     C23409   7.970   4.097   7.849 -0.0922  0.0266  0.7208
  915MOL0     C23410   8.048   3.992   7.769  0.6612 -0.0314  0.0819
  915MOL0     C23411   8.179   3.955   7.833 -0.6044  0.2960 -0.1882
  915MOL0     C23412   8.260   3.853   7.748  0.4430 -0.4154 -0.6068
  915MOL0     C23413   8.388   3.807   7.804  0.1873  0.3601  0.4425
  915MOL0     O23414   8.466   3.921   7.843 -0.8265 -0.8809 -0.1249
  915MOL0     C23415   8.595   3.903   7.890 -0.9515  0.6759 -0.4413
  915MOL0     C23416   8.668   3.789   7.893  0.2896  0.3170 -0.4538
  915MOL0     C23417   8.798   3.783   7.945 -0.2044 -0.4864 -0.0968
  915MOL0     C23418   8.870   3.650   7.966  0.3628 -0.1499  0.0424
  915MOL0     C23419   8.860   3.913   7.976 -0.1186 -0.5291  0.3539
  915MOL0     C23420   8.999   3.937   8.025  0.0155  0.8150  0.0105
  915MOL0     O23421   9.011   4.038   8.117 -0.1502 -0.3332  0.2765
  915MOL0     C23422   9.133   4.069   8.175 -0.1737 -0.0023  0.5137
  915MOL0     C23423   9.245   4.121   8.107 -0.0359 -0.2360  1.5165
  915MOL0     C23424   9.373   4.134   8.168  1.3274 -0.1444  0.3982
  915MOL0     C23425   9.376   4.128   8.304 -0.4498 -0.4773  0.5988
  915MOL0     O23426   9.496   4.151   8.368 -0.9132  0.3778 -0.4632
  915MOL0     C23427   9.513   4.234   8.483 -0.1242 -0.0028  0.2658
  915MOL0     C23428   9.645   4.203   8.567 -0.3694 -0.0947 -0.4124
  915MOL0     C23429   9.684   4.329   8.648 -0.0793  0.6875 -0.5234
  915MOL0     C23430   9.799   4.294   8.740 -0.1677 -0.1661  0.1288
  915MOL0     C23431   9.874   4.420   8.797  0.1956  1.0357  0.6580
  915MOL0     C23432  10.004   4.385   8.867  0.4745 -0.1174  0.4552
  915MOL0     C23433  10.110   4.296   8.795  1.0982  0.2931  0.5048
  915MOL0     C23434  10.218   4.251   8.893  0.2761 -0.2311  0.2978
  915MOL0    Cl23435  10.366   4.346   8.873  0.0652  0.1547  0.0526
  915MOL0     C23436   9.257   4.089   8.378 -1.1248  0.4046 -0.0601
  915MOL0     C23437   9.142   4.064   8.315  0.2850  0.1331 -0.4099
  915MOL0     O23438   9.090   3.865   7.993 -0.1008 -0.2064  0.1315
  915MOL0     C23439   8.790   4.031   7.955  0.7712 -0.5581 -0.9208
  915MOL0     C23440   8.655   4.022   7.924 -0.8733 -1.3886 -0.3111
  915MOL0     N23441   7.995   4.230   7.838 -0.8451 -0.5014  0.1704
  915MOL0     N23442   7.898   4.287   7.902  0.1385 -0.5663 -0.1833
  915MOL0     C23443   8.580   4.373   8.120  0.4618 -0.4642  0.3030
  915MOL0     C23444   8.699   4.438   8.158 -0.1270  0.1076  0.1311
  915MOL0     C23445   9.095   4.503   8.415 -0.4397 -0.0143  0.5076
  915MOL0     C23446   9.186   4.529   8.305 -0.2718  0.6394 -0.5115
  915MOL0     C23447   9.316   4.575   8.336  0.2221 -0.2190 -0.4462
  915MOL0     C23448   9.355   4.584   8.470  0.4504 -0.3876 -0.2508
  915MOL0     O23449   9.481   4.613   8.499  0.0669 -0.0710 -0.1601
  915MOL0     C23450   9.511   4.753   8.476 -0.4886  0.6502 -0.5648
  915MOL0     C23451   9.590   4.810   8.590 -0.2378 -0.0817  0.5655
  915MOL0     C23452   9.515   4.812   8.726 -0.4975 -0.0108  0.7892
  915MOL0     C23453   9.583   4.910   8.828  0.4585  1.0248 -0.5022
  915MOL0     C23454   9.712   4.867   8.881  0.5002  0.2439  0.3223
  915MOL0     C23455   9.828   4.830   8.904  0.6002  0.9381  0.4427
  915MOL0     C23456   9.274   4.560   8.579  0.6495 -0.8520 -0.4759
  915MOL0     C23457   9.141   4.522   8.551  0.4186 -0.0202  0.3047
  915MOL0     H23458   8.835   4.186   8.328  0.4860  0.5967 -0.9329
  915MOL0     H23459   8.618   4.086   8.295 -1.0944 -0.0385 -0.7008
  915MOL0     H23460   8.320   4.366   8.172 -1.5217  0.6001  0.9916
  915MOL0     H23461   8.274   4.279   8.021 -1.2945 -0.0675  0.3735
  915MOL0     H23462   8.162   4.113   8.120  1.4628  0.2315 -1.4982
  915MOL0     H23463   8.231   4.134   8.280 -0.1173  0.9578  0.3720
  915MOL0     H23464   8.136   4.330   8.325  1.8085 -3.4942  0.7286
  915MOL0     H23465   8.047   4.344   8.171  1.0727  0.8122  0.3526
  915MOL0     H23466   7.952   4.109   8.239  0.9843  1.0341 -1.9730
  915MOL0     H23467   8.024   4.134   8.394  0.2466 -1.3269 -0.6931
  915MOL0     H23468   7.808   4.203   8.415 -1.2396  1.5706  1.2159
  915MOL0     H23469   7.890   4.358   8.413 -2.0340  0.0801  0.6678
  915MOL0     H23470   7.693   4.387   8.263 -2.9318 -2.2266 -0.3087
  915MOL0     H23471   7.842   4.363   8.162 -0.5451 -0.6761 -0.1205
  915MOL0     H23472   7.756   4.104   8.181 -1.4055 -1.1002 -0.3491
  915MOL0     H23473   7.596   4.184   8.195 -1.0654  0.2793 -0.7533
  915MOL0     H23474   7.649   4.333   8.026 -1.1250 -0.4262  1.1463
  915MOL0     H23475   7.594   4.173   7.977  0.6716 -0.7778 -1.6699
  915MOL0     H23476   7.800   3.974   7.901 -1.4118  0.4523 -2.9069
  915MOL0     H23477   7.996   3.897   7.753 -0.7526  0.5506  1.0275
  915MOL0     H23478   8.072   4.038   7.673  0.5169  1.1151  0.5669
  915MOL0     H23479   8.154   3.922   7.935 -2.1139  3.8427  0.7583
  915MOL0     H23480   8.240   4.045   7.848 -1.5115  0.9529 -0.4017
  915MOL0     H23481   8.272   3.901   7.650 -2.5413 -0.0974 -0.9164
  915MOL0     H23482   8.207   3.761   7.724  1.9655 -1.2328 -0.9425
  915MOL0     H23483   8.452   3.768   7.724  1.0334  4.0229 -0.8360
  915MOL0     H23484   8.364   3.739   7.886 -0.3950  1.2649  1.0352
  915MOL0     H23485   8.613   3.697   7.874 -0.0167  0.3754  0.1367
  915MOL0     H23486   8.813   3.572   7.916  0.5583  1.4231 -2.8400
  915MOL0     H23487   8.971   3.637   7.926  0.6542 -2.2689  1.3320
  915MOL0     H23488   8.874   3.631   8.074 -2.5977  0.1707  0.2887
  915MOL0     H23489   9.232   4.135   8.000  2.0078 -0.3525  1.2141
  915MOL0     H23490   9.462   4.151   8.108  0.4405 -0.3444 -1.0031
  915MOL0     H23491   9.499   4.337   8.451 -0.1589 -0.2651 -0.5840
  915MOL0     H23492   9.427   4.218   8.549 -1.1421 -0.1437 -1.0631
  915MOL0     H23493   9.630   4.108   8.618 -0.0492 -2.5486 -4.4179
  915MOL0     H23494   9.722   4.189   8.490  0.9559 -2.3020  1.1778
  915MOL0     H23495   9.590   4.360   8.695 -2.0627 -3.4177 -1.3352
  915MOL0     H23496   9.715   4.411   8.582 -1.5139  0.7124 -1.1939
  915MOL0     H23497   9.761   4.230   8.820 -0.8702 -0.2206 -0.2329
  915MOL0     H23498   9.854   4.233   8.667 -4.5543 -2.4912 -1.6396
  915MOL0     H23499   9.809   4.482   8.860 -1.4122  1.8207 -1.6587
  915MOL0     H23500   9.885   4.489   8.713  2.1470 -0.1349 -0.1067
  915MOL0     H23501  10.049   4.482   8.889 -1.0203 -0.0673  4.0110
  915MOL0     H23502   9.983   4.338   8.963 -0.3463 -1.7556 -0.4821
  915MOL0     H23503  10.159   4.347   8.712  2.2426  1.1049  1.6262
  915MOL0     H23504  10.065   4.204   8.758  2.0170  0.4036 -0.9771
  915MOL0     H23505  10.225   4.143   8.877 -1.6305 -0.5023  1.0888
  915MOL0     H23506  10.186   4.285   8.992  0.8300  0.7712  0.1475
  915MOL0     H23507   9.272   4.085   8.485 -2.7166  2.9222  0.3264
  915MOL0     H23508   9.049   4.025   8.355 -0.7490  2.2194 -0.6273
  915MOL0     H23509   8.831   4.129   7.977 -2.4070  0.5279  0.8060
  915MOL0     H23510   8.604   4.114   7.894  0.8820 -0.5728 -0.9369
  915MOL0     H23511   8.515   4.429   8.053  1.3940  0.1894 -0.0694
  915MOL0     H23512   8.728   4.540   8.135  1.1977  0.0611  1.4435
  915MOL0     H23513   9.148   4.513   8.204 -0.3695 -0.1367 -0.3632
  915MOL0     H23514   9.389   4.598   8.260 -0.8339 -1.2916 -1.8513
  915MOL0     H23515   9.570   4.769   8.386 -0.0792  2.2049 -0.0491
  915MOL0     H23516   9.414   4.804   8.469 -1.3518 -0.9132 -0.6620
  915MOL0     H23517   9.611   4.915   8.567 -3.5980  0.2330 -1.8685
  915MOL0     H23518   9.689   4.763   8.591  0.5174  1.2417 -1.9266
  915MOL0     H23519   9.507   4.716   8.776  0.4297 -0.3751  0.2703
  915MOL0     H23520   9.418   4.859   8.708 -0.2039 -0.4388 -2.7298
  915MOL0     H23521   9.521   4.923   8.918  1.1274  0.7334  0.0128
  915MOL0     H23522   9.587   5.010   8.785 -0.2468  1.0057 -0.6239
  915MOL0     H23523   9.933   4.809   8.912  0.2693 -0.5949  1.0796
  915MOL0     H23524   9.311   4.578   8.680  2.2567  2.2775 -1.4856
  915MOL0     H23525   9.077   4.501   8.636 -2.3053  0.5822 -1.5043
  916MOL0     O23526   7.276  10.742   4.573 -0.5219 -0.1120  0.1552
  916MOL0     C23527   7.302  10.775   4.462  0.3978  0.4897  1.1729
  916MOL0     O23528   7.243  10.874   4.387  0.8618  0.1026 -0.2568
  916MOL0     C23529   7.119  10.921   4.425 -0.3733  0.3772 -0.1149
  916MOL0     C23530   6.994  10.841   4.438  0.3309 -0.5813 -1.2238
  916MOL0     C23531   6.882  10.902   4.484  0.1159 -0.1798  0.9777
  916MOL0     C23532   6.873  11.040   4.506 -0.1541  0.4521  0.0249
  916MOL0     O23533   6.758  11.094   4.554 -0.4298 -0.3198  0.2131
  916MOL0     C23534   6.759  11.234   4.601  0.3110  0.0365 -0.0201
  916MOL0     C23535   6.625  11.270   4.660  0.3746 -0.2421  0.6533
  916MOL0     C23536   6.517  11.321   4.557  0.1321  0.6527 -0.1842
  916MOL0     C23537   6.386  11.325   4.631 -0.1955 -0.0004 -0.6003
  916MOL0     C23538   6.270  11.346   4.526  0.6432 -0.5473  0.0110
  916MOL0     C23539   6.199  11.211   4.491  0.2347  0.2134  0.7176
  916MOL0     C23540   6.105  11.242   4.370 -0.3445  0.0281 -0.3452
  916MOL0     C23541   6.046  11.120   4.317  0.8532  0.5381 -0.6631
  916MOL0     N23542   5.956  11.051   4.406  0.3965 -0.4792  0.3082
  916MOL0     C23543   5.977  10.933   4.464 -0.1876  0.4988  1.1662
  916MOL0     C23544   5.877  10.927   4.555 -0.7510 -0.1493 -0.0736
  916MOL0     C23545   5.870  10.822   4.661  0.0685  0.2111  0.1814
  916MOL0     C23546   5.932  10.868   4.799  0.9133  0.4180  0.0087
  916MOL0     C23547   6.041  10.765   4.847 -0.2032 -0.2070  0.7860
  916MOL0     C23548   6.172  10.753   4.757 -0.2336  1.0168  0.1304
  916MOL0     O23549   6.242  10.882   4.758  0.9636 -0.1472  0.3631
  916MOL0     C23550   6.366  10.890   4.821  0.2764  0.6109  0.0512
  916MOL0     C23551   6.382  10.941   4.946  0.8183 -1.0454  1.4195
  916MOL0     C23552   6.504  10.937   5.008 -0.1181 -0.7118 -0.3408
  916MOL0     C23553   6.518  10.994   5.146 -0.4837 -0.2551 -0.1524
  916MOL0     C23554   6.619  10.884   4.942 -0.1269 -0.0724  0.0601
  916MOL0     C23555   6.761  10.894   4.995  0.0899 -0.3205 -0.2484
  916MOL0     O23556   6.860  10.843   4.917  1.1452 -0.2147  0.2873
  916MOL0     C23557   6.993  10.853   4.952 -0.1175  0.1438 -0.5874
  916MOL0     C23558   7.081  10.895   4.848  0.3793  0.8276 -0.3599
  916MOL0     C23559   7.214  10.879   4.869  0.2904  0.5137 -0.3807
  916MOL0     C23560   7.272  10.825   4.986 -0.3759  0.5055  0.2521
  916MOL0     O23561   7.405  10.815   5.017 -0.0773 -0.0232  0.4948
  916MOL0     C23562   7.475  10.727   4.929 -0.9291 -0.4353  0.0756
  916MOL0     C23563   7.454  10.585   4.986 -0.4612  0.2259  0.0440
  916MOL0     C23564   7.523  10.479   4.897 -0.1171 -0.6678  0.2982
  916MOL0     C23565   7.500  10.330   4.929  0.0521  0.2324  0.3883
  916MOL0     C23566   7.587  10.232   4.845 -0.5018 -0.2023 -0.0023
  916MOL0     C23567   7.747  10.233   4.878 -0.3268  0.3093  0.0819
  916MOL0     C23568   7.819  10.123   4.792  0.4579 -0.2763 -0.4439
  916MOL0     C23569   7.960  10.105   4.846 -0.0555 -0.3782 -0.2243
  916MOL0    Cl23570   8.059   9.988   4.741  0.0483  0.2911 -0.0478
  916MOL0     C23571   7.185  10.787   5.087  0.1596  0.3952  0.7541
  916MOL0     C23572   7.045  10.801   5.068  0.4247  0.0349  0.2510
  916MOL0     O23573   6.786  10.942   5.108 -0.0686  0.0005 -0.4538
  916MOL0     C23574   6.603  10.830   4.807  1.3770  0.3848  0.9826
  916MOL0     C23575   6.475  10.841   4.753  0.0978  0.0855  0.2878
  916MOL0     N23576   5.803  11.049   4.558  0.3330  0.1216  0.2822
  916MOL0     N23577   5.847  11.117   4.462  0.8420  0.1001 -0.1429
  916MOL0     C23578   6.991  11.114   4.500  0.0329 -0.3535  0.1038
  916MOL0     C23579   7.112  11.058   4.458 -0.2349 -0.3439  0.2648
  916MOL0     C23580   7.433  10.715   4.410 -0.2056  0.1577  1.0748
  916MOL0     C23581   7.521  10.640   4.486  0.4140  0.4871 -0.0035
  916MOL0     C23582   7.636  10.594   4.425 -0.1822 -0.1075  0.1419
  916MOL0     C23583   7.669  10.616   4.287  0.0454 -0.1983  0.2992
  916MOL0     O23584   7.769  10.552   4.213 -0.2461  0.0648 -0.4138
  916MOL0     C23585   7.887  10.510   4.279  0.3690 -0.4840 -0.3427
  916MOL0     C23586   7.965  10.397   4.201 -0.6030 -0.2366  0.2385
  916MOL0     C23587   7.856  10.290   4.157 -0.1389  0.0448 -0.0105
  916MOL0     C23588   7.936  10.169   4.112  0.1726 -0.3975 -0.4673
  916MOL0     C23589   8.022  10.194   3.997  0.0686  0.5203  0.1242
  916MOL0     C23590   8.094  10.196   3.897  0.1426 -0.0064 -1.2472
  916MOL0     C23591   7.589  10.699   4.217  0.9437  0.6533  0.2484
  916MOL0     C23592   7.470  10.743   4.278  0.5505  0.2557 -0.8997
  916MOL0     H23593   6.992  10.735   4.415  1.0039 -0.6599 -0.9566
  916MOL0     H23594   6.793  10.851   4.522 -0.1474  0.0538  0.6754
  916MOL0     H23595   6.830  11.250   4.683 -0.3398  0.0688  0.5500
  916MOL0     H23596   6.783  11.301   4.518  1.7712 -1.9112 -1.2468
  916MOL0     H23597   6.583  11.196   4.728 -2.7659  1.2537  0.5352
  916MOL0     H23598   6.651  11.351   4.729  3.2245 -0.1078 -0.4286
  916MOL0     H23599   6.551  11.411   4.504  1.1583 -1.3322 -3.2003
  916MOL0     H23600   6.513  11.245   4.479  1.6474  0.7037 -0.3452
  916MOL0     H23601   6.377  11.235   4.692  0.2589  0.5847  0.3558
  916MOL0     H23602   6.386  11.412   4.698  2.9687 -0.0163 -0.4242
  916MOL0     H23603   6.192  11.407   4.572  1.0439  0.9261 -1.1771
  916MOL0     H23604   6.322  11.392   4.441  1.1833  1.0894  1.1823
  916MOL0     H23605   6.273  11.134   4.469 -1.6152 -1.3148 -0.4300
  916MOL0     H23606   6.149  11.180   4.583  0.2117  1.5171  1.1764
  916MOL0     H23607   6.025  11.304   4.412 -0.6428  1.2646 -2.5765
  916MOL0     H23608   6.158  11.299   4.293 -2.6190  0.1724 -1.8972
  916MOL0     H23609   6.121  11.043   4.298 -0.0011 -1.2059  2.3923
  916MOL0     H23610   5.997  11.143   4.221  2.5133  1.3829 -1.3573
  916MOL0     H23611   6.055  10.860   4.443  0.9428  1.5054  1.7305
  916MOL0     H23612   5.764  10.806   4.685  0.0513  1.1985  0.8007
  916MOL0     H23613   5.915  10.728   4.627  0.8934  0.4229  0.6707
  916MOL0     H23614   5.856  10.877   4.877  0.1587  0.5770 -0.7429
  916MOL0     H23615   5.977  10.968   4.790  0.2063  0.9383  1.8535
  916MOL0     H23616   5.991  10.669   4.834 -0.1378  0.0405 -1.9704
  916MOL0     H23617   6.057  10.796   4.951  0.5391 -3.2619  1.6793
  916MOL0     H23618   6.163  10.725   4.652 -0.8440 -1.8030  0.8485
  916MOL0     H23619   6.236  10.683   4.811  0.0985  1.3468  0.1634
  916MOL0     H23620   6.290  10.972   4.994  0.4866  0.9699 -0.3703
  916MOL0     H23621   6.544  10.914   5.215 -0.6883 -0.8127 -0.7143
  916MOL0     H23622   6.590  11.077   5.147 -0.3478 -0.3000 -2.0108
  916MOL0     H23623   6.424  11.042   5.173 -0.9803  1.2409 -3.8234
  916MOL0     H23624   7.043  10.926   4.751 -2.5639 -2.2391 -0.3876
  916MOL0     H23625   7.287  10.907   4.794 -0.2188  2.8471 -0.0718
  916MOL0     H23626   7.442  10.739   4.826 -0.5689 -0.3777 -0.0342
  916MOL0     H23627   7.578  10.761   4.938 -1.6063  1.5111  0.9272
  916MOL0     H23628   7.491  10.591   5.089 -3.3222  0.3093  1.1347
  916MOL0     H23629   7.349  10.559   4.994 -0.2664 -1.1603 -1.3884
  916MOL0     H23630   7.628  10.509   4.888 -0.0132 -0.1220  2.7775
  916MOL0     H23631   7.483  10.489   4.795 -0.1535 -0.7230  0.3068
  916MOL0     H23632   7.513  10.304   5.034 -1.3808  0.5522  0.6672
  916MOL0     H23633   7.396  10.312   4.902 -0.0076  0.2091  0.6361
  916MOL0     H23634   7.568  10.261   4.741 -0.9267 -0.4261  0.0092
  916MOL0     H23635   7.545  10.134   4.871 -2.2972  0.4073 -0.4345
  916MOL0     H23636   7.800  10.328   4.866 -0.0404  0.4546  2.1747
  916MOL0     H23637   7.762  10.195   4.979  3.2654 -1.2600 -0.8931
  916MOL0     H23638   7.822  10.157   4.688 -0.5564  0.5931 -0.1985
  916MOL0     H23639   7.765  10.028   4.795 -2.8611  1.5016  1.4226
  916MOL0     H23640   7.965  10.086   4.953  0.1894  1.0256  0.0398
  916MOL0     H23641   8.010  10.202   4.833 -1.4259  0.5687  1.2133
  916MOL0     H23642   7.218  10.755   5.186 -2.7255 -1.2053  1.2936
  916MOL0     H23643   6.979  10.760   5.144  0.1574 -0.1823 -0.0948
  916MOL0     H23644   6.684  10.790   4.747  0.3305 -1.0405  0.4646
  916MOL0     H23645   6.450  10.826   4.649 -0.8726  1.0242  0.3711
  916MOL0     H23646   6.995  11.217   4.534 -3.0784  0.7526 -2.3707
  916MOL0     H23647   7.193  11.130   4.449 -1.0326  0.6599  0.8939
  916MOL0     H23648   7.493  10.624   4.590 -2.3164  1.7372 -0.4612
  916MOL0     H23649   7.698  10.541   4.497  0.1163 -0.5574 -0.4367
  916MOL0     H23650   7.950  10.599   4.290  1.2476 -0.9830 -1.1711
  916MOL0     H23651   7.875  10.473   4.381  0.6158  2.0240  0.6717
  916MOL0     H23652   8.049  10.363   4.262  1.6995  3.0379 -0.8279
  916MOL0     H23653   8.011  10.431   4.107  0.6060 -2.3671  0.0001
  916MOL0     H23654   7.785  10.327   4.082  0.8433 -0.7824 -1.3728
  916MOL0     H23655   7.791  10.258   4.240  0.8562  2.0483  1.6507
  916MOL0     H23656   7.874  10.080   4.097 -0.2859  0.1562 -2.1331
  916MOL0     H23657   7.998  10.133   4.194  0.6580 -0.1398 -0.7141
  916MOL0     H23658   8.157  10.182   3.812 -1.3226  0.5278 -2.4774
  916MOL0     H23659   7.616  10.729   4.117 -3.4868  2.1134 -0.7627
  916MOL0     H23660   7.408  10.802   4.211 -2.1780 -2.6770 -1.1640
  917MOL0     O23661   3.218   7.292   1.748  0.3909  0.3265 -0.2599
  917MOL0     C23662   3.245   7.205   1.832 -0.3114  0.0094  0.1052
  917MOL0     O23663   3.157   7.102   1.880  0.4929  0.0142 -0.6373
  917MOL0     C23664   3.039   7.082   1.807  0.4185  0.1278 -0.2720
  917MOL0     C23665   2.910   7.139   1.833 -1.1637  0.3334 -0.7280
  917MOL0     C23666   2.800   7.107   1.747  0.2071 -0.4767 -0.4692
  917MOL0     C23667   2.806   7.001   1.651  0.2253  0.4890  0.5953
  917MOL0     O23668   2.707   6.962   1.563 -0.1701  0.2357 -0.7221
  917MOL0     C23669   2.592   7.052   1.555  0.3445 -0.3176 -0.2951
  917MOL0     C23670   2.482   7.003   1.461  0.2814 -1.4754  0.0921
  917MOL0     C23671   2.544   6.933   1.337 -0.7027 -0.6871  0.3664
  917MOL0     C23672   2.636   7.022   1.250 -0.5740 -0.0933 -0.3081
  917MOL0     C23673   2.567   7.107   1.150  0.1585  0.3794 -0.2197
  917MOL0     C23674   2.501   7.044   1.024  0.4881 -0.7667 -0.0853
  917MOL0     C23675   2.576   6.945   0.929  1.0911 -0.5514 -0.2157
  917MOL0     C23676   2.573   6.792   0.975 -1.2105 -0.7943 -0.0060
  917MOL0     N23677   2.442   6.746   1.008 -1.1480  0.1197 -0.0764
  917MOL0     C23678   2.342   6.721   0.920  0.6061  0.0993  0.4422
  917MOL0     C23679   2.249   6.659   0.986 -0.3267  0.3356 -0.6896
  917MOL0     C23680   2.122   6.621   0.927  0.1518  0.8256  0.0791
  917MOL0     C23681   2.010   6.647   1.025 -0.5594 -0.4907 -0.4292
  917MOL0     C23682   2.015   6.791   1.064  0.1001 -0.1684 -0.0856
  917MOL0     C23683   1.976   6.891   0.958  0.3710  0.0100 -0.6851
  917MOL0     O23684   1.846   6.853   0.900  0.1710  0.7711 -0.1324
  917MOL0     C23685   1.829   6.819   0.770  0.4512  1.0846  0.2826
  917MOL0     C23686   1.922   6.846   0.666  0.0100  0.6566  0.6267
  917MOL0     C23687   1.900   6.811   0.530 -0.0969 -0.5319 -0.1363
  917MOL0     C23688   2.008   6.838   0.432  0.2574 -0.4192 -0.0308
  917MOL0     C23689   1.776   6.755   0.498  0.4246 -0.1390  0.5619
  917MOL0     C23690   1.727   6.739   0.363 -0.9677  0.1000  0.0046
  917MOL0     O23691   1.635   6.638   0.360 -0.6974 -0.0933  0.3813
  917MOL0     C23692   1.584   6.616   0.233 -0.5561 -0.0791  0.6197
  917MOL0     C23693   1.449   6.639   0.225  0.1429  0.0314  0.0005
  917MOL0     C23694   1.379   6.615   0.107 -0.3700 -0.5536 -0.3820
  917MOL0     C23695   1.443   6.547  -0.009 -0.0070 -0.6834 -0.4048
  917MOL0     O23696   1.350   6.508  -0.100 -0.7580 -0.1217  0.7964
  917MOL0     C23697   1.402   6.456  -0.228  0.1332 -0.0738 -0.7697
  917MOL0     C23698   1.447   6.575  -0.314  0.4951 -0.3584  0.1488
  917MOL0     C23699   1.348   6.651  -0.395  1.0120  0.4185 -0.7814
  917MOL0     C23700   1.215   6.686  -0.334  0.4087 -0.3124 -0.0866
  917MOL0     C23701   1.109   6.706  -0.451  0.1699  0.0220 -0.2152
  917MOL0     C23702   0.985   6.752  -0.386  0.6007  0.0534  0.0743
  917MOL0     C23703   0.915   6.656  -0.288  0.2829  0.5713 -0.0044
  917MOL0     C23704   0.872   6.520  -0.353  1.0212 -0.0430  0.2125
  917MOL0    Cl23705   0.729   6.443  -0.283 -0.0042 -0.4521 -0.3233
  917MOL0     C23706   1.582   6.534   0.004 -0.0706  0.4624 -0.1351
  917MOL0     C23707   1.657   6.567   0.120 -0.1991  0.3010  0.6177
  917MOL0     O23708   1.764   6.809   0.261 -0.4094  0.1519  0.1860
  917MOL0     C23709   1.683   6.732   0.599 -0.3721 -0.6748 -1.0211
  917MOL0     C23710   1.711   6.763   0.728  0.9014 -0.1545  0.2027
  917MOL0     N23711   2.295   6.636   1.116  0.4291 -0.0890 -0.7901
  917MOL0     N23712   2.405   6.698   1.130 -0.9399  1.0865 -0.0643
  917MOL0     C23713   2.931   6.942   1.635 -0.3908  0.1049  1.7804
  917MOL0     C23714   3.041   6.991   1.696 -0.5745 -0.2322 -0.6253
  917MOL0     C23715   3.378   7.218   1.894 -0.2479  0.5772 -0.5582
  917MOL0     C23716   3.389   7.169   2.023 -0.8716  1.0704 -0.3199
  917MOL0     C23717   3.509   7.193   2.086 -0.3595 -0.3567 -0.0409
  917MOL0     C23718   3.616   7.254   2.023 -0.6003 -0.1759 -0.7241
  917MOL0     O23719   3.731   7.273   2.096 -0.1872  0.0258 -0.4732
  917MOL0     C23720   3.853   7.300   2.032  0.9440  0.1500  0.5309
  917MOL0     C23721   3.950   7.202   2.074  0.5894  0.4127  0.0849
  917MOL0     C23722   4.092   7.243   2.021  0.3901  0.5568  0.2220
  917MOL0     C23723   4.197   7.120   2.032  0.1955  0.1049  0.1066
  917MOL0     C23724   4.307   7.132   1.932 -0.2111 -0.1892 -0.0719
  917MOL0     C23725   4.388   7.136   1.842 -0.1975  1.0155 -0.2816
  917MOL0     C23726   3.597   7.314   1.898 -0.2160 -0.0525 -0.2400
  917MOL0     C23727   3.476   7.301   1.840 -0.3042 -0.3423  0.1447
  917MOL0     H23728   2.897   7.204   1.920 -0.4792 -0.4804  0.0056
  917MOL0     H23729   2.708   7.161   1.762 -0.6646 -0.6955 -4.1761
  917MOL0     H23730   2.547   7.066   1.654  0.9360  0.1950 -0.0932
  917MOL0     H23731   2.619   7.149   1.513 -0.3299  0.6527  1.3836
  917MOL0     H23732   2.424   6.941   1.530  0.0468  1.2471  2.5034
  917MOL0     H23733   2.410   7.079   1.432 -0.0520 -2.2550 -1.2250
  917MOL0     H23734   2.594   6.842   1.370 -1.2205 -0.7989  0.8733
  917MOL0     H23735   2.456   6.913   1.275 -0.1207 -0.8882 -0.4005
  917MOL0     H23736   2.700   7.095   1.301 -1.2038  2.2741 -2.6856
  917MOL0     H23737   2.709   6.957   1.201  0.4976  0.1399  0.9220
  917MOL0     H23738   2.501   7.172   1.208  1.2846  0.7984  0.6470
  917MOL0     H23739   2.642   7.169   1.101 -1.3516  0.7700 -2.1369
  917MOL0     H23740   2.407   6.994   1.046  0.8789 -1.2938  0.4070
  917MOL0     H23741   2.472   7.129   0.961 -2.1548 -1.0725  0.5969
  917MOL0     H23742   2.535   6.947   0.827 -1.4571  1.2958  0.7433
  917MOL0     H23743   2.678   6.982   0.917  0.2523  1.7076 -0.8327
  917MOL0     H23744   2.642   6.796   1.060  3.0355  0.2702 -3.1214
  917MOL0     H23745   2.612   6.731   0.894 -1.9314 -0.8208 -0.3420
  917MOL0     H23746   2.345   6.741   0.813  0.4351  1.2348  0.6344
  917MOL0     H23747   2.109   6.663   0.826  1.4174  1.4238  0.1470
  917MOL0     H23748   2.122   6.512   0.925 -0.5900  0.8053  0.8122
  917MOL0     H23749   2.027   6.576   1.107 -2.1982 -0.2391  0.1568
  917MOL0     H23750   1.913   6.621   0.982 -1.6527  2.3183  0.0949
  917MOL0     H23751   2.098   6.835   1.119 -0.6430  0.7557  0.3333
  917MOL0     H23752   1.930   6.791   1.134  0.6696 -1.3034  0.6337
  917MOL0     H23753   2.058   6.892   0.886 -0.7069  1.7225 -1.9768
  917MOL0     H23754   1.972   6.989   1.006 -1.4588  0.0733 -0.8788
  917MOL0     H23755   2.011   6.898   0.699  1.6654 -1.3303 -0.4989
  917MOL0     H23756   2.004   6.941   0.397 -0.6354  0.7051  3.0369
  917MOL0     H23757   2.108   6.807   0.465 -0.3334 -1.6006  0.7461
  917MOL0     H23758   1.996   6.776   0.343 -0.7904 -2.7340  1.6220
  917MOL0     H23759   1.405   6.674   0.318  4.7706 -0.3112  2.6018
  917MOL0     H23760   1.274   6.638   0.117 -0.0428  0.5171  0.8531
  917MOL0     H23761   1.483   6.384  -0.212 -1.6797 -2.4800 -1.7022
  917MOL0     H23762   1.322   6.400  -0.278 -0.6507  1.7239 -1.6312
  917MOL0     H23763   1.512   6.639  -0.254 -0.8556  0.5777  0.6869
  917MOL0     H23764   1.506   6.536  -0.397  0.6370 -0.7081  0.4114
  917MOL0     H23765   1.328   6.581  -0.477  0.6182  2.9911 -3.0531
  917MOL0     H23766   1.387   6.742  -0.442  1.4425 -0.2526 -1.7600
  917MOL0     H23767   1.178   6.600  -0.276 -0.1996  0.7416  1.1238
  917MOL0     H23768   1.230   6.774  -0.271 -3.7196  0.4320  0.1008
  917MOL0     H23769   1.105   6.609  -0.502  2.7073  0.2593 -1.0158
  917MOL0     H23770   1.150   6.781  -0.519 -0.4809  0.1624 -0.4592
  917MOL0     H23771   1.006   6.849  -0.341 -1.3454  0.5633 -0.0259
  917MOL0     H23772   0.922   6.783  -0.470  0.9862  1.0484  0.1462
  917MOL0     H23773   0.817   6.703  -0.277 -1.6755 -3.1398  0.1302
  917MOL0     H23774   0.965   6.651  -0.191  2.7798 -1.0340 -1.2411
  917MOL0     H23775   0.958   6.455  -0.336  1.6333  1.5161  4.0248
  917MOL0     H23776   0.858   6.540  -0.460 -0.0070  1.2767  0.5567
  917MOL0     H23777   1.625   6.499  -0.090 -1.6385  1.8888 -1.4402
  917MOL0     H23778   1.765   6.558   0.127  0.0729 -0.4806 -2.6476
  917MOL0     H23779   1.581   6.699   0.579 -0.6643  0.4443 -1.4626
  917MOL0     H23780   1.642   6.749   0.811 -2.0193  2.1131 -1.6940
  917MOL0     H23781   2.939   6.856   1.570  1.0282 -0.1781  2.2839
  917MOL0     H23782   3.138   6.948   1.672 -0.4328  0.2917 -1.0018
  917MOL0     H23783   3.302   7.130   2.076 -1.1288 -0.4267 -1.7637
  917MOL0     H23784   3.519   7.169   2.191  1.6138 -0.7008 -0.2594
  917MOL0     H23785   3.853   7.302   1.923  1.4575 -1.2045  0.4937
  917MOL0     H23786   3.874   7.405   2.056 -0.3945  0.1234  2.0178
  917MOL0     H23787   3.927   7.099   2.045  2.5136 -0.1916  0.5077
  917MOL0     H23788   3.965   7.194   2.183  4.7402  4.5111  0.1047
  917MOL0     H23789   4.133   7.326   2.078 -1.4760  1.9352 -0.3568
  917MOL0     H23790   4.074   7.270   1.916 -3.7069  0.1396  0.6658
  917MOL0     H23791   4.151   7.021   2.030 -0.6148  0.4603  0.5144
  917MOL0     H23792   4.239   7.106   2.132 -1.6752 -2.5298  0.6335
  917MOL0     H23793   4.466   7.127   1.769 -1.4194  0.7490 -1.5857
  917MOL0     H23794   3.673   7.377   1.852 -0.9053  2.8808  2.2971
  917MOL0     H23795   3.475   7.334   1.737 -1.1397  0.0640  0.2719
  918MOL0     O23796   2.317  10.777   7.538 -0.7818  0.0022  0.7314
  918MOL0     C23797   2.379  10.666   7.532 -0.1063 -0.4079  0.1874
  918MOL0     O23798   2.327  10.533   7.551  0.4833 -0.8661  0.2976
  918MOL0     C23799   2.192  10.521   7.560  0.3361 -0.4440 -1.1000
  918MOL0     C23800   2.110  10.556   7.669 -0.6732  0.0949  0.6579
  918MOL0     C23801   1.972  10.530   7.656  0.0029 -0.0539  0.1467
  918MOL0     C23802   1.917  10.483   7.539 -0.0420  0.7095 -0.0120
  918MOL0     O23803   1.791  10.446   7.530  0.2674  0.2418  0.1412
  918MOL0     C23804   1.706  10.468   7.646  0.0519  0.1242 -0.0278
  918MOL0     C23805   1.565  10.404   7.615 -0.2029 -0.9226 -0.3068
  918MOL0     C23806   1.468  10.395   7.732  0.1317  0.3261  0.4545
  918MOL0     C23807   1.337  10.320   7.700  0.0717 -0.4100  0.1503
  918MOL0     C23808   1.251  10.292   7.817  0.5326 -0.4653  0.0743
  918MOL0     C23809   1.147  10.191   7.766  0.8377 -0.3000  0.8411
  918MOL0     C23810   1.044  10.155   7.879  0.4343 -0.7525  0.3386
  918MOL0     C23811   0.974  10.019   7.853 -0.8501 -0.5469  0.3610
  918MOL0     N23812   0.853  10.007   7.941 -0.4049  0.9203  0.2062
  918MOL0     C23813   0.844   9.958   8.061 -0.8418 -0.1355  0.2483
  918MOL0     C23814   0.717   9.943   8.085  1.0230 -0.0178  0.2611
  918MOL0     C23815   0.673   9.865   8.196 -0.2154 -0.6507  0.6471
  918MOL0     C23816   0.523   9.831   8.177  0.6021 -0.0243  0.0561
  918MOL0     C23817   0.473   9.708   8.257  0.6412 -0.4034  0.6788
  918MOL0     C23818   0.493   9.744   8.407 -0.2666 -0.5104 -0.1676
  918MOL0     O23819   0.431   9.635   8.479  1.1454  0.2882  0.3155
  918MOL0     C23820   0.500   9.520   8.519 -0.1404 -0.5001  1.0320
  918MOL0     C23821   0.431   9.418   8.571 -0.5244 -0.3203 -0.0361
  918MOL0     C23822   0.494   9.293   8.605 -0.5004  0.5899 -0.4196
  918MOL0     C23823   0.397   9.182   8.651  0.0040  0.4412  0.3197
  918MOL0     C23824   0.633   9.274   8.582  0.2532  0.5462 -0.3669
  918MOL0     C23825   0.707   9.148   8.613 -0.0917 -0.2561  0.3376
  918MOL0     O23826   0.837   9.158   8.585  0.4024  0.5024  0.3881
  918MOL0     C23827   0.898   9.043   8.528 -0.9795 -0.2246  0.1698
  918MOL0     C23828   1.040   9.037   8.538 -0.7107 -1.0177 -0.4913
  918MOL0     C23829   1.120   8.932   8.501  0.7443  0.7376  0.2847
  918MOL0     C23830   1.060   8.822   8.447  0.5706  0.9102 -0.8568
  918MOL0     O23831   1.135   8.716   8.411 -0.0611  0.3023  0.3461
  918MOL0     C23832   1.104   8.644   8.287 -0.2404  0.3021  0.5114
  918MOL0     C23833   1.195   8.522   8.260 -0.2902 -0.1057  0.1475
  918MOL0     C23834   1.338   8.566   8.226 -0.1218 -0.5198  0.0364
  918MOL0     C23835   1.436   8.454   8.212  0.9866 -0.3663 -0.3272
  918MOL0     C23836   1.571   8.518   8.199  0.4421 -1.3246  0.8952
  918MOL0     C23837   1.670   8.408   8.179 -0.3041  0.3086 -0.1739
  918MOL0     C23838   1.702   8.352   8.037  1.0765 -0.4106 -0.3874
  918MOL0     C23839   1.814   8.258   8.035 -0.7646  0.7984  0.2833
  918MOL0    Cl23840   1.761   8.105   8.097 -0.0152  0.0779  0.4369
  918MOL0     C23841   0.917   8.814   8.439  0.5057 -0.5722  0.7658
  918MOL0     C23842   0.841   8.930   8.467 -0.1387 -0.5616  0.5679
  918MOL0     O23843   0.655   9.051   8.655 -0.0585  0.6634 -0.0584
  918MOL0     C23844   0.700   9.381   8.526 -0.3031  0.2197  0.0714
  918MOL0     C23845   0.637   9.501   8.492  0.5993  0.4302 -0.0909
  918MOL0     N23846   0.641  10.008   7.987  0.2011 -0.3767  0.1630
  918MOL0     N23847   0.729  10.037   7.899 -0.0567  0.1090  0.2881
  918MOL0     C23848   1.992  10.455   7.430 -0.7711 -0.3406 -0.3516
  918MOL0     C23849   2.134  10.478   7.441  0.4990  0.4883  0.8593
  918MOL0     C23850   2.519  10.672   7.488 -0.5146  0.3364  0.0709
  918MOL0     C23851   2.573  10.795   7.467 -0.8018 -0.3835 -0.4614
  918MOL0     C23852   2.708  10.807   7.427 -0.2994  0.7856 -0.7369
  918MOL0     C23853   2.782  10.689   7.408 -0.3101  0.2081 -0.1049
  918MOL0     O23854   2.915  10.710   7.388  0.2683  0.1715 -0.2837
  918MOL0     C23855   3.014  10.620   7.435  0.2731 -0.6862  0.8869
  918MOL0     C23856   3.153  10.650   7.358  0.0454 -0.1687  0.8933
  918MOL0     C23857   3.155  10.614   7.203  0.9093 -0.2347  0.6725
  918MOL0     C23858   3.288  10.649   7.131  0.7206 -0.2246 -0.3519
  918MOL0     C23859   3.293  10.587   6.999  0.4932  0.0833 -0.2413
  918MOL0     C23860   3.279  10.534   6.889 -0.8509 -0.0069 -0.7545
  918MOL0     C23861   2.723  10.564   7.429  0.2187 -0.5044 -0.8377
  918MOL0     C23862   2.587  10.553   7.464 -0.5177 -0.6452  0.0705
  918MOL0     H23863   2.160  10.591   7.759 -0.0775 -1.0290  0.7754
  918MOL0     H23864   1.908  10.576   7.731  0.4603  0.1099  0.4406
  918MOL0     H23865   1.739  10.413   7.735  0.3574 -3.3459 -2.0926
  918MOL0     H23866   1.698  10.577   7.652  1.0483  0.1984  4.9996
  918MOL0     H23867   1.528  10.466   7.534  1.5882 -0.4498 -0.8090
  918MOL0     H23868   1.583  10.302   7.579 -0.2426 -1.1418  0.2800
  918MOL0     H23869   1.520  10.357   7.820  1.3612  1.1316  0.0942
  918MOL0     H23870   1.441  10.494   7.770  0.1329  0.3676  0.3472
  918MOL0     H23871   1.268  10.371   7.631 -2.0733 -0.9155  1.8144
  918MOL0     H23872   1.366  10.234   7.640  0.9369  0.9954 -1.5345
  918MOL0     H23873   1.315  10.238   7.887  0.8548 -0.3547 -0.1316
  918MOL0     H23874   1.202  10.382   7.856 -2.5089 -1.8973 -0.2348
  918MOL0     H23875   1.091  10.245   7.689 -0.3094 -1.5753  0.7534
  918MOL0     H23876   1.189  10.100   7.723 -4.8121 -1.7902 -2.6047
  918MOL0     H23877   1.097  10.156   7.974 -2.1327 -0.8490  1.8792
  918MOL0     H23878   0.967  10.232   7.871 -0.5973 -1.9822 -4.1303
  918MOL0     H23879   1.048   9.940   7.864 -0.5414 -0.4691 -0.9653
  918MOL0     H23880   0.956  10.010   7.746  6.1668  0.9467 -1.4215
  918MOL0     H23881   0.932   9.932   8.120  1.4055  0.0818 -2.7303
  918MOL0     H23882   0.732   9.773   8.207  0.3360 -0.5364 -1.1385
  918MOL0     H23883   0.686   9.931   8.282 -0.9364  0.4138 -0.0449
  918MOL0     H23884   0.510   9.803   8.072  0.2657  4.0918 -1.1706
  918MOL0     H23885   0.463   9.920   8.196  0.5957 -0.2063  0.9361
  918MOL0     H23886   0.522   9.615   8.226 -0.5191 -0.1733 -2.1572
  918MOL0     H23887   0.370   9.685   8.228  0.7159  0.7917 -0.6720
  918MOL0     H23888   0.445   9.840   8.427 -1.0638 -0.3263 -2.6324
  918MOL0     H23889   0.597   9.759   8.437 -0.2614 -1.2032  0.1898
  918MOL0     H23890   0.326   9.434   8.595 -0.2593  0.9283  0.4090
  918MOL0     H23891   0.298   9.221   8.627  0.6933  2.5478  0.6842
  918MOL0     H23892   0.423   9.089   8.598 -0.9642  0.3316  0.0251
  918MOL0     H23893   0.406   9.161   8.758 -3.6630 -1.1757  0.4753
  918MOL0     H23894   1.082   9.129   8.577 -1.2862 -1.2441  0.7001
  918MOL0     H23895   1.227   8.929   8.514  1.0544 -1.1906 -1.9797
  918MOL0     H23896   1.001   8.609   8.290 -0.0167 -0.3457  2.9798
  918MOL0     H23897   1.118   8.713   8.203  1.8406  0.1086  0.6465
  918MOL0     H23898   1.185   8.455   8.346 -1.2622 -0.0475  0.0968
  918MOL0     H23899   1.158   8.459   8.179  0.5498 -1.5709  0.8732
  918MOL0     H23900   1.369   8.630   8.309 -0.2173 -0.5043  0.0617
  918MOL0     H23901   1.355   8.632   8.141  2.0177  0.6228  1.2537
  918MOL0     H23902   1.433   8.397   8.305 -0.7502  0.5449  0.2093
  918MOL0     H23903   1.410   8.380   8.136 -2.6316 -0.5993  0.9312
  918MOL0     H23904   1.591   8.584   8.285  0.5775 -3.1369  2.3077
  918MOL0     H23905   1.587   8.580   8.110 -2.3432  0.4228  1.4848
  918MOL0     H23906   1.758   8.454   8.223  0.5283 -2.6152  1.5362
  918MOL0     H23907   1.648   8.322   8.244  1.2438 -1.4136 -1.8044
  918MOL0     H23908   1.736   8.433   7.972  1.4737 -0.1752  0.1056
  918MOL0     H23909   1.618   8.299   7.991 -0.3235  0.5480  0.9424
  918MOL0     H23910   1.900   8.304   8.085  1.0111  0.0576 -1.9147
  918MOL0     H23911   1.840   8.248   7.929 -1.7221 -0.8730  0.1800
  918MOL0     H23912   0.869   8.725   8.400  0.9006 -0.1936 -0.6305
  918MOL0     H23913   0.733   8.924   8.460 -0.0853 -1.2218  0.2612
  918MOL0     H23914   0.801   9.362   8.493 -0.3411  0.2674 -0.0753
  918MOL0     H23915   0.695   9.585   8.456 -2.2224  2.1166 -1.0661
  918MOL0     H23916   1.940  10.420   7.341 -1.5724  0.0126 -0.0266
  918MOL0     H23917   2.191  10.457   7.351 -1.8296  0.1827 -0.6247
  918MOL0     H23918   2.522  10.890   7.478 -0.7693  0.0235 -3.2571
  918MOL0     H23919   2.744  10.909   7.419 -0.4452  0.8183 -0.9753
  918MOL0     H23920   3.030  10.621   7.543  0.2807 -0.0533  0.8811
  918MOL0     H23921   2.987  10.521   7.397 -2.7699  0.9230 -1.6388
  918MOL0     H23922   3.227  10.581   7.401  0.0494 -1.8245 -1.5925
  918MOL0     H23923   3.182  10.755   7.364  2.8127 -0.7524 -0.6641
  918MOL0     H23924   3.076  10.679   7.164  1.5816  1.2554  1.6780
  918MOL0     H23925   3.133  10.509   7.182 -1.8916 -0.3252  3.4238
  918MOL0     H23926   3.372  10.609   7.189 -0.7905 -1.0581  1.3487
  918MOL0     H23927   3.299  10.758   7.134  0.2634 -0.1548  3.6308
  918MOL0     H23928   3.274  10.484   6.794  0.4116 -2.1289  0.2099
  918MOL0     H23929   2.784  10.477   7.407  1.4469 -0.0846  0.7295
  918MOL0     H23930   2.539  10.457   7.484  0.0503 -0.8649  0.3827
  919MOL0     O23931   8.273   6.455   0.328 -0.8207 -0.5017  0.3432
  919MOL0     C23932   8.302   6.513   0.220 -0.2282  0.5493 -0.0533
  919MOL0     O23933   8.210   6.573   0.137  0.3014  0.2514 -0.1031
  919MOL0     C23934   8.081   6.575   0.183  0.4616 -0.0788  0.9550
  919MOL0     C23935   8.030   6.690   0.247  0.2062  0.4496  0.4501
  919MOL0     C23936   7.900   6.684   0.298 -0.5128 -1.0156  0.8469
  919MOL0     C23937   7.814   6.577   0.275 -0.3039 -0.9369 -1.1288
  919MOL0     O23938   7.691   6.590   0.342  0.0590 -0.4445  1.2996
  919MOL0     C23939   7.578   6.517   0.284 -0.4453 -0.1051  0.4089
  919MOL0     C23940   7.435   6.543   0.352 -0.2078 -0.2671  0.7786
  919MOL0     C23941   7.447   6.483   0.495 -0.5942 -1.1239 -0.0553
  919MOL0     C23942   7.318   6.484   0.574  0.4237  0.9389  0.5357
  919MOL0     C23943   7.282   6.349   0.643 -0.7302  0.2701  0.1303
  919MOL0     C23944   7.139   6.347   0.689 -0.4726  0.5961  0.1872
  919MOL0     C23945   7.111   6.213   0.778 -0.4125 -0.2329 -0.0778
  919MOL0     C23946   6.961   6.208   0.818 -0.5769  0.3965  0.2790
  919MOL0     N23947   6.886   6.129   0.725 -0.1312  0.5033  0.3739
  919MOL0     C23948   6.864   5.991   0.728  0.1979 -0.3406  0.4276
  919MOL0     C23949   6.767   5.961   0.639 -0.1512 -0.1611  0.6759
  919MOL0     C23950   6.734   5.826   0.594 -0.4483  0.9260 -0.1363
  919MOL0     C23951   6.614   5.771   0.673  0.0435  0.0671  0.0409
  919MOL0     C23952   6.635   5.720   0.819 -0.0283 -0.0586  0.4989
  919MOL0     C23953   6.733   5.606   0.833 -0.3116 -0.1545 -0.3781
  919MOL0     O23954   6.700   5.548   0.960 -0.1757 -0.7369  0.0486
  919MOL0     C23955   6.770   5.451   1.018  0.8573 -0.3784  0.4877
  919MOL0     C23956   6.869   5.373   0.959 -1.1239 -0.7076  0.0057
  919MOL0     C23957   6.953   5.288   1.038  0.3478  0.3771  0.4856
  919MOL0     C23958   7.068   5.217   0.974 -0.2100  0.5793 -0.5944
  919MOL0     C23959   6.919   5.275   1.176 -0.2389 -0.4345  0.0218
  919MOL0     C23960   6.997   5.193   1.275 -0.5882  0.3597  0.2014
  919MOL0     O23961   6.933   5.190   1.401 -0.5804  0.4558  0.4098
  919MOL0     C23962   7.002   5.111   1.489  0.4887  0.1891  0.6824
  919MOL0     C23963   7.004   4.974   1.482  1.0766  0.8898 -0.4621
  919MOL0     C23964   7.078   4.896   1.578  0.0518 -0.1895 -0.1097
  919MOL0     C23965   7.151   4.962   1.676 -0.3995  0.1192 -0.3135
  919MOL0     O23966   7.228   4.892   1.759  0.4147 -0.2193  0.4390
  919MOL0     C23967   7.374   4.907   1.748  0.4498  0.2370 -0.3366
  919MOL0     C23968   7.421   4.885   1.898 -0.1211  0.2789  0.0767
  919MOL0     C23969   7.391   4.736   1.933  0.2472 -0.8960  0.1212
  919MOL0     C23970   7.441   4.719   2.075 -1.3131  0.3664 -0.9369
  919MOL0     C23971   7.420   4.585   2.129 -0.4618  0.6505 -0.1363
  919MOL0     C23972   7.430   4.578   2.274 -0.5058 -0.4692 -0.1187
  919MOL0     C23973   7.417   4.443   2.338  0.0781  0.4797 -0.4446
  919MOL0     C23974   7.442   4.442   2.489 -0.0843  0.6345  0.6494
  919MOL0    Cl23975   7.624   4.466   2.519  0.3074  0.0193 -0.2006
  919MOL0     C23976   7.145   5.098   1.677  0.0447  0.2909  1.0694
  919MOL0     C23977   7.077   5.170   1.583  0.2698  0.0674 -0.7137
  919MOL0     O23978   7.096   5.128   1.243  0.0686  0.0955  0.7230
  919MOL0     C23979   6.813   5.347   1.229  0.5042  0.0380  0.3332
  919MOL0     C23980   6.741   5.429   1.151  0.6606  0.7189 -0.6114
  919MOL0     N23981   6.724   6.079   0.581 -1.0522 -0.1022  0.1824
  919MOL0     N23982   6.789   6.179   0.636  0.0113  0.2129  0.1832
  919MOL0     C23983   7.865   6.471   0.205 -0.6732 -0.5553  0.2509
  919MOL0     C23984   7.997   6.474   0.146 -0.5570  0.1065 -0.1820
  919MOL0     C23985   8.443   6.516   0.190  0.0638  0.1720  0.0375
  919MOL0     C23986   8.484   6.600   0.088  0.1011  0.1269 -0.1104
  919MOL0     C23987   8.621   6.608   0.065 -0.6892  0.1424 -0.3358
  919MOL0     C23988   8.716   6.533   0.145 -0.0362 -0.3248  0.7325
  919MOL0     O23989   8.855   6.539   0.134 -0.2661 -0.1327  0.4753
  919MOL0     C23990   8.910   6.609   0.025  0.4091 -0.1961  0.7835
  919MOL0     C23991   9.055   6.610   0.037 -0.5660  0.1295 -0.0145
  919MOL0     C23992   9.113   6.671  -0.092  0.1463  0.0699  0.5707
  919MOL0     C23993   9.249   6.618  -0.127  0.8486  0.1449 -1.0149
  919MOL0     C23994   9.246   6.476  -0.158  0.0789 -0.6491  0.5336
  919MOL0     C23995   9.240   6.362  -0.203  0.1825 -0.4301 -0.0464
  919MOL0     C23996   8.666   6.441   0.239  0.0816  0.4269 -0.8041
  919MOL0     C23997   8.531   6.440   0.266 -0.2517  1.2077  0.9404
  919MOL0     H23998   8.092   6.778   0.262 -0.3179  0.5573  2.3766
  919MOL0     H23999   7.855   6.769   0.349  3.1471  1.0825  0.9170
  919MOL0     H24000   7.569   6.567   0.187  2.4374  3.2687  1.6287
  919MOL0     H24001   7.594   6.410   0.274  3.6408  0.3548  0.2793
  919MOL0     H24002   7.405   6.648   0.359 -1.2535 -0.6719  4.2200
  919MOL0     H24003   7.363   6.478   0.300  1.3909 -1.5202  0.0476
  919MOL0     H24004   7.465   6.376   0.479  0.3276 -0.8797 -0.7158
  919MOL0     H24005   7.525   6.534   0.552 -0.8333 -2.5642  1.6316
  919MOL0     H24006   7.313   6.559   0.654  0.4155  0.7354  0.7278
  919MOL0     H24007   7.241   6.519   0.504 -0.9163 -0.7821  1.0711
  919MOL0     H24008   7.295   6.266   0.573 -1.0951  0.9381 -0.7400
  919MOL0     H24009   7.346   6.322   0.727 -2.9008  0.2949  1.8661
  919MOL0     H24010   7.116   6.437   0.745  0.5176  1.4452 -0.7312
  919MOL0     H24011   7.081   6.341   0.596  1.3968 -1.1195 -0.9653
  919MOL0     H24012   7.146   6.122   0.728  0.3615  0.0494 -0.0612
  919MOL0     H24013   7.174   6.236   0.865  0.0438  1.4288 -0.8174
  919MOL0     H24014   6.916   6.307   0.815 -1.2777  0.1692  2.1642
  919MOL0     H24015   6.955   6.154   0.913  2.2201 -0.9135 -0.1761
  919MOL0     H24016   6.908   5.913   0.790  0.2409 -0.8429 -0.2214
  919MOL0     H24017   6.698   5.829   0.491  0.2929 -2.9760 -0.6516
  919MOL0     H24018   6.825   5.769   0.613  1.1356  2.3273 -2.8182
  919MOL0     H24019   6.569   5.688   0.618  1.0416 -0.7679  0.4420
  919MOL0     H24020   6.539   5.850   0.674 -0.3646 -0.2836 -1.1992
  919MOL0     H24021   6.537   5.678   0.844  0.1669 -1.5178 -0.9731
  919MOL0     H24022   6.652   5.808   0.881 -1.4311  0.5087  0.1197
  919MOL0     H24023   6.835   5.643   0.819  0.2564 -1.5522 -0.1281
  919MOL0     H24024   6.718   5.534   0.752  2.0507 -0.3068 -0.7558
  919MOL0     H24025   6.890   5.386   0.854 -1.8301 -2.2947 -0.3673
  919MOL0     H24026   7.163   5.256   1.011  0.1155 -1.0679  0.3900
  919MOL0     H24027   7.069   5.110   0.997  2.2802  1.1484  2.6774
  919MOL0     H24028   7.077   5.237   0.866  2.8254 -1.7990 -0.9174
  919MOL0     H24029   6.947   4.924   1.404 -1.9377  1.6234  1.0806
  919MOL0     H24030   7.083   4.789   1.563  3.6213  0.1961 -3.3007
  919MOL0     H24031   7.409   4.827   1.682 -2.2743  0.0051 -1.6167
  919MOL0     H24032   7.396   5.005   1.706 -0.4855  0.1102 -1.1494
  919MOL0     H24033   7.526   4.907   1.921 -0.2945  0.4477  0.7109
  919MOL0     H24034   7.367   4.951   1.967 -0.3995 -0.4493  0.5736
  919MOL0     H24035   7.448   4.667   1.870  0.5158  0.2708 -0.9698
  919MOL0     H24036   7.282   4.723   1.934  0.1063 -0.2031 -1.9189
  919MOL0     H24037   7.549   4.736   2.068 -1.3756  0.8132 -0.8516
  919MOL0     H24038   7.392   4.795   2.136 -1.4887 -1.5608  1.4590
  919MOL0     H24039   7.494   4.515   2.088  1.2650  2.0802  0.4044
  919MOL0     H24040   7.326   4.540   2.098  0.1355 -0.0798 -0.9361
  919MOL0     H24041   7.519   4.630   2.310 -1.7925  1.2679  0.7481
  919MOL0     H24042   7.352   4.646   2.311  2.2783  1.4152  2.9047
  919MOL0     H24043   7.492   4.375   2.296 -0.0872  1.0045 -1.6318
  919MOL0     H24044   7.320   4.397   2.316 -0.6734  1.6979  0.2387
  919MOL0     H24045   7.417   4.342   2.525  0.3518 -0.8935 -2.8428
  919MOL0     H24046   7.378   4.511   2.546  1.9086  2.6709  0.5656
  919MOL0     H24047   7.207   5.151   1.748  0.2543 -1.0449  1.9277
  919MOL0     H24048   7.083   5.278   1.588 -2.5490  0.2599 -0.1439
  919MOL0     H24049   6.795   5.350   1.336  1.7469 -0.3495  0.5751
  919MOL0     H24050   6.656   5.480   1.196  2.1010  2.2667  0.4860
  919MOL0     H24051   7.813   6.377   0.187  1.7414 -2.0720  0.6496
  919MOL0     H24052   8.036   6.387   0.094 -0.7168 -1.0384  1.5580
  919MOL0     H24053   8.418   6.664   0.031  1.0798  1.0555 -0.2477
  919MOL0     H24054   8.647   6.683  -0.009  0.3782  0.9903  0.8639
  919MOL0     H24055   8.872   6.556  -0.063 -0.0994  0.1846  0.7675
  919MOL0     H24056   8.873   6.712   0.019  1.3694  0.1499  0.5358
  919MOL0     H24057   9.083   6.504   0.038 -3.9136 -0.9239 -1.7473
  919MOL0     H24058   9.092   6.651   0.131  2.9966  0.5985 -1.4588
  919MOL0     H24059   9.115   6.780  -0.079 -0.1756  0.1945 -0.3958
  919MOL0     H24060   9.045   6.655  -0.176  1.3112 -0.3296 -0.3168
  919MOL0     H24061   9.322   6.621  -0.046  0.6375 -2.0844 -0.6904
  919MOL0     H24062   9.285   6.670  -0.216 -2.2946 -1.8228 -3.6872
  919MOL0     H24063   9.246   6.273  -0.261 -3.3122 -1.2887  0.7262
  919MOL0     H24064   8.738   6.387   0.299  1.4598  1.5004 -1.4536
  919MOL0     H24065   8.499   6.377   0.349 -2.4410  2.9974  1.5416
  920MOL0     O24066   2.411   8.906   9.486 -0.1397  0.4310 -0.1658
  920MOL0     C24067   2.458   8.995   9.558 -0.7975  0.4460 -0.1691
  920MOL0     O24068   2.387   9.079   9.637  0.6618 -0.2582 -0.3446
  920MOL0     C24069   2.248   9.091   9.622  0.4708  0.0381  0.2528
  920MOL0     C24070   2.143   9.002   9.666  0.3392  0.3055  0.6868
  920MOL0     C24071   2.007   9.029   9.654  0.2966 -0.0104  0.0381
  920MOL0     C24072   1.968   9.135   9.585  0.0001 -0.4819 -0.2903
  920MOL0     O24073   1.841   9.158   9.559  0.2038 -0.2392 -0.1580
  920MOL0     C24074   1.741   9.059   9.580  0.0701  0.1686  0.0568
  920MOL0     C24075   1.611   9.086   9.498 -0.1185 -0.1759  0.0831
  920MOL0     C24076   1.541   9.221   9.553  0.4093 -0.4330  0.1385
  920MOL0     C24077   1.401   9.234   9.489  0.0938 -0.2103 -0.2943
  920MOL0     C24078   1.293   9.161   9.572  0.5187  0.1209 -0.7623
  920MOL0     C24079   1.158   9.142   9.493 -1.0455  0.6828 -0.8593
  920MOL0     C24080   1.064   9.035   9.548 -0.2021  0.0279 -0.7692
  920MOL0     C24081   1.039   9.037   9.699  0.1434  0.2223 -0.1675
  920MOL0     N24082   0.904   8.997   9.751  1.0551  0.4547  0.6848
  920MOL0     C24083   0.799   9.086   9.738 -0.0862  0.0238 -0.1101
  920MOL0     C24084   0.697   9.031   9.805  0.1755 -0.1665 -0.3897
  920MOL0     C24085   0.577   9.104   9.838  0.4041 -1.1284 -0.2998
  920MOL0     C24086   0.445   9.024   9.827  0.0173 -0.3143  0.5913
  920MOL0     C24087   0.321   9.116   9.838 -0.0995  0.0403  0.6941
  920MOL0     C24088   0.189   9.043   9.832  0.1552 -0.5097  0.0288
  920MOL0     O24089   0.081   9.134   9.852  0.5124 -0.5236  0.1161
  920MOL0     C24090  -0.047   9.113   9.799  0.0925 -0.0295  0.6139
  920MOL0     C24091  -0.152   9.200   9.830  0.4387  0.5420 -0.3976
  920MOL0     C24092  -0.281   9.195   9.784  0.3518 -0.2439  0.1444
  920MOL0     C24093  -0.377   9.288   9.845 -0.1021  0.1585  0.5508
  920MOL0     C24094  -0.322   9.087   9.698 -0.1370  1.3597 -0.1291
  920MOL0     C24095  -0.452   9.070   9.625  0.0522 -0.1712 -0.3004
  920MOL0     O24096  -0.456   9.003   9.507  0.6637 -0.0213  0.2607
  920MOL0     C24097  -0.555   9.039   9.418  0.1474 -0.7329 -0.0906
  920MOL0     C24098  -0.589   8.949   9.319  0.4116 -0.4305  0.0905
  920MOL0     C24099  -0.672   8.981   9.210  0.2855  0.4891 -0.0364
  920MOL0     C24100  -0.724   9.104   9.200  0.1291 -0.8751 -1.0608
  920MOL0     O24101  -0.802   9.146   9.096  0.4570 -0.3673 -0.1970
  920MOL0     C24102  -0.942   9.148   9.121 -0.6965  0.6707  0.2108
  920MOL0     C24103  -1.025   9.105   8.998  1.3221 -0.4582 -0.3246
  920MOL0     C24104  -1.165   9.122   9.030 -0.0333  0.7852  0.0982
  920MOL0     C24105  -1.253   9.094   8.908 -0.1929 -0.2896  0.6654
  920MOL0     C24106  -1.406   9.122   8.929 -0.8403  0.4836  0.1978
  920MOL0     C24107  -1.491   9.114   8.799  0.6064 -0.2321  0.0711
  920MOL0     C24108  -1.641   9.079   8.829  0.3101  0.3673  0.3995
  920MOL0     C24109  -1.701   9.033   8.699  0.2832 -0.4988  0.1478
  920MOL0    Cl24110  -1.876   9.030   8.731  0.1834 -0.1768  0.1112
  920MOL0     C24111  -0.704   9.199   9.305 -0.9099 -0.2447 -0.1196
  920MOL0     C24112  -0.626   9.161   9.413 -0.5585 -0.0069  0.6281
  920MOL0     O24113  -0.548   9.124   9.686 -0.8279 -0.3082  0.6133
  920MOL0     C24114  -0.208   9.005   9.652 -1.1900  0.3524 -0.7055
  920MOL0     C24115  -0.079   9.008   9.711 -0.2857  0.1935 -0.4940
  920MOL0     N24116   0.739   8.908   9.856  0.4531  0.1250 -0.0064
  920MOL0     N24117   0.868   8.895   9.831 -0.3380 -0.3427 -0.2706
  920MOL0     C24118   2.065   9.234   9.539  0.1130  0.2723  0.3547
  920MOL0     C24119   2.203   9.208   9.562 -0.5582  0.0689 -0.1456
  920MOL0     C24120   2.603   8.989   9.567  0.6368  0.3932 -0.3028
  920MOL0     C24121   2.679   8.879   9.514  0.6537  0.2411 -0.0683
  920MOL0     C24122   2.816   8.880   9.528  1.0057 -0.4946 -0.2971
  920MOL0     C24123   2.881   8.968   9.615 -0.3582  0.0863 -0.1429
  920MOL0     O24124   3.018   8.959   9.644  0.0881  0.0237 -0.1498
  920MOL0     C24125   3.092   9.069   9.605  0.3779  0.0577  0.7398
  920MOL0     C24126   3.240   9.038   9.615  0.5054 -0.1794  0.6476
  920MOL0     C24127   3.286   8.949   9.484  0.0928 -0.8078  0.0569
  920MOL0     C24128   3.418   8.884   9.504 -0.3982 -0.2735  1.0174
  920MOL0     C24129   3.513   8.894   9.394  0.1924  0.5757  0.7216
  920MOL0     C24130   3.599   8.897   9.305  0.4021 -0.2983  0.2793
  920MOL0     C24131   2.803   9.071   9.676 -0.3684  0.7447  0.8449
  920MOL0     C24132   2.669   9.079   9.646  0.3144  0.2172 -0.4539
  920MOL0     H24133   2.172   8.922   9.734 -0.2700  0.7622  1.4960
  920MOL0     H24134   1.936   8.960   9.697  0.2433 -0.1218 -0.2307
  920MOL0     H24135   1.777   8.962   9.545  2.3641  1.2193 -0.7844
  920MOL0     H24136   1.714   9.027   9.681  0.7766 -1.9687 -0.3974
  920MOL0     H24137   1.636   9.098   9.392 -0.4203 -2.0138 -0.2297
  920MOL0     H24138   1.543   9.003   9.518  1.1261 -0.8302  1.8175
  920MOL0     H24139   1.534   9.219   9.662  1.0983  0.2289  0.2032
  920MOL0     H24140   1.598   9.310   9.524  0.0891 -0.1029  0.5198
  920MOL0     H24141   1.380   9.341   9.477  3.1200  0.1834 -4.9028
  920MOL0     H24142   1.407   9.185   9.391  0.7602  0.5732 -0.6607
  920MOL0     H24143   1.332   9.061   9.593  0.2983  0.1932  0.0013
  920MOL0     H24144   1.269   9.196   9.672  1.7525  0.2975 -0.5258
  920MOL0     H24145   1.115   9.243   9.488  1.0059  1.6232 -0.3162
  920MOL0     H24146   1.189   9.121   9.390  0.0656 -0.1909 -0.3533
  920MOL0     H24147   0.972   9.035   9.488 -0.2640 -1.4309 -0.7227
  920MOL0     H24148   1.100   8.933   9.532 -1.4688 -0.7959  1.2148
  920MOL0     H24149   1.074   9.134   9.734  1.9172  0.1761 -1.6436
  920MOL0     H24150   1.099   8.962   9.750 -0.8351  0.9200  2.1529
  920MOL0     H24151   0.779   9.185   9.699 -3.2868  0.7488  2.8940
  920MOL0     H24152   0.587   9.157   9.933  0.9004 -1.0641 -0.3812
  920MOL0     H24153   0.560   9.181   9.762  0.0398  0.2190  1.1037
  920MOL0     H24154   0.434   8.947   9.904 -3.6310 -1.3825 -0.7761
  920MOL0     H24155   0.432   8.975   9.730  0.8847  2.2551 -0.9132
  920MOL0     H24156   0.324   9.188   9.756  0.7609 -2.1908 -1.3462
  920MOL0     H24157   0.321   9.165   9.936 -0.5869 -0.3228  0.8828
  920MOL0     H24158   0.184   8.958   9.901 -0.7327 -0.1762  0.3829
  920MOL0     H24159   0.189   9.004   9.729  3.6928  0.2686 -0.4130
  920MOL0     H24160  -0.122   9.278   9.900  0.9340 -1.5695  1.8598
  920MOL0     H24161  -0.426   9.347   9.767  0.5354 -0.3248 -0.2310
  920MOL0     H24162  -0.457   9.231   9.892 -0.2645  0.0768  0.1783
  920MOL0     H24163  -0.330   9.354   9.917  0.9251  1.8560 -1.5470
  920MOL0     H24164  -0.554   8.848   9.333 -1.1747 -0.8640  1.1894
  920MOL0     H24165  -0.689   8.911   9.129 -0.1923 -1.6607  1.8341
  920MOL0     H24166  -0.969   9.086   9.207  0.0364  1.0404  0.7176
  920MOL0     H24167  -0.964   9.253   9.138 -2.2140  0.4606 -0.2990
  920MOL0     H24168  -1.003   9.165   8.910  2.4121 -1.4694 -0.7644
  920MOL0     H24169  -1.010   8.999   8.975  2.7395 -0.7901  1.8393
  920MOL0     H24170  -1.171   9.228   9.056  0.3130  0.9281 -0.3750
  920MOL0     H24171  -1.200   9.047   9.101 -0.2750  0.6082 -0.2083
  920MOL0     H24172  -1.216   9.151   8.821  1.4158 -2.0756  0.1131
  920MOL0     H24173  -1.252   8.987   8.888 -3.1341 -0.1722 -0.7432
  920MOL0     H24174  -1.419   9.222   8.972 -0.4330  0.7086 -0.1954
  920MOL0     H24175  -1.446   9.055   9.006  0.5703 -0.4728  0.1326
  920MOL0     H24176  -1.484   9.198   8.730  1.0482 -0.5273 -0.2521
  920MOL0     H24177  -1.448   9.023   8.756  1.1419 -0.9592  2.0391
  920MOL0     H24178  -1.698   9.163   8.870  1.8815  1.2213  0.9138
  920MOL0     H24179  -1.657   8.991   8.893 -1.5028  0.6132  0.3272
  920MOL0     H24180  -1.662   8.937   8.667  1.0211  0.0947 -0.8029
  920MOL0     H24181  -1.674   9.106   8.622 -2.0802  0.3499  0.0274
  920MOL0     H24182  -0.748   9.298   9.304  0.0826  0.3094  2.6707
  920MOL0     H24183  -0.600   9.240   9.482 -0.5003  2.0993 -1.6806
  920MOL0     H24184  -0.229   8.922   9.585 -1.4231 -0.8358  0.7761
  920MOL0     H24185  -0.014   8.936   9.664  0.2526  1.0592 -1.1108
  920MOL0     H24186   2.048   9.325   9.483  1.9757  0.6332  0.3121
  920MOL0     H24187   2.273   9.282   9.523  0.7960 -1.6192 -1.0446
  920MOL0     H24188   2.631   8.795   9.463  3.6616 -1.1522 -0.8186
  920MOL0     H24189   2.879   8.807   9.479  1.7059  0.3454 -0.6674
  920MOL0     H24190   3.080   9.106   9.502 -0.0445  0.9252  1.0925
  920MOL0     H24191   3.074   9.154   9.671 -2.7365  1.2210 -1.3229
  920MOL0     H24192   3.262   8.975   9.701 -0.9287 -1.2696  0.2605
  920MOL0     H24193   3.294   9.130   9.594 -0.4603 -0.2199 -2.5242
  920MOL0     H24194   3.286   9.005   9.390 -2.3337  1.0855  1.0866
  920MOL0     H24195   3.225   8.858   9.478 -0.3486 -0.5063 -0.0525
  920MOL0     H24196   3.400   8.779   9.527 -1.1143 -0.4387 -0.1905
  920MOL0     H24197   3.467   8.920   9.595  0.3174 -0.6713  0.7952
  920MOL0     H24198   3.673   8.902   9.228  1.7322  2.2577  1.5836
  920MOL0     H24199   2.844   9.150   9.737  0.3733 -1.0155  2.7416
  920MOL0     H24200   2.626   9.164   9.699 -0.2683 -1.4798  1.9870
  921MOL0     O24201   3.921   7.026   0.795  0.2260  0.5377  0.7814
  921MOL0     C24202   4.022   7.049   0.729  0.1279  0.3960 -0.3723
  921MOL0     O24203   4.018   7.118   0.614 -0.2115 -1.1214 -0.3397
  921MOL0     C24204   3.899   7.171   0.573 -0.3443  0.3904  0.3618
  921MOL0     C24205   3.854   7.290   0.641 -0.2615 -0.7341  0.6246
  921MOL0     C24206   3.731   7.341   0.600 -0.4043 -0.7759 -1.0132
  921MOL0     C24207   3.641   7.277   0.513  0.0378  0.0543  0.0258
  921MOL0     O24208   3.524   7.339   0.489 -0.3115 -0.2228 -0.4411
  921MOL0     C24209   3.413   7.286   0.414  0.6810 -0.0062  0.4176
  921MOL0     C24210   3.299   7.378   0.429  0.4530  0.3567  1.0003
  921MOL0     C24211   3.176   7.343   0.342  0.6874  0.1854 -0.2083
  921MOL0     C24212   3.042   7.406   0.389  0.3608 -0.4093  0.8655
  921MOL0     C24213   3.001   7.379   0.532 -0.5866 -1.0781  0.8320
  921MOL0     C24214   2.981   7.235   0.570 -0.0655 -0.2463 -0.0717
  921MOL0     C24215   2.904   7.221   0.702 -0.5703  0.6695  0.8088
  921MOL0     C24216   2.917   7.087   0.779 -0.4900 -0.4362 -0.3205
  921MOL0     N24217   3.062   7.048   0.781 -0.1848  0.5608 -0.5403
  921MOL0     C24218   3.160   7.130   0.836  0.0741  0.1878 -0.3855
  921MOL0     C24219   3.278   7.093   0.774  0.7566  0.0972 -0.4197
  921MOL0     C24220   3.412   7.156   0.778 -1.0878 -0.3192 -0.7980
  921MOL0     C24221   3.461   7.151   0.926  0.7964  0.9689  1.0045
  921MOL0     C24222   3.600   7.209   0.930 -1.1108 -0.4765  0.0359
  921MOL0     C24223   3.610   7.358   0.973  0.4431  0.0578  1.0605
  921MOL0     O24224   3.563   7.458   0.873 -0.7419 -0.1884  0.0500
  921MOL0     C24225   3.433   7.500   0.854 -0.2817  0.5281  0.2921
  921MOL0     C24226   3.333   7.491   0.950 -0.1700 -0.6296  0.0805
  921MOL0     C24227   3.203   7.539   0.921  0.0705 -0.5206 -0.1524
  921MOL0     C24228   3.093   7.529   1.032  0.1763  0.0312  0.0703
  921MOL0     C24229   3.170   7.601   0.792  0.4584  0.5958  0.0904
  921MOL0     C24230   3.034   7.656   0.750 -0.5790  0.4478 -0.0535
  921MOL0     O24231   2.919   7.599   0.795  0.0792 -0.3606 -0.3894
  921MOL0     C24232   2.802   7.665   0.774 -0.3358 -0.3309  0.1116
  921MOL0     C24233   2.723   7.618   0.670  0.5563 -0.3689 -0.2798
  921MOL0     C24234   2.595   7.680   0.646  0.2672  0.0978 -1.0437
  921MOL0     C24235   2.551   7.793   0.712 -0.0443 -0.2480 -0.0510
  921MOL0     O24236   2.437   7.845   0.674  0.1413  0.0625 -0.2445
  921MOL0     C24237   2.410   7.981   0.683  0.3741  0.1181  0.5174
  921MOL0     C24238   2.264   8.021   0.660 -0.1116 -0.6714  0.2057
  921MOL0     C24239   2.218   7.977   0.517  0.1746 -0.4703  0.7801
  921MOL0     C24240   2.077   8.035   0.478  0.0645 -0.9554 -1.1848
  921MOL0     C24241   2.026   8.040   0.332  0.2380  0.1187  0.4966
  921MOL0     C24242   1.896   7.955   0.310 -1.0978  0.2305  0.2493
  921MOL0     C24243   1.764   8.017   0.369  0.1313 -0.9662  0.1490
  921MOL0     C24244   1.633   7.956   0.307  0.1216 -0.1215 -0.0133
  921MOL0    Cl24245   1.498   7.977   0.406  0.4056  0.1725  0.4591
  921MOL0     C24246   2.646   7.840   0.809  0.0381  1.1214  1.0078
  921MOL0     C24247   2.761   7.775   0.846  0.0876  0.2404  0.5967
  921MOL0     O24248   3.039   7.754   0.677  0.1231 -0.7615  0.1433
  921MOL0     C24249   3.277   7.606   0.705  0.8000 -0.3278 -0.4345
  921MOL0     C24250   3.404   7.556   0.731  0.3357 -0.1726  0.0680
  921MOL0     N24251   3.250   6.982   0.694  0.1323 -0.1125  0.2050
  921MOL0     N24252   3.121   6.944   0.702  0.3202  0.2394  0.1344
  921MOL0     C24253   3.694   7.162   0.456 -0.1560  0.8134  0.0710
  921MOL0     C24254   3.818   7.100   0.489  0.8582  0.1797  0.2268
  921MOL0     C24255   4.152   7.004   0.782 -0.2094  0.2560 -0.6456
  921MOL0     C24256   4.272   7.075   0.746  0.8717 -0.3194 -0.5634
  921MOL0     C24257   4.387   7.013   0.769  0.3833  0.0369 -0.4244
  921MOL0     C24258   4.402   6.907   0.847 -0.3713 -0.0030 -0.2775
  921MOL0     O24259   4.533   6.853   0.864 -0.2818 -0.0556  0.1135
  921MOL0     C24260   4.605   6.887   0.980 -0.5721 -0.3580 -0.5961
  921MOL0     C24261   4.713   6.786   1.020  0.3610 -0.0972 -0.0468
  921MOL0     C24262   4.743   6.810   1.170 -0.4152  0.8781  0.8580
  921MOL0     C24263   4.862   6.720   1.209 -0.0129 -0.4957  0.2598
  921MOL0     C24264   4.936   6.755   1.330 -0.6183  0.9477  0.1861
  921MOL0     C24265   5.004   6.751   1.426 -0.5474 -0.2115  0.9575
  921MOL0     C24266   4.294   6.830   0.882  0.1904 -0.1451  0.5337
  921MOL0     C24267   4.171   6.883   0.848 -0.7163  0.4370 -0.0013
  921MOL0     H24268   3.914   7.334   0.719 -1.5507  0.5479  0.9383
  921MOL0     H24269   3.707   7.433   0.652  0.0453 -0.3833 -1.4926
  921MOL0     H24270   3.438   7.287   0.307  2.9989  0.5813  0.9093
  921MOL0     H24271   3.381   7.185   0.439 -3.6680  1.0256 -0.1914
  921MOL0     H24272   3.278   7.369   0.536  3.2305 -2.5519  1.4461
  921MOL0     H24273   3.344   7.472   0.394  3.4350 -0.7752  1.5401
  921MOL0     H24274   3.201   7.383   0.243 -0.1676 -0.4663 -0.7032
  921MOL0     H24275   3.151   7.236   0.341 -1.3921  0.6203  0.1702
  921MOL0     H24276   3.048   7.512   0.365  1.1833 -1.0436 -2.1959
  921MOL0     H24277   2.957   7.369   0.330 -1.1611 -0.0721  2.7212
  921MOL0     H24278   3.084   7.425   0.586  3.1759 -2.3299 -3.2336
  921MOL0     H24279   2.905   7.429   0.546  0.6243  1.0243  2.2515
  921MOL0     H24280   2.933   7.176   0.491 -1.2900  1.1175 -0.3793
  921MOL0     H24281   3.085   7.201   0.569  0.0345  0.0466 -0.7999
  921MOL0     H24282   2.950   7.286   0.778  0.9006  1.4594 -0.7012
  921MOL0     H24283   2.801   7.252   0.682 -0.3752 -0.2756 -2.1742
  921MOL0     H24284   2.855   7.011   0.730  1.5018 -1.0179 -2.1412
  921MOL0     H24285   2.878   7.086   0.881 -1.2237  0.6309 -0.5751
  921MOL0     H24286   3.161   7.219   0.898  0.6033  0.4523 -0.7653
  921MOL0     H24287   3.479   7.101   0.711 -1.0084  0.4956 -1.3928
  921MOL0     H24288   3.426   7.258   0.742  2.9447  0.2207  1.5988
  921MOL0     H24289   3.451   7.049   0.964  1.4205 -1.7196 -4.8994
  921MOL0     H24290   3.408   7.223   0.990  1.3764  1.4372  0.9614
  921MOL0     H24291   3.653   7.197   0.835 -1.4222 -2.1401  0.0500
  921MOL0     H24292   3.660   7.149   0.999  0.5865 -0.1788 -1.1257
  921MOL0     H24293   3.716   7.375   0.997  0.6662  0.9034 -0.4086
  921MOL0     H24294   3.555   7.375   1.066 -1.4535  0.8233 -0.1525
  921MOL0     H24295   3.355   7.454   1.050  2.2812 -1.0083 -0.5301
  921MOL0     H24296   3.057   7.630   1.053  0.3746  0.0306  0.4256
  921MOL0     H24297   3.007   7.473   0.994  0.3044 -0.8286  0.9906
  921MOL0     H24298   3.131   7.483   1.124 -0.9121  0.3661  0.7087
  921MOL0     H24299   2.753   7.538   0.603 -1.2057 -0.4393 -1.0317
  921MOL0     H24300   2.539   7.626   0.570 -1.6118 -1.8085  1.5456
  921MOL0     H24301   2.433   8.016   0.784  1.0836  3.0725 -0.5799
  921MOL0     H24302   2.482   8.031   0.618  0.4404 -0.6194  0.0087
  921MOL0     H24303   2.192   7.985   0.735 -1.4133  0.7228 -0.3079
  921MOL0     H24304   2.251   8.130   0.670  0.4765 -0.6662  0.9829
  921MOL0     H24305   2.216   7.868   0.505 -3.2647 -0.3751 -0.2836
  921MOL0     H24306   2.281   8.021   0.439  0.0161 -1.1841  0.2378
  921MOL0     H24307   2.010   7.977   0.543 -2.6432  1.4507 -1.6122
  921MOL0     H24308   2.077   8.140   0.508  1.3639 -0.2074 -3.5454
  921MOL0     H24309   2.103   7.999   0.267 -0.7705 -0.7703 -0.1707
  921MOL0     H24310   2.004   8.142   0.300  1.2571 -0.1661 -1.2532
  921MOL0     H24311   1.886   7.945   0.201  0.8095  0.0549  0.0573
  921MOL0     H24312   1.917   7.856   0.351 -0.2870 -0.4073 -1.5978
  921MOL0     H24313   1.768   8.125   0.353  0.3582 -1.4592 -4.4592
  921MOL0     H24314   1.764   7.996   0.476  0.6718  1.9151  0.7979
  921MOL0     H24315   1.647   7.852   0.278  1.1840 -0.8670  2.8356
  921MOL0     H24316   1.615   8.010   0.213 -1.7430 -0.0190  0.3695
  921MOL0     H24317   2.629   7.932   0.865 -2.3010  3.3365 -2.9419
  921MOL0     H24318   2.825   7.806   0.928  1.5378 -1.2927  0.0997
  921MOL0     H24319   3.263   7.645   0.604 -1.2628  0.9445  0.2927
  921MOL0     H24320   3.481   7.568   0.656  1.3471 -0.2284  1.0656
  921MOL0     H24321   3.627   7.120   0.381  0.7852 -0.9104  0.1342
  921MOL0     H24322   3.835   6.995   0.471 -1.8279 -0.4938  1.1936
  921MOL0     H24323   4.254   7.162   0.683  0.8431  0.3350  0.3396
  921MOL0     H24324   4.471   7.074   0.735 -2.2331  2.3942 -3.2369
  921MOL0     H24325   4.653   6.986   0.980 -0.3261 -0.4745 -1.1493
  921MOL0     H24326   4.533   6.894   1.062 -0.5122 -0.1762 -0.5569
  921MOL0     H24327   4.796   6.798   0.950  0.4490 -2.0090 -0.3420
  921MOL0     H24328   4.677   6.683   1.009  0.1711  0.1753 -2.6360
  921MOL0     H24329   4.650   6.788   1.222 -1.9534 -0.1118 -2.0919
  921MOL0     H24330   4.775   6.915   1.175  5.1289 -0.3425 -1.5371
  921MOL0     H24331   4.930   6.713   1.123  0.8944 -3.1969  1.0913
  921MOL0     H24332   4.819   6.620   1.214 -0.8237 -0.1689  0.0574
  921MOL0     H24333   5.067   6.753   1.512  0.1567  0.5902  0.4392
  921MOL0     H24334   4.296   6.738   0.940 -1.9840 -0.8162 -0.3268
  921MOL0     H24335   4.085   6.818   0.863  0.6180 -1.7305 -1.2519
  922MOL0     O24336   3.768   4.951   4.264  0.1636  0.6575 -0.8007
  922MOL0     C24337   3.691   5.046   4.265  0.3657  0.7454  0.2190
  922MOL0     O24338   3.552   5.041   4.232 -0.4524 -0.4076 -0.2877
  922MOL0     C24339   3.519   4.922   4.169  0.6505 -0.2889  0.6569
  922MOL0     C24340   3.385   4.874   4.181 -0.7581  0.3181 -0.4198
  922MOL0     C24341   3.337   4.774   4.093  0.3704  0.2546  0.0816
  922MOL0     C24342   3.405   4.728   3.979 -0.5963  0.5234 -0.3711
  922MOL0     O24343   3.338   4.658   3.887 -0.6108 -0.2617 -0.1912
  922MOL0     C24344   3.412   4.620   3.773  0.4590  0.1674  0.1453
  922MOL0     C24345   3.320   4.541   3.674 -0.7028 -1.1933 -0.3235
  922MOL0     C24346   3.218   4.637   3.622  0.8533  0.7892 -0.2364
  922MOL0     C24347   3.144   4.571   3.514  0.6800 -0.3777 -0.1240
  922MOL0     C24348   3.049   4.672   3.436  0.2728 -0.5478 -0.4051
  922MOL0     C24349   2.950   4.599   3.341  0.1467  0.7434  0.2582
  922MOL0     C24350   2.830   4.545   3.415  0.2038  0.5256 -1.0088
  922MOL0     C24351   2.703   4.533   3.330 -1.3098 -0.0533  0.5963
  922MOL0     N24352   2.707   4.421   3.246  0.0360  0.8240  0.7125
  922MOL0     C24353   2.641   4.298   3.254 -0.4631 -0.0221 -0.8010
  922MOL0     C24354   2.664   4.243   3.131  0.4665  0.1678  0.3869
  922MOL0     C24355   2.611   4.109   3.086  0.6082  1.1290  0.5579
  922MOL0     C24356   2.612   4.003   3.200  0.1855  0.0327 -0.6864
  922MOL0     C24357   2.601   3.867   3.149 -0.4661  0.3035  0.1336
  922MOL0     C24358   2.464   3.828   3.111 -0.6670 -0.5798 -0.5632
  922MOL0     O24359   2.412   3.772   3.231  0.1967  0.3782  0.5916
  922MOL0     C24360   2.301   3.690   3.227 -0.9852  0.6210 -0.0935
  922MOL0     C24361   2.214   3.679   3.117 -0.5354  0.1608  0.3270
  922MOL0     C24362   2.094   3.602   3.114 -1.8199 -0.3253 -0.3718
  922MOL0     C24363   2.012   3.617   2.988 -0.0111  1.0188 -0.4382
  922MOL0     C24364   2.049   3.539   3.232 -0.9421  0.3430  0.7015
  922MOL0     C24365   1.911   3.482   3.254 -1.0086  0.2978  0.1789
  922MOL0     O24366   1.830   3.465   3.141  0.2080 -1.0855  0.5946
  922MOL0     C24367   1.709   3.400   3.153 -0.1201 -0.0656  0.6857
  922MOL0     C24368   1.692   3.263   3.143  0.0926  0.5399 -0.5269
  922MOL0     C24369   1.565   3.199   3.145  0.7374  0.2256 -0.6525
  922MOL0     C24370   1.448   3.271   3.174  0.2585 -0.5442  0.1751
  922MOL0     O24371   1.324   3.206   3.184  0.8487 -0.2637  0.2004
  922MOL0     C24372   1.304   3.069   3.225 -1.0306  0.2143 -0.1092
  922MOL0     C24373   1.163   3.057   3.279  1.0641  0.2579  0.1208
  922MOL0     C24374   1.047   3.065   3.172  1.1095  0.2492  0.7799
  922MOL0     C24375   0.915   3.018   3.240 -0.6437 -0.3921  0.1789
  922MOL0     C24376   0.810   2.944   3.156 -0.2367 -0.3533  0.1306
  922MOL0     C24377   0.681   2.920   3.236  0.0047  0.0662 -0.0345
  922MOL0     C24378   0.697   2.816   3.354 -0.7810 -0.8171 -0.3967
  922MOL0     C24379   0.562   2.796   3.432  0.7428 -0.0094  0.8413
  922MOL0    Cl24380   0.570   2.674   3.564  0.2179 -0.0243  0.3778
  922MOL0     C24381   1.458   3.404   3.181 -0.3287 -0.4826 -0.1175
  922MOL0     C24382   1.586   3.469   3.166 -0.7404 -0.0554  0.0798
  922MOL0     O24383   1.879   3.451   3.364 -0.4298  0.4485 -0.5773
  922MOL0     C24384   2.135   3.542   3.343 -0.3202 -0.2283 -0.8261
  922MOL0     C24385   2.262   3.616   3.337 -0.0265 -0.3752 -0.4400
  922MOL0     N24386   2.735   4.330   3.046  0.5186  0.6198  0.1352
  922MOL0     N24387   2.754   4.432   3.115 -0.1448  0.2612 -0.0168
  922MOL0     C24388   3.539   4.764   3.973  0.2257  0.8438  0.2803
  922MOL0     C24389   3.587   4.868   4.057 -0.6469  0.5153  0.0166
  922MOL0     C24390   3.755   5.177   4.280 -0.9366  0.5389  0.4149
  922MOL0     C24391   3.701   5.292   4.229 -0.2022 -0.1545 -0.0119
  922MOL0     C24392   3.771   5.416   4.237 -1.0728 -0.0180 -0.4419
  922MOL0     C24393   3.901   5.423   4.270  0.5666  0.0429 -0.4920
  922MOL0     O24394   3.967   5.539   4.248  0.1141 -0.3358 -0.2296
  922MOL0     C24395   4.029   5.548   4.117  0.1803 -0.5407 -0.3376
  922MOL0     C24396   4.184   5.570   4.150  0.3894 -0.1255  0.8498
  922MOL0     C24397   4.249   5.614   4.020 -0.9138 -0.5446  0.3321
  922MOL0     C24398   4.402   5.599   4.010  0.9692  0.0457  0.4604
  922MOL0     C24399   4.458   5.690   4.109 -0.3981 -0.4727 -0.2842
  922MOL0     C24400   4.489   5.763   4.202  0.2972  0.1663 -0.8362
  922MOL0     C24401   3.964   5.306   4.316 -0.2342 -0.6637  1.3760
  922MOL0     C24402   3.889   5.187   4.329  0.3957  0.0742 -0.4003
  922MOL0     H24403   3.318   4.925   4.250 -0.8400  0.3528 -0.5247
  922MOL0     H24404   3.233   4.749   4.111  0.3693  1.0081  1.2829
  922MOL0     H24405   3.460   4.704   3.722  3.0638 -1.2190  0.1478
  922MOL0     H24406   3.489   4.547   3.798  1.4307  1.5114  1.2455
  922MOL0     H24407   3.387   4.496   3.600 -0.6883 -2.8021  0.6210
  922MOL0     H24408   3.269   4.459   3.726 -1.2878 -0.0534  0.9567
  922MOL0     H24409   3.153   4.665   3.705  2.3059 -0.4771  1.4166
  922MOL0     H24410   3.253   4.734   3.585 -0.7624  2.1290  1.5756
  922MOL0     H24411   3.220   4.537   3.443  0.5796  0.9715 -0.9129
  922MOL0     H24412   3.094   4.479   3.545  3.6059 -2.1120 -0.1937
  922MOL0     H24413   2.995   4.725   3.515  1.0365 -1.4733  0.7770
  922MOL0     H24414   3.109   4.748   3.386  0.4267  3.0104  4.4489
  922MOL0     H24415   2.909   4.666   3.265 -1.2254  1.3151  1.4389
  922MOL0     H24416   3.000   4.523   3.281 -0.2925  1.7401 -1.4397
  922MOL0     H24417   2.860   4.454   3.468  1.5472  0.4788 -1.8174
  922MOL0     H24418   2.805   4.607   3.502  3.7847  0.3921  0.2735
  922MOL0     H24419   2.708   4.618   3.262  4.1789 -0.5260 -0.0636
  922MOL0     H24420   2.617   4.537   3.398 -1.2011 -1.7952  0.8956
  922MOL0     H24421   2.574   4.265   3.332  1.0968  1.5418  1.3056
  922MOL0     H24422   2.509   4.126   3.050  0.0844 -1.1766  0.7519
  922MOL0     H24423   2.666   4.063   3.004 -2.3555 -0.8317 -0.4848
  922MOL0     H24424   2.526   4.017   3.266  0.8555  1.1641 -0.0295
  922MOL0     H24425   2.702   4.013   3.262 -1.1648  0.4941  1.3173
  922MOL0     H24426   2.634   3.791   3.221 -0.0542  1.9151  1.7465
  922MOL0     H24427   2.671   3.862   3.065  0.9661  1.2834  1.2024
  922MOL0     H24428   2.469   3.755   3.029  1.8266 -2.3362  1.0046
  922MOL0     H24429   2.417   3.920   3.077 -1.0924 -0.9163 -0.8982
  922MOL0     H24430   2.234   3.742   3.030  0.3269 -1.4293 -0.6786
  922MOL0     H24431   1.997   3.513   2.958 -1.3965  0.9867  0.3058
  922MOL0     H24432   1.914   3.663   3.006 -0.5803 -0.2452 -0.1872
  922MOL0     H24433   2.055   3.684   2.913  2.8586 -0.1430  0.0382
  922MOL0     H24434   1.771   3.190   3.131  0.9314  1.4398 -0.6164
  922MOL0     H24435   1.572   3.090   3.146  2.5589  0.1241 -4.5324
  922MOL0     H24436   1.320   2.999   3.142 -3.5236 -1.1555  0.4645
  922MOL0     H24437   1.368   3.046   3.311 -0.1084  0.5680 -0.6849
  922MOL0     H24438   1.160   2.961   3.332 -1.2478 -1.1179 -2.2878
  922MOL0     H24439   1.151   3.142   3.346  0.4048  1.8793 -1.9673
  922MOL0     H24440   1.061   2.998   3.087  0.1622  2.0008 -0.8377
  922MOL0     H24441   1.048   3.162   3.120 -1.5246 -1.7375 -3.5368
  922MOL0     H24442   0.933   2.954   3.327 -0.1656 -0.0246  0.3581
  922MOL0     H24443   0.884   3.113   3.285 -0.9544 -0.7202  0.6656
  922MOL0     H24444   0.849   2.844   3.135 -0.0053 -0.1616 -0.3704
  922MOL0     H24445   0.793   2.991   3.059  0.4962 -2.1848 -0.9282
  922MOL0     H24446   0.643   3.015   3.275 -0.6786  0.2819 -1.1660
  922MOL0     H24447   0.609   2.881   3.163  0.6502  1.4515 -1.4798
  922MOL0     H24448   0.769   2.853   3.428 -0.4510 -0.4918 -0.8765
  922MOL0     H24449   0.726   2.715   3.324  0.4476 -0.3343 -0.8956
  922MOL0     H24450   0.480   2.778   3.362  0.8683 -0.0295  0.6998
  922MOL0     H24451   0.534   2.892   3.478  0.7490  0.0912  0.6367
  922MOL0     H24452   1.366   3.458   3.205  0.8470  0.2074  3.5030
  922MOL0     H24453   1.600   3.576   3.176 -3.1327  0.2527  0.6408
  922MOL0     H24454   2.099   3.510   3.440 -0.5689 -0.6758 -1.0661
  922MOL0     H24455   2.320   3.618   3.430 -1.0739 -2.4520  0.3172
  922MOL0     H24456   3.612   4.743   3.896  0.4268  4.2609 -0.6400
  922MOL0     H24457   3.688   4.898   4.030 -0.4298  1.5950  1.8250
  922MOL0     H24458   3.600   5.284   4.188 -0.9902  2.0416  1.3079
  922MOL0     H24459   3.719   5.507   4.210  0.1854  0.8138 -0.0889
  922MOL0     H24460   4.013   5.461   4.053  0.1622 -1.2709  0.6362
  922MOL0     H24461   3.988   5.635   4.065  2.1041  1.3211  1.0772
  922MOL0     H24462   4.226   5.476   4.185  0.0591 -0.5062  0.2299
  922MOL0     H24463   4.187   5.658   4.215 -1.1627  0.2438  0.4864
  922MOL0     H24464   4.220   5.719   4.008  1.9725  0.3004 -0.0418
  922MOL0     H24465   4.202   5.556   3.941  0.7809  0.2933 -1.3859
  922MOL0     H24466   4.438   5.623   3.910  1.9995  1.6562  1.1793
  922MOL0     H24467   4.443   5.499   4.029  3.3527  0.2959 -2.6719
  922MOL0     H24468   4.530   5.830   4.275 -2.6647  0.8380  0.3579
  922MOL0     H24469   4.069   5.292   4.340 -0.0080  0.7187  1.2689
  922MOL0     H24470   3.951   5.104   4.364  0.8901  1.2077  1.5996
  923MOL0     O24471   5.460   7.729  11.012  0.2908  0.4267  0.1073
  923MOL0     C24472   5.470   7.628  11.071  0.7406  0.4033 -0.7395
  923MOL0     O24473   5.371   7.542  11.100 -0.3278  0.1338  0.3052
  923MOL0     C24474   5.251   7.557  11.035 -0.1703 -0.6678 -0.0988
  923MOL0     C24475   5.215   7.488  10.920  0.7131 -0.0845  0.6875
  923MOL0     C24476   5.100   7.521  10.853  0.1566  0.3112  0.5738
  923MOL0     C24477   5.016   7.623  10.897 -0.4718 -0.0572 -0.7587
  923MOL0     O24478   4.904   7.660  10.836 -0.0741 -0.3596  0.2502
  923MOL0     C24479   4.809   7.761  10.893 -0.7665  0.2139  0.2811
  923MOL0     C24480   4.673   7.742  10.818 -1.0765  0.0335  0.1829
  923MOL0     C24481   4.567   7.840  10.863  0.3442  0.0936  0.0006
  923MOL0     C24482   4.487   7.794  10.987 -0.2245 -0.2412 -0.0057
  923MOL0     C24483   4.401   7.914  11.040 -1.3822 -0.5196 -0.7625
  923MOL0     C24484   4.257   7.906  10.988 -0.4659 -0.0574  0.9975
  923MOL0     C24485   4.155   8.018  11.048  0.4045  1.2541  0.3107
  923MOL0     C24486   4.129   7.994  11.196  0.1908 -0.7261 -0.1055
  923MOL0     N24487   4.016   8.081  11.239 -0.3649 -0.0043 -0.5167
  923MOL0     C24488   4.034   8.214  11.270  0.6131 -0.6435 -0.2483
  923MOL0     C24489   3.914   8.266  11.294  0.5761 -0.7677 -0.7330
  923MOL0     C24490   3.891   8.407  11.328 -0.3758  0.7569 -0.4592
  923MOL0     C24491   3.743   8.442  11.369  0.5616  0.5665  0.4196
  923MOL0     C24492   3.734   8.510  11.502  0.1911  0.4551  0.1165
  923MOL0     C24493   3.587   8.544  11.547  0.1435 -0.4805  0.2107
  923MOL0     O24494   3.582   8.594  11.685  0.2775  0.1545 -0.0727
  923MOL0     C24495   3.466   8.663  11.718  0.4066  0.4490  0.8883
  923MOL0     C24496   3.343   8.601  11.746 -0.2334 -0.2163 -0.2301
  923MOL0     C24497   3.240   8.667  11.803  0.4112 -0.1177  0.2799
  923MOL0     C24498   3.108   8.586  11.821  0.0587 -0.5241 -0.4115
  923MOL0     C24499   3.249   8.803  11.842 -0.2884 -0.3866 -0.5306
  923MOL0     C24500   3.142   8.882  11.918 -0.4934  0.5903 -0.1677
  923MOL0     O24501   3.163   9.015  11.934 -0.1879  0.3835  0.2940
  923MOL0     C24502   3.084   9.078  12.024 -0.9136  0.4171 -0.3593
  923MOL0     C24503   2.986   9.167  11.994 -0.7725  0.1914  0.3481
  923MOL0     C24504   2.908   9.226  12.096  0.7246  0.7960 -0.0357
  923MOL0     C24505   2.928   9.195  12.236 -0.0033 -0.3575  0.7772
  923MOL0     O24506   2.873   9.278  12.323 -0.3646  0.2277 -0.2066
  923MOL0     C24507   2.972   9.353  12.389  0.6537  0.3429 -0.5773
  923MOL0     C24508   3.039   9.472  12.304  0.5515  0.2408 -0.4879
  923MOL0     C24509   2.943   9.571  12.251  1.0432 -0.2948  0.8228
  923MOL0     C24510   3.020   9.692  12.190  0.5161 -0.4497 -1.0940
  923MOL0     C24511   3.072   9.680  12.043 -0.9801  0.1861  0.3610
  923MOL0     C24512   3.211   9.744  12.011 -0.6542  0.8145 -0.8153
  923MOL0     C24513   3.331   9.704  12.092 -0.1375  0.5185 -0.1777
  923MOL0     C24514   3.450   9.742  12.006 -0.2867 -0.3054  0.3892
  923MOL0    Cl24515   3.483   9.613  11.888 -0.0728  0.0477  0.0677
  923MOL0     C24516   3.027   9.099  12.270 -0.0873  0.5085 -0.7626
  923MOL0     C24517   3.097   9.050  12.162  0.3606  0.2454  0.2988
  923MOL0     O24518   3.053   8.816  11.977 -0.0782 -0.5023  0.2093
  923MOL0     C24519   3.373   8.864  11.816  0.0541  0.8205  0.0422
  923MOL0     C24520   3.481   8.797  11.757  0.2665 -0.4335  0.2782
  923MOL0     N24521   3.824   8.163  11.276 -0.7030 -0.1383  0.2718
  923MOL0     N24522   3.892   8.060  11.240  0.3364 -1.0988  0.4559
  923MOL0     C24523   5.050   7.687  11.023  0.3685  1.0095  0.7062
  923MOL0     C24524   5.163   7.649  11.087  0.1883 -0.0688  0.0900
  923MOL0     C24525   5.605   7.604  11.116 -0.6854  0.1347 -1.3049
  923MOL0     C24526   5.636   7.482  11.171  0.8049 -0.1288  0.1410
  923MOL0     C24527   5.760   7.445  11.205 -0.1417 -0.3155  0.0526
  923MOL0     C24528   5.866   7.534  11.186  0.1579  0.5871  0.1172
  923MOL0     O24529   5.987   7.496  11.241  0.1850 -0.1196 -0.6308
  923MOL0     C24530   6.048   7.385  11.170 -0.1399  0.5429  0.1700
  923MOL0     C24531   6.114   7.282  11.269 -0.2258  0.4670  0.3403
  923MOL0     C24532   6.238   7.347  11.333 -0.5868 -0.4588 -0.1313
  923MOL0     C24533   6.316   7.256  11.437  0.6502 -0.0162 -0.7552
  923MOL0     C24534   6.289   7.289  11.580 -0.4271 -1.0776  0.0576
  923MOL0     C24535   6.279   7.334  11.694  0.0508 -0.2510 -0.5202
  923MOL0     C24536   5.843   7.660  11.136 -0.4025  0.1686  0.9649
  923MOL0     C24537   5.709   7.694  11.103 -0.0593  0.3571 -0.4910
  923MOL0     H24538   5.275   7.408  10.879 -0.0117 -0.8204  1.0327
  923MOL0     H24539   5.072   7.463  10.765 -1.6722 -1.7667  2.4075
  923MOL0     H24540   4.787   7.755  11.000 -1.6251  2.5231  0.2831
  923MOL0     H24541   4.849   7.861  10.875  0.4451  0.2705  2.8490
  923MOL0     H24542   4.692   7.753  10.711 -1.3142  1.4105  0.2664
  923MOL0     H24543   4.636   7.641  10.840 -2.1961  0.2602 -0.5602
  923MOL0     H24544   4.619   7.936  10.872 -0.3492  0.5770 -1.0789
  923MOL0     H24545   4.494   7.853  10.784 -1.4847  1.1374  1.7801
  923MOL0     H24546   4.429   7.703  10.969  0.5671 -0.3807 -2.0809
  923MOL0     H24547   4.556   7.768  11.068 -3.0861  2.4704  3.6967
  923MOL0     H24548   4.395   7.920  11.149  2.7640  5.2159 -0.3983
  923MOL0     H24549   4.434   8.011  11.003 -1.4227  0.3855  1.4218
  923MOL0     H24550   4.262   7.924  10.880  2.9125 -1.2401  0.8633
  923MOL0     H24551   4.221   7.804  11.002 -0.2702 -0.3259 -0.3138
  923MOL0     H24552   4.192   8.119  11.028  0.4055  0.7950 -2.5212
  923MOL0     H24553   4.056   8.019  11.001 -0.4580 -0.9481  1.9437
  923MOL0     H24554   4.221   8.003  11.254  0.1788  1.1477 -0.3109
  923MOL0     H24555   4.088   7.893  11.208 -0.0578 -0.3661  2.3631
  923MOL0     H24556   4.133   8.259  11.275 -0.0128  1.1241 -2.2215
  923MOL0     H24557   3.958   8.430  11.412 -0.2753 -0.5703 -0.1546
  923MOL0     H24558   3.925   8.462  11.239 -1.3183 -1.0537 -1.9903
  923MOL0     H24559   3.685   8.349  11.371  2.0375 -0.3966  0.3709
  923MOL0     H24560   3.692   8.503  11.294  0.0264  0.6645  0.8558
  923MOL0     H24561   3.801   8.597  11.507  4.7201 -2.7184  1.9627
  923MOL0     H24562   3.780   8.444  11.576  3.8243  3.0389  0.4687
  923MOL0     H24563   3.522   8.460  11.523 -0.6780 -0.1520  1.2403
  923MOL0     H24564   3.553   8.625  11.481  1.5769  0.8754  1.0461
  923MOL0     H24565   3.328   8.494  11.732 -0.3573 -0.2815  0.3922
  923MOL0     H24566   3.093   8.567  11.928  1.8489 -3.9514 -0.5959
  923MOL0     H24567   3.023   8.644  11.786 -1.3560 -1.0687  1.9224
  923MOL0     H24568   3.105   8.497  11.757  0.8335  1.2918 -3.1559
  923MOL0     H24569   2.981   9.204  11.892 -1.0119 -0.9626 -0.0716
  923MOL0     H24570   2.849   9.309  12.059  1.6929  1.6727  0.3062
  923MOL0     H24571   2.913   9.393  12.472 -0.8972  1.6084 -2.2049
  923MOL0     H24572   3.055   9.293  12.429  0.8068  0.5460 -0.5906
  923MOL0     H24573   3.109   9.530  12.365 -0.6377  0.4822  0.7149
  923MOL0     H24574   3.097   9.441  12.217  1.1265  1.6903 -0.6443
  923MOL0     H24575   2.880   9.598  12.337 -0.2887 -2.4168  0.5827
  923MOL0     H24576   2.864   9.530  12.188  0.4332 -1.0164  2.0355
  923MOL0     H24577   2.959   9.783  12.191 -1.2605 -1.6048 -1.4417
  923MOL0     H24578   3.101   9.713  12.261  0.7660 -0.5115 -1.3580
  923MOL0     H24579   2.998   9.718  11.972  0.4040 -0.7891 -1.7085
  923MOL0     H24580   3.089   9.575  12.019 -0.3334 -0.2116  2.3522
  923MOL0     H24581   3.234   9.718  11.907  2.2900 -3.3932  0.5901
  923MOL0     H24582   3.198   9.852  12.023  2.0681  1.4473 -2.4381
  923MOL0     H24583   3.335   9.596  12.111  2.8693  0.1278 -2.3271
  923MOL0     H24584   3.339   9.743  12.194  1.7766 -2.9743  1.1815
  923MOL0     H24585   3.538   9.751  12.069  0.4216 -1.5753 -0.3570
  923MOL0     H24586   3.429   9.838  11.958  0.3829  0.5644  1.7858
  923MOL0     H24587   3.046   9.089  12.376  0.1918  4.0688 -0.3525
  923MOL0     H24588   3.176   8.979  12.185  0.1251  0.2962  1.2935
  923MOL0     H24589   3.404   8.962  11.851  0.2469  0.2312  1.5891
  923MOL0     H24590   3.578   8.842  11.740  2.7165 -4.5864  1.6890
  923MOL0     H24591   4.991   7.771  11.060 -2.6463 -1.1412  1.2014
  923MOL0     H24592   5.192   7.692  11.182 -3.5279  0.4131  1.1453
  923MOL0     H24593   5.556   7.412  11.192  0.7418 -0.4783 -1.1848
  923MOL0     H24594   5.780   7.345  11.245  1.8863  0.2535  0.6311
  923MOL0     H24595   5.990   7.325  11.099  2.6010 -0.5778 -1.2404
  923MOL0     H24596   6.123   7.441  11.113 -0.2185  1.7049  1.1787
  923MOL0     H24597   6.155   7.196  11.214  0.9520  1.2316 -0.0037
  923MOL0     H24598   6.046   7.250  11.348 -0.4527  0.7035  0.2422
  923MOL0     H24599   6.213   7.442  11.381 -4.0670 -1.0209 -0.6233
  923MOL0     H24600   6.315   7.362  11.256  0.9136 -1.6608  1.0621
  923MOL0     H24601   6.417   7.279  11.402  1.6004  1.1793  2.4585
  923MOL0     H24602   6.303   7.150  11.418 -1.0511 -0.3311  1.7279
  923MOL0     H24603   6.273   7.353  11.799  1.4946 -1.1254 -0.2503
  923MOL0     H24604   5.925   7.729  11.124  0.4815 -0.9551  0.3503
  923MOL0     H24605   5.701   7.796  11.067 -1.8965  0.3924 -0.0539
  924MOL0     O24606   0.476   9.005   3.191  0.4511 -0.0828 -0.2094
  924MOL0     C24607   0.574   9.037   3.119  0.1345  0.0248 -0.6438
  924MOL0     O24608   0.602   9.163   3.082 -0.7871 -0.0934  0.4517
  924MOL0     C24609   0.512   9.262   3.079  0.7770  0.4981 -0.7905
  924MOL0     C24610   0.557   9.395   3.066 -0.4592  0.5904 -0.0306
  924MOL0     C24611   0.471   9.489   3.044  0.2957  0.0250  0.2865
  924MOL0     C24612   0.336   9.472   3.036  0.0040 -0.1846  0.0905
  924MOL0     O24613   0.249   9.572   2.997 -0.6774 -0.4536  0.1282
  924MOL0     C24614   0.300   9.684   2.923  0.0159  0.7531  0.3273
  924MOL0     C24615   0.173   9.748   2.870 -0.1957 -0.2468  0.2084
  924MOL0     C24616   0.091   9.836   2.970 -0.4579 -0.1242  0.9519
  924MOL0     C24617   0.136   9.981   2.981 -0.0067  0.1217  0.5325
  924MOL0     C24618   0.017  10.064   3.030  0.4703 -0.2525  0.9194
  924MOL0     C24619   0.038  10.209   2.974 -0.4457 -0.1029 -1.1020
  924MOL0     C24620  -0.020  10.230   2.833 -0.7020 -0.1559 -0.5373
  924MOL0     C24621   0.004  10.368   2.766  0.1323  0.0097 -1.0996
  924MOL0     N24622   0.137  10.391   2.710 -0.3535  0.3256 -0.1160
  924MOL0     C24623   0.215  10.302   2.647 -0.0132  0.0347  0.6543
  924MOL0     C24624   0.333  10.356   2.621  0.2152 -0.3307 -0.4998
  924MOL0     C24625   0.457  10.293   2.564 -0.6499  0.2018  0.0946
  924MOL0     C24626   0.568  10.271   2.662  0.0043 -0.0632 -0.4531
  924MOL0     C24627   0.530  10.178   2.777 -0.4027  0.1910 -0.1288
  924MOL0     C24628   0.647  10.091   2.806 -0.8580 -0.4513 -0.3120
  924MOL0     O24629   0.611  10.007   2.917  0.2365 -0.0537  0.2962
  924MOL0     C24630   0.702   9.915   2.957 -1.1228 -0.0971 -0.0658
  924MOL0     C24631   0.823   9.886   2.896 -0.0136 -0.4912 -0.3705
  924MOL0     C24632   0.916   9.785   2.946 -0.7218 -0.2787  0.8337
  924MOL0     C24633   1.061   9.788   2.871  0.5884 -0.3463  0.0947
  924MOL0     C24634   0.880   9.707   3.055  0.9470  0.8599  0.1477
  924MOL0     C24635   0.975   9.595   3.107  0.5627  0.2031 -0.3536
  924MOL0     O24636   0.915   9.493   3.163 -0.8059 -0.4670  0.1561
  924MOL0     C24637   0.980   9.380   3.208 -0.7576 -1.0289 -0.5799
  924MOL0     C24638   1.068   9.381   3.322 -0.5916 -0.0530  0.2213
  924MOL0     C24639   1.114   9.259   3.373  0.4079  0.0291  0.1319
  924MOL0     C24640   1.093   9.137   3.310 -0.1477 -0.0724 -0.8596
  924MOL0     O24641   1.149   9.024   3.377  0.2337 -0.5685  0.0669
  924MOL0     C24642   1.113   8.893   3.316  0.3775 -0.3068 -0.2822
  924MOL0     C24643   1.207   8.794   3.380 -0.5441 -0.4775  0.0272
  924MOL0     C24644   1.281   8.706   3.274  0.3468 -0.4714 -0.5642
  924MOL0     C24645   1.417   8.655   3.325 -0.3130 -0.1173 -0.4047
  924MOL0     C24646   1.484   8.575   3.210  0.3597 -0.2670  0.2666
  924MOL0     C24647   1.622   8.524   3.259  0.3912  0.4270  0.6118
  924MOL0     C24648   1.611   8.412   3.366 -0.2286  0.2293  0.1991
  924MOL0     C24649   1.726   8.316   3.364 -0.5642  0.3402  0.7693
  924MOL0    Cl24650   1.696   8.176   3.456 -0.1681  0.1057  0.0556
  924MOL0     C24651   1.003   9.134   3.205 -0.8562 -0.1831 -0.3236
  924MOL0     C24652   0.949   9.254   3.153  0.8749  0.6257 -0.8382
  924MOL0     O24653   1.091   9.624   3.123 -0.5799 -0.1719 -0.5133
  924MOL0     C24654   0.752   9.732   3.109 -0.3252 -0.1342 -0.2555
  924MOL0     C24655   0.660   9.832   3.062  0.0347 -0.2001 -0.2881
  924MOL0     N24656   0.324  10.476   2.685 -0.4429  0.1398  0.4575
  924MOL0     N24657   0.205  10.498   2.729  0.0042  0.6010 -0.4619
  924MOL0     C24658   0.279   9.339   3.047 -0.0263  0.6413  0.6247
  924MOL0     C24659   0.370   9.236   3.067  0.2459  0.1643 -0.5529
  924MOL0     C24660   0.677   8.927   3.107  0.3586 -1.8352 -0.5963
  924MOL0     C24661   0.687   8.827   3.208  0.1253 -0.2705  0.1594
  924MOL0     C24662   0.787   8.730   3.207  0.8068 -0.2737  0.7247
  924MOL0     C24663   0.875   8.725   3.102  0.8970 -0.1362  0.2484
  924MOL0     O24664   0.971   8.631   3.096 -0.2097 -0.2201  0.4563
  924MOL0     C24665   0.952   8.517   3.012  0.3864  0.3618 -1.0129
  924MOL0     C24666   0.995   8.395   3.083  0.3518  0.6568 -1.1533
  924MOL0     C24667   0.921   8.370   3.213  0.7076 -0.1965 -0.2139
  924MOL0     C24668   0.797   8.275   3.197  0.1204  0.4118 -0.9862
  924MOL0     C24669   0.691   8.338   3.127 -0.1924  0.5340 -0.1730
  924MOL0     C24670   0.583   8.367   3.080 -0.2435 -0.5240  0.4283
  924MOL0     C24671   0.862   8.813   2.994  0.0220  0.4252  0.2965
  924MOL0     C24672   0.772   8.922   3.000 -0.2448 -0.0090  0.9629
  924MOL0     H24673   0.663   9.415   3.071 -0.4242  0.1049  2.0253
  924MOL0     H24674   0.499   9.594   3.040 -3.8562  1.2543 -1.7014
  924MOL0     H24675   0.362   9.752   2.981  1.7721 -1.0829  0.7297
  924MOL0     H24676   0.361   9.641   2.844  1.9686  1.4832  1.3832
  924MOL0     H24677   0.199   9.815   2.787 -2.8173  0.6259 -0.0059
  924MOL0     H24678   0.109   9.676   2.818  0.5810 -0.8091  0.0242
  924MOL0     H24679  -0.007   9.830   2.922  0.6893 -0.2246 -1.5240
  924MOL0     H24680   0.096   9.787   3.067  1.0872 -0.9002  0.5005
  924MOL0     H24681   0.216   9.995   3.054  0.5746  1.4007 -0.3124
  924MOL0     H24682   0.170  10.021   2.885  1.4013 -1.2464  0.4175
  924MOL0     H24683  -0.077  10.020   2.995  0.3426  1.1884 -0.7171
  924MOL0     H24684   0.026  10.058   3.139 -0.1621  1.5601  1.1225
  924MOL0     H24685  -0.011  10.277   3.044  0.4189 -0.8412  0.2578
  924MOL0     H24686   0.147  10.218   2.971 -0.3199 -0.4344  1.0972
  924MOL0     H24687   0.007  10.151   2.762 -1.6513  0.2142 -1.3297
  924MOL0     H24688  -0.125  10.211   2.853 -0.6657  1.6061  1.6760
  924MOL0     H24689  -0.015  10.446   2.840  1.1304  1.3331 -2.1790
  924MOL0     H24690  -0.062  10.385   2.681 -0.9512  0.2242 -0.2311
  924MOL0     H24691   0.172  10.206   2.621 -0.4224  0.1515  0.9016
  924MOL0     H24692   0.424  10.203   2.511  0.9809  1.3510 -3.1993
  924MOL0     H24693   0.501  10.349   2.481 -1.8332  1.2573  0.1582
  924MOL0     H24694   0.589  10.369   2.706 -2.0048  0.6173 -0.9144
  924MOL0     H24695   0.660  10.240   2.613  0.6428 -2.2612  1.9006
  924MOL0     H24696   0.444  10.111   2.758  1.1452 -1.7995 -0.4596
  924MOL0     H24697   0.504  10.238   2.864  0.6310  3.0625 -1.6658
  924MOL0     H24698   0.735  10.150   2.833 -1.2234  0.7072 -1.5546
  924MOL0     H24699   0.660  10.026   2.718 -2.5973 -0.6151 -0.4774
  924MOL0     H24700   0.846   9.933   2.801 -3.5613  0.4155 -0.9184
  924MOL0     H24701   1.082   9.683   2.847  1.8771  0.4258 -2.5873
  924MOL0     H24702   1.048   9.832   2.772 -0.1734  2.0012  1.1651
  924MOL0     H24703   1.140   9.832   2.933  0.7526 -0.8052  0.2188
  924MOL0     H24704   1.089   9.476   3.370 -0.1448  0.3900 -0.8202
  924MOL0     H24705   1.160   9.260   3.471  0.4507  0.7884  0.1058
  924MOL0     H24706   1.009   8.879   3.346  0.7204 -3.0190 -0.1242
  924MOL0     H24707   1.121   8.888   3.207 -2.5875 -0.8658 -0.5599
  924MOL0     H24708   1.284   8.856   3.428 -1.3265  0.9730 -0.5592
  924MOL0     H24709   1.160   8.733   3.458  1.2058  1.2338  2.5931
  924MOL0     H24710   1.308   8.760   3.183  3.0345  4.7110  2.8546
  924MOL0     H24711   1.216   8.622   3.248  1.1474 -1.8306  1.5427
  924MOL0     H24712   1.480   8.740   3.355 -0.6997  0.7162 -1.8636
  924MOL0     H24713   1.395   8.581   3.401  3.1511 -1.1300 -0.2194
  924MOL0     H24714   1.505   8.639   3.124 -0.1439  0.8875  0.9836
  924MOL0     H24715   1.434   8.486   3.171  0.9642 -0.0333 -1.1204
  924MOL0     H24716   1.686   8.481   3.180 -0.1516 -2.7388  1.7461
  924MOL0     H24717   1.674   8.611   3.301  0.2254  1.4887 -1.2542
  924MOL0     H24718   1.520   8.357   3.344  0.8775 -1.7526  0.4079
  924MOL0     H24719   1.596   8.467   3.459  0.9626  0.7999  0.0703
  924MOL0     H24720   1.804   8.369   3.419  2.3317 -1.2801 -1.4828
  924MOL0     H24721   1.758   8.295   3.262 -0.8246  4.1733 -0.2310
  924MOL0     H24722   0.977   9.037   3.165 -1.0232 -0.5492  0.6399
  924MOL0     H24723   0.861   9.249   3.089  0.7888 -1.7104 -0.6199
  924MOL0     H24724   0.715   9.665   3.186 -1.0551  0.5135 -0.0395
  924MOL0     H24725   0.566   9.864   3.106 -0.6797  0.2586 -2.0504
  924MOL0     H24726   0.175   9.316   3.029  0.3343  0.7097 -1.9158
  924MOL0     H24727   0.332   9.134   3.060  1.2172 -0.2483 -0.0477
  924MOL0     H24728   0.622   8.834   3.295 -1.1036  0.2328 -0.7787
  924MOL0     H24729   0.787   8.661   3.290  0.0948 -0.3334  0.6839
  924MOL0     H24730   0.847   8.499   2.984  0.2445  1.8101 -1.4607
  924MOL0     H24731   1.007   8.526   2.918  2.0446  2.2512  0.0783
  924MOL0     H24732   1.102   8.411   3.102  0.7662 -0.3429 -2.4531
  924MOL0     H24733   0.995   8.306   3.019 -3.9634 -0.8305  0.5580
  924MOL0     H24734   0.885   8.467   3.247  1.4396 -0.1394  0.4227
  924MOL0     H24735   0.991   8.320   3.281  0.6902 -2.9826 -2.0793
  924MOL0     H24736   0.759   8.257   3.298  0.2688  2.7564 -0.4553
  924MOL0     H24737   0.835   8.184   3.151  2.1926  0.4627  0.5364
  924MOL0     H24738   0.482   8.373   3.045 -0.3205 -0.8068  0.6006
  924MOL0     H24739   0.932   8.802   2.912 -0.0657  2.2230 -0.0603
  924MOL0     H24740   0.771   9.005   2.930  2.2656  0.5531  1.4872
  925MOL0     O24741   0.937  10.530   4.382 -0.7430 -0.1262  0.2538
  925MOL0     C24742   1.006  10.478   4.297  0.1706 -0.3773  0.2268
  925MOL0     O24743   0.964  10.407   4.187 -0.0106 -0.5480 -0.3670
  925MOL0     C24744   0.834  10.416   4.144  0.5271  0.2672  0.3815
  925MOL0     C24745   0.811  10.374   4.012  0.6399  0.6955 -0.1538
  925MOL0     C24746   0.690  10.392   3.948 -0.4939 -0.4158 -0.0976
  925MOL0     C24747   0.578  10.448   4.016 -0.2187 -0.4058  0.5950
  925MOL0     O24748   0.456  10.449   3.953 -0.2435 -0.2701  0.2169
  925MOL0     C24749   0.408  10.581   3.917 -0.2099 -0.1680 -0.7576
  925MOL0     C24750   0.251  10.556   3.904 -0.8971  0.0749 -0.2747
  925MOL0     C24751   0.165  10.670   3.854 -0.0108 -0.6158 -0.7075
  925MOL0     C24752   0.223  10.718   3.718  0.4324  0.4309  0.4452
  925MOL0     C24753   0.126  10.806   3.634 -0.6068  1.4086 -0.0938
  925MOL0     C24754   0.075  10.936   3.687  1.3785  0.2924 -0.9566
  925MOL0     C24755   0.183  11.035   3.720  0.5668  0.8855 -0.0094
  925MOL0     C24756   0.154  11.159   3.641  0.0849 -0.6740  0.7030
  925MOL0     N24757   0.246  11.270   3.653  0.1846 -0.0015  0.0026
  925MOL0     C24758   0.303  11.329   3.540 -0.1003 -0.0359 -0.7234
  925MOL0     C24759   0.383  11.429   3.600 -0.3101 -0.4590  0.4725
  925MOL0     C24760   0.480  11.530   3.538 -1.2000  1.2043 -1.1242
  925MOL0     C24761   0.628  11.481   3.557  0.2436 -0.8233 -0.1626
  925MOL0     C24762   0.674  11.496   3.707 -0.4406 -0.3818  0.6835
  925MOL0     C24763   0.823  11.457   3.720  0.8020  0.4592 -0.7322
  925MOL0     O24764   0.836  11.320   3.719 -0.9173  0.4086  1.0699
  925MOL0     C24765   0.959  11.263   3.711  0.1843  1.1173  0.0401
  925MOL0     C24766   0.962  11.144   3.631  0.1746  0.1329 -0.4831
  925MOL0     C24767   1.076  11.066   3.613 -0.6477 -0.3669  0.8011
  925MOL0     C24768   1.064  10.947   3.516 -0.4183  1.0223 -0.9218
  925MOL0     C24769   1.191  11.107   3.680  0.6329 -0.8947 -0.7140
  925MOL0     C24770   1.321  11.031   3.670 -0.2105  0.2417 -0.6501
  925MOL0     O24771   1.431  11.080   3.738 -0.0921 -0.1021 -0.5650
  925MOL0     C24772   1.550  11.012   3.729  0.6223 -1.0990  0.2113
  925MOL0     C24773   1.571  10.881   3.775 -0.2751 -0.5344 -0.1998
  925MOL0     C24774   1.705  10.829   3.776 -0.4634  0.1972 -0.5683
  925MOL0     C24775   1.812  10.897   3.724 -0.1860  0.0793 -0.2955
  925MOL0     O24776   1.945  10.856   3.731 -0.5247 -0.2040  0.2540
  925MOL0     C24777   1.995  10.862   3.871 -0.2351 -0.4988 -0.7576
  925MOL0     C24778   2.136  10.852   3.888 -0.7562  0.8068  0.1977
  925MOL0     C24779   2.222  10.930   3.783  0.2088 -0.9822  0.4045
  925MOL0     C24780   2.246  11.064   3.837  0.2485 -0.0735 -0.3338
  925MOL0     C24781   2.323  11.156   3.747  0.0484  1.0111 -0.0145
  925MOL0     C24782   2.331  11.297   3.801  0.8351  0.0963 -0.7121
  925MOL0     C24783   2.378  11.417   3.720  0.7283 -0.1451  0.5454
  925MOL0     C24784   2.510  11.413   3.650  0.3205  0.4043  0.4927
  925MOL0    Cl24785   2.487  11.359   3.474 -0.1861  0.1914 -0.0481
  925MOL0     C24786   1.780  11.026   3.676 -0.5793 -0.1388 -0.2718
  925MOL0     C24787   1.652  11.089   3.683 -0.0501  0.3343  0.3188
  925MOL0     O24788   1.325  10.924   3.617 -0.4506  0.9755 -0.4944
  925MOL0     C24789   1.180  11.219   3.774 -0.9254 -0.9352  0.9600
  925MOL0     C24790   1.073  11.298   3.783  0.1313 -0.0570  0.3118
  925MOL0     N24791   0.344  11.439   3.733 -0.2103  0.1206  0.2271
  925MOL0     N24792   0.278  11.343   3.763  0.4724 -0.2339  0.3749
  925MOL0     C24793   0.594  10.473   4.151 -0.2579 -0.6280 -0.8895
  925MOL0     C24794   0.721  10.460   4.214 -0.4434  0.1609 -0.7459
  925MOL0     C24795   1.146  10.468   4.343 -0.3080 -0.0162  0.0586
  925MOL0     C24796   1.185  10.490   4.483 -0.6633  0.2337  0.4746
  925MOL0     C24797   1.320  10.500   4.515 -0.2533  0.5619  0.0883
  925MOL0     C24798   1.416  10.489   4.410 -0.3634  0.5686  0.1705
  925MOL0     O24799   1.552  10.506   4.425 -0.1505  0.8763  0.3267
  925MOL0     C24800   1.589  10.587   4.537  0.9400 -0.4055  0.3222
  925MOL0     C24801   1.740  10.620   4.524  0.2457  0.9141  0.6412
  925MOL0     C24802   1.768  10.700   4.390  0.4627 -0.7147  0.8544
  925MOL0     C24803   1.910  10.733   4.380 -0.4363 -0.1880 -0.1076
  925MOL0     C24804   1.928  10.853   4.290  0.1975  0.6865 -0.1537
  925MOL0     C24805   1.950  10.955   4.231  0.1887 -0.2964  0.6617
  925MOL0     C24806   1.380  10.447   4.280  0.0071 -1.0692 -0.6756
  925MOL0     C24807   1.243  10.438   4.249 -0.4138 -0.6971  1.0209
  925MOL0     H24808   0.881  10.330   3.942 -1.1901 -0.5457 -1.2770
  925MOL0     H24809   0.671  10.365   3.845  1.9825 -2.2307 -0.1718
  925MOL0     H24810   0.427  10.666   3.983  1.6891 -1.0110 -0.1438
  925MOL0     H24811   0.445  10.606   3.817 -2.2570  3.2022 -0.8528
  925MOL0     H24812   0.238  10.468   3.841  1.1228 -2.7958  2.9187
  925MOL0     H24813   0.205  10.537   4.002 -0.4003 -1.4433 -0.3113
  925MOL0     H24814   0.063  10.635   3.842  0.1201 -0.2581 -3.3087
  925MOL0     H24815   0.166  10.749   3.930 -3.3232 -1.7747  0.6991
  925MOL0     H24816   0.318  10.770   3.729  1.5256 -1.3699 -0.0504
  925MOL0     H24817   0.238  10.626   3.660 -0.2350  1.1434 -0.8903
  925MOL0     H24818   0.167  10.825   3.534  1.6979  1.4874  0.8094
  925MOL0     H24819   0.028  10.758   3.628 -1.8252  3.6270  1.1043
  925MOL0     H24820   0.002  10.980   3.618  1.8877  2.0990 -0.3984
  925MOL0     H24821   0.010  10.914   3.773  0.1542  0.7799 -1.7306
  925MOL0     H24822   0.187  11.039   3.829 -0.8599 -3.2475  0.3741
  925MOL0     H24823   0.276  10.998   3.675 -0.7270 -2.5365 -0.1290
  925MOL0     H24824   0.066  11.209   3.684  0.1879 -1.3760  1.7849
  925MOL0     H24825   0.139  11.140   3.534  0.9709 -2.9545  0.9367
  925MOL0     H24826   0.295  11.306   3.435 -0.5545  4.2752 -1.8358
  925MOL0     H24827   0.459  11.540   3.431  0.4909  0.4196 -1.5553
  925MOL0     H24828   0.455  11.630   3.574  0.8993  1.2302  0.4629
  925MOL0     H24829   0.696  11.540   3.495  1.3994  1.1218  2.7459
  925MOL0     H24830   0.642  11.376   3.527  0.3794 -0.7900 -0.2165
  925MOL0     H24831   0.603  11.437   3.765 -1.0024 -2.7145 -2.1415
  925MOL0     H24832   0.665  11.600   3.741 -0.2252 -0.1930  0.1827
  925MOL0     H24833   0.852  11.485   3.822 -3.0098 -1.6220  1.1574
  925MOL0     H24834   0.884  11.501   3.641 -0.1772  2.3664 -0.4786
  925MOL0     H24835   0.875  11.117   3.572 -0.7812  1.5523  0.2261
  925MOL0     H24836   1.061  10.851   3.569 -1.5391  2.5942  2.1262
  925MOL0     H24837   0.972  10.942   3.456 -2.3512 -1.3737  1.8997
  925MOL0     H24838   1.154  10.958   3.456  0.1870  0.0382 -0.2246
  925MOL0     H24839   1.485  10.827   3.812 -0.4916  0.3465  0.6231
  925MOL0     H24840   1.725  10.730   3.818 -2.0227  0.5684  1.1870
  925MOL0     H24841   1.966  10.964   3.898  0.0090 -0.9284  1.3023
  925MOL0     H24842   1.941  10.785   3.928  1.0543  0.0357  1.3160
  925MOL0     H24843   2.152  10.881   3.992 -1.8419  3.0322 -0.1895
  925MOL0     H24844   2.164  10.748   3.873  0.4753  1.3585 -1.7998
  925MOL0     H24845   2.175  10.931   3.684  0.3285  0.4085  0.3420
  925MOL0     H24846   2.319  10.883   3.764  0.3903 -0.6866  0.5996
  925MOL0     H24847   2.145  11.104   3.852 -0.4817 -0.9383 -2.5671
  925MOL0     H24848   2.297  11.058   3.933  0.2953 -1.0869 -0.4143
  925MOL0     H24849   2.267  11.154   3.652 -1.2398 -3.0258  0.6417
  925MOL0     H24850   2.419  11.108   3.728 -0.2019  0.2589  0.6055
  925MOL0     H24851   2.229  11.314   3.838  0.6765 -0.3879 -0.9200
  925MOL0     H24852   2.403  11.293   3.883  1.3351  2.5688 -0.9601
  925MOL0     H24853   2.380  11.504   3.788  0.5051 -0.0672  0.4536
  925MOL0     H24854   2.309  11.454   3.643  1.3341  0.3027  0.2062
  925MOL0     H24855   2.579  11.349   3.704 -0.3379 -1.2408 -0.5454
  925MOL0     H24856   2.545  11.516   3.661 -1.2871  1.0086  0.3010
  925MOL0     H24857   1.867  11.088   3.657  0.6973 -0.8939  2.6391
  925MOL0     H24858   1.647  11.193   3.653  0.3998  0.2389 -0.1138
  925MOL0     H24859   1.271  11.257   3.820 -1.6145  4.5248 -1.3530
  925MOL0     H24860   1.070  11.382   3.851 -3.5125  0.2216  0.0113
  925MOL0     H24861   0.498  10.496   4.195 -0.2021 -2.9833  0.5910
  925MOL0     H24862   0.716  10.493   4.317 -0.4565 -2.0969  0.0209
  925MOL0     H24863   1.111  10.495   4.563 -2.1624 -1.5276 -0.6871
  925MOL0     H24864   1.341  10.507   4.621 -0.7845 -0.9298  0.3248
  925MOL0     H24865   1.522  10.673   4.534 -0.3911 -1.3469  1.7747
  925MOL0     H24866   1.572  10.547   4.637  3.5347  0.7255  1.3145
  925MOL0     H24867   1.809  10.535   4.533  1.4498  1.8626  0.5834
  925MOL0     H24868   1.759  10.683   4.611 -0.6044  1.2899  0.5641
  925MOL0     H24869   1.719  10.796   4.404  3.4797  0.7698  2.2456
  925MOL0     H24870   1.737  10.655   4.296  0.7112  2.0901 -0.6601
  925MOL0     H24871   1.981  10.653   4.357  1.5330  1.9092 -1.7759
  925MOL0     H24872   1.945  10.769   4.477  3.2707  1.3550 -1.8129
  925MOL0     H24873   1.991  11.046   4.192  0.0773 -1.4342 -2.3412
  925MOL0     H24874   1.460  10.427   4.210  0.6601 -2.4171  0.3976
  925MOL0     H24875   1.215  10.412   4.147  0.7089  0.1226  0.4834
  926MOL0     O24876   4.016   8.306   5.070 -0.1229  0.9015  0.2134
  926MOL0     C24877   3.998   8.275   4.952 -0.1852 -1.1967  0.8817
  926MOL0     O24878   3.885   8.309   4.872  0.1314  0.3216 -0.9329
  926MOL0     C24879   3.789   8.403   4.913 -0.7120  0.5873 -0.2474
  926MOL0     C24880   3.815   8.522   4.978  1.2864  0.3739 -0.2721
  926MOL0     C24881   3.712   8.606   4.992 -0.1888  0.2433  1.1065
  926MOL0     C24882   3.582   8.582   4.935 -0.2623 -0.0858 -0.4614
  926MOL0     O24883   3.479   8.667   4.937 -0.1342  0.0051 -0.4322
  926MOL0     C24884   3.508   8.810   4.967  0.6905  0.0856  0.7308
  926MOL0     C24885   3.394   8.913   4.940 -0.4031 -1.0165  0.3014
  926MOL0     C24886   3.412   9.043   5.019  0.0941  0.2311 -0.8328
  926MOL0     C24887   3.543   9.108   4.998 -0.8261 -0.2192  0.7242
  926MOL0     C24888   3.558   9.244   5.059 -0.3799 -1.3031 -0.8285
  926MOL0     C24889   3.689   9.314   5.046  0.3741 -0.8250 -0.2464
  926MOL0     C24890   3.714   9.368   4.911 -0.5495 -0.5799 -0.6749
  926MOL0     C24891   3.594   9.439   4.843  0.4726 -0.3042 -0.7997
  926MOL0     N24892   3.651   9.513   4.726 -0.3871 -0.1902 -0.4492
  926MOL0     C24893   3.718   9.639   4.732 -0.0601 -0.6565  0.1745
  926MOL0     C24894   3.694   9.693   4.614 -0.0202  1.0329 -0.7701
  926MOL0     C24895   3.749   9.825   4.565  0.5080 -0.4461  0.0115
  926MOL0     C24896   3.903   9.827   4.561 -0.4136 -0.2249  0.6682
  926MOL0     C24897   3.952   9.701   4.492 -0.4071 -0.1190  0.2282
  926MOL0     C24898   4.099   9.703   4.463  1.1088  0.2691 -0.4436
  926MOL0     O24899   4.172   9.665   4.589 -0.2448 -0.0424 -0.3595
  926MOL0     C24900   4.306   9.660   4.585 -0.4647  0.1511 -0.3139
  926MOL0     C24901   4.375   9.661   4.709  0.2084 -0.1506  0.1369
  926MOL0     C24902   4.515   9.654   4.718  0.4829  0.0946  0.0128
  926MOL0     C24903   4.570   9.664   4.858  0.0149  0.5949 -0.0609
  926MOL0     C24904   4.594   9.645   4.603 -0.7110 -0.2831  1.1317
  926MOL0     C24905   4.744   9.624   4.597 -0.2755 -0.1479  0.3973
  926MOL0     O24906   4.814   9.673   4.482  0.8375  0.9090  0.5181
  926MOL0     C24907   4.942   9.637   4.469  0.4132 -0.3197 -0.2108
  926MOL0     C24908   4.974   9.545   4.371 -0.8805  0.2183  0.2050
  926MOL0     C24909   5.111   9.505   4.349 -0.8598  0.6377  0.8125
  926MOL0     C24910   5.215   9.559   4.425  0.0569  0.6214  0.4083
  926MOL0     O24911   5.344   9.534   4.387 -0.2469  1.1517  0.0202
  926MOL0     C24912   5.419   9.473   4.493  0.1973 -0.4475 -0.4688
  926MOL0     C24913   5.549   9.400   4.434  0.4409 -0.5777 -0.3795
  926MOL0     C24914   5.647   9.494   4.370 -0.6837  0.0133 -0.3715
  926MOL0     C24915   5.751   9.423   4.287 -0.0183 -0.2911  0.2027
  926MOL0     C24916   5.865   9.523   4.258 -0.4868  0.0986  0.1381
  926MOL0     C24917   5.810   9.644   4.180  0.4200  0.0884 -0.7260
  926MOL0     C24918   5.916   9.719   4.102  0.0347  0.5083  0.1100
  926MOL0     C24919   6.037   9.758   4.186  0.3197 -0.5483 -0.0530
  926MOL0    Cl24920   5.998   9.842   4.345 -0.1089  0.1960  0.1171
  926MOL0     C24921   5.184   9.652   4.528  0.2928 -0.0688 -1.0381
  926MOL0     C24922   5.046   9.688   4.550  0.3761 -0.1660 -0.5778
  926MOL0     O24923   4.794   9.552   4.689  0.0610 -0.0951  0.2564
  926MOL0     C24924   4.521   9.654   4.474 -0.8503 -0.7917 -0.0861
  926MOL0     C24925   4.385   9.661   4.472  0.4668  0.1805 -1.1506
  926MOL0     N24926   3.617   9.606   4.532 -0.3716 -0.4275 -0.2626
  926MOL0     N24927   3.587   9.511   4.610  0.0977  0.1905 -0.2395
  926MOL0     C24928   3.559   8.462   4.868  0.5326 -0.2146 -0.7327
  926MOL0     C24929   3.659   8.372   4.860 -0.5004  0.8084 -0.9662
  926MOL0     C24930   4.112   8.207   4.879  0.4058  0.0382 -0.1160
  926MOL0     C24931   4.230   8.178   4.944  0.2306  0.0580  0.4485
  926MOL0     C24932   4.336   8.111   4.880 -0.0683 -0.6297  0.0164
  926MOL0     C24933   4.326   8.071   4.743  0.3699  0.5663 -1.0156
  926MOL0     O24934   4.430   8.012   4.677 -0.0017 -0.2185  0.8734
  926MOL0     C24935   4.453   7.871   4.708  0.5702 -1.0428 -0.7610
  926MOL0     C24936   4.574   7.854   4.792  0.3887  0.3494  0.4483
  926MOL0     C24937   4.694   7.879   4.705  0.2225 -0.1237  1.7721
  926MOL0     C24938   4.821   7.922   4.775 -0.6224  0.0196 -0.9500
  926MOL0     C24939   4.948   7.890   4.700  0.2581 -0.5171  0.8912
  926MOL0     C24940   5.031   7.855   4.621 -0.2260 -0.3836 -0.2085
  926MOL0     C24941   4.202   8.093   4.677 -0.3769  1.0371 -0.0580
  926MOL0     C24942   4.099   8.152   4.748  0.0235 -1.1584 -0.2906
  926MOL0     H24943   3.914   8.552   5.009  0.5167  1.3741  1.3621
  926MOL0     H24944   3.717   8.694   5.056  0.3182  2.7732 -2.1299
  926MOL0     H24945   3.532   8.827   5.073 -2.1983  2.7428  1.1025
  926MOL0     H24946   3.596   8.843   4.913  1.3184 -0.9610  1.0887
  926MOL0     H24947   3.386   8.939   4.834  0.7015 -1.8730 -0.0167
  926MOL0     H24948   3.303   8.859   4.968 -1.5453  0.4488 -0.4491
  926MOL0     H24949   3.334   9.118   4.999 -0.9884  0.2028  2.5584
  926MOL0     H24950   3.406   9.025   5.127 -1.5422 -2.0739 -1.2314
  926MOL0     H24951   3.611   9.037   5.047  0.1119  1.5294  2.0571
  926MOL0     H24952   3.566   9.107   4.891 -1.2453  2.5658  0.5345
  926MOL0     H24953   3.481   9.310   5.018  1.6157  0.7574 -1.4029
  926MOL0     H24954   3.532   9.243   5.165 -0.4674  1.7458 -0.7312
  926MOL0     H24955   3.700   9.401   5.112 -1.4662 -0.6608 -0.1277
  926MOL0     H24956   3.776   9.257   5.079  0.5870 -0.7718 -0.7011
  926MOL0     H24957   3.803   9.429   4.922 -2.2809  1.7628  1.7337
  926MOL0     H24958   3.747   9.283   4.850  0.8755 -2.4971  2.5070
  926MOL0     H24959   3.562   9.515   4.915  0.2011 -0.5930 -0.6135
  926MOL0     H24960   3.519   9.368   4.807 -0.3373  1.0903 -1.9802
  926MOL0     H24961   3.792   9.684   4.799 -0.9871 -1.7345  2.0160
  926MOL0     H24962   3.714   9.843   4.463 -0.2117 -2.6885 -0.1838
  926MOL0     H24963   3.719   9.901   4.637 -1.0829 -1.7867  0.8207
  926MOL0     H24964   3.943   9.832   4.663 -1.7144 -0.5760  1.2244
  926MOL0     H24965   3.942   9.920   4.520  1.5689 -0.8146  1.1313
  926MOL0     H24966   3.899   9.696   4.397 -0.4522  4.5320 -0.1808
  926MOL0     H24967   3.932   9.618   4.560  1.0370  1.0887  2.2216
  926MOL0     H24968   4.134   9.799   4.423  4.0875 -1.0115 -1.1539
  926MOL0     H24969   4.118   9.625   4.389 -1.3998  0.8942 -1.8651
  926MOL0     H24970   4.314   9.668   4.798  0.7317  3.0242  0.3590
  926MOL0     H24971   4.651   9.737   4.854 -0.4678  1.1413 -0.1093
  926MOL0     H24972   4.491   9.708   4.920  1.4591  2.6216  0.4437
  926MOL0     H24973   4.609   9.565   4.885 -1.2013 -0.6062 -2.3489
  926MOL0     H24974   4.891   9.509   4.311 -0.2486  1.3119 -1.4170
  926MOL0     H24975   5.141   9.447   4.262 -1.0970  1.2097  0.3383
  926MOL0     H24976   5.458   9.538   4.573 -2.4949 -0.9087  1.3586
  926MOL0     H24977   5.354   9.398   4.539 -0.4569 -0.0569 -0.7545
  926MOL0     H24978   5.610   9.364   4.517 -1.8802 -0.0739  1.6526
  926MOL0     H24979   5.517   9.325   4.360 -2.2564  1.2330 -1.1888
  926MOL0     H24980   5.693   9.550   4.452  0.1429 -0.2748 -0.6257
  926MOL0     H24981   5.589   9.571   4.319 -0.0597 -0.1399 -1.3527
  926MOL0     H24982   5.792   9.331   4.328  0.8004 -0.4295 -0.8601
  926MOL0     H24983   5.710   9.404   4.187  0.2587  0.2732 -0.0261
  926MOL0     H24984   5.953   9.489   4.203 -2.6055  0.4232 -3.8950
  926MOL0     H24985   5.895   9.564   4.355 -0.7215  1.6907 -0.4362
  926MOL0     H24986   5.734   9.612   4.108  0.3698 -1.4263 -0.0302
  926MOL0     H24987   5.772   9.715   4.254 -0.6192  0.4975 -1.6190
  926MOL0     H24988   5.879   9.812   4.056 -0.6443 -0.3753 -1.1969
  926MOL0     H24989   5.951   9.651   4.024  0.1317  0.9044 -0.1957
  926MOL0     H24990   6.106   9.827   4.136  1.1239 -0.3369  1.2864
  926MOL0     H24991   6.094   9.667   4.208 -0.6662 -1.2391 -0.3380
  926MOL0     H24992   5.256   9.679   4.605 -1.8305  0.6257  0.7765
  926MOL0     H24993   5.024   9.756   4.633 -0.8581  1.6315 -2.3017
  926MOL0     H24994   4.573   9.657   4.379  0.2359  0.4283  0.5141
  926MOL0     H24995   4.351   9.671   4.369  0.7801 -2.9243 -1.6263
  926MOL0     H24996   3.461   8.449   4.825  2.2860 -1.4187 -4.8282
  926MOL0     H24997   3.630   8.279   4.810 -0.2475  0.9235 -1.3341
  926MOL0     H24998   4.233   8.197   5.050 -1.1385 -1.5996  0.8201
  926MOL0     H24999   4.433   8.094   4.927  0.5622  1.8632 -0.2094
  926MOL0     H25000   4.370   7.833   4.768  2.1615 -3.7026 -0.0571
  926MOL0     H25001   4.462   7.814   4.615 -3.9472 -1.5976 -1.0868
  926MOL0     H25002   4.577   7.758   4.845 -2.9359  1.2770  2.6114
  926MOL0     H25003   4.563   7.931   4.869 -2.2338 -1.2597  1.8124
  926MOL0     H25004   4.667   7.949   4.626 -1.0193 -0.2068  2.1020
  926MOL0     H25005   4.718   7.784   4.656  0.1809  0.5385  0.4225
  926MOL0     H25006   4.830   7.858   4.863  1.0575  2.2516  0.6154
  926MOL0     H25007   4.814   8.025   4.814 -0.2689 -1.2880  3.0384
  926MOL0     H25008   5.102   7.814   4.552 -0.4750  0.1257 -0.7807
  926MOL0     H25009   4.195   8.055   4.575 -0.4106 -1.0443  0.6550
  926MOL0     H25010   4.007   8.170   4.695  0.1116  0.8599  0.1801
  927MOL0     O25011   8.697   0.204   3.783  0.2453  0.1011 -0.3222
  927MOL0     C25012   8.729   0.219   3.905  0.1708  1.2358 -0.2077
  927MOL0     O25013   8.684   0.322   3.985  0.1127  0.0799 -0.3576
  927MOL0     C25014   8.588   0.408   3.949 -0.3189  0.4338  0.6653
  927MOL0     C25015   8.600   0.532   3.991  0.0806  0.0890 -0.7881
  927MOL0     C25016   8.502   0.627   3.965 -0.4386 -0.6732  0.1985
  927MOL0     C25017   8.390   0.598   3.884 -0.1737 -0.1071  0.7237
  927MOL0     O25018   8.293   0.691   3.856 -0.5513 -0.2290  0.2356
  927MOL0     C25019   8.334   0.827   3.844 -0.0169  0.3179  0.5284
  927MOL0     C25020   8.223   0.921   3.783  0.4682 -0.1489 -0.2185
  927MOL0     C25021   8.287   1.050   3.736  0.0299  0.5152 -0.4425
  927MOL0     C25022   8.178   1.149   3.693  0.0517 -0.8206 -0.3163
  927MOL0     C25023   8.246   1.286   3.665  0.1738 -0.1834  0.3672
  927MOL0     C25024   8.149   1.390   3.690  0.4740 -0.0756 -1.0647
  927MOL0     C25025   8.210   1.527   3.690  1.2373 -0.2318 -0.0324
  927MOL0     C25026   8.109   1.637   3.722  0.4128 -0.2765 -0.1571
  927MOL0     N25027   7.974   1.623   3.669 -0.0070  0.7814 -0.2273
  927MOL0     C25028   7.882   1.539   3.717  0.2901 -0.3761  0.2024
  927MOL0     C25029   7.781   1.541   3.625 -0.5501 -0.0722  0.0274
  927MOL0     C25030   7.662   1.452   3.633 -0.2142  0.0948  0.1892
  927MOL0     C25031   7.534   1.523   3.653 -0.1134  0.0311  0.5531
  927MOL0     C25032   7.408   1.437   3.676  0.4271  0.4296  0.0136
  927MOL0     C25033   7.288   1.520   3.686 -0.7272 -0.4004  0.6098
  927MOL0     O25034   7.179   1.430   3.713  0.0790  0.2356 -0.4866
  927MOL0     C25035   7.050   1.484   3.725  0.1769  0.1740 -0.6641
  927MOL0     C25036   7.010   1.614   3.710 -0.1753  0.2649 -0.8302
  927MOL0     C25037   6.877   1.652   3.718 -0.5885 -0.9872 -0.1666
  927MOL0     C25038   6.847   1.803   3.697  0.1533 -0.1641  0.7159
  927MOL0     C25039   6.779   1.556   3.741 -0.3159 -0.0997  0.3561
  927MOL0     C25040   6.635   1.596   3.748 -0.2309 -0.8570 -0.9367
  927MOL0     O25041   6.557   1.512   3.679  1.3842 -0.0604 -0.1006
  927MOL0     C25042   6.424   1.554   3.680 -0.2757 -0.9726 -0.1440
  927MOL0     C25043   6.392   1.678   3.613 -0.0893 -0.0156 -0.3051
  927MOL0     C25044   6.257   1.727   3.612 -0.1435 -0.2572  0.3549
  927MOL0     C25045   6.154   1.661   3.681  0.6162 -0.6983 -1.0944
  927MOL0     O25046   6.026   1.705   3.688 -0.1326  0.0912  0.4109
  927MOL0     C25047   5.947   1.686   3.806 -0.8690 -0.1713 -0.4266
  927MOL0     C25048   5.820   1.752   3.799 -0.3915  0.1425 -0.2708
  927MOL0     C25049   5.733   1.694   3.912  1.0652  0.4467 -0.5120
  927MOL0     C25050   5.583   1.725   3.908 -0.3037 -0.6680  0.9258
  927MOL0     C25051   5.499   1.628   3.992  0.2987 -0.6794  0.2662
  927MOL0     C25052   5.354   1.631   3.948 -0.5575  0.6744  1.0511
  927MOL0     C25053   5.279   1.763   3.965 -0.2075  0.5946 -0.0022
  927MOL0     C25054   5.130   1.743   3.939  0.5539  0.1322 -0.6673
  927MOL0    Cl25055   5.095   1.703   3.766  0.3794  0.1022  0.2416
  927MOL0     C25056   6.189   1.532   3.734 -0.4463 -0.2312 -0.4860
  927MOL0     C25057   6.319   1.485   3.737  0.1293  0.7641  0.3706
  927MOL0     O25058   6.598   1.697   3.813 -0.3428  0.4403 -0.1347
  927MOL0     C25059   6.819   1.422   3.758  0.0698  0.6643  0.4417
  927MOL0     C25060   6.952   1.386   3.754 -0.0649 -0.1859 -0.1877
  927MOL0     N25061   7.821   1.614   3.513  0.1814 -0.2787 -0.3178
  927MOL0     N25062   7.937   1.662   3.544  0.6416 -0.7879 -0.7279
  927MOL0     C25063   8.367   0.468   3.843  0.2863 -0.1527  0.2795
  927MOL0     C25064   8.468   0.373   3.871 -0.5341 -0.1777 -0.3979
  927MOL0     C25065   8.837   0.126   3.953  0.2592  0.2227  0.3370
  927MOL0     C25066   8.904   0.044   3.866  0.9453  0.9040  0.2188
  927MOL0     C25067   9.008  -0.040   3.902  0.0563 -0.0645 -0.4790
  927MOL0     C25068   9.046  -0.042   4.038  0.3431 -0.6245 -0.2631
  927MOL0     O25069   9.151  -0.122   4.080  0.3754  0.5142 -0.0886
  927MOL0     C25070   9.273  -0.071   4.033 -0.3489 -0.1741  0.7716
  927MOL0     C25071   9.398  -0.160   4.075  0.9026 -0.1026  0.7226
  927MOL0     C25072   9.374  -0.308   4.056 -0.6126  0.2371 -0.6032
  927MOL0     C25073   9.420  -0.356   3.923 -0.5168 -0.1010  0.0008
  927MOL0     C25074   9.569  -0.336   3.891 -0.0414 -0.5756  0.8666
  927MOL0     C25075   9.682  -0.325   3.875  1.0187  0.4010  0.1095
  927MOL0     C25076   8.978   0.038   4.137 -0.0881  0.5979 -0.2928
  927MOL0     C25077   8.878   0.127   4.085  0.1336  0.5950 -1.0740
  927MOL0     H25078   8.677   0.572   4.056  1.6144 -0.3169 -2.2974
  927MOL0     H25079   8.513   0.723   4.013 -1.9551  1.4420 -3.2882
  927MOL0     H25080   8.363   0.859   3.944  0.7530 -0.6527  0.6298
  927MOL0     H25081   8.417   0.832   3.773  0.3084  2.0605  0.9736
  927MOL0     H25082   8.188   0.871   3.692  1.3170  1.3259 -1.3911
  927MOL0     H25083   8.146   0.941   3.859 -0.2153  0.5807 -1.0909
  927MOL0     H25084   8.343   1.085   3.824 -0.4189 -0.8199  0.4088
  927MOL0     H25085   8.359   1.024   3.658  0.2893 -0.4181  0.0944
  927MOL0     H25086   8.138   1.109   3.600  1.5833 -0.1981 -1.2878
  927MOL0     H25087   8.102   1.149   3.772 -0.1093  3.8742 -0.2000
  927MOL0     H25088   8.336   1.303   3.725  0.8218  0.0460 -0.6491
  927MOL0     H25089   8.283   1.285   3.563  2.0039  2.3320  0.8991
  927MOL0     H25090   8.059   1.380   3.628 -0.2253  2.0654 -0.4736
  927MOL0     H25091   8.103   1.381   3.789 -1.3900 -3.2717 -2.0647
  927MOL0     H25092   8.286   1.527   3.769 -0.6890 -4.6362  2.1533
  927MOL0     H25093   8.250   1.548   3.590 -0.3695 -2.8684 -1.3468
  927MOL0     H25094   8.151   1.736   3.701  1.4247 -0.3988  1.1389
  927MOL0     H25095   8.092   1.625   3.830 -0.0929 -0.2530 -0.2323
  927MOL0     H25096   7.889   1.475   3.805 -2.2037  0.0974  0.8353
  927MOL0     H25097   7.651   1.405   3.535  0.6820 -1.0496  0.6218
  927MOL0     H25098   7.686   1.389   3.719  2.4535 -0.3079 -0.7446
  927MOL0     H25099   7.533   1.587   3.565  3.4311  2.0671  1.7787
  927MOL0     H25100   7.554   1.596   3.733  0.6170 -0.8119  1.1513
  927MOL0     H25101   7.421   1.382   3.770 -1.9866  0.0708  0.1792
  927MOL0     H25102   7.398   1.364   3.596 -0.1054 -0.0187  0.4829
  927MOL0     H25103   7.278   1.556   3.583  1.1323 -1.3468  0.0330
  927MOL0     H25104   7.305   1.602   3.756 -0.3683 -0.6368  0.8048
  927MOL0     H25105   7.095   1.679   3.690 -0.9359  2.1507  1.5952
  927MOL0     H25106   6.931   1.851   3.647 -1.6331 -0.3928 -2.8275
  927MOL0     H25107   6.768   1.809   3.622 -0.2709  1.0103  1.2334
  927MOL0     H25108   6.818   1.847   3.793  1.0688 -2.2765  2.0290
  927MOL0     H25109   6.461   1.742   3.557 -4.0987  1.3115 -4.3084
  927MOL0     H25110   6.236   1.820   3.561 -1.5954  0.0356  1.4404
  927MOL0     H25111   5.929   1.578   3.817 -1.1228 -0.1691 -0.7986
  927MOL0     H25112   6.004   1.715   3.895  1.3017 -0.1118 -1.7846
  927MOL0     H25113   5.822   1.860   3.816 -1.2029  0.1647 -0.2712
  927MOL0     H25114   5.778   1.722   3.703 -1.4152  1.1252 -0.1451
  927MOL0     H25115   5.771   1.719   4.011 -1.1469 -0.3465  0.5918
  927MOL0     H25116   5.748   1.585   3.913 -1.6695 -0.0180 -1.4048
  927MOL0     H25117   5.567   1.831   3.931  0.2959 -0.5875  0.9929
  927MOL0     H25118   5.549   1.722   3.804 -0.0034 -0.5652  0.8255
  927MOL0     H25119   5.508   1.650   4.099 -0.7251 -2.9752  0.8841
  927MOL0     H25120   5.525   1.522   3.982  1.4254 -0.5896  1.8108
  927MOL0     H25121   5.344   1.596   3.845 -0.4322  2.0535  0.5516
  927MOL0     H25122   5.298   1.563   4.013  0.0837 -1.4910 -0.5435
  927MOL0     H25123   5.312   1.842   3.898 -1.3097  1.2843  0.2399
  927MOL0     H25124   5.271   1.796   4.069 -0.1807  1.9621 -0.4201
  927MOL0     H25125   5.076   1.835   3.962 -3.0036 -1.7436 -0.7865
  927MOL0     H25126   5.079   1.667   3.999  0.8505  1.1643  0.9620
  927MOL0     H25127   6.109   1.469   3.771  0.0014 -1.7657 -2.0218
  927MOL0     H25128   6.331   1.389   3.786 -0.6411  1.5903  2.2687
  927MOL0     H25129   6.740   1.347   3.764 -0.4005  0.9641 -1.4249
  927MOL0     H25130   6.980   1.286   3.785  0.7927 -0.2817 -1.1714
  927MOL0     H25131   8.274   0.445   3.793  0.9956  0.9859 -1.6486
  927MOL0     H25132   8.462   0.269   3.843 -2.2933 -0.1442 -0.2768
  927MOL0     H25133   8.880   0.046   3.760  1.8973  0.6815 -0.0104
  927MOL0     H25134   9.055  -0.103   3.827  1.6128 -0.5253  0.8394
  927MOL0     H25135   9.273  -0.067   3.923  0.1913  1.5843  0.7996
  927MOL0     H25136   9.289   0.034   4.061  0.2665 -0.4244  1.3883
  927MOL0     H25137   9.401  -0.150   4.183 -4.0625 -2.1975  1.3486
  927MOL0     H25138   9.484  -0.120   4.021 -0.4747  1.0685 -0.7131
  927MOL0     H25139   9.268  -0.336   4.064 -1.1191  1.4986 -2.2983
  927MOL0     H25140   9.434  -0.355   4.134 -1.2314  1.0190  0.3741
  927MOL0     H25141   9.358  -0.305   3.849  0.5285  1.0214 -0.1140
  927MOL0     H25142   9.399  -0.464   3.917 -0.1545 -0.2838  1.6922
  927MOL0     H25143   9.788  -0.305   3.878  1.2938 -0.9256 -0.2567
  927MOL0     H25144   9.013   0.034   4.239  0.2935  0.2757 -0.4293
  927MOL0     H25145   8.818   0.193   4.146  0.3123  0.2035 -0.4619
  928MOL0     O25146  10.179   2.708   3.511 -0.5545 -0.2863  0.2883
  928MOL0     C25147  10.257   2.622   3.548  0.2978 -0.1460  0.7377
  928MOL0     O25148  10.228   2.495   3.581 -0.7451  0.1525  0.1588
  928MOL0     C25149  10.107   2.439   3.572 -0.1393 -0.4078  0.0302
  928MOL0     C25150  10.034   2.448   3.451  0.1216  0.2188  0.3785
  928MOL0     C25151   9.910   2.378   3.445  0.3646  0.1474  0.3176
  928MOL0     C25152   9.862   2.306   3.554  0.2209  0.2566  0.2148
  928MOL0     O25153   9.740   2.231   3.557  0.3279 -0.6345  0.5656
  928MOL0     C25154   9.678   2.185   3.436 -0.0436  0.2524  0.0027
  928MOL0     C25155   9.754   2.063   3.379  0.2025  0.8529  0.2085
  928MOL0     C25156   9.682   1.996   3.257  0.7786 -0.0431 -0.9991
  928MOL0     C25157   9.538   1.946   3.296  0.0761 -0.1303  0.0314
  928MOL0     C25158   9.477   1.879   3.172  0.0126  0.0428  0.3296
  928MOL0     C25159   9.325   1.861   3.188  0.0906 -0.2939  0.0955
  928MOL0     C25160   9.295   1.764   3.298 -1.0515 -0.3232  0.4451
  928MOL0     C25161   9.150   1.716   3.289  0.2070 -0.0486 -0.6722
  928MOL0     N25162   9.052   1.816   3.314 -0.3701 -0.5041 -0.0345
  928MOL0     C25163   9.033   1.880   3.434 -0.2439 -0.1206 -0.4898
  928MOL0     C25164   8.936   1.969   3.407 -0.0503  0.0967  0.7643
  928MOL0     C25165   8.881   2.075   3.494 -0.8596  0.3276 -0.3717
  928MOL0     C25166   8.737   2.047   3.530 -0.7742 -0.4324 -0.4634
  928MOL0     C25167   8.700   2.159   3.629  0.6936  0.4822 -1.1368
  928MOL0     C25168   8.564   2.149   3.684 -0.3213  0.1194  0.3842
  928MOL0     O25169   8.539   2.035   3.761 -0.0934 -0.4761  0.4427
  928MOL0     C25170   8.413   2.008   3.808  0.6587  0.4242  0.1164
  928MOL0     C25171   8.398   1.915   3.909 -0.6257 -0.6194  0.2618
  928MOL0     C25172   8.277   1.869   3.964 -0.2726  0.5633  0.2750
  928MOL0     C25173   8.299   1.765   4.075 -0.6973 -0.4662  1.0081
  928MOL0     C25174   8.152   1.927   3.913  0.0018 -0.0514 -0.6633
  928MOL0     C25175   8.011   1.891   3.946 -0.1943  0.3926  0.1787
  928MOL0     O25176   7.906   1.942   3.859 -0.2640  0.3629 -0.0308
  928MOL0     C25177   7.775   1.934   3.903  1.0678 -0.8447 -0.0842
  928MOL0     C25178   7.735   2.030   3.998 -0.2210  0.9424  0.0996
  928MOL0     C25179   7.595   2.053   4.026  0.0826  0.5059 -0.5665
  928MOL0     C25180   7.495   1.977   3.956  0.3399 -0.7113 -0.7600
  928MOL0     O25181   7.362   2.000   3.981  0.0613 -0.0991 -0.5557
  928MOL0     C25182   7.276   1.880   3.998 -0.7803 -0.7849  0.5692
  928MOL0     C25183   7.143   1.938   4.040  0.1906 -0.3491  0.2270
  928MOL0     C25184   7.041   1.831   4.059  0.7937  0.3811  0.2438
  928MOL0     C25185   6.906   1.876   4.102  0.1532 -0.1494  0.4602
  928MOL0     C25186   6.809   1.767   4.156  0.3892 -0.4526 -0.0946
  928MOL0     C25187   6.669   1.824   4.172  0.4167  1.3073 -0.2867
  928MOL0     C25188   6.585   1.733   4.268 -0.0983  0.8040 -0.2264
  928MOL0     C25189   6.434   1.732   4.231  0.3258  1.0591  0.7887
  928MOL0    Cl25190   6.346   1.881   4.269  0.2800 -0.0150  0.1470
  928MOL0     C25191   7.535   1.897   3.857  0.3972 -0.2129  0.9269
  928MOL0     C25192   7.679   1.875   3.819 -0.2833  0.8170 -0.3047
  928MOL0     O25193   7.991   1.815   4.043 -0.0039  0.0902 -0.0035
  928MOL0     C25194   8.171   2.029   3.812  0.0168  0.2263 -0.9004
  928MOL0     C25195   8.296   2.062   3.758 -0.1925 -0.0518 -0.2725
  928MOL0     N25196   8.894   1.949   3.275  0.3975 -0.5098  0.1716
  928MOL0     N25197   8.962   1.862   3.221  0.2523 -0.0400  0.5739
  928MOL0     C25198   9.932   2.316   3.668 -0.4201  0.3329 -0.2098
  928MOL0     C25199  10.062   2.370   3.680  0.2815 -0.3454  0.1743
  928MOL0     C25200  10.397   2.658   3.554 -0.2264  0.5988 -0.3359
  928MOL0     C25201  10.503   2.570   3.559  0.5595  0.0795 -0.1008
  928MOL0     C25202  10.641   2.604   3.557  0.6396 -0.3217 -0.6790
  928MOL0     C25203  10.676   2.739   3.534  0.4777  0.5755  0.8424
  928MOL0     O25204  10.801   2.773   3.491 -0.5547 -0.7053 -0.2290
  928MOL0     C25205  10.907   2.677   3.512  0.1308 -0.4659 -0.1059
  928MOL0     C25206  11.048   2.738   3.472  0.4003 -0.3080 -0.7122
  928MOL0     C25207  11.158   2.640   3.459 -0.2063  0.8452  0.4187
  928MOL0     C25208  11.144   2.531   3.339 -0.3769 -1.0627 -0.7362
  928MOL0     C25209  11.160   2.592   3.206  0.6398 -0.0331 -0.0036
  928MOL0     C25210  11.179   2.654   3.101 -0.4744  0.9074  0.3301
  928MOL0     C25211  10.574   2.833   3.547  0.9820  0.2808 -0.2190
  928MOL0     C25212  10.438   2.795   3.554  0.7264 -0.4455  0.5531
  928MOL0     H25213  10.057   2.516   3.369 -3.3457  0.5411 -0.5147
  928MOL0     H25214   9.845   2.378   3.358 -1.6287  1.0457  1.7515
  928MOL0     H25215   9.577   2.153   3.464 -0.1610  1.2361  0.7619
  928MOL0     H25216   9.672   2.265   3.361  2.4153  0.4148 -0.0898
  928MOL0     H25217   9.858   2.088   3.360  0.1417 -0.4673 -2.2694
  928MOL0     H25218   9.748   1.984   3.454 -1.5795 -0.2271 -0.9947
  928MOL0     H25219   9.687   2.056   3.165 -1.2375  0.3105 -0.9414
  928MOL0     H25220   9.722   1.896   3.238  1.2770 -0.0718  0.1481
  928MOL0     H25221   9.535   1.865   3.370 -0.8784  0.1625  0.3289
  928MOL0     H25222   9.470   2.024   3.331 -0.8694 -0.0742 -1.7867
  928MOL0     H25223   9.499   1.940   3.084  0.9221 -0.5103  0.1578
  928MOL0     H25224   9.526   1.783   3.156  3.9839  1.9145 -0.1761
  928MOL0     H25225   9.275   1.957   3.204 -2.6392 -1.2681 -1.9505
  928MOL0     H25226   9.278   1.831   3.094 -0.1292  0.9496 -0.2166
  928MOL0     H25227   9.364   1.679   3.284 -1.2293 -0.2046 -1.2713
  928MOL0     H25228   9.320   1.822   3.388 -0.1513  0.3523 -0.2276
  928MOL0     H25229   9.145   1.637   3.365  0.2623  2.3826  2.0291
  928MOL0     H25230   9.133   1.670   3.192 -0.3009  0.3037 -0.7567
  928MOL0     H25231   9.071   1.854   3.532  1.1321  2.5281 -0.2193
  928MOL0     H25232   8.935   2.073   3.590 -0.6133 -1.5726 -0.5146
  928MOL0     H25233   8.909   2.172   3.451  1.0237  1.3665  2.8203
  928MOL0     H25234   8.740   1.948   3.577 -2.4124 -0.1899  0.2133
  928MOL0     H25235   8.673   2.038   3.442 -0.5236 -0.0119 -0.6952
  928MOL0     H25236   8.707   2.253   3.574 -0.5716  0.6511 -1.0431
  928MOL0     H25237   8.769   2.156   3.714  1.0606 -0.1604 -1.4487
  928MOL0     H25238   8.497   2.151   3.598  1.4107 -0.2824 -1.0147
  928MOL0     H25239   8.547   2.236   3.749  1.8095  1.2870 -0.5420
  928MOL0     H25240   8.489   1.870   3.947  0.6408  1.5027 -0.1066
  928MOL0     H25241   8.397   1.772   4.124  0.0428 -0.8282 -0.3570
  928MOL0     H25242   8.220   1.771   4.151 -3.0678  0.9025 -1.4090
  928MOL0     H25243   8.300   1.667   4.025 -0.8389  0.0873 -0.0962
  928MOL0     H25244   7.813   2.081   4.055  2.7488 -0.2405 -2.5684
  928MOL0     H25245   7.569   2.116   4.110  2.2063 -1.8456  2.0661
  928MOL0     H25246   7.265   1.825   3.904 -0.1037  0.8545 -0.5299
  928MOL0     H25247   7.314   1.814   4.077 -0.2805 -1.0138  0.1438
  928MOL0     H25248   7.153   1.995   4.132 -0.2259 -0.3992  0.3036
  928MOL0     H25249   7.112   1.999   3.955  1.9000 -1.0652 -0.9769
  928MOL0     H25250   7.083   1.759   4.130  0.2880  1.2880  1.4993
  928MOL0     H25251   7.037   1.779   3.963 -0.2939  1.2174 -0.1813
  928MOL0     H25252   6.911   1.955   4.178 -1.2988 -0.1851  0.6171
  928MOL0     H25253   6.844   1.922   4.024 -0.6259 -1.6751  0.1482
  928MOL0     H25254   6.853   1.745   4.254  1.1846  2.6417  0.3533
  928MOL0     H25255   6.800   1.682   4.088 -1.4331  0.2364 -0.7785
  928MOL0     H25256   6.658   1.924   4.215 -0.9712  0.1547  2.2888
  928MOL0     H25257   6.620   1.834   4.075  0.5853  3.7965 -0.1895
  928MOL0     H25258   6.604   1.774   4.368  0.8204  2.2699 -0.9734
  928MOL0     H25259   6.618   1.629   4.257 -2.1743  0.1836 -1.0874
  928MOL0     H25260   6.373   1.657   4.282  0.6128  0.0835 -0.2786
  928MOL0     H25261   6.421   1.722   4.123  0.3222  2.1602  0.6717
  928MOL0     H25262   7.459   1.859   3.789 -0.3892 -0.5905  1.9948
  928MOL0     H25263   7.713   1.820   3.732 -1.8525 -0.3251 -0.2569
  928MOL0     H25264   8.089   2.082   3.764  0.6037  0.6221 -1.4828
  928MOL0     H25265   8.295   2.137   3.679 -2.8954  1.9404  1.4543
  928MOL0     H25266   9.886   2.267   3.753  2.4913  0.2558  1.4337
  928MOL0     H25267  10.103   2.351   3.779  0.5132 -1.0597 -0.0492
  928MOL0     H25268  10.485   2.463   3.554 -0.4900  0.3014 -2.4287
  928MOL0     H25269  10.709   2.521   3.543 -0.4802 -1.5352  0.7248
  928MOL0     H25270  10.901   2.651   3.618 -1.8326  0.3737  0.0293
  928MOL0     H25271  10.893   2.589   3.448 -1.2829  0.6060 -1.3062
  928MOL0     H25272  11.070   2.826   3.534  3.2957 -0.0807 -1.8890
  928MOL0     H25273  11.025   2.783   3.376 -1.5524 -0.7635 -0.5018
  928MOL0     H25274  11.159   2.598   3.560 -1.8129  1.8157  0.8689
  928MOL0     H25275  11.253   2.695   3.451  1.4063 -0.9875  4.3665
  928MOL0     H25276  11.044   2.488   3.342 -0.8693  0.0998  0.3874
  928MOL0     H25277  11.214   2.449   3.359  1.0539  0.1839 -0.4325
  928MOL0     H25278  11.215   2.701   3.011 -0.7141  1.1918  0.3802
  928MOL0     H25279  10.599   2.939   3.554  4.2329 -0.4548  1.0761
  928MOL0     H25280  10.367   2.877   3.560  3.6543  2.2501  1.0133
  929MOL0     O25281   3.843   7.433   5.578  0.0621 -0.4343 -0.1941
  929MOL0     C25282   3.943   7.495   5.544 -0.4224 -0.6153 -1.0011
  929MOL0     O25283   3.944   7.606   5.480 -0.2820 -0.5332 -0.0113
  929MOL0     C25284   3.822   7.671   5.474 -0.1524 -0.1674  0.4321
  929MOL0     C25285   3.766   7.715   5.595 -0.5690 -0.7599 -0.4104
  929MOL0     C25286   3.640   7.781   5.596 -0.2790 -1.2472  0.2270
  929MOL0     C25287   3.577   7.816   5.474 -0.1738  1.4689 -0.0200
  929MOL0     O25288   3.469   7.893   5.471 -0.7629  0.5486 -0.2412
  929MOL0     C25289   3.513   8.031   5.454  0.0336  0.4201  0.0342
  929MOL0     C25290   3.458   8.102   5.575  0.5061 -0.7241 -0.2169
  929MOL0     C25291   3.475   8.257   5.574  0.3066 -0.6504 -0.9054
  929MOL0     C25292   3.467   8.315   5.719 -0.3776  0.2315  0.2109
  929MOL0     C25293   3.441   8.468   5.717 -0.3642  0.2906  0.8034
  929MOL0     C25294   3.307   8.522   5.676 -0.0728 -0.7761  0.1165
  929MOL0     C25295   3.218   8.533   5.797 -0.7375  0.3147  0.4099
  929MOL0     C25296   3.126   8.652   5.780  0.1690  0.1800  0.1857
  929MOL0     N25297   3.012   8.639   5.698 -0.3298 -0.2419  0.3124
  929MOL0     C25298   3.007   8.650   5.562 -0.3650  0.3019  0.0524
  929MOL0     C25299   2.884   8.692   5.526 -0.7297 -0.9035 -1.0733
  929MOL0     C25300   2.832   8.677   5.390 -0.3356 -0.7796 -0.2912
  929MOL0     C25301   2.855   8.795   5.293 -0.0887 -0.2881 -0.2775
  929MOL0     C25302   2.777   8.787   5.162  0.3371  0.2052 -0.7416
  929MOL0     C25303   2.772   8.649   5.096  0.5430  0.7271  0.3135
  929MOL0     O25304   2.731   8.693   4.963 -0.4841 -0.2211 -0.0197
  929MOL0     C25305   2.614   8.637   4.924  0.1696  0.1643  0.9675
  929MOL0     C25306   2.540   8.706   4.834  0.0426 -0.3743 -0.2982
  929MOL0     C25307   2.425   8.659   4.769  0.2161  0.0161 -1.1433
  929MOL0     C25308   2.358   8.753   4.670  0.0463 -0.1876 -0.8780
  929MOL0     C25309   2.393   8.533   4.788  0.3867 -0.1699 -0.0818
  929MOL0     C25310   2.269   8.468   4.742  0.3132  0.2965 -0.6559
  929MOL0     O25311   2.165   8.551   4.705  0.4005  0.6228 -0.5148
  929MOL0     C25312   2.046   8.494   4.678 -0.1248  0.6719 -0.0431
  929MOL0     C25313   1.999   8.481   4.549 -0.0796 -0.5861  0.4568
  929MOL0     C25314   1.863   8.451   4.521  0.2146  0.2561 -0.2194
  929MOL0     C25315   1.776   8.420   4.628 -0.4264 -0.1426  0.7616
  929MOL0     O25316   1.641   8.399   4.606 -0.1198  0.4365  0.0346
  929MOL0     C25317   1.550   8.421   4.716 -0.5611  0.8234 -0.2770
  929MOL0     C25318   1.422   8.477   4.659  0.5527 -0.0494  0.2251
  929MOL0     C25319   1.317   8.505   4.770  0.5720 -1.0582 -0.1221
  929MOL0     C25320   1.195   8.551   4.704  0.1576  1.2257 -0.3532
  929MOL0     C25321   1.064   8.568   4.784  0.0263 -0.6395 -0.2158
  929MOL0     C25322   0.940   8.596   4.692 -0.1815  0.6284 -0.7840
  929MOL0     C25323   0.812   8.603   4.782 -0.7973  0.0810  0.2737
  929MOL0     C25324   0.689   8.634   4.696 -0.9443  1.0278  0.0484
  929MOL0    Cl25325   0.539   8.638   4.795  0.0186  0.1544  0.2720
  929MOL0     C25326   1.831   8.416   4.756 -0.1346  0.9677 -1.0642
  929MOL0     C25327   1.963   8.458   4.784  0.2291 -0.3566 -0.1273
  929MOL0     O25328   2.267   8.349   4.732  0.7124 -0.1000  0.1832
  929MOL0     C25329   2.479   8.450   4.861 -0.4502  0.5193 -0.7280
  929MOL0     C25330   2.586   8.505   4.923 -0.3116  0.4136 -0.7659
  929MOL0     N25331   2.810   8.715   5.637  0.0092  0.4763  0.2330
  929MOL0     N25332   2.886   8.683   5.738  0.5086 -0.3528 -0.6745
  929MOL0     C25333   3.637   7.778   5.357  0.2871 -0.7538  0.1717
  929MOL0     C25334   3.758   7.710   5.353  0.4660  0.4766  0.2633
  929MOL0     C25335   4.076   7.425   5.559  0.2518  0.4734  0.1126
  929MOL0     C25336   4.082   7.305   5.624 -0.3700 -1.0480 -0.2136
  929MOL0     C25337   4.208   7.244   5.633  0.1846  1.0270 -0.1511
  929MOL0     C25338   4.326   7.294   5.575  0.3913  0.3464 -0.2530
  929MOL0     O25339   4.449   7.235   5.562  0.8870  0.0100  0.0965
  929MOL0     C25340   4.462   7.093   5.538  0.6353 -0.1570 -0.6717
  929MOL0     C25341   4.613   7.078   5.493  0.3096 -0.5214  0.0125
  929MOL0     C25342   4.710   7.117   5.598  0.5001 -0.1713  0.2522
  929MOL0     C25343   4.860   7.111   5.558  0.1113 -0.2646 -0.0021
  929MOL0     C25344   4.878   7.192   5.433 -0.2220 -0.2808  0.1967
  929MOL0     C25345   4.891   7.257   5.332  1.1264 -0.0684  0.0795
  929MOL0     C25346   4.311   7.415   5.499  0.4343 -0.0443  0.2479
  929MOL0     C25347   4.187   7.480   5.492  0.4222 -0.6041  0.8101
  929MOL0     H25348   3.808   7.690   5.692 -3.2030 -3.4130  0.2083
  929MOL0     H25349   3.593   7.799   5.692  1.6852  1.1778  0.8594
  929MOL0     H25350   3.622   8.042   5.452 -0.0089  0.7778 -0.3860
  929MOL0     H25351   3.477   8.067   5.357  0.0161 -1.3890 -0.6574
  929MOL0     H25352   3.352   8.082   5.592 -0.2091  1.2321 -1.9950
  929MOL0     H25353   3.504   8.062   5.667 -0.3475 -2.5393 -0.5396
  929MOL0     H25354   3.575   8.284   5.538 -0.1327  0.8854 -1.0472
  929MOL0     H25355   3.403   8.312   5.514  1.7098  2.7952  0.2583
  929MOL0     H25356   3.383   8.265   5.769 -0.9715  1.0930  0.0930
  929MOL0     H25357   3.560   8.288   5.770 -0.8744  0.0281  1.0250
  929MOL0     H25358   3.470   8.496   5.818  1.7598 -1.5664  0.7808
  929MOL0     H25359   3.515   8.517   5.653  0.9967 -0.7957  1.4984
  929MOL0     H25360   3.324   8.626   5.646 -3.7993 -0.2257 -0.5999
  929MOL0     H25361   3.268   8.458   5.597  0.2314 -0.6350 -0.1473
  929MOL0     H25362   3.157   8.445   5.818 -1.8614  0.9056 -0.2755
  929MOL0     H25363   3.282   8.547   5.884  2.7758 -1.7815 -1.5641
  929MOL0     H25364   3.174   8.746   5.751 -1.9550  1.4727  0.7096
  929MOL0     H25365   3.085   8.675   5.879  0.7190  2.3698 -0.0411
  929MOL0     H25366   3.088   8.610   5.500 -0.2771 -2.8664  1.9751
  929MOL0     H25367   2.894   8.595   5.352  3.0937  1.7093 -0.5326
  929MOL0     H25368   2.724   8.659   5.391 -0.3864 -0.4697  0.1597
  929MOL0     H25369   2.962   8.792   5.272  0.1639 -1.3484  1.0039
  929MOL0     H25370   2.831   8.894   5.334  2.2511  1.5426 -2.9240
  929MOL0     H25371   2.818   8.864   5.096 -2.9687  1.6550 -1.3149
  929MOL0     H25372   2.675   8.820   5.182 -0.2003 -2.6176  2.0534
  929MOL0     H25373   2.702   8.582   5.147  0.8301 -0.4069 -0.7533
  929MOL0     H25374   2.867   8.596   5.101 -1.2134 -2.9131 -0.8484
  929MOL0     H25375   2.566   8.811   4.826 -1.8299  0.0807 -1.1171
  929MOL0     H25376   2.337   8.708   4.573 -1.5596  4.4849 -2.9724
  929MOL0     H25377   2.261   8.793   4.701  0.5343  0.9976 -0.8264
  929MOL0     H25378   2.423   8.838   4.645  2.1351 -1.6647 -0.7569
  929MOL0     H25379   2.075   8.494   4.472  0.3603 -2.5679  0.4855
  929MOL0     H25380   1.829   8.456   4.419 -1.9198 -0.0608  0.4380
  929MOL0     H25381   1.527   8.324   4.760 -0.8357  0.3042 -1.5253
  929MOL0     H25382   1.583   8.486   4.797 -0.3563 -1.0397  1.2049
  929MOL0     H25383   1.438   8.576   4.617 -2.8446  0.1527 -0.9218
  929MOL0     H25384   1.385   8.412   4.580 -2.6500  0.9429  0.7346
  929MOL0     H25385   1.355   8.577   4.844  1.2528 -2.5496  1.0493
  929MOL0     H25386   1.297   8.407   4.815  1.5438 -1.8718 -1.3776
  929MOL0     H25387   1.209   8.639   4.640 -3.2007  1.7635 -0.5785
  929MOL0     H25388   1.185   8.465   4.637  3.0009 -0.7887  1.6018
  929MOL0     H25389   1.078   8.653   4.851  0.3153  0.5443 -1.7436
  929MOL0     H25390   1.044   8.481   4.849  1.3825 -1.1676 -0.4693
  929MOL0     H25391   0.957   8.692   4.643 -1.8639  0.5755 -1.5346
  929MOL0     H25392   0.931   8.514   4.621 -1.4507 -1.3513  1.5137
  929MOL0     H25393   0.828   8.678   4.859  2.5395 -1.5681  1.3956
  929MOL0     H25394   0.796   8.506   4.829  0.4432 -0.3697 -0.1740
  929MOL0     H25395   0.668   8.550   4.629  0.9482 -1.7676  2.6776
  929MOL0     H25396   0.695   8.730   4.645 -2.0574  0.4597 -1.2071
  929MOL0     H25397   1.772   8.391   4.843  2.1505  0.4252  0.4322
  929MOL0     H25398   2.004   8.481   4.882 -1.4027 -1.1646  0.7803
  929MOL0     H25399   2.456   8.346   4.882  1.1945  0.2764  0.0860
  929MOL0     H25400   2.660   8.437   4.963  1.2102  2.9945  1.1036
  929MOL0     H25401   3.590   7.818   5.267 -0.3315 -1.6487  0.0917
  929MOL0     H25402   3.807   7.686   5.259  0.7890  3.0539 -0.2788
  929MOL0     H25403   3.996   7.263   5.675 -0.7483  0.2615  0.2659
  929MOL0     H25404   4.214   7.148   5.683 -0.1117  2.1204  2.1588
  929MOL0     H25405   4.440   7.041   5.632  3.2528  0.2715  0.2813
  929MOL0     H25406   4.385   7.064   5.466 -0.9285  3.5297 -0.6952
  929MOL0     H25407   4.625   7.157   5.418 -1.2147  0.6187  0.9089
  929MOL0     H25408   4.644   6.979   5.457  1.0514 -0.2431 -0.1238
  929MOL0     H25409   4.701   7.061   5.692  2.8921  0.4615  0.9282
  929MOL0     H25410   4.690   7.220   5.626  0.9906  0.7331 -2.4155
  929MOL0     H25411   4.896   7.011   5.531 -1.9089 -1.3550  1.0954
  929MOL0     H25412   4.926   7.152   5.635  1.0731 -4.1994  1.5119
  929MOL0     H25413   4.894   7.292   5.231 -0.6549 -0.4137 -0.1219
  929MOL0     H25414   4.394   7.451   5.439  1.6785 -2.7530  0.2103
  929MOL0     H25415   4.193   7.577   5.442  0.1060 -0.7057  0.5768
  930MOL0     O25416   8.331   8.496   8.298  0.5647 -0.6024 -0.1528
  930MOL0     C25417   8.364   8.391   8.249 -1.0397 -0.2958  0.7900
  930MOL0     O25418   8.280   8.285   8.218 -0.3484  0.1266 -0.7367
  930MOL0     C25419   8.144   8.310   8.215 -0.6055  1.0120 -0.1976
  930MOL0     C25420   8.094   8.431   8.155 -0.0711  0.5079  0.4733
  930MOL0     C25421   7.954   8.441   8.130  0.1397 -0.1105  0.0140
  930MOL0     C25422   7.866   8.340   8.174 -0.3409  0.0119  1.4045
  930MOL0     O25423   7.735   8.359   8.141 -0.0699  0.4138 -0.4563
  930MOL0     C25424   7.639   8.260   8.141 -0.4952  0.8176  0.4219
  930MOL0     C25425   7.495   8.301   8.103  0.7922  0.9666 -0.5331
  930MOL0     C25426   7.409   8.362   8.218 -0.2866  0.3115  0.0296
  930MOL0     C25427   7.289   8.442   8.158 -0.2874  0.5840  1.2080
  930MOL0     C25428   7.210   8.509   8.272 -0.1015 -0.5919  1.1348
  930MOL0     C25429   7.115   8.616   8.215  0.6010  0.4802 -0.2457
  930MOL0     C25430   7.057   8.703   8.328  0.5256 -0.1273  0.2246
  930MOL0     C25431   6.909   8.728   8.311 -0.5921 -0.4115  0.5463
  930MOL0     N25432   6.829   8.607   8.341  0.3816  0.3953 -0.9120
  930MOL0     C25433   6.847   8.532   8.453  0.5549 -0.1449 -0.1203
  930MOL0     C25434   6.741   8.449   8.453  0.2175 -0.0003 -0.2153
  930MOL0     C25435   6.715   8.352   8.567  0.5000  0.0827  0.2433
  930MOL0     C25436   6.575   8.381   8.621 -0.7316  0.1112  0.5010
  930MOL0     C25437   6.556   8.281   8.734 -0.6197  0.2414  0.5014
  930MOL0     C25438   6.412   8.265   8.764 -0.8117  0.1562 -0.5693
  930MOL0     O25439   6.350   8.383   8.794 -0.2345 -0.1136 -0.2686
  930MOL0     C25440   6.217   8.405   8.817 -0.4060 -0.1813 -0.2015
  930MOL0     C25441   6.178   8.532   8.833 -0.4275  0.3832  0.6838
  930MOL0     C25442   6.046   8.570   8.859 -0.3020 -0.4652  0.7940
  930MOL0     C25443   6.022   8.715   8.881  0.6456 -1.4898  0.4685
  930MOL0     C25444   5.946   8.468   8.860 -0.3583 -0.8267 -0.1457
  930MOL0     C25445   5.805   8.502   8.893 -0.5657 -0.3565  0.7453
  930MOL0     O25446   5.738   8.409   8.964 -0.2992  1.0608 -0.2356
  930MOL0     C25447   5.598   8.411   8.977  0.0998  1.0348 -0.8803
  930MOL0     C25448   5.532   8.528   9.004  0.4398  1.1549  0.5087
  930MOL0     C25449   5.393   8.529   9.005  0.3757  0.6190  0.2481
  930MOL0     C25450   5.317   8.408   9.005 -0.7717  0.8061 -0.4141
  930MOL0     O25451   5.187   8.424   9.045 -0.1543  0.2625  0.5681
  930MOL0     C25452   5.086   8.355   8.972  0.1784  0.0184 -0.1915
  930MOL0     C25453   4.944   8.389   9.016  0.6567 -0.6349 -0.2580
  930MOL0     C25454   4.846   8.327   8.916 -0.1126 -0.1519 -0.6475
  930MOL0     C25455   4.701   8.364   8.949 -0.2770  0.0155 -0.2266
  930MOL0     C25456   4.605   8.338   8.830  0.1597  0.9812 -0.1030
  930MOL0     C25457   4.473   8.408   8.858 -0.4074 -0.6374  0.4075
  930MOL0     C25458   4.393   8.403   8.730 -0.2285 -0.1841  0.4813
  930MOL0     C25459   4.284   8.295   8.715  0.2364 -0.4037 -0.0697
  930MOL0    Cl25460   4.139   8.343   8.808 -0.6952  0.1100  0.6758
  930MOL0     C25461   5.385   8.292   8.980 -0.4551  0.3234  0.2355
  930MOL0     C25462   5.529   8.289   8.968  0.9365  0.7762  0.2273
  930MOL0     O25463   5.757   8.613   8.857 -0.5912 -0.5088 -0.4061
  930MOL0     C25464   5.986   8.333   8.839 -0.2855 -0.2574 -0.1053
  930MOL0     C25465   6.124   8.305   8.826  0.8099  1.0807  0.1346
  930MOL0     N25466   6.659   8.469   8.337 -0.0840  0.3247 -0.2863
  930MOL0     N25467   6.723   8.553   8.265 -0.6386 -0.5775 -0.5713
  930MOL0     C25468   7.918   8.223   8.238 -0.2341 -0.6251 -1.3682
  930MOL0     C25469   8.061   8.210   8.258 -0.0971 -0.8066  0.2599
  930MOL0     C25470   8.507   8.366   8.250 -0.7357 -0.1428  0.0720
  930MOL0     C25471   8.563   8.240   8.271 -0.2833 -0.1566  0.3613
  930MOL0     C25472   8.704   8.223   8.274  0.3303 -0.0737 -0.3154
  930MOL0     C25473   8.792   8.328   8.258 -0.5323 -0.6328 -0.8516
  930MOL0     O25474   8.927   8.290   8.258  0.5943 -0.0523 -0.2064
  930MOL0     C25475   9.039   8.383   8.263  0.0048 -0.2516 -0.1964
  930MOL0     C25476   9.035   8.476   8.384  0.5026 -0.2987 -0.2661
  930MOL0     C25477   9.148   8.574   8.387  0.3635  0.0055 -0.3206
  930MOL0     C25478   9.123   8.673   8.501 -0.6072  0.6297  0.7105
  930MOL0     C25479   9.240   8.753   8.511 -0.0243  0.0452 -0.2491
  930MOL0     C25480   9.328   8.837   8.526 -0.2434  0.1182  0.7530
  930MOL0     C25481   8.736   8.459   8.230 -0.0736  0.6476  0.8015
  930MOL0     C25482   8.595   8.475   8.231 -0.0981 -0.0752  0.2601
  930MOL0     H25483   8.173   8.494   8.115  2.6358 -2.8118  0.0349
  930MOL0     H25484   7.913   8.531   8.085  2.3104  0.3527 -1.1297
  930MOL0     H25485   7.664   8.191   8.060 -2.0036  1.5138 -0.6910
  930MOL0     H25486   7.632   8.197   8.230  0.1180 -1.8105 -1.3005
  930MOL0     H25487   7.489   8.373   8.021  1.7669  1.1337 -0.4679
  930MOL0     H25488   7.453   8.202   8.079  4.7985 -0.5886 -2.0816
  930MOL0     H25489   7.379   8.281   8.287  3.0278  0.0102  1.3192
  930MOL0     H25490   7.471   8.436   8.270 -0.4241 -1.0021  2.2100
  930MOL0     H25491   7.338   8.516   8.094 -2.1810  0.1884 -0.8263
  930MOL0     H25492   7.223   8.378   8.099 -0.6076  2.3895 -0.5010
  930MOL0     H25493   7.158   8.434   8.332 -1.2639 -0.5091  0.2525
  930MOL0     H25494   7.274   8.566   8.340 -0.4083 -0.1679  1.0663
  930MOL0     H25495   7.173   8.687   8.155  0.7361  2.0214  1.6361
  930MOL0     H25496   7.050   8.568   8.141  2.6895 -0.0307 -1.8738
  930MOL0     H25497   7.075   8.647   8.420  0.8147  0.4022  0.4962
  930MOL0     H25498   7.109   8.799   8.332  0.0698  0.0854  2.6927
  930MOL0     H25499   6.894   8.771   8.211 -0.2485 -1.9602 -0.2101
  930MOL0     H25500   6.887   8.809   8.381 -0.0927  0.8874 -0.7527
  930MOL0     H25501   6.922   8.543   8.530 -1.6847  0.2347  2.1711
  930MOL0     H25502   6.715   8.250   8.526 -2.1628  0.4368 -0.8270
  930MOL0     H25503   6.790   8.366   8.645  2.0210  2.9306 -1.5720
  930MOL0     H25504   6.502   8.370   8.540 -0.3436 -2.8451  0.4673
  930MOL0     H25505   6.554   8.483   8.656  2.3343  0.9582  0.1591
  930MOL0     H25506   6.601   8.320   8.825  1.0650 -4.1183  1.7828
  930MOL0     H25507   6.613   8.190   8.718  0.1021  1.0154 -1.6748
  930MOL0     H25508   6.409   8.199   8.852 -3.0844  2.4294  1.1796
  930MOL0     H25509   6.358   8.218   8.681 -0.4501  1.7438 -1.7464
  930MOL0     H25510   6.258   8.605   8.833  1.4759 -1.5534 -1.1508
  930MOL0     H25511   5.947   8.743   8.956 -0.6368  0.7061 -1.4924
  930MOL0     H25512   6.109   8.771   8.915  0.4409  0.5716 -2.0342
  930MOL0     H25513   5.985   8.754   8.786  0.8358 -5.1489 -1.2843
  930MOL0     H25514   5.594   8.616   9.023  2.9201 -0.2506 -0.6183
  930MOL0     H25515   5.339   8.622   9.018 -1.3572 -0.4245  0.8949
  930MOL0     H25516   5.093   8.393   8.870 -0.7926  3.0486  0.7570
  930MOL0     H25517   5.102   8.248   8.988 -0.5040 -0.1282 -0.4640
  930MOL0     H25518   4.937   8.367   9.123  1.1596  2.9125  0.6273
  930MOL0     H25519   4.934   8.497   9.004  0.8240 -0.8576 -2.8610
  930MOL0     H25520   4.849   8.217   8.922 -1.5036 -0.1404  3.3868
  930MOL0     H25521   4.880   8.357   8.817  3.0823 -1.1658  0.0242
  930MOL0     H25522   4.675   8.299   9.033 -2.8662  0.2947 -0.7236
  930MOL0     H25523   4.699   8.470   8.978 -0.9949 -0.1436  0.3193
  930MOL0     H25524   4.594   8.231   8.808  3.6092 -0.3093  3.3757
  930MOL0     H25525   4.645   8.385   8.739 -0.1758  4.0563  1.2222
  930MOL0     H25526   4.429   8.358   8.944  0.9636 -1.9823  0.3612
  930MOL0     H25527   4.504   8.507   8.895  2.1359 -1.4644  0.6980
  930MOL0     H25528   4.461   8.383   8.646  0.7687 -0.8094  1.4057
  930MOL0     H25529   4.353   8.500   8.698  0.8103 -0.2060 -0.9846
  930MOL0     H25530   4.324   8.200   8.750  3.1165  0.5824 -0.4304
  930MOL0     H25531   4.251   8.281   8.611  1.1136  1.3413 -0.6130
  930MOL0     H25532   5.333   8.197   8.972 -2.8278  1.4071  1.5549
  930MOL0     H25533   5.563   8.192   8.933  0.7681  0.8506 -0.1424
  930MOL0     H25534   5.912   8.255   8.853  0.1690 -0.3932  1.8930
  930MOL0     H25535   6.161   8.204   8.816 -0.5294  0.6369 -0.4463
  930MOL0     H25536   7.846   8.145   8.258 -3.5432  2.1005 -1.8112
  930MOL0     H25537   8.110   8.128   8.311 -0.0824 -1.5869 -0.9254
  930MOL0     H25538   8.491   8.159   8.273  0.2310 -0.6919 -1.2866
  930MOL0     H25539   8.748   8.129   8.305 -0.2304  0.4933  2.5380
  930MOL0     H25540   9.134   8.330   8.266  2.0803  3.1437 -0.1570
  930MOL0     H25541   9.034   8.444   8.172 -0.4687  0.2140  0.1374
  930MOL0     H25542   9.043   8.414   8.474  2.3724  0.0355 -0.1642
  930MOL0     H25543   8.933   8.516   8.384 -0.3838 -2.3310  1.7103
  930MOL0     H25544   9.168   8.615   8.288  1.1363  0.4515  0.0215
  930MOL0     H25545   9.240   8.520   8.410  0.3772 -0.0554 -0.5108
  930MOL0     H25546   9.106   8.620   8.596  0.1209 -2.5669 -0.8084
  930MOL0     H25547   9.033   8.733   8.482 -0.2692  0.5809 -1.2452
  930MOL0     H25548   9.403   8.914   8.527 -0.2413  0.2141 -1.3344
  930MOL0     H25549   8.801   8.539   8.195  3.9413 -2.7834 -0.4880
  930MOL0     H25550   8.539   8.565   8.209 -2.8293 -1.9752 -1.1871
  931MOL0     O25551  10.308   5.708   5.008  0.0175 -0.2452 -0.1068
  931MOL0     C25552  10.288   5.680   5.126 -0.3288  0.3073 -0.4200
  931MOL0     O25553  10.187   5.723   5.204  1.1910 -0.1819  0.1267
  931MOL0     C25554  10.091   5.804   5.149  0.0730 -0.1444 -0.2431
  931MOL0     C25555   9.954   5.780   5.175 -0.6633 -0.9295 -0.4451
  931MOL0     C25556   9.852   5.860   5.129  0.2612  1.0269 -0.1493
  931MOL0     C25557   9.883   5.962   5.048 -0.6354 -0.5832 -0.2448
  931MOL0     O25558   9.772   6.035   5.018  0.8651 -0.8659  0.7256
  931MOL0     C25559   9.787   6.150   4.929  0.8134  0.1365 -0.4741
  931MOL0     C25560   9.651   6.214   4.911 -0.5472  0.2223  0.2540
  931MOL0     C25561   9.574   6.131   4.799  0.1221  0.0688  0.3809
  931MOL0     C25562   9.440   6.178   4.763 -0.3045 -0.0532 -0.3996
  931MOL0     C25563   9.343   6.222   4.880  0.4132  0.5074 -0.5787
  931MOL0     C25564   9.265   6.099   4.927  0.0683 -0.1139  0.3400
  931MOL0     C25565   9.214   6.128   5.074  0.1545  0.8947  0.3914
  931MOL0     C25566   9.117   6.018   5.125  0.6786  0.1645  0.0125
  931MOL0     N25567   9.007   6.002   5.029  0.3804 -0.7249 -0.4638
  931MOL0     C25568   8.897   6.080   5.023 -0.1595  0.6134  0.7991
  931MOL0     C25569   8.824   6.009   4.927  0.1140  0.0200 -0.8902
  931MOL0     C25570   8.694   6.059   4.870  0.2683  0.1362  0.5939
  931MOL0     C25571   8.608   5.952   4.799  0.3005 -0.6641 -0.0238
  931MOL0     C25572   8.478   6.009   4.744 -0.3234 -0.7526 -0.2962
  931MOL0     C25573   8.399   5.889   4.690 -0.1950  0.2684 -0.4899
  931MOL0     O25574   8.295   5.945   4.605  0.4484  0.3543 -0.1749
  931MOL0     C25575   8.192   5.865   4.570 -0.0719 -0.0739 -1.4444
  931MOL0     C25576   8.183   5.730   4.608 -0.0785  0.0359  0.6317
  931MOL0     C25577   8.073   5.650   4.570 -0.1184 -0.1800  0.3808
  931MOL0     C25578   8.090   5.499   4.571 -0.3576 -0.3219  0.4878
  931MOL0     C25579   7.971   5.711   4.489  0.2660 -0.1278  0.2628
  931MOL0     C25580   7.858   5.638   4.434  0.2027  0.1211 -0.1031
  931MOL0     O25581   7.790   5.536   4.497 -0.8248  0.0286  0.5790
  931MOL0     C25582   7.673   5.494   4.445  0.0395 -0.0130  0.4277
  931MOL0     C25583   7.565   5.580   4.411 -0.4253 -0.5601  0.3079
  931MOL0     C25584   7.441   5.522   4.369 -0.2400  1.2255 -0.2037
  931MOL0     C25585   7.424   5.382   4.355  0.4649 -0.0938 -0.1350
  931MOL0     O25586   7.307   5.318   4.318 -0.1661  0.0740  0.2487
  931MOL0     C25587   7.211   5.393   4.241  0.2078  0.8513  0.7473
  931MOL0     C25588   7.095   5.305   4.179  0.3277 -0.5311 -0.8687
  931MOL0     C25589   7.023   5.353   4.048  0.0290  0.6416 -0.1474
  931MOL0     C25590   6.938   5.468   4.077  0.9337 -0.6935 -0.2440
  931MOL0     C25591   6.872   5.533   3.949 -0.2097  0.7353  0.4782
  931MOL0     C25592   6.780   5.427   3.881 -0.4052 -0.1061 -1.0882
  931MOL0     C25593   6.718   5.474   3.752  0.4093 -0.4563  0.3657
  931MOL0     C25594   6.634   5.608   3.756  0.2582  0.1962 -0.3477
  931MOL0    Cl25595   6.557   5.617   3.592  0.1316 -0.1095  0.0650
  931MOL0     C25596   7.527   5.304   4.400  0.1336 -0.4468 -0.3032
  931MOL0     C25597   7.649   5.361   4.443  0.0716  0.3132  0.4589
  931MOL0     O25598   7.830   5.678   4.318 -0.1107 -1.1675 -0.4988
  931MOL0     C25599   7.986   5.849   4.459  1.0889 -0.4086  0.6556
  931MOL0     C25600   8.094   5.926   4.496  0.4937 -1.0696 -0.4242
  931MOL0     N25601   8.879   5.885   4.903 -0.0749  0.3454  1.1162
  931MOL0     N25602   8.999   5.883   4.962 -0.3960 -0.3000  0.3996
  931MOL0     C25603  10.020   5.985   5.011  0.7125  0.4369  0.1281
  931MOL0     C25604  10.123   5.910   5.061  0.2305  0.0547 -0.4198
  931MOL0     C25605  10.376   5.579   5.188 -0.1022  0.1499  0.1517
  931MOL0     C25606  10.343   5.506   5.303 -0.1730  0.4187  0.1992
  931MOL0     C25607  10.431   5.424   5.367 -0.2440  0.5886  1.0173
  931MOL0     C25608  10.565   5.411   5.325 -0.7371 -0.1283 -0.3056
  931MOL0     O25609  10.651   5.336   5.402 -0.3298  0.0653  0.7578
  931MOL0     C25610  10.784   5.316   5.362  0.1058 -0.4303  0.1267
  931MOL0     C25611  10.871   5.235   5.462  0.5170  0.2676  0.2548
  931MOL0     C25612  11.024   5.213   5.436 -0.0847  0.5722  0.6450
  931MOL0     C25613  11.092   5.138   5.554  0.4019  0.0563 -0.0459
  931MOL0     C25614  11.238   5.156   5.556  0.3054 -0.0574  0.1878
  931MOL0     C25615  11.356   5.169   5.575 -0.3973  0.1839  0.4258
  931MOL0     C25616  10.609   5.492   5.227 -0.2585 -0.4546 -0.2326
  931MOL0     C25617  10.517   5.574   5.157  0.1270  0.0376 -0.2481
  931MOL0     H25618   9.937   5.701   5.248 -0.3187 -0.9105 -0.3457
  931MOL0     H25619   9.748   5.834   5.146 -0.0513  1.4694 -1.3181
  931MOL0     H25620   9.857   6.212   4.986  1.2312 -2.6871  2.3672
  931MOL0     H25621   9.836   6.133   4.833  1.4528  1.1035 -0.3422
  931MOL0     H25622   9.604   6.206   5.009 -1.0520  0.3479  0.0299
  931MOL0     H25623   9.660   6.320   4.885  1.2744  0.6251  2.2644
  931MOL0     H25624   9.636   6.124   4.710 -2.1309  3.0884 -1.6650
  931MOL0     H25625   9.562   6.026   4.827  0.9891 -0.3400 -0.6961
  931MOL0     H25626   9.454   6.266   4.700 -1.0981 -2.1849 -3.8554
  931MOL0     H25627   9.396   6.099   4.701  4.1530 -2.8592 -0.4439
  931MOL0     H25628   9.398   6.255   4.969 -2.4067  2.6234  0.5242
  931MOL0     H25629   9.269   6.298   4.854 -0.9322 -1.0861 -1.5640
  931MOL0     H25630   9.176   6.082   4.866  0.1405  0.6646  0.0112
  931MOL0     H25631   9.342   6.021   4.925  1.7080  1.4146  0.9202
  931MOL0     H25632   9.295   6.150   5.144 -0.1476  1.3537  0.5957
  931MOL0     H25633   9.163   6.224   5.063  1.2255  1.2013 -3.2933
  931MOL0     H25634   9.071   6.045   5.220  1.6286 -1.6412  1.0407
  931MOL0     H25635   9.160   5.920   5.145 -1.6862 -0.4923  2.5470
  931MOL0     H25636   8.870   6.170   5.076 -0.0187  0.2597  1.4785
  931MOL0     H25637   8.634   6.105   4.948 -1.9991 -2.7411  0.7222
  931MOL0     H25638   8.723   6.129   4.791  3.1390 -1.0307  0.4640
  931MOL0     H25639   8.582   5.882   4.879 -0.5752 -0.8436 -0.4521
  931MOL0     H25640   8.662   5.893   4.724  1.9869  0.5359  0.2060
  931MOL0     H25641   8.504   6.093   4.678  0.7875  0.0481  1.1047
  931MOL0     H25642   8.424   6.059   4.825  1.0384  1.8514 -0.8619
  931MOL0     H25643   8.367   5.837   4.780  1.1503  1.3820  0.6979
  931MOL0     H25644   8.477   5.835   4.634  0.2487 -0.2296  0.5887
  931MOL0     H25645   8.262   5.674   4.657  1.2834 -1.0493 -2.5215
  931MOL0     H25646   8.083   5.471   4.466 -1.6304  0.3836  0.3775
  931MOL0     H25647   8.193   5.472   4.596  0.0248  0.2270 -0.4651
  931MOL0     H25648   8.019   5.451   4.639 -1.4052 -2.3617 -1.8752
  931MOL0     H25649   7.575   5.686   4.428 -0.5880 -0.0821 -2.1614
  931MOL0     H25650   7.360   5.586   4.337 -0.9400  0.1203 -0.6900
  931MOL0     H25651   7.172   5.476   4.299 -0.6390 -0.3524  1.9785
  931MOL0     H25652   7.262   5.436   4.155 -1.3961 -1.1216 -1.3170
  931MOL0     H25653   7.141   5.207   4.165  1.1930 -0.7838  2.8552
  931MOL0     H25654   7.020   5.297   4.257  0.3409 -0.4339 -0.8463
  931MOL0     H25655   6.962   5.273   4.005  1.7290 -1.9438  1.9302
  931MOL0     H25656   7.101   5.382   3.977  0.1474 -0.5459 -0.5265
  931MOL0     H25657   6.853   5.433   4.135 -0.3129  0.4135 -1.3282
  931MOL0     H25658   6.981   5.550   4.134  4.1461 -1.8947 -0.6891
  931MOL0     H25659   6.941   5.574   3.875  0.8807 -0.5839  0.7330
  931MOL0     H25660   6.812   5.622   3.970  0.1308  1.3568 -1.0724
  931MOL0     H25661   6.835   5.335   3.860  1.7400  1.0677 -0.9211
  931MOL0     H25662   6.698   5.401   3.948 -2.2821  0.3851 -3.0864
  931MOL0     H25663   6.666   5.383   3.721  2.3873 -1.3159 -0.5617
  931MOL0     H25664   6.794   5.492   3.676  1.0885 -0.7675  0.9587
  931MOL0     H25665   6.696   5.697   3.764 -3.2461  2.7285  1.1174
  931MOL0     H25666   6.563   5.610   3.839  0.6684  0.4957 -0.0026
  931MOL0     H25667   7.525   5.196   4.402  0.7141 -0.4502  0.5458
  931MOL0     H25668   7.726   5.297   4.485  1.2730  2.0183  0.9679
  931MOL0     H25669   7.903   5.897   4.407 -0.9524 -1.6292  2.5920
  931MOL0     H25670   8.096   6.029   4.462  0.4757 -2.0814 -3.8372
  931MOL0     H25671  10.040   6.043   4.921 -1.6897  0.3109 -0.5722
  931MOL0     H25672  10.227   5.928   5.035  0.3403  0.4437  0.2641
  931MOL0     H25673  10.243   5.499   5.344  0.8298 -2.5710  2.5804
  931MOL0     H25674  10.406   5.366   5.456 -0.3969  0.8019  1.1143
  931MOL0     H25675  10.768   5.271   5.263  1.4244  1.8791 -1.2128
  931MOL0     H25676  10.846   5.406   5.363  1.6177 -1.4187  1.6604
  931MOL0     H25677  10.826   5.137   5.478 -1.4438  1.0487 -0.1675
  931MOL0     H25678  10.856   5.279   5.561  1.2955  0.1351  0.4356
  931MOL0     H25679  11.071   5.309   5.414  1.0201 -0.1538 -0.2777
  931MOL0     H25680  11.042   5.160   5.342  1.9954  1.9936  0.1813
  931MOL0     H25681  11.073   5.030   5.557 -2.0240  0.4507  0.1870
  931MOL0     H25682  11.052   5.168   5.652  2.0561  1.5219  0.2445
  931MOL0     H25683  11.459   5.191   5.598 -0.2275  2.0355 -1.7364
  931MOL0     H25684  10.709   5.499   5.186  0.0641  1.7122  0.7773
  931MOL0     H25685  10.546   5.647   5.082  0.4689 -1.5099 -1.6877
  932MOL0     O25686   8.328   9.361   5.533  0.2369  0.1714  0.0073
  932MOL0     C25687   8.314   9.249   5.586  0.0974 -0.3120  0.9242
  932MOL0     O25688   8.209   9.166   5.576  0.5609  0.3286  0.9388
  932MOL0     C25689   8.103   9.198   5.504  0.9765  0.2736 -0.6887
  932MOL0     C25690   7.980   9.241   5.553 -0.2049 -0.0469 -1.1316
  932MOL0     C25691   7.884   9.265   5.458 -0.7022  0.5653  0.3261
  932MOL0     C25692   7.901   9.239   5.316  1.7032 -0.0878 -1.1325
  932MOL0     O25693   7.787   9.252   5.228 -0.0957 -0.4251  0.3917
  932MOL0     C25694   7.795   9.228   5.088  0.5272  0.5138  0.6392
  932MOL0     C25695   7.863   9.329   4.990  0.1656 -0.3435 -0.4725
  932MOL0     C25696   7.782   9.456   4.981 -1.1393 -0.1679  0.5716
  932MOL0     C25697   7.694   9.465   4.849 -0.2197 -0.1261 -0.9971
  932MOL0     C25698   7.626   9.598   4.826 -0.0536  0.1477 -0.0381
  932MOL0     C25699   7.544   9.645   4.942  0.6949 -0.4665 -0.5814
  932MOL0     C25700   7.469   9.776   4.923 -0.4972 -0.0029 -0.9122
  932MOL0     C25701   7.352   9.747   4.837 -0.4362  0.2702 -0.8150
  932MOL0     N25702   7.266   9.867   4.823 -0.4105  0.2149  0.6116
  932MOL0     C25703   7.293   9.974   4.737 -0.2942 -0.4591 -0.0721
  932MOL0     C25704   7.205  10.069   4.770  1.0632 -0.3233 -0.9398
  932MOL0     C25705   7.195  10.205   4.699 -0.5500 -0.0214  0.0419
  932MOL0     C25706   7.110  10.306   4.771 -0.2089  0.0637 -0.4356
  932MOL0     C25707   7.126  10.449   4.713 -0.2136  1.0092  0.7180
  932MOL0     C25708   7.057  10.546   4.806  0.1561 -0.2563  0.0917
  932MOL0     O25709   6.932  10.494   4.862  0.5741  0.2413  0.2440
  932MOL0     C25710   6.818  10.499   4.784  0.3334  0.3737 -0.1782
  932MOL0     C25711   6.811  10.543   4.657 -0.4812 -0.4674  0.9206
  932MOL0     C25712   6.693  10.558   4.578 -0.4967  0.1467 -0.3234
  932MOL0     C25713   6.706  10.601   4.436 -0.9449 -0.6680  0.7339
  932MOL0     C25714   6.570  10.516   4.625  0.0570 -0.0764  1.1135
  932MOL0     C25715   6.442  10.490   4.542  0.0902 -0.0428 -0.6555
  932MOL0     O25716   6.336  10.457   4.621 -0.1113  0.3426 -0.2835
  932MOL0     C25717   6.211  10.422   4.566 -0.6190  0.8300 -0.4150
  932MOL0     C25718   6.143  10.515   4.491 -0.7383 -0.2469 -0.1558
  932MOL0     C25719   6.021  10.471   4.427 -0.0362  0.3689 -0.8112
  932MOL0     C25720   5.972  10.342   4.462 -0.6263  0.0825  0.8679
  932MOL0     O25721   5.854  10.304   4.398  0.2923 -0.1261 -0.4457
  932MOL0     C25722   5.828  10.171   4.361 -0.8088  0.3277  0.7794
  932MOL0     C25723   5.700  10.181   4.272 -1.0863 -0.3605  0.3051
  932MOL0     C25724   5.686  10.054   4.188  0.1688 -0.2735  0.2426
  932MOL0     C25725   5.578  10.075   4.090 -0.0454  0.8385 -0.5371
  932MOL0     C25726   5.561   9.947   4.017  0.5118 -0.0917  0.2351
  932MOL0     C25727   5.467   9.847   4.084  0.9309 -0.3510  0.2554
  932MOL0     C25728   5.457   9.717   4.020 -0.3340  0.2178  0.2114
  932MOL0     C25729   5.324   9.650   4.045  0.3868  0.8513 -0.0410
  932MOL0    Cl25730   5.336   9.481   3.979 -0.0935  0.0557 -0.3846
  932MOL0     C25731   6.044  10.249   4.536  0.0627  0.0532 -0.1333
  932MOL0     C25732   6.162  10.289   4.595 -0.0382 -0.7567  0.1948
  932MOL0     O25733   6.439  10.494   4.415 -0.7414 -0.1579 -0.4333
  932MOL0     C25734   6.577  10.474   4.763 -0.2058 -0.3526  0.5212
  932MOL0     C25735   6.691  10.470   4.836  0.2423  0.6598  0.1548
  932MOL0     N25736   7.127  10.014   4.871  0.0370 -0.7430  0.3465
  932MOL0     N25737   7.158   9.892   4.902 -0.6727 -0.1559  0.2712
  932MOL0     C25738   8.015   9.179   5.273  0.7576  0.2347 -0.1650
  932MOL0     C25739   8.109   9.164   5.366  0.2605 -0.1058  0.0208
  932MOL0     C25740   8.412   9.212   5.694  0.8047  0.5001  0.0613
  932MOL0     C25741   8.509   9.300   5.736 -0.6574 -0.1543  0.8541
  932MOL0     C25742   8.612   9.264   5.817 -0.2380 -0.8402 -0.2815
  932MOL0     C25743   8.609   9.136   5.875  0.6155 -0.2757  0.1336
  932MOL0     O25744   8.707   9.075   5.944  0.1635 -0.3789 -0.7396
  932MOL0     C25745   8.822   9.156   5.968 -0.1225  0.1190  0.3141
  932MOL0     C25746   8.912   9.062   6.055 -0.7644 -0.6684  0.0555
  932MOL0     C25747   8.976   8.949   5.976  0.0663  0.6069 -0.1793
  932MOL0     C25748   9.059   8.852   6.061 -1.0429  0.1533 -0.4212
  932MOL0     C25749   9.172   8.929   6.125  0.1204 -0.2305 -0.1566
  932MOL0     C25750   9.258   9.009   6.162 -0.9411 -0.3953 -0.1245
  932MOL0     C25751   8.501   9.047   5.842 -0.1767 -0.1193  0.1559
  932MOL0     C25752   8.409   9.081   5.750  0.5010  0.5025  0.1870
  932MOL0     H25753   7.963   9.263   5.658 -0.3465  3.0975 -1.7091
  932MOL0     H25754   7.787   9.301   5.492 -0.1793  2.0855  0.2802
  932MOL0     H25755   7.850   9.134   5.076 -0.0062  0.4544 -2.0618
  932MOL0     H25756   7.692   9.216   5.052  1.1726  0.7507 -1.3880
  932MOL0     H25757   7.961   9.349   5.035  0.2172  0.4862 -0.9253
  932MOL0     H25758   7.870   9.289   4.889 -1.4831  2.0178 -1.6253
  932MOL0     H25759   7.736   9.467   5.079  0.6048 -1.4498  1.6056
  932MOL0     H25760   7.857   9.534   4.968  0.4733 -1.5119  1.3682
  932MOL0     H25761   7.756   9.442   4.761 -0.9602 -2.9681 -0.8883
  932MOL0     H25762   7.622   9.383   4.856  0.0200 -0.2612 -0.0477
  932MOL0     H25763   7.699   9.680   4.822  0.2718  0.3198  4.5105
  932MOL0     H25764   7.573   9.593   4.731  2.0714 -2.5124 -1.2376
  932MOL0     H25765   7.485   9.559   4.974  2.1753 -2.1884 -2.2536
  932MOL0     H25766   7.617   9.669   5.019 -0.3702  1.1972 -0.0383
  932MOL0     H25767   7.440   9.820   5.019 -0.5338 -1.0541 -0.4303
  932MOL0     H25768   7.534   9.851   4.876  1.8972 -1.2245  0.2587
  932MOL0     H25769   7.292   9.667   4.883  2.0800 -0.4699  1.4342
  932MOL0     H25770   7.385   9.718   4.737 -0.4061  0.9800 -1.0131
  932MOL0     H25771   7.369   9.986   4.661  0.8588 -3.1968  0.5482
  932MOL0     H25772   7.300  10.236   4.697  0.5879 -3.4082 -0.5813
  932MOL0     H25773   7.161  10.208   4.595 -0.9110  1.9678  0.1893
  932MOL0     H25774   7.147  10.306   4.874  0.1955  0.5823 -0.5751
  932MOL0     H25775   7.007  10.270   4.772 -0.2341  0.1272 -0.7461
  932MOL0     H25776   7.099  10.453   4.607  1.3452 -0.3354  0.2074
  932MOL0     H25777   7.230  10.482   4.708 -0.0518  0.3813 -2.1496
  932MOL0     H25778   7.051  10.639   4.750  2.1495 -0.0736  0.1195
  932MOL0     H25779   7.116  10.575   4.894 -0.3179  2.0875 -0.3151
  932MOL0     H25780   6.896  10.585   4.604 -1.6774  2.1919  0.9935
  932MOL0     H25781   6.800  10.638   4.395 -1.1878 -2.0915 -1.2483
  932MOL0     H25782   6.680  10.519   4.368  0.3194  0.4509 -1.2194
  932MOL0     H25783   6.644  10.687   4.409 -0.1792 -0.8912 -2.1501
  932MOL0     H25784   6.195  10.610   4.481  1.2539 -1.3746 -1.3461
  932MOL0     H25785   5.949  10.526   4.369 -1.5005 -0.3193  0.2742
  932MOL0     H25786   5.918  10.139   4.307 -0.1765 -1.4386  2.7206
  932MOL0     H25787   5.809  10.105   4.447  0.0879  1.3736  1.8131
  932MOL0     H25788   5.618  10.190   4.344 -0.0826  0.1095  1.4246
  932MOL0     H25789   5.709  10.273   4.213  1.1841 -0.4382  0.4526
  932MOL0     H25790   5.669   9.970   4.255  0.7939 -1.4831 -1.0709
  932MOL0     H25791   5.781  10.032   4.139  1.4508  3.9422  0.4564
  932MOL0     H25792   5.486  10.095   4.146  2.3744  2.7291  3.1736
  932MOL0     H25793   5.605  10.157   4.024 -1.2969  1.1114 -0.7378
  932MOL0     H25794   5.655   9.899   3.988 -0.0775  0.3308 -2.7441
  932MOL0     H25795   5.509   9.963   3.922  0.1652  0.2979  0.4844
  932MOL0     H25796   5.496   9.828   4.188  0.1147 -1.6741  0.2724
  932MOL0     H25797   5.368   9.893   4.077  0.9091 -0.6403 -2.2575
  932MOL0     H25798   5.538   9.660   4.066  2.5815  2.4091 -1.7815
  932MOL0     H25799   5.480   9.714   3.913 -2.1509 -3.7819 -0.2415
  932MOL0     H25800   5.240   9.694   3.991  0.9306 -0.2417 -1.8626
  932MOL0     H25801   5.311   9.646   4.154 -0.0241  0.9837 -0.0815
  932MOL0     H25802   5.999  10.153   4.559  2.6760 -1.6199 -1.5535
  932MOL0     H25803   6.224  10.221   4.653 -0.7789  0.1332  2.1109
  932MOL0     H25804   6.489  10.436   4.813  0.4924 -2.1072  0.5002
  932MOL0     H25805   6.681  10.430   4.936 -1.7844 -0.5701 -0.4795
  932MOL0     H25806   8.034   9.156   5.168  2.0263 -0.3027  0.1732
  932MOL0     H25807   8.207   9.128   5.335 -0.1920 -3.9340  2.3484
  932MOL0     H25808   8.512   9.401   5.697  3.1547 -0.5347 -0.2331
  932MOL0     H25809   8.690   9.338   5.830 -1.2349  0.2961 -0.5685
  932MOL0     H25810   8.872   9.198   5.880 -1.3233 -0.9277 -0.9319
  932MOL0     H25811   8.800   9.244   6.028  1.2520  0.8481 -0.2091
  932MOL0     H25812   8.850   9.023   6.136 -2.2031  1.3199 -0.0157
  932MOL0     H25813   8.990   9.125   6.098 -0.3281  0.3845 -2.1108
  932MOL0     H25814   9.033   8.991   5.893 -2.3093  1.8343 -1.2600
  932MOL0     H25815   8.910   8.885   5.918  0.3701 -0.1893  0.3268
  932MOL0     H25816   9.091   8.780   5.985 -0.4231  0.1011 -0.1108
  932MOL0     H25817   9.005   8.795   6.138  0.0230  1.3740  1.2825
  932MOL0     H25818   9.321   9.087   6.199  0.1765 -1.4088  0.1461
  932MOL0     H25819   8.507   8.943   5.871 -1.3208 -0.9730 -2.4181
  932MOL0     H25820   8.325   9.018   5.720  1.8092 -2.0386  1.5839
  933MOL0     O25821   5.455   4.464   4.367  0.4487  0.7066  0.2381
  933MOL0     C25822   5.484   4.566   4.426 -0.2427 -0.0266 -0.1541
  933MOL0     O25823   5.411   4.683   4.433  0.9377  0.9222 -0.0968
  933MOL0     C25824   5.277   4.671   4.415  0.2273 -0.0961  0.5118
  933MOL0     C25825   5.215   4.670   4.283 -0.7664  0.4832 -0.1006
  933MOL0     C25826   5.079   4.653   4.266 -0.9322 -0.1311 -0.3661
  933MOL0     C25827   4.991   4.639   4.383  1.1120  0.2077  0.4955
  933MOL0     O25828   4.852   4.613   4.383  0.1166  0.1034  0.3878
  933MOL0     C25829   4.797   4.583   4.262  0.7987  0.8443  0.0172
  933MOL0     C25830   4.827   4.440   4.202 -0.4539 -0.0228  0.5312
  933MOL0     C25831   4.811   4.324   4.308 -0.0064  0.9027 -0.2609
  933MOL0     C25832   4.920   4.306   4.408  0.2071 -1.0373  0.6213
  933MOL0     C25833   4.875   4.204   4.518 -0.1206  0.1219 -0.2266
  933MOL0     C25834   4.975   4.217   4.632  0.8784 -0.1658 -0.3688
  933MOL0     C25835   4.905   4.158   4.745 -0.7501  0.8239  0.5873
  933MOL0     C25836   5.007   4.132   4.864 -0.8316 -1.3819  0.5872
  933MOL0     N25837   4.944   4.096   4.993 -0.5025 -0.1473  0.2763
  933MOL0     C25838   4.841   4.009   4.997  0.5871 -0.4600 -1.3395
  933MOL0     C25839   4.810   3.990   5.128 -0.2429 -0.1573 -0.7082
  933MOL0     C25840   4.704   3.893   5.166  0.5124 -0.0133 -0.0275
  933MOL0     C25841   4.576   3.974   5.220  0.4693  0.2663  0.2523
  933MOL0     C25842   4.453   3.884   5.238  0.5151  0.7764 -0.1766
  933MOL0     C25843   4.344   3.951   5.324  0.7740  0.1585 -0.2034
  933MOL0     O25844   4.251   3.854   5.367  0.5089  0.1067  0.5738
  933MOL0     C25845   4.122   3.865   5.334  0.9818 -0.6169 -0.1812
  933MOL0     C25846   4.057   3.948   5.241  0.6922 -0.2241 -0.0276
  933MOL0     C25847   3.916   3.926   5.208  0.4609 -0.2696 -0.2036
  933MOL0     C25848   3.848   4.019   5.111 -0.1608  0.1017  0.0444
  933MOL0     C25849   3.841   3.824   5.268 -0.1239 -0.0506 -0.7291
  933MOL0     C25850   3.688   3.800   5.240  0.4675 -0.4759 -0.2782
  933MOL0     O25851   3.629   3.742   5.344  0.2628  1.1853  0.9464
  933MOL0     C25852   3.496   3.701   5.329 -0.6105  0.0140  0.6995
  933MOL0     C25853   3.476   3.570   5.380  0.0136 -0.3389  0.4345
  933MOL0     C25854   3.355   3.508   5.378 -0.2033  0.1635  0.2607
  933MOL0     C25855   3.246   3.589   5.333  0.3978 -0.4176  0.0710
  933MOL0     O25856   3.121   3.540   5.313  0.3274  0.0587 -0.2680
  933MOL0     C25857   3.088   3.402   5.340 -0.2395  0.2744  0.5578
  933MOL0     C25858   2.939   3.367   5.288 -0.4076  0.3647 -0.4094
  933MOL0     C25859   2.918   3.370   5.133  0.0567  0.2084 -0.6533
  933MOL0     C25860   2.777   3.309   5.090 -0.0459  0.7427 -0.4581
  933MOL0     C25861   2.775   3.308   4.930  0.6386 -0.5853  0.5241
  933MOL0     C25862   2.652   3.257   4.884 -0.3924 -1.0932 -0.7986
  933MOL0     C25863   2.640   3.267   4.732  0.2226  0.2582 -0.3900
  933MOL0     C25864   2.514   3.209   4.673  0.2424 -0.0135 -0.8394
  933MOL0    Cl25865   2.377   3.304   4.730 -0.3534 -0.7274 -0.3580
  933MOL0     C25866   3.265   3.725   5.303  0.4136 -0.5402  0.2825
  933MOL0     C25867   3.394   3.781   5.289 -0.7156 -0.0299 -0.0396
  933MOL0     O25868   3.634   3.841   5.141 -0.2735  0.9256 -0.4329
  933MOL0     C25869   3.913   3.748   5.358 -0.0256  0.0764 -0.2569
  933MOL0     C25870   4.048   3.769   5.400 -0.1483 -0.1471 -0.0124
  933MOL0     N25871   4.905   4.073   5.198 -0.1403 -0.1996  0.3772
  933MOL0     N25872   4.983   4.135   5.115 -0.2572  0.3264  0.1456
  933MOL0     C25873   5.055   4.627   4.506 -0.1608 -1.2975  0.1893
  933MOL0     C25874   5.193   4.646   4.526  0.9241  0.1848 -0.1638
  933MOL0     C25875   5.618   4.564   4.500  0.0455 -0.0096  0.3927
  933MOL0     C25876   5.655   4.685   4.566  0.5400 -0.3104 -0.6225
  933MOL0     C25877   5.784   4.683   4.639 -0.0848 -1.5326  0.2553
  933MOL0     C25878   5.855   4.564   4.660 -0.0422  0.1160 -0.1299
  933MOL0     O25879   5.977   4.568   4.732  0.5033  0.4650 -0.1573
  933MOL0     C25880   5.961   4.496   4.856  0.3373 -0.3020 -0.3495
  933MOL0     C25881   5.870   4.571   4.958  0.0849  0.3195  0.4919
  933MOL0     C25882   5.949   4.693   5.007  0.2677 -0.2187  0.5440
  933MOL0     C25883   5.996   4.683   5.152  0.7086  0.1137 -0.5464
  933MOL0     C25884   6.126   4.620   5.172  0.7171  0.1192 -0.1919
  933MOL0     C25885   6.226   4.560   5.177 -0.6482  0.9478  0.6134
  933MOL0     C25886   5.819   4.448   4.585 -0.4559 -0.6094 -0.0259
  933MOL0     C25887   5.706   4.448   4.506 -0.4947  0.0672  0.0355
  933MOL0     H25888   5.287   4.679   4.201 -0.0723 -0.0592  0.4322
  933MOL0     H25889   5.046   4.641   4.164  0.6868 -4.6722 -0.5965
  933MOL0     H25890   4.691   4.588   4.289  0.9164 -0.0655  0.6970
  933MOL0     H25891   4.817   4.659   4.186 -4.3004 -0.2518 -2.8938
  933MOL0     H25892   4.758   4.426   4.119  0.0690 -0.3769  0.1483
  933MOL0     H25893   4.929   4.435   4.161 -0.6076 -0.0136  0.1464
  933MOL0     H25894   4.718   4.345   4.361 -0.3305  0.6700 -0.7256
  933MOL0     H25895   4.804   4.235   4.245  3.8545  1.1592 -1.3099
  933MOL0     H25896   5.013   4.285   4.353  1.0433 -0.3435  1.7127
  933MOL0     H25897   4.941   4.395   4.468 -0.7553  2.6373 -3.8983
  933MOL0     H25898   4.770   4.226   4.540 -0.4703 -1.2818 -0.3654
  933MOL0     H25899   4.886   4.102   4.481  1.1252  0.1873 -0.1041
  933MOL0     H25900   5.069   4.163   4.616  1.1812  0.1494  0.2785
  933MOL0     H25901   5.001   4.320   4.659  1.9653 -0.2625 -0.9634
  933MOL0     H25902   4.823   4.228   4.768 -1.4609  0.4559 -0.7087
  933MOL0     H25903   4.869   4.056   4.728  0.8184 -0.2952  3.2934
  933MOL0     H25904   5.071   4.220   4.872 -0.5314 -1.6645  1.3107
  933MOL0     H25905   5.076   4.051   4.841  0.4471  0.3483 -2.2399
  933MOL0     H25906   4.785   3.970   4.913 -1.7091  0.2175 -0.2016
  933MOL0     H25907   4.680   3.835   5.077  0.2224  2.1778 -1.4482
  933MOL0     H25908   4.747   3.833   5.247 -1.2536  1.3990  2.0953
  933MOL0     H25909   4.553   4.054   5.149 -2.2060 -0.8211 -0.2321
  933MOL0     H25910   4.611   4.018   5.314 -0.5346 -0.3087  0.9203
  933MOL0     H25911   4.484   3.786   5.277  0.0415  0.3655 -0.8233
  933MOL0     H25912   4.408   3.861   5.141 -3.4444  2.0176  1.1606
  933MOL0     H25913   4.307   4.039   5.271  2.3134 -0.5844 -2.6613
  933MOL0     H25914   4.395   3.993   5.411  2.0545 -2.3625  0.3460
  933MOL0     H25915   4.125   4.011   5.185  2.8860 -0.4504  2.2029
  933MOL0     H25916   3.835   3.964   5.018  2.6234 -4.3093  1.9308
  933MOL0     H25917   3.754   4.059   5.152  2.7400  7.8004  0.9392
  933MOL0     H25918   3.912   4.105   5.088  1.1718 -1.5179 -2.8209
  933MOL0     H25919   3.563   3.522   5.423 -0.3903 -0.3130  1.3041
  933MOL0     H25920   3.358   3.399   5.383 -0.3254  0.1590  0.2444
  933MOL0     H25921   3.162   3.348   5.281  1.2041  1.1426  1.5089
  933MOL0     H25922   3.106   3.366   5.441  2.9072  2.8087  1.0722
  933MOL0     H25923   2.916   3.267   5.328 -3.8773  1.2336  0.0691
  933MOL0     H25924   2.875   3.446   5.329  2.6209  1.4934  2.6983
  933MOL0     H25925   2.994   3.310   5.082  1.0489  0.7323  0.1773
  933MOL0     H25926   2.924   3.472   5.095 -0.1248  0.2425 -0.5943
  933MOL0     H25927   2.761   3.209   5.131 -0.7049  0.5097 -1.2464
  933MOL0     H25928   2.698   3.375   5.125 -1.1079  1.0659 -3.1964
  933MOL0     H25929   2.861   3.247   4.899  4.2433  3.4367  1.5605
  933MOL0     H25930   2.800   3.406   4.887 -0.3617 -0.8485 -0.7066
  933MOL0     H25931   2.639   3.153   4.915  1.4544 -0.7282  1.4363
  933MOL0     H25932   2.575   3.324   4.925  2.7503  2.0400  0.4513
  933MOL0     H25933   2.730   3.227   4.685  2.2585  2.2529  1.5508
  933MOL0     H25934   2.646   3.368   4.693  1.1663  1.2981  2.2038
  933MOL0     H25935   2.506   3.103   4.701  1.0189  0.1391  0.0009
  933MOL0     H25936   2.521   3.218   4.564  1.3224  1.4808 -0.6770
  933MOL0     H25937   3.182   3.789   5.276 -0.7327 -1.1157  2.2238
  933MOL0     H25938   3.411   3.886   5.268  0.6380 -0.1701  0.2161
  933MOL0     H25939   3.860   3.671   5.413 -3.6375  1.6744 -1.1570
  933MOL0     H25940   4.090   3.696   5.469 -1.3350 -0.7703  0.0713
  933MOL0     H25941   4.993   4.614   4.594 -0.8089 -0.1811 -0.0745
  933MOL0     H25942   5.228   4.615   4.624  1.1548 -1.9813 -0.8912
  933MOL0     H25943   5.582   4.765   4.565 -0.2066 -0.9464  0.2830
  933MOL0     H25944   5.810   4.770   4.698 -0.2859 -0.7071 -0.8500
  933MOL0     H25945   5.910   4.400   4.848  0.9228 -0.9222  2.3435
  933MOL0     H25946   6.054   4.473   4.910  0.2138 -0.5301 -0.2332
  933MOL0     H25947   5.842   4.515   5.048  1.9532  0.4351  1.1819
  933MOL0     H25948   5.776   4.606   4.915  0.3744  0.7865  0.2315
  933MOL0     H25949   5.888   4.783   4.990  0.6502  0.0638  0.6475
  933MOL0     H25950   6.044   4.711   4.956 -0.6033  0.6473 -0.8508
  933MOL0     H25951   5.926   4.633   5.219  1.9583  0.7577  1.2994
  933MOL0     H25952   5.998   4.788   5.181 -0.1328  0.1442 -0.5798
  933MOL0     H25953   6.316   4.502   5.168 -1.2318  0.0837  0.2322
  933MOL0     H25954   5.880   4.359   4.592 -0.9110 -0.8318  1.4440
  933MOL0     H25955   5.676   4.361   4.448 -1.1098  0.2720  0.0483
  934MOL0     O25956   1.499   1.749   3.209  0.0376 -0.1024 -0.0150
  934MOL0     C25957   1.436   1.846   3.159 -0.5312  0.6868 -0.1780
  934MOL0     O25958   1.303   1.847   3.123 -0.2727  0.6873  0.1399
  934MOL0     C25959   1.207   1.774   3.192 -0.7202 -0.3097 -0.0147
  934MOL0     C25960   1.085   1.750   3.133 -0.0705  0.1920 -0.0402
  934MOL0     C25961   0.982   1.679   3.194  0.2568 -0.0155  0.6276
  934MOL0     C25962   1.005   1.621   3.320 -0.8282 -0.9183 -0.6431
  934MOL0     O25963   0.912   1.561   3.400 -0.2882 -0.2076  0.3229
  934MOL0     C25964   0.771   1.573   3.351  0.9126  0.4870 -0.2878
  934MOL0     C25965   0.679   1.573   3.475 -0.1737 -0.3459  0.5731
  934MOL0     C25966   0.710   1.677   3.579  0.7529  0.6114 -0.4637
  934MOL0     C25967   0.683   1.810   3.526 -0.0125 -0.2302  0.3865
  934MOL0     C25968   0.784   1.925   3.572  0.4604  0.0698 -0.0824
  934MOL0     C25969   0.918   1.936   3.494  0.0702  0.9574 -0.4997
  934MOL0     C25970   0.989   2.065   3.521 -0.2340 -0.0923  0.1224
  934MOL0     C25971   1.125   2.045   3.452 -0.5470 -0.1406  0.1722
  934MOL0     N25972   1.202   2.166   3.458 -0.2789  0.7105  0.3389
  934MOL0     C25973   1.244   2.219   3.583 -0.4565 -0.2534  0.2920
  934MOL0     C25974   1.334   2.306   3.534  0.0321 -0.0886 -1.2702
  934MOL0     C25975   1.420   2.394   3.626 -0.6005  0.1016 -0.8746
  934MOL0     C25976   1.574   2.382   3.583 -0.1019  0.3789  0.8945
  934MOL0     C25977   1.667   2.410   3.696 -0.4999 -0.6124 -0.2976
  934MOL0     C25978   1.662   2.568   3.728  0.5078  0.2612  0.1000
  934MOL0     O25979   1.739   2.603   3.845 -0.2658  0.2830 -0.0940
  934MOL0     C25980   1.874   2.590   3.850 -0.7407 -0.0726 -0.0607
  934MOL0     C25981   1.950   2.560   3.736  0.0770 -0.7130 -0.8514
  934MOL0     C25982   2.091   2.537   3.745  0.7475  0.1125 -0.1881
  934MOL0     C25983   2.151   2.505   3.611 -0.2516  1.1492 -0.1360
  934MOL0     C25984   2.155   2.552   3.870  0.2612  0.0693  0.2728
  934MOL0     C25985   2.300   2.562   3.896  0.5834  0.8530  0.1237
  934MOL0     O25986   2.368   2.612   3.791 -0.3445  0.4013 -0.3921
  934MOL0     C25987   2.498   2.654   3.815 -0.0489  0.1615  0.1416
  934MOL0     C25988   2.596   2.570   3.865  0.6048  0.0259 -0.4625
  934MOL0     C25989   2.729   2.588   3.856 -0.4284  0.1197 -0.1152
  934MOL0     C25990   2.778   2.705   3.801  1.0842 -0.0780  0.1010
  934MOL0     O25991   2.902   2.750   3.773 -0.3740  0.1369  0.6544
  934MOL0     C25992   3.000   2.650   3.814 -0.4796 -0.2340  0.6278
  934MOL0     C25993   3.138   2.706   3.773 -0.3315 -0.1527 -0.0439
  934MOL0     C25994   3.206   2.780   3.891 -0.0922 -0.2036 -0.1581
  934MOL0     C25995   3.336   2.854   3.841 -0.3619  0.2158 -0.3797
  934MOL0     C25996   3.457   2.767   3.832  0.7876  0.1505  0.1784
  934MOL0     C25997   3.571   2.846   3.769  0.0565  0.3529  0.6277
  934MOL0     C25998   3.688   2.763   3.722  0.2687 -1.1795 -0.1656
  934MOL0     C25999   3.823   2.840   3.732  0.5983  0.5632 -0.3826
  934MOL0    Cl26000   3.934   2.715   3.647  0.3512  0.6571 -0.0954
  934MOL0     C26001   2.686   2.795   3.756 -0.5811 -0.3039  0.1746
  934MOL0     C26002   2.542   2.770   3.768 -0.0868  0.0929  0.9254
  934MOL0     O26003   2.351   2.518   3.999 -0.3528 -0.4065 -0.3631
  934MOL0     C26004   2.076   2.587   3.980  0.3568 -0.1780 -0.0175
  934MOL0     C26005   1.936   2.600   3.975  0.1730 -0.4343  0.3336
  934MOL0     N26006   1.331   2.313   3.397  0.4418  0.9439 -0.9166
  934MOL0     N26007   1.252   2.219   3.347 -0.3367 -0.1749 -0.0758
  934MOL0     C26008   1.131   1.645   3.385 -0.2013 -0.8149 -0.2565
  934MOL0     C26009   1.231   1.729   3.322 -0.3460 -0.0431  0.9512
  934MOL0     C26010   1.521   1.958   3.107  0.0146 -0.0324 -0.7040
  934MOL0     C26011   1.665   1.942   3.091 -0.3453 -0.0821  0.3309
  934MOL0     C26012   1.738   2.049   3.043 -0.3090  0.9890  0.3490
  934MOL0     C26013   1.663   2.167   3.001 -0.1157 -0.5178  0.2585
  934MOL0     O26014   1.715   2.285   2.950  0.2434 -0.5825 -0.3253
  934MOL0     C26015   1.849   2.270   2.892  0.0078 -0.7675 -0.4259
  934MOL0     C26016   1.867   2.395   2.808  0.2610 -0.3705 -0.6214
  934MOL0     C26017   1.769   2.401   2.691 -0.3004  0.5136 -0.5390
  934MOL0     C26018   1.763   2.269   2.593 -0.8819 -0.5635 -0.6748
  934MOL0     C26019   1.663   2.178   2.651  0.1138 -0.2725  0.8640
  934MOL0     C26020   1.576   2.109   2.705  0.2430 -0.6319 -0.2667
  934MOL0     C26021   1.524   2.189   3.032  0.2999  0.5518  0.5621
  934MOL0     C26022   1.450   2.079   3.072 -0.4049 -0.0888 -0.1770
  934MOL0     H26023   1.079   1.787   3.032  3.0446 -0.9811 -0.7711
  934MOL0     H26024   0.884   1.688   3.149 -1.1576 -3.2689  2.6799
  934MOL0     H26025   0.754   1.667   3.298  0.8563 -0.0897 -1.3224
  934MOL0     H26026   0.750   1.491   3.282  0.9528  0.2540 -0.0232
  934MOL0     H26027   0.579   1.595   3.436  1.1656  2.9413 -1.3956
  934MOL0     H26028   0.686   1.476   3.525  0.2221 -0.5291  0.1681
  934MOL0     H26029   0.646   1.662   3.666  2.0248  1.5075  0.6669
  934MOL0     H26030   0.816   1.677   3.606  0.2813  0.8605  1.5100
  934MOL0     H26031   0.667   1.805   3.418  0.9686 -1.2038  0.2693
  934MOL0     H26032   0.592   1.846   3.575  0.6551 -2.3987  3.5260
  934MOL0     H26033   0.736   2.022   3.557 -0.8926 -0.5516  0.1054
  934MOL0     H26034   0.803   1.920   3.680 -0.9158  1.0712  0.2275
  934MOL0     H26035   0.982   1.852   3.524 -1.6385 -0.3608 -0.4194
  934MOL0     H26036   0.892   1.926   3.389 -2.3153  3.6531 -0.2877
  934MOL0     H26037   0.936   2.152   3.481 -1.8427 -1.4547 -0.8547
  934MOL0     H26038   1.011   2.078   3.627  2.0599  2.0388 -0.5133
  934MOL0     H26039   1.116   2.016   3.347 -0.7674  1.0481 -0.1595
  934MOL0     H26040   1.190   1.973   3.502  0.8443 -0.1030 -1.4922
  934MOL0     H26041   1.229   2.196   3.688  2.3321  1.2856  1.1251
  934MOL0     H26042   1.374   2.493   3.629  1.0791  0.9076  1.5433
  934MOL0     H26043   1.416   2.357   3.729 -0.8978 -0.1152 -0.9612
  934MOL0     H26044   1.602   2.447   3.499  0.1043 -1.0477 -0.1855
  934MOL0     H26045   1.577   2.279   3.546 -1.4445  0.2885  0.9787
  934MOL0     H26046   1.771   2.392   3.665  1.5120  2.9029  3.4262
  934MOL0     H26047   1.649   2.343   3.781  2.5760 -0.0493  0.9715
  934MOL0     H26048   1.557   2.586   3.753  1.2093  2.0690  1.9654
  934MOL0     H26049   1.692   2.625   3.639  0.7112  1.2919  0.8136
  934MOL0     H26050   1.908   2.566   3.636 -3.3209 -0.9127  0.4283
  934MOL0     H26051   2.194   2.405   3.607  1.5524  1.8954 -0.7525
  934MOL0     H26052   2.087   2.519   3.523  0.0944  1.1348 -0.3941
  934MOL0     H26053   2.239   2.569   3.598 -1.3532  2.8900  0.6416
  934MOL0     H26054   2.560   2.478   3.910 -1.0222  1.3549  1.0964
  934MOL0     H26055   2.785   2.502   3.893  0.6863  1.4451  1.4230
  934MOL0     H26056   2.985   2.634   3.922  0.2237 -0.4121  0.6997
  934MOL0     H26057   2.975   2.558   3.761 -0.3802 -0.2893  0.6771
  934MOL0     H26058   3.195   2.622   3.733 -1.4923 -0.9383 -0.0946
  934MOL0     H26059   3.123   2.773   3.687  0.1807  0.7128  0.5193
  934MOL0     H26060   3.234   2.699   3.960  0.9220  1.4735  1.4975
  934MOL0     H26061   3.144   2.854   3.942  1.2159  1.8377 -1.3966
  934MOL0     H26062   3.312   2.893   3.742 -0.3626 -2.6130 -1.5988
  934MOL0     H26063   3.362   2.937   3.906  1.2836  0.4821 -1.3214
  934MOL0     H26064   3.431   2.681   3.770  0.4084  1.5973 -1.7565
  934MOL0     H26065   3.488   2.732   3.931 -3.1014 -3.1690  0.4897
  934MOL0     H26066   3.523   2.873   3.674  1.4620  0.7192 -0.0051
  934MOL0     H26067   3.595   2.932   3.833 -0.1438  0.5305  0.4672
  934MOL0     H26068   3.660   2.743   3.619  0.2494  1.5889 -0.7545
  934MOL0     H26069   3.700   2.674   3.785  2.7568 -0.1568  0.9630
  934MOL0     H26070   3.853   2.858   3.836 -0.5264  0.2822 -0.0010
  934MOL0     H26071   3.819   2.932   3.673 -1.8991  0.2425 -0.8059
  934MOL0     H26072   2.715   2.888   3.708  0.4930 -1.7196 -2.0737
  934MOL0     H26073   2.469   2.835   3.721  1.1456 -0.7670 -2.4044
  934MOL0     H26074   2.138   2.595   4.069  2.8694 -0.3612 -1.6661
  934MOL0     H26075   1.871   2.633   4.056 -1.0553  0.5108 -0.9866
  934MOL0     H26076   1.153   1.615   3.486 -1.3166 -0.8003 -0.0011
  934MOL0     H26077   1.318   1.732   3.386 -0.8875 -2.9705  1.9828
  934MOL0     H26078   1.708   1.849   3.126  0.0423  0.2642  0.7832
  934MOL0     H26079   1.845   2.038   3.028 -0.6019 -1.3859 -0.2993
  934MOL0     H26080   1.931   2.263   2.964 -0.2396  1.0352  0.0749
  934MOL0     H26081   1.848   2.179   2.831  0.0087 -0.7368 -0.4718
  934MOL0     H26082   1.965   2.387   2.761  0.1832  0.5600 -0.9560
  934MOL0     H26083   1.863   2.481   2.875 -0.0662 -0.4493 -0.5380
  934MOL0     H26084   1.805   2.485   2.630  1.8008 -1.1922 -1.7933
  934MOL0     H26085   1.666   2.427   2.718  0.0994  2.8052 -1.0239
  934MOL0     H26086   1.870   2.244   2.586  0.1360  2.8753  0.4930
  934MOL0     H26087   1.712   2.285   2.498 -1.2684  1.0111 -0.2381
  934MOL0     H26088   1.502   2.043   2.745  0.6916 -2.0445 -1.6310
  934MOL0     H26089   1.463   2.275   3.004 -0.0607  0.4428  0.9869
  934MOL0     H26090   1.346   2.091   3.101 -0.5030  1.3921 -1.0850
  935MOL0     O26091   9.028   0.740   5.587  0.3883 -0.2623 -0.0714
  935MOL0     C26092   8.965   0.782   5.490 -0.9420 -0.4840  0.1993
  935MOL0     O26093   9.012   0.866   5.397 -0.1136 -0.2877  0.8041
  935MOL0     C26094   9.147   0.905   5.403 -0.0191  0.0516 -0.1543
  935MOL0     C26095   9.192   1.037   5.382 -0.5360  0.3625 -0.1648
  935MOL0     C26096   9.324   1.070   5.400  0.5179 -1.3772 -0.4132
  935MOL0     C26097   9.426   0.975   5.410 -0.1225 -0.9521 -0.0707
  935MOL0     O26098   9.559   1.008   5.400  0.7175  0.6871 -0.0377
  935MOL0     C26099   9.601   1.136   5.447  0.3456  0.1640  0.3823
  935MOL0     C26100   9.578   1.172   5.595  1.1586  0.5148 -0.0387
  935MOL0     C26101   9.625   1.069   5.699 -0.6292 -0.2504 -0.2076
  935MOL0     C26102   9.776   1.046   5.688  0.2885  0.8431 -0.3422
  935MOL0     C26103   9.813   0.917   5.768  0.0119 -0.2626  0.4851
  935MOL0     C26104   9.957   0.922   5.816  0.2403 -0.2676  0.6828
  935MOL0     C26105  10.008   0.814   5.906  0.4766 -0.3610  0.1608
  935MOL0     C26106  10.071   0.695   5.826 -0.4736 -0.3218 -0.3215
  935MOL0     N26107  10.214   0.720   5.793 -0.2320  0.4439 -0.7490
  935MOL0     C26108  10.320   0.730   5.882 -0.1248  1.5634 -0.8719
  935MOL0     C26109  10.426   0.765   5.804  0.6242  0.4540 -0.6778
  935MOL0     C26110  10.565   0.800   5.843 -0.3473  0.8945  0.3111
  935MOL0     C26111  10.619   0.930   5.785 -0.8865 -0.0955  0.0152
  935MOL0     C26112  10.572   1.047   5.864 -0.2109 -0.3810 -0.2478
  935MOL0     C26113  10.626   1.172   5.795  0.2791 -0.7368  0.3256
  935MOL0     O26114  10.589   1.290   5.871  0.1376 -0.2494 -0.0816
  935MOL0     C26115  10.464   1.344   5.883 -0.2539 -0.7281 -0.3976
  935MOL0     C26116  10.358   1.298   5.801  1.0244 -0.5914 -0.5531
  935MOL0     C26117  10.235   1.361   5.810 -0.2548  0.0580  0.7995
  935MOL0     C26118  10.124   1.297   5.723 -0.0502  0.0055 -0.5604
  935MOL0     C26119  10.222   1.465   5.901 -0.2220 -0.6920 -1.2951
  935MOL0     C26120  10.092   1.518   5.928 -0.4418  0.0375 -0.0724
  935MOL0     O26121  10.012   1.465   6.018 -0.0717  0.2293 -0.0836
  935MOL0     C26122   9.882   1.515   6.021 -0.3914 -0.3473  0.0908
  935MOL0     C26123   9.773   1.447   5.962  1.0469 -0.6271  0.7296
  935MOL0     C26124   9.638   1.499   5.972 -0.0719 -0.1199  0.1196
  935MOL0     C26125   9.617   1.617   6.039  0.1977  0.6022  0.5192
  935MOL0     O26126   9.498   1.681   6.026  0.6054 -0.1363 -0.2810
  935MOL0     C26127   9.384   1.602   6.059 -1.6763  0.6725 -0.4696
  935MOL0     C26128   9.279   1.682   6.125  0.0300  0.1966 -0.0553
  935MOL0     C26129   9.315   1.738   6.268 -0.7701 -0.4055 -0.5838
  935MOL0     C26130   9.213   1.837   6.315 -0.8655  0.1503 -0.8643
  935MOL0     C26131   9.242   1.912   6.446  0.2622 -0.5034 -0.5029
  935MOL0     C26132   9.225   1.846   6.589 -0.7566  0.9395 -0.3792
  935MOL0     C26133   9.252   1.951   6.695  0.0775  0.4216  0.4638
  935MOL0     C26134   9.131   2.025   6.731 -0.8419 -0.2842  0.0185
  935MOL0    Cl26135   9.006   1.910   6.800  0.0440  0.1168  0.3922
  935MOL0     C26136   9.722   1.677   6.113  0.5792 -1.3666 -0.3809
  935MOL0     C26137   9.852   1.630   6.102 -0.2592 -0.4591  0.3670
  935MOL0     O26138  10.078   1.633   5.881 -0.0463  0.0903 -0.0769
  935MOL0     C26139  10.326   1.514   5.979 -0.6726  1.0908 -0.0344
  935MOL0     C26140  10.451   1.462   5.958  0.2029 -0.2859  0.4339
  935MOL0     N26141  10.377   0.782   5.676  0.4798  0.3283 -0.2274
  935MOL0     N26142  10.253   0.753   5.668 -0.3148 -0.0423 -0.5327
  935MOL0     C26143   9.383   0.841   5.419  0.6248 -0.2727 -0.2671
  935MOL0     C26144   9.248   0.812   5.423  0.2146  0.2554  0.1928
  935MOL0     C26145   8.831   0.719   5.465 -0.4181  0.7089  0.0705
  935MOL0     C26146   8.765   0.718   5.341  0.4743  0.4604  0.5898
  935MOL0     C26147   8.635   0.667   5.326 -0.4021 -0.0695  0.4806
  935MOL0     C26148   8.572   0.600   5.435 -0.0054 -0.3772  0.6816
  935MOL0     O26149   8.449   0.543   5.413 -0.7704 -0.4801 -0.3377
  935MOL0     C26150   8.354   0.537   5.519 -1.1228  0.8124 -0.3601
  935MOL0     C26151   8.223   0.494   5.476  0.1439  0.5097  0.3927
  935MOL0     C26152   8.168   0.539   5.346 -0.4180 -0.9083 -0.2203
  935MOL0     C26153   8.170   0.691   5.322 -0.6530  0.6722  0.5145
  935MOL0     C26154   8.095   0.735   5.205 -0.5075  0.3980 -0.2602
  935MOL0     C26155   8.052   0.783   5.107  0.2471  0.5381 -0.3957
  935MOL0     C26156   8.641   0.587   5.554  0.5144  0.5917  0.4456
  935MOL0     C26157   8.769   0.643   5.565 -0.2975  0.0908  0.6011
  935MOL0     H26158   9.114   1.110   5.362  0.4275  1.7618  1.0212
  935MOL0     H26159   9.343   1.177   5.404  0.5477 -1.3830 -0.4018
  935MOL0     H26160   9.708   1.118   5.433  0.3782 -0.5064  1.3818
  935MOL0     H26161   9.564   1.208   5.374  0.0877 -0.3189  0.0324
  935MOL0     H26162   9.617   1.271   5.618 -0.8061  1.7697 -1.7552
  935MOL0     H26163   9.469   1.181   5.597  1.2911  2.4423 -0.1541
  935MOL0     H26164   9.615   1.106   5.801 -1.6205 -2.8132  0.7227
  935MOL0     H26165   9.564   0.979   5.682  0.4147 -1.4078  1.7522
  935MOL0     H26166   9.813   1.028   5.587  1.3020 -1.2495  0.3412
  935MOL0     H26167   9.828   1.133   5.730  1.4632 -0.3597  0.7860
  935MOL0     H26168   9.744   0.910   5.853  1.0278 -1.7191  1.2515
  935MOL0     H26169   9.799   0.821   5.717  2.2286 -0.8719  0.9316
  935MOL0     H26170  10.022   0.936   5.729 -0.8703  1.4735  0.0856
  935MOL0     H26171   9.977   1.019   5.863  1.7062 -0.0283 -0.3483
  935MOL0     H26172  10.085   0.849   5.974 -0.9429  1.2824  1.0045
  935MOL0     H26173   9.924   0.774   5.964 -1.4762  2.5812 -0.4069
  935MOL0     H26174  10.006   0.668   5.743 -1.0157 -2.5109  0.7335
  935MOL0     H26175  10.093   0.611   5.893  3.2302  1.3100  0.8363
  935MOL0     H26176  10.319   0.689   5.983 -0.9133  0.8639 -1.1464
  935MOL0     H26177  10.556   0.798   5.952  1.1422  2.9593  0.5283
  935MOL0     H26178  10.626   0.715   5.809 -1.8662 -0.2120  0.2338
  935MOL0     H26179  10.600   0.933   5.677  1.3665 -1.8667 -0.5214
  935MOL0     H26180  10.728   0.920   5.792 -0.5766  2.2042 -0.7811
  935MOL0     H26181  10.621   1.034   5.961  0.3019 -3.9438 -0.8347
  935MOL0     H26182  10.463   1.042   5.868 -0.2692 -2.8441 -2.3389
  935MOL0     H26183  10.587   1.194   5.695  2.0085  2.8526  0.2690
  935MOL0     H26184  10.736   1.176   5.790  0.5092  4.7649  2.7751
  935MOL0     H26185  10.375   1.215   5.733  0.0140 -1.7323  0.5337
  935MOL0     H26186  10.094   1.200   5.764 -2.5889  0.5116 -1.1010
  935MOL0     H26187  10.036   1.360   5.710 -1.9792 -2.1630  1.1264
  935MOL0     H26188  10.161   1.295   5.620  2.3007  0.5266  0.2092
  935MOL0     H26189   9.790   1.356   5.905 -0.2261  0.0441 -0.7993
  935MOL0     H26190   9.560   1.444   5.919 -1.0613  1.2269  0.1180
  935MOL0     H26191   9.350   1.551   5.968  0.9334 -0.5043 -0.8466
  935MOL0     H26192   9.409   1.529   6.135 -1.0552  2.6198  1.2974
  935MOL0     H26193   9.239   1.747   6.046  1.3453 -1.5653 -2.2875
  935MOL0     H26194   9.194   1.615   6.141 -0.1010  0.8971  2.7777
  935MOL0     H26195   9.416   1.780   6.277  0.1457 -2.7890  1.1106
  935MOL0     H26196   9.340   1.660   6.340  1.2564  0.7966  0.1161
  935MOL0     H26197   9.195   1.904   6.231  0.3857 -2.7319 -3.6280
  935MOL0     H26198   9.119   1.787   6.340 -0.7376  0.4258  0.2146
  935MOL0     H26199   9.186   2.006   6.447  1.5140  0.3982  3.2741
  935MOL0     H26200   9.347   1.940   6.434  0.3272 -1.1556 -1.5312
  935MOL0     H26201   9.128   1.794   6.594 -1.2699  1.9686  0.6692
  935MOL0     H26202   9.299   1.766   6.598 -3.0713 -1.5454 -1.9102
  935MOL0     H26203   9.331   2.020   6.665 -0.3010  0.3603 -0.7359
  935MOL0     H26204   9.277   1.907   6.792 -1.9554  1.5297  1.5514
  935MOL0     H26205   9.096   2.077   6.641  1.3866  0.9385 -0.2052
  935MOL0     H26206   9.158   2.100   6.807 -1.1752 -0.5705  0.4214
  935MOL0     H26207   9.713   1.776   6.156  1.7585 -1.2145 -0.4703
  935MOL0     H26208   9.926   1.688   6.157 -1.8275  1.4444  0.5753
  935MOL0     H26209  10.307   1.602   6.040  1.6017  1.9037 -0.3779
  935MOL0     H26210  10.538   1.505   6.006  1.7195  1.2987 -3.3977
  935MOL0     H26211   9.458   0.763   5.412  0.3861 -0.4157 -1.5324
  935MOL0     H26212   9.215   0.710   5.437 -0.9771  0.8245  1.8672
  935MOL0     H26213   8.829   0.761   5.264  0.1334 -2.0199 -1.2000
  935MOL0     H26214   8.579   0.663   5.233  1.3470 -0.3578 -0.6067
  935MOL0     H26215   8.388   0.467   5.597 -1.1836  3.0155  1.7816
  935MOL0     H26216   8.342   0.630   5.575  0.1585  1.0510 -0.4544
  935MOL0     H26217   8.152   0.524   5.553 -0.1721 -0.0944  0.3483
  935MOL0     H26218   8.242   0.386   5.478 -0.4767  0.3790 -0.4226
  935MOL0     H26219   8.063   0.511   5.341 -1.2650  1.9904 -0.8986
  935MOL0     H26220   8.217   0.491   5.261 -2.3546 -0.0478 -1.9033
  935MOL0     H26221   8.272   0.727   5.309  0.2589 -1.4939  1.1985
  935MOL0     H26222   8.137   0.747   5.410 -2.0916 -1.3118  1.3302
  935MOL0     H26223   8.023   0.806   5.006 -1.1911 -1.7382 -0.5666
  935MOL0     H26224   8.602   0.529   5.638  1.0491  0.8158  0.8539
  935MOL0     H26225   8.825   0.631   5.658  0.5192 -0.3664  0.0708
  936MOL0     O26226   1.937   7.877   6.250 -0.4261 -0.1717  0.2689
  936MOL0     C26227   1.896   7.933   6.148 -0.4619 -0.2276  0.9565
  936MOL0     O26228   1.983   7.997   6.055 -0.0916  0.4340  0.3484
  936MOL0     C26229   2.115   7.983   6.049  0.1876  0.3207 -0.3515
  936MOL0     C26230   2.176   8.072   5.961 -0.4691  0.3234 -0.7618
  936MOL0     C26231   2.311   8.075   5.940 -0.1120 -0.2160  0.2690
  936MOL0     C26232   2.394   7.976   6.006 -0.2283  0.7752 -0.2742
  936MOL0     O26233   2.520   7.966   5.963  0.1475 -0.1316  0.3926
  936MOL0     C26234   2.623   7.917   6.050  0.8571  0.9354 -0.5638
  936MOL0     C26235   2.757   7.918   5.979  0.6293 -0.3822 -0.2390
  936MOL0     C26236   2.823   8.053   5.969 -0.0006 -0.0328  0.0910
  936MOL0     C26237   2.911   8.051   5.848 -0.2093 -0.3613 -0.5102
  936MOL0     C26238   2.974   8.187   5.807  0.1063 -0.1913 -0.2372
  936MOL0     C26239   3.093   8.171   5.705  0.1229 -0.0032  0.1879
  936MOL0     C26240   3.063   8.225   5.574 -0.4079  0.6672  0.1820
  936MOL0     C26241   2.959   8.156   5.491  0.3124  0.3278  0.9282
  936MOL0     N26242   2.938   8.227   5.356  0.4995  0.3948 -0.1184
  936MOL0     C26243   3.035   8.232   5.256 -0.1068  0.3259 -0.4522
  936MOL0     C26244   2.978   8.291   5.151 -0.0726  0.1125 -0.2289
  936MOL0     C26245   3.036   8.324   5.018  0.2874  0.1850  0.4921
  936MOL0     C26246   2.992   8.218   4.915 -0.5485 -0.5385  0.1725
  936MOL0     C26247   2.850   8.241   4.869  0.7642 -0.2516  0.5830
  936MOL0     C26248   2.789   8.116   4.803 -0.4626 -0.4810  0.2081
  936MOL0     O26249   2.656   8.130   4.748  0.0468  0.0743 -0.7949
  936MOL0     C26250   2.583   8.025   4.697 -1.1544  0.6566 -0.6602
  936MOL0     C26251   2.643   7.903   4.682  0.8781 -0.1974 -0.1319
  936MOL0     C26252   2.567   7.793   4.644 -0.7122  0.0049  0.6417
  936MOL0     C26253   2.645   7.661   4.636 -0.6483 -0.1100 -0.4012
  936MOL0     C26254   2.430   7.799   4.619 -0.4535 -0.6762  0.0526
  936MOL0     C26255   2.344   7.682   4.599 -0.2273 -0.5518  0.1386
  936MOL0     O26256   2.215   7.713   4.552  0.1441 -0.2134  0.4904
  936MOL0     C26257   2.110   7.627   4.546 -0.2166 -0.3320  0.2026
  936MOL0     C26258   1.987   7.655   4.614 -0.6812  0.1445 -1.0801
  936MOL0     C26259   1.887   7.558   4.601  0.4208 -0.2829  1.0576
  936MOL0     C26260   1.888   7.447   4.520 -0.2003  0.0527  0.1253
  936MOL0     O26261   1.779   7.358   4.510 -0.2097  0.0403  0.7113
  936MOL0     C26262   1.830   7.227   4.503  0.1345  0.8642 -0.6489
  936MOL0     C26263   1.722   7.131   4.552  0.7945  0.7101  0.9469
  936MOL0     C26264   1.624   7.077   4.443  1.2503  0.2444  0.8113
  936MOL0     C26265   1.524   7.185   4.394 -0.1226 -0.1096 -0.5534
  936MOL0     C26266   1.420   7.120   4.295 -0.6002  0.5295  0.5608
  936MOL0     C26267   1.317   7.214   4.229  0.1927  0.3138 -0.4668
  936MOL0     C26268   1.200   7.144   4.166 -0.4179  0.2685 -0.8234
  936MOL0     C26269   1.094   7.238   4.105 -0.1390  0.3031  0.3250
  936MOL0    Cl26270   0.983   7.132   4.025  0.0882  0.4138  0.0892
  936MOL0     C26271   2.007   7.432   4.447 -0.5672  0.2522  0.0734
  936MOL0     C26272   2.123   7.505   4.475 -0.0445 -0.6768  0.1087
  936MOL0     O26273   2.380   7.576   4.639 -0.4800  0.7576 -0.0989
  936MOL0     C26274   2.372   7.938   4.626  0.3109 -0.0349  1.0296
  936MOL0     C26275   2.449   8.044   4.667 -0.4192 -0.2721  0.5798
  936MOL0     N26276   2.847   8.334   5.187  0.4819  0.1130  0.1219
  936MOL0     N26277   2.825   8.288   5.307  0.1710 -0.2102 -0.1917
  936MOL0     C26278   2.333   7.887   6.098  0.2413  1.1364  1.4698
  936MOL0     C26279   2.198   7.896   6.127 -0.1180 -0.0298 -0.0090
  936MOL0     C26280   1.746   7.959   6.123 -0.2034  0.2071 -0.6634
  936MOL0     C26281   1.709   8.051   6.029 -0.0792 -0.2054 -0.1113
  936MOL0     C26282   1.576   8.082   6.010 -0.0809 -0.4809 -0.2848
  936MOL0     C26283   1.472   8.024   6.083  0.0988 -0.2025 -0.3466
  936MOL0     O26284   1.339   8.050   6.068 -0.4826  0.1162  0.1178
  936MOL0     C26285   1.307   8.125   5.950  0.9491 -0.2046 -0.0337
  936MOL0     C26286   1.162   8.104   5.900 -0.0960  1.1298  0.7144
  936MOL0     C26287   1.135   7.956   5.879  0.1612  0.5475  0.3431
  936MOL0     C26288   1.000   7.928   5.802  0.6833  0.2809 -0.4994
  936MOL0     C26289   0.895   7.962   5.894 -0.1343  0.7553  0.4913
  936MOL0     C26290   0.796   7.992   5.961  0.8467  0.4307  0.5389
  936MOL0     C26291   1.513   7.932   6.176  0.7418 -0.4721 -0.9486
  936MOL0     C26292   1.644   7.908   6.211  0.4325  1.1394  0.3567
  936MOL0     H26293   2.122   8.150   5.909  1.5637  1.3355 -1.4519
  936MOL0     H26294   2.365   8.137   5.870  0.5806 -3.1102 -1.9775
  936MOL0     H26295   2.632   7.984   6.137  1.3284  1.1331 -0.7616
  936MOL0     H26296   2.605   7.817   6.089  2.5298  0.6360 -0.4913
  936MOL0     H26297   2.829   7.854   6.032  1.9935 -0.1413 -1.7327
  936MOL0     H26298   2.736   7.878   5.879 -2.2964 -0.7270  0.4386
  936MOL0     H26299   2.739   8.120   5.951 -0.2024 -0.7697 -1.8494
  936MOL0     H26300   2.881   8.080   6.059  0.8859  0.5580 -0.6393
  936MOL0     H26301   2.985   7.972   5.860 -0.9292 -1.3375 -2.1437
  936MOL0     H26302   2.853   8.003   5.769 -1.3108 -2.9705  1.7360
  936MOL0     H26303   2.901   8.259   5.770  1.6817  2.0083  0.7457
  936MOL0     H26304   3.008   8.232   5.901 -0.5906  0.1935 -0.1679
  936MOL0     H26305   3.172   8.238   5.740 -1.4460  2.1548 -0.2359
  936MOL0     H26306   3.128   8.067   5.705 -1.1437 -0.4640  1.3092
  936MOL0     H26307   3.026   8.324   5.602 -0.1700  0.6742  0.4708
  936MOL0     H26308   3.152   8.228   5.510 -1.3394 -1.0500 -1.2879
  936MOL0     H26309   2.861   8.152   5.540 -0.5732  0.5211 -0.7124
  936MOL0     H26310   2.985   8.053   5.463  0.6945  1.0407 -1.5604
  936MOL0     H26311   3.131   8.184   5.242 -2.8811 -6.3219 -0.3814
  936MOL0     H26312   3.002   8.422   4.983 -0.6368 -0.7046 -1.2760
  936MOL0     H26313   3.145   8.322   5.024  0.2288 -1.5711  1.7095
  936MOL0     H26314   3.014   8.116   4.948 -0.4036 -1.2928 -2.0896
  936MOL0     H26315   3.052   8.217   4.823 -1.8983 -0.9588 -0.7510
  936MOL0     H26316   2.844   8.331   4.808 -2.4472  0.2129  1.3980
  936MOL0     H26317   2.783   8.256   4.954 -4.0427 -0.0107 -2.8849
  936MOL0     H26318   2.796   8.030   4.870 -0.0827 -0.2587  0.4551
  936MOL0     H26319   2.852   8.101   4.715  2.1874  3.1192  1.2343
  936MOL0     H26320   2.749   7.889   4.703  0.1826 -3.5953  1.8351
  936MOL0     H26321   2.627   7.601   4.726  0.1353  0.9728  0.4886
  936MOL0     H26322   2.620   7.608   4.543 -0.4056 -3.1941  1.1568
  936MOL0     H26323   2.753   7.673   4.641 -0.2159 -2.8070 -1.3802
  936MOL0     H26324   1.973   7.731   4.690  1.0647 -1.7287  1.2967
  936MOL0     H26325   1.801   7.582   4.662  1.6762  3.6113  1.6057
  936MOL0     H26326   1.862   7.189   4.406 -0.8271 -1.0889 -0.2627
  936MOL0     H26327   1.913   7.205   4.571  0.0899 -1.0820 -1.1591
  936MOL0     H26328   1.773   7.039   4.581  1.6694  1.3392  1.4099
  936MOL0     H26329   1.680   7.157   4.650  1.2504  1.3495  0.9765
  936MOL0     H26330   1.562   6.997   4.484 -0.9740  0.1369 -2.3949
  936MOL0     H26331   1.681   7.035   4.360  0.9385  1.1664  0.1179
  936MOL0     H26332   1.468   7.223   4.479  0.8434  0.0034  0.0538
  936MOL0     H26333   1.579   7.266   4.345 -0.0220  1.5098  2.0610
  936MOL0     H26334   1.372   7.047   4.361  1.2581  1.2204  2.8479
  936MOL0     H26335   1.467   7.060   4.217 -1.2017  0.9853 -0.1578
  936MOL0     H26336   1.284   7.282   4.307  2.2050 -1.9732  2.5810
  936MOL0     H26337   1.363   7.278   4.153 -1.8789  2.1668 -0.2531
  936MOL0     H26338   1.154   7.078   4.240  0.1132  0.6094 -0.1708
  936MOL0     H26339   1.244   7.077   4.092  3.3139  0.6959  0.7551
  936MOL0     H26340   1.131   7.317   4.039 -0.8055  0.5252  0.2026
  936MOL0     H26341   1.042   7.302   4.178  1.3470  1.9590  0.0021
  936MOL0     H26342   2.022   7.349   4.379 -2.5457 -1.0980  1.1981
  936MOL0     H26343   2.215   7.491   4.419 -0.5750 -2.7432 -0.3314
  936MOL0     H26344   2.264   7.948   4.621  0.3365  0.4037  1.2768
  936MOL0     H26345   2.397   8.136   4.691 -2.4865 -1.1226 -0.4170
  936MOL0     H26346   2.398   7.816   6.149  0.8864  1.4978  1.1583
  936MOL0     H26347   2.157   7.824   6.198 -4.9475 -1.7406 -3.9431
  936MOL0     H26348   1.793   8.090   5.972  1.2304 -1.3834  0.9219
  936MOL0     H26349   1.563   8.168   5.946 -0.3459 -0.1160  0.2486
  936MOL0     H26350   1.317   8.233   5.965 -3.5610  0.1375  2.6761
  936MOL0     H26351   1.381   8.099   5.874  1.4249 -1.0250  0.6826
  936MOL0     H26352   1.137   8.160   5.810 -1.1581  0.4101  0.5388
  936MOL0     H26353   1.102   8.145   5.981 -2.0788  0.2801 -0.2540
  936MOL0     H26354   1.135   7.897   5.971 -0.0150  1.0934  0.6983
  936MOL0     H26355   1.218   7.915   5.822 -0.6878 -2.6714  1.2371
  936MOL0     H26356   0.988   7.822   5.778  2.2485 -0.2808  0.9840
  936MOL0     H26357   0.987   7.994   5.716 -1.1139  3.1239  1.7805
  936MOL0     H26358   0.705   8.027   6.006  0.8797  2.5260 -0.8868
  936MOL0     H26359   1.437   7.895   6.244 -0.2948  2.3804 -0.4107
  936MOL0     H26360   1.658   7.849   6.301 -0.2194  0.0507 -0.2349
  937MOL0     O26361   0.208   6.874   3.534  0.3068  0.6025  0.4747
  937MOL0     C26362   0.150   6.774   3.554 -0.4723  1.1971 -1.5210
  937MOL0     O26363   0.014   6.769   3.576 -0.3006  0.8931 -0.3507
  937MOL0     C26364  -0.063   6.883   3.587  0.0808  0.2696 -0.8629
  937MOL0     C26365  -0.015   7.018   3.611  0.3145  1.2237 -0.6951
  937MOL0     C26366  -0.099   7.131   3.615  0.1274  0.0748 -0.3759
  937MOL0     C26367  -0.234   7.111   3.596 -0.6535 -0.5458 -0.5803
  937MOL0     O26368  -0.333   7.208   3.608 -0.3620 -0.6447  0.4275
  937MOL0     C26369  -0.292   7.342   3.643 -0.8505  0.0037  0.1608
  937MOL0     C26370  -0.422   7.434   3.643  0.0331 -0.1845  0.1994
  937MOL0     C26371  -0.519   7.418   3.523 -0.0708 -0.0099 -0.4947
  937MOL0     C26372  -0.468   7.472   3.384 -0.1299  0.5424 -0.4988
  937MOL0     C26373  -0.564   7.458   3.275  0.7227 -0.9490  0.3538
  937MOL0     C26374  -0.570   7.573   3.169  0.6380  0.1598 -0.4360
  937MOL0     C26375  -0.438   7.594   3.098  0.2985  0.3758  0.2332
  937MOL0     C26376  -0.455   7.647   2.958 -1.0045 -0.0275  0.5565
  937MOL0     N26377  -0.506   7.783   2.959  0.9008  0.0317  0.1448
  937MOL0     C26378  -0.637   7.818   2.963 -0.2649  1.1480  0.4240
  937MOL0     C26379  -0.638   7.949   3.015  1.4844 -0.5326  1.0279
  937MOL0     C26380  -0.747   8.041   3.064  0.7999  0.5043  1.0428
  937MOL0     C26381  -0.785   8.124   2.942 -0.7726 -0.3048 -0.7292
  937MOL0     C26382  -0.892   8.225   2.969 -0.0459 -0.4246  0.2887
  937MOL0     C26383  -1.031   8.166   2.976 -0.4342 -0.0840  0.0225
  937MOL0     O26384  -1.120   8.272   3.001 -0.0012 -0.1449  0.4759
  937MOL0     C26385  -1.254   8.242   2.992 -0.1088 -0.3996  0.1151
  937MOL0     C26386  -1.338   8.259   3.095 -0.5402 -0.9559 -0.6078
  937MOL0     C26387  -1.468   8.215   3.097 -0.4157  0.8585  1.3683
  937MOL0     C26388  -1.549   8.230   3.221  0.2115 -0.1242  0.2098
  937MOL0     C26389  -1.524   8.148   2.983 -0.9494 -0.2620  0.5245
  937MOL0     C26390  -1.649   8.078   2.983  0.2758  0.0303 -0.5949
  937MOL0     O26391  -1.760   8.129   3.048  0.2473 -0.2639  0.8494
  937MOL0     C26392  -1.886   8.090   2.999  0.3011  0.1002 -0.2009
  937MOL0     C26393  -1.993   8.072   3.094 -0.9245 -0.1509 -0.2223
  937MOL0     C26394  -2.117   8.035   3.067  0.3238  1.0871  0.0148
  937MOL0     C26395  -2.150   8.026   2.930  1.2502  0.0842 -0.4714
  937MOL0     O26396  -2.276   8.006   2.875  0.0299  0.4024 -0.6057
  937MOL0     C26397  -2.388   8.063   2.948  1.0437 -0.1239  0.0755
  937MOL0     C26398  -2.512   8.072   2.853 -0.3361  0.3498 -0.1463
  937MOL0     C26399  -2.613   8.166   2.915 -0.2276 -0.1587  0.2368
  937MOL0     C26400  -2.755   8.107   2.881 -0.9823  0.5421  0.5832
  937MOL0     C26401  -2.879   8.190   2.917  0.3872  0.2023  0.0477
  937MOL0     C26402  -2.992   8.119   2.870  0.2988 -0.7274  0.3715
  937MOL0     C26403  -3.117   8.206   2.880  0.1683 -0.0068  0.0580
  937MOL0     C26404  -3.232   8.132   2.809  0.7475  0.8960 -0.4493
  937MOL0    Cl26405  -3.250   7.982   2.904  0.3621 -0.4844 -0.2532
  937MOL0     C26406  -2.048   8.035   2.839 -0.1704  0.5762  0.8269
  937MOL0     C26407  -1.924   8.064   2.864  0.0171 -0.2001 -0.2270
  937MOL0     O26408  -1.645   7.984   2.906 -0.2246  0.0426  0.3832
  937MOL0     C26409  -1.446   8.147   2.860 -0.4146  0.0155  0.4961
  937MOL0     C26410  -1.308   8.195   2.867  1.0132  0.1275  0.2497
  937MOL0     N26411  -0.509   7.987   3.021  0.2235  0.4666 -0.5235
  937MOL0     N26412  -0.426   7.891   2.984  0.5726 -0.3959  0.0979
  937MOL0     C26413  -0.282   6.983   3.577  0.6828  0.6100 -0.2571
  937MOL0     C26414  -0.197   6.866   3.578  1.1648 -0.0698  0.6116
  937MOL0     C26415   0.226   6.649   3.536 -0.4584 -0.4444 -0.0688
  937MOL0     C26416   0.150   6.528   3.546 -0.9562  0.4354 -0.6421
  937MOL0     C26417   0.217   6.400   3.547 -0.1408 -0.1594  0.5761
  937MOL0     C26418   0.355   6.391   3.517 -0.3346  0.3365  0.2032
  937MOL0     O26419   0.426   6.271   3.504 -0.4554  0.5589  0.2815
  937MOL0     C26420   0.347   6.165   3.451  0.1812 -0.0271 -0.0421
  937MOL0     C26421   0.450   6.087   3.362  0.0958  0.1393  0.0917
  937MOL0     C26422   0.395   5.950   3.313  0.1763  0.6142 -0.2917
  937MOL0     C26423   0.509   5.881   3.240  0.4512  0.7917 -0.2832
  937MOL0     C26424   0.478   5.735   3.212  0.4582  0.1529 -0.1087
  937MOL0     C26425   0.452   5.620   3.184 -0.0771 -0.1349  0.9164
  937MOL0     C26426   0.431   6.508   3.520  0.3493 -0.2091  0.3026
  937MOL0     C26427   0.371   6.634   3.537 -0.2855  0.6791 -0.7873
  937MOL0     H26428   0.092   7.035   3.617  0.4385  0.3090 -0.0114
  937MOL0     H26429  -0.056   7.228   3.637 -1.0245  0.3821  0.6472
  937MOL0     H26430  -0.247   7.347   3.742 -1.1734  0.2900  0.2947
  937MOL0     H26431  -0.216   7.379   3.574 -0.4882 -0.6777  0.1815
  937MOL0     H26432  -0.475   7.414   3.736 -0.4987  1.2199  0.2167
  937MOL0     H26433  -0.385   7.536   3.654 -1.7206  0.6649 -1.2451
  937MOL0     H26434  -0.543   7.312   3.507  2.2491 -0.1502 -4.3124
  937MOL0     H26435  -0.609   7.476   3.546 -1.2070 -2.2259  1.1130
  937MOL0     H26436  -0.426   7.572   3.393  1.2074  0.0467 -0.9390
  937MOL0     H26437  -0.384   7.406   3.360  1.9530  1.6936  2.9029
  937MOL0     H26438  -0.538   7.369   3.218 -0.0678 -0.6765 -0.4651
  937MOL0     H26439  -0.668   7.453   3.311  0.1451 -0.4392 -1.1627
  937MOL0     H26440  -0.634   7.537   3.088  0.2400  0.4433 -0.2493
  937MOL0     H26441  -0.616   7.660   3.217 -4.1738 -2.4684  0.3795
  937MOL0     H26442  -0.381   7.668   3.155  1.1736 -0.9054  1.0676
  937MOL0     H26443  -0.366   7.511   3.104  0.9216  0.8010 -1.0429
  937MOL0     H26444  -0.528   7.586   2.903 -1.9146  0.6851  0.9525
  937MOL0     H26445  -0.364   7.635   2.897 -0.8518  1.9974  0.3097
  937MOL0     H26446  -0.718   7.748   2.946  0.0816  1.2826 -2.2241
  937MOL0     H26447  -0.842   7.991   3.086  0.2886  0.6210 -0.6821
  937MOL0     H26448  -0.710   8.088   3.155  4.4632 -1.5363  0.8023
  937MOL0     H26449  -0.817   8.053   2.865  1.0547 -0.3738 -1.4920
  937MOL0     H26450  -0.704   8.176   2.890 -1.8909  1.8415 -0.4418
  937MOL0     H26451  -0.886   8.295   2.885 -1.5172  0.2588  0.7227
  937MOL0     H26452  -0.872   8.282   3.060 -1.0815 -2.5206  1.8994
  937MOL0     H26453  -1.030   8.091   3.055  1.1806 -0.8977 -0.7235
  937MOL0     H26454  -1.043   8.112   2.882 -1.3049  0.5790 -0.2594
  937MOL0     H26455  -1.297   8.307   3.183  1.1999 -1.5528 -1.0693
  937MOL0     H26456  -1.560   8.137   3.278 -1.0594 -0.6553 -0.8147
  937MOL0     H26457  -1.497   8.298   3.288 -1.2486  0.4196  0.8431
  937MOL0     H26458  -1.650   8.266   3.198 -0.5372 -1.9505  0.4475
  937MOL0     H26459  -1.969   8.102   3.196 -2.9491 -0.8053  0.4960
  937MOL0     H26460  -2.191   8.030   3.146 -0.3049  3.0499 -0.3774
  937MOL0     H26461  -2.413   8.007   3.039 -1.3759 -0.8848 -0.9730
  937MOL0     H26462  -2.361   8.165   2.978 -2.4006  0.9214  0.0787
  937MOL0     H26463  -2.468   8.116   2.763  3.3549  2.8642  2.6097
  937MOL0     H26464  -2.549   7.971   2.830 -0.1181 -0.2279  1.9002
  937MOL0     H26465  -2.593   8.267   2.878  1.9359 -0.8865 -0.7644
  937MOL0     H26466  -2.609   8.171   3.024 -2.0080 -0.0823  0.3245
  937MOL0     H26467  -2.758   8.086   2.773 -0.1882  0.2179  0.6096
  937MOL0     H26468  -2.741   8.007   2.924  0.4060  2.1153  4.1121
  937MOL0     H26469  -2.873   8.284   2.862 -4.0938  1.0432  0.6416
  937MOL0     H26470  -2.886   8.214   3.024 -2.3751  3.0418 -0.6283
  937MOL0     H26471  -2.956   8.097   2.769  1.5829  1.9504  0.1597
  937MOL0     H26472  -3.003   8.032   2.936  1.0364 -2.1883 -1.3449
  937MOL0     H26473  -3.110   8.306   2.835  2.3268  0.0667  0.4319
  937MOL0     H26474  -3.143   8.210   2.986 -3.9424 -0.5839 -0.7439
  937MOL0     H26475  -3.190   8.102   2.712  0.2609 -1.3712 -0.0005
  937MOL0     H26476  -3.326   8.186   2.797 -0.4801 -0.9687  0.4702
  937MOL0     H26477  -2.067   8.021   2.733  0.9571  0.6947  0.6013
  937MOL0     H26478  -1.857   8.082   2.780 -2.9755  0.4479 -2.6769
  937MOL0     H26479  -1.481   8.111   2.764  0.9186  1.0049 -0.4099
  937MOL0     H26480  -1.242   8.187   2.782 -1.3486 -1.1423 -1.5936
  937MOL0     H26481  -0.389   6.972   3.570  0.8324 -2.3674  0.6925
  937MOL0     H26482  -0.242   6.770   3.557 -1.1748  1.2154 -0.7332
  937MOL0     H26483   0.042   6.538   3.552 -1.2098 -0.9191 -2.3525
  937MOL0     H26484   0.163   6.306   3.550  1.6749 -1.3840 -1.9710
  937MOL0     H26485   0.312   6.100   3.531 -0.1290 -0.0956 -0.2294
  937MOL0     H26486   0.264   6.204   3.390 -1.5829  2.1480  3.4034
  937MOL0     H26487   0.532   6.064   3.432  0.5689  1.8052  0.1316
  937MOL0     H26488   0.492   6.146   3.280  0.6742 -1.0741 -0.5162
  937MOL0     H26489   0.316   5.969   3.240  0.1924 -1.9956 -1.1058
  937MOL0     H26490   0.367   5.881   3.393 -1.6981  0.4454 -1.0463
  937MOL0     H26491   0.597   5.881   3.304  0.5184 -1.4742 -0.2783
  937MOL0     H26492   0.524   5.928   3.142 -0.4371  1.0597 -0.3003
  937MOL0     H26493   0.432   5.524   3.141 -0.9334  0.4712 -0.1031
  937MOL0     H26494   0.539   6.507   3.508  0.5218 -0.6219  1.6756
  937MOL0     H26495   0.435   6.721   3.543 -0.0441  0.5032 -0.7606
  938MOL0     O26496   0.428   5.111  11.207 -0.0678 -0.0736 -0.4961
  938MOL0     C26497   0.456   5.027  11.114  0.7042 -0.3766  0.0729
  938MOL0     O26498   0.375   4.916  11.080  0.1512 -0.2883  1.0812
  938MOL0     C26499   0.254   4.902  11.151  0.4555 -0.0147  0.1328
  938MOL0     C26500   0.131   4.913  11.078 -0.1505  0.2483  0.0619
  938MOL0     C26501   0.002   4.886  11.140  0.4568  0.0683  0.8366
  938MOL0     C26502  -0.011   4.852  11.275  0.1013 -0.4106  0.0161
  938MOL0     O26503  -0.138   4.818  11.321 -0.1374  0.0700 -0.0679
  938MOL0     C26504  -0.162   4.778  11.456 -0.3741  0.5813  0.6067
  938MOL0     C26505  -0.307   4.746  11.473 -0.6964  0.2713  1.0882
  938MOL0     C26506  -0.347   4.749  11.619  0.0383 -0.0220 -0.4230
  938MOL0     C26507  -0.465   4.650  11.635 -0.8950  1.0811  0.0155
  938MOL0     C26508  -0.538   4.699  11.757 -0.1324  0.1145 -0.0668
  938MOL0     C26509  -0.652   4.593  11.784  0.4221 -0.3359 -0.5025
  938MOL0     C26510  -0.713   4.596  11.929 -0.1414 -0.3169 -1.1375
  938MOL0     C26511  -0.813   4.477  11.944 -0.0732 -0.2803  0.3275
  938MOL0     N26512  -0.862   4.465  12.084 -0.4097  0.3772 -0.4356
  938MOL0     C26513  -0.967   4.533  12.141  0.2081  0.4597 -0.6212
  938MOL0     C26514  -0.980   4.466  12.264  0.2141 -0.8169 -0.1969
  938MOL0     C26515  -1.083   4.492  12.370  0.5715 -1.5785  0.3413
  938MOL0     C26516  -1.238   4.479  12.322  1.1674  0.1342  0.0809
  938MOL0     C26517  -1.340   4.524  12.441  0.3307  0.3731  0.1765
  938MOL0     C26518  -1.316   4.673  12.491  0.3256 -0.2850 -0.7070
  938MOL0     O26519  -1.336   4.665  12.638 -0.1703 -0.5084  0.3866
  938MOL0     C26520  -1.448   4.616  12.685 -0.4466  0.9296 -0.8115
  938MOL0     C26521  -1.576   4.647  12.637 -0.1240  0.5376 -0.0802
  938MOL0     C26522  -1.689   4.585  12.693 -0.0157 -0.6647  0.0453
  938MOL0     C26523  -1.819   4.620  12.629 -0.0424 -0.0088 -0.8352
  938MOL0     C26524  -1.679   4.506  12.809 -0.1050 -0.1169  0.3072
  938MOL0     C26525  -1.793   4.446  12.884  0.0403 -1.2033 -0.0816
  938MOL0     O26526  -1.779   4.319  12.925 -0.2119  0.5784 -0.0429
  938MOL0     C26527  -1.889   4.245  12.944  0.3638 -1.0725 -0.3715
  938MOL0     C26528  -1.991   4.239  12.845  0.3701  0.1791  0.3057
  938MOL0     C26529  -2.109   4.159  12.866 -0.2013  0.4355  0.3174
  938MOL0     C26530  -2.119   4.084  12.982 -0.7085  0.4638 -0.4591
  938MOL0     O26531  -2.229   3.999  13.002 -0.4083  0.9531  0.3192
  938MOL0     C26532  -2.354   4.063  12.982 -0.3147  0.0912  0.2869
  938MOL0     C26533  -2.455   4.013  13.085 -0.1363 -0.3055  0.5702
  938MOL0     C26534  -2.592   4.056  13.078 -0.8112  0.0179  0.8128
  938MOL0     C26535  -2.669   4.004  13.193  0.1760 -0.9395  0.2671
  938MOL0     C26536  -2.822   4.040  13.186 -0.2523 -0.2050  0.0640
  938MOL0     C26537  -2.885   4.034  13.046  0.8826  0.1222  0.2753
  938MOL0     C26538  -3.040   4.025  13.055  0.4297 -0.2731  0.2179
  938MOL0     C26539  -3.085   3.964  12.922 -0.0049  0.0361  0.1407
  938MOL0    Cl26540  -3.258   3.938  12.933 -0.1053  0.1578 -0.6919
  938MOL0     C26541  -2.002   4.074  13.067  1.0883 -0.1754 -0.1794
  938MOL0     C26542  -1.892   4.154  13.048 -0.4172 -0.3123  0.5885
  938MOL0     O26543  -1.893   4.515  12.898  0.4151 -0.3376 -0.1180
  938MOL0     C26544  -1.553   4.488  12.863  0.1000 -0.3951 -0.4377
  938MOL0     C26545  -1.438   4.537  12.800  0.2845 -0.8344 -1.0311
  938MOL0     N26546  -0.882   4.365  12.270  0.3930 -0.4011 -0.2352
  938MOL0     N26547  -0.810   4.379  12.175  0.4006  1.0282 -0.3524
  938MOL0     C26548   0.110   4.857  11.348 -0.2301  1.2472 -0.6735
  938MOL0     C26549   0.236   4.884  11.289 -0.3610  0.0971 -0.0704
  938MOL0     C26550   0.578   5.055  11.048  0.8571  0.5732 -0.2006
  938MOL0     C26551   0.628   4.956  10.952  0.6077  0.3056 -0.0187
  938MOL0     C26552   0.747   4.988  10.890  0.4171 -0.2293 -0.4756
  938MOL0     C26553   0.818   5.101  10.919 -0.4233 -1.0399 -0.4753
  938MOL0     O26554   0.934   5.131  10.858 -0.7106  0.4543  0.4145
  938MOL0     C26555   1.054   5.156  10.935  0.3397 -0.5821  0.3433
  938MOL0     C26556   1.168   5.185  10.840 -0.8530  0.1560 -0.1549
  938MOL0     C26557   1.296   5.211  10.918 -1.0105 -0.7518 -0.0954
  938MOL0     C26558   1.412   5.254  10.833  0.7759 -0.0131  0.3775
  938MOL0     C26559   1.461   5.145  10.747  0.0109  0.0893 -0.4983
  938MOL0     C26560   1.491   5.055  10.675 -0.4339  0.4382 -0.6022
  938MOL0     C26561   0.759   5.199  11.002 -1.0215  0.3666 -0.5437
  938MOL0     C26562   0.638   5.175  11.062 -0.9000 -0.0217 -0.9341
  938MOL0     H26563   0.133   4.945  10.974 -2.1712 -2.1584 -0.8224
  938MOL0     H26564  -0.091   4.875  11.085  2.0782 -0.0025 -2.0500
  938MOL0     H26565  -0.097   4.693  11.477 -0.9028 -0.6412 -2.2360
  938MOL0     H26566  -0.127   4.867  11.508 -0.7288  2.2605 -1.8463
  938MOL0     H26567  -0.362   4.827  11.423 -0.5398 -0.3070 -0.0464
  938MOL0     H26568  -0.323   4.656  11.413  1.3632 -0.0900  1.0127
  938MOL0     H26569  -0.269   4.718  11.688 -1.2755  1.9676  2.1037
  938MOL0     H26570  -0.376   4.852  11.642  2.7513  1.0373 -1.2685
  938MOL0     H26571  -0.529   4.624  11.551  0.2231  1.2119 -0.8939
  938MOL0     H26572  -0.422   4.553  11.662 -0.3955  1.9559  2.6561
  938MOL0     H26573  -0.473   4.715  11.842 -1.5396 -5.2287  2.4512
  938MOL0     H26574  -0.587   4.794  11.731 -0.5643  0.6940  2.6365
  938MOL0     H26575  -0.727   4.624  11.710 -0.4401  3.3510  1.6287
  938MOL0     H26576  -0.611   4.495  11.759  0.6632 -1.0176  2.2812
  938MOL0     H26577  -0.635   4.587  12.005 -0.4851  0.9919 -0.6087
  938MOL0     H26578  -0.770   4.683  11.964 -1.9867 -1.4139 -1.2417
  938MOL0     H26579  -0.772   4.382  11.906 -3.0932 -2.1198  1.2753
  938MOL0     H26580  -0.904   4.491  11.885  0.3108 -2.0299 -0.7870
  938MOL0     H26581  -1.031   4.611  12.099  0.4491  0.5113 -0.8923
  938MOL0     H26582  -1.066   4.418  12.449  1.3716  0.6535  2.3622
  938MOL0     H26583  -1.062   4.592  12.408 -2.3791 -0.7564  0.0661
  938MOL0     H26584  -1.260   4.375  12.296 -0.5592  0.4998 -0.0695
  938MOL0     H26585  -1.253   4.537  12.231  0.4073 -0.5087 -0.2185
  938MOL0     H26586  -1.316   4.456  12.523  2.5464 -1.6381 -1.9722
  938MOL0     H26587  -1.443   4.511  12.405  0.2002  0.5336  0.4931
  938MOL0     H26588  -1.378   4.742  12.433  3.6106  1.5949 -2.2713
  938MOL0     H26589  -1.215   4.715  12.486 -1.7089  5.6414 -0.3494
  938MOL0     H26590  -1.589   4.711  12.550  0.4979 -1.8571 -2.0236
  938MOL0     H26591  -1.815   4.622  12.520  0.3470  1.5713 -0.8199
  938MOL0     H26592  -1.891   4.542  12.655  0.7010 -0.1580  0.9732
  938MOL0     H26593  -1.856   4.714  12.672 -1.3757 -1.2516  0.8877
  938MOL0     H26594  -1.986   4.309  12.762  2.3098 -0.7714 -0.4469
  938MOL0     H26595  -2.182   4.150  12.786  2.5201 -0.1183 -2.2851
  938MOL0     H26596  -2.332   4.168  13.005 -0.0746  0.3239 -0.9704
  938MOL0     H26597  -2.404   4.053  12.886  1.4884  0.3901 -0.7155
  938MOL0     H26598  -2.448   3.905  13.070 -1.0939 -0.6946  2.7040
  938MOL0     H26599  -2.407   4.027  13.182  4.0739 -0.7353 -1.2161
  938MOL0     H26600  -2.625   4.005  12.987 -0.6067 -0.1476  0.8311
  938MOL0     H26601  -2.607   4.164  13.069 -0.8091  0.0100  0.7120
  938MOL0     H26602  -2.657   3.895  13.203  2.0277 -0.9324 -1.2674
  938MOL0     H26603  -2.638   4.049  13.288  0.2743  2.0012 -1.0691
  938MOL0     H26604  -2.845   4.137  13.232 -1.2987  1.0532 -2.8706
  938MOL0     H26605  -2.855   3.967  13.260 -0.4814  1.3895  1.6207
  938MOL0     H26606  -2.855   4.123  12.990 -0.6014  0.8659  0.6275
  938MOL0     H26607  -2.842   3.944  13.000  2.1642  0.7466  0.2047
  938MOL0     H26608  -3.094   4.115  13.082  1.2417  0.2385  0.1845
  938MOL0     H26609  -3.069   3.945  13.124  2.6025 -1.7574 -0.4520
  938MOL0     H26610  -3.038   3.866  12.911  1.1899  0.6897 -0.7842
  938MOL0     H26611  -3.055   4.014  12.830  3.1895 -1.4730  0.2370
  938MOL0     H26612  -1.990   3.999  13.145  1.2653  0.2020  0.1601
  938MOL0     H26613  -1.802   4.144  13.107 -0.6018  1.3241  1.2162
  938MOL0     H26614  -1.539   4.437  12.957  2.1668  3.0046  1.3065
  938MOL0     H26615  -1.354   4.513  12.865 -3.0397  0.2564  4.3232
  938MOL0     H26616   0.108   4.839  11.455  0.8462  1.5306 -0.5910
  938MOL0     H26617   0.330   4.880  11.342 -1.6072  2.0371  2.4994
  938MOL0     H26618   0.575   4.865  10.927 -0.1624  0.5152  0.7950
  938MOL0     H26619   0.801   4.919  10.825 -1.4128 -1.5343 -0.7127
  938MOL0     H26620   1.028   5.237  11.005  2.1870  0.3609  0.0086
  938MOL0     H26621   1.072   5.069  10.999  1.0656 -0.8939 -0.2734
  938MOL0     H26622   1.144   5.269  10.774  0.2591  1.6653  1.2896
  938MOL0     H26623   1.186   5.094  10.782 -0.6332  0.6398 -0.8635
  938MOL0     H26624   1.331   5.127  10.980  0.8067 -0.5194 -0.7426
  938MOL0     H26625   1.274   5.285  10.995  0.6479 -0.4027  0.0886
  938MOL0     H26626   1.485   5.310  10.892  0.0280  1.2452  0.1523
  938MOL0     H26627   1.375   5.333  10.767  3.2647  1.0570  0.1476
  938MOL0     H26628   1.511   4.966  10.619  2.7604 -0.1378  1.2121
  938MOL0     H26629   0.800   5.294  11.036  1.7106 -0.4205 -1.4561
  938MOL0     H26630   0.603   5.249  11.133  2.3398 -0.9683  1.8969
  939MOL0     O26631   1.188   1.705   6.330  0.1273 -0.4557 -0.0944
  939MOL0     C26632   1.222   1.665   6.218 -0.1033 -0.8204 -0.3213
  939MOL0     O26633   1.143   1.619   6.129  0.2439  0.1348  0.0232
  939MOL0     C26634   1.000   1.634   6.144 -0.4976  0.0237  0.3735
  939MOL0     C26635   0.938   1.754   6.181  0.1066 -0.8623  0.2808
  939MOL0     C26636   0.800   1.755   6.205  0.0530 -0.0492  1.3632
  939MOL0     C26637   0.722   1.633   6.194 -2.0230  0.1580 -0.8964
  939MOL0     O26638   0.590   1.620   6.195  0.7160  0.2244  0.2726
  939MOL0     C26639   0.495   1.731   6.170 -0.2337  0.5672 -0.3136
  939MOL0     C26640   0.517   1.776   6.027 -1.0390 -0.2357 -0.1374
  939MOL0     C26641   0.444   1.905   5.990  0.6540  0.1563 -0.6852
  939MOL0     C26642   0.290   1.896   6.013  0.6455  0.6761  0.3147
  939MOL0     C26643   0.220   2.031   5.997  0.1480  0.3335  1.1583
  939MOL0     C26644   0.067   2.035   6.025 -1.1063  0.2452  0.3888
  939MOL0     C26645   0.015   1.928   5.931  0.5680  0.2821  0.5822
  939MOL0     C26646  -0.135   1.959   5.906  0.5004 -0.1832  0.0064
  939MOL0     N26647  -0.216   1.940   6.033 -0.7310  0.0766  0.1972
  939MOL0     C26648  -0.275   1.824   6.065  0.1990 -0.5522  0.5621
  939MOL0     C26649  -0.360   1.850   6.167  0.9738 -0.0029  0.0771
  939MOL0     C26650  -0.453   1.760   6.240  0.0911  0.8068 -0.1730
  939MOL0     C26651  -0.385   1.685   6.352  0.3107  0.6285  0.1468
  939MOL0     C26652  -0.353   1.775   6.468  0.4393  0.2094  0.1291
  939MOL0     C26653  -0.335   1.704   6.605 -0.8434  0.8250  0.2013
  939MOL0     O26654  -0.437   1.610   6.628  1.0257  0.1146  0.2992
  939MOL0     C26655  -0.533   1.651   6.724  0.7336  0.1519  0.6900
  939MOL0     C26656  -0.499   1.703   6.848 -0.6509  0.1246  0.5984
  939MOL0     C26657  -0.593   1.763   6.937  0.1085 -0.1334 -0.0363
  939MOL0     C26658  -0.546   1.837   7.063 -0.5251  0.5679  0.2073
  939MOL0     C26659  -0.733   1.744   6.901  0.0041  0.0138 -0.9986
  939MOL0     C26660  -0.852   1.797   6.974 -0.9987  0.2642  1.0064
  939MOL0     O26661  -0.836   1.903   7.047 -0.4515 -0.1041  0.1734
  939MOL0     C26662  -0.947   1.960   7.108 -0.4140 -0.4786 -0.6169
  939MOL0     C26663  -1.064   1.904   7.157  0.0713 -1.1993 -0.1816
  939MOL0     C26664  -1.163   1.993   7.218  0.1604  0.3975  0.1842
  939MOL0     C26665  -1.145   2.125   7.240  0.1673  0.0058  0.8179
  939MOL0     O26666  -1.231   2.209   7.313 -0.9149  0.1085 -0.7425
  939MOL0     C26667  -1.371   2.170   7.337 -0.2699 -0.2942  0.6792
  939MOL0     C26668  -1.433   2.253   7.450  0.1329 -0.5781 -0.1167
  939MOL0     C26669  -1.580   2.255   7.440 -0.6485  0.5909  0.7520
  939MOL0     C26670  -1.642   2.356   7.552  0.2796 -0.3032  0.5604
  939MOL0     C26671  -1.802   2.337   7.565 -0.2385  0.2833  1.1692
  939MOL0     C26672  -1.846   2.209   7.626 -0.0788  0.6515  0.6570
  939MOL0     C26673  -1.995   2.195   7.612  0.3593 -0.6924 -0.0695
  939MOL0     C26674  -2.072   2.082   7.679 -0.4947 -0.0199 -0.4744
  939MOL0    Cl26675  -2.085   2.114   7.862  0.0636  0.3442  0.0426
  939MOL0     C26676  -1.023   2.185   7.192 -0.3459 -0.3278  0.1050
  939MOL0     C26677  -0.927   2.102   7.127  0.1046  0.2836 -0.1331
  939MOL0     O26678  -0.952   1.733   6.960  0.0058 -0.3221  0.0487
  939MOL0     C26679  -0.763   1.683   6.775 -0.3850  0.3771 -0.2190
  939MOL0     C26680  -0.666   1.633   6.698 -0.5425  0.5566  0.2954
  939MOL0     N26681  -0.361   1.992   6.186  0.4865  0.2850 -0.2445
  939MOL0     N26682  -0.271   2.039   6.112 -0.0590 -0.4000 -0.4199
  939MOL0     C26683   0.784   1.516   6.170 -0.5559  0.7605  0.7647
  939MOL0     C26684   0.924   1.512   6.132  0.1043  0.1572  0.2800
  939MOL0     C26685   1.367   1.677   6.190  0.8631  0.9410  0.3014
  939MOL0     C26686   1.448   1.756   6.265 -0.2349 -0.3045 -0.3803
  939MOL0     C26687   1.589   1.751   6.244 -0.6579  0.0793 -0.1290
  939MOL0     C26688   1.644   1.686   6.137 -0.0472 -0.5046  0.3489
  939MOL0     O26689   1.778   1.687   6.121 -0.9568  0.2090 -0.6898
  939MOL0     C26690   1.851   1.561   6.132 -0.7080 -0.2199 -0.3154
  939MOL0     C26691   2.005   1.587   6.152 -0.2479 -0.2921  0.4456
  939MOL0     C26692   2.033   1.690   6.266 -0.4539 -0.0570 -0.7327
  939MOL0     C26693   2.177   1.689   6.301  0.2926 -0.7063 -0.3674
  939MOL0     C26694   2.189   1.618   6.423  0.1216  0.0702 -0.1639
  939MOL0     C26695   2.204   1.568   6.533  0.2637  0.9309  0.0663
  939MOL0     C26696   1.567   1.616   6.053  0.8163  0.8765 -0.2477
  939MOL0     C26697   1.425   1.608   6.078  0.5676  0.3764 -0.5743
  939MOL0     H26698   0.992   1.844   6.209 -0.4988 -0.8953  1.6010
  939MOL0     H26699   0.771   1.853   6.240  1.3623 -0.0091  2.4167
  939MOL0     H26700   0.393   1.696   6.187  0.1055 -2.0053 -2.8435
  939MOL0     H26701   0.521   1.807   6.244 -0.8654  0.5431 -0.0698
  939MOL0     H26702   0.623   1.795   6.007 -1.8604  1.5781 -3.5991
  939MOL0     H26703   0.482   1.689   5.972  3.0813 -2.1609 -0.0624
  939MOL0     H26704   0.486   1.991   6.043 -2.6025  2.0260 -0.8494
  939MOL0     H26705   0.461   1.922   5.883 -1.1678  0.2530 -0.9924
  939MOL0     H26706   0.244   1.814   5.958 -2.2795  1.8494  0.8256
  939MOL0     H26707   0.269   1.870   6.117  0.4259  0.7792  0.2954
  939MOL0     H26708   0.274   2.101   6.061  0.2220  0.3265  1.1036
  939MOL0     H26709   0.248   2.065   5.897 -1.7829  2.7399  1.3197
  939MOL0     H26710   0.040   2.012   6.129 -1.5613  0.1475  0.2523
  939MOL0     H26711   0.040   2.136   5.993 -2.4093 -0.4845 -0.9343
  939MOL0     H26712   0.052   1.933   5.828 -0.5753  0.5178  0.1556
  939MOL0     H26713   0.025   1.822   5.956  2.5571  0.2061 -0.3341
  939MOL0     H26714  -0.185   1.905   5.825  1.0479  2.3365 -2.1320
  939MOL0     H26715  -0.146   2.065   5.882 -1.2188 -0.0561  1.1406
  939MOL0     H26716  -0.244   1.726   6.030  1.0455  0.2154 -0.9483
  939MOL0     H26717  -0.526   1.825   6.289  1.0408  1.4804  0.3787
  939MOL0     H26718  -0.503   1.699   6.164  1.1433  0.9405 -0.9834
  939MOL0     H26719  -0.288   1.651   6.314  1.7305  4.2254  0.2215
  939MOL0     H26720  -0.449   1.601   6.381 -3.4687  3.1545 -0.2671
  939MOL0     H26721  -0.427   1.854   6.487 -0.6467 -1.1087  1.6471
  939MOL0     H26722  -0.258   1.826   6.448 -0.1662  0.5464 -2.0573
  939MOL0     H26723  -0.331   1.795   6.665 -1.5817  1.1141 -0.1781
  939MOL0     H26724  -0.244   1.643   6.609 -1.2951  0.1887  3.1145
  939MOL0     H26725  -0.395   1.734   6.858 -0.3196  0.3013 -2.4219
  939MOL0     H26726  -0.585   1.779   7.148 -0.2950 -2.1762 -1.4441
  939MOL0     H26727  -0.437   1.846   7.055 -0.2349  0.1842  2.8117
  939MOL0     H26728  -0.586   1.939   7.059 -2.4185 -0.1457  0.0128
  939MOL0     H26729  -1.078   1.797   7.165  1.1292 -1.2299  1.9045
  939MOL0     H26730  -1.256   1.945   7.247  1.0554 -1.0567  0.7159
  939MOL0     H26731  -1.422   2.204   7.247 -0.3026 -1.1591  0.3666
  939MOL0     H26732  -1.388   2.067   7.368  1.3737 -0.9440 -0.4545
  939MOL0     H26733  -1.400   2.207   7.544 -1.3781 -0.0025  0.7322
  939MOL0     H26734  -1.387   2.352   7.444  1.6141 -1.0854  1.8601
  939MOL0     H26735  -1.616   2.153   7.453  1.0024 -0.3748 -1.5210
  939MOL0     H26736  -1.607   2.284   7.337 -0.1964 -0.1680  0.4142
  939MOL0     H26737  -1.596   2.334   7.649 -1.4305  2.2906  2.0647
  939MOL0     H26738  -1.607   2.458   7.534  1.4663 -0.8091 -0.1127
  939MOL0     H26739  -1.835   2.345   7.461  1.5887  1.3106  0.6253
  939MOL0     H26740  -1.844   2.428   7.609  2.6295  2.0976  0.4063
  939MOL0     H26741  -1.794   2.123   7.585 -1.8168 -1.3314  2.3487
  939MOL0     H26742  -1.816   2.212   7.732 -0.9641 -3.1084  1.1417
  939MOL0     H26743  -2.008   2.185   7.504  2.3783 -3.8291 -0.1594
  939MOL0     H26744  -2.039   2.285   7.656 -1.7632 -1.7744  0.1587
  939MOL0     H26745  -2.021   1.986   7.676  2.4129  1.3958  0.2629
  939MOL0     H26746  -2.173   2.077   7.638 -1.9241  1.7204  2.4243
  939MOL0     H26747  -1.019   2.293   7.195  0.3065 -0.3577  1.6028
  939MOL0     H26748  -0.838   2.144   7.080  1.6259 -2.3123  0.2170
  939MOL0     H26749  -0.858   1.686   6.723 -0.5198  3.8353 -0.0241
  939MOL0     H26750  -0.703   1.586   6.607 -0.3188  0.8956  0.0265
  939MOL0     H26751   0.715   1.434   6.151 -2.2639  2.0031  1.3932
  939MOL0     H26752   0.971   1.421   6.096  0.8238  1.0560 -1.1442
  939MOL0     H26753   1.400   1.830   6.329 -1.3188 -0.6095 -0.8266
  939MOL0     H26754   1.653   1.813   6.306 -0.8886 -0.4018  0.5972
  939MOL0     H26755   1.819   1.496   6.214  0.1371 -2.2931 -1.5692
  939MOL0     H26756   1.840   1.501   6.042  0.3493 -1.0446  0.0739
  939MOL0     H26757   2.042   1.628   6.058  1.3141  0.8862  1.5216
  939MOL0     H26758   2.059   1.492   6.159  2.4345  0.5093 -4.5930
  939MOL0     H26759   1.974   1.656   6.353 -0.2653  1.5067  0.0383
  939MOL0     H26760   1.997   1.791   6.243  1.5502  0.9334  0.2444
  939MOL0     H26761   2.219   1.789   6.308 -0.0847 -0.1906 -3.6804
  939MOL0     H26762   2.242   1.643   6.226  0.1739  0.7485 -1.3899
  939MOL0     H26763   2.214   1.523   6.630 -0.6008 -1.1135 -0.7537
  939MOL0     H26764   1.620   1.564   5.974 -0.9259  1.3037 -1.7801
  939MOL0     H26765   1.373   1.546   6.006 -0.1927 -0.2628  0.4975
  940MOL0     O26766   7.295   0.570   7.358 -0.6165 -0.0184 -0.2581
  940MOL0     C26767   7.242   0.643   7.273 -0.4702  0.5517  0.6740
  940MOL0     O26768   7.115   0.673   7.256  0.4811 -0.0816 -0.2115
  940MOL0     C26769   7.008   0.622   7.333 -0.2172 -0.3330 -0.0864
  940MOL0     C26770   7.017   0.574   7.470 -0.6393  0.1435 -0.3958
  940MOL0     C26771   6.909   0.525   7.538 -0.9357  0.6964 -0.4003
  940MOL0     C26772   6.788   0.523   7.472 -0.2271  0.0583 -0.9335
  940MOL0     O26773   6.669   0.489   7.540 -0.5309 -0.1166  0.3345
  940MOL0     C26774   6.541   0.512   7.484 -0.9705  0.0590 -0.6809
  940MOL0     C26775   6.442   0.438   7.583  0.1457 -0.2827 -0.2208
  940MOL0     C26776   6.299   0.443   7.521 -1.0604 -0.4147  0.8621
  940MOL0     C26777   6.204   0.383   7.620 -0.3136 -0.4218 -0.6089
  940MOL0     C26778   6.057   0.380   7.563 -0.5253 -0.5275  0.5937
  940MOL0     C26779   5.949   0.304   7.649 -0.2505 -0.0419 -0.2414
  940MOL0     C26780   5.814   0.316   7.576  0.0669  0.5751 -0.9374
  940MOL0     C26781   5.802   0.229   7.450 -0.7537  0.3110  0.0197
  940MOL0     N26782   5.662   0.225   7.401  0.2928 -0.8460 -0.2209
  940MOL0     C26783   5.564   0.317   7.406  0.1302 -0.6626  0.6449
  940MOL0     C26784   5.459   0.257   7.333 -0.6212  0.0468 -0.5040
  940MOL0     C26785   5.319   0.312   7.331 -0.7982 -1.0470 -0.0108
  940MOL0     C26786   5.236   0.255   7.224  0.8834  0.2899 -0.4711
  940MOL0     C26787   5.093   0.319   7.239 -0.5931  0.6972 -0.0339
  940MOL0     C26788   5.001   0.234   7.147  0.0466  0.2614 -0.0902
  940MOL0     O26789   4.867   0.254   7.186 -0.4551  0.1089 -0.2839
  940MOL0     C26790   4.763   0.224   7.105  0.0930  0.4423  0.7178
  940MOL0     C26791   4.773   0.179   6.977 -0.1874  0.3845 -0.1407
  940MOL0     C26792   4.659   0.162   6.891  0.7320  0.0316  0.8304
  940MOL0     C26793   4.689   0.151   6.743  0.5365  0.8642 -0.0912
  940MOL0     C26794   4.535   0.186   6.943 -0.4303 -0.4130 -0.6259
  940MOL0     C26795   4.394   0.175   6.874 -0.9298  0.5022 -0.5978
  940MOL0     O26796   4.281   0.175   6.953 -0.5120 -0.5553 -0.2563
  940MOL0     C26797   4.156   0.191   6.900  0.7394  0.4927  1.1455
  940MOL0     C26798   4.119   0.114   6.780  0.6865  0.5218 -0.4226
  940MOL0     C26799   4.003   0.148   6.710  0.5828  0.4549 -0.1053
  940MOL0     C26800   3.907   0.244   6.750  0.0400 -0.6867 -0.6636
  940MOL0     O26801   3.785   0.266   6.693  0.7175 -0.9365  0.2390
  940MOL0     C26802   3.786   0.302   6.551 -0.4233  0.0229  0.1129
  940MOL0     C26803   3.649   0.315   6.491 -0.3153 -0.3758  0.0123
  940MOL0     C26804   3.564   0.421   6.557 -0.0433  0.1826  0.2323
  940MOL0     C26805   3.421   0.425   6.495 -0.0797  0.4603  0.9315
  940MOL0     C26806   3.334   0.510   6.588  0.3891 -0.3092 -0.7686
  940MOL0     C26807   3.189   0.539   6.556 -0.0599  1.1369  0.2766
  940MOL0     C26808   3.197   0.621   6.432 -0.0176 -0.0222 -0.1602
  940MOL0     C26809   3.052   0.663   6.385 -0.7410 -0.0496  0.0725
  940MOL0    Cl26810   3.085   0.783   6.254  0.1149  0.0553 -0.2281
  940MOL0     C26811   3.935   0.303   6.882 -0.3714  0.0049  0.3117
  940MOL0     C26812   4.054   0.273   6.952 -0.7982  0.1171  0.2667
  940MOL0     O26813   4.392   0.178   6.749  0.0865  0.9075  1.4437
  940MOL0     C26814   4.520   0.229   7.074  0.0066  0.2937  0.0122
  940MOL0     C26815   4.634   0.245   7.160  0.6293 -0.4971  0.3263
  940MOL0     N26816   5.493   0.134   7.282  0.1259  0.0402 -0.2730
  940MOL0     N26817   5.620   0.125   7.319 -0.9460  0.8143  0.4869
  940MOL0     C26818   6.776   0.558   7.335 -0.2440  0.0400  0.3003
  940MOL0     C26819   6.886   0.608   7.268 -0.0721  1.3473 -0.0923
  940MOL0     C26820   7.333   0.695   7.176  0.0556 -0.0333  0.2790
  940MOL0     C26821   7.294   0.755   7.058 -0.2032  0.0532  0.9247
  940MOL0     C26822   7.385   0.803   6.965  0.8029 -0.7812  0.0719
  940MOL0     C26823   7.526   0.786   6.977  0.6234 -0.3198 -0.8895
  940MOL0     O26824   7.628   0.825   6.893  0.2657 -0.6242  0.3856
  940MOL0     C26825   7.600   0.886   6.765  0.8610 -0.9214  0.3853
  940MOL0     C26826   7.590   0.775   6.658  0.9246  1.0224 -1.0823
  940MOL0     C26827   7.450   0.707   6.646  0.0518  0.0173  0.1174
  940MOL0     C26828   7.459   0.627   6.516  0.0247  0.2379 -0.6254
  940MOL0     C26829   7.338   0.550   6.493  0.2730  0.1509  0.1045
  940MOL0     C26830   7.245   0.472   6.499 -0.1295  0.1676 -0.7240
  940MOL0     C26831   7.562   0.732   7.111 -0.2106  0.0857  0.7161
  940MOL0     C26832   7.474   0.685   7.208  0.0928 -1.1815  0.2832
  940MOL0     H26833   7.119   0.579   7.507  0.8053  0.9497 -4.0374
  940MOL0     H26834   6.912   0.496   7.643  3.8874  0.5945 -0.3774
  940MOL0     H26835   6.536   0.621   7.487  2.3165  0.4686 -3.6683
  940MOL0     H26836   6.527   0.468   7.384  0.2381 -1.5909 -0.1676
  940MOL0     H26837   6.489   0.339   7.575  1.8274  0.4605 -0.0928
  940MOL0     H26838   6.445   0.472   7.687  0.5383 -1.4463  0.1622
  940MOL0     H26839   6.258   0.538   7.485 -4.2380 -2.4639 -1.4927
  940MOL0     H26840   6.319   0.381   7.433  0.9102  0.5863  0.5616
  940MOL0     H26841   6.229   0.279   7.645  3.9365  0.7905  1.0700
  940MOL0     H26842   6.207   0.435   7.716  2.1207 -1.1918 -0.2117
  940MOL0     H26843   6.033   0.485   7.544 -0.8467  0.1365  3.9838
  940MOL0     H26844   6.067   0.333   7.465  1.3967 -2.4922  1.6307
  940MOL0     H26845   5.981   0.200   7.654 -2.0499 -0.5735  1.6282
  940MOL0     H26846   5.948   0.356   7.746  0.4621 -0.5077  0.0222
  940MOL0     H26847   5.738   0.275   7.643  3.3147 -1.0947  2.0063
  940MOL0     H26848   5.800   0.423   7.559 -2.9671  0.5769  0.8390
  940MOL0     H26849   5.828   0.130   7.488 -3.6457  0.7265  3.6069
  940MOL0     H26850   5.865   0.267   7.369  0.1421  5.9247  2.8338
  940MOL0     H26851   5.565   0.415   7.452  0.7468 -0.0111 -0.7276
  940MOL0     H26852   5.273   0.296   7.428  0.3484 -0.8894  0.5770
  940MOL0     H26853   5.332   0.419   7.311  1.5305 -0.9855  1.4273
  940MOL0     H26854   5.232   0.146   7.231  0.3295  0.2658 -1.0323
  940MOL0     H26855   5.278   0.286   7.128 -1.0188  1.0916 -1.0963
  940MOL0     H26856   5.089   0.421   7.198 -0.4631  0.2199 -1.2881
  940MOL0     H26857   5.059   0.311   7.342  0.4553 -4.0482  0.1408
  940MOL0     H26858   5.032   0.131   7.165  1.9227  0.7262 -0.4031
  940MOL0     H26859   5.021   0.254   7.041 -1.2704  1.4916 -0.1345
  940MOL0     H26860   4.875   0.170   6.941  0.4415 -1.6400  1.9354
  940MOL0     H26861   4.694   0.245   6.689 -2.6601  0.2187 -1.7566
  940MOL0     H26862   4.778   0.090   6.724  0.3623 -0.1906  2.1495
  940MOL0     H26863   4.612   0.089   6.696  0.2648 -0.1448  1.5740
  940MOL0     H26864   4.193   0.045   6.740  1.4295  1.2091 -0.2699
  940MOL0     H26865   3.973   0.099   6.618 -0.0867 -1.1229  0.9059
  940MOL0     H26866   3.845   0.390   6.527 -0.6807  0.0485 -0.4328
  940MOL0     H26867   3.832   0.221   6.494 -0.2087  0.7118 -0.7036
  940MOL0     H26868   3.654   0.343   6.385 -1.7858 -1.6235 -0.4148
  940MOL0     H26869   3.592   0.222   6.486 -1.4363  0.3098 -0.2273
  940MOL0     H26870   3.611   0.519   6.547  2.7466 -1.2256 -1.5057
  940MOL0     H26871   3.552   0.407   6.665 -2.0679  0.4600  0.0789
  940MOL0     H26872   3.421   0.470   6.395 -2.1669 -0.0732  0.6381
  940MOL0     H26873   3.373   0.327   6.482  0.7968  0.2955 -1.8301
  940MOL0     H26874   3.388   0.604   6.606 -0.3271  0.0480 -0.4639
  940MOL0     H26875   3.325   0.459   6.685  0.4871 -0.4428 -0.8296
  940MOL0     H26876   3.152   0.439   6.533  2.6126 -0.5773  2.6752
  940MOL0     H26877   3.125   0.587   6.630 -0.9451  0.0828  0.2109
  940MOL0     H26878   3.237   0.561   6.349  0.6048  0.5516 -0.2808
  940MOL0     H26879   3.262   0.708   6.445 -1.1298  0.5384  2.3616
  940MOL0     H26880   2.996   0.715   6.463  1.0894  2.9959 -0.5237
  940MOL0     H26881   3.000   0.573   6.350  1.5174 -1.8403  1.0671
  940MOL0     H26882   3.864   0.374   6.923  0.0798  2.3491 -2.6542
  940MOL0     H26883   4.076   0.320   7.048  4.3084  3.7973 -2.2361
  940MOL0     H26884   4.423   0.257   7.113 -0.7176 -0.7979 -0.9373
  940MOL0     H26885   4.620   0.269   7.265  1.5247  1.7252  0.0084
  940MOL0     H26886   6.682   0.565   7.281  0.5798  0.1708 -1.1595
  940MOL0     H26887   6.862   0.642   7.168 -2.5534  0.9267  0.2824
  940MOL0     H26888   7.189   0.765   7.032  0.3911 -0.7619 -2.1098
  940MOL0     H26889   7.339   0.857   6.882 -2.9285 -2.0264  1.1260
  940MOL0     H26890   7.505   0.940   6.766  0.4107 -1.6996  0.8042
  940MOL0     H26891   7.683   0.945   6.725 -0.6412  0.1035 -1.3972
  940MOL0     H26892   7.667   0.704   6.691 -0.3287  0.6403  1.2406
  940MOL0     H26893   7.634   0.821   6.569  0.7599  1.3897 -0.9735
  940MOL0     H26894   7.361   0.770   6.640 -1.4599 -2.1511 -1.6345
  940MOL0     H26895   7.436   0.637   6.728  2.2633  0.7758  1.2210
  940MOL0     H26896   7.536   0.552   6.534 -1.5489 -1.7639 -1.8106
  940MOL0     H26897   7.480   0.681   6.423 -2.7130  1.0311 -0.8595
  940MOL0     H26898   7.163   0.403   6.503  0.4056 -0.4349  0.2948
  940MOL0     H26899   7.664   0.715   7.143 -0.6162  2.0975  3.5364
  940MOL0     H26900   7.499   0.661   7.311 -0.9675  0.8077  1.0507
  941MOL0     O26901   3.436   4.575   4.563  0.0285  0.0049 -0.2222
  941MOL0     C26902   3.474   4.693   4.541 -0.2676 -0.3919 -0.3451
  941MOL0     O26903   3.399   4.800   4.511 -0.9554  0.0912  0.3259
  941MOL0     C26904   3.268   4.785   4.477  0.2132 -0.1920  0.4259
  941MOL0     C26905   3.181   4.889   4.504 -0.3102  0.0299 -0.1240
  941MOL0     C26906   3.044   4.887   4.457 -0.6420 -0.6357  0.5531
  941MOL0     C26907   3.002   4.785   4.379  0.8207 -0.7114 -0.2186
  941MOL0     O26908   2.888   4.796   4.308  0.2361 -0.1156  0.0572
  941MOL0     C26909   2.860   4.713   4.197  1.4157 -0.4577 -0.2995
  941MOL0     C26910   2.735   4.767   4.128 -0.0207 -0.0433 -0.2772
  941MOL0     C26911   2.713   4.723   3.986 -0.2114  0.3373  0.5698
  941MOL0     C26912   2.586   4.786   3.929  0.1349 -0.0748 -0.3880
  941MOL0     C26913   2.462   4.753   4.002  0.2141 -0.4729  0.8496
  941MOL0     C26914   2.337   4.784   3.927  0.5804  0.3910 -0.0267
  941MOL0     C26915   2.218   4.769   4.010  0.6874  0.0712 -0.3288
  941MOL0     C26916   2.088   4.777   3.920  0.1839 -0.3161 -0.2901
  941MOL0     N26917   1.985   4.821   4.002  0.3356  0.2836 -0.4541
  941MOL0     C26918   1.951   4.955   4.006  0.4337  0.4676  0.0020
  941MOL0     C26919   1.836   4.963   4.080 -0.1631 -0.8933 -0.0872
  941MOL0     C26920   1.760   5.089   4.103 -0.7322  0.9382 -0.0975
  941MOL0     C26921   1.771   5.116   4.252  0.4883  0.0701  0.3333
  941MOL0     C26922   1.725   5.263   4.275 -0.2361 -0.1613  0.1145
  941MOL0     C26923   1.713   5.297   4.424 -0.4536  0.2435 -0.0172
  941MOL0     O26924   1.632   5.195   4.488  0.2375 -0.4539  0.1028
  941MOL0     C26925   1.491   5.197   4.489  0.1119 -0.3975  0.1486
  941MOL0     C26926   1.421   5.295   4.420  0.6194  0.0048  0.0689
  941MOL0     C26927   1.281   5.319   4.428  0.6649  1.1059  0.6175
  941MOL0     C26928   1.233   5.443   4.356 -0.0249 -0.1347  1.0760
  941MOL0     C26929   1.199   5.229   4.509  0.0001  0.1738  0.0657
  941MOL0     C26930   1.053   5.250   4.538 -0.5101  0.3841 -0.7881
  941MOL0     O26931   0.992   5.165   4.630  0.3460 -0.4645 -0.1696
  941MOL0     C26932   0.858   5.183   4.650  0.8807 -0.4917  0.4510
  941MOL0     C26933   0.763   5.111   4.582  0.0184 -0.2454 -0.5811
  941MOL0     C26934   0.621   5.133   4.596  0.2921  0.8212  0.3381
  941MOL0     C26935   0.576   5.238   4.669  0.1937 -0.2108 -0.7427
  941MOL0     O26936   0.440   5.269   4.687  0.5803  0.2632  0.4432
  941MOL0     C26937   0.365   5.249   4.562 -0.5358 -0.4101  0.5627
  941MOL0     C26938   0.252   5.343   4.559 -0.3947 -0.2215 -0.9610
  941MOL0     C26939   0.161   5.304   4.676  1.5497 -0.0808 -0.3447
  941MOL0     C26940   0.048   5.399   4.646 -0.0672  0.2576  0.3298
  941MOL0     C26941  -0.059   5.414   4.755 -0.2450  0.9126 -1.0941
  941MOL0     C26942  -0.121   5.547   4.757  0.4899 -0.2296  0.5277
  941MOL0     C26943  -0.259   5.550   4.830  0.6794  0.0195  0.2076
  941MOL0     C26944  -0.240   5.532   4.983 -0.0676 -0.2297  0.1110
  941MOL0    Cl26945  -0.397   5.561   5.071  0.1894  0.4404  0.2550
  941MOL0     C26946   0.672   5.316   4.731 -0.7064 -1.0780  0.2164
  941MOL0     C26947   0.810   5.293   4.717  0.3278  0.1802  0.3523
  941MOL0     O26948   0.996   5.337   4.477 -0.0055 -0.7363  0.5327
  941MOL0     C26949   1.271   5.138   4.582 -0.1442  1.1185 -0.5505
  941MOL0     C26950   1.414   5.121   4.567 -0.1769 -0.8717 -0.7276
  941MOL0     N26951   1.804   4.832   4.122 -0.1382 -0.2794 -0.8590
  941MOL0     N26952   1.891   4.749   4.072 -0.1626 -0.7428  0.2387
  941MOL0     C26953   3.092   4.678   4.343  0.1540 -0.1124 -0.1669
  941MOL0     C26954   3.227   4.677   4.392 -0.3096 -1.3843 -0.0068
  941MOL0     C26955   3.616   4.721   4.573 -0.1691  0.1388  0.3562
  941MOL0     C26956   3.662   4.849   4.599  0.0172 -0.3355 -0.6858
  941MOL0     C26957   3.794   4.876   4.635 -0.0134  1.1973  0.6303
  941MOL0     C26958   3.881   4.770   4.654 -0.2504  0.1751 -0.3566
  941MOL0     O26959   4.010   4.797   4.694 -0.6355  0.5029 -0.1093
  941MOL0     C26960   4.121   4.700   4.716 -0.0209  0.5207 -0.3308
  941MOL0     C26961   4.234   4.775   4.764 -0.6293 -0.4960  0.1574
  941MOL0     C26962   4.316   4.672   4.834  0.3274  1.2147  0.6431
  941MOL0     C26963   4.463   4.724   4.835 -0.5039 -0.2239 -0.0161
  941MOL0     C26964   4.537   4.690   4.715 -0.5598  0.7656 -0.1957
  941MOL0     C26965   4.602   4.646   4.617  0.3181 -0.1525  0.6906
  941MOL0     C26966   3.833   4.644   4.640  0.3355  0.5739 -0.4222
  941MOL0     C26967   3.704   4.616   4.586 -1.0360  0.0256 -1.2440
  941MOL0     H26968   3.214   4.979   4.554  1.8479 -1.6213  1.6513
  941MOL0     H26969   2.979   4.967   4.489  2.5122  0.7624  4.3535
  941MOL0     H26970   2.942   4.704   4.125  1.1356 -2.2266 -0.4380
  941MOL0     H26971   2.836   4.612   4.233 -2.5751  0.9815  1.7992
  941MOL0     H26972   2.645   4.742   4.185  1.6465  0.9783  3.0218
  941MOL0     H26973   2.749   4.876   4.129  2.3524 -0.2781  1.8069
  941MOL0     H26974   2.805   4.742   3.930  0.4118  2.1442  2.1081
  941MOL0     H26975   2.693   4.615   3.984  0.2331  0.1452  2.9120
  941MOL0     H26976   2.596   4.895   3.932 -1.9365  0.1709 -1.1593
  941MOL0     H26977   2.566   4.750   3.828 -0.4396 -0.6369 -0.0791
  941MOL0     H26978   2.463   4.647   4.028 -3.5137 -1.0996 -0.9598
  941MOL0     H26979   2.461   4.808   4.097  0.7702 -0.0113  0.5959
  941MOL0     H26980   2.349   4.886   3.890  1.5993  0.5391  0.6583
  941MOL0     H26981   2.336   4.713   3.844 -2.4728  0.7167 -0.3620
  941MOL0     H26982   2.222   4.674   4.063 -1.1136  0.7957  1.2076
  941MOL0     H26983   2.210   4.849   4.084  2.1433 -0.0417 -0.0186
  941MOL0     H26984   2.059   4.684   3.871  1.6067 -0.7198 -0.4216
  941MOL0     H26985   2.117   4.848   3.842  0.1259 -2.0907 -1.9863
  941MOL0     H26986   2.008   5.040   3.970 -0.8141  1.5803  0.5610
  941MOL0     H26987   1.822   5.157   4.044  1.6581 -2.5069 -1.8684
  941MOL0     H26988   1.658   5.086   4.063  1.4191  0.2409 -6.6341
  941MOL0     H26989   1.876   5.116   4.280  1.1443 -0.2470 -1.9084
  941MOL0     H26990   1.713   5.041   4.308 -1.9223  1.3489 -0.3041
  941MOL0     H26991   1.637   5.288   4.215 -0.2042  2.1426  0.9312
  941MOL0     H26992   1.806   5.331   4.244  0.3656 -1.9830 -2.6524
  941MOL0     H26993   1.671   5.395   4.447  0.2366  0.8558 -1.2654
  941MOL0     H26994   1.814   5.293   4.467 -0.6763  2.6494  0.9047
  941MOL0     H26995   1.470   5.369   4.358 -1.8877  3.6298  2.0796
  941MOL0     H26996   1.307   5.491   4.291  0.2230 -0.6933  0.9398
  941MOL0     H26997   1.160   5.406   4.283  2.4898 -2.4584 -0.4472
  941MOL0     H26998   1.184   5.515   4.422 -2.3448  2.1687 -2.7823
  941MOL0     H26999   0.802   5.033   4.517  0.3122 -1.4771  0.9955
  941MOL0     H27000   0.557   5.068   4.537  4.3596 -0.9146 -2.6170
  941MOL0     H27001   0.423   5.286   4.477 -0.4469 -0.9231  0.4010
  941MOL0     H27002   0.346   5.142   4.553  2.7913 -0.8998 -3.0660
  941MOL0     H27003   0.288   5.446   4.556 -0.0580 -0.3411 -1.0526
  941MOL0     H27004   0.205   5.336   4.461  0.1382  0.8757 -1.3126
  941MOL0     H27005   0.206   5.330   4.773  1.8469  0.1692 -0.5439
  941MOL0     H27006   0.129   5.201   4.662  0.8721 -0.2068  1.7164
  941MOL0     H27007   0.085   5.501   4.635 -0.6590  0.3103 -1.6996
  941MOL0     H27008  -0.018   5.373   4.563  1.0372 -1.2398 -0.1061
  941MOL0     H27009  -0.015   5.405   4.855  0.9006  0.9552 -1.5731
  941MOL0     H27010  -0.127   5.329   4.758  2.5796 -1.5385  2.4764
  941MOL0     H27011  -0.053   5.617   4.806  0.7889 -2.6179  3.8709
  941MOL0     H27012  -0.136   5.583   4.654  0.1810  2.2815  1.3863
  941MOL0     H27013  -0.326   5.469   4.801  0.4181  0.6099 -0.8894
  941MOL0     H27014  -0.308   5.645   4.805  1.3728  0.4197  0.3419
  941MOL0     H27015  -0.175   5.607   5.029  0.3909 -0.2455 -0.4980
  941MOL0     H27016  -0.207   5.431   5.010 -2.1891 -1.8008 -2.6884
  941MOL0     H27017   0.626   5.394   4.791 -0.6609 -0.6842 -0.2585
  941MOL0     H27018   0.885   5.362   4.754 -0.4841  0.2018  2.0373
  941MOL0     H27019   1.212   5.078   4.651  2.7399 -2.8349 -1.2040
  941MOL0     H27020   1.458   5.048   4.633  1.0648  0.7954  0.3669
  941MOL0     H27021   3.056   4.599   4.279 -0.8569 -2.0295  2.5963
  941MOL0     H27022   3.295   4.600   4.357  1.0841 -0.4398  0.5159
  941MOL0     H27023   3.595   4.934   4.589 -2.1084 -0.9971  4.7877
  941MOL0     H27024   3.827   4.979   4.646  1.3086  1.1470 -2.2194
  941MOL0     H27025   4.089   4.626   4.790 -1.1157  0.9982 -0.2957
  941MOL0     H27026   4.153   4.641   4.630  0.2658 -1.0820  0.8436
  941MOL0     H27027   4.203   4.845   4.842 -0.7425  0.1600 -0.4640
  941MOL0     H27028   4.293   4.823   4.685  1.1644 -1.6931  0.7140
  941MOL0     H27029   4.311   4.569   4.796 -2.9662  0.3783  2.8942
  941MOL0     H27030   4.296   4.662   4.941  1.1514  0.2270  0.7226
  941MOL0     H27031   4.521   4.685   4.919 -0.6110 -2.4496 -0.8961
  941MOL0     H27032   4.465   4.832   4.849  2.2421  0.2736 -3.0887
  941MOL0     H27033   4.647   4.601   4.531 -1.8018 -0.0108 -0.5470
  941MOL0     H27034   3.907   4.565   4.655  1.8139  2.1363  0.8783
  941MOL0     H27035   3.673   4.514   4.566 -2.3747  0.2630 -0.5381
  942MOL0     O27036   2.384   5.820   8.522 -0.0999 -0.4681 -0.0588
  942MOL0     C27037   2.427   5.932   8.574  0.1403  0.1541 -0.0590
  942MOL0     O27038   2.354   6.014   8.666 -0.4921  0.2162 -0.4299
  942MOL0     C27039   2.237   5.968   8.718  0.4333 -0.6198  0.4527
  942MOL0     C27040   2.232   5.846   8.783 -0.3661 -0.4584 -0.3334
  942MOL0     C27041   2.117   5.813   8.860 -0.1503  1.1052  0.2617
  942MOL0     C27042   2.004   5.897   8.866 -1.0897 -0.0093  0.9602
  942MOL0     O27043   1.888   5.858   8.922  0.4320 -0.2451  0.0561
  942MOL0     C27044   1.891   5.774   9.034  0.8703 -0.1574  0.0951
  942MOL0     C27045   1.748   5.749   9.089 -0.5234 -0.5126 -0.7487
  942MOL0     C27046   1.695   5.875   9.160  0.4712 -0.2910  0.7015
  942MOL0     C27047   1.557   5.842   9.226 -1.1498 -0.1260  0.4537
  942MOL0     C27048   1.488   5.963   9.284 -0.7132  0.1486  1.1513
  942MOL0     C27049   1.351   5.904   9.337 -0.3632  1.1254  0.1197
  942MOL0     C27050   1.248   6.020   9.378 -1.1972  0.0872 -0.2097
  942MOL0     C27051   1.163   6.069   9.269  0.2660  0.1993  1.0908
  942MOL0     N27052   1.029   6.104   9.322  0.0710  0.5871  0.1626
  942MOL0     C27053   1.016   6.181   9.428 -0.0266  0.7138 -0.1806
  942MOL0     C27054   0.878   6.185   9.448  0.2166 -0.8358 -0.0321
  942MOL0     C27055   0.814   6.245   9.572 -0.0514  0.2524  0.4753
  942MOL0     C27056   0.729   6.371   9.533  0.2600  0.3323 -0.7916
  942MOL0     C27057   0.597   6.323   9.467  0.0647 -0.1422  0.3885
  942MOL0     C27058   0.528   6.422   9.369 -0.1188 -0.8807  0.6014
  942MOL0     O27059   0.459   6.528   9.445 -0.1081 -0.2477 -0.4481
  942MOL0     C27060   0.327   6.573   9.416 -0.4760  0.1947 -0.6097
  942MOL0     C27061   0.216   6.572   9.504 -0.4434 -0.0135  0.4686
  942MOL0     C27062   0.087   6.620   9.461  0.1762 -0.0208  0.1595
  942MOL0     C27063  -0.033   6.612   9.562 -0.2863  0.0298 -0.4117
  942MOL0     C27064   0.070   6.655   9.323 -0.5881  0.1050 -0.6508
  942MOL0     C27065  -0.067   6.687   9.271 -0.1917  0.0904  0.2368
  942MOL0     O27066  -0.156   6.748   9.353  0.2111 -0.3454 -0.2199
  942MOL0     C27067  -0.288   6.767   9.321  0.2187  0.3405  0.1461
  942MOL0     C27068  -0.343   6.887   9.370  0.6104  1.0428  0.7664
  942MOL0     C27069  -0.481   6.909   9.357  1.0353 -0.8028  0.7813
  942MOL0     C27070  -0.571   6.818   9.286  0.2215 -0.7158 -0.3593
  942MOL0     O27071  -0.703   6.841   9.258  0.2532  0.5389  0.4473
  942MOL0     C27072  -0.762   6.970   9.272  0.6555  0.1889  0.2495
  942MOL0     C27073  -0.894   6.966   9.204  0.1996  0.0643  0.0964
  942MOL0     C27074  -0.964   7.097   9.232  0.7537 -0.7631  0.2913
  942MOL0     C27075  -0.898   7.220   9.160  0.2939 -0.7597  0.2821
  942MOL0     C27076  -0.976   7.353   9.169  0.6255  0.8146  0.3876
  942MOL0     C27077  -0.888   7.457   9.103  0.2906 -0.5870 -0.5611
  942MOL0     C27078  -0.964   7.591   9.080 -0.4180 -0.7213 -0.7852
  942MOL0     C27079  -1.032   7.646   9.199 -0.3969  0.1907  0.4281
  942MOL0    Cl27080  -0.883   7.710   9.303 -0.0977  0.3936 -0.1276
  942MOL0     C27081  -0.510   6.703   9.245 -0.3213 -1.0970  0.9095
  942MOL0     C27082  -0.372   6.674   9.259  0.1430 -0.4011  0.8434
  942MOL0     O27083  -0.087   6.678   9.149 -0.5336 -0.1461 -0.4021
  942MOL0     C27084   0.181   6.661   9.239 -0.0906 -0.8172  0.1033
  942MOL0     C27085   0.302   6.615   9.283 -0.7267 -0.1769 -1.2704
  942MOL0     N27086   0.823   6.097   9.367  0.9760  0.4767  0.1738
  942MOL0     N27087   0.911   6.044   9.294 -0.5688 -0.3454  0.4066
  942MOL0     C27088   2.010   6.014   8.794  0.0410 -0.2621  0.0220
  942MOL0     C27089   2.122   6.052   8.722 -0.3248  0.3576  0.0876
  942MOL0     C27090   2.558   5.995   8.527 -0.4026 -0.3124  0.3845
  942MOL0     C27091   2.649   5.913   8.452 -0.2132 -0.3344 -0.0997
  942MOL0     C27092   2.765   5.972   8.404  0.0008  0.1088  0.7530
  942MOL0     C27093   2.804   6.105   8.447 -0.4068 -0.0431 -0.3464
  942MOL0     O27094   2.922   6.171   8.411  0.1360 -0.1071  0.5411
  942MOL0     C27095   3.012   6.119   8.309 -0.0739 -0.2105 -0.0534
  942MOL0     C27096   3.120   6.224   8.277  0.7570 -0.7276  0.1038
  942MOL0     C27097   3.185   6.187   8.139  0.4662  0.1467 -0.3754
  942MOL0     C27098   3.301   6.277   8.085  0.0653  0.6585  0.4086
  942MOL0     C27099   3.271   6.417   8.075 -0.6476 -0.4774  0.2227
  942MOL0     C27100   3.232   6.536   8.065  0.8546  0.2006  0.2031
  942MOL0     C27101   2.717   6.171   8.527  0.3298  0.8597 -0.1895
  942MOL0     C27102   2.596   6.122   8.566 -0.0935  0.1847 -0.3910
  942MOL0     H27103   2.321   5.784   8.776  1.5391  2.1879 -1.4193
  942MOL0     H27104   2.123   5.724   8.921  2.4933  2.3741  2.0354
  942MOL0     H27105   1.932   5.675   9.012 -0.2089 -0.8255  0.9722
  942MOL0     H27106   1.943   5.831   9.112 -1.5729  0.8135  1.1293
  942MOL0     H27107   1.678   5.709   9.016  0.8919 -2.6242 -1.0495
  942MOL0     H27108   1.755   5.682   9.175 -2.1922  0.4645  0.2119
  942MOL0     H27109   1.771   5.923   9.222  2.6658  1.7594 -3.1936
  942MOL0     H27110   1.672   5.947   9.080 -2.5090 -0.4539  1.3215
  942MOL0     H27111   1.504   5.787   9.147  2.8610 -1.7267 -1.4163
  942MOL0     H27112   1.577   5.769   9.305 -0.9095 -1.1852 -0.5555
  942MOL0     H27113   1.551   6.022   9.352 -1.8864  3.2507 -0.2769
  942MOL0     H27114   1.472   6.036   9.204  2.0746  0.3155  0.6114
  942MOL0     H27115   1.302   5.825   9.278  2.6493 -2.6583  2.1631
  942MOL0     H27116   1.383   5.847   9.425 -0.0318  0.6278 -0.3088
  942MOL0     H27117   1.190   5.976   9.460 -0.5450  2.3641  1.5752
  942MOL0     H27118   1.297   6.102   9.432 -0.0709 -0.9012  0.3249
  942MOL0     H27119   1.150   5.988   9.196 -1.4683  1.6859 -0.3547
  942MOL0     H27120   1.200   6.150   9.205 -0.7287  0.5358  0.9181
  942MOL0     H27121   1.084   6.232   9.495  0.4397 -2.0068  1.5558
  942MOL0     H27122   0.753   6.174   9.629 -2.4785  3.5642  2.3928
  942MOL0     H27123   0.890   6.284   9.641 -1.2784  0.0530  2.0041
  942MOL0     H27124   0.779   6.443   9.468  3.9134  1.1885  2.5902
  942MOL0     H27125   0.707   6.416   9.630  0.1343 -1.9248  0.3112
  942MOL0     H27126   0.527   6.294   9.547  0.8139 -0.1892  1.0443
  942MOL0     H27127   0.625   6.233   9.411  2.7712 -0.3846  1.9365
  942MOL0     H27128   0.453   6.365   9.314  2.2493 -2.4021 -1.2319
  942MOL0     H27129   0.588   6.462   9.286 -1.5459  1.4153  0.5878
  942MOL0     H27130   0.241   6.540   9.605 -0.7737 -0.9296  0.2700
  942MOL0     H27131  -0.132   6.582   9.527 -0.1365 -1.3459  0.2962
  942MOL0     H27132  -0.007   6.542   9.641  1.6001  2.5473  1.3664
  942MOL0     H27133  -0.029   6.713   9.604  2.1318  0.4389 -1.4539
  942MOL0     H27134  -0.286   6.965   9.419  1.7933  0.7911 -0.1339
  942MOL0     H27135  -0.523   7.005   9.384  0.1728 -1.2162  0.9295
  942MOL0     H27136  -0.775   6.991   9.378 -1.4140  1.1678 -0.1424
  942MOL0     H27137  -0.697   7.042   9.221  1.9269 -0.4154  0.9811
  942MOL0     H27138  -0.886   6.949   9.096 -3.6465  0.2772 -0.3725
  942MOL0     H27139  -0.960   6.887   9.240 -0.7448  0.0986 -1.4616
  942MOL0     H27140  -0.966   7.130   9.336 -1.3162  0.0982  0.0224
  942MOL0     H27141  -1.070   7.092   9.204  0.9685 -0.6856 -0.5621
  942MOL0     H27142  -0.797   7.233   9.199  0.4771 -0.8134 -0.1709
  942MOL0     H27143  -0.911   7.196   9.054 -1.9034  0.4519  0.2100
  942MOL0     H27144  -0.994   7.367   9.276  1.1502  4.4704  0.1233
  942MOL0     H27145  -1.073   7.338   9.120 -0.5029 -0.4930  2.8457
  942MOL0     H27146  -0.793   7.463   9.157  1.1524 -0.6077 -2.0183
  942MOL0     H27147  -0.870   7.418   9.002  1.0090 -0.6854 -0.4054
  942MOL0     H27148  -1.021   7.581   8.986  0.5696  1.1161 -1.6193
  942MOL0     H27149  -0.889   7.669   9.063 -1.0161  1.4573  4.6703
  942MOL0     H27150  -1.094   7.580   9.261  1.3600 -0.6540  1.3747
  942MOL0     H27151  -1.091   7.728   9.159 -0.4641  0.2410  0.6283
  942MOL0     H27152  -0.568   6.635   9.183 -0.2039  1.1616 -1.8894
  942MOL0     H27153  -0.335   6.582   9.215 -1.8854 -0.7666 -0.2607
  942MOL0     H27154   0.169   6.702   9.139 -1.4288  0.6407  0.8179
  942MOL0     H27155   0.389   6.616   9.217 -0.5088  0.9498 -0.9908
  942MOL0     H27156   1.918   6.071   8.796  0.4207  0.5131 -1.7957
  942MOL0     H27157   2.126   6.149   8.674  1.0891  0.3541  0.1671
  942MOL0     H27158   2.627   5.809   8.430  2.3054 -1.2558  1.3555
  942MOL0     H27159   2.823   5.915   8.332  0.7858  1.3624  0.3588
  942MOL0     H27160   3.048   6.024   8.350 -1.5873 -0.6272  0.3751
  942MOL0     H27161   2.946   6.104   8.223  1.5228 -2.1457 -1.0322
  942MOL0     H27162   3.206   6.223   8.345  3.4942  3.2392 -2.8410
  942MOL0     H27163   3.090   6.329   8.273 -1.4812 -1.2304  2.0483
  942MOL0     H27164   3.110   6.169   8.061  0.2799 -2.6518  0.3442
  942MOL0     H27165   3.230   6.089   8.153 -4.5629 -2.6063 -0.9107
  942MOL0     H27166   3.334   6.239   7.988  1.2690  1.4954  0.4671
  942MOL0     H27167   3.380   6.260   8.158 -1.1961 -0.5799  1.5387
  942MOL0     H27168   3.195   6.636   8.052  1.9279  0.6126  0.1745
  942MOL0     H27169   2.742   6.270   8.565 -3.3343  1.5532  0.7771
  942MOL0     H27170   2.536   6.191   8.624 -0.2527  1.9910 -2.5329
  943MOL0     O27171   9.913   9.008   6.402  0.0718  0.2448 -0.3070
  943MOL0     C27172   9.956   9.123   6.399 -0.4049  0.8341  0.6964
  943MOL0     O27173   9.908   9.223   6.322  0.6965  0.3173  0.7590
  943MOL0     C27174   9.794   9.200   6.248  0.0408 -0.3031  0.2947
  943MOL0     C27175   9.665   9.205   6.299  1.1255 -0.5296 -0.2982
  943MOL0     C27176   9.558   9.194   6.216  0.6097 -0.5630 -0.3760
  943MOL0     C27177   9.573   9.191   6.082 -0.6168 -0.6502 -0.0631
  943MOL0     O27178   9.467   9.203   6.002  0.3847 -0.3285  0.0669
  943MOL0     C27179   9.477   9.168   5.861 -0.0037 -0.5659  0.1377
  943MOL0     C27180   9.348   9.185   5.785 -0.7326 -0.6372  0.5830
  943MOL0     C27181   9.367   9.157   5.633  0.0051  0.6660 -0.4202
  943MOL0     C27182   9.233   9.166   5.548  0.3293 -0.1709  0.0809
  943MOL0     C27183   9.261   9.201   5.397 -0.3974 -0.4757 -0.4490
  943MOL0     C27184   9.341   9.093   5.326 -0.0671 -0.3236  0.2890
  943MOL0     C27185   9.245   8.977   5.285 -0.0221 -0.2511  0.2636
  943MOL0     C27186   9.326   8.861   5.228  0.3918  0.4082  0.2123
  943MOL0     N27187   9.241   8.746   5.179 -0.4790 -0.4710 -0.7057
  943MOL0     C27188   9.114   8.724   5.223  0.0413 -0.6840  0.0491
  943MOL0     C27189   9.076   8.601   5.165 -0.8544 -0.0750 -0.7675
  943MOL0     C27190   8.956   8.514   5.201 -1.2657 -0.4375 -0.4860
  943MOL0     C27191   8.832   8.530   5.111 -0.5549  0.1881 -0.0911
  943MOL0     C27192   8.704   8.553   5.183 -0.5527 -0.8980 -0.0449
  943MOL0     C27193   8.589   8.579   5.084  0.7326 -0.6244 -0.2753
  943MOL0     O27194   8.480   8.614   5.169  0.6709  0.1059  0.7593
  943MOL0     C27195   8.368   8.627   5.094 -0.7640  0.4640  0.4318
  943MOL0     C27196   8.327   8.759   5.065  0.1814  0.1116  0.1126
  943MOL0     C27197   8.201   8.784   5.012 -0.5650 -0.7485 -0.2955
  943MOL0     C27198   8.177   8.928   4.978  0.5083 -0.6752 -0.4552
  943MOL0     C27199   8.121   8.673   4.982  0.5616 -0.1633  0.0721
  943MOL0     C27200   7.983   8.683   4.916 -0.3981  0.5671 -0.1554
  943MOL0     O27201   7.879   8.587   4.938  0.3818 -0.6839 -0.0797
  943MOL0     C27202   7.750   8.606   4.886  0.9757  0.2382 -1.1246
  943MOL0     C27203   7.672   8.486   4.882  0.3971  0.4060 -0.2489
  943MOL0     C27204   7.533   8.485   4.860 -1.3499  0.2372 -0.3617
  943MOL0     C27205   7.468   8.603   4.820 -1.1783  0.3970 -0.3760
  943MOL0     O27206   7.341   8.605   4.779 -0.0790  0.7984 -0.9356
  943MOL0     C27207   7.251   8.517   4.846  0.2424  0.9067  0.0269
  943MOL0     C27208   7.113   8.575   4.859  0.4943 -0.7679 -0.4275
  943MOL0     C27209   7.101   8.697   4.958 -0.7862 -0.5525  0.7620
  943MOL0     C27210   7.148   8.830   4.887  0.8530 -0.2962 -0.8856
  943MOL0     C27211   7.131   8.962   4.965 -0.1251  0.5373 -0.6673
  943MOL0     C27212   7.205   8.969   5.101  0.7544 -0.2102 -0.5299
  943MOL0     C27213   7.354   9.009   5.081  0.7790 -0.4574  0.2303
  943MOL0     C27214   7.436   9.027   5.214 -0.2758  0.4382 -0.8203
  943MOL0    Cl27215   7.393   9.165   5.322 -0.2478  0.5128  0.7065
  943MOL0     C27216   7.544   8.724   4.829  0.2658  0.9138 -0.0546
  943MOL0     C27217   7.679   8.723   4.874 -0.2587  0.0260  0.5561
  943MOL0     O27218   7.968   8.783   4.850 -0.5054  0.0723 -0.2492
  943MOL0     C27219   8.159   8.543   5.005  0.6723  0.2617 -0.2430
  943MOL0     C27220   8.284   8.514   5.058 -0.9192  0.0132 -0.0099
  943MOL0     N27221   9.183   8.556   5.086  0.0762  0.3167  0.3049
  943MOL0     N27222   9.285   8.645   5.093  0.3338  0.7582  0.6483
  943MOL0     C27223   9.705   9.197   6.032  0.1620  0.3985  0.4599
  943MOL0     C27224   9.810   9.194   6.117  0.5713  0.5161  0.7875
  943MOL0     C27225  10.067   9.152   6.483 -1.2125  0.0124  0.0165
  943MOL0     C27226  10.088   9.292   6.518 -0.3298  0.3374 -0.2913
  943MOL0     C27227  10.194   9.327   6.601 -0.2326 -0.5584  0.1626
  943MOL0     C27228  10.277   9.237   6.659  0.3754 -0.0103  0.0692
  943MOL0     O27229  10.378   9.291   6.734 -0.0217  0.4221  0.1278
  943MOL0     C27230  10.476   9.202   6.794 -0.7125  0.3032  0.2770
  943MOL0     C27231  10.566   9.293   6.889  0.5740  1.0156  0.2768
  943MOL0     C27232  10.647   9.406   6.823  0.3281  0.5320  0.4636
  943MOL0     C27233  10.696   9.493   6.931  0.8832  0.4220 -0.0323
  943MOL0     C27234  10.804   9.590   6.897 -0.4161 -0.6605 -0.1862
  943MOL0     C27235  10.908   9.658   6.871 -0.3437  0.2679 -0.0599
  943MOL0     C27236  10.248   9.096   6.646  0.2904 -0.3131 -0.5506
  943MOL0     C27237  10.145   9.057   6.556  0.1676  0.1604 -0.2495
  943MOL0     H27238   9.639   9.215   6.404  3.1971  1.1325  0.1366
  943MOL0     H27239   9.460   9.200   6.262  1.5734  1.4130  1.6181
  943MOL0     H27240   9.551   9.238   5.819  0.9279 -1.4765  0.2189
  943MOL0     H27241   9.518   9.067   5.852  2.8564  0.3098  2.0256
  943MOL0     H27242   9.270   9.123   5.831 -0.7268  0.4807  2.1784
  943MOL0     H27243   9.312   9.287   5.802  0.2861 -0.4929  2.0946
  943MOL0     H27244   9.442   9.229   5.599 -1.4235  0.4544 -4.6125
  943MOL0     H27245   9.416   9.062   5.610  2.9492  2.0228 -0.1813
  943MOL0     H27246   9.168   9.078   5.541  1.7355 -1.1306 -1.8921
  943MOL0     H27247   9.177   9.252   5.587  0.2154  0.5272 -1.5704
  943MOL0     H27248   9.170   9.227   5.343  0.1305  1.2615 -0.5450
  943MOL0     H27249   9.325   9.290   5.395 -2.0342  0.7232 -1.7752
  943MOL0     H27250   9.386   9.125   5.232  1.8186 -1.3282  0.7838
  943MOL0     H27251   9.425   9.053   5.384  1.7841  1.9790 -0.6647
  943MOL0     H27252   9.192   8.947   5.376 -1.6352 -1.0200 -0.8851
  943MOL0     H27253   9.165   9.006   5.217  2.5775  1.6621 -2.2683
  943MOL0     H27254   9.404   8.837   5.300  2.6452 -0.1594 -2.2815
  943MOL0     H27255   9.371   8.899   5.136 -1.9752 -0.3483 -1.3389
  943MOL0     H27256   9.057   8.777   5.299 -1.6330  0.8531 -2.1178
  943MOL0     H27257   8.991   8.411   5.188  1.0492  0.2626 -0.1228
  943MOL0     H27258   8.935   8.528   5.308  0.4358  0.0917 -0.1934
  943MOL0     H27259   8.819   8.441   5.047  1.5156 -0.4450  0.2850
  943MOL0     H27260   8.852   8.613   5.043  1.1215  0.5217  0.7792
  943MOL0     H27261   8.715   8.638   5.250  0.8972 -0.9760 -0.1326
  943MOL0     H27262   8.692   8.462   5.243  1.8870 -0.4958  1.1877
  943MOL0     H27263   8.575   8.496   5.015 -0.8358 -0.0262 -0.7243
  943MOL0     H27264   8.612   8.668   5.025 -0.9242 -0.4675 -0.7298
  943MOL0     H27265   8.397   8.840   5.087 -2.8172  2.2327  2.7553
  943MOL0     H27266   8.189   8.945   4.871  0.6473 -1.5759 -0.5940
  943MOL0     H27267   8.075   8.954   5.006  0.0663 -1.2624 -1.4524
  943MOL0     H27268   8.235   9.000   5.037 -1.0211 -1.0188  1.5495
  943MOL0     H27269   7.725   8.392   4.898  1.4138  1.2137  1.4441
  943MOL0     H27270   7.486   8.388   4.850  2.0453 -1.4982 -1.2597
  943MOL0     H27271   7.240   8.422   4.792 -1.1543  0.8121  0.4348
  943MOL0     H27272   7.283   8.506   4.950 -1.6234  0.9667  0.6549
  943MOL0     H27273   7.068   8.598   4.762 -0.1795  0.2294  0.1091
  943MOL0     H27274   7.042   8.505   4.905  0.8138 -2.3225 -2.1420
  943MOL0     H27275   7.161   8.683   5.049 -0.2929  1.1638  0.7307
  943MOL0     H27276   6.994   8.707   4.977 -0.5972 -2.4679  3.3391
  943MOL0     H27277   7.253   8.827   4.858  1.5589 -0.2955  1.5065
  943MOL0     H27278   7.084   8.824   4.798 -2.7151 -2.0158  1.5362
  943MOL0     H27279   7.027   8.992   4.979  0.0507  0.9394 -0.2109
  943MOL0     H27280   7.174   9.038   4.899 -0.4525  0.9727 -0.3784
  943MOL0     H27281   7.161   9.047   5.163 -0.3186 -0.5256 -0.8806
  943MOL0     H27282   7.200   8.877   5.160 -0.3579  0.0498 -0.2094
  943MOL0     H27283   7.348   9.111   5.043  1.3734 -1.1010 -1.7101
  943MOL0     H27284   7.411   8.943   5.015 -3.7510 -2.9747 -1.6469
  943MOL0     H27285   7.544   9.011   5.205 -0.2974 -0.4080  0.1866
  943MOL0     H27286   7.413   8.936   5.270  1.9020 -0.4549 -1.2623
  943MOL0     H27287   7.498   8.810   4.782 -1.7823 -1.9563 -3.8987
  943MOL0     H27288   7.723   8.822   4.886 -1.3205  0.3750  1.7314
  943MOL0     H27289   8.095   8.464   4.968  2.2847 -0.2786 -2.0161
  943MOL0     H27290   8.312   8.412   5.085 -0.7881  0.0877  0.1372
  943MOL0     H27291   9.734   9.176   5.930 -0.9485 -3.9858  0.8331
  943MOL0     H27292   9.905   9.208   6.065 -0.9421 -0.0235 -2.3539
  943MOL0     H27293  10.023   9.370   6.481 -1.2559  0.2341  1.0774
  943MOL0     H27294  10.218   9.432   6.615 -0.2337 -0.4508 -0.5875
  943MOL0     H27295  10.426   9.124   6.852 -0.1913 -1.0910 -1.0788
  943MOL0     H27296  10.543   9.158   6.719  3.5873  1.9747  2.8288
  943MOL0     H27297  10.629   9.227   6.950  0.4787  0.5149 -0.1546
  943MOL0     H27298  10.485   9.332   6.951 -1.4115 -1.3959 -0.6395
  943MOL0     H27299  10.583   9.471   6.762 -0.2496 -0.6670 -0.2329
  943MOL0     H27300  10.730   9.370   6.762 -0.9777 -0.1106 -1.0088
  943MOL0     H27301  10.728   9.442   7.023  0.0163  1.6236  0.9697
  943MOL0     H27302  10.607   9.543   6.971 -2.3236 -2.5297 -2.8122
  943MOL0     H27303  11.005   9.702   6.853  0.5208 -0.9268  1.4303
  943MOL0     H27304  10.298   9.018   6.704 -1.1152 -0.7618  0.0958
  943MOL0     H27305  10.128   8.956   6.520  0.8704 -0.1219  0.1988
  944MOL0     O27306   5.681   9.896   1.221 -0.2592  0.0902  0.6562
  944MOL0     C27307   5.745   9.955   1.310 -0.2032 -0.2718 -1.0040
  944MOL0     O27308   5.674  10.019   1.413 -0.2138  0.1184  0.8045
  944MOL0     C27309   5.535  10.003   1.416 -1.1038 -0.6927  0.4258
  944MOL0     C27310   5.453  10.033   1.303 -0.5519  0.4283  0.3023
  944MOL0     C27311   5.316   9.998   1.309 -0.2722  0.2606 -0.6293
  944MOL0     C27312   5.260   9.948   1.420  0.0294  0.1917  0.3403
  944MOL0     O27313   5.127   9.912   1.410 -0.3965  0.2894  0.1681
  944MOL0     C27314   5.050   9.921   1.525 -0.3577  0.5052  0.9941
  944MOL0     C27315   4.899   9.911   1.490  0.4395  0.1838  0.3198
  944MOL0     C27316   4.853   9.779   1.421 -0.3417 -0.3728 -0.1530
  944MOL0     C27317   4.732   9.804   1.329 -0.4095 -0.4188  0.0436
  944MOL0     C27318   4.670   9.672   1.283 -0.3897  0.3620  0.5777
  944MOL0     C27319   4.574   9.623   1.385  1.4655  0.2243  0.2480
  944MOL0     C27320   4.529   9.472   1.373 -0.8884 -0.6306  0.3063
  944MOL0     C27321   4.445   9.425   1.498  0.2361  0.3405 -0.1814
  944MOL0     N27322   4.301   9.454   1.481  0.5347  0.5039  0.0912
  944MOL0     C27323   4.198   9.363   1.505 -0.2926 -0.8983  0.3922
  944MOL0     C27324   4.076   9.426   1.477  0.6072  0.9977 -0.1658
  944MOL0     C27325   3.943   9.369   1.483  0.7548 -0.0825  0.4160
  944MOL0     C27326   3.830   9.477   1.489 -0.4833 -0.3836 -1.0290
  944MOL0     C27327   3.820   9.548   1.628 -0.3247 -0.7491  0.9351
  944MOL0     C27328   3.729   9.672   1.635  0.5125 -0.1451  0.2873
  944MOL0     O27329   3.596   9.622   1.625 -0.1182 -0.5753 -0.2196
  944MOL0     C27330   3.509   9.728   1.603 -0.3803  0.2325 -0.2009
  944MOL0     C27331   3.530   9.863   1.578 -0.7939  0.1148  0.2354
  944MOL0     C27332   3.434   9.957   1.563  0.2004  0.1366  0.9448
  944MOL0     C27333   3.475  10.101   1.524  0.1251 -0.1348 -0.1011
  944MOL0     C27334   3.295   9.920   1.582 -0.1719  0.1586  0.0520
  944MOL0     C27335   3.179  10.012   1.573 -0.3619  0.1120  0.4485
  944MOL0     O27336   3.063   9.954   1.579  0.1304 -0.7352  0.5532
  944MOL0     C27337   2.933  10.016   1.557  0.0040  0.0472  0.2960
  944MOL0     C27338   2.907  10.116   1.463 -0.1694  0.1612  0.1658
  944MOL0     C27339   2.776  10.160   1.430 -0.7475 -0.4841 -0.6304
  944MOL0     C27340   2.664  10.105   1.489 -0.3599  0.1291 -0.8992
  944MOL0     O27341   2.539  10.157   1.486  0.1754  0.3482 -0.1451
  944MOL0     C27342   2.517  10.279   1.413 -0.1922 -0.2136  0.3497
  944MOL0     C27343   2.480  10.252   1.260 -0.1438  0.7246 -0.1120
  944MOL0     C27344   2.353  10.158   1.246 -1.0232 -0.2504  1.0972
  944MOL0     C27345   2.240  10.249   1.231 -0.3625  0.3513  0.5707
  944MOL0     C27346   2.124  10.209   1.316  0.8575  0.0979 -0.5659
  944MOL0     C27347   2.000  10.295   1.297 -0.9988  0.6514 -0.6471
  944MOL0     C27348   1.882  10.260   1.372  0.4154 -0.0182  0.0679
  944MOL0     C27349   1.900  10.236   1.519  0.8512 -0.2033 -0.4007
  944MOL0    Cl27350   1.742  10.288   1.588 -0.1878  0.0050  0.6209
  944MOL0     C27351   2.688  10.007   1.589  0.6947 -0.9520  0.4173
  944MOL0     C27352   2.819   9.957   1.620 -1.3569 -0.4943  0.5311
  944MOL0     O27353   3.196  10.127   1.536 -0.1142  0.3017  0.0396
  944MOL0     C27354   3.276   9.788   1.616 -0.0031  0.8480 -0.7010
  944MOL0     C27355   3.377   9.694   1.629  0.3902  0.4306 -0.4553
  944MOL0     N27356   4.117   9.550   1.424 -0.1884 -0.2468  0.3219
  944MOL0     N27357   4.244   9.566   1.418 -0.1123 -0.9119  0.1296
  944MOL0     C27358   5.340   9.929   1.536  0.9207  0.2397  0.1126
  944MOL0     C27359   5.474   9.959   1.532 -0.3490 -0.0979  0.4357
  944MOL0     C27360   5.895   9.955   1.314  0.8848 -0.2356  0.2399
  944MOL0     C27361   5.970  10.073   1.359  1.0075  0.1818  0.4958
  944MOL0     C27362   6.108  10.088   1.355  0.0107  0.2025 -0.0006
  944MOL0     C27363   6.187   9.989   1.294 -0.7198  0.0158  0.2177
  944MOL0     O27364   6.324   9.986   1.302 -1.1238  0.3926 -0.4764
  944MOL0     C27365   6.408  10.102   1.298  0.5585  0.0409 -0.3963
  944MOL0     C27366   6.484  10.135   1.419 -0.2370  0.1025 -0.2881
  944MOL0     C27367   6.603  10.047   1.449 -0.4048  0.9740 -0.1319
  944MOL0     C27368   6.585   9.982   1.586 -0.1148  0.9194  0.2799
  944MOL0     C27369   6.718   9.949   1.645 -0.5656  0.2939 -0.1191
  944MOL0     C27370   6.828   9.899   1.693  0.2863 -0.0697 -0.2150
  944MOL0     C27371   6.118   9.881   1.243  1.2615  1.1118  0.2094
  944MOL0     C27372   5.973   9.859   1.256 -0.1929 -0.2822 -0.5940
  944MOL0     H27373   5.485  10.063   1.204 -3.1127 -1.1192 -1.1107
  944MOL0     H27374   5.244  10.008   1.229 -1.9041 -1.9078  0.4624
  944MOL0     H27375   5.083   9.838   1.588  1.8599 -0.3518 -1.1452
  944MOL0     H27376   5.047  10.016   1.578  0.7282  0.2802  1.4907
  944MOL0     H27377   4.836   9.913   1.580 -0.7673  2.2182 -0.5171
  944MOL0     H27378   4.871  10.001   1.434 -3.6734 -0.2655  1.2851
  944MOL0     H27379   4.934   9.738   1.361  1.0996  1.0873  0.7323
  944MOL0     H27380   4.836   9.714   1.508 -0.2328  1.6760  1.4798
  944MOL0     H27381   4.660   9.854   1.395 -0.3156 -1.7980  1.2506
  944MOL0     H27382   4.779   9.860   1.248  3.0820 -1.9205  0.8344
  944MOL0     H27383   4.604   9.690   1.198  2.9426  3.8164 -1.6348
  944MOL0     H27384   4.742   9.594   1.255 -1.9335 -1.7900  2.2547
  944MOL0     H27385   4.617   9.639   1.484 -0.2294  2.3826  0.7064
  944MOL0     H27386   4.481   9.680   1.384  1.1724 -0.0939  2.9181
  944MOL0     H27387   4.483   9.450   1.276  2.8168 -0.4287 -1.6804
  944MOL0     H27388   4.624   9.418   1.372 -1.1262 -1.0487 -0.7767
  944MOL0     H27389   4.477   9.479   1.589  1.1346 -0.0459 -0.2586
  944MOL0     H27390   4.471   9.323   1.527  0.1408  0.9518  2.2872
  944MOL0     H27391   4.208   9.259   1.533  2.1869 -1.5453 -2.3740
  944MOL0     H27392   3.913   9.306   1.398  1.3469  2.7414 -2.0396
  944MOL0     H27393   3.932   9.311   1.575  1.5029 -1.3240 -0.2456
  944MOL0     H27394   3.734   9.431   1.463 -0.9165 -0.2697  0.3096
  944MOL0     H27395   3.837   9.554   1.411 -0.9003  1.3742  0.5689
  944MOL0     H27396   3.914   9.594   1.658 -1.6412  1.6006  1.7675
  944MOL0     H27397   3.788   9.480   1.707 -0.2118  1.1226  2.6811
  944MOL0     H27398   3.753   9.735   1.549 -3.5266  0.2588 -0.7677
  944MOL0     H27399   3.737   9.735   1.723 -0.7164  1.3303 -0.6024
  944MOL0     H27400   3.631   9.902   1.576  0.6156 -3.2438 -0.6208
  944MOL0     H27401   3.416  10.140   1.441  0.4735  1.6709  0.4465
  944MOL0     H27402   3.453  10.162   1.613 -1.2297  0.1045 -0.5698
  944MOL0     H27403   3.580  10.106   1.493 -0.3055 -1.2383 -1.8308
  944MOL0     H27404   2.988  10.169   1.413 -1.5946  0.2794 -2.1591
  944MOL0     H27405   2.769  10.237   1.353 -1.7024  0.4705  0.3720
  944MOL0     H27406   2.437  10.333   1.465  1.1855  2.3315 -0.0206
  944MOL0     H27407   2.598  10.351   1.397 -0.6954  0.0307 -1.2191
  944MOL0     H27408   2.469  10.346   1.206 -0.6543 -1.1130 -3.4767
  944MOL0     H27409   2.561  10.192   1.219  0.7924  0.8088  1.5359
  944MOL0     H27410   2.341  10.090   1.331 -1.7823  0.8577  1.8996
  944MOL0     H27411   2.344  10.098   1.155 -0.5984  2.8230 -1.1441
  944MOL0     H27412   2.258  10.355   1.251 -2.2326  1.3562 -2.4561
  944MOL0     H27413   2.212  10.253   1.126  0.6586  1.8454  0.3160
  944MOL0     H27414   2.149  10.215   1.422  1.9730  0.6299 -0.8406
  944MOL0     H27415   2.089  10.106   1.308 -3.4764  1.2782  0.5114
  944MOL0     H27416   2.030  10.399   1.310  1.6939  0.0965 -1.7202
  944MOL0     H27417   1.973  10.286   1.192  1.5459 -0.8573 -1.2634
  944MOL0     H27418   1.846  10.167   1.328  1.8831 -0.2408 -0.7246
  944MOL0     H27419   1.806  10.338   1.363  1.4774  0.8929 -1.3363
  944MOL0     H27420   1.979  10.290   1.572  0.0874 -1.4999  2.2435
  944MOL0     H27421   1.911  10.129   1.538 -1.1850 -0.3771  0.0767
  944MOL0     H27422   2.593   9.985   1.636 -0.8286  2.1841 -0.8800
  944MOL0     H27423   2.832   9.893   1.707 -0.8985  0.7927  1.4400
  944MOL0     H27424   3.175   9.750   1.623 -0.2283  1.3421 -1.2625
  944MOL0     H27425   3.346   9.594   1.656  2.0462  0.5293  2.2128
  944MOL0     H27426   5.309   9.888   1.631  0.4190  0.7995  0.1927
  944MOL0     H27427   5.543   9.933   1.612 -3.5914 -0.8878  3.1869
  944MOL0     H27428   5.922  10.156   1.410  0.5779 -0.0312  0.4460
  944MOL0     H27429   6.147  10.171   1.414 -0.7580 -0.9955  2.3279
  944MOL0     H27430   6.471  10.083   1.211 -0.6005 -1.8813 -0.8912
  944MOL0     H27431   6.358  10.198   1.282  2.3270  0.6973 -2.3839
  944MOL0     H27432   6.429  10.164   1.510  0.1022 -0.9793  0.2862
  944MOL0     H27433   6.527  10.234   1.404  0.5585 -0.1608  0.1916
  944MOL0     H27434   6.696  10.104   1.439  1.5063 -1.7378  1.0082
  944MOL0     H27435   6.602   9.967   1.375 -1.3379  1.7358 -0.9764
  944MOL0     H27436   6.525   9.891   1.578  3.1954 -1.5139  0.7783
  944MOL0     H27437   6.548  10.054   1.660  0.1172  1.1533  0.1668
  944MOL0     H27438   6.920   9.871   1.740  0.3496 -0.2827 -0.4637
  944MOL0     H27439   6.177   9.808   1.188  0.1635 -1.5254  2.2970
  944MOL0     H27440   5.929   9.769   1.215  1.0293  0.7640 -4.6310
  945MOL0     O27441   3.413   6.160   7.358 -0.4613  0.3072  0.5851
  945MOL0     C27442   3.458   6.210   7.259  0.1598  0.0014 -0.3358
  945MOL0     O27443   3.391   6.294   7.181 -0.6956  0.2925 -0.2771
  945MOL0     C27444   3.278   6.349   7.236  0.0186 -1.3325  0.6068
  945MOL0     C27445   3.158   6.274   7.242  0.0120 -0.0776 -0.3073
  945MOL0     C27446   3.042   6.337   7.288  0.6674 -0.8270  0.8201
  945MOL0     C27447   3.042   6.474   7.316  0.5437 -1.1483 -0.3276
  945MOL0     O27448   2.925   6.545   7.349 -0.0905 -0.2344 -0.3288
  945MOL0     C27449   2.811   6.472   7.399 -0.4778  0.0342  0.5129
  945MOL0     C27450   2.698   6.567   7.437 -1.3119  0.5418 -0.6409
  945MOL0     C27451   2.563   6.497   7.432  0.0123  0.6555  0.3993
  945MOL0     C27452   2.517   6.463   7.569 -0.0847  0.1192  0.4126
  945MOL0     C27453   2.394   6.377   7.558  0.2367  0.2031 -0.4813
  945MOL0     C27454   2.338   6.337   7.694  0.7143 -0.0975 -0.1369
  945MOL0     C27455   2.200   6.264   7.668 -1.1842  0.2032 -0.5230
  945MOL0     C27456   2.146   6.177   7.787  0.1659 -0.2562 -0.2056
  945MOL0     N27457   2.004   6.169   7.788  0.3099  0.2540  1.2176
  945MOL0     C27458   1.918   6.253   7.849  0.2483  0.4904  0.6076
  945MOL0     C27459   1.795   6.199   7.813 -0.2712  0.7635  0.0246
  945MOL0     C27460   1.666   6.266   7.854 -0.0791 -0.6528 -0.2921
  945MOL0     C27461   1.578   6.329   7.756  0.8842 -0.2645 -0.2902
  945MOL0     C27462   1.475   6.230   7.698 -0.1073 -0.3386 -0.4776
  945MOL0     C27463   1.369   6.300   7.618 -0.7564 -0.3936 -0.2596
  945MOL0     O27464   1.281   6.335   7.717 -0.0127 -0.1538  0.8458
  945MOL0     C27465   1.152   6.376   7.673 -1.1789 -0.5799 -0.8594
  945MOL0     C27466   1.064   6.385   7.777 -0.5726  0.0570 -0.5169
  945MOL0     C27467   0.927   6.419   7.752 -0.1763  0.0729 -0.1381
  945MOL0     C27468   0.839   6.436   7.873 -0.0525  0.5759 -0.3032
  945MOL0     C27469   0.881   6.434   7.613  0.9222 -0.1763 -0.1581
  945MOL0     C27470   0.739   6.426   7.575 -1.5531  0.6566 -0.1690
  945MOL0     O27471   0.711   6.443   7.447  0.0932  0.1211  0.0919
  945MOL0     C27472   0.580   6.445   7.400 -0.4143 -1.1786  0.2154
  945MOL0     C27473   0.494   6.341   7.433 -0.4653  0.0939  0.0415
  945MOL0     C27474   0.366   6.351   7.376  0.6623  0.6994 -0.1523
  945MOL0     C27475   0.318   6.466   7.309 -0.6981 -0.0246 -0.0067
  945MOL0     O27476   0.192   6.491   7.270 -0.2522  0.1434  0.0250
  945MOL0     C27477   0.158   6.554   7.147  0.5763 -0.3703  0.0412
  945MOL0     C27478   0.007   6.571   7.146 -0.6962 -0.0802 -0.6124
  945MOL0     C27479  -0.050   6.638   7.029  0.1159  0.4303  0.6572
  945MOL0     C27480  -0.012   6.568   6.893 -0.0341  0.0177  0.0697
  945MOL0     C27481  -0.083   6.628   6.768 -0.2694  0.4597  0.3156
  945MOL0     C27482  -0.017   6.549   6.652  0.0389  0.1471  0.0833
  945MOL0     C27483  -0.078   6.609   6.526 -0.4547 -0.2420  1.0788
  945MOL0     C27484   0.029   6.641   6.419  0.6537 -0.0958  0.4134
  945MOL0    Cl27485   0.119   6.784   6.485  0.1848 -0.3682  0.2433
  945MOL0     C27486   0.410   6.572   7.284  0.5198 -0.7311 -0.8184
  945MOL0     C27487   0.541   6.559   7.327 -0.0922  0.4623 -0.6790
  945MOL0     O27488   0.661   6.424   7.668 -0.3965 -0.7317 -0.2169
  945MOL0     C27489   0.977   6.431   7.511  0.4171  0.0609 -1.1664
  945MOL0     C27490   1.113   6.408   7.538 -0.9046 -0.9523  0.3029
  945MOL0     N27491   1.816   6.092   7.735  0.8196 -0.6736  0.1037
  945MOL0     N27492   1.944   6.077   7.708  0.0627  0.0797 -0.1887
  945MOL0     C27493   3.161   6.541   7.319  0.2423  0.6029 -0.9285
  945MOL0     C27494   3.274   6.478   7.285 -0.1966 -0.5513 -0.1810
  945MOL0     C27495   3.593   6.167   7.214  0.5010 -1.3140  0.0641
  945MOL0     C27496   3.648   6.042   7.243  0.2906 -1.0044  0.0614
  945MOL0     C27497   3.777   6.015   7.210 -0.6578 -0.0255 -0.1322
  945MOL0     C27498   3.868   6.109   7.172 -0.7331  0.0633 -0.3113
  945MOL0     O27499   3.998   6.072   7.159 -0.1318  0.0197 -0.2645
  945MOL0     C27500   4.101   6.160   7.212 -0.2283 -0.8746 -0.1713
  945MOL0     C27501   4.234   6.086   7.206 -0.8766 -0.8439  0.0265
  945MOL0     C27502   4.231   5.950   7.285  0.0692 -0.6200 -0.4025
  945MOL0     C27503   4.158   5.948   7.424  0.1453  0.2947 -0.2965
  945MOL0     C27504   4.221   6.028   7.522 -0.0814 -0.8135  0.0492
  945MOL0     C27505   4.260   6.107   7.603 -0.2074  0.1965 -1.4698
  945MOL0     C27506   3.815   6.231   7.135  0.7440 -1.0682  0.1511
  945MOL0     C27507   3.684   6.264   7.153  0.5304  0.9760 -0.6007
  945MOL0     H27508   3.152   6.169   7.213 -5.5485 -0.1786  0.1751
  945MOL0     H27509   2.946   6.285   7.289  0.5007 -0.5132  1.4568
  945MOL0     H27510   2.782   6.407   7.316  3.7687 -1.2462 -0.2264
  945MOL0     H27511   2.835   6.414   7.489 -0.2444  1.8435  1.6502
  945MOL0     H27512   2.719   6.598   7.540  0.7534 -0.2162 -0.7840
  945MOL0     H27513   2.705   6.666   7.390 -0.0856  0.0414 -1.5496
  945MOL0     H27514   2.481   6.546   7.378 -1.2413 -0.7924  0.9269
  945MOL0     H27515   2.572   6.401   7.381 -2.2911  0.0102  1.0552
  945MOL0     H27516   2.605   6.412   7.609 -0.3263 -1.2765 -0.7345
  945MOL0     H27517   2.507   6.555   7.628 -0.9983 -1.1343  2.3394
  945MOL0     H27518   2.319   6.435   7.504 -2.5866 -0.5491  2.3298
  945MOL0     H27519   2.414   6.286   7.500  0.9739  0.6456 -0.9331
  945MOL0     H27520   2.412   6.265   7.731  2.3582 -0.6088 -3.9128
  945MOL0     H27521   2.329   6.427   7.756 -1.0582  1.1811 -2.1268
  945MOL0     H27522   2.126   6.341   7.643 -2.7990 -1.6827 -1.8535
  945MOL0     H27523   2.197   6.211   7.573  0.3441  2.2700 -1.8295
  945MOL0     H27524   2.174   6.208   7.888  0.4447  0.1615 -0.4077
  945MOL0     H27525   2.182   6.075   7.773  1.8542 -0.5749  4.5209
  945MOL0     H27526   1.954   6.336   7.909  2.5441  0.1028 -0.1317
  945MOL0     H27527   1.614   6.180   7.896  0.5929 -2.0082 -2.1118
  945MOL0     H27528   1.672   6.346   7.928 -1.3682  0.5542 -1.4200
  945MOL0     H27529   1.635   6.371   7.673 -1.4423  0.8714 -1.4196
  945MOL0     H27530   1.517   6.408   7.801  0.2367 -1.4795  1.0398
  945MOL0     H27531   1.428   6.164   7.772 -0.9138  0.4470 -0.2669
  945MOL0     H27532   1.524   6.168   7.623 -3.1467 -1.5928 -1.5854
  945MOL0     H27533   1.319   6.234   7.546  0.0608 -0.0563 -1.1530
  945MOL0     H27534   1.410   6.390   7.570 -1.4059 -0.3364 -0.7286
  945MOL0     H27535   1.092   6.362   7.879 -2.6267  1.1881  0.3690
  945MOL0     H27536   0.811   6.542   7.882 -3.1167 -0.3333  3.9629
  945MOL0     H27537   0.748   6.376   7.870  0.2965  0.0675 -2.4692
  945MOL0     H27538   0.894   6.421   7.966 -0.6192  1.4819  0.1977
  945MOL0     H27539   0.531   6.262   7.497  0.3416  0.0847 -0.4227
  945MOL0     H27540   0.290   6.286   7.418 -1.7584  0.5202 -4.2501
  945MOL0     H27541   0.210   6.646   7.122  4.2603 -2.7009 -1.7356
  945MOL0     H27542   0.193   6.485   7.070  2.5254  0.8404 -0.2132
  945MOL0     H27543  -0.038   6.472   7.145 -0.4497 -0.2398  1.2921
  945MOL0     H27544  -0.035   6.616   7.237 -1.0931 -4.0489  1.3611
  945MOL0     H27545  -0.013   6.741   7.027 -0.0711  0.5043 -1.6133
  945MOL0     H27546  -0.159   6.637   7.045 -0.3354 -4.0514 -1.1116
  945MOL0     H27547   0.096   6.585   6.888  0.6748 -3.7041 -0.0203
  945MOL0     H27548  -0.025   6.459   6.895  1.7399 -0.2173  0.3567
  945MOL0     H27549  -0.072   6.736   6.762 -3.3454  1.0158  2.5095
  945MOL0     H27550  -0.192   6.612   6.765  0.1448 -3.1400 -0.1200
  945MOL0     H27551   0.091   6.565   6.647  0.0728 -0.1655 -0.1202
  945MOL0     H27552  -0.025   6.440   6.655  5.4011 -0.5132  0.0273
  945MOL0     H27553  -0.133   6.702   6.546  0.0005 -0.7046  5.1550
  945MOL0     H27554  -0.149   6.531   6.498 -1.5165  0.6312  1.2520
  945MOL0     H27555  -0.030   6.655   6.328 -0.8006  1.3458  1.5230
  945MOL0     H27556   0.102   6.560   6.405  0.2606 -0.5871  1.1390
  945MOL0     H27557   0.383   6.666   7.237  0.4542 -1.2304 -1.7970
  945MOL0     H27558   0.616   6.635   7.308  1.1088 -0.2025  1.0902
  945MOL0     H27559   0.955   6.454   7.407  1.8358  0.2137 -1.4528
  945MOL0     H27560   1.197   6.412   7.470 -1.3236  0.7514 -0.1425
  945MOL0     H27561   3.158   6.643   7.357  2.5015  0.4673 -0.2877
  945MOL0     H27562   3.368   6.531   7.276 -1.0848  0.7403 -2.8542
  945MOL0     H27563   3.588   5.965   7.290 -2.3411  0.5356 -0.6266
  945MOL0     H27564   3.818   5.916   7.223  1.1648  0.4273 -1.8579
  945MOL0     H27565   4.116   6.250   7.152 -0.4255 -0.8859 -0.2349
  945MOL0     H27566   4.078   6.189   7.315  2.8180  1.4944  0.0086
  945MOL0     H27567   4.315   6.151   7.240 -1.9777 -0.1596  1.4600
  945MOL0     H27568   4.249   6.047   7.105 -0.1196 -0.4916  0.0023
  945MOL0     H27569   4.337   5.933   7.309 -0.2744 -0.9206  0.9843
  945MOL0     H27570   4.207   5.863   7.224  1.6078  0.3831 -2.5727
  945MOL0     H27571   4.173   5.843   7.452 -0.0153  0.1897 -0.5939
  945MOL0     H27572   4.049   5.956   7.427  0.1031 -0.6416  1.4999
  945MOL0     H27573   4.304   6.170   7.677  0.6250 -0.6142 -1.2515
  945MOL0     H27574   3.888   6.301   7.095  1.3024 -0.6888  1.7632
  945MOL0     H27575   3.642   6.365   7.148 -2.0000  0.1053  1.2178
  946MOL0     O27576   9.484   3.411   0.094  0.1614  0.3386 -0.5652
  946MOL0     C27577   9.513   3.478   0.001  0.3357 -0.0906  0.2808
  946MOL0     O27578   9.425   3.515  -0.110  0.0941  0.0107 -0.1559
  946MOL0     C27579   9.309   3.441  -0.116  0.4786 -0.3862  0.3629
  946MOL0     C27580   9.185   3.509  -0.124 -0.5355 -0.3796 -0.0226
  946MOL0     C27581   9.060   3.446  -0.142  0.2745 -0.2530 -0.6440
  946MOL0     C27582   9.049   3.310  -0.159  0.4914 -0.0663  0.8086
  946MOL0     O27583   8.920   3.260  -0.180  0.3382  0.2460  0.2778
  946MOL0     C27584   8.897   3.133  -0.127  0.5072  0.2555  0.0450
  946MOL0     C27585   8.748   3.104  -0.122  0.6473 -0.8306  0.7824
  946MOL0     C27586   8.697   3.025   0.001 -0.1844 -0.0150 -0.2502
  946MOL0     C27587   8.547   2.988  -0.007 -1.0154 -0.0419  0.4924
  946MOL0     C27588   8.487   2.894   0.097 -0.2823  0.5599  0.6868
  946MOL0     C27589   8.510   2.947   0.236  0.8884  1.3263 -0.5924
  946MOL0     C27590   8.476   2.844   0.346  0.2347 -0.0824 -0.3363
  946MOL0     C27591   8.336   2.773   0.347 -0.4158 -0.6546 -0.9382
  946MOL0     N27592   8.226   2.863   0.375 -0.4903  0.0092 -0.1466
  946MOL0     C27593   8.144   2.857   0.490  0.0982  0.6103  0.6375
  946MOL0     C27594   8.059   2.957   0.467 -0.2951 -0.2971  0.4664
  946MOL0     C27595   7.949   2.997   0.564 -0.0368 -0.0966  0.3475
  946MOL0     C27596   7.808   2.946   0.511  0.3393  0.3513  0.3061
  946MOL0     C27597   7.715   3.013   0.607 -0.4760 -0.8932  0.3735
  946MOL0     C27598   7.566   2.993   0.561  0.2878  0.7451 -0.5271
  946MOL0     O27599   7.468   3.060   0.632 -0.2570 -0.1704 -0.2496
  946MOL0     C27600   7.338   3.024   0.612 -0.6794 -0.1915  0.1487
  946MOL0     C27601   7.294   2.930   0.523  0.2293  0.3849 -0.4252
  946MOL0     C27602   7.154   2.892   0.506  0.6426  0.7251  0.3819
  946MOL0     C27603   7.131   2.786   0.400  0.2412  0.3486 -0.1613
  946MOL0     C27604   7.059   2.956   0.581  0.8345 -0.6733  0.1684
  946MOL0     C27605   6.917   2.929   0.570  0.6244  0.9286  0.5635
  946MOL0     O27606   6.834   3.029   0.631 -0.1516  0.0616 -0.1550
  946MOL0     C27607   6.701   3.024   0.607  0.3479 -0.5942 -0.0575
  946MOL0     C27608   6.653   3.036   0.477  0.3079 -0.2960  0.2486
  946MOL0     C27609   6.516   3.066   0.455  0.0117 -0.0647  0.2875
  946MOL0     C27610   6.425   3.053   0.555  0.4957 -0.8992 -0.6326
  946MOL0     O27611   6.287   3.064   0.544 -0.0579 -0.4367  0.2916
  946MOL0     C27612   6.243   3.111   0.414 -0.1390  0.3551  0.0698
  946MOL0     C27613   6.089   3.116   0.390 -0.4179 -0.2345 -0.0408
  946MOL0     C27614   6.025   3.197   0.497 -0.4656 -0.8355 -0.7625
  946MOL0     C27615   6.063   3.346   0.498 -0.7146  0.5036  0.5344
  946MOL0     C27616   5.993   3.410   0.622 -0.0404  0.4706  0.9384
  946MOL0     C27617   6.051   3.544   0.658 -0.3907 -0.0792  0.9546
  946MOL0     C27618   5.985   3.605   0.792  0.1701  0.1765  0.1807
  946MOL0     C27619   5.841   3.644   0.764  0.5006  0.2963  0.0191
  946MOL0    Cl27620   5.854   3.802   0.671 -0.0131 -0.3981  0.0412
  946MOL0     C27621   6.470   3.018   0.684 -0.4429  0.5269  0.5542
  946MOL0     C27622   6.604   3.017   0.715 -0.5399  0.1818  1.0086
  946MOL0     O27623   6.878   2.828   0.515  0.4144  0.1441 -0.2023
  946MOL0     C27624   7.099   3.049   0.678 -0.6859  0.3149 -0.3224
  946MOL0     C27625   7.241   3.080   0.693  1.0621 -0.2359  0.5460
  946MOL0     N27626   8.086   3.022   0.343 -0.4545 -0.2254 -0.5735
  946MOL0     N27627   8.186   2.969   0.298 -0.0320 -0.7577  0.1483
  946MOL0     C27628   9.168   3.236  -0.141 -0.7139  0.2425 -0.7759
  946MOL0     C27629   9.292   3.296  -0.111  0.4083  0.0283  0.2211
  946MOL0     C27630   9.635   3.562   0.010 -0.1897  0.5163 -0.2948
  946MOL0     C27631   9.671   3.651  -0.088  0.9367 -0.3877  0.0253
  946MOL0     C27632   9.780   3.738  -0.079  0.3053 -0.0630 -0.3770
  946MOL0     C27633   9.866   3.725   0.031 -0.2084  0.8990 -0.0462
  946MOL0     O27634   9.978   3.797   0.027 -0.3357  0.0423 -0.7106
  946MOL0     C27635  10.090   3.739   0.084 -0.4145  0.6258 -0.0231
  946MOL0     C27636  10.111   3.819   0.217 -0.1266  0.2061 -0.1636
  946MOL0     C27637  10.159   3.968   0.198  0.3825  0.0958  0.0717
  946MOL0     C27638  10.153   4.035   0.334 -0.8654 -0.2680  0.0331
  946MOL0     C27639  10.253   4.128   0.346 -0.2062 -0.7968  0.0093
  946MOL0     C27640  10.348   4.217   0.345  1.0889  0.7394  0.3534
  946MOL0     C27641   9.831   3.635   0.133 -0.3303 -0.3271 -0.1367
  946MOL0     C27642   9.724   3.544   0.117  0.2779  0.1739 -1.2884
  946MOL0     H27643   9.191   3.617  -0.122  1.1947 -0.4255 -0.7749
  946MOL0     H27644   8.965   3.499  -0.150  1.6164  2.9429  1.9476
  946MOL0     H27645   8.958   3.055  -0.173 -2.1327 -2.5318  0.9688
  946MOL0     H27646   8.934   3.146  -0.024 -0.5367 -3.1921  0.9646
  946MOL0     H27647   8.702   3.203  -0.119  1.7057 -0.2741 -0.2989
  946MOL0     H27648   8.711   3.047  -0.208  0.3555 -0.6291  0.7743
  946MOL0     H27649   8.747   2.928   0.007 -0.9550 -0.5319 -1.6660
  946MOL0     H27650   8.718   3.080   0.093 -0.1807 -1.1194  0.4215
  946MOL0     H27651   8.489   3.081  -0.003 -0.3382  0.5074 -1.3524
  946MOL0     H27652   8.531   2.951  -0.109 -0.4128 -0.8216  0.6736
  946MOL0     H27653   8.377   2.894   0.090 -0.5804  0.7907  3.9087
  946MOL0     H27654   8.534   2.796   0.086 -0.6644  0.4319  0.1789
  946MOL0     H27655   8.616   2.972   0.243  0.6901  2.4912 -1.4502
  946MOL0     H27656   8.451   3.033   0.267  0.9855  1.0127  0.4970
  946MOL0     H27657   8.564   2.781   0.359  1.2231  1.3206  0.1191
  946MOL0     H27658   8.478   2.905   0.438 -0.9005  0.0372 -0.3764
  946MOL0     H27659   8.339   2.698   0.427  3.7924 -0.5985 -0.8153
  946MOL0     H27660   8.328   2.727   0.248  2.7370  2.1792 -2.7752
  946MOL0     H27661   8.138   2.784   0.570 -0.8165  2.4302  2.3067
  946MOL0     H27662   7.975   2.947   0.658  1.1328  0.5573  0.3985
  946MOL0     H27663   7.953   3.104   0.588 -0.3455  0.7192 -2.8278
  946MOL0     H27664   7.795   2.837   0.514  1.4144  0.1998  2.9519
  946MOL0     H27665   7.787   2.989   0.413  2.3008 -0.9417 -0.7360
  946MOL0     H27666   7.734   3.120   0.605 -4.4572  0.0147  1.7215
  946MOL0     H27667   7.724   2.988   0.713 -1.9852 -0.6486  0.5893
  946MOL0     H27668   7.559   2.885   0.577 -0.4633  0.9635  0.7470
  946MOL0     H27669   7.548   3.011   0.455 -0.0152  0.9311 -0.4453
  946MOL0     H27670   7.362   2.863   0.472 -0.3668 -1.3469  0.9618
  946MOL0     H27671   7.147   2.684   0.437  3.0350  1.4186  1.9956
  946MOL0     H27672   7.031   2.790   0.357 -0.6192 -3.5821  1.0413
  946MOL0     H27673   7.197   2.799   0.314  1.2531  1.2872  0.7278
  946MOL0     H27674   6.723   3.039   0.395 -0.3937  2.3258 -0.3566
  946MOL0     H27675   6.483   3.091   0.355 -0.5776 -0.0962  0.4712
  946MOL0     H27676   6.285   3.210   0.393  1.6871 -0.4121 -0.1656
  946MOL0     H27677   6.280   3.035   0.345  2.3147 -0.7500  2.4083
  946MOL0     H27678   6.056   3.140   0.289 -0.8931  1.4257  0.4705
  946MOL0     H27679   6.048   3.015   0.403  0.8563 -0.6097  1.3773
  946MOL0     H27680   6.049   3.150   0.593  2.5919 -0.8550 -1.4357
  946MOL0     H27681   5.917   3.193   0.479 -1.0978 -1.1291  2.4658
  946MOL0     H27682   6.169   3.369   0.490 -0.6305 -0.3409 -1.4384
  946MOL0     H27683   6.012   3.390   0.411  1.1091  0.5722 -0.5457
  946MOL0     H27684   6.026   3.350   0.708 -1.7124  0.0465  1.3278
  946MOL0     H27685   5.884   3.417   0.607  0.2676  2.4194 -0.8737
  946MOL0     H27686   6.158   3.535   0.675  0.2787 -0.3497 -2.6997
  946MOL0     H27687   6.047   3.613   0.572 -1.0334 -0.5465  0.6011
  946MOL0     H27688   6.038   3.691   0.833  1.5484  0.5030 -2.1045
  946MOL0     H27689   5.988   3.526   0.868 -0.8964 -0.8550 -0.7937
  946MOL0     H27690   5.782   3.657   0.855  0.1561 -0.2825 -0.1150
  946MOL0     H27691   5.790   3.568   0.703  0.7435 -0.0520  0.2447
  946MOL0     H27692   6.406   3.009   0.771 -0.3349  1.0296  0.6891
  946MOL0     H27693   6.645   3.018   0.815  1.0121 -0.0439  0.4130
  946MOL0     H27694   7.034   3.101   0.748  0.6223  1.7574 -0.1160
  946MOL0     H27695   7.271   3.147   0.773 -2.0706  1.7399  0.2381
  946MOL0     H27696   9.173   3.128  -0.134 -0.7414  0.3783  2.3869
  946MOL0     H27697   9.379   3.233  -0.108  1.4656  1.3752 -0.7989
  946MOL0     H27698   9.597   3.668  -0.165  1.0469  1.8162  0.3674
  946MOL0     H27699   9.790   3.816  -0.154 -1.5279  0.5816 -0.0042
  946MOL0     H27700  10.082   3.630   0.097  1.9043  0.5494  1.3195
  946MOL0     H27701  10.179   3.750   0.022 -0.3377 -0.7431 -0.1909
  946MOL0     H27702  10.178   3.767   0.286 -0.0059  0.2680 -0.2340
  946MOL0     H27703  10.013   3.820   0.266 -0.4877 -3.1992 -0.5667
  946MOL0     H27704  10.095   4.015   0.123  0.6705 -1.4323 -1.1838
  946MOL0     H27705  10.261   3.968   0.158  1.1972  1.7697  1.9614
  946MOL0     H27706  10.161   3.961   0.415 -2.6594 -1.8255 -1.1068
  946MOL0     H27707  10.054   4.081   0.346  0.9677  3.5451  2.4581
  946MOL0     H27708  10.430   4.278   0.313  1.4033  0.6910  1.0520
  946MOL0     H27709   9.898   3.638   0.219 -2.2335  2.0786  1.3955
  946MOL0     H27710   9.700   3.481   0.202  1.2989  1.3270 -0.1054
  947MOL0     O27711   8.552   1.037   1.530 -0.4168 -0.1251  0.8193
  947MOL0     C27712   8.628   0.978   1.604 -0.0029 -0.3173 -0.2069
  947MOL0     O27713   8.593   0.890   1.708  0.3037 -0.1739  0.1730
  947MOL0     C27714   8.466   0.857   1.720  0.5673 -0.6260 -0.3753
  947MOL0     C27715   8.439   0.832   1.853 -0.6920 -0.3199  0.4055
  947MOL0     C27716   8.310   0.810   1.894  0.2991  0.7581  0.0701
  947MOL0     C27717   8.204   0.815   1.797  0.3105 -0.2258  0.0094
  947MOL0     O27718   8.074   0.777   1.826  0.3530 -0.8115  0.5593
  947MOL0     C27719   8.017   0.814   1.951 -0.2458  0.3169 -0.4629
  947MOL0     C27720   7.874   0.753   1.963 -0.2686  0.1608 -0.3181
  947MOL0     C27721   7.812   0.757   2.103  0.6649 -0.0162 -0.9147
  947MOL0     C27722   7.655   0.732   2.084  0.0886  0.7282  0.8584
  947MOL0     C27723   7.575   0.747   2.216 -0.1834 -0.0122  0.6106
  947MOL0     C27724   7.430   0.759   2.186  0.0195  0.2748  0.4423
  947MOL0     C27725   7.356   0.792   2.321 -0.4150  0.2010  0.2051
  947MOL0     C27726   7.206   0.808   2.297 -0.4822 -1.0392  0.2087
  947MOL0     N27727   7.139   0.823   2.429  0.6276  0.6914  0.7564
  947MOL0     C27728   7.089   0.943   2.469 -0.8166  0.0718  0.5070
  947MOL0     C27729   7.006   0.922   2.578 -0.0689  0.8097 -0.4235
  947MOL0     C27730   6.917   1.040   2.623 -0.7322 -0.1259  0.2134
  947MOL0     C27731   6.767   1.029   2.577  0.0091 -0.5789  0.2517
  947MOL0     C27732   6.683   1.081   2.691  0.2869 -0.5722 -0.9161
  947MOL0     C27733   6.533   1.078   2.666 -0.2592  0.3545  0.0824
  947MOL0     O27734   6.467   1.157   2.767  0.2064 -0.0450 -0.8782
  947MOL0     C27735   6.338   1.189   2.747 -0.4450  1.2157  0.5690
  947MOL0     C27736   6.286   1.298   2.816 -0.3432  0.4148  0.2497
  947MOL0     C27737   6.153   1.328   2.802 -0.5365 -0.9201 -0.0748
  947MOL0     C27738   6.096   1.440   2.887  0.0325  0.2079  0.4044
  947MOL0     C27739   6.068   1.251   2.715  0.4650  0.0603  0.8446
  947MOL0     C27740   5.925   1.271   2.700 -0.2173  0.2136  0.7994
  947MOL0     O27741   5.878   1.248   2.570  0.0618 -0.2476 -0.1103
  947MOL0     C27742   5.746   1.252   2.536 -0.2488 -0.0589  0.4013
  947MOL0     C27743   5.713   1.292   2.408  0.5610 -0.3823  0.8067
  947MOL0     C27744   5.576   1.307   2.366  0.2810 -0.0288  0.3358
  947MOL0     C27745   5.473   1.283   2.456 -0.2044  0.9991  0.3073
  947MOL0     O27746   5.343   1.289   2.415  0.1713  0.5365  0.8570
  947MOL0     C27747   5.251   1.198   2.464 -0.2861  0.1784  0.0929
  947MOL0     C27748   5.136   1.184   2.358 -0.7083  0.3193 -0.5122
  947MOL0     C27749   5.064   1.043   2.343  0.2207  0.0033  0.5089
  947MOL0     C27750   4.972   1.041   2.216  0.0496  0.2104  0.1945
  947MOL0     C27751   4.893   0.910   2.204 -0.1176  0.0740 -0.4370
  947MOL0     C27752   4.766   0.896   2.280 -0.5747  0.0288 -0.0245
  947MOL0     C27753   4.656   0.988   2.216  0.4746  0.4937 -0.5284
  947MOL0     C27754   4.537   0.993   2.304 -0.0524  0.0654 -0.0347
  947MOL0    Cl27755   4.405   1.089   2.226  0.3077 -0.3447  0.2308
  947MOL0     C27756   5.504   1.232   2.585  0.8546 -0.5290 -0.5607
  947MOL0     C27757   5.639   1.222   2.624  0.0107 -0.1394 -0.0204
  947MOL0     O27758   5.857   1.324   2.788  0.1147 -0.4614 -0.4728
  947MOL0     C27759   6.127   1.144   2.639 -0.5386  0.0424 -0.2844
  947MOL0     C27760   6.265   1.125   2.655 -0.1720  0.8280 -0.4289
  947MOL0     N27761   7.023   0.779   2.607  0.7310  0.2185  0.0741
  947MOL0     N27762   7.105   0.725   2.519 -0.6572 -0.6245 -0.8529
  947MOL0     C27763   8.232   0.841   1.661 -0.3714  1.4116 -0.1081
  947MOL0     C27764   8.364   0.857   1.625  0.7868 -0.6209  0.8618
  947MOL0     C27765   8.771   1.002   1.582 -0.5739 -0.1676 -0.2991
  947MOL0     C27766   8.819   1.095   1.491 -0.3466  0.4681 -0.1187
  947MOL0     C27767   8.953   1.122   1.477 -0.3689 -0.1014 -0.1102
  947MOL0     C27768   9.046   1.050   1.559  0.0446  0.0362 -0.1817
  947MOL0     O27769   9.176   1.085   1.537  0.7227  0.6745 -0.3114
  947MOL0     C27770   9.278   0.999   1.591  0.0591 -0.0246 -0.5399
  947MOL0     C27771   9.410   1.022   1.523  0.1363 -0.2957  0.3539
  947MOL0     C27772   9.511   0.921   1.567 -0.7965  0.0112 -0.6920
  947MOL0     C27773   9.648   0.988   1.558  0.5105 -0.1306 -0.2532
  947MOL0     C27774   9.757   0.897   1.599 -0.4595  0.2346 -0.1327
  947MOL0     C27775   9.841   0.810   1.618  0.4294 -0.2778 -0.0704
  947MOL0     C27776   9.003   0.968   1.660  0.1013  0.0899 -0.6860
  947MOL0     C27777   8.867   0.934   1.667 -0.5056 -0.8602 -0.9384
  947MOL0     H27778   8.513   0.851   1.930  0.9260 -0.0257 -1.1540
  947MOL0     H27779   8.289   0.800   2.000 -1.0100 -0.7996 -0.2907
  947MOL0     H27780   8.075   0.770   2.033 -1.9516 -0.4520  0.3701
  947MOL0     H27781   8.023   0.922   1.965  0.1470  0.0043  2.4834
  947MOL0     H27782   7.816   0.812   1.892  1.8424  0.1389 -2.1481
  947MOL0     H27783   7.875   0.651   1.926 -2.8897  0.1381 -0.5114
  947MOL0     H27784   7.858   0.680   2.164 -1.0754 -0.4896 -0.1445
  947MOL0     H27785   7.830   0.857   2.144 -0.1758 -1.1421  2.4321
  947MOL0     H27786   7.627   0.794   1.999 -2.6190 -0.7682  0.5431
  947MOL0     H27787   7.636   0.627   2.058  2.1563  0.4104  0.3967
  947MOL0     H27788   7.594   0.659   2.277 -2.9419 -1.7383 -0.8204
  947MOL0     H27789   7.614   0.831   2.274 -1.3071  1.3685 -0.5496
  947MOL0     H27790   7.422   0.836   2.109 -1.1623 -0.0016  0.2578
  947MOL0     H27791   7.391   0.666   2.142 -2.3509  0.6435  1.5688
  947MOL0     H27792   7.372   0.711   2.393  0.0944  1.1092  1.1449
  947MOL0     H27793   7.405   0.880   2.363 -0.5025 -0.0485  0.8454
  947MOL0     H27794   7.169   0.728   2.232 -0.2841 -1.0903  0.1564
  947MOL0     H27795   7.192   0.895   2.233 -1.2884 -3.1959 -2.7827
  947MOL0     H27796   7.096   1.037   2.415 -2.2718 -0.8012 -1.3007
  947MOL0     H27797   6.928   1.039   2.732 -0.8127  0.1976  0.2248
  947MOL0     H27798   6.960   1.136   2.591  0.1810  0.2828  2.4922
  947MOL0     H27799   6.755   0.920   2.569  1.8401 -1.1503  3.4655
  947MOL0     H27800   6.752   1.081   2.482 -0.6165  1.0863  1.2143
  947MOL0     H27801   6.717   1.176   2.732 -1.7564 -0.1885  0.0608
  947MOL0     H27802   6.700   1.011   2.775 -0.5502 -0.0580 -0.3018
  947MOL0     H27803   6.493   0.977   2.671 -2.6850  1.1435 -1.3121
  947MOL0     H27804   6.528   1.127   2.568  1.7003  0.2504 -0.0908
  947MOL0     H27805   6.342   1.352   2.892 -0.4376  1.1664 -0.2040
  947MOL0     H27806   6.176   1.468   2.957 -0.3766 -0.8855  1.3288
  947MOL0     H27807   6.065   1.527   2.829 -0.2216 -0.0353  0.1713
  947MOL0     H27808   6.013   1.399   2.945  1.9427 -1.9782  1.7963
  947MOL0     H27809   5.789   1.320   2.336 -1.1633 -0.0112 -0.9869
  947MOL0     H27810   5.546   1.348   2.270  3.6243 -1.2995 -1.4181
  947MOL0     H27811   5.288   1.096   2.465 -0.8165 -0.0216 -0.5293
  947MOL0     H27812   5.218   1.227   2.565  0.4045  0.4674  0.2420
  947MOL0     H27813   5.056   1.249   2.396  0.8785  1.5282  0.9297
  947MOL0     H27814   5.162   1.233   2.264  1.3184 -1.6209 -1.0317
  947MOL0     H27815   5.012   1.010   2.434  0.9971 -1.0037  0.6076
  947MOL0     H27816   5.141   0.969   2.320 -0.7439 -0.4705 -1.4413
  947MOL0     H27817   4.905   1.128   2.209  0.4278  0.3302 -3.3238
  947MOL0     H27818   5.046   1.043   2.136  0.6922 -0.9577  0.7334
  947MOL0     H27819   4.966   0.829   2.215  1.9238  1.7607 -1.0085
  947MOL0     H27820   4.872   0.895   2.097  1.3279 -1.5311 -0.5300
  947MOL0     H27821   4.735   0.793   2.260 -0.5648 -0.0182  0.1996
  947MOL0     H27822   4.773   0.913   2.388 -1.9195 -0.4207  0.1575
  947MOL0     H27823   4.627   0.940   2.122  0.0330 -3.0786  1.2650
  947MOL0     H27824   4.688   1.091   2.201 -0.2466  0.7076 -0.6509
  947MOL0     H27825   4.560   1.053   2.393 -1.2444  0.6631 -0.1040
  947MOL0     H27826   4.507   0.891   2.325  1.2925 -0.9638 -2.6506
  947MOL0     H27827   5.424   1.201   2.650  1.5106 -0.2200  0.4136
  947MOL0     H27828   5.658   1.179   2.722 -2.5593  1.1413  1.1258
  947MOL0     H27829   6.070   1.082   2.570 -0.1676  1.2095 -1.6915
  947MOL0     H27830   6.318   1.048   2.600  0.6438  0.4329  0.8693
  947MOL0     H27831   8.157   0.839   1.583  1.9951 -2.1054 -2.6067
  947MOL0     H27832   8.393   0.872   1.521 -1.1976  0.4061  0.4186
  947MOL0     H27833   8.741   1.136   1.426 -0.4054 -0.3207 -0.5611
  947MOL0     H27834   8.993   1.190   1.402 -1.6290 -1.9288 -2.5788
  947MOL0     H27835   9.286   1.033   1.695  2.4342 -1.0227 -0.3248
  947MOL0     H27836   9.252   0.893   1.590 -1.4911  0.3408 -1.2661
  947MOL0     H27837   9.448   1.124   1.538 -1.8681  0.8595 -1.7965
  947MOL0     H27838   9.398   1.022   1.414  4.5024  0.5133 -0.3269
  947MOL0     H27839   9.506   0.838   1.496  1.7829 -1.1459  0.3701
  947MOL0     H27840   9.496   0.883   1.668 -0.2951  2.2231  0.2731
  947MOL0     H27841   9.647   1.077   1.621  0.8079 -0.5367  0.3341
  947MOL0     H27842   9.659   1.014   1.453 -1.5959 -2.7799 -1.2556
  947MOL0     H27843   9.897   0.720   1.632  1.4421  0.8040  4.1409
  947MOL0     H27844   9.068   0.929   1.737  1.6777 -0.8155 -2.3821
  947MOL0     H27845   8.829   0.875   1.750  1.8871 -2.2752 -0.7478
  948MOL0     O27846   4.513   1.950   6.309  1.3049  0.4604 -1.2007
  948MOL0     C27847   4.620   2.001   6.324 -0.5838  0.0200  0.8696
  948MOL0     O27848   4.638   2.111   6.391 -0.3526 -0.0202  0.5633
  948MOL0     C27849   4.528   2.172   6.456 -0.3649  0.5726 -0.2795
  948MOL0     C27850   4.470   2.116   6.570  0.1607  0.3679  0.2323
  948MOL0     C27851   4.359   2.184   6.618 -0.0795 -0.6598 -0.5243
  948MOL0     C27852   4.320   2.308   6.574  0.2451  0.1482  0.5198
  948MOL0     O27853   4.229   2.377   6.651  0.9511 -0.9736 -0.3274
  948MOL0     C27854   4.191   2.507   6.599  1.0013  0.0450 -0.6565
  948MOL0     C27855   4.095   2.577   6.714 -0.0956  0.3471 -0.0715
  948MOL0     C27856   4.079   2.730   6.704  0.0454 -0.0368  0.0956
  948MOL0     C27857   3.965   2.790   6.793  0.8058  0.2497 -0.5594
  948MOL0     C27858   3.833   2.780   6.715  0.3763  0.8024  0.0047
  948MOL0     C27859   3.724   2.870   6.790 -1.0094 -0.7994  0.4565
  948MOL0     C27860   3.600   2.869   6.707  0.6886  0.3125  0.7148
  948MOL0     C27861   3.491   2.959   6.767  0.4945 -0.6697 -0.8409
  948MOL0     N27862   3.500   3.105   6.746  0.2841 -0.2629 -1.3460
  948MOL0     C27863   3.606   3.175   6.700  0.0446 -0.2889 -0.0862
  948MOL0     C27864   3.568   3.306   6.713  0.9789  0.6501  0.3274
  948MOL0     C27865   3.653   3.429   6.685  0.1572 -0.5357  0.7117
  948MOL0     C27866   3.583   3.550   6.623 -0.5181  0.1123  0.2894
  948MOL0     C27867   3.674   3.675   6.607  0.3416 -0.0741  0.1362
  948MOL0     C27868   3.612   3.785   6.536  0.4650  0.6599  0.2796
  948MOL0     O27869   3.572   3.753   6.400  1.3544  0.0836  1.0012
  948MOL0     C27870   3.443   3.799   6.364  0.4515  0.2176 -1.3150
  948MOL0     C27871   3.439   3.932   6.331 -0.6537 -0.1736 -0.7630
  948MOL0     C27872   3.320   3.999   6.295  0.9117 -0.5516  0.1583
  948MOL0     C27873   3.319   4.146   6.268 -0.7097 -0.3345  0.6671
  948MOL0     C27874   3.210   3.917   6.264  0.2236  0.3003 -0.3783
  948MOL0     C27875   3.091   3.967   6.201  0.4990 -0.2463 -0.7432
  948MOL0     O27876   2.988   4.006   6.275 -0.3582 -0.0997  0.2190
  948MOL0     C27877   2.888   4.068   6.208 -0.5264  0.1012 -0.0519
  948MOL0     C27878   2.768   3.997   6.185 -0.0656 -0.2883  0.4434
  948MOL0     C27879   2.661   4.053   6.120 -0.4201  0.6471  0.7477
  948MOL0     C27880   2.672   4.182   6.063 -0.5915  0.1163 -0.3732
  948MOL0     O27881   2.576   4.250   5.995  1.0978  0.1437 -0.0475
  948MOL0     C27882   2.441   4.195   5.991  0.1438 -0.8130  0.6682
  948MOL0     C27883   2.359   4.287   5.892  0.2501 -0.7541 -0.3445
  948MOL0     C27884   2.207   4.263   5.895 -0.1020  0.0576 -0.0315
  948MOL0     C27885   2.137   4.350   5.793 -0.4042 -0.5083  0.1192
  948MOL0     C27886   2.032   4.291   5.709  1.0933  0.0578 -1.3638
  948MOL0     C27887   2.004   4.394   5.598 -0.9612 -0.6658 -0.7653
  948MOL0     C27888   1.908   4.338   5.487  0.1674  0.4573 -0.3273
  948MOL0     C27889   1.939   4.418   5.359  0.7220  0.0510  0.7893
  948MOL0    Cl27890   1.787   4.421   5.244  0.0462  0.1224  0.3293
  948MOL0     C27891   2.787   4.253   6.096 -0.0084 -0.4342 -0.2415
  948MOL0     C27892   2.898   4.196   6.156 -0.3134  0.0850  0.0449
  948MOL0     O27893   3.099   3.976   6.083  0.4999 -0.2362  0.3521
  948MOL0     C27894   3.220   3.783   6.292 -0.0590  0.5225 -0.0816
  948MOL0     C27895   3.330   3.717   6.358 -1.3168 -0.2851 -0.4877
  948MOL0     N27896   3.440   3.310   6.763  0.5148 -0.1643 -0.2048
  948MOL0     N27897   3.397   3.191   6.779 -0.5134  0.0060  0.5073
  948MOL0     C27898   4.393   2.364   6.464  0.3608 -0.2468 -0.2246
  948MOL0     C27899   4.491   2.292   6.407 -1.1260 -0.8052  0.5922
  948MOL0     C27900   4.734   1.930   6.267  0.1807 -0.9849 -1.1260
  948MOL0     C27901   4.715   1.827   6.173 -0.1598 -0.0933 -0.4600
  948MOL0     C27902   4.821   1.738   6.136 -0.4520 -0.1131 -0.1537
  948MOL0     C27903   4.950   1.763   6.175 -0.9076  0.9670 -0.2209
  948MOL0     O27904   5.049   1.674   6.132 -0.3473  0.6555 -0.3430
  948MOL0     C27905   5.132   1.733   6.031  0.1019 -0.6495  0.5657
  948MOL0     C27906   5.228   1.622   5.985  0.0159  0.4121 -0.3834
  948MOL0     C27907   5.346   1.665   5.893 -0.0126 -0.3606 -0.7550
  948MOL0     C27908   5.471   1.567   5.922 -0.4670 -0.8619 -0.0579
  948MOL0     C27909   5.515   1.572   6.063 -0.1468 -0.0564  0.1295
  948MOL0     C27910   5.534   1.581   6.182  0.7256 -0.0319 -0.2617
  948MOL0     C27911   4.975   1.869   6.273  0.6222 -0.1558 -0.0525
  948MOL0     C27912   4.865   1.950   6.314 -0.5110  1.2333 -0.1751
  948MOL0     H27913   4.503   2.023   6.614 -2.3185 -1.7438 -2.0072
  948MOL0     H27914   4.296   2.147   6.699  2.0110 -0.7757  1.1412
  948MOL0     H27915   4.273   2.575   6.573  2.2201 -1.4397 -0.7900
  948MOL0     H27916   4.127   2.501   6.511 -0.2383  3.3295 -0.1573
  948MOL0     H27917   3.999   2.526   6.719  0.1483 -0.1612 -0.5208
  948MOL0     H27918   4.136   2.550   6.812 -0.2683 -1.7086 -0.5344
  948MOL0     H27919   4.172   2.778   6.734 -1.3472  2.2908  0.8848
  948MOL0     H27920   4.063   2.751   6.598 -1.5295 -0.4521  0.2207
  948MOL0     H27921   3.966   2.758   6.898  2.8176  3.5681  0.5968
  948MOL0     H27922   3.978   2.898   6.805 -0.5848  0.2440  1.5833
  948MOL0     H27923   3.850   2.820   6.615  0.6969  0.2153 -0.1736
  948MOL0     H27924   3.804   2.676   6.700  0.8460  0.9410 -2.1727
  948MOL0     H27925   3.694   2.832   6.888 -1.2998 -0.2976  0.5666
  948MOL0     H27926   3.766   2.971   6.800  1.7845 -1.8010 -0.0878
  948MOL0     H27927   3.600   2.893   6.600 -3.0617  3.4479  1.1795
  948MOL0     H27928   3.562   2.767   6.720 -0.9388  1.0383  2.1426
  948MOL0     H27929   3.490   2.943   6.875 -0.7533 -1.4988 -0.9577
  948MOL0     H27930   3.401   2.919   6.719 -0.7738 -1.4361  2.0113
  948MOL0     H27931   3.706   3.143   6.672 -1.1411 -1.6131 -3.2500
  948MOL0     H27932   3.699   3.465   6.777  2.0898  0.1007 -0.4304
  948MOL0     H27933   3.736   3.398   6.620 -0.2251 -1.3653  0.6056
  948MOL0     H27934   3.501   3.562   6.695 -0.6028  0.0548  0.2039
  948MOL0     H27935   3.549   3.520   6.523  1.0257  1.4290 -0.6718
  948MOL0     H27936   3.766   3.649   6.554 -1.6699 -0.0356 -3.6901
  948MOL0     H27937   3.693   3.707   6.710 -0.8727  2.3360 -0.3192
  948MOL0     H27938   3.687   3.864   6.526  3.6789 -1.9527  1.7580
  948MOL0     H27939   3.537   3.831   6.601  0.0526  2.0817 -1.1457
  948MOL0     H27940   3.535   3.981   6.346 -0.0250 -1.5079 -0.3125
  948MOL0     H27941   3.298   4.164   6.162  1.6333 -0.3509  0.1526
  948MOL0     H27942   3.253   4.194   6.342  0.7983  2.1714  0.5057
  948MOL0     H27943   3.417   4.192   6.280 -1.4633  1.4525  0.2870
  948MOL0     H27944   2.759   3.892   6.209 -0.2030 -0.0005  1.7111
  948MOL0     H27945   2.578   3.988   6.093  0.1683 -0.3579  1.2859
  948MOL0     H27946   2.448   4.098   5.941  0.7730  0.4956 -1.9302
  948MOL0     H27947   2.392   4.189   6.089  1.0410 -3.9504  1.0494
  948MOL0     H27948   2.372   4.391   5.923 -1.9185  0.1373 -2.1481
  948MOL0     H27949   2.399   4.274   5.791 -1.4478  0.8764 -1.2857
  948MOL0     H27950   2.161   4.282   5.993  0.4314 -0.9451  0.4325
  948MOL0     H27951   2.185   4.156   5.894  0.7345 -0.1207  0.0014
  948MOL0     H27952   2.087   4.441   5.830 -1.3998 -0.5079 -1.1583
  948MOL0     H27953   2.215   4.385   5.726 -2.0971  1.7171 -0.8327
  948MOL0     H27954   1.953   4.268   5.782  2.9933  2.5874  1.7384
  948MOL0     H27955   2.066   4.193   5.675 -0.9466 -2.0554  2.0954
  948MOL0     H27956   1.965   4.491   5.630  2.2679  0.9364 -1.2344
  948MOL0     H27957   2.102   4.406   5.549 -0.6582  1.3055  0.2240
  948MOL0     H27958   1.807   4.358   5.522  0.7882  1.7322  0.8642
  948MOL0     H27959   1.915   4.230   5.478 -1.0559  0.1977  1.3210
  948MOL0     H27960   2.012   4.360   5.303 -3.4735 -2.7243 -2.5142
  948MOL0     H27961   1.971   4.520   5.379  1.7599 -0.3871  1.4881
  948MOL0     H27962   2.803   4.351   6.053 -0.1440 -1.1424 -2.0231
  948MOL0     H27963   2.989   4.252   6.172  0.3009 -1.2038  1.2949
  948MOL0     H27964   3.130   3.724   6.281  1.2915 -1.8628  0.7575
  948MOL0     H27965   3.333   3.618   6.403  3.2007 -0.4213 -0.6449
  948MOL0     H27966   4.362   2.456   6.415 -0.7282 -1.7425 -2.5255
  948MOL0     H27967   4.542   2.323   6.317  1.2928  0.4954  2.3194
  948MOL0     H27968   4.610   1.817   6.148 -0.6027 -2.1230  1.8203
  948MOL0     H27969   4.800   1.660   6.064 -3.6691 -0.2471  0.7861
  948MOL0     H27970   5.077   1.770   5.943  3.2565  0.5685 -1.0526
  948MOL0     H27971   5.187   1.818   6.072 -2.4332  2.3544 -1.7801
  948MOL0     H27972   5.169   1.542   5.941  0.1245  0.7719 -1.2008
  948MOL0     H27973   5.269   1.577   6.076 -1.5114 -0.6148 -0.1754
  948MOL0     H27974   5.390   1.761   5.921  0.9386 -0.9977  0.0020
  948MOL0     H27975   5.316   1.668   5.788  0.2582  1.0859 -0.8166
  948MOL0     H27976   5.555   1.594   5.858  0.6413 -3.7285  0.0557
  948MOL0     H27977   5.436   1.466   5.901 -0.5461 -0.8251 -0.1085
  948MOL0     H27978   5.547   1.579   6.288 -0.1731  0.8313 -0.1188
  948MOL0     H27979   5.074   1.891   6.311  1.7401 -0.6959 -2.4297
  948MOL0     H27980   4.889   2.020   6.394 -0.3766 -0.1250  1.0116
  949MOL0     O27981   1.564   0.909   1.066  0.0991 -0.1600  0.3200
  949MOL0     C27982   1.555   0.915   0.940 -0.7394 -0.0605 -0.4755
  949MOL0     O27983   1.458   0.976   0.867  0.1036 -0.2955 -0.2972
  949MOL0     C27984   1.345   1.016   0.927 -0.7184  0.7615  0.5640
  949MOL0     C27985   1.307   1.150   0.918  0.6245 -0.2888  0.9633
  949MOL0     C27986   1.175   1.185   0.954  0.0205 -0.1521 -0.2664
  949MOL0     C27987   1.088   1.088   1.005  0.2203  0.7993  0.3457
  949MOL0     O27988   0.953   1.117   1.016  1.0599 -0.5408  0.3013
  949MOL0     C27989   0.853   1.018   1.028  0.3827 -0.7354  0.8089
  949MOL0     C27990   0.720   1.098   1.019  0.1276  0.0653  0.3567
  949MOL0     C27991   0.684   1.182   1.136  0.1923 -0.0071 -0.0084
  949MOL0     C27992   0.549   1.257   1.124 -1.1148  0.0613 -0.5489
  949MOL0     C27993   0.495   1.290   1.270  0.4336  0.2956 -0.0268
  949MOL0     C27994   0.588   1.376   1.358 -0.1944  1.1138 -0.6468
  949MOL0     C27995   0.510   1.431   1.477 -0.8716 -0.0215 -0.2858
  949MOL0     C27996   0.412   1.549   1.461 -0.9031  0.3287 -0.2238
  949MOL0     N27997   0.486   1.676   1.426  0.7562  0.4801  0.1845
  949MOL0     C27998   0.589   1.738   1.495  0.3936 -0.1045  0.9447
  949MOL0     C27999   0.623   1.845   1.418 -0.1398 -0.0612  0.0381
  949MOL0     C28000   0.720   1.960   1.450 -0.3030 -0.1224  0.1756
  949MOL0     C28001   0.865   1.933   1.420 -0.1051 -0.1654  0.3713
  949MOL0     C28002   0.888   1.979   1.273 -0.1994  0.7088 -0.7251
  949MOL0     C28003   0.916   2.126   1.269  0.0208  0.0626 -0.6069
  949MOL0     O28004   0.902   2.190   1.148  0.2706 -0.5088  0.7473
  949MOL0     C28005   1.013   2.177   1.066 -0.1198 -0.0334  0.5556
  949MOL0     C28006   0.996   2.105   0.944 -0.1469  0.6862  0.2669
  949MOL0     C28007   1.106   2.090   0.860 -0.6276 -0.1783 -0.4583
  949MOL0     C28008   1.081   1.995   0.739  1.2449 -0.9775 -0.3491
  949MOL0     C28009   1.237   2.140   0.895  0.5922  0.3495  0.7557
  949MOL0     C28010   1.355   2.111   0.811 -0.7627 -0.5205 -0.5175
  949MOL0     O28011   1.348   2.074   0.681  0.0896 -0.3596  0.1839
  949MOL0     C28012   1.464   2.064   0.608 -0.3544 -0.3734 -0.1586
  949MOL0     C28013   1.570   2.159   0.611 -0.5486  0.3630 -0.0471
  949MOL0     C28014   1.677   2.158   0.520 -0.2841 -0.6642  0.8863
  949MOL0     C28015   1.683   2.056   0.426  0.1650 -0.1847  0.0453
  949MOL0     O28016   1.800   2.043   0.350  0.6990 -0.1026 -0.4688
  949MOL0     C28017   1.903   1.984   0.430 -0.2100 -0.0249 -0.7427
  949MOL0     C28018   1.954   1.857   0.355 -0.7027  0.4402  0.1462
  949MOL0     C28019   2.050   1.773   0.447 -0.4642 -0.5958 -0.0129
  949MOL0     C28020   2.111   1.643   0.387  0.0543 -0.1244 -0.1381
  949MOL0     C28021   2.260   1.630   0.415 -0.3903 -0.0837 -0.8284
  949MOL0     C28022   2.298   1.591   0.559  0.2165  0.0410  0.0258
  949MOL0     C28023   2.302   1.441   0.593 -0.6924 -0.0798 -0.7282
  949MOL0     C28024   2.313   1.406   0.741 -0.5094 -0.0422 -0.6324
  949MOL0    Cl28025   2.172   1.453   0.829 -0.0441  0.3560 -0.2575
  949MOL0     C28026   1.575   1.966   0.411 -1.0403 -0.0768  0.5281
  949MOL0     C28027   1.472   1.980   0.497  1.2479  0.1332 -0.3697
  949MOL0     O28028   1.468   2.109   0.868  0.3923  0.2496 -0.9431
  949MOL0     C28029   1.248   2.207   1.016 -0.7104 -0.1713 -0.0326
  949MOL0     C28030   1.138   2.227   1.100  0.7007  0.4594 -1.0291
  949MOL0     N28031   0.563   1.824   1.295  0.0846 -0.1266  0.5564
  949MOL0     N28032   0.474   1.722   1.298 -0.4798 -0.4421  0.1945
  949MOL0     C28033   1.138   0.957   1.032  0.8555 -0.2714 -0.6270
  949MOL0     C28034   1.268   0.921   1.001  0.0160  0.0532 -0.0468
  949MOL0     C28035   1.669   0.832   0.865 -0.0260  1.3336 -0.1084
  949MOL0     C28036   1.778   0.772   0.929 -0.4165 -0.4978  0.1055
  949MOL0     C28037   1.882   0.700   0.871  0.3348  1.0209 -0.4131
  949MOL0     C28038   1.877   0.682   0.731  0.2415 -0.0308  0.6848
  949MOL0     O28039   1.973   0.617   0.656 -0.4206 -0.0757 -0.3284
  949MOL0     C28040   2.070   0.708   0.595  0.5696  0.3299 -0.1159
  949MOL0     C28041   2.179   0.638   0.502 -0.2849 -0.2881 -0.4078
  949MOL0     C28042   2.254   0.522   0.571  0.1539 -0.1972  0.0511
  949MOL0     C28043   2.405   0.508   0.521 -0.1517  0.0283 -0.1308
  949MOL0     C28044   2.476   0.620   0.570 -0.1485  0.4434 -0.5691
  949MOL0     C28045   2.553   0.701   0.622 -0.2476  0.5145  0.3423
  949MOL0     C28046   1.774   0.744   0.653  0.1546 -0.1538 -1.1056
  949MOL0     C28047   1.669   0.815   0.720  0.0640 -0.2886  0.0290
  949MOL0     H28048   1.367   1.218   0.858  0.9185 -1.0773  0.3315
  949MOL0     H28049   1.141   1.282   0.919  1.4569 -0.5910 -3.2044
  949MOL0     H28050   0.860   0.941   0.951 -2.1301 -1.0559  0.8339
  949MOL0     H28051   0.847   0.961   1.121 -2.0622 -0.4708  0.8632
  949MOL0     H28052   0.729   1.158   0.928 -0.8879  0.3613  0.4350
  949MOL0     H28053   0.633   1.039   0.989 -0.0437  0.8589 -0.7988
  949MOL0     H28054   0.675   1.116   1.223 -0.1908  3.4016  2.7521
  949MOL0     H28055   0.766   1.247   1.168 -0.0050  0.2516 -0.0198
  949MOL0     H28056   0.555   1.351   1.069 -0.0712 -0.8120 -1.9877
  949MOL0     H28057   0.471   1.192   1.085 -0.6128 -1.4459  0.8114
  949MOL0     H28058   0.400   1.344   1.265 -0.0431 -0.5203  0.0476
  949MOL0     H28059   0.478   1.199   1.328  0.0774 -0.4328 -1.2374
  949MOL0     H28060   0.669   1.309   1.389  0.4575  1.5449 -1.3793
  949MOL0     H28061   0.630   1.454   1.294  1.5489 -1.4815 -2.8520
  949MOL0     H28062   0.459   1.343   1.516  1.7499 -0.4074  2.7530
  949MOL0     H28063   0.579   1.451   1.560  0.3959  1.7296 -1.6847
  949MOL0     H28064   0.360   1.564   1.556 -0.0282 -2.4317  0.8055
  949MOL0     H28065   0.329   1.523   1.394 -2.0509  1.9633  0.5049
  949MOL0     H28066   0.627   1.720   1.595 -2.4589 -0.7631  2.0125
  949MOL0     H28067   0.677   2.054   1.415  2.6176  0.6321 -1.7773
  949MOL0     H28068   0.718   1.966   1.559  4.7434 -3.1852  0.7769
  949MOL0     H28069   0.879   1.825   1.416 -2.4540 -0.4873 -0.8953
  949MOL0     H28070   0.937   1.975   1.491 -0.9691 -0.7950  1.6758
  949MOL0     H28071   0.802   1.944   1.215  1.9096 -0.1332 -3.5780
  949MOL0     H28072   0.975   1.929   1.230  0.7429  1.5034  0.1961
  949MOL0     H28073   1.008   2.136   1.327 -0.2609  1.7456 -0.4127
  949MOL0     H28074   0.843   2.179   1.331 -0.5027  0.5769 -1.6405
  949MOL0     H28075   0.897   2.065   0.927 -1.0671 -0.0123  5.4818
  949MOL0     H28076   1.099   2.042   0.642 -1.7811  1.0211 -0.0885
  949MOL0     H28077   1.136   1.902   0.753  4.3776  0.9427  1.2642
  949MOL0     H28078   0.975   1.970   0.739  0.4940  1.7980  0.4300
  949MOL0     H28079   1.570   2.244   0.678 -0.0406  1.0591 -0.9037
  949MOL0     H28080   1.762   2.225   0.529  1.3229 -1.8322 -3.2863
  949MOL0     H28081   1.992   2.046   0.440  2.0243 -2.9157 -1.5359
  949MOL0     H28082   1.891   1.948   0.532  1.2696 -4.0418 -1.8002
  949MOL0     H28083   1.865   1.795   0.341  0.4678 -1.1739 -0.3962
  949MOL0     H28084   2.005   1.883   0.262  0.9441  2.0672  1.4391
  949MOL0     H28085   1.994   1.738   0.534 -1.5895 -1.4232 -1.0441
  949MOL0     H28086   2.138   1.832   0.475 -1.0431  0.0191  0.5431
  949MOL0     H28087   2.056   1.561   0.434  2.2236 -1.6193 -0.0630
  949MOL0     H28088   2.090   1.643   0.280  1.1915 -1.6178 -0.3854
  949MOL0     H28089   2.310   1.724   0.389  0.1679  0.1371  0.9331
  949MOL0     H28090   2.309   1.562   0.345  0.9246 -0.5472  0.4982
  949MOL0     H28091   2.402   1.624   0.573 -0.7177  3.3388 -0.0025
  949MOL0     H28092   2.239   1.636   0.640  1.1846  0.7655  0.3575
  949MOL0     H28093   2.388   1.391   0.548  0.4641  1.5487 -0.4426
  949MOL0     H28094   2.208   1.402   0.552 -0.8952  1.1030 -1.4680
  949MOL0     H28095   2.397   1.451   0.794  1.4220 -3.2587 -0.7051
  949MOL0     H28096   2.327   1.298   0.755  1.2808  0.3996  1.5662
  949MOL0     H28097   1.572   1.892   0.333 -0.2008  0.8371 -0.4002
  949MOL0     H28098   1.393   1.914   0.465 -1.3065  3.1618 -0.7422
  949MOL0     H28099   1.348   2.230   1.051  0.2677 -4.1182  0.2373
  949MOL0     H28100   1.145   2.280   1.195  0.8885 -0.3204 -0.5977
  949MOL0     H28101   1.071   0.877   1.059  0.7955 -0.6952 -1.9408
  949MOL0     H28102   1.299   0.820   1.021 -0.8612  0.4386  4.1378
  949MOL0     H28103   1.781   0.797   1.035 -0.9364  2.4166 -0.4704
  949MOL0     H28104   1.957   0.646   0.927 -0.8251 -0.3831 -0.1399
  949MOL0     H28105   2.021   0.788   0.538  0.5525 -0.1650 -0.8079
  949MOL0     H28106   2.122   0.756   0.679 -1.5441 -1.6173  2.4551
  949MOL0     H28107   2.253   0.712   0.470  1.1109 -1.4065  0.1263
  949MOL0     H28108   2.130   0.602   0.411  1.3463  0.9885 -1.8464
  949MOL0     H28109   2.197   0.431   0.552  0.8308 -0.4912 -0.5810
  949MOL0     H28110   2.259   0.539   0.679  0.4445 -2.2801  0.3905
  949MOL0     H28111   2.414   0.507   0.412  1.0415  0.2310 -0.0424
  949MOL0     H28112   2.456   0.421   0.563 -0.3289  0.6193  1.3786
  949MOL0     H28113   2.615   0.772   0.673  0.0748  0.6289 -0.1989
  949MOL0     H28114   1.766   0.743   0.544 -1.6277 -0.1583 -1.0071
  949MOL0     H28115   1.594   0.860   0.655 -1.7911 -1.4133  1.2871
  950MOL0     O28116   4.972   0.190   6.434 -0.6067 -0.0461  0.3228
  950MOL0     C28117   4.982   0.083   6.373 -1.0396  0.2826 -0.3682
  950MOL0     O28118   4.880   0.009   6.328  0.8620 -0.2586 -0.4422
  950MOL0     C28119   4.742   0.040   6.335  0.1239 -0.0694  0.0924
  950MOL0     C28120   4.680   0.143   6.407 -0.4530 -1.3986  0.0035
  950MOL0     C28121   4.536   0.153   6.397 -0.3639 -0.6565  0.0581
  950MOL0     C28122   4.465   0.070   6.316  0.2077  0.4453  0.1372
  950MOL0     O28123   4.327   0.082   6.301 -0.3823 -0.0394  0.6081
  950MOL0     C28124   4.253   0.026   6.407 -0.3397 -0.0056  0.2754
  950MOL0     C28125   4.109   0.027   6.355 -0.1909 -0.9429 -1.1550
  950MOL0     C28126   4.029  -0.098   6.398 -0.9783 -0.4567 -0.7722
  950MOL0     C28127   4.042  -0.213   6.302  0.2387 -0.2100  0.1491
  950MOL0     C28128   4.018  -0.361   6.350  0.7277  0.1881  0.1621
  950MOL0     C28129   4.045  -0.468   6.252 -0.1250 -0.6807  0.3209
  950MOL0     C28130   3.996  -0.598   6.306 -0.6401  0.6618 -1.2927
  950MOL0     C28131   4.033  -0.719   6.217  0.4259 -0.1529  0.2734
  950MOL0     N28132   4.005  -0.855   6.268 -0.0538  0.1219  0.1426
  950MOL0     C28133   3.887  -0.915   6.260  0.3303 -0.8547  0.5247
  950MOL0     C28134   3.914  -1.042   6.288 -0.1431  0.3632 -0.0569
  950MOL0     C28135   3.791  -1.133   6.317 -0.0313  0.4542  0.0737
  950MOL0     C28136   3.693  -1.138   6.208 -0.6127  0.5383 -0.0895
  950MOL0     C28137   3.587  -1.244   6.237 -0.0994  0.1131  1.3458
  950MOL0     C28138   3.486  -1.189   6.335  0.2919 -0.8621 -0.1649
  950MOL0     O28139   3.439  -1.055   6.305  0.1844 -0.6314  0.4001
  950MOL0     C28140   3.331  -1.007   6.376  0.5154 -0.4091  0.9460
  950MOL0     C28141   3.276  -1.061   6.492 -0.1234  0.6465 -1.4760
  950MOL0     C28142   3.176  -0.992   6.555  0.1860 -0.6116 -0.6829
  950MOL0     C28143   3.119  -1.068   6.674  0.5587  0.0510  0.3373
  950MOL0     C28144   3.113  -0.869   6.502 -0.1534 -0.3886 -0.2486
  950MOL0     C28145   3.006  -0.797   6.577 -1.1360  0.1606  1.1344
  950MOL0     O28146   2.974  -0.827   6.705  0.1637 -0.2133  0.4996
  950MOL0     C28147   2.874  -0.764   6.776  0.0113 -0.6559  0.3272
  950MOL0     C28148   2.732  -0.770   6.727 -0.4207 -0.5436  0.4393
  950MOL0     C28149   2.631  -0.728   6.816 -0.5564 -0.2284 -0.8923
  950MOL0     C28150   2.659  -0.673   6.943  0.1606 -0.1706 -0.5357
  950MOL0     O28151   2.561  -0.630   7.029  0.0508 -0.5788  0.2192
  950MOL0     C28152   2.518  -0.710   7.140 -0.2581  0.1085 -0.2054
  950MOL0     C28153   2.471  -0.855   7.098  0.1223 -0.1521  0.4085
  950MOL0     C28154   2.340  -0.837   7.008  0.9442  0.1447  0.0355
  950MOL0     C28155   2.216  -0.818   7.085  0.3145  0.1464  0.2086
  950MOL0     C28156   2.095  -0.807   6.999  0.3146 -0.7695 -0.5731
  950MOL0     C28157   1.961  -0.778   7.074 -0.3380 -0.3655  0.1107
  950MOL0     C28158   1.861  -0.729   6.967  0.0906 -0.0330  0.1299
  950MOL0     C28159   1.741  -0.674   7.045 -0.2506  0.3331 -0.6654
  950MOL0    Cl28160   1.593  -0.680   6.956  0.0528 -0.1932  0.2887
  950MOL0     C28161   2.795  -0.662   6.981  0.9291 -0.4678 -0.1551
  950MOL0     C28162   2.901  -0.718   6.901  0.9007 -0.5487 -1.4618
  950MOL0     O28163   2.957  -0.705   6.509 -0.2372 -0.5028  0.3585
  950MOL0     C28164   3.170  -0.817   6.388  0.9594 -0.3372 -0.0552
  950MOL0     C28165   3.268  -0.892   6.324 -0.2860 -1.2021  0.2502
  950MOL0     N28166   4.049  -1.066   6.300 -1.2286  0.0639  0.3280
  950MOL0     N28167   4.105  -0.948   6.277  0.1393  0.5864  0.0686
  950MOL0     C28168   4.534  -0.032   6.240  0.2864  0.2014 -0.5496
  950MOL0     C28169   4.669  -0.047   6.248  0.0479  0.7566  0.4795
  950MOL0     C28170   5.126   0.038   6.339 -0.1648 -0.5830  0.9540
  950MOL0     C28171   5.151  -0.068   6.243  0.8016  0.4796 -0.0248
  950MOL0     C28172   5.283  -0.078   6.186  0.1326 -0.0413 -0.3110
  950MOL0     C28173   5.384   0.005   6.229 -0.5336 -1.1969  0.5383
  950MOL0     O28174   5.514   0.009   6.180  0.2425  0.4553  0.4710
  950MOL0     C28175   5.552  -0.080   6.072  0.6324 -0.3246  0.3705
  950MOL0     C28176   5.683  -0.061   6.007 -0.2803 -0.1424  0.3080
  950MOL0     C28177   5.797  -0.063   6.111 -0.9579 -0.3951  0.5595
  950MOL0     C28178   5.928  -0.009   6.051 -0.3336  0.2391 -0.0051
  950MOL0     C28179   6.021   0.047   6.153 -0.4395 -0.4827 -0.6816
  950MOL0     C28180   6.101   0.098   6.232  0.1873  0.3672 -0.2828
  950MOL0     C28181   5.359   0.111   6.318 -0.0216  1.1316 -0.3613
  950MOL0     C28182   5.234   0.120   6.378 -0.6539  0.3964  1.0600
  950MOL0     H28183   4.736   0.219   6.461  0.1356 -0.5025 -1.7802
  950MOL0     H28184   4.492   0.228   6.462 -1.0522  0.0953 -1.2346
  950MOL0     H28185   4.297  -0.071   6.429  2.2584  1.1306  0.4785
  950MOL0     H28186   4.260   0.094   6.493 -0.3076 -1.7256  1.6797
  950MOL0     H28187   4.053   0.113   6.392  1.5137  0.1531 -1.0014
  950MOL0     H28188   4.105   0.044   6.247 -2.6644  0.3640 -0.9263
  950MOL0     H28189   4.038  -0.131   6.502 -5.3586 -0.6396 -0.2460
  950MOL0     H28190   3.923  -0.071   6.404 -0.5819  0.8152  3.4096
  950MOL0     H28191   3.968  -0.191   6.225 -0.3557 -1.3363  0.3811
  950MOL0     H28192   4.144  -0.204   6.263 -0.4590  3.4265 -1.2342
  950MOL0     H28193   4.096  -0.381   6.425  1.8526 -1.5779 -1.3844
  950MOL0     H28194   3.917  -0.361   6.392 -1.9543  4.2753 -5.0931
  950MOL0     H28195   4.006  -0.445   6.152  1.1398 -0.1717 -0.0675
  950MOL0     H28196   4.153  -0.469   6.236 -0.2949 -2.4181 -1.0884
  950MOL0     H28197   4.056  -0.606   6.397 -1.4313 -1.2636 -0.8919
  950MOL0     H28198   3.891  -0.602   6.337 -0.1182  2.0157  0.8459
  950MOL0     H28199   4.136  -0.707   6.183 -0.3194  0.5765 -1.9035
  950MOL0     H28200   3.962  -0.706   6.134  0.3615  0.6169  0.4378
  950MOL0     H28201   3.796  -0.856   6.267  1.2799  0.6330  0.7632
  950MOL0     H28202   3.831  -1.231   6.343 -0.1941  0.6715  1.2057
  950MOL0     H28203   3.759  -1.090   6.413  1.5837  0.4764  0.6268
  950MOL0     H28204   3.752  -1.147   6.116  1.1863 -5.1858  1.2554
  950MOL0     H28205   3.640  -1.046   6.183 -1.9043 -0.4263 -1.0848
  950MOL0     H28206   3.626  -1.341   6.270  1.0495 -0.2992 -0.9905
  950MOL0     H28207   3.524  -1.276   6.153 -0.6307 -0.1022  1.8158
  950MOL0     H28208   3.528  -1.180   6.436 -1.8073  1.5080  0.6060
  950MOL0     H28209   3.401  -1.258   6.344 -2.7883  2.5767 -0.5840
  950MOL0     H28210   3.301  -1.155   6.540 -0.8093  1.6189  0.9492
  950MOL0     H28211   3.167  -1.165   6.695 -0.3924 -0.6439 -0.5753
  950MOL0     H28212   3.133  -1.008   6.764 -0.9516 -0.9129  1.2578
  950MOL0     H28213   3.016  -1.097   6.653  0.3848  1.2643 -0.5469
  950MOL0     H28214   2.707  -0.805   6.627 -3.4140  1.0313  0.5196
  950MOL0     H28215   2.525  -0.719   6.791 -1.2277  1.0379  2.0097
  950MOL0     H28216   2.607  -0.706   7.204 -0.1832  2.4060 -0.3598
  950MOL0     H28217   2.445  -0.663   7.207  1.1432  0.7842  0.9060
  950MOL0     H28218   2.550  -0.911   7.046 -1.2394 -0.7491 -1.0906
  950MOL0     H28219   2.461  -0.904   7.195  3.1279  0.4840  1.1583
  950MOL0     H28220   2.333  -0.925   6.944  0.8109 -0.3036  0.6674
  950MOL0     H28221   2.359  -0.758   6.933  2.7624 -0.0776  0.2167
  950MOL0     H28222   2.198  -0.911   7.141  0.9710  0.3268  0.7310
  950MOL0     H28223   2.221  -0.737   7.159 -0.6714  0.6280 -0.2369
  950MOL0     H28224   2.076  -0.905   6.953  2.6159 -0.4283 -2.4393
  950MOL0     H28225   2.114  -0.734   6.920  0.8540 -1.3763 -1.0172
  950MOL0     H28226   1.921  -0.865   7.126  0.3730 -0.7385  0.0487
  950MOL0     H28227   1.974  -0.698   7.148 -1.2180 -1.6827  1.7700
  950MOL0     H28228   1.841  -0.813   6.900  1.3806 -1.0919  1.0213
  950MOL0     H28229   1.911  -0.654   6.905  0.9883 -1.1475 -0.5144
  950MOL0     H28230   1.760  -0.567   7.060 -2.4621  0.8521 -1.1890
  950MOL0     H28231   1.722  -0.731   7.136 -1.0776 -1.5785 -1.9824
  950MOL0     H28232   2.824  -0.642   7.083 -0.7817 -0.3291  0.3376
  950MOL0     H28233   3.000  -0.719   6.945 -0.1095  0.8179  1.0682
  950MOL0     H28234   3.134  -0.727   6.339  0.2610 -0.8401 -0.4868
  950MOL0     H28235   3.317  -0.871   6.229  0.3327  2.8741  1.2649
  950MOL0     H28236   4.471  -0.108   6.193 -1.6584  0.2163  1.7855
  950MOL0     H28237   4.725  -0.127   6.201  0.6648  0.7108  1.2640
  950MOL0     H28238   5.077  -0.131   6.195  2.4108  0.3485 -2.5231
  950MOL0     H28239   5.296  -0.150   6.107 -0.5046  1.2452 -1.6415
  950MOL0     H28240   5.571  -0.168   6.134  2.0844  0.9815  1.9099
  950MOL0     H28241   5.473  -0.079   5.996  2.6311  0.1538 -1.8230
  950MOL0     H28242   5.677   0.032   5.950 -0.8273  0.2485  0.9836
  950MOL0     H28243   5.714  -0.144   5.944 -1.3313  0.8125 -1.5603
  950MOL0     H28244   5.809  -0.169   6.138  1.2233 -0.3985 -0.2110
  950MOL0     H28245   5.775  -0.014   6.206  0.7859 -0.9987  1.3225
  950MOL0     H28246   5.908   0.060   5.969 -0.1858  2.6860  1.9163
  950MOL0     H28247   5.975  -0.098   6.007 -2.0298 -0.6805 -0.0245
  950MOL0     H28248   6.160   0.140   6.312  0.8983  1.2903 -1.2689
  950MOL0     H28249   5.446   0.173   6.341 -1.8836  3.2438  1.5710
  950MOL0     H28250   5.218   0.196   6.454 -0.4303  0.1128  1.3955
  951MOL0     O28251   7.909   5.035   7.627  0.5881  0.0466  0.0834
  951MOL0     C28252   7.940   4.932   7.581 -0.0718 -0.5899 -0.1603
  951MOL0     O28253   7.854   4.829   7.562 -0.2953 -0.0303  0.4474
  951MOL0     C28254   7.722   4.819   7.590  0.0462 -0.1609 -0.6870
  951MOL0     C28255   7.661   4.687   7.592  0.5706 -0.5548  0.5753
  951MOL0     C28256   7.531   4.680   7.631  1.7479 -0.1411  0.5012
  951MOL0     C28257   7.455   4.796   7.651  1.5162 -0.7491  0.1752
  951MOL0     O28258   7.325   4.774   7.686 -0.0036  0.9401 -0.1854
  951MOL0     C28259   7.226   4.874   7.676  0.0216 -0.0789 -0.2335
  951MOL0     C28260   7.093   4.810   7.668  0.3027  0.3643  1.0187
  951MOL0     C28261   7.075   4.675   7.741 -0.1334 -0.0507 -0.6211
  951MOL0     C28262   6.932   4.622   7.726  0.7719 -0.8502 -0.6443
  951MOL0     C28263   6.910   4.494   7.810  0.0014  0.0932  0.2396
  951MOL0     C28264   6.776   4.470   7.874 -0.0765 -0.4381 -0.4772
  951MOL0     C28265   6.671   4.460   7.762  0.3913  0.4099  0.7100
  951MOL0     C28266   6.542   4.383   7.807 -0.8493 -0.9099 -0.8645
  951MOL0     N28267   6.431   4.412   7.718 -0.2812  0.0016  0.3450
  951MOL0     C28268   6.308   4.451   7.761  0.0021 -0.3156  0.0333
  951MOL0     C28269   6.243   4.484   7.650  0.5808 -0.0531 -0.0344
  951MOL0     C28270   6.099   4.531   7.641 -0.0473  0.0865 -0.2953
  951MOL0     C28271   6.050   4.602   7.516 -0.1233  0.4703 -0.3210
  951MOL0     C28272   5.919   4.686   7.532  0.6717 -0.9446 -0.0953
  951MOL0     C28273   5.814   4.594   7.587 -0.8624  0.0941  0.6057
  951MOL0     O28274   5.697   4.675   7.608 -0.1278 -0.6260 -0.3364
  951MOL0     C28275   5.595   4.606   7.653 -0.4271  0.6252 -0.5099
  951MOL0     C28276   5.473   4.666   7.639 -0.1446 -0.0092  0.1453
  951MOL0     C28277   5.345   4.609   7.651 -0.2576  0.5702 -0.2172
  951MOL0     C28278   5.214   4.689   7.610 -0.3544  0.8096 -0.6895
  951MOL0     C28279   5.338   4.482   7.716  0.1192 -0.5747  0.0003
  951MOL0     C28280   5.212   4.407   7.750  0.0574  0.6833  0.8398
  951MOL0     O28281   5.234   4.275   7.768 -0.1578  0.9093 -0.3123
  951MOL0     C28282   5.135   4.195   7.805  0.8338  0.6132  0.0749
  951MOL0     C28283   5.074   4.211   7.928  0.2494 -0.1152 -0.3349
  951MOL0     C28284   4.956   4.147   7.955 -0.6195  0.6719  0.0015
  951MOL0     C28285   4.904   4.046   7.868 -0.1710 -0.3864 -0.2970
  951MOL0     O28286   4.783   3.992   7.909  0.3487 -0.4172  0.2332
  951MOL0     C28287   4.770   3.850   7.923  0.1997  0.6186  0.3226
  951MOL0     C28288   4.713   3.787   7.796  0.1984  0.1273 -0.5247
  951MOL0     C28289   4.572   3.832   7.754 -0.0223  0.9124 -0.0066
  951MOL0     C28290   4.477   3.764   7.855  0.1850  0.5989  0.3823
  951MOL0     C28291   4.331   3.783   7.798  0.2357  0.0388 -0.1518
  951MOL0     C28292   4.219   3.735   7.895  0.5660  0.4879  0.3552
  951MOL0     C28293   4.081   3.755   7.824 -0.0465  0.7340 -0.4533
  951MOL0     C28294   3.991   3.646   7.878  0.5172 -0.4389  0.7106
  951MOL0    Cl28295   3.984   3.648   8.056 -0.1625 -0.6657  0.1521
  951MOL0     C28296   4.976   4.013   7.752  0.3641 -0.3852  0.6958
  951MOL0     C28297   5.091   4.091   7.720 -0.1086  0.1845  0.4955
  951MOL0     O28298   5.103   4.460   7.762  0.0222 -0.0036  0.0662
  951MOL0     C28299   5.469   4.425   7.750 -0.7809  0.1574 -0.0806
  951MOL0     C28300   5.595   4.480   7.718  0.6402  0.3886 -1.0788
  951MOL0     N28301   6.322   4.477   7.541  0.3401  1.1916  0.4718
  951MOL0     N28302   6.436   4.421   7.579 -0.5681  0.1757 -0.7919
  951MOL0     C28303   7.508   4.930   7.640  0.0907 -0.1939  0.0804
  951MOL0     C28304   7.644   4.936   7.610  0.4367 -0.6979 -0.1930
  951MOL0     C28305   8.087   4.907   7.542 -0.2476  0.2355  0.0660
  951MOL0     C28306   8.141   4.782   7.569  0.1140  0.7116  0.0644
  951MOL0     C28307   8.274   4.753   7.525  0.2169 -0.3696 -0.4758
  951MOL0     C28308   8.360   4.845   7.471 -0.2436  0.4793 -0.5547
  951MOL0     O28309   8.488   4.806   7.433  0.6710  0.5338 -0.0640
  951MOL0     C28310   8.575   4.910   7.381  0.6040 -0.2069  0.4124
  951MOL0     C28311   8.711   4.890   7.440 -0.0781  0.5749 -0.3577
  951MOL0     C28312   8.814   5.010   7.405 -0.0735 -0.0512 -0.0070
  951MOL0     C28313   8.941   5.005   7.489  0.8355  0.2889  0.1622
  951MOL0     C28314   8.922   5.039   7.627 -0.3561 -0.2351  0.3321
  951MOL0     C28315   8.901   5.057   7.745  0.6977 -0.3253 -0.4205
  951MOL0     C28316   8.310   4.972   7.460 -0.1524 -1.1763  0.3333
  951MOL0     C28317   8.174   5.001   7.490  0.1041  0.4373  0.0573
  951MOL0     H28318   7.716   4.596   7.569  4.6597  1.6360  0.7696
  951MOL0     H28319   7.484   4.583   7.631  3.7579 -1.1634 -0.0647
  951MOL0     H28320   7.237   4.954   7.749 -1.0052  0.9286 -1.1439
  951MOL0     H28321   7.248   4.924   7.581  0.9440 -1.1298 -0.6039
  951MOL0     H28322   7.022   4.882   7.711  2.5978  2.6407  1.2599
  951MOL0     H28323   7.078   4.791   7.561  1.0852  0.1600  0.9371
  951MOL0     H28324   7.135   4.596   7.695 -0.6734  0.2034 -1.7916
  951MOL0     H28325   7.105   4.680   7.846 -4.2248  0.3064  0.7253
  951MOL0     H28326   6.874   4.704   7.769  0.4783 -1.3863  0.0014
  951MOL0     H28327   6.901   4.599   7.624 -0.0631 -1.8397 -0.1822
  951MOL0     H28328   6.922   4.415   7.735 -0.1876  1.7535 -1.6397
  951MOL0     H28329   6.981   4.477   7.892  1.2590 -0.1926 -0.8628
  951MOL0     H28330   6.783   4.387   7.944  0.4481  1.8366  2.3180
  951MOL0     H28331   6.755   4.560   7.932 -2.3148 -1.8932  1.1381
  951MOL0     H28332   6.642   4.563   7.743  1.1173  1.7680  5.5894
  951MOL0     H28333   6.707   4.417   7.668 -2.2455  0.7089 -0.5215
  951MOL0     H28334   6.512   4.424   7.904  0.2889 -0.7859 -0.5441
  951MOL0     H28335   6.539   4.275   7.822 -1.0083 -0.9849 -1.4441
  951MOL0     H28336   6.277   4.457   7.865  1.4368  2.4861  0.3738
  951MOL0     H28337   6.040   4.443   7.666 -0.5250  1.0523  2.4001
  951MOL0     H28338   6.081   4.604   7.721 -0.1986  0.7451 -0.9180
  951MOL0     H28339   6.040   4.516   7.449  0.2312 -0.5498  0.9168
  951MOL0     H28340   6.130   4.665   7.474  2.1224 -1.9940 -0.0339
  951MOL0     H28341   5.884   4.717   7.433  0.5942  1.1867  0.5311
  951MOL0     H28342   5.932   4.775   7.595 -0.9963 -0.7565  0.0117
  951MOL0     H28343   5.852   4.542   7.676  0.9788 -3.1837 -1.8357
  951MOL0     H28344   5.798   4.511   7.517  1.1834  1.5371 -1.6959
  951MOL0     H28345   5.473   4.765   7.594  1.4789  0.6766  1.5505
  951MOL0     H28346   5.126   4.638   7.569 -0.8522  0.7038  0.4720
  951MOL0     H28347   5.175   4.715   7.708 -0.6994  0.4814 -0.7358
  951MOL0     H28348   5.232   4.785   7.562 -2.5915  1.0543 -1.1175
  951MOL0     H28349   5.101   4.296   7.990  0.2911 -1.6742  1.8865
  951MOL0     H28350   4.902   4.173   8.045  0.1608 -2.0364  1.3799
  951MOL0     H28351   4.862   3.798   7.952 -0.1186 -0.3111 -0.2797
  951MOL0     H28352   4.711   3.827   8.012 -0.7754 -3.5729 -1.1793
  951MOL0     H28353   4.793   3.804   7.723 -0.1818  0.7204 -0.8208
  951MOL0     H28354   4.707   3.682   7.825 -1.0615  0.3913  0.2835
  951MOL0     H28355   4.554   3.797   7.652  1.1114 -1.0237  0.4029
  951MOL0     H28356   4.559   3.940   7.760 -0.5424  0.8605 -0.1385
  951MOL0     H28357   4.496   3.657   7.861 -4.6731 -0.4717  0.7739
  951MOL0     H28358   4.486   3.807   7.956  0.2877  0.2443  0.5241
  951MOL0     H28359   4.319   3.732   7.702 -0.7615 -0.2459  0.1091
  951MOL0     H28360   4.317   3.890   7.780 -1.4819  0.2223  1.7973
  951MOL0     H28361   4.237   3.630   7.921  1.7763  0.4522 -0.5766
  951MOL0     H28362   4.230   3.789   7.990  2.9227 -0.1662  0.5008
  951MOL0     H28363   4.080   3.748   7.715  0.8803  1.2660 -0.5059
  951MOL0     H28364   4.056   3.860   7.844  2.6178  1.7303 -1.8757
  951MOL0     H28365   4.024   3.554   7.828  4.2683  2.1235 -2.1159
  951MOL0     H28366   3.890   3.656   7.839  0.9424 -0.9359 -0.5816
  951MOL0     H28367   4.937   3.945   7.678  0.6959  0.2460 -0.0726
  951MOL0     H28368   5.152   4.092   7.631  0.2950  0.1321  0.7674
  951MOL0     H28369   5.475   4.329   7.800  2.9997  0.7193  0.8720
  951MOL0     H28370   5.690   4.432   7.741 -0.2994 -0.7696  0.5707
  951MOL0     H28371   7.448   5.020   7.650 -1.7313 -1.5174  1.8839
  951MOL0     H28372   7.683   5.038   7.607  0.1165 -0.3082  3.5503
  951MOL0     H28373   8.095   4.700   7.624 -0.6839  0.5272 -0.8372
  951MOL0     H28374   8.308   4.651   7.530  1.3384  0.0706  2.7580
  951MOL0     H28375   8.587   4.905   7.272  2.8410 -2.5524  0.6679
  951MOL0     H28376   8.542   5.012   7.403 -0.1007 -0.5024  0.7306
  951MOL0     H28377   8.742   4.788   7.414 -0.3973  0.5075 -0.4772
  951MOL0     H28378   8.697   4.882   7.548 -0.4269  2.2468 -0.2665
  951MOL0     H28379   8.768   5.102   7.441  2.0424  0.7446  0.8631
  951MOL0     H28380   8.833   5.013   7.297 -3.3878  1.0068 -0.6629
  951MOL0     H28381   9.021   5.071   7.455  1.3267  0.6230  1.8456
  951MOL0     H28382   8.972   4.900   7.478 -0.0661  0.1974 -2.0161
  951MOL0     H28383   8.889   5.075   7.850  1.2906  0.3849 -0.4640
  951MOL0     H28384   8.363   5.060   7.424 -1.0950 -1.4893 -2.0416
  951MOL0     H28385   8.130   5.101   7.487  0.3407  0.5181 -2.3284
  952MOL0     O28386   3.833   7.284   0.167 -0.0449  0.1369 -0.0408
  952MOL0     C28387   3.901   7.390   0.158 -0.7069  0.5654 -0.7883
  952MOL0     O28388   4.041   7.390   0.145  0.7284  0.0729  0.0435
  952MOL0     C28389   4.112   7.280   0.177  0.8347 -0.1938  0.5133
  952MOL0     C28390   4.232   7.264   0.111 -0.4149 -0.1786 -0.9232
  952MOL0     C28391   4.312   7.151   0.132 -0.7364  0.0689 -0.4387
  952MOL0     C28392   4.290   7.073   0.239  0.0256  0.2222  0.4945
  952MOL0     O28393   4.396   6.999   0.281 -0.1631 -0.6514  0.0639
  952MOL0     C28394   4.411   6.961   0.414 -0.1611  0.3344  0.0737
  952MOL0     C28395   4.553   6.900   0.400  0.0676 -0.0366 -0.1578
  952MOL0     C28396   4.605   6.853   0.541  0.2779 -0.0333  0.0267
  952MOL0     C28397   4.753   6.808   0.526 -0.0752 -0.7344  0.2392
  952MOL0     C28398   4.806   6.779   0.668 -0.2132 -0.1285  0.7362
  952MOL0     C28399   4.928   6.692   0.665  0.1762  0.1765 -0.3356
  952MOL0     C28400   4.971   6.658   0.808  0.4243  0.0380  0.0077
  952MOL0     C28401   5.098   6.584   0.798 -0.6064 -0.4882  0.0560
  952MOL0     N28402   5.151   6.550   0.929 -0.2143 -1.0246 -1.2076
  952MOL0     C28403   5.283   6.529   0.963  0.8202  0.3005 -0.6545
  952MOL0     C28404   5.274   6.487   1.095  0.1821  0.9078  0.3826
  952MOL0     C28405   5.376   6.445   1.206 -0.3598 -1.3307  0.7335
  952MOL0     C28406   5.373   6.550   1.322  0.2484  0.3642  0.1614
  952MOL0     C28407   5.466   6.509   1.443  0.0210  0.8557  0.3398
  952MOL0     C28408   5.612   6.499   1.402 -0.9190 -0.1959  0.6831
  952MOL0     O28409   5.676   6.635   1.387 -1.1555  0.4186  0.3503
  952MOL0     C28410   5.805   6.657   1.424  0.1988  0.5927 -0.2471
  952MOL0     C28411   5.853   6.788   1.424 -0.7747  0.0607 -0.3971
  952MOL0     C28412   5.979   6.835   1.468 -0.0656  0.5002 -0.4747
  952MOL0     C28413   5.993   6.983   1.467 -0.1239 -0.4840 -0.0654
  952MOL0     C28414   6.071   6.735   1.518  1.1788  0.2220 -0.1968
  952MOL0     C28415   6.196   6.763   1.592  0.1139 -0.9978  0.1703
  952MOL0     O28416   6.279   6.661   1.611 -0.0677  0.0188 -0.3792
  952MOL0     C28417   6.412   6.682   1.641 -0.0720  0.2361 -0.6983
  952MOL0     C28418   6.479   6.571   1.689  0.2510 -0.4713 -0.0284
  952MOL0     C28419   6.619   6.567   1.705  0.3687  0.9260  0.4360
  952MOL0     C28420   6.696   6.681   1.670  0.9971  1.0684 -0.9262
  952MOL0     O28421   6.829   6.678   1.697  0.0385  0.7708 -0.0929
  952MOL0     C28422   6.909   6.752   1.603 -0.5035  0.3095  0.1186
  952MOL0     C28423   7.036   6.674   1.597 -0.4555 -0.3195 -0.0449
  952MOL0     C28424   7.158   6.760   1.562 -0.3436 -0.8187 -0.5493
  952MOL0     C28425   7.277   6.670   1.549  0.4555  0.1238 -0.0763
  952MOL0     C28426   7.400   6.757   1.516  0.5682 -0.0143 -0.3846
  952MOL0     C28427   7.528   6.675   1.519  0.5882  0.3401  0.0969
  952MOL0     C28428   7.543   6.581   1.405 -0.0660 -0.4982 -0.3282
  952MOL0     C28429   7.686   6.531   1.368  0.0343  0.0478 -0.2136
  952MOL0    Cl28430   7.753   6.433   1.503  0.2886 -0.0832 -0.0089
  952MOL0     C28431   6.626   6.803   1.635 -0.1416  0.5046  0.9343
  952MOL0     C28432   6.489   6.804   1.622  0.0832  0.0130 -0.3486
  952MOL0     O28433   6.209   6.874   1.644  0.1715 -0.8308 -0.3290
  952MOL0     C28434   6.027   6.593   1.502  0.7874  0.0491  0.1145
  952MOL0     C28435   5.895   6.561   1.467 -0.3508  0.2369  0.7582
  952MOL0     N28436   5.140   6.477   1.129 -0.7355 -0.0076  1.0428
  952MOL0     N28437   5.069   6.499   1.023  0.0488  0.0925 -0.1192
  952MOL0     C28438   4.176   7.089   0.315 -1.2670 -0.1090 -0.3991
  952MOL0     C28439   4.084   7.190   0.279  0.8421  0.0554  0.2998
  952MOL0     C28440   3.843   7.523   0.159  0.4252  0.1044  0.3088
  952MOL0     C28441   3.912   7.641   0.115 -0.1843  0.1511 -0.3522
  952MOL0     C28442   3.849   7.771   0.111  0.2155  0.6194 -0.0644
  952MOL0     C28443   3.719   7.795   0.165  0.1577  0.0728  0.3351
  952MOL0     O28444   3.669   7.923   0.154  0.7550 -0.4065 -0.4465
  952MOL0     C28445   3.529   7.935   0.172 -0.2007 -0.6649  1.0159
  952MOL0     C28446   3.501   7.944   0.318 -0.7177 -0.0038  0.3030
  952MOL0     C28447   3.538   8.077   0.377 -1.0635 -0.6503  0.6181
  952MOL0     C28448   3.452   8.195   0.348  0.8802 -1.1487  0.2831
  952MOL0     C28449   3.317   8.171   0.406 -0.0696 -0.4701  0.5097
  952MOL0     C28450   3.201   8.165   0.432  0.3364  0.2825 -0.1244
  952MOL0     C28451   3.662   7.676   0.219 -0.2915 -1.1716  0.0491
  952MOL0     C28452   3.712   7.549   0.216 -0.2904  0.9513  0.3682
  952MOL0     H28453   4.259   7.345   0.043 -3.4128  3.6926  2.0189
  952MOL0     H28454   4.403   7.146   0.074 -1.1403  1.0407 -1.1885
  952MOL0     H28455   4.411   7.047   0.482 -1.5613 -1.8823  3.1251
  952MOL0     H28456   4.341   6.887   0.453  0.7676 -0.1051  0.9849
  952MOL0     H28457   4.562   6.807   0.343  2.8413 -1.6790  2.6004
  952MOL0     H28458   4.625   6.978   0.374  0.6306  1.1137  4.0740
  952MOL0     H28459   4.598   6.936   0.611 -0.4842  2.0762 -2.3712
  952MOL0     H28460   4.549   6.765   0.576 -0.3861 -0.2478 -1.4847
  952MOL0     H28461   4.761   6.712   0.474 -1.3939 -0.9613  0.4312
  952MOL0     H28462   4.818   6.879   0.473  2.9663 -2.8092  0.9359
  952MOL0     H28463   4.823   6.875   0.718  1.0151  0.2104 -0.2683
  952MOL0     H28464   4.728   6.725   0.722 -1.0811  0.8486  0.4787
  952MOL0     H28465   4.905   6.595   0.619 -0.5478  0.0493  0.2856
  952MOL0     H28466   5.000   6.756   0.613 -1.3654  1.1604 -1.3398
  952MOL0     H28467   4.986   6.745   0.872  0.0648 -0.5546  0.9042
  952MOL0     H28468   4.893   6.600   0.858 -1.6642  0.3796 -2.5903
  952MOL0     H28469   5.174   6.635   0.739 -1.6469 -1.4552 -2.2252
  952MOL0     H28470   5.067   6.494   0.744  0.0239  0.9716 -2.9685
  952MOL0     H28471   5.374   6.549   0.907  1.2114  1.4347  0.3542
  952MOL0     H28472   5.352   6.342   1.233 -1.9410 -1.4998 -1.1597
  952MOL0     H28473   5.476   6.449   1.162 -0.2930  1.6414  0.9225
  952MOL0     H28474   5.271   6.543   1.363  1.4628 -2.1145  3.2038
  952MOL0     H28475   5.393   6.650   1.283  1.2981 -0.0920 -0.5117
  952MOL0     H28476   5.447   6.407   1.479 -1.7388  1.4808  1.3272
  952MOL0     H28477   5.453   6.578   1.527  0.9869  2.7928 -1.0419
  952MOL0     H28478   5.627   6.434   1.315 -0.4380  0.4879  0.2501
  952MOL0     H28479   5.665   6.451   1.485  0.0292 -2.5475 -1.1389
  952MOL0     H28480   5.783   6.868   1.406 -2.1843 -1.0011  0.1756
  952MOL0     H28481   5.960   7.028   1.373 -0.6424  0.9692  0.7899
  952MOL0     H28482   5.926   7.017   1.546  0.1105 -2.2636  0.9626
  952MOL0     H28483   6.093   7.015   1.497 -0.2362 -0.5689  0.3949
  952MOL0     H28484   6.436   6.475   1.715  0.8930 -0.3629  1.5352
  952MOL0     H28485   6.676   6.480   1.734 -0.3557  0.2059 -0.2528
  952MOL0     H28486   6.877   6.753   1.499  2.4517 -3.4534 -1.0999
  952MOL0     H28487   6.933   6.852   1.640  2.9439 -0.8631  1.5040
  952MOL0     H28488   7.052   6.646   1.701 -1.1738  1.3295  0.5386
  952MOL0     H28489   7.031   6.584   1.535 -2.0354  0.5933 -1.3303
  952MOL0     H28490   7.185   6.823   1.647 -2.1342 -3.7567  2.4883
  952MOL0     H28491   7.141   6.814   1.468 -4.4838 -2.0454 -0.7334
  952MOL0     H28492   7.286   6.615   1.643  0.7252 -1.2417 -0.8675
  952MOL0     H28493   7.272   6.589   1.476 -1.4762  0.4619 -0.3759
  952MOL0     H28494   7.411   6.840   1.587  2.0926 -0.5824  0.0928
  952MOL0     H28495   7.390   6.807   1.418  0.5675 -1.2613 -1.0367
  952MOL0     H28496   7.622   6.730   1.524  1.6221 -1.4598  2.0456
  952MOL0     H28497   7.530   6.613   1.609 -2.1273 -3.4900 -2.2038
  952MOL0     H28498   7.502   6.612   1.308  0.1485 -1.1557 -0.6289
  952MOL0     H28499   7.498   6.490   1.445 -1.6425  1.4174  2.7128
  952MOL0     H28500   7.758   6.611   1.348  2.5895 -2.0112  0.2683
  952MOL0     H28501   7.673   6.463   1.284 -2.8411 -2.1324  1.7704
  952MOL0     H28502   6.670   6.901   1.622 -1.4647  1.5889  3.7386
  952MOL0     H28503   6.432   6.892   1.594  1.2890  0.6425 -0.9088
  952MOL0     H28504   6.097   6.515   1.529  2.1417  1.5665  1.2545
  952MOL0     H28505   5.867   6.456   1.473 -0.1469  0.1988  1.0678
  952MOL0     H28506   4.160   7.039   0.410 -0.4049  1.2918  0.5343
  952MOL0     H28507   3.997   7.202   0.343 -0.9091 -3.6639 -1.0798
  952MOL0     H28508   4.012   7.647   0.072 -0.5013  0.4379 -1.0685
  952MOL0     H28509   3.909   7.846   0.059  0.6221  1.0761  1.0335
  952MOL0     H28510   3.496   8.028   0.126  1.5057 -0.3886  0.2573
  952MOL0     H28511   3.474   7.846   0.140 -3.3395  0.2495  3.3825
  952MOL0     H28512   3.554   7.864   0.372 -1.1388 -2.4734 -2.6746
  952MOL0     H28513   3.392   7.945   0.327 -0.8765 -0.0470 -1.3078
  952MOL0     H28514   3.640   8.105   0.347 -1.5800  2.1492  1.2140
  952MOL0     H28515   3.538   8.060   0.485 -0.4129 -1.5777  0.4872
  952MOL0     H28516   3.432   8.207   0.241 -0.5921  1.0962  0.7356
  952MOL0     H28517   3.489   8.290   0.387 -0.4961 -0.6690  0.4841
  952MOL0     H28518   3.095   8.158   0.442  0.4940 -0.5657  1.2214
  952MOL0     H28519   3.560   7.679   0.257 -0.3799 -1.6464 -0.1443
  952MOL0     H28520   3.667   7.458   0.256  2.2867 -0.4155  0.3372
  953MOL0     O28521   7.697   8.723   9.207  0.5567 -0.0290 -0.0418
  953MOL0     C28522   7.593   8.761   9.137 -0.5853  0.6925 -0.7417
  953MOL0     O28523   7.595   8.785   9.004  0.6064  0.7556 -0.0841
  953MOL0     C28524   7.704   8.739   8.931 -0.6552 -0.7426 -0.7486
  953MOL0     C28525   7.713   8.608   8.886  0.2130  0.1654  0.1963
  953MOL0     C28526   7.830   8.557   8.826  0.3447  0.3660  1.5311
  953MOL0     C28527   7.943   8.639   8.819 -0.0027 -0.4082  0.4672
  953MOL0     O28528   8.061   8.599   8.776  0.1161  0.3555 -0.2979
  953MOL0     C28529   8.066   8.484   8.691  0.2082 -0.3339  0.9128
  953MOL0     C28530   8.192   8.465   8.611  0.2582  0.0692 -0.0975
  953MOL0     C28531   8.313   8.468   8.714 -0.3306  0.0007 -0.4961
  953MOL0     C28532   8.444   8.454   8.635  0.2544 -0.4237 -0.0933
  953MOL0     C28533   8.572   8.444   8.725  0.1875  0.1800  0.0919
  953MOL0     C28534   8.704   8.492   8.657 -0.9680 -0.4236  0.1740
  953MOL0     C28535   8.709   8.648   8.637 -0.5271  0.6900 -0.1252
  953MOL0     C28536   8.780   8.735   8.740  0.5139  0.1541 -0.4638
  953MOL0     N28537   8.730   8.715   8.870  0.0281 -0.0166 -0.2431
  953MOL0     C28538   8.613   8.778   8.930 -0.3190 -0.5823  0.2459
  953MOL0     C28539   8.604   8.732   9.058 -0.4156 -0.9819  0.4935
  953MOL0     C28540   8.488   8.753   9.147  0.2612 -0.1429  0.1300
  953MOL0     C28541   8.363   8.672   9.108 -0.0166 -0.5201 -0.5542
  953MOL0     C28542   8.241   8.729   9.170  0.7988  0.0112  0.9721
  953MOL0     C28543   8.118   8.630   9.172  0.4276  0.8397  0.6225
  953MOL0     O28544   8.167   8.496   9.227  0.9873 -0.1454  0.3485
  953MOL0     C28545   8.083   8.380   9.228 -0.2052 -0.8963  0.0643
  953MOL0     C28546   7.962   8.375   9.160  0.5708  0.2212 -0.5627
  953MOL0     C28547   7.885   8.253   9.164  0.5481 -0.1055 -0.8694
  953MOL0     C28548   7.737   8.257   9.106  0.2606 -0.3855  0.3515
  953MOL0     C28549   7.933   8.131   9.210 -0.5853  0.2663  0.0395
  953MOL0     C28550   7.857   8.003   9.208  0.7021 -0.1308 -0.0825
  953MOL0     O28551   7.922   7.892   9.260 -0.0037 -0.1292  0.1379
  953MOL0     C28552   7.857   7.770   9.265  0.6841  0.5010  0.3557
  953MOL0     C28553   7.742   7.743   9.346  0.1945 -0.4110  0.7343
  953MOL0     C28554   7.680   7.619   9.333 -0.9500  0.6048 -0.4761
  953MOL0     C28555   7.742   7.509   9.272 -0.2977  0.0521  0.1832
  953MOL0     O28556   7.704   7.381   9.278 -0.2404  0.3407  0.0043
  953MOL0     C28557   7.583   7.344   9.337  0.0248  0.1191 -0.5372
  953MOL0     C28558   7.604   7.191   9.361  0.2893  0.3632 -0.4930
  953MOL0     C28559   7.494   7.137   9.454  0.5528  0.9452  0.4082
  953MOL0     C28560   7.354   7.164   9.417 -0.0038  0.0078 -0.3447
  953MOL0     C28561   7.248   7.095   9.510  0.2343  0.0573 -0.2257
  953MOL0     C28562   7.117   7.164   9.480  0.1060  0.2950 -0.3228
  953MOL0     C28563   7.001   7.108   9.563 -0.2598  0.4713 -0.3186
  953MOL0     C28564   7.023   7.117   9.714 -0.5449 -0.0560 -0.0967
  953MOL0    Cl28565   6.866   7.155   9.806 -0.3668 -0.2573  0.2508
  953MOL0     C28566   7.855   7.533   9.192  1.0726  0.1340 -0.3443
  953MOL0     C28567   7.910   7.665   9.188 -0.1530  0.4904 -0.1034
  953MOL0     O28568   7.738   8.001   9.179  0.5624  0.4861  0.3888
  953MOL0     C28569   8.062   8.146   9.274 -0.0254 -0.3315 -0.1107
  953MOL0     C28570   8.133   8.262   9.276 -0.2408  0.1360 -0.2516
  953MOL0     N28571   8.712   8.645   9.084  0.2743 -0.5793 -0.0113
  953MOL0     N28572   8.783   8.641   8.973 -0.4745 -0.3053 -0.4004
  953MOL0     C28573   7.930   8.772   8.846  0.4611  0.5635  0.4005
  953MOL0     C28574   7.814   8.820   8.906 -0.8447  0.8080  0.6987
  953MOL0     C28575   7.478   8.811   9.209 -0.2092  0.3570 -0.0177
  953MOL0     C28576   7.387   8.890   9.148  0.0014  0.6797 -0.6217
  953MOL0     C28577   7.275   8.945   9.220 -0.4863  0.4190 -0.0304
  953MOL0     C28578   7.262   8.924   9.358 -0.3619  0.5635  0.9469
  953MOL0     O28579   7.146   8.982   9.416  0.0321 -0.1395  0.6762
  953MOL0     C28580   7.159   9.126   9.437  0.0930  0.3633 -0.1491
  953MOL0     C28581   7.169   9.155   9.586  0.0690  0.1581  0.2338
  953MOL0     C28582   7.036   9.123   9.653  0.5020  0.8580 -0.1341
  953MOL0     C28583   6.945   9.249   9.645 -0.6005 -0.4420 -0.1266
  953MOL0     C28584   6.809   9.203   9.658  0.6955  0.0829 -0.5490
  953MOL0     C28585   6.695   9.158   9.675 -0.2581  0.3069 -0.0863
  953MOL0     C28586   7.361   8.847   9.427  0.0507 -0.3433 -0.2180
  953MOL0     C28587   7.469   8.792   9.348 -1.1545  0.6177 -0.2349
  953MOL0     H28588   7.627   8.545   8.904 -0.4635  0.3581 -2.0643
  953MOL0     H28589   7.847   8.454   8.797 -1.0559  0.3386  0.7426
  953MOL0     H28590   8.043   8.402   8.760 -2.5754  0.6758  1.3423
  953MOL0     H28591   7.984   8.504   8.621 -0.4601  0.1989  1.8248
  953MOL0     H28592   8.201   8.378   8.545 -1.6358 -1.3436  1.3903
  953MOL0     H28593   8.201   8.555   8.550  0.2006  0.6721  0.7731
  953MOL0     H28594   8.330   8.559   8.772  2.5361  0.3080 -1.6739
  953MOL0     H28595   8.301   8.378   8.775  0.0082  0.1994 -0.1373
  953MOL0     H28596   8.429   8.363   8.577 -3.6264 -0.6480  0.9777
  953MOL0     H28597   8.462   8.532   8.560  0.9641 -0.5799 -0.0948
  953MOL0     H28598   8.559   8.503   8.816  0.1023 -0.1827  0.3131
  953MOL0     H28599   8.571   8.341   8.762  0.7432 -0.0426 -0.4957
  953MOL0     H28600   8.794   8.459   8.709  0.4911 -0.3765 -2.1884
  953MOL0     H28601   8.721   8.443   8.561  1.3837 -1.0391  0.8507
  953MOL0     H28602   8.748   8.666   8.536 -0.3754 -1.6590 -0.5301
  953MOL0     H28603   8.611   8.697   8.632 -0.5772  0.7171  0.9390
  953MOL0     H28604   8.766   8.840   8.714  1.2987  0.0191 -1.5030
  953MOL0     H28605   8.884   8.703   8.729  0.6971  0.2148  0.9882
  953MOL0     H28606   8.532   8.826   8.876 -1.1775 -2.1941  0.0215
  953MOL0     H28607   8.519   8.723   9.248 -1.8536 -0.7659  0.6658
  953MOL0     H28608   8.464   8.859   9.147 -3.8689 -0.8849 -1.5544
  953MOL0     H28609   8.380   8.573   9.150 -1.9912 -1.2929 -1.4572
  953MOL0     H28610   8.343   8.661   9.001  1.7707  0.4267 -1.0324
  953MOL0     H28611   8.214   8.822   9.119  0.1552 -1.0477 -0.6845
  953MOL0     H28612   8.256   8.767   9.272  0.4843  0.2504  0.9297
  953MOL0     H28613   8.105   8.596   9.069  2.5272 -2.3226  1.2552
  953MOL0     H28614   8.030   8.668   9.225 -1.1213  0.0794 -1.2874
  953MOL0     H28615   7.921   8.458   9.103  1.5064 -0.1774 -1.8656
  953MOL0     H28616   7.655   8.225   9.172 -0.6034  0.8717 -0.0748
  953MOL0     H28617   7.719   8.359   9.071 -1.7256 -1.0716 -0.8044
  953MOL0     H28618   7.740   8.192   9.018 -2.3610 -2.1416  1.4233
  953MOL0     H28619   7.694   7.818   9.407 -0.1224  1.5550 -1.7467
  953MOL0     H28620   7.586   7.615   9.386  0.1195 -1.2668  1.4382
  953MOL0     H28621   7.569   7.400   9.430 -0.3135  0.2417 -0.6599
  953MOL0     H28622   7.494   7.362   9.275  1.3383 -0.4239 -2.7004
  953MOL0     H28623   7.596   7.139   9.266  2.6857 -1.8847  0.4223
  953MOL0     H28624   7.703   7.171   9.402 -1.1831 -0.4472  3.1217
  953MOL0     H28625   7.504   7.180   9.555 -0.4113  0.0459  0.9076
  953MOL0     H28626   7.505   7.029   9.470  2.5745  0.9846 -0.4614
  953MOL0     H28627   7.330   7.271   9.418  1.8701  0.4683  0.5111
  953MOL0     H28628   7.339   7.137   9.312  0.9047  3.0504 -1.3530
  953MOL0     H28629   7.289   7.113   9.611 -0.0921 -1.3139  0.1617
  953MOL0     H28630   7.237   6.987   9.502  0.8889 -0.2344  2.0392
  953MOL0     H28631   7.118   7.273   9.494 -1.2944  0.6458 -2.5017
  953MOL0     H28632   7.081   7.155   9.377  0.2483  1.6117 -0.5103
  953MOL0     H28633   6.991   7.002   9.540 -3.5010  0.4582  0.7018
  953MOL0     H28634   6.915   7.169   9.536  0.0406 -0.5430 -4.0582
  953MOL0     H28635   7.097   7.191   9.744 -0.3667  1.0270 -2.9816
  953MOL0     H28636   7.068   7.019   9.733  1.2291  0.9036  0.9355
  953MOL0     H28637   7.889   7.441   9.146  1.0141  0.7105 -1.6091
  953MOL0     H28638   7.992   7.704   9.128 -0.2204  1.4757  0.4300
  953MOL0     H28639   8.117   8.057   9.305 -0.4035 -1.4768 -2.4560
  953MOL0     H28640   8.225   8.249   9.332 -2.2778 -4.6365  2.5908
  953MOL0     H28641   8.018   8.835   8.844  1.2817 -0.3871  2.8481
  953MOL0     H28642   7.807   8.923   8.938  0.3029  0.2298  3.0398
  953MOL0     H28643   7.401   8.910   9.042  1.4626  1.8630 -0.2330
  953MOL0     H28644   7.196   9.001   9.172 -0.3950 -0.0761 -0.7697
  953MOL0     H28645   7.243   9.171   9.382 -1.6325  0.4193 -2.9123
  953MOL0     H28646   7.078   9.180   9.387  0.9344  1.1603 -0.6922
  953MOL0     H28647   7.197   9.259   9.604  0.3326 -0.1283  1.5581
  953MOL0     H28648   7.257   9.100   9.621  1.7463  2.9954  0.7231
  953MOL0     H28649   7.054   9.108   9.760  1.6093 -0.3638 -0.4598
  953MOL0     H28650   6.987   9.036   9.608 -2.9412  2.1163  0.8343
  953MOL0     H28651   6.957   9.299   9.548  1.4786  1.5913  1.0701
  953MOL0     H28652   6.975   9.330   9.713  1.7160 -0.4169 -1.0916
  953MOL0     H28653   6.596   9.119   9.684 -0.0637  0.2291  2.3867
  953MOL0     H28654   7.351   8.816   9.530 -3.8882  1.6892  0.2125
  953MOL0     H28655   7.546   8.733   9.395  0.2922  3.9327  1.9618
  954MOL0     O28656   3.445   5.331   7.140 -0.6936  0.5176 -0.6806
  954MOL0     C28657   3.482   5.213   7.146  0.7512 -1.0393  0.0722
  954MOL0     O28658   3.399   5.103   7.180 -0.2855  0.2812 -0.0791
  954MOL0     C28659   3.278   5.125   7.231  0.5665 -1.5236 -0.1494
  954MOL0     C28660   3.265   5.179   7.358 -0.2342 -0.5268  0.1370
  954MOL0     C28661   3.143   5.193   7.418 -0.1569  0.7486  0.2358
  954MOL0     C28662   3.022   5.146   7.344  0.3807  0.0492  0.3777
  954MOL0     O28663   2.899   5.159   7.399 -0.5303 -0.4788  0.6224
  954MOL0     C28664   2.883   5.105   7.535 -0.1453  0.7265  0.3449
  954MOL0     C28665   2.793   5.192   7.618 -0.0617 -0.1414 -0.2227
  954MOL0     C28666   2.642   5.190   7.594  0.1768 -0.2878 -0.1722
  954MOL0     C28667   2.590   5.299   7.687 -0.5095 -0.0290  0.2943
  954MOL0     C28668   2.452   5.274   7.735  0.0965 -0.4160  0.7775
  954MOL0     C28669   2.354   5.272   7.609 -1.0112  0.6342 -0.2092
  954MOL0     C28670   2.213   5.307   7.648  0.7653 -0.8088 -0.4027
  954MOL0     C28671   2.128   5.266   7.530  0.8936  0.0170 -0.2629
  954MOL0     N28672   1.999   5.342   7.524 -0.4274 -0.7734 -1.0003
  954MOL0     C28673   1.886   5.330   7.607 -0.6807  0.2439 -1.5080
  954MOL0     C28674   1.786   5.412   7.560  0.1263 -0.1298 -0.4233
  954MOL0     C28675   1.649   5.434   7.619  0.3153  0.2097  0.6892
  954MOL0     C28676   1.545   5.368   7.526  0.1872 -0.0862  0.0170
  954MOL0     C28677   1.492   5.461   7.421 -0.9529  0.6635  0.1732
  954MOL0     C28678   1.366   5.408   7.351  0.1112 -0.5078  0.3169
  954MOL0     O28679   1.247   5.448   7.428  0.1669  0.8906  0.0119
  954MOL0     C28680   1.127   5.407   7.369 -0.3346  0.8670 -0.7446
  954MOL0     C28681   1.121   5.298   7.277 -0.5186 -0.0946  0.0689
  954MOL0     C28682   0.986   5.262   7.227 -0.0137  0.0797  0.2845
  954MOL0     C28683   0.975   5.154   7.131 -0.3075 -0.3343 -0.4284
  954MOL0     C28684   0.871   5.344   7.259  0.7084  0.1750  0.5874
  954MOL0     C28685   0.735   5.320   7.203  0.1446 -0.0484 -0.9070
  954MOL0     O28686   0.717   5.224   7.111  0.0903 -0.7518  0.4413
  954MOL0     C28687   0.586   5.216   7.068  0.6482  0.3084 -0.3967
  954MOL0     C28688   0.548   5.254   6.937  0.1534 -0.4469 -0.3847
  954MOL0     C28689   0.424   5.244   6.884  0.2213 -0.1361 -0.8947
  954MOL0     C28690   0.319   5.180   6.961 -0.3127 -0.3502  0.2568
  954MOL0     O28691   0.204   5.154   6.895 -0.7082  0.3484  0.1039
  954MOL0     C28692   0.086   5.120   6.968  0.0205  0.4984 -0.6139
  954MOL0     C28693  -0.040   5.140   6.885  0.3318  0.3276  0.3560
  954MOL0     C28694  -0.164   5.089   6.974  0.6678 -0.4492  0.0186
  954MOL0     C28695  -0.290   5.162   6.920  0.0453 -0.1056 -0.2038
  954MOL0     C28696  -0.419   5.113   6.978 -0.0604  0.7530  0.3004
  954MOL0     C28697  -0.542   5.183   6.915  0.3311  0.4773 -0.5211
  954MOL0     C28698  -0.654   5.119   6.980  0.7862 -0.1645 -0.4766
  954MOL0     C28699  -0.786   5.189   6.937  0.0050  0.5136  0.2458
  954MOL0    Cl28700  -0.942   5.135   7.028 -0.3712  0.1624 -0.0356
  954MOL0     C28701   0.351   5.142   7.097 -0.2103  0.5276  0.4729
  954MOL0     C28702   0.484   5.161   7.145 -0.7647  0.4712  0.4250
  954MOL0     O28703   0.648   5.404   7.235  0.0924  0.0336 -0.1443
  954MOL0     C28704   0.893   5.452   7.346 -0.0743 -0.6039 -0.8625
  954MOL0     C28705   1.023   5.486   7.388  0.0306 -0.6637  0.3155
  954MOL0     N28706   1.837   5.476   7.449 -0.2323 -0.1518 -0.7570
  954MOL0     N28707   1.960   5.435   7.437 -0.2160 -0.2141  0.1267
  954MOL0     C28708   3.040   5.101   7.211 -0.1613  0.2954  0.5723
  954MOL0     C28709   3.165   5.095   7.150 -1.4499 -0.3476 -0.1230
  954MOL0     C28710   3.628   5.189   7.119  0.7952 -0.3651 -0.1215
  954MOL0     C28711   3.713   5.292   7.099 -0.5665 -0.5502 -0.7122
  954MOL0     C28712   3.856   5.274   7.088  0.2076  0.1723  0.9052
  954MOL0     C28713   3.906   5.145   7.081  0.2427 -0.9284  0.0629
  954MOL0     O28714   4.043   5.117   7.088 -0.3035 -0.4694 -0.0246
  954MOL0     C28715   4.148   5.217   7.098  0.0904  0.3099 -0.1964
  954MOL0     C28716   4.262   5.173   7.188  0.7236 -0.0013 -0.0759
  954MOL0     C28717   4.305   5.024   7.186  0.4658  0.4537  0.1439
  954MOL0     C28718   4.367   4.989   7.049 -0.9906 -0.7775  0.0317
  954MOL0     C28719   4.500   5.049   7.034  0.1373 -0.1974 -0.8620
  954MOL0     C28720   4.600   5.116   7.030 -0.6695  0.8812 -0.2598
  954MOL0     C28721   3.819   5.039   7.094 -0.1601 -0.3158 -0.1606
  954MOL0     C28722   3.683   5.057   7.106  1.5722 -0.9754 -0.1333
  954MOL0     H28723   3.360   5.196   7.408  0.1215  1.8178 -1.1847
  954MOL0     H28724   3.137   5.232   7.519 -1.9652 -1.8381  1.2401
  954MOL0     H28725   2.846   5.004   7.519  3.1349 -0.3219 -1.5546
  954MOL0     H28726   2.985   5.088   7.570 -0.5585 -0.1401  1.1703
  954MOL0     H28727   2.813   5.141   7.713 -0.7239  1.0595  0.5763
  954MOL0     H28728   2.823   5.297   7.612  1.8322 -0.4816  1.9927
  954MOL0     H28729   2.615   5.206   7.489  2.0079  1.0613 -0.4878
  954MOL0     H28730   2.597   5.098   7.633 -0.9070 -0.9080 -2.7004
  954MOL0     H28731   2.648   5.321   7.777 -0.3527  1.0709 -0.0706
  954MOL0     H28732   2.594   5.389   7.626  1.9971 -1.1178 -1.2822
  954MOL0     H28733   2.445   5.183   7.795  0.5307 -0.6735  0.4371
  954MOL0     H28734   2.425   5.357   7.801 -0.1380 -0.6413  0.9679
  954MOL0     H28735   2.387   5.351   7.542  0.4965 -0.3232 -0.6347
  954MOL0     H28736   2.362   5.175   7.560 -3.8750  1.2449 -2.1634
  954MOL0     H28737   2.168   5.258   7.735 -1.4849 -2.5841 -2.4171
  954MOL0     H28738   2.212   5.414   7.670  2.5733 -1.0228  0.9288
  954MOL0     H28739   2.104   5.159   7.537  2.4620 -0.3051  0.8147
  954MOL0     H28740   2.175   5.284   7.433 -1.1406 -2.8058 -1.9321
  954MOL0     H28741   1.881   5.260   7.690  0.4172 -0.3942 -1.9525
  954MOL0     H28742   1.634   5.404   7.724  0.4919  2.4187  1.3975
  954MOL0     H28743   1.641   5.543   7.608  3.4125  0.2463 -3.3204
  954MOL0     H28744   1.461   5.337   7.588  1.5642 -1.5964  1.2226
  954MOL0     H28745   1.586   5.277   7.480  0.2042  0.6167 -1.4084
  954MOL0     H28746   1.566   5.470   7.341 -2.3997 -0.9436 -1.4410
  954MOL0     H28747   1.473   5.562   7.459 -1.1358  1.7419 -2.4919
  954MOL0     H28748   1.366   5.300   7.336  0.8407 -0.2630 -1.8233
  954MOL0     H28749   1.351   5.451   7.252  0.3757  0.9907  0.9043
  954MOL0     H28750   1.198   5.225   7.254 -2.1542 -1.9976  0.2868
  954MOL0     H28751   0.909   5.074   7.165 -0.6061 -0.2005 -0.6880
  954MOL0     H28752   0.937   5.201   7.040 -3.4173  0.8447  1.3518
  954MOL0     H28753   1.076   5.113   7.117  1.2089  1.5389  3.5273
  954MOL0     H28754   0.630   5.284   6.873  0.7058 -3.9505 -1.5283
  954MOL0     H28755   0.385   5.272   6.787 -2.6271 -0.4426  0.0547
  954MOL0     H28756   0.100   5.016   6.997  0.7609 -0.0524 -2.7603
  954MOL0     H28757   0.078   5.188   7.053  0.2486  1.5675 -1.4234
  954MOL0     H28758  -0.061   5.244   6.858 -3.3347  0.3765  2.7539
  954MOL0     H28759  -0.019   5.080   6.796  0.0112 -0.7737  1.0092
  954MOL0     H28760  -0.158   5.102   7.083 -1.1612 -2.7090  0.4795
  954MOL0     H28761  -0.170   4.980   6.962  3.4612 -0.9694  2.3005
  954MOL0     H28762  -0.286   5.271   6.927 -0.8995 -0.0002 -1.0633
  954MOL0     H28763  -0.300   5.147   6.813  1.0966 -0.8695 -0.2102
  954MOL0     H28764  -0.412   5.134   7.085  3.3051 -0.9219  0.5527
  954MOL0     H28765  -0.418   5.007   6.952  0.7687  0.9141 -0.3349
  954MOL0     H28766  -0.542   5.288   6.944 -0.5812  0.7446 -1.4007
  954MOL0     H28767  -0.548   5.184   6.805  1.1197  0.0931 -0.5751
  954MOL0     H28768  -0.645   5.136   7.088 -1.9303 -3.0796  0.3756
  954MOL0     H28769  -0.669   5.011   6.969 -1.7978  0.1325 -0.4846
  954MOL0     H28770  -0.799   5.157   6.834 -0.5469  0.3507  0.3627
  954MOL0     H28771  -0.776   5.298   6.944 -1.3972  0.8597 -2.0837
  954MOL0     H28772   0.280   5.094   7.163 -0.1799 -1.3019 -0.7683
  954MOL0     H28773   0.508   5.123   7.243 -0.6679  0.4550  0.3950
  954MOL0     H28774   0.816   5.518   7.385 -1.6796 -2.5617 -0.5161
  954MOL0     H28775   1.039   5.577   7.446 -0.3347 -0.3495 -0.0720
  954MOL0     H28776   2.956   5.088   7.144  0.1851  2.5850 -0.4091
  954MOL0     H28777   3.165   5.048   7.052 -0.5874 -1.2833  0.2981
  954MOL0     H28778   3.685   5.396   7.106  2.3747  0.3362 -0.9610
  954MOL0     H28779   3.929   5.354   7.082 -0.1097  0.4344  0.4816
  954MOL0     H28780   4.194   5.234   7.000  1.6398 -3.9371 -0.3910
  954MOL0     H28781   4.120   5.312   7.145  1.7358  0.8529 -0.2759
  954MOL0     H28782   4.229   5.196   7.290 -2.4646 -1.7153 -0.6043
  954MOL0     H28783   4.346   5.239   7.162 -0.8514  0.7642 -3.7512
  954MOL0     H28784   4.218   4.958   7.195 -0.2119  1.1025 -1.3552
  954MOL0     H28785   4.377   5.012   7.268  0.0838 -1.4169  0.2426
  954MOL0     H28786   4.302   5.024   6.969 -2.2030  1.3397  1.8437
  954MOL0     H28787   4.388   4.882   7.037  1.5679 -0.2725 -0.5749
  954MOL0     H28788   4.696   5.164   7.028 -0.6213  0.8007 -1.8101
  954MOL0     H28789   3.860   4.939   7.105  0.4486 -0.4708 -3.0401
  954MOL0     H28790   3.621   4.968   7.113 -0.2788  0.2830  0.0485
  955MOL0     O28791   1.712   5.770  10.250 -0.3456 -0.2413  0.2608
  955MOL0     C28792   1.741   5.787  10.369 -0.3404  0.9999  0.4599
  955MOL0     O28793   1.671   5.865  10.461 -0.4608  0.3511  0.3719
  955MOL0     C28794   1.577   5.953  10.425 -0.3125  0.9123 -0.4289
  955MOL0     C28795   1.444   5.931  10.469  0.1597 -0.4465 -0.2635
  955MOL0     C28796   1.349   6.031  10.443 -0.3507  0.2979 -0.8724
  955MOL0     C28797   1.383   6.142  10.368 -0.3364  0.5344  0.2274
  955MOL0     O28798   1.288   6.235  10.340  0.0017  0.1077  0.0273
  955MOL0     C28799   1.287   6.321  10.226 -0.2968 -0.5792  0.0587
  955MOL0     C28800   1.166   6.417  10.253 -0.0945  0.4333 -1.0176
  955MOL0     C28801   1.030   6.368  10.196 -0.0239  0.4092 -0.5072
  955MOL0     C28802   0.928   6.471  10.232  1.1693  0.6709  0.3141
  955MOL0     C28803   0.784   6.426  10.180  0.7833 -0.4355 -0.6982
  955MOL0     C28804   0.664   6.511  10.231  0.1439  0.1040  0.4642
  955MOL0     C28805   0.525   6.491  10.157 -0.9438 -0.1330 -0.4568
  955MOL0     C28806   0.526   6.539  10.017  0.4497 -1.0391 -0.0493
  955MOL0     N28807   0.390   6.560   9.968  0.2192  0.2546 -0.4344
  955MOL0     C28808   0.294   6.639  10.028 -0.8002  1.2550  0.3833
  955MOL0     C28809   0.180   6.627   9.951  0.1550  0.3960  0.3041
  955MOL0     C28810   0.047   6.689   9.969 -0.3364 -0.0372 -0.2241
  955MOL0     C28811   0.048   6.840   9.939  0.4189  0.0402  0.1803
  955MOL0     C28812  -0.074   6.898  10.005 -0.5899 -0.5332 -0.1572
  955MOL0     C28813  -0.118   7.044   9.947 -0.5754  0.2504 -0.1273
  955MOL0     O28814  -0.173   7.028   9.815 -1.1847 -0.2952 -0.2933
  955MOL0     C28815  -0.304   7.002   9.811 -0.3127  0.7886  0.4870
  955MOL0     C28816  -0.336   6.891   9.733 -0.2219  0.6384  0.0196
  955MOL0     C28817  -0.466   6.849   9.716  0.5489  0.3844 -0.0576
  955MOL0     C28818  -0.477   6.710   9.661 -0.3341 -0.5759  0.0210
  955MOL0     C28819  -0.575   6.942   9.746 -1.5397  0.6914  0.0074
  955MOL0     C28820  -0.709   6.921   9.703 -0.1366 -0.0074 -0.3230
  955MOL0     O28821  -0.725   6.849   9.591  1.0230  0.6131  0.0382
  955MOL0     C28822  -0.852   6.794   9.582  0.3180  1.1087  0.8356
  955MOL0     C28823  -0.859   6.655   9.565  0.6958 -0.3693  0.1240
  955MOL0     C28824  -0.980   6.590   9.548 -0.1617  0.6013  0.2554
  955MOL0     C28825  -1.100   6.661   9.554 -1.1564  0.7109 -0.1828
  955MOL0     O28826  -1.221   6.596   9.559 -0.1613 -0.0030 -0.7299
  955MOL0     C28827  -1.288   6.624   9.438  0.0281 -1.2566 -0.6970
  955MOL0     C28828  -1.394   6.518   9.405 -0.0103 -0.1834  0.2492
  955MOL0     C28829  -1.518   6.536   9.491 -0.0037  0.8681  0.2436
  955MOL0     C28830  -1.632   6.434   9.457 -0.4446  0.3753  0.7224
  955MOL0     C28831  -1.741   6.491   9.377  0.5882  0.4521 -0.9299
  955MOL0     C28832  -1.809   6.386   9.294  0.7585 -1.0353  0.0655
  955MOL0     C28833  -1.947   6.425   9.237  0.3171  0.1239 -0.4481
  955MOL0     C28834  -2.001   6.316   9.155 -0.2945  0.0514  0.5582
  955MOL0    Cl28835  -2.178   6.332   9.152  0.1058  0.3674  0.8151
  955MOL0     C28836  -1.087   6.797   9.565 -0.3894  0.4976  0.5770
  955MOL0     C28837  -0.966   6.863   9.572 -0.0293 -0.3326 -0.0008
  955MOL0     O28838  -0.800   6.975   9.767 -0.5986  0.0138 -0.4004
  955MOL0     C28839  -0.541   7.043   9.831 -0.5205 -0.3749  0.0553
  955MOL0     C28840  -0.407   7.082   9.862  0.1715  0.2000  0.5117
  955MOL0     N28841   0.208   6.543   9.845 -1.1772 -0.6988  0.3457
  955MOL0     N28842   0.336   6.507   9.856  0.4331 -0.1257 -0.0348
  955MOL0     C28843   1.509   6.151  10.307  0.6710 -0.5633  0.4899
  955MOL0     C28844   1.606   6.063  10.344  0.6401  0.7356  0.6050
  955MOL0     C28845   1.854   5.699  10.424 -0.0532 -0.9281  0.3022
  955MOL0     C28846   1.903   5.713  10.554  0.5500 -0.3197 -0.1277
  955MOL0     C28847   2.006   5.627  10.598  0.4533  0.6052  0.3259
  955MOL0     C28848   2.054   5.520  10.519  0.1924 -0.3473  0.1768
  955MOL0     O28849   2.123   5.422  10.581  0.4935  0.3021 -1.1345
  955MOL0     C28850   2.239   5.375  10.522  0.3126 -0.9324  0.2190
  955MOL0     C28851   2.253   5.229  10.539 -0.1736  1.1898 -0.0643
  955MOL0     C28852   2.363   5.183  10.449 -0.0442  1.1417  0.2097
  955MOL0     C28853   2.357   5.028  10.466 -0.7567 -0.0233 -1.2601
  955MOL0     C28854   2.462   4.966  10.393 -0.2035  0.1909  0.1027
  955MOL0     C28855   2.535   4.904  10.320  0.7910  0.1175 -0.1561
  955MOL0     C28856   1.998   5.507  10.391  0.7521 -0.1587  1.0191
  955MOL0     C28857   1.900   5.593  10.344 -0.0621  0.2986 -0.4959
  955MOL0     H28858   1.419   5.840  10.523 -2.8949  0.7760  0.5846
  955MOL0     H28859   1.252   6.008  10.485  0.1872  1.0240  0.8491
  955MOL0     H28860   1.370   6.392  10.223 -0.8666  0.3193  2.9173
  955MOL0     H28861   1.278   6.265  10.133 -2.0231 -0.0024 -0.1678
  955MOL0     H28862   1.150   6.416  10.361  0.0827  1.8916 -0.9584
  955MOL0     H28863   1.178   6.524  10.231 -3.2543  1.5683  1.8900
  955MOL0     H28864   1.038   6.354  10.087  2.1511  2.2515 -0.6531
  955MOL0     H28865   1.011   6.267  10.234  0.5373  0.1264 -0.9411
  955MOL0     H28866   0.914   6.476  10.341 -3.4979  0.7119 -0.0937
  955MOL0     H28867   0.939   6.569  10.185 -1.0244  0.2775 -1.2000
  955MOL0     H28868   0.788   6.455  10.075 -0.9325 -1.9026 -1.2316
  955MOL0     H28869   0.760   6.320  10.189 -3.7441  0.3863 -0.3306
  955MOL0     H28870   0.643   6.505  10.338 -1.5089  2.1100  0.3100
  955MOL0     H28871   0.690   6.616  10.217  1.3127 -0.1895  0.3472
  955MOL0     H28872   0.489   6.388  10.165  0.1807 -0.6336 -1.4610
  955MOL0     H28873   0.456   6.557  10.209  1.1545  1.7067  0.1570
  955MOL0     H28874   0.579   6.473   9.948  1.3147  0.3118 -0.7271
  955MOL0     H28875   0.570   6.639  10.004 -1.5454 -0.1971 -0.8469
  955MOL0     H28876   0.313   6.699  10.117 -1.6321  3.6331 -0.9510
  955MOL0     H28877  -0.027   6.635   9.909 -1.3163  1.4455 -0.4006
  955MOL0     H28878   0.020   6.669  10.073  1.9970 -3.2690 -0.0756
  955MOL0     H28879   0.039   6.868   9.834 -3.2737 -2.8521 -0.4744
  955MOL0     H28880   0.136   6.889   9.982  0.6028  1.3147 -1.5449
  955MOL0     H28881  -0.044   6.904  10.110  3.3182 -2.5866 -0.9561
  955MOL0     H28882  -0.152   6.822   9.994  1.6693 -3.1744  0.6232
  955MOL0     H28883  -0.027   7.104   9.949 -0.5640  0.3381 -1.8072
  955MOL0     H28884  -0.191   7.082  10.019 -0.2232  2.4307 -0.8383
  955MOL0     H28885  -0.255   6.825   9.703 -0.8610 -0.3106  0.3500
  955MOL0     H28886  -0.504   6.713   9.554  1.3666  0.4263 -0.4101
  955MOL0     H28887  -0.381   6.658   9.661 -0.6403 -1.2284 -1.8964
  955MOL0     H28888  -0.549   6.652   9.720 -0.4830 -0.0434  0.3713
  955MOL0     H28889  -0.768   6.596   9.563  1.0832  0.0864  2.0905
  955MOL0     H28890  -0.991   6.485   9.526 -0.2429  0.2777  1.7225
  955MOL0     H28891  -1.337   6.721   9.437  1.6483 -0.3880  0.3157
  955MOL0     H28892  -1.220   6.618   9.352  1.4838 -4.8517  0.4847
  955MOL0     H28893  -1.423   6.529   9.300  1.9888  2.8677 -0.1042
  955MOL0     H28894  -1.370   6.412   9.422  0.5118 -0.5435 -2.2649
  955MOL0     H28895  -1.563   6.635   9.479 -1.5398  0.4915  2.3073
  955MOL0     H28896  -1.501   6.514   9.597  1.8025 -0.5882 -0.2792
  955MOL0     H28897  -1.588   6.346   9.409  0.0927  1.3724 -0.6624
  955MOL0     H28898  -1.678   6.375   9.537 -1.6843 -0.9961 -0.9101
  955MOL0     H28899  -1.714   6.581   9.320 -2.2267  2.0786  0.0915
  955MOL0     H28900  -1.811   6.512   9.459  1.2258  0.6131 -0.4100
  955MOL0     H28901  -1.743   6.364   9.209  2.4047  1.1557  0.6517
  955MOL0     H28902  -1.823   6.301   9.361 -1.0108  0.5150  1.7788
  955MOL0     H28903  -1.946   6.511   9.169  2.2259  0.7877  0.3567
  955MOL0     H28904  -2.008   6.431   9.328  1.9041 -1.8978  0.8422
  955MOL0     H28905  -1.974   6.220   9.199  2.2340 -0.3184 -1.5364
  955MOL0     H28906  -1.965   6.317   9.052 -0.1611  0.6316  0.6042
  955MOL0     H28907  -1.181   6.851   9.563 -1.4525 -1.2862  0.6121
  955MOL0     H28908  -0.948   6.970   9.564  4.9126 -0.9369 -0.2005
  955MOL0     H28909  -0.620   7.110   9.865 -0.7750  1.8005 -4.1527
  955MOL0     H28910  -0.373   7.162   9.927  0.0447 -0.7031  1.7220
  955MOL0     H28911   1.526   6.236  10.242 -0.0920  1.4822  2.7826
  955MOL0     H28912   1.700   6.064  10.291 -0.4555 -0.4394 -1.4956
  955MOL0     H28913   1.850   5.778  10.623  1.8673  1.3175 -0.5813
  955MOL0     H28914   2.045   5.625  10.699  2.2024 -0.2327 -0.3250
  955MOL0     H28915   2.231   5.398  10.415 -2.1520 -2.5099 -0.0450
  955MOL0     H28916   2.323   5.432  10.562  0.7079 -0.8569 -0.6833
  955MOL0     H28917   2.170   5.161  10.517 -0.4553  1.1703  1.0052
  955MOL0     H28918   2.283   5.211  10.642 -0.2207 -0.7687 -0.3530
  955MOL0     H28919   2.464   5.218  10.471 -0.5897  0.8082  3.9781
  955MOL0     H28920   2.328   5.191  10.346 -0.7621 -0.8249  0.2521
  955MOL0     H28921   2.268   4.992  10.413 -0.4395 -0.9776 -1.1696
  955MOL0     H28922   2.342   4.998  10.570 -0.0223  0.0579 -1.1215
  955MOL0     H28923   2.593   4.842  10.255  1.6936 -0.3913  1.1017
  955MOL0     H28924   2.013   5.414  10.337  2.0474 -1.1433  2.9400
  955MOL0     H28925   1.864   5.578  10.243  1.8923  1.3742 -1.3935
  956MOL0     O28926   6.450   0.095   9.088 -0.6158 -0.7321  0.4784
  956MOL0     C28927   6.453   0.221   9.106  0.1579  0.2054 -1.1138
  956MOL0     O28928   6.350   0.287   9.163 -0.0941 -0.0484 -0.5907
  956MOL0     C28929   6.236   0.213   9.182 -0.5743  0.2525  0.2086
  956MOL0     C28930   6.160   0.186   9.068 -0.1172  0.5677  1.3307
  956MOL0     C28931   6.036   0.132   9.070  1.4835  0.2608  0.0753
  956MOL0     C28932   5.990   0.092   9.197 -0.4261  0.6065 -0.2734
  956MOL0     O28933   5.861   0.042   9.227  0.2997  0.6944  0.5404
  956MOL0     C28934   5.768   0.038   9.117 -0.6975  0.2738  1.0896
  956MOL0     C28935   5.640  -0.028   9.166  0.2200  0.2352 -0.1910
  956MOL0     C28936   5.557  -0.064   9.037 -0.5991  0.1090  0.1441
  956MOL0     C28937   5.493   0.057   8.982 -0.4816 -0.8557  0.5709
  956MOL0     C28938   5.385   0.011   8.884 -0.3318 -1.0565 -0.8691
  956MOL0     C28939   5.423  -0.082   8.767  0.3836  0.2290  0.3420
  956MOL0     C28940   5.307  -0.107   8.665 -0.1422 -0.9823 -0.1447
  956MOL0     C28941   5.202  -0.207   8.710 -0.1648 -0.4100 -0.6712
  956MOL0     N28942   5.105  -0.201   8.598  0.0613  0.5750  0.4363
  956MOL0     C28943   5.125  -0.232   8.462 -0.1555  0.2265 -0.0404
  956MOL0     C28944   5.004  -0.227   8.401 -0.3346  0.2978 -0.2186
  956MOL0     C28945   4.980  -0.238   8.254 -0.0969 -0.4234  0.6235
  956MOL0     C28946   4.981  -0.102   8.173 -0.1341  0.2937 -0.6689
  956MOL0     C28947   4.886   0.007   8.228 -0.3979 -0.4677 -0.3930
  956MOL0     C28948   4.889   0.136   8.143 -0.5067  0.6719  0.0616
  956MOL0     O28949   4.827   0.102   8.014 -0.3852  0.6559 -0.4034
  956MOL0     C28950   4.691   0.069   8.023 -1.0949 -0.6295  0.2177
  956MOL0     C28951   4.595   0.148   8.073 -0.5055  0.1711  0.0216
  956MOL0     C28952   4.461   0.098   8.095 -0.0075 -0.8727  0.4383
  956MOL0     C28953   4.352   0.190   8.165 -0.5283 -0.4983  0.9234
  956MOL0     C28954   4.433  -0.038   8.060 -0.4441 -0.0072  0.7736
  956MOL0     C28955   4.310  -0.113   8.082  1.0778 -0.5408 -0.4351
  956MOL0     O28956   4.309  -0.244   8.061 -0.1510  0.4077  0.8450
  956MOL0     C28957   4.194  -0.320   8.081  0.1450  0.3784 -0.5247
  956MOL0     C28958   4.197  -0.415   8.186 -0.1574  0.3086 -0.2795
  956MOL0     C28959   4.077  -0.485   8.208  0.1557  0.0990  0.0403
  956MOL0     C28960   3.957  -0.459   8.142 -0.9222 -0.3721  0.4659
  956MOL0     O28961   3.841  -0.520   8.176 -0.1622  0.3027 -0.1163
  956MOL0     C28962   3.818  -0.535   8.317 -0.0490 -0.3409 -0.2858
  956MOL0     C28963   3.682  -0.583   8.347  0.2993  0.3516 -0.5808
  956MOL0     C28964   3.640  -0.559   8.489 -0.5670  0.6519  0.0098
  956MOL0     C28965   3.496  -0.596   8.511 -0.2944  0.4836 -0.5695
  956MOL0     C28966   3.444  -0.533   8.642 -0.2793 -1.0669 -0.5292
  956MOL0     C28967   3.338  -0.609   8.722 -0.4264 -0.6134  0.6740
  956MOL0     C28968   3.208  -0.618   8.642  0.0874  0.2644  0.0276
  956MOL0     C28969   3.081  -0.634   8.732 -0.2023  0.1598  0.0689
  956MOL0    Cl28970   3.056  -0.484   8.829 -0.3688 -0.4195 -0.3222
  956MOL0     C28971   3.956  -0.363   8.036  0.2070 -0.6605 -0.0518
  956MOL0     C28972   4.077  -0.295   8.014 -0.1270  0.0769  1.1715
  956MOL0     O28973   4.213  -0.052   8.134  0.1459  0.4575  0.1784
  956MOL0     C28974   4.537  -0.109   7.994  0.5454  0.9697  0.2837
  956MOL0     C28975   4.663  -0.056   7.968 -0.3105  0.9526 -0.2334
  956MOL0     N28976   4.910  -0.205   8.502  0.0806  0.0509  0.1871
  956MOL0     N28977   4.972  -0.189   8.614 -0.0499  0.4431 -0.4304
  956MOL0     C28978   6.075   0.099   9.314  0.5413 -0.4593  0.2690
  956MOL0     C28979   6.190   0.168   9.306 -0.6020  0.2011 -0.3184
  956MOL0     C28980   6.567   0.295   9.065 -0.9099 -0.0983 -0.1469
  956MOL0     C28981   6.672   0.227   9.001 -0.5137  0.3464  0.9993
  956MOL0     C28982   6.787   0.298   8.962  0.6839  0.2938 -0.4660
  956MOL0     C28983   6.798   0.431   8.983  0.7021 -1.0383 -1.1089
  956MOL0     O28984   6.915   0.498   8.970  0.2733 -0.3500 -0.6643
  956MOL0     C28985   7.014   0.489   9.073 -0.4027  0.5332 -0.3887
  956MOL0     C28986   7.102   0.366   9.055  0.2179 -0.0417  0.3104
  956MOL0     C28987   7.152   0.344   8.911 -0.5801  0.6634 -0.2237
  956MOL0     C28988   7.251   0.224   8.908  0.0452 -0.0593 -0.8421
  956MOL0     C28989   7.322   0.223   8.779 -0.3841 -0.1539 -0.1386
  956MOL0     C28990   7.360   0.220   8.664 -0.3849  0.4077 -0.0104
  956MOL0     C28991   6.693   0.496   9.045  0.3959 -1.1210  0.1540
  956MOL0     C28992   6.574   0.433   9.085  0.3958  0.1175 -0.3050
  956MOL0     H28993   6.206   0.225   8.978  0.8065 -3.8108 -0.3672
  956MOL0     H28994   5.984   0.127   8.975  0.0934  1.2520  0.7519
  956MOL0     H28995   5.756   0.136   9.070  0.4562  0.5428  1.3245
  956MOL0     H28996   5.810  -0.031   9.043  1.1807  0.8279  1.5728
  956MOL0     H28997   5.657  -0.119   9.225 -1.0364 -1.7946 -2.7084
  956MOL0     H28998   5.571   0.030   9.227 -1.0713 -2.0853  0.7063
  956MOL0     H28999   5.631  -0.114   8.974  0.5814  0.4042  1.2715
  956MOL0     H29000   5.487  -0.143   9.066  0.1941 -0.5909  0.1761
  956MOL0     H29001   5.450   0.122   9.059  1.4751 -1.7456  2.5181
  956MOL0     H29002   5.580   0.109   8.942 -1.0054 -0.7175 -0.4050
  956MOL0     H29003   5.297  -0.030   8.933  0.3935 -2.5796 -0.7634
  956MOL0     H29004   5.356   0.107   8.840 -1.2243 -1.1837 -0.5594
  956MOL0     H29005   5.503  -0.027   8.716 -0.1166  1.3750  0.7455
  956MOL0     H29006   5.469  -0.174   8.804  1.7147  1.1088  0.9311
  956MOL0     H29007   5.254  -0.020   8.625 -1.1485 -2.6693 -2.7333
  956MOL0     H29008   5.367  -0.141   8.581  1.1197 -1.5106  0.9476
  956MOL0     H29009   5.153  -0.155   8.793  0.4944  1.0222 -1.1396
  956MOL0     H29010   5.237  -0.309   8.727  2.3784  0.3666 -0.9641
  956MOL0     H29011   5.220  -0.261   8.418  1.6065 -0.5968  3.9011
  956MOL0     H29012   5.066  -0.290   8.211 -0.1084 -0.1777  0.3084
  956MOL0     H29013   4.886  -0.293   8.239 -1.0422  1.7823 -2.7060
  956MOL0     H29014   4.943  -0.124   8.073 -1.9240 -2.1162  0.4245
  956MOL0     H29015   5.081  -0.059   8.179 -0.3762  0.7202  0.6920
  956MOL0     H29016   4.914   0.027   8.332  1.4032 -0.8617 -0.7612
  956MOL0     H29017   4.785  -0.028   8.250 -1.6154  3.1952  0.5222
  956MOL0     H29018   4.995   0.159   8.129 -0.6518  0.5638 -1.3418
  956MOL0     H29019   4.841   0.224   8.187 -1.5234  0.2412 -0.1509
  956MOL0     H29020   4.623   0.248   8.107 -0.7641  0.0964  0.4598
  956MOL0     H29021   4.373   0.296   8.150  0.7003 -0.7562  0.7110
  956MOL0     H29022   4.254   0.172   8.119 -0.7856  1.6881  0.5373
  956MOL0     H29023   4.332   0.168   8.270  0.3191  0.2775  1.2598
  956MOL0     H29024   4.289  -0.428   8.242 -0.5259 -0.4050  0.1841
  956MOL0     H29025   4.088  -0.566   8.279 -2.3624 -2.1969 -1.9768
  956MOL0     H29026   3.891  -0.601   8.365  0.5032  3.0303  4.1622
  956MOL0     H29027   3.829  -0.437   8.365  0.1097 -1.9579  3.2917
  956MOL0     H29028   3.606  -0.537   8.283 -0.4789 -0.9097 -0.5777
  956MOL0     H29029   3.685  -0.691   8.331  0.5855  0.0840  1.1011
  956MOL0     H29030   3.661  -0.456   8.517  1.1446  0.3780 -0.1662
  956MOL0     H29031   3.701  -0.623   8.554 -4.0497  0.7060  3.7242
  956MOL0     H29032   3.431  -0.569   8.427  0.1581 -0.0286 -1.0868
  956MOL0     H29033   3.491  -0.705   8.515  1.1812  0.4021 -0.5203
  956MOL0     H29034   3.420  -0.429   8.619 -0.6560 -1.4676 -2.1034
  956MOL0     H29035   3.524  -0.531   8.717  0.1886 -0.4697 -1.0398
  956MOL0     H29036   3.365  -0.714   8.738 -1.4977 -0.6429  2.6193
  956MOL0     H29037   3.314  -0.564   8.819  0.4682 -0.1039  0.6659
  956MOL0     H29038   3.217  -0.706   8.579 -0.0903  2.3042 -3.0447
  956MOL0     H29039   3.191  -0.529   8.582  0.3287  1.3545  1.5014
  956MOL0     H29040   3.110  -0.714   8.801  0.4651 -2.4463 -3.0196
  956MOL0     H29041   2.997  -0.659   8.668  0.6398  1.6452 -1.6990
  956MOL0     H29042   3.866  -0.327   7.987  0.3638 -0.2865 -0.0664
  956MOL0     H29043   4.093  -0.220   7.938 -1.3432 -2.1701 -1.4959
  956MOL0     H29044   4.516  -0.205   7.947  1.4443  1.4024 -1.0404
  956MOL0     H29045   4.741  -0.111   7.916 -0.0720  2.1605 -1.1851
  956MOL0     H29046   6.029   0.084   9.411 -2.7451  0.2560 -1.0778
  956MOL0     H29047   6.246   0.203   9.392  3.1306  0.6071 -2.6586
  956MOL0     H29048   6.658   0.128   8.959 -0.1677  0.8844 -0.4334
  956MOL0     H29049   6.856   0.248   8.896 -0.4133 -0.1450 -1.3168
  956MOL0     H29050   7.078   0.578   9.081  0.7587 -0.4291  2.1763
  956MOL0     H29051   6.966   0.487   9.171  2.6334  0.7675  1.2323
  956MOL0     H29052   7.052   0.278   9.097 -1.4942  0.6147 -0.2992
  956MOL0     H29053   7.187   0.369   9.124 -0.4743 -1.4038  1.2654
  956MOL0     H29054   7.201   0.432   8.869  1.2712 -0.4119 -0.4295
  956MOL0     H29055   7.064   0.315   8.854 -3.2867  3.8130  1.9513
  956MOL0     H29056   7.198   0.130   8.924  0.5598 -0.1189  0.7712
  956MOL0     H29057   7.320   0.222   8.994 -1.8489  0.9445  0.7820
  956MOL0     H29058   7.407   0.209   8.568 -0.2182 -0.5090  0.1683
  956MOL0     H29059   6.705   0.602   9.063 -1.4588 -0.0764 -3.6957
  956MOL0     H29060   6.485   0.473   9.133  1.5443 -0.0719  2.0893
  957MOL0     O29061   7.476   0.053  11.127  0.3559 -0.4150 -0.2642
  957MOL0     C29062   7.527   0.080  11.021  0.0982  0.5540  0.8000
  957MOL0     O29063   7.461   0.071  10.892 -0.4416 -0.1766 -0.8611
  957MOL0     C29064   7.321   0.054  10.894 -0.0154  0.4229 -0.5612
  957MOL0     C29065   7.262   0.112  10.774  0.9925  0.3704 -0.7267
  957MOL0     C29066   7.117   0.107  10.756 -0.5466 -0.3185 -0.0057
  957MOL0     C29067   7.040   0.043  10.854 -1.0766  0.4928  0.8169
  957MOL0     O29068   6.909   0.046  10.851  0.7926 -0.0034 -0.4488
  957MOL0     C29069   6.839   0.149  10.927  0.0893  0.7044  0.4874
  957MOL0     C29070   6.710   0.161  10.845  0.0103 -0.4169  0.5370
  957MOL0     C29071   6.615   0.281  10.857 -1.2349 -0.6517 -0.1596
  957MOL0     C29072   6.505   0.262  10.749  0.0694  0.0364 -0.2823
  957MOL0     C29073   6.381   0.336  10.802 -0.2778 -0.3200 -0.6115
  957MOL0     C29074   6.264   0.327  10.706  0.1107  0.1681 -0.0945
  957MOL0     C29075   6.132   0.387  10.766 -0.4199 -0.1372 -0.1796
  957MOL0     C29076   6.030   0.408  10.644 -0.8202 -0.4517  0.8123
  957MOL0     N29077   5.921   0.483  10.693  0.6235  0.2375 -0.2609
  957MOL0     C29078   5.923   0.605  10.751 -0.2299  0.4353  0.7103
  957MOL0     C29079   5.799   0.643  10.773 -0.9011  0.2964  0.7771
  957MOL0     C29080   5.758   0.791  10.818 -0.2553 -0.0502  1.0607
  957MOL0     C29081   5.675   0.790  10.948 -0.1476 -0.0894  0.3011
  957MOL0     C29082   5.641   0.930  10.987 -0.2799  0.0439  0.4305
  957MOL0     C29083   5.518   0.981  10.917  0.6554  1.0764  0.8129
  957MOL0     O29084   5.504   1.115  10.956 -0.6757 -0.3671 -0.5934
  957MOL0     C29085   5.394   1.156  11.021  0.0533  0.6146 -0.1798
  957MOL0     C29086   5.356   1.278  11.001  1.0598 -0.2427 -0.4095
  957MOL0     C29087   5.238   1.337  11.049  0.3558  1.0796  0.5529
  957MOL0     C29088   5.220   1.485  11.032  0.0906  0.5500  0.3375
  957MOL0     C29089   5.140   1.252  11.118 -0.1858 -0.0918  0.2815
  957MOL0     C29090   5.009   1.301  11.179  0.6583 -0.5613  0.2122
  957MOL0     O29091   4.937   1.202  11.246 -0.0973  0.6371 -0.1363
  957MOL0     C29092   4.811   1.229  11.296  0.0074  0.1391  0.5938
  957MOL0     C29093   4.721   1.119  11.313 -0.5212 -0.1250 -0.3205
  957MOL0     C29094   4.598   1.143  11.371 -0.5500  0.7827 -0.7733
  957MOL0     C29095   4.557   1.265  11.423 -0.5261 -0.1391 -0.0188
  957MOL0     O29096   4.447   1.290  11.489 -0.3759  0.5552 -0.5602
  957MOL0     C29097   4.333   1.322  11.404 -0.0155  0.5026  0.7132
  957MOL0     C29098   4.212   1.286  11.487  0.3746 -0.1190 -0.1896
  957MOL0     C29099   4.176   1.133  11.496 -0.1416 -0.6014 -0.5956
  957MOL0     C29100   4.150   1.086  11.646 -0.4227  0.0616  0.2676
  957MOL0     C29101   4.199   0.945  11.683  0.3320 -0.3981 -0.6818
  957MOL0     C29102   4.350   0.919  11.681  0.7516 -0.3141 -0.1211
  957MOL0     C29103   4.375   0.764  11.699 -0.5376  0.4232  0.9180
  957MOL0     C29104   4.527   0.737  11.700 -0.2825 -1.2698  0.2596
  957MOL0    Cl29105   4.596   0.717  11.532  0.1552 -0.2986  0.3463
  957MOL0     C29106   4.643   1.375  11.404  0.1266  0.1357  0.3686
  957MOL0     C29107   4.772   1.351  11.348 -0.9834 -0.1759 -0.0516
  957MOL0     O29108   4.970   1.412  11.150  0.0534  0.0151  0.0085
  957MOL0     C29109   5.188   1.116  11.142  0.4869  0.4488 -1.0765
  957MOL0     C29110   5.313   1.079  11.112  0.2596  0.1607  0.0113
  957MOL0     N29111   5.718   0.546  10.714  0.2182 -0.1561 -0.6476
  957MOL0     N29112   5.788   0.448  10.678 -0.6115 -0.6139  0.3149
  957MOL0     C29113   7.102  -0.035  10.960 -0.2927  0.2287  0.7148
  957MOL0     C29114   7.239  -0.033  10.980 -0.8502  0.4248  0.5885
  957MOL0     C29115   7.665   0.143  11.019  0.1461 -0.1694 -0.2164
  957MOL0     C29116   7.763   0.121  11.117  0.2659  0.0368 -0.0297
  957MOL0     C29117   7.876   0.197  11.131 -0.3734  0.5513 -0.0072
  957MOL0     C29118   7.909   0.299  11.039 -0.6492 -0.2312 -0.8535
  957MOL0     O29119   8.023   0.368  11.075  0.0138  0.9966  0.5670
  957MOL0     C29120   8.119   0.394  10.965  0.3204  0.2947  0.0098
  957MOL0     C29121   8.211   0.517  11.000  0.0955  0.5393  0.6810
  957MOL0     C29122   8.332   0.506  10.893 -0.0851  0.5169  0.4656
  957MOL0     C29123   8.413   0.637  10.875 -0.9102 -0.0292  0.7234
  957MOL0     C29124   8.497   0.662  10.992  0.1377 -0.4601  1.4344
  957MOL0     C29125   8.570   0.705  11.081  0.2314 -0.5936 -0.3344
  957MOL0     C29126   7.824   0.323  10.934  0.1934 -0.3516 -0.2261
  957MOL0     C29127   7.698   0.244  10.927 -0.2280  0.2812  0.9746
  957MOL0     H29128   7.323   0.167  10.702  0.3005  1.1935 -0.7047
  957MOL0     H29129   7.076   0.166  10.676 -0.5214 -0.9758 -0.5116
  957MOL0     H29130   6.814   0.117  11.028 -1.6247 -0.9800 -0.4046
  957MOL0     H29131   6.895   0.243  10.930 -0.2183  1.0028 -1.4998
  957MOL0     H29132   6.726   0.147  10.738 -3.2119 -2.1431  0.1794
  957MOL0     H29133   6.655   0.069  10.862  2.7672 -2.4689 -0.8412
  957MOL0     H29134   6.572   0.299  10.956  0.7125  0.7556  0.4957
  957MOL0     H29135   6.671   0.373  10.839 -2.0930 -0.1622 -0.3759
  957MOL0     H29136   6.549   0.308  10.660 -2.2847  0.1665 -1.4324
  957MOL0     H29137   6.492   0.155  10.731  1.0481  0.0807 -1.3825
  957MOL0     H29138   6.337   0.298  10.895  3.9287 -0.6499  1.4742
  957MOL0     H29139   6.407   0.441  10.821  0.4348 -0.6302  0.1950
  957MOL0     H29140   6.275   0.373  10.608 -1.6335  1.2907  0.1820
  957MOL0     H29141   6.250   0.220  10.685 -0.3428 -0.2248  1.9781
  957MOL0     H29142   6.084   0.328  10.845 -4.2174  1.1220 -1.3374
  957MOL0     H29143   6.159   0.482  10.813  2.1797 -1.9187  2.3039
  957MOL0     H29144   6.007   0.311  10.598 -1.9528  0.9149 -1.7727
  957MOL0     H29145   6.077   0.470  10.567  0.5707 -1.4560  0.8199
  957MOL0     H29146   6.015   0.658  10.775  1.9300 -1.9251 -1.6849
  957MOL0     H29147   5.854   0.841  10.829  0.8355 -1.7875 -0.1704
  957MOL0     H29148   5.701   0.840  10.739 -0.9279 -2.9913 -0.4251
  957MOL0     H29149   5.740   0.748  11.026 -1.5386 -1.0561  0.9699
  957MOL0     H29150   5.594   0.719  10.933  0.2850 -0.7909  1.1414
  957MOL0     H29151   5.731   0.990  10.972  0.9754  0.0591  5.8731
  957MOL0     H29152   5.628   0.932  11.095  0.1718 -0.3757  0.4984
  957MOL0     H29153   5.433   0.923  10.953  0.8106 -1.2547 -2.1380
  957MOL0     H29154   5.520   0.972  10.808  0.8889 -0.1655  0.8978
  957MOL0     H29155   5.421   1.357  10.965 -0.8850  1.9886  0.6284
  957MOL0     H29156   5.288   1.526  10.956  1.5075 -1.9783  0.1325
  957MOL0     H29157   5.120   1.489  10.989  1.0807 -0.4776 -2.2559
  957MOL0     H29158   5.235   1.540  11.125  1.2080  0.1800  0.3915
  957MOL0     H29159   4.753   1.019  11.285  1.8752  0.2996  0.7079
  957MOL0     H29160   4.545   1.051  11.395  0.4191  0.6688  1.0964
  957MOL0     H29161   4.331   1.426  11.370 -0.2047  0.5626  0.9080
  957MOL0     H29162   4.325   1.260  11.315 -1.5123  0.9690  0.4930
  957MOL0     H29163   4.208   1.342  11.581  1.5006 -0.0060 -0.1957
  957MOL0     H29164   4.131   1.325  11.426  2.2113  1.9358 -1.4568
  957MOL0     H29165   4.255   1.074  11.448  1.4691  0.6255  0.4250
  957MOL0     H29166   4.095   1.098  11.431 -0.5858 -2.3604  0.8366
  957MOL0     H29167   4.202   1.161  11.707  0.6904  0.1747 -0.7876
  957MOL0     H29168   4.042   1.078  11.660 -0.2175 -1.0552  1.3872
  957MOL0     H29169   4.141   0.874  11.624 -1.2035  0.8968 -0.8202
  957MOL0     H29170   4.153   0.936  11.782 -0.2730 -0.5422 -0.9750
  957MOL0     H29171   4.397   0.960  11.591  0.5284  0.5972  0.1614
  957MOL0     H29172   4.410   0.968  11.759  3.0802 -1.5288 -1.0456
  957MOL0     H29173   4.333   0.707  11.616  2.4252 -2.0233  0.9422
  957MOL0     H29174   4.320   0.720  11.783 -2.8958  2.9837  0.9101
  957MOL0     H29175   4.547   0.651  11.766 -0.8320 -0.7763  1.0940
  957MOL0     H29176   4.579   0.825  11.739  1.0168 -0.6440 -2.6678
  957MOL0     H29177   4.609   1.471  11.440 -0.8265 -0.7312  1.8818
  957MOL0     H29178   4.849   1.428  11.346 -0.9298 -0.2418 -1.5264
  957MOL0     H29179   5.135   1.047  11.207  0.9767  0.9356 -0.1295
  957MOL0     H29180   5.347   0.981  11.145 -0.9097  0.3904  2.0128
  957MOL0     H29181   7.025  -0.082  11.020  0.6878  1.3129  2.9214
  957MOL0     H29182   7.288  -0.094  11.055 -0.8898  0.0159  0.2893
  957MOL0     H29183   7.732   0.048  11.192  0.2322 -1.0586 -1.0794
  957MOL0     H29184   7.938   0.177  11.219 -0.0804  3.0924  0.4242
  957MOL0     H29185   8.177   0.307  10.934 -1.2891 -0.4628 -0.9454
  957MOL0     H29186   8.073   0.411  10.868  1.1311  0.5902 -0.3361
  957MOL0     H29187   8.233   0.520  11.107 -3.1956  1.8231  1.4432
  957MOL0     H29188   8.157   0.607  10.968 -1.2707  0.0169  1.4358
  957MOL0     H29189   8.292   0.474  10.797 -3.0494  0.3732  1.6224
  957MOL0     H29190   8.408   0.435  10.927  1.9763  1.8519 -1.1415
  957MOL0     H29191   8.334   0.710  10.857 -1.8084 -0.9625  0.7655
  957MOL0     H29192   8.485   0.623  10.794  1.4461  6.2382  1.2004
  957MOL0     H29193   8.642   0.741  11.151  0.4461  0.5435 -1.1292
  957MOL0     H29194   7.835   0.405  10.864 -0.7230  1.2150  1.3917
  957MOL0     H29195   7.639   0.264  10.837  2.5183 -1.3355 -1.3614
  958MOL0     O29196   6.147   8.404   2.156 -0.0435  0.7462  0.0810
  958MOL0     C29197   6.151   8.305   2.233  0.5729 -0.0927  0.6956
  958MOL0     O29198   6.056   8.207   2.230  1.0921  0.3858  0.8070
  958MOL0     C29199   5.974   8.177   2.116 -0.1248  0.3548 -0.1137
  958MOL0     C29200   6.008   8.220   1.981  0.0199  0.1878  0.6298
  958MOL0     C29201   5.913   8.199   1.876  0.4350  0.1664 -0.4308
  958MOL0     C29202   5.802   8.115   1.896 -0.7742  0.1744 -0.4518
  958MOL0     O29203   5.724   8.091   1.786 -0.4329  0.4029  1.0522
  958MOL0     C29204   5.607   8.004   1.799 -1.9916  0.0251 -0.1794
  958MOL0     C29205   5.535   7.984   1.667 -0.1129  0.5145  0.5370
  958MOL0     C29206   5.623   7.925   1.549 -0.8931  1.4039  0.3880
  958MOL0     C29207   5.537   7.885   1.428  0.2217 -0.5306  0.3871
  958MOL0     C29208   5.617   7.841   1.300 -0.0177  0.1809 -0.1079
  958MOL0     C29209   5.541   7.846   1.167 -1.3837  0.3851  0.2205
  958MOL0     C29210   5.630   7.823   1.054 -0.2846 -0.2125  0.1022
  958MOL0     C29211   5.538   7.822   0.922  0.8397  0.0539 -0.1041
  958MOL0     N29212   5.443   7.935   0.894 -0.3053 -0.6892 -0.0672
  958MOL0     C29213   5.326   7.926   0.831 -0.0244 -0.0014  0.0756
  958MOL0     C29214   5.275   8.047   0.808 -0.0935 -0.2219 -0.5900
  958MOL0     C29215   5.157   8.085   0.726  0.6535  0.6981 -0.4307
  958MOL0     C29216   5.191   8.161   0.596 -0.0851  1.0429 -0.4745
  958MOL0     C29217   5.072   8.169   0.503 -0.1736 -0.5558 -0.4177
  958MOL0     C29218   4.963   8.269   0.545 -0.2481 -0.1078 -0.1210
  958MOL0     O29219   4.854   8.269   0.447 -0.3727 -0.4393 -0.3978
  958MOL0     C29220   4.735   8.337   0.482  0.4614 -0.2959  0.3140
  958MOL0     C29221   4.704   8.397   0.603  0.6826 -0.5377 -1.0682
  958MOL0     C29222   4.582   8.465   0.621  0.0900  0.1164  0.0536
  958MOL0     C29223   4.564   8.536   0.750  1.3601 -0.7481 -0.1038
  958MOL0     C29224   4.476   8.451   0.525  0.5460  0.3860  0.1184
  958MOL0     C29225   4.336   8.512   0.542 -0.0840  0.0444 -0.4170
  958MOL0     O29226   4.278   8.551   0.426  0.0113 -0.3349  0.4212
  958MOL0     C29227   4.168   8.631   0.423 -0.0877 -0.3288 -0.2571
  958MOL0     C29228   4.041   8.590   0.363  0.4740  0.0439 -0.2515
  958MOL0     C29229   3.932   8.682   0.387 -0.8118  0.6619  0.1578
  958MOL0     C29230   3.958   8.812   0.429 -0.8458  0.6514 -0.2334
  958MOL0     O29231   3.859   8.903   0.428  0.0177  0.6132 -0.1933
  958MOL0     C29232   3.850   9.024   0.508  0.1069  0.0407  0.3480
  958MOL0     C29233   3.717   9.090   0.471 -0.4535 -0.4367  0.5386
  958MOL0     C29234   3.650   9.152   0.594  0.7642  0.1114 -0.4758
  958MOL0     C29235   3.515   9.227   0.575  0.0240  0.0902  0.8230
  958MOL0     C29236   3.438   9.221   0.702  0.3747  0.5746 -0.1815
  958MOL0     C29237   3.490   9.314   0.816 -0.1459  0.1689 -0.2738
  958MOL0     C29238   3.397   9.288   0.938  0.6327  1.3265 -0.4541
  958MOL0     C29239   3.426   9.394   1.035  0.1956 -0.6168 -0.1094
  958MOL0    Cl29240   3.321   9.370   1.171  0.2438 -0.2181  0.0836
  958MOL0     C29241   4.090   8.851   0.473 -0.5904  0.4699  0.2348
  958MOL0     C29242   4.189   8.762   0.470 -1.0250 -0.1138 -0.0540
  958MOL0     O29243   4.290   8.526   0.656 -0.7353  0.3801 -0.0384
  958MOL0     C29244   4.505   8.385   0.399  0.5084  0.1357  0.0688
  958MOL0     C29245   4.640   8.336   0.378  0.6939 -0.6497  0.0335
  958MOL0     N29246   5.369   8.140   0.856  0.0613 -0.2680  0.7524
  958MOL0     N29247   5.473   8.073   0.907 -0.0589  0.2022 -0.3810
  958MOL0     C29248   5.784   8.057   2.023  0.0322  0.0465 -0.4096
  958MOL0     C29249   5.865   8.097   2.128 -0.8934  0.4290  0.6337
  958MOL0     C29250   6.265   8.289   2.327  0.8554 -0.0633  0.1946
  958MOL0     C29251   6.296   8.163   2.380  0.2254  0.3679  0.0234
  958MOL0     C29252   6.413   8.138   2.449 -1.1764 -0.1253  0.6309
  958MOL0     C29253   6.505   8.243   2.478  0.3162  0.4001 -0.9717
  958MOL0     O29254   6.608   8.218   2.564 -1.0338 -0.4094 -0.2164
  958MOL0     C29255   6.646   8.317   2.667 -0.5114 -0.1233  0.6648
  958MOL0     C29256   6.785   8.363   2.638  0.4243  0.2279  0.4613
  958MOL0     C29257   6.880   8.243   2.660 -0.1102  0.3284  0.1134
  958MOL0     C29258   7.030   8.289   2.666  0.6069  0.6035  0.1450
  958MOL0     C29259   7.065   8.345   2.797 -0.4653  0.2649  0.6863
  958MOL0     C29260   7.098   8.398   2.911 -0.1099 -0.3730  0.6355
  958MOL0     C29261   6.468   8.372   2.431  0.2953  0.3297  0.1279
  958MOL0     C29262   6.353   8.397   2.353  0.8692  0.0385  0.4093
  958MOL0     H29263   6.100   8.274   1.959  0.3532 -0.0993  1.2774
  958MOL0     H29264   5.921   8.238   1.775 -0.3359  0.0007 -0.5620
  958MOL0     H29265   5.654   7.907   1.821 -0.2497  0.6186 -1.1009
  958MOL0     H29266   5.539   8.043   1.875 -1.4728 -0.0834  0.3535
  958MOL0     H29267   5.450   7.917   1.680  2.0515 -2.3961  0.4962
  958MOL0     H29268   5.503   8.081   1.627 -2.0087  0.0569  0.8180
  958MOL0     H29269   5.708   7.987   1.521  0.1465 -0.7464 -1.5037
  958MOL0     H29270   5.670   7.835   1.589 -0.1529  1.7584  0.3375
  958MOL0     H29271   5.472   7.808   1.470 -2.8478  2.8578  2.4870
  958MOL0     H29272   5.481   7.972   1.393  0.2259 -1.3212 -1.6985
  958MOL0     H29273   5.703   7.907   1.283 -0.7898  1.1123 -0.5106
  958MOL0     H29274   5.663   7.742   1.308 -1.3100 -0.9787 -4.5471
  958MOL0     H29275   5.459   7.773   1.172 -0.8878 -0.5456 -3.0721
  958MOL0     H29276   5.485   7.940   1.161 -2.1755 -0.1770 -2.0150
  958MOL0     H29277   5.706   7.901   1.048 -1.8845  1.6887  2.4726
  958MOL0     H29278   5.682   7.728   1.067 -0.6156 -0.6011 -1.2488
  958MOL0     H29279   5.482   7.728   0.911  0.3075  0.2268  0.9827
  958MOL0     H29280   5.608   7.811   0.839  2.0229 -0.5674  0.9450
  958MOL0     H29281   5.276   7.834   0.803  1.8062 -1.2813  0.7870
  958MOL0     H29282   5.091   7.999   0.708  2.2639 -0.5250 -0.6623
  958MOL0     H29283   5.097   8.146   0.794  2.6597  0.8743  1.2849
  958MOL0     H29284   5.259   8.094   0.541 -0.6580 -1.1150  1.3060
  958MOL0     H29285   5.228   8.260   0.624 -2.6785  1.7362  0.7362
  958MOL0     H29286   5.033   8.068   0.491  2.1003 -1.3312 -2.0078
  958MOL0     H29287   5.117   8.194   0.407  5.1457  0.5218  1.9576
  958MOL0     H29288   5.006   8.369   0.555 -0.6423  0.0355  0.1803
  958MOL0     H29289   4.927   8.234   0.642  1.9762 -0.4403  0.6409
  958MOL0     H29290   4.773   8.401   0.687  1.3518  0.6634 -1.6504
  958MOL0     H29291   4.605   8.479   0.834  1.7689  1.1625  1.0605
  958MOL0     H29292   4.633   8.621   0.744  0.9046 -0.0718  2.7203
  958MOL0     H29293   4.468   8.580   0.777  0.9378 -3.3033  3.1374
  958MOL0     H29294   4.028   8.491   0.321  2.4707  0.2909 -1.5884
  958MOL0     H29295   3.829   8.655   0.368 -0.1605 -2.2663  0.2251
  958MOL0     H29296   3.852   9.001   0.615 -2.9615  0.9359  0.6952
  958MOL0     H29297   3.938   9.074   0.468 -0.6546 -0.4823 -2.1323
  958MOL0     H29298   3.746   9.169   0.402  1.3423  1.0329  2.8325
  958MOL0     H29299   3.641   9.023   0.430 -1.6482  0.2620  1.5307
  958MOL0     H29300   3.720   9.214   0.652  1.2661 -0.5065 -0.4097
  958MOL0     H29301   3.644   9.067   0.663  2.1540  0.2806 -0.1183
  958MOL0     H29302   3.523   9.328   0.534  2.5206  0.4741  2.0558
  958MOL0     H29303   3.460   9.170   0.500 -0.8235  1.4643  0.3811
  958MOL0     H29304   3.446   9.115   0.729 -0.6553  0.2149 -1.2426
  958MOL0     H29305   3.335   9.245   0.677 -0.8454 -2.0650  1.8208
  958MOL0     H29306   3.591   9.280   0.839  0.3110  0.2784 -1.9926
  958MOL0     H29307   3.498   9.419   0.787  0.3095  0.1748 -0.1264
  958MOL0     H29308   3.415   9.193   0.989 -1.2006  1.9427  1.5218
  958MOL0     H29309   3.292   9.295   0.909 -0.3730 -2.8943  1.2893
  958MOL0     H29310   3.390   9.485   0.987 -1.4097 -1.3875 -0.4398
  958MOL0     H29311   3.532   9.402   1.064 -0.0483  2.9438  0.3394
  958MOL0     H29312   4.106   8.954   0.505 -1.1986  0.5790  0.2012
  958MOL0     H29313   4.289   8.778   0.508 -1.2486 -3.4944  2.4489
  958MOL0     H29314   4.424   8.371   0.327 -0.7332  0.5298  1.3492
  958MOL0     H29315   4.648   8.293   0.279  0.4085 -0.0212 -0.2645
  958MOL0     H29316   5.708   7.979   2.033  1.2122 -0.9963  1.0263
  958MOL0     H29317   5.845   8.045   2.221 -0.0599 -4.0689 -1.4245
  958MOL0     H29318   6.244   8.075   2.342  0.9066  0.4193 -1.0979
  958MOL0     H29319   6.435   8.034   2.472 -0.0949 -0.2115 -0.6768
  958MOL0     H29320   6.569   8.394   2.664 -1.7091 -1.3050 -1.5848
  958MOL0     H29321   6.636   8.267   2.764 -0.0874 -0.4845  0.5287
  958MOL0     H29322   6.806   8.448   2.703 -0.8450  0.8132  0.1297
  958MOL0     H29323   6.799   8.397   2.535 -3.6268 -0.2166 -0.4077
  958MOL0     H29324   6.861   8.168   2.582  0.6959  0.1518  0.0758
  958MOL0     H29325   6.848   8.194   2.752  0.7116  2.1074  1.3923
  958MOL0     H29326   7.041   8.359   2.582  1.3252 -0.1030 -0.3674
  958MOL0     H29327   7.100   8.209   2.639  4.4564  3.1569  1.7221
  958MOL0     H29328   7.111   8.444   3.007 -1.8376  0.3044  0.5869
  958MOL0     H29329   6.526   8.457   2.467 -2.5331  0.9089  4.0621
  958MOL0     H29330   6.339   8.499   2.319  1.0398 -0.2140 -0.4174
  959MOL0     O29331   8.642   7.260   8.446 -0.6357 -0.0473 -0.3597
  959MOL0     C29332   8.630   7.382   8.452 -1.0879  0.8947 -0.3698
  959MOL0     O29333   8.590   7.466   8.354 -0.3353  0.1376  1.0210
  959MOL0     C29334   8.546   7.426   8.227 -0.4245  0.5319 -0.2026
  959MOL0     C29335   8.600   7.310   8.158  0.1976  0.1903  0.7292
  959MOL0     C29336   8.554   7.282   8.029 -0.7907  0.3184  0.1265
  959MOL0     C29337   8.454   7.363   7.972  0.0790 -0.1883  0.2400
  959MOL0     O29338   8.413   7.338   7.842  0.0580 -0.8073  0.8731
  959MOL0     C29339   8.276   7.300   7.831 -0.1474  0.4427 -0.5282
  959MOL0     C29340   8.238   7.181   7.921 -0.2089 -0.4586  0.8204
  959MOL0     C29341   8.102   7.124   7.902  0.3808 -0.0311 -0.9435
  959MOL0     C29342   8.101   6.999   7.988  0.2568  0.3206 -0.3474
  959MOL0     C29343   7.966   6.934   7.992  0.1959  0.3067 -0.0814
  959MOL0     C29344   7.911   6.871   7.864 -0.2032  0.0217  0.2220
  959MOL0     C29345   7.772   6.816   7.887 -0.1108  0.8304  0.0560
  959MOL0     C29346   7.773   6.695   7.972 -0.9654  0.0540 -0.0590
  959MOL0     N29347   7.645   6.637   7.993 -0.7489 -0.2085 -0.0899
  959MOL0     C29348   7.541   6.712   8.050  0.8542  0.6414  0.4922
  959MOL0     C29349   7.438   6.630   8.059 -0.0341  0.4072  0.4237
  959MOL0     C29350   7.317   6.670   8.139 -0.5077 -0.3700 -0.3080
  959MOL0     C29351   7.180   6.629   8.077  0.0371 -0.0417  0.0468
  959MOL0     C29352   7.071   6.707   8.147  0.6908  0.1234  0.1706
  959MOL0     C29353   6.926   6.672   8.097 -0.2854 -0.2727 -0.1387
  959MOL0     O29354   6.826   6.657   8.199  0.3413  0.0149 -0.8158
  959MOL0     C29355   6.699   6.624   8.174  0.4061 -0.2280 -0.4640
  959MOL0     C29356   6.619   6.610   8.286  0.1366 -0.2442  0.7244
  959MOL0     C29357   6.484   6.586   8.282 -1.1684 -0.1180  0.3926
  959MOL0     C29358   6.415   6.546   8.397 -0.0945 -0.0942 -0.5202
  959MOL0     C29359   6.425   6.590   8.148  0.4601 -0.2586 -0.7755
  959MOL0     C29360   6.277   6.579   8.123 -0.4092  0.3011 -0.3375
  959MOL0     O29361   6.199   6.572   8.237 -0.6146 -0.7439 -0.0712
  959MOL0     C29362   6.061   6.558   8.217  0.8557 -0.8512 -0.8998
  959MOL0     C29363   6.001   6.459   8.288  0.1631  0.3577  0.3561
  959MOL0     C29364   5.861   6.455   8.287  0.0125 -0.1948 -0.2584
  959MOL0     C29365   5.786   6.554   8.219 -0.4349 -0.1456  0.5835
  959MOL0     O29366   5.650   6.553   8.217 -0.1400  0.0091  0.1649
  959MOL0     C29367   5.582   6.426   8.192  0.5521 -0.0166 -0.2999
  959MOL0     C29368   5.436   6.458   8.187  0.3987 -0.2656  0.6035
  959MOL0     C29369   5.366   6.340   8.154 -0.8324  0.6939 -0.3898
  959MOL0     C29370   5.216   6.367   8.169  0.5986 -0.1321 -0.3302
  959MOL0     C29371   5.138   6.235   8.171  0.0897  1.1562  0.0384
  959MOL0     C29372   4.988   6.264   8.188  1.0849  0.1587  0.4209
  959MOL0     C29373   4.919   6.129   8.169  0.3508  0.0086 -0.2855
  959MOL0     C29374   4.768   6.139   8.168  0.2760 -0.9072  0.2931
  959MOL0    Cl29375   4.688   5.982   8.146  0.5169  0.0616 -0.2026
  959MOL0     C29376   5.847   6.654   8.136 -0.4210 -0.7858  0.0094
  959MOL0     C29377   5.987   6.659   8.145  0.3699  0.1698  0.1414
  959MOL0     O29378   6.239   6.583   8.002 -0.0787  0.0268 -0.1580
  959MOL0     C29379   6.507   6.606   8.035 -0.0920  0.0688  0.1110
  959MOL0     C29380   6.645   6.621   8.044  0.5487  0.0190 -0.6155
  959MOL0     N29381   7.474   6.506   7.994  0.0839 -0.0584  0.3891
  959MOL0     N29382   7.605   6.515   7.955  0.2267  0.1444  0.3006
  959MOL0     C29383   8.396   7.469   8.043 -0.2724  0.0472 -0.6996
  959MOL0     C29384   8.447   7.498   8.172  0.0967 -0.1154  0.0816
  959MOL0     C29385   8.667   7.444   8.579  0.2299 -0.6137 -0.7422
  959MOL0     C29386   8.638   7.580   8.599 -0.1579 -0.6437  0.6885
  959MOL0     C29387   8.679   7.642   8.720  0.6923  0.1944  0.3101
  959MOL0     C29388   8.749   7.575   8.817  0.1851 -0.9842 -0.3747
  959MOL0     O29389   8.768   7.644   8.937  0.4019 -0.2958 -0.2229
  959MOL0     C29390   8.874   7.599   9.019  0.2802  0.2039  0.6527
  959MOL0     C29391   9.013   7.631   8.956  0.5764 -0.1424 -0.1376
  959MOL0     C29392   9.031   7.783   8.925  0.5809  0.8573 -0.0823
  959MOL0     C29393   9.173   7.815   8.871 -0.8503 -0.6649 -0.4684
  959MOL0     C29394   9.263   7.866   8.981 -0.4290 -0.4526 -0.0736
  959MOL0     C29395   9.338   7.916   9.062  0.1505 -0.4381 -0.8699
  959MOL0     C29396   8.791   7.445   8.794 -0.9400  0.0041  0.5748
  959MOL0     C29397   8.750   7.373   8.673 -0.4471 -0.3541 -0.4561
  959MOL0     H29398   8.686   7.258   8.200  0.3514  0.9517  1.3642
  959MOL0     H29399   8.604   7.207   7.969 -1.3045 -0.2855  0.4384
  959MOL0     H29400   8.215   7.390   7.845 -0.1746  0.2469  0.7971
  959MOL0     H29401   8.258   7.268   7.728  1.5191 -2.1645 -0.1249
  959MOL0     H29402   8.304   7.102   7.884 -1.3788  0.1150 -2.8386
  959MOL0     H29403   8.263   7.209   8.024 -1.0045 -1.0312  1.1795
  959MOL0     H29404   8.035   7.204   7.934  1.0106 -1.0054  3.5339
  959MOL0     H29405   8.088   7.100   7.796 -1.9140  0.9023 -0.9056
  959MOL0     H29406   8.169   6.927   7.941  0.4231  1.2452 -1.5779
  959MOL0     H29407   8.136   7.008   8.092 -0.6450 -4.3779  0.6143
  959MOL0     H29408   7.964   6.855   8.068  0.9055  0.4813  0.1275
  959MOL0     H29409   7.900   7.015   8.025 -0.3682  0.5998 -1.8553
  959MOL0     H29410   7.913   6.951   7.790  3.0728 -3.2157 -3.7190
  959MOL0     H29411   7.975   6.797   7.814  1.2548  1.8328 -0.6891
  959MOL0     H29412   7.711   6.893   7.934  1.1187  0.5965  2.1952
  959MOL0     H29413   7.724   6.795   7.792  2.3364 -0.1410 -1.0636
  959MOL0     H29414   7.809   6.716   8.073  2.8536 -4.2661 -0.1780
  959MOL0     H29415   7.841   6.618   7.934 -0.4585 -0.6405  2.1047
  959MOL0     H29416   7.547   6.809   8.098  1.6036  0.7962  0.0991
  959MOL0     H29417   7.318   6.635   8.243  0.3255  1.6310  0.4109
  959MOL0     H29418   7.324   6.777   8.158  0.9242 -0.0695 -2.3403
  959MOL0     H29419   7.159   6.522   8.090 -0.0502 -0.2415 -1.4835
  959MOL0     H29420   7.179   6.656   7.971  3.0282  0.4088  0.0649
  959MOL0     H29421   7.088   6.816   8.144 -0.1674  0.2451 -2.5109
  959MOL0     H29422   7.076   6.685   8.254 -1.5872  0.1881  0.3213
  959MOL0     H29423   6.922   6.580   8.038 -1.2805 -1.5040  1.7609
  959MOL0     H29424   6.885   6.753   8.036 -0.0465  1.9782  2.5068
  959MOL0     H29425   6.673   6.623   8.379  0.2204  3.1979  0.3448
  959MOL0     H29426   6.367   6.450   8.374  0.0698  0.5039 -3.7757
  959MOL0     H29427   6.484   6.517   8.478 -2.1494  0.3892  1.5045
  959MOL0     H29428   6.348   6.627   8.425  3.8086  2.5348  2.1566
  959MOL0     H29429   6.058   6.372   8.318 -1.3030 -1.4931 -1.7880
  959MOL0     H29430   5.810   6.375   8.339  2.9864 -2.0491  0.0367
  959MOL0     H29431   5.611   6.393   8.091  0.1620  2.6546 -1.3630
  959MOL0     H29432   5.602   6.346   8.264 -4.0649 -0.8196  0.3967
  959MOL0     H29433   5.402   6.496   8.284  0.3273  0.1472  0.4180
  959MOL0     H29434   5.404   6.530   8.111 -0.3408 -0.3288  0.8396
  959MOL0     H29435   5.403   6.257   8.216  1.8463  3.3353  1.8798
  959MOL0     H29436   5.383   6.308   8.051 -2.0078  1.8838 -0.9699
  959MOL0     H29437   5.198   6.422   8.262  1.1295  1.1330 -0.9595
  959MOL0     H29438   5.189   6.431   8.085 -1.6820  2.1759  1.9598
  959MOL0     H29439   5.170   6.158   8.242 -1.3570 -1.9317 -2.3942
  959MOL0     H29440   5.160   6.188   8.074 -0.0586  1.5265 -0.1766
  959MOL0     H29441   4.964   6.294   8.291  1.1736  1.2212  0.1454
  959MOL0     H29442   4.964   6.338   8.111 -0.5221 -0.6877  0.0528
  959MOL0     H29443   4.957   6.057   8.242 -0.4833  0.2828  0.4327
  959MOL0     H29444   4.947   6.084   8.073 -3.0411 -3.5205  0.1434
  959MOL0     H29445   4.739   6.212   8.092  0.1024  0.9163  2.0290
  959MOL0     H29446   4.733   6.176   8.264 -0.3379 -4.0814  1.4116
  959MOL0     H29447   5.787   6.726   8.083  2.7116  0.0593 -2.7477
  959MOL0     H29448   6.034   6.735   8.085 -0.0582 -0.6415 -1.2957
  959MOL0     H29449   6.464   6.591   7.936  0.0460 -0.3020  0.1049
  959MOL0     H29450   6.706   6.627   7.954 -2.2982 -0.8638 -2.7901
  959MOL0     H29451   8.313   7.521   7.998 -1.1905 -0.6744  0.0972
  959MOL0     H29452   8.396   7.580   8.223 -0.4565 -0.5153  0.1811
  959MOL0     H29453   8.595   7.638   8.519 -0.5325 -2.5755 -0.5704
  959MOL0     H29454   8.662   7.749   8.729  2.2481  0.4589  0.4585
  959MOL0     H29455   8.858   7.648   9.115  0.8416  2.5958 -0.3996
  959MOL0     H29456   8.866   7.490   9.032  0.7205 -0.0616 -1.0637
  959MOL0     H29457   9.025   7.572   8.865  0.1720  1.6535 -1.4105
  959MOL0     H29458   9.098   7.603   9.020  0.6210 -3.6151 -1.5329
  959MOL0     H29459   9.003   7.832   9.019  3.2472  1.3504  0.5323
  959MOL0     H29460   8.961   7.817   8.848 -0.6184  0.1131  0.6447
  959MOL0     H29461   9.171   7.884   8.786  2.3211 -2.3640 -2.0817
  959MOL0     H29462   9.214   7.720   8.835 -0.3144 -0.4095 -0.5465
  959MOL0     H29463   9.412   7.961   9.126 -1.4493  2.5345 -0.9424
  959MOL0     H29464   8.850   7.382   8.860 -0.8957  0.0001  0.5317
  959MOL0     H29465   8.785   7.272   8.659  0.1950 -0.4530  1.4741
  960MOL0     O29466   0.714   0.543   2.787 -0.0444 -0.4272  0.2917
  960MOL0     C29467   0.750   0.430   2.762  0.0644  0.2762  0.6669
  960MOL0     O29468   0.756   0.380   2.637 -0.0786 -0.0100  0.0975
  960MOL0     C29469   0.712   0.443   2.529  0.2241 -0.3693 -1.0371
  960MOL0     C29470   0.581   0.434   2.485  0.1203  0.7998  0.0024
  960MOL0     C29471   0.531   0.504   2.371  0.1540  0.2311 -0.2147
  960MOL0     C29472   0.613   0.597   2.310  0.5438 -0.5331 -0.7912
  960MOL0     O29473   0.560   0.659   2.197  0.2124  0.5229 -0.1402
  960MOL0     C29474   0.591   0.797   2.183 -0.6305  0.3034 -0.2266
  960MOL0     C29475   0.513   0.863   2.077  0.2271  0.1097  1.0517
  960MOL0     C29476   0.370   0.876   2.112  0.6266 -0.8745  0.0426
  960MOL0     C29477   0.285   0.964   2.021 -0.3153 -0.3641 -0.1230
  960MOL0     C29478   0.141   0.971   2.079  0.4010  0.2046  0.0678
  960MOL0     C29479   0.047   1.052   1.981  0.4326 -0.2726 -0.6198
  960MOL0     C29480  -0.087   1.094   2.045 -0.2672  0.4538  0.2199
  960MOL0     C29481  -0.154   1.175   1.941 -0.1954  0.0865 -0.4071
  960MOL0     N29482  -0.280   1.215   2.007  0.4732 -0.1145 -0.6735
  960MOL0     C29483  -0.310   1.347   2.048 -0.1627 -0.6652  0.2814
  960MOL0     C29484  -0.439   1.337   2.096  0.5835 -0.7633  0.0704
  960MOL0     C29485  -0.523   1.441   2.163 -0.3692 -1.2496 -0.3567
  960MOL0     C29486  -0.489   1.594   2.146 -0.0232  0.6533 -0.2679
  960MOL0     C29487  -0.463   1.640   2.003 -0.0082  0.5145  0.0413
  960MOL0     C29488  -0.559   1.607   1.906  0.2588 -0.2974  0.0230
  960MOL0     O29489  -0.683   1.673   1.946 -0.4942 -0.3021 -0.3156
  960MOL0     C29490  -0.796   1.610   1.905  0.0327  0.1383  0.4317
  960MOL0     C29491  -0.812   1.536   1.788 -0.3953  0.1278 -0.2040
  960MOL0     C29492  -0.938   1.486   1.736 -0.7559  0.7116  0.2675
  960MOL0     C29493  -0.931   1.406   1.602  0.0084  0.1475  0.7545
  960MOL0     C29494  -1.055   1.506   1.812 -0.1594 -1.0564  0.1624
  960MOL0     C29495  -1.190   1.450   1.771  0.2960  1.0166 -0.3592
  960MOL0     O29496  -1.296   1.487   1.860  0.6246 -0.5773 -0.1363
  960MOL0     C29497  -1.427   1.468   1.818  1.6766  0.6236 -0.6307
  960MOL0     C29498  -1.489   1.552   1.718 -0.2786  0.0493 -0.4195
  960MOL0     C29499  -1.624   1.536   1.684 -0.2078 -0.1785 -0.8767
  960MOL0     C29500  -1.691   1.433   1.745  0.2282  0.3031  0.8370
  960MOL0     O29501  -1.818   1.414   1.696 -1.1436  0.0247  0.3040
  960MOL0     C29502  -1.920   1.415   1.791 -0.4725 -0.0007 -0.6056
  960MOL0     C29503  -2.046   1.441   1.731  1.0477  0.3823 -0.2840
  960MOL0     C29504  -2.146   1.488   1.834  0.4221 -0.4237  0.0308
  960MOL0     C29505  -2.290   1.440   1.795  0.4005 -0.1565  0.3275
  960MOL0     C29506  -2.390   1.479   1.901 -0.4073  0.6986 -1.1615
  960MOL0     C29507  -2.541   1.442   1.871  0.0230  0.2817 -0.2242
  960MOL0     C29508  -2.562   1.285   1.898  0.1941 -0.6112 -1.0213
  960MOL0     C29509  -2.716   1.252   1.884 -0.1097  0.4359 -0.6918
  960MOL0    Cl29510  -2.790   1.276   1.730  0.2965  0.0475  0.2519
  960MOL0     C29511  -1.634   1.355   1.848  0.2488  0.9116  0.3220
  960MOL0     C29512  -1.502   1.365   1.879  0.2381 -0.3907  0.6243
  960MOL0     O29513  -1.205   1.382   1.669 -0.2036  0.7016 -0.4399
  960MOL0     C29514  -1.038   1.589   1.923 -0.5465 -0.1201  0.5880
  960MOL0     C29515  -0.917   1.637   1.965  0.3219 -0.0539 -0.1535
  960MOL0     N29516  -0.485   1.203   2.090 -0.2372  0.3657  1.7623
  960MOL0     N29517  -0.387   1.135   2.033 -0.5445  0.2592  0.0750
  960MOL0     C29518   0.742   0.601   2.357 -0.0357 -0.3545  0.0061
  960MOL0     C29519   0.789   0.532   2.463 -0.2414  0.1644  0.9033
  960MOL0     C29520   0.817   0.345   2.868 -1.5103 -0.2916 -0.5134
  960MOL0     C29521   0.857   0.211   2.847  0.5290 -0.2931  0.3722
  960MOL0     C29522   0.918   0.136   2.950  0.4004 -0.0614 -0.2797
  960MOL0     C29523   0.944   0.199   3.073 -0.1033  0.0857  0.3232
  960MOL0     O29524   0.995   0.114   3.163 -0.2542  0.2239 -0.3504
  960MOL0     C29525   1.009   0.168   3.299  0.3373 -0.1272  0.2288
  960MOL0     C29526   1.101   0.081   3.374 -0.5833  0.1266  0.4064
  960MOL0     C29527   1.244   0.074   3.306 -0.4541  0.6862  0.5604
  960MOL0     C29528   1.347   0.043   3.414 -0.4684 -0.0682  1.1381
  960MOL0     C29529   1.476   0.032   3.339 -0.0971 -0.7714 -0.5272
  960MOL0     C29530   1.577   0.014   3.281 -0.1378 -0.5266  0.2540
  960MOL0     C29531   0.910   0.336   3.092 -0.1605  0.0524 -0.2524
  960MOL0     C29532   0.843   0.399   2.991  0.2804  0.5912  0.3120
  960MOL0     H29533   0.520   0.378   2.556 -2.7063  0.9645 -2.0926
  960MOL0     H29534   0.425   0.491   2.351 -0.5045  1.1007  2.3238
  960MOL0     H29535   0.595   0.843   2.282  3.1154 -0.8709  0.3196
  960MOL0     H29536   0.694   0.809   2.148 -1.1606  1.5120 -1.4370
  960MOL0     H29537   0.559   0.961   2.063 -0.2776  0.4679  1.8312
  960MOL0     H29538   0.523   0.812   1.980  1.4692  0.4277  1.0056
  960MOL0     H29539   0.332   0.774   2.123  1.0594 -1.1346 -0.8204
  960MOL0     H29540   0.360   0.919   2.212 -0.6601 -0.2881 -0.3238
  960MOL0     H29541   0.324   1.066   2.023  1.9587 -1.1694  0.2003
  960MOL0     H29542   0.286   0.928   1.918  3.3679 -0.8775 -0.0291
  960MOL0     H29543   0.102   0.870   2.092  0.5281  0.2603  0.9256
  960MOL0     H29544   0.141   1.010   2.181 -1.9004  0.8115 -0.1025
  960MOL0     H29545   0.106   1.140   1.951 -0.7980  1.4066  1.5786
  960MOL0     H29546   0.027   1.000   1.886  1.2856  1.6986 -1.9561
  960MOL0     H29547  -0.147   1.007   2.072  0.8972 -0.6123 -0.5154
  960MOL0     H29548  -0.069   1.146   2.140  1.6359  0.3150 -0.0266
  960MOL0     H29549  -0.169   1.120   1.847 -0.9358 -0.6929  0.1539
  960MOL0     H29550  -0.097   1.265   1.915 -2.3190  0.9140 -2.7278
  960MOL0     H29551  -0.249   1.436   2.038 -0.1396 -0.7266 -0.1257
  960MOL0     H29552  -0.626   1.424   2.128 -1.1953  1.3147  0.5556
  960MOL0     H29553  -0.530   1.429   2.272  0.5675  1.6709  0.1145
  960MOL0     H29554  -0.404   1.615   2.211 -2.2357  1.8885  2.4519
  960MOL0     H29555  -0.574   1.648   2.188 -0.6857 -0.8638  0.4235
  960MOL0     H29556  -0.370   1.585   1.983  0.7838  1.9958 -0.4849
  960MOL0     H29557  -0.449   1.748   1.994  0.3704  0.3058 -3.4360
  960MOL0     H29558  -0.563   1.497   1.911  4.7419 -0.6293  0.9834
  960MOL0     H29559  -0.523   1.643   1.810  1.3218  3.0338  1.5327
  960MOL0     H29560  -0.731   1.518   1.718  1.4864 -1.8500  2.2893
  960MOL0     H29561  -0.989   1.448   1.519 -0.5372 -2.4581 -0.2845
  960MOL0     H29562  -0.830   1.402   1.561 -0.1549  0.7699  0.2790
  960MOL0     H29563  -0.966   1.304   1.622 -2.5453  1.2304  2.1858
  960MOL0     H29564  -1.420   1.625   1.677  0.2497  0.4053  1.0414
  960MOL0     H29565  -1.676   1.597   1.611  2.7621  2.1615 -1.2040
  960MOL0     H29566  -1.918   1.312   1.827  0.4763 -0.1955 -1.2002
  960MOL0     H29567  -1.893   1.490   1.867 -2.2290 -1.3008  1.4166
  960MOL0     H29568  -2.038   1.520   1.656 -0.4747  0.6473 -0.1948
  960MOL0     H29569  -2.073   1.346   1.683  0.5751  0.2359  0.2655
  960MOL0     H29570  -2.137   1.597   1.842 -2.2632 -0.1901  0.6984
  960MOL0     H29571  -2.116   1.441   1.928  0.0751 -0.6477  0.0327
  960MOL0     H29572  -2.317   1.485   1.699  0.9314 -0.4564  0.0288
  960MOL0     H29573  -2.284   1.332   1.777 -0.2366 -0.3774  1.3311
  960MOL0     H29574  -2.381   1.587   1.910  0.5828  0.5862 -0.6348
  960MOL0     H29575  -2.356   1.428   1.992  1.2448  0.8149 -1.6787
  960MOL0     H29576  -2.599   1.515   1.929 -0.1569  0.9465 -1.2268
  960MOL0     H29577  -2.565   1.463   1.767 -0.8111  1.6932  0.2345
  960MOL0     H29578  -2.539   1.260   2.002 -1.0837  0.9202 -0.3270
  960MOL0     H29579  -2.501   1.231   1.825  2.2768  1.1676 -0.7243
  960MOL0     H29580  -2.767   1.307   1.964 -1.5775  0.5054 -1.6374
  960MOL0     H29581  -2.738   1.147   1.904 -2.2218  0.6994 -1.3586
  960MOL0     H29582  -1.697   1.280   1.894 -0.5502  1.4566  0.1482
  960MOL0     H29583  -1.465   1.301   1.958 -2.0975 -3.1642 -0.3737
  960MOL0     H29584  -1.130   1.611   1.978 -0.0044  0.0205  1.4598
  960MOL0     H29585  -0.927   1.699   2.054 -2.1814  1.6131 -1.4663
  960MOL0     H29586   0.796   0.681   2.306 -1.5696  0.6432 -0.1009
  960MOL0     H29587   0.895   0.546   2.483  0.7641 -2.6766 -1.6251
  960MOL0     H29588   0.853   0.158   2.752  1.2149 -1.0602  0.7595
  960MOL0     H29589   0.961   0.038   2.932  1.7741  0.9776 -3.3954
  960MOL0     H29590   1.049   0.269   3.310 -1.2268  0.3483  2.3531
  960MOL0     H29591   0.910   0.163   3.345  1.0809  1.0458  2.0584
  960MOL0     H29592   1.077  -0.025   3.385  3.6961 -1.0325  0.4623
  960MOL0     H29593   1.110   0.127   3.473 -0.3071 -0.3187  0.5922
  960MOL0     H29594   1.264   0.167   3.253  0.0650 -0.2179 -0.8879
  960MOL0     H29595   1.251  -0.011   3.237  3.4791 -0.0875  1.6535
  960MOL0     H29596   1.332  -0.057   3.457  3.0530  0.3778  3.8702
  960MOL0     H29597   1.343   0.126   3.485  0.3162  1.2548 -0.3070
  960MOL0     H29598   1.670  -0.002   3.231 -1.2951  1.3023 -2.7630
  960MOL0     H29599   0.919   0.389   3.186 -1.8992 -0.5406  0.2859
  960MOL0     H29600   0.812   0.502   3.006  2.1528  1.5281 -1.6188
  961MOL0     O29601   7.529   1.339   4.850 -0.0886 -0.2004 -0.0855
  961MOL0     C29602   7.601   1.371   4.949 -0.2589  0.1962  1.0990
  961MOL0     O29603   7.586   1.483   5.020 -0.0746  0.0554 -0.2745
  961MOL0     C29604   7.484   1.569   4.989 -0.0356  0.6954  0.7146
  961MOL0     C29605   7.364   1.535   5.050 -0.6661 -0.3385 -1.1691
  961MOL0     C29606   7.252   1.622   5.045 -0.3763  0.1858 -0.0403
  961MOL0     C29607   7.263   1.750   4.971  0.1975  0.0991  0.0104
  961MOL0     O29608   7.162   1.841   4.959  0.0286 -0.3193  0.3328
  961MOL0     C29609   7.085   1.851   5.075  1.3383 -0.1223 -0.1331
  961MOL0     C29610   7.010   1.982   5.062 -0.2295  0.2635 -0.4214
  961MOL0     C29611   6.896   1.996   5.170  0.3256  0.0966 -0.2265
  961MOL0     C29612   6.829   2.125   5.150  0.0666  0.3979 -0.0404
  961MOL0     C29613   6.695   2.127   5.233  0.2701 -0.5268 -0.2056
  961MOL0     C29614   6.625   2.266   5.229  0.2041 -0.0442  0.2696
  961MOL0     C29615   6.509   2.273   5.325  0.4384  0.6176 -0.4175
  961MOL0     C29616   6.422   2.394   5.304  0.1708 -0.5021 -0.1678
  961MOL0     N29617   6.494   2.516   5.326  0.1352 -0.3261  0.9968
  961MOL0     C29618   6.579   2.541   5.427 -0.5621  0.3902 -0.5533
  961MOL0     C29619   6.595   2.673   5.435 -1.4835  0.2028  0.0812
  961MOL0     C29620   6.717   2.736   5.512  0.5959 -0.0534  1.2330
  961MOL0     C29621   6.824   2.813   5.433  0.6517 -0.3404 -0.5218
  961MOL0     C29622   6.927   2.724   5.360  0.3063  0.8871 -0.3696
  961MOL0     C29623   6.872   2.684   5.224  1.0435  0.1675 -0.0424
  961MOL0     O29624   6.974   2.627   5.146 -0.3739  0.2413  0.0154
  961MOL0     C29625   6.942   2.522   5.061 -0.7762 -0.8731  0.4214
  961MOL0     C29626   6.825   2.496   4.989  0.0131  0.0745 -0.3097
  961MOL0     C29627   6.814   2.396   4.894 -0.1681 -0.3515  0.3950
  961MOL0     C29628   6.685   2.383   4.822 -0.9186 -0.1535  1.0926
  961MOL0     C29629   6.928   2.312   4.869  0.7354 -0.1046  0.0573
  961MOL0     C29630   6.923   2.188   4.782 -0.7494 -0.3920 -0.4647
  961MOL0     O29631   7.056   2.151   4.748  0.2065 -0.5680  0.7755
  961MOL0     C29632   7.087   2.041   4.656  0.0022 -0.7345 -0.7372
  961MOL0     C29633   7.224   2.036   4.619  0.2258 -0.7519  0.6219
  961MOL0     C29634   7.261   1.953   4.521 -0.0622 -1.1513  0.4837
  961MOL0     C29635   7.174   1.870   4.455  1.0379 -1.0002  0.2266
  961MOL0     O29636   7.213   1.806   4.343 -0.5298  0.1447  0.2991
  961MOL0     C29637   7.194   1.664   4.353  0.1673 -0.1782  0.3949
  961MOL0     C29638   7.266   1.604   4.474  0.3823 -0.3805  0.2146
  961MOL0     C29639   7.411   1.650   4.463  0.1794  0.1976 -0.5199
  961MOL0     C29640   7.503   1.578   4.552  0.3742  0.0283 -0.2041
  961MOL0     C29641   7.651   1.607   4.519 -0.0319  0.6343 -0.6327
  961MOL0     C29642   7.742   1.500   4.583  0.0586 -0.0751 -0.6516
  961MOL0     C29643   7.884   1.553   4.615 -0.8236 -0.1246 -0.2886
  961MOL0     C29644   7.986   1.440   4.666 -0.1016  0.2716 -1.3766
  961MOL0    Cl29645   7.999   1.296   4.549 -0.4939  0.2121  0.3745
  961MOL0     C29646   7.042   1.863   4.505  0.0867 -0.8882  0.1648
  961MOL0     C29647   7.000   1.940   4.611 -1.0902 -0.3322 -0.4361
  961MOL0     O29648   6.817   2.142   4.746 -0.7395  0.6605 -0.1415
  961MOL0     C29649   7.040   2.338   4.946  0.0973 -0.8383  0.0163
  961MOL0     C29650   7.048   2.443   5.031 -0.4450  0.0623 -0.1982
  961MOL0     N29651   6.531   2.737   5.326  0.7071  0.5663  0.1723
  961MOL0     N29652   6.472   2.641   5.267  1.4284 -0.0267 -0.4526
  961MOL0     C29653   7.378   1.778   4.898  0.2407 -0.0539 -0.9277
  961MOL0     C29654   7.489   1.691   4.913  0.8268 -0.0059 -0.5386
  961MOL0     C29655   7.720   1.287   4.970  0.5020 -0.3792 -0.3962
  961MOL0     C29656   7.744   1.156   4.925  0.6133 -0.7793 -0.1896
  961MOL0     C29657   7.870   1.097   4.951  0.2911  0.2386  0.8972
  961MOL0     C29658   7.965   1.155   5.029  0.1832  0.4418 -0.5450
  961MOL0     O29659   8.083   1.085   5.034  0.5637 -0.1504 -0.0647
  961MOL0     C29660   8.196   1.128   5.102 -0.1264  0.0378 -0.0935
  961MOL0     C29661   8.315   1.027   5.098  0.3420 -0.1600  0.0292
  961MOL0     C29662   8.420   1.085   5.184 -0.9772 -0.5084  0.4472
  961MOL0     C29663   8.539   0.985   5.188 -0.0115  0.2368  1.0863
  961MOL0     C29664   8.663   1.045   5.250  0.5812 -0.3450  0.5907
  961MOL0     C29665   8.758   1.099   5.304 -0.1909  0.8912  0.8673
  961MOL0     C29666   7.935   1.275   5.083 -0.5405  0.6117  0.6623
  961MOL0     C29667   7.812   1.341   5.059 -0.1321 -0.5273  0.6007
  961MOL0     H29668   7.357   1.450   5.117 -1.2293  1.2202  0.8185
  961MOL0     H29669   7.160   1.595   5.096 -0.4693 -0.0982 -0.3547
  961MOL0     H29670   7.008   1.774   5.069  0.6884  0.5888 -1.4310
  961MOL0     H29671   7.139   1.840   5.170  0.3834 -1.1911  0.3165
  961MOL0     H29672   7.071   2.072   5.058 -2.2984  1.8004  0.4601
  961MOL0     H29673   6.958   1.979   4.966  0.5610  0.6449 -0.8708
  961MOL0     H29674   6.817   1.921   5.168 -0.8387  1.2909 -1.7600
  961MOL0     H29675   6.949   2.003   5.266 -2.1639  2.1214  1.1351
  961MOL0     H29676   6.897   2.209   5.168  0.3148 -0.0651  1.2765
  961MOL0     H29677   6.794   2.129   5.047  0.9957 -0.3311 -0.3985
  961MOL0     H29678   6.628   2.044   5.207  0.0372 -1.0354  1.8656
  961MOL0     H29679   6.717   2.104   5.337  1.0182  1.2611  0.0512
  961MOL0     H29680   6.700   2.344   5.245  0.9314  0.0292 -2.7736
  961MOL0     H29681   6.591   2.284   5.127  2.1622  2.7107 -0.0230
  961MOL0     H29682   6.454   2.179   5.310  2.2719 -0.5697 -0.0667
  961MOL0     H29683   6.553   2.276   5.425  0.3660  1.9590 -0.4164
  961MOL0     H29684   6.329   2.394   5.361  0.0044 -0.7917 -0.4334
  961MOL0     H29685   6.391   2.389   5.199  1.1281  1.2583 -0.5736
  961MOL0     H29686   6.631   2.464   5.483  0.6472  1.5828  0.0086
  961MOL0     H29687   6.687   2.797   5.598  1.2451 -0.2595  1.6090
  961MOL0     H29688   6.765   2.661   5.575  1.1632  0.4533  1.4186
  961MOL0     H29689   6.885   2.875   5.499 -0.1000 -1.7025  1.5573
  961MOL0     H29690   6.781   2.891   5.369  1.5299  0.4166 -0.2043
  961MOL0     H29691   6.953   2.642   5.428 -1.0298 -0.7637 -1.7292
  961MOL0     H29692   7.018   2.778   5.333  0.1230  0.3010 -2.3044
  961MOL0     H29693   6.842   2.776   5.173  1.8406 -0.2777 -1.3550
  961MOL0     H29694   6.784   2.618   5.231  0.6504  0.8036  1.3016
  961MOL0     H29695   6.730   2.545   5.012 -0.4161 -0.5623 -0.7054
  961MOL0     H29696   6.632   2.473   4.856 -1.3508 -0.4875  1.3181
  961MOL0     H29697   6.686   2.394   4.713  0.2973  1.4973  1.2359
  961MOL0     H29698   6.635   2.292   4.856  2.6138 -2.8458 -0.3471
  961MOL0     H29699   7.298   2.105   4.658 -0.1337  0.1635 -0.2576
  961MOL0     H29700   7.364   1.945   4.489 -0.1352  0.8792 -0.4047
  961MOL0     H29701   7.088   1.637   4.344  0.7227 -1.7175 -2.9110
  961MOL0     H29702   7.234   1.630   4.257  0.7041  2.5995 -0.4701
  961MOL0     H29703   7.223   1.639   4.568  1.3549 -1.4249  1.0938
  961MOL0     H29704   7.246   1.497   4.484  0.4407 -0.2418  2.2556
  961MOL0     H29705   7.427   1.756   4.484  1.4833  0.1469 -1.1242
  961MOL0     H29706   7.439   1.623   4.361  1.0397 -0.2372 -0.1814
  961MOL0     H29707   7.482   1.600   4.657  3.1963 -2.0350  0.8974
  961MOL0     H29708   7.485   1.471   4.543  2.5227 -0.5764  1.6786
  961MOL0     H29709   7.674   1.707   4.557 -4.9576  1.4848  0.8595
  961MOL0     H29710   7.665   1.607   4.410 -3.0052 -1.8566 -1.1595
  961MOL0     H29711   7.695   1.457   4.672  0.0323 -0.0255 -0.6416
  961MOL0     H29712   7.758   1.422   4.508 -1.1613 -0.6056 -0.3798
  961MOL0     H29713   7.871   1.624   4.697  1.6198 -0.8252  0.8138
  961MOL0     H29714   7.932   1.594   4.526  0.3108  0.2893  0.5003
  961MOL0     H29715   7.933   1.406   4.755 -1.0325  1.2209 -1.5503
  961MOL0     H29716   8.085   1.477   4.695 -0.3530 -2.5128  4.3723
  961MOL0     H29717   6.968   1.793   4.468  1.1264 -1.9004 -0.0547
  961MOL0     H29718   6.899   1.932   4.651 -0.6251 -2.1850  0.4741
  961MOL0     H29719   7.124   2.270   4.932 -0.8707 -2.4026  1.3854
  961MOL0     H29720   7.134   2.452   5.097 -0.6196  1.9847 -0.1894
  961MOL0     H29721   7.379   1.871   4.842 -2.4286 -0.6419 -2.1154
  961MOL0     H29722   7.578   1.721   4.858  0.1867  1.7559 -0.6840
  961MOL0     H29723   7.668   1.107   4.864 -1.3965  2.4232 -0.5163
  961MOL0     H29724   7.895   0.998   4.914 -3.7904 -1.2202  1.5370
  961MOL0     H29725   8.228   1.222   5.055  0.0700  1.1048  2.0466
  961MOL0     H29726   8.171   1.159   5.204 -1.1189 -0.1915 -0.2577
  961MOL0     H29727   8.346   0.999   4.997 -0.5573 -1.0637 -0.0109
  961MOL0     H29728   8.276   0.941   5.153  2.8458  0.1321  2.5230
  961MOL0     H29729   8.369   1.090   5.282 -2.1363 -0.1502 -0.1513
  961MOL0     H29730   8.449   1.179   5.137 -0.4609 -0.5812  0.6199
  961MOL0     H29731   8.559   0.948   5.087 -0.5679  2.3854  0.1359
  961MOL0     H29732   8.510   0.894   5.242  3.7768 -1.5151  0.4878
  961MOL0     H29733   8.845   1.118   5.364  1.2842 -2.4296  0.0367
  961MOL0     H29734   8.009   1.324   5.145  0.7692 -1.3097  0.7045
  961MOL0     H29735   7.798   1.433   5.114 -0.3296 -1.5770  2.4115
  962MOL0     O29736   1.959   3.925   8.215  0.1473  0.2762  0.3100
  962MOL0     C29737   2.052   3.888   8.285  1.1668  0.2654 -0.1845
  962MOL0     O29738   2.115   3.772   8.276 -0.6654 -0.3075 -0.1657
  962MOL0     C29739   2.065   3.670   8.195 -1.6036  0.0766 -0.0153
  962MOL0     C29740   2.161   3.598   8.119  0.3365 -0.8647  0.6357
  962MOL0     C29741   2.113   3.495   8.035  0.4813 -0.1026  0.0814
  962MOL0     C29742   1.977   3.455   8.036  0.4123 -0.1102  0.1326
  962MOL0     O29743   1.940   3.339   7.969 -0.1660 -0.0558  0.1980
  962MOL0     C29744   1.802   3.321   7.931 -0.2028 -0.1688  0.1796
  962MOL0     C29745   1.716   3.258   8.035  0.3919  0.5455 -1.3181
  962MOL0     C29746   1.568   3.252   7.999 -0.1359 -0.8285  0.6108
  962MOL0     C29747   1.477   3.253   8.124 -0.8517 -0.4967  1.3190
  962MOL0     C29748   1.471   3.117   8.190  0.0523  0.3832 -0.3861
  962MOL0     C29749   1.384   3.103   8.314  0.4403  0.0296  0.7660
  962MOL0     C29750   1.235   3.137   8.294 -0.3040  0.2924  0.4183
  962MOL0     C29751   1.159   3.042   8.203 -0.1295 -0.3793  0.2804
  962MOL0     N29752   1.151   2.902   8.249 -0.1044  0.2136  0.2629
  962MOL0     C29753   1.243   2.802   8.223 -0.1440 -0.4295 -0.0727
  962MOL0     C29754   1.203   2.694   8.302  0.5043 -0.8142 -0.1079
  962MOL0     C29755   1.269   2.561   8.325  0.0287 -0.1641 -0.4190
  962MOL0     C29756   1.226   2.448   8.230 -0.6901  0.7742  0.4004
  962MOL0     C29757   1.089   2.397   8.271  0.1878 -0.4853 -0.2672
  962MOL0     C29758   1.046   2.270   8.209 -1.1176  1.1450 -0.7033
  962MOL0     O29759   1.131   2.178   8.292 -0.4538  0.6014  0.2373
  962MOL0     C29760   1.108   2.037   8.275  0.0168 -0.1562  0.4033
  962MOL0     C29761   1.003   1.969   8.326  0.4828  0.4936 -0.2329
  962MOL0     C29762   0.974   1.827   8.311 -0.3496  0.8579  0.5687
  962MOL0     C29763   0.849   1.774   8.370  0.8912  0.1573  0.1136
  962MOL0     C29764   1.073   1.759   8.239  0.3867  0.4839  0.9926
  962MOL0     C29765   1.077   1.605   8.225  0.6616 -0.0568 -0.0513
  962MOL0     O29766   1.170   1.548   8.138  0.3461  0.7294  0.1065
  962MOL0     C29767   1.213   1.422   8.173  0.5010  1.2479 -0.2108
  962MOL0     C29768   1.312   1.409   8.277  0.1068  0.3409  0.5296
  962MOL0     C29769   1.366   1.282   8.291 -0.2466 -0.3496  0.0677
  962MOL0     C29770   1.337   1.175   8.208  0.3459  0.7216  0.5812
  962MOL0     O29771   1.387   1.044   8.201  0.5267 -0.1237 -0.2860
  962MOL0     C29772   1.518   1.036   8.270  0.5829 -0.0904 -0.5050
  962MOL0     C29773   1.587   0.902   8.249 -0.2113 -0.4007  0.2178
  962MOL0     C29774   1.710   0.904   8.331  0.5849  0.6516  0.3215
  962MOL0     C29775   1.789   0.776   8.315 -0.0956  0.0999  0.1598
  962MOL0     C29776   1.922   0.775   8.388  0.2878  0.7313  0.0316
  962MOL0     C29777   1.988   0.636   8.392 -0.7340  0.0505  0.6505
  962MOL0     C29778   2.076   0.630   8.511 -0.1015  0.1697  0.6993
  962MOL0     C29779   2.145   0.497   8.496 -0.7992  0.3699  0.7153
  962MOL0    Cl29780   2.051   0.347   8.534 -0.1152 -0.1567 -0.1453
  962MOL0     C29781   1.236   1.196   8.115  0.2428  0.9624 -0.1073
  962MOL0     C29782   1.174   1.315   8.091  0.2938 -0.2592  0.1520
  962MOL0     O29783   1.010   1.545   8.304 -0.4541  0.0640  0.3864
  962MOL0     C29784   1.179   1.830   8.177 -0.2084  0.6792  0.2571
  962MOL0     C29785   1.199   1.964   8.195 -0.4355 -0.1787 -0.1397
  962MOL0     N29786   1.083   2.730   8.354  0.9658  0.1182  0.1713
  962MOL0     N29787   1.043   2.845   8.322 -0.4776  0.0263  1.0086
  962MOL0     C29788   1.881   3.539   8.105 -0.4456  0.5009 -0.3877
  962MOL0     C29789   1.925   3.640   8.190 -0.0893 -0.4022 -0.8533
  962MOL0     C29790   2.085   3.973   8.404 -0.5121 -0.6672 -0.1746
  962MOL0     C29791   2.152   3.918   8.513 -0.5731  0.5593 -0.5511
  962MOL0     C29792   2.179   3.993   8.621 -0.2007  0.4951 -0.0053
  962MOL0     C29793   2.113   4.119   8.648 -0.1668 -0.9809  0.1598
  962MOL0     O29794   2.123   4.203   8.758  0.2621  0.1345 -0.5472
  962MOL0     C29795   2.164   4.130   8.878  0.3049 -0.3805 -0.5028
  962MOL0     C29796   2.144   4.226   8.987  0.1787  0.4999 -0.1741
  962MOL0     C29797   2.279   4.277   9.013 -0.2569  0.2166 -1.2058
  962MOL0     C29798   2.287   4.392   9.116 -1.0360  0.7592  0.2669
  962MOL0     C29799   2.240   4.339   9.248  0.7131  0.5753 -0.1005
  962MOL0     C29800   2.189   4.284   9.342 -0.7370  0.3559  0.0028
  962MOL0     C29801   2.040   4.161   8.542 -0.6374  0.8786 -0.1891
  962MOL0     C29802   2.031   4.097   8.415 -0.2208 -0.2689 -0.4786
  962MOL0     H29803   2.263   3.636   8.120 -0.2360  0.7584  0.3225
  962MOL0     H29804   2.192   3.454   7.972 -1.4449 -0.6842 -2.1000
  962MOL0     H29805   1.760   3.419   7.907  1.9416  0.2400 -2.3068
  962MOL0     H29806   1.791   3.262   7.840 -2.6134  0.6528 -0.1188
  962MOL0     H29807   1.751   3.155   8.043 -0.5163  0.1723 -2.0158
  962MOL0     H29808   1.731   3.310   8.131  1.8704 -0.2764 -1.0705
  962MOL0     H29809   1.534   3.331   7.931  0.0613 -3.3414 -2.6420
  962MOL0     H29810   1.534   3.162   7.946 -1.5302  0.5861 -1.0482
  962MOL0     H29811   1.512   3.323   8.200  0.6864 -1.3173  1.3964
  962MOL0     H29812   1.375   3.281   8.093 -0.6124 -0.6604  0.3556
  962MOL0     H29813   1.433   3.051   8.112 -1.2293 -2.4289  2.3947
  962MOL0     H29814   1.572   3.089   8.222  0.5245  1.4993 -0.8706
  962MOL0     H29815   1.386   3.003   8.359 -3.3090  0.2493  1.7669
  962MOL0     H29816   1.433   3.166   8.389  1.0096  0.2839  0.1788
  962MOL0     H29817   1.182   3.141   8.390 -2.0148  2.5975 -0.5476
  962MOL0     H29818   1.233   3.237   8.250 -1.9563 -0.9368 -2.5246
  962MOL0     H29819   1.202   3.054   8.103  0.5303  1.5011  0.7472
  962MOL0     H29820   1.054   3.068   8.185 -0.2276 -1.0672 -0.1855
  962MOL0     H29821   1.331   2.811   8.161  0.5391 -0.3512  0.8792
  962MOL0     H29822   1.374   2.590   8.317 -0.8013  3.1606 -0.6490
  962MOL0     H29823   1.246   2.535   8.428 -0.3293  1.1611 -0.1454
  962MOL0     H29824   1.298   2.366   8.233  1.8462  2.6138 -2.8314
  962MOL0     H29825   1.226   2.486   8.127  1.4909  2.8845  1.0747
  962MOL0     H29826   1.016   2.461   8.221  2.2966  1.6716 -0.7769
  962MOL0     H29827   1.083   2.389   8.380  0.3449 -0.4758 -0.2573
  962MOL0     H29828   1.062   2.265   8.101  0.6052  1.7397 -0.5080
  962MOL0     H29829   0.941   2.262   8.236 -0.8407 -0.0563  0.0909
  962MOL0     H29830   0.937   2.022   8.394 -0.3973  0.3084 -0.9225
  962MOL0     H29831   0.780   1.858   8.383  0.4183 -0.3205  0.7333
  962MOL0     H29832   0.805   1.702   8.300  2.5140 -0.5615 -0.2225
  962MOL0     H29833   0.876   1.722   8.462  2.2830  1.7159  0.6522
  962MOL0     H29834   1.345   1.500   8.326  0.2687 -0.2805  1.6127
  962MOL0     H29835   1.447   1.277   8.363  0.2194  0.6246 -0.3630
  962MOL0     H29836   1.578   1.122   8.239 -0.7337  1.6713  1.5462
  962MOL0     H29837   1.497   1.054   8.376 -0.7293  1.0375 -0.9222
  962MOL0     H29838   1.515   0.822   8.272 -1.3744  0.7886  0.8318
  962MOL0     H29839   1.607   0.904   8.141 -0.7518  1.6739  0.1280
  962MOL0     H29840   1.691   0.922   8.437  0.0585  1.6135  0.0729
  962MOL0     H29841   1.776   0.987   8.301  1.7923  0.4891  2.3419
  962MOL0     H29842   1.726   0.693   8.349 -1.1557  1.0801  0.6423
  962MOL0     H29843   1.791   0.760   8.207 -0.6807  2.2257 -0.2200
  962MOL0     H29844   1.893   0.796   8.491 -0.8015  0.6375 -0.2525
  962MOL0     H29845   1.991   0.853   8.354 -1.2481  1.1621 -2.2353
  962MOL0     H29846   1.916   0.553   8.387 -1.7269  0.7240  2.6223
  962MOL0     H29847   2.053   0.623   8.306  0.0429  0.2911  1.1947
  962MOL0     H29848   2.017   0.642   8.602 -2.3198  2.5001 -0.9092
  962MOL0     H29849   2.154   0.707   8.520  0.1113  0.0810 -0.3140
  962MOL0     H29850   2.233   0.506   8.561  0.8716  4.0937 -1.6902
  962MOL0     H29851   2.184   0.485   8.395 -3.2750  0.4397 -0.2993
  962MOL0     H29852   1.198   1.106   8.069  1.2550  1.3728 -1.8394
  962MOL0     H29853   1.104   1.332   8.010  0.4832 -0.0931  0.0217
  962MOL0     H29854   1.266   1.778   8.140 -0.1917 -2.5797  4.1860
  962MOL0     H29855   1.284   2.015   8.150  0.7933  1.0428  3.2789
  962MOL0     H29856   1.775   3.525   8.089 -0.2573 -0.1880 -1.1220
  962MOL0     H29857   1.837   3.689   8.230 -0.1942 -1.5005  0.3381
  962MOL0     H29858   2.196   3.820   8.502 -0.0496  0.0592  4.0500
  962MOL0     H29859   2.224   3.950   8.709  0.2112  2.4134  0.7569
  962MOL0     H29860   2.110   4.037   8.902  0.3626  0.4525  3.7826
  962MOL0     H29861   2.268   4.099   8.872  0.3004 -0.6420  0.4566
  962MOL0     H29862   2.100   4.177   9.075  3.4890 -2.1563  0.2003
  962MOL0     H29863   2.083   4.306   8.945 -0.1992 -0.5248 -1.6594
  962MOL0     H29864   2.322   4.323   8.923 -0.0916  1.0490 -0.7203
  962MOL0     H29865   2.345   4.199   9.051  2.6498  1.9621 -2.3648
  962MOL0     H29866   2.222   4.470   9.075 -3.5536 -1.8619 -1.1472
  962MOL0     H29867   2.391   4.426   9.116 -0.1872 -1.6088 -0.5414
  962MOL0     H29868   2.155   4.228   9.426 -0.0730  1.9133  1.3785
  962MOL0     H29869   1.987   4.256   8.546  0.2080  1.4453 -1.5296
  962MOL0     H29870   1.974   4.154   8.342 -1.4313 -0.8281 -0.0098
  963MOL0     O29871   3.794   4.146   0.615  0.5696  0.0036 -0.5159
  963MOL0     C29872   3.824   4.041   0.557  0.3463  0.0696 -0.4288
  963MOL0     O29873   3.742   3.957   0.484  0.2102 -0.7530 -0.2250
  963MOL0     C29874   3.605   3.979   0.491  0.4211  0.1863 -0.1728
  963MOL0     C29875   3.531   3.863   0.514  0.1863 -0.0812 -0.6849
  963MOL0     C29876   3.391   3.866   0.510  0.3811  0.4913 -0.2126
  963MOL0     C29877   3.320   3.985   0.477  0.1743 -0.8337  0.3045
  963MOL0     O29878   3.183   3.976   0.457 -0.3489 -0.0265 -0.4072
  963MOL0     C29879   3.101   4.094   0.470 -0.2078  0.1990 -0.2509
  963MOL0     C29880   2.964   4.041   0.453 -0.0842 -0.7770  0.2118
  963MOL0     C29881   2.856   4.138   0.504  0.3133  0.4220  0.2144
  963MOL0     C29882   2.708   4.086   0.477 -0.3792  0.4067 -0.1982
  963MOL0     C29883   2.596   4.192   0.520  0.0519 -0.1072  0.4917
  963MOL0     C29884   2.591   4.328   0.446 -0.7417 -0.0243 -0.3714
  963MOL0     C29885   2.485   4.423   0.489 -0.0135 -0.6202  0.0216
  963MOL0     C29886   2.344   4.404   0.443 -0.2373 -0.2403  0.0493
  963MOL0     N29887   2.338   4.459   0.311  0.7550 -0.5871 -0.3700
  963MOL0     C29888   2.239   4.556   0.278  0.6240  0.2521 -0.2337
  963MOL0     C29889   2.224   4.547   0.147  0.2184 -0.8979  0.1313
  963MOL0     C29890   2.145   4.645   0.055  0.4807  0.2908  0.1234
  963MOL0     C29891   2.247   4.751  -0.004 -0.4997  0.1421 -0.1181
  963MOL0     C29892   2.169   4.850  -0.098 -0.2478 -0.1681  0.5788
  963MOL0     C29893   2.141   4.980  -0.016 -0.3860  0.2983  0.3123
  963MOL0     O29894   2.091   4.956   0.109  0.3870  0.5241 -0.0678
  963MOL0     C29895   1.962   4.925   0.122 -0.1032  0.0213  0.6809
  963MOL0     C29896   1.918   4.899   0.254 -0.5917 -0.0734  0.3380
  963MOL0     C29897   1.787   4.859   0.276 -0.8749  0.2893  0.0201
  963MOL0     C29898   1.764   4.810   0.424 -0.2420  0.2902 -0.3697
  963MOL0     C29899   1.703   4.839   0.166  0.8040 -0.6621  1.2761
  963MOL0     C29900   1.566   4.772   0.167  0.0464 -0.5765 -0.3700
  963MOL0     O29901   1.499   4.775   0.287  0.5239  0.5709  0.1143
  963MOL0     C29902   1.365   4.736   0.291 -0.7950  0.0664  0.1323
  963MOL0     C29903   1.321   4.652   0.397 -0.1349  0.3323 -0.7489
  963MOL0     C29904   1.193   4.595   0.393  0.3572 -1.1079  0.4800
  963MOL0     C29905   1.103   4.634   0.295 -0.1428 -0.2814  0.0280
  963MOL0     O29906   0.975   4.600   0.326  0.1835 -0.4026 -0.0577
  963MOL0     C29907   0.866   4.623   0.234 -0.2882  0.1958  0.0083
  963MOL0     C29908   0.729   4.587   0.283 -0.5872 -0.2395 -0.2980
  963MOL0     C29909   0.733   4.467   0.381 -0.6047  0.1997  0.6775
  963MOL0     C29910   0.590   4.426   0.433 -0.2305 -1.1008 -0.0037
  963MOL0     C29911   0.583   4.303   0.534  0.0122  0.5055 -0.0972
  963MOL0     C29912   0.433   4.273   0.550  0.4282 -0.2020 -0.1458
  963MOL0     C29913   0.385   4.152   0.635  0.0687 -0.3612  0.0254
  963MOL0     C29914   0.433   4.149   0.778 -0.2548  0.1461  0.5280
  963MOL0    Cl29915   0.609   4.096   0.805  0.3937  0.2462 -0.4249
  963MOL0     C29916   1.137   4.724   0.196  0.1464 -0.2955  0.0489
  963MOL0     C29917   1.267   4.782   0.192  0.0507  0.0596  0.5037
  963MOL0     O29918   1.525   4.717   0.065  0.8029  0.1259 -0.4823
  963MOL0     C29919   1.740   4.893   0.038 -0.0945 -0.0675 -1.2311
  963MOL0     C29920   1.869   4.918   0.017 -0.5744 -0.4209  0.0173
  963MOL0     N29921   2.288   4.438   0.102  0.1050  0.1498  0.4954
  963MOL0     N29922   2.363   4.385   0.194  0.0443  0.2087 -0.2809
  963MOL0     C29923   3.398   4.105   0.448 -0.1711 -0.5534 -0.5027
  963MOL0     C29924   3.540   4.099   0.457 -0.1608  0.4834  0.5933
  963MOL0     C29925   3.960   3.990   0.584 -1.0140  0.5906  0.1478
  963MOL0     C29926   4.023   3.887   0.511 -0.3358  0.8953  0.5141
  963MOL0     C29927   4.152   3.839   0.526 -0.8534 -1.0249 -0.6086
  963MOL0     C29928   4.236   3.901   0.622 -0.4034 -0.3280 -0.1178
  963MOL0     O29929   4.371   3.876   0.646 -0.2642  0.2666  0.3414
  963MOL0     C29930   4.436   3.754   0.603  1.3168 -0.2211 -0.9296
  963MOL0     C29931   4.459   3.647   0.720  0.7643  0.0105  0.3441
  963MOL0     C29932   4.507   3.703   0.852 -0.6775  0.1356 -0.1005
  963MOL0     C29933   4.651   3.769   0.837  0.3309 -0.2440 -0.0090
  963MOL0     C29934   4.751   3.685   0.770  0.3235  0.2438  0.1883
  963MOL0     C29935   4.846   3.627   0.711  0.0190 -1.1488 -0.1357
  963MOL0     C29936   4.184   4.010   0.692  0.7441  0.2277  0.3408
  963MOL0     C29937   4.050   4.050   0.672  0.2483  0.6328  0.4400
  963MOL0     H29938   3.576   3.765   0.528 -2.4859 -1.2528  0.4146
  963MOL0     H29939   3.341   3.774   0.540 -0.4794  1.2239  0.6599
  963MOL0     H29940   3.113   4.139   0.569  0.0739 -0.9843  0.2851
  963MOL0     H29941   3.125   4.165   0.391  0.2989 -2.0379 -2.2487
  963MOL0     H29942   2.953   4.026   0.345  2.0824 -0.6814 -0.0624
  963MOL0     H29943   2.943   3.949   0.508  1.2353 -0.9602  0.4226
  963MOL0     H29944   2.881   4.150   0.610  3.0052 -1.0078 -0.1729
  963MOL0     H29945   2.873   4.242   0.475  0.5653 -0.0033 -1.2377
  963MOL0     H29946   2.702   4.064   0.370 -0.3631 -1.4312  0.1359
  963MOL0     H29947   2.676   4.001   0.539 -1.3282  1.8176  1.3313
  963MOL0     H29948   2.499   4.142   0.512 -2.1788  3.2757  3.2417
  963MOL0     H29949   2.609   4.210   0.627 -2.4000 -0.1877  0.8643
  963MOL0     H29950   2.688   4.377   0.460 -1.6075  1.5217  0.5147
  963MOL0     H29951   2.580   4.306   0.340  1.9365 -1.6004 -0.4392
  963MOL0     H29952   2.477   4.429   0.598 -0.9218 -1.8905  0.0500
  963MOL0     H29953   2.517   4.523   0.459  1.1785 -0.5944  1.2900
  963MOL0     H29954   2.270   4.464   0.495 -0.1545  1.6260 -1.8597
  963MOL0     H29955   2.312   4.299   0.444  0.8570 -0.6227 -1.2982
  963MOL0     H29956   2.184   4.622   0.345  1.1780  0.1313  0.3434
  963MOL0     H29957   2.101   4.581  -0.022 -1.9315 -0.4345  1.9772
  963MOL0     H29958   2.062   4.693   0.109  3.5344  5.1495  1.1077
  963MOL0     H29959   2.325   4.707  -0.067  1.2155  2.2124  0.4157
  963MOL0     H29960   2.303   4.813   0.067 -0.1898  0.1600 -0.3744
  963MOL0     H29961   2.072   4.815  -0.133  0.6004 -0.9159 -1.1306
  963MOL0     H29962   2.219   4.887  -0.187 -0.4885  0.9843  0.9077
  963MOL0     H29963   2.064   5.037  -0.071 -2.3596 -1.0477  1.5456
  963MOL0     H29964   2.229   5.044  -0.008  0.2428 -0.4982 -0.0759
  963MOL0     H29965   1.988   4.916   0.336 -0.1241  1.4712 -0.3274
  963MOL0     H29966   1.850   4.827   0.489 -1.2533  2.1172  0.5839
  963MOL0     H29967   1.679   4.866   0.465 -2.0471 -2.4050 -0.1326
  963MOL0     H29968   1.724   4.708   0.422  3.3744 -1.2486 -0.7208
  963MOL0     H29969   1.391   4.617   0.472 -0.1511 -0.2520 -1.0022
  963MOL0     H29970   1.157   4.519   0.461  2.4399 -1.6602  1.0416
  963MOL0     H29971   0.854   4.730   0.214 -1.0000 -0.0802 -1.0905
  963MOL0     H29972   0.876   4.557   0.147 -0.4448 -0.6966  0.6547
  963MOL0     H29973   0.684   4.673   0.335  0.3609 -0.2195  0.5150
  963MOL0     H29974   0.669   4.556   0.197  0.7171 -0.9168 -0.9779
  963MOL0     H29975   0.791   4.489   0.470  0.5311 -1.2610  0.3401
  963MOL0     H29976   0.778   4.377   0.339  0.5715 -0.0832  2.4626
  963MOL0     H29977   0.549   4.521   0.470  1.0911  1.1672 -3.8000
  963MOL0     H29978   0.529   4.405   0.345 -2.1858  0.2541  0.9597
  963MOL0     H29979   0.632   4.319   0.631  0.4984  0.4197 -0.3258
  963MOL0     H29980   0.641   4.218   0.497  2.1152  0.8008  2.2539
  963MOL0     H29981   0.398   4.365   0.597 -2.8392  0.2308 -2.9609
  963MOL0     H29982   0.383   4.270   0.452  2.1225 -2.1655 -1.0202
  963MOL0     H29983   0.415   4.059   0.585  0.9728 -1.2197  2.0592
  963MOL0     H29984   0.275   4.153   0.631  0.0618  1.0117  0.0719
  963MOL0     H29985   0.372   4.078   0.836 -2.0098 -0.7718 -2.2597
  963MOL0     H29986   0.421   4.251   0.814  2.2861  1.7008 -2.5348
  963MOL0     H29987   1.065   4.767   0.128  1.4728 -2.3318 -2.8729
  963MOL0     H29988   1.290   4.852   0.113  0.0244 -0.4401  0.0506
  963MOL0     H29989   1.672   4.897  -0.045  0.4208  1.5603 -1.6035
  963MOL0     H29990   1.904   4.938  -0.084  1.3498  1.1341  0.9360
  963MOL0     H29991   3.347   4.197   0.422  1.2334  0.3115 -0.2538
  963MOL0     H29992   3.597   4.189   0.437  2.8674 -1.5216 -0.5563
  963MOL0     H29993   3.955   3.833   0.446  0.6855 -2.4486  2.0169
  963MOL0     H29994   4.196   3.757   0.470  0.3723 -2.7355  2.5698
  963MOL0     H29995   4.400   3.708   0.511  1.4546 -2.5548  0.1278
  963MOL0     H29996   4.536   3.782   0.568  0.6103  2.0120 -1.3478
  963MOL0     H29997   4.537   3.584   0.676 -0.5426  0.4914 -2.9564
  963MOL0     H29998   4.365   3.593   0.729 -0.2584  1.6129 -0.2816
  963MOL0     H29999   4.515   3.614   0.915 -0.9353  1.5285  2.0114
  963MOL0     H30000   4.439   3.782   0.884  1.7405  1.9680  0.7755
  963MOL0     H30001   4.687   3.788   0.939  2.6376 -2.6051 -0.2657
  963MOL0     H30002   4.642   3.860   0.778 -0.4893  0.4721  1.1832
  963MOL0     H30003   4.934   3.573   0.683  0.7016 -1.5495  2.5076
  963MOL0     H30004   4.242   4.055   0.772 -3.1100 -1.0554  4.2471
  963MOL0     H30005   4.021   4.134   0.735  0.3238  1.0914 -0.1290
  964MOL0     O30006   8.992   4.628   2.360  0.5297 -0.0751 -0.1487
  964MOL0     C30007   9.050   4.560   2.273 -0.4238  0.7933  0.4407
  964MOL0     O30008   8.992   4.516   2.155  0.0433  0.2443  0.0424
  964MOL0     C30009   8.852   4.528   2.162 -0.8483 -0.2750  0.3583
  964MOL0     C30010   8.800   4.648   2.117  0.5252 -0.1895  0.0183
  964MOL0     C30011   8.662   4.657   2.116  0.5473  0.0820  1.1559
  964MOL0     C30012   8.572   4.560   2.160 -0.0752  0.3325  0.0858
  964MOL0     O30013   8.430   4.561   2.167 -0.0076  0.1215  0.0304
  964MOL0     C30014   8.373   4.651   2.072 -0.0216 -1.1390  0.2043
  964MOL0     C30015   8.225   4.613   2.055 -0.1057  0.7293 -0.2988
  964MOL0     C30016   8.165   4.711   1.952 -0.3370 -0.0055  1.2651
  964MOL0     C30017   8.015   4.715   1.952  0.0219 -0.6888  0.0562
  964MOL0     C30018   7.970   4.811   1.841 -0.1533 -0.0124 -0.5801
  964MOL0     C30019   7.820   4.833   1.848  0.3843 -0.1949 -0.0431
  964MOL0     C30020   7.763   4.923   1.739  0.1612  1.1554 -0.4991
  964MOL0     C30021   7.804   5.066   1.765  0.0139  1.0616  0.3529
  964MOL0     N30022   7.710   5.162   1.711  0.5040 -0.2835  0.6194
  964MOL0     C30023   7.673   5.167   1.577  1.3097 -0.1754 -0.0908
  964MOL0     C30024   7.546   5.222   1.565 -0.2537  0.1674 -0.7721
  964MOL0     C30025   7.465   5.255   1.440 -0.6184  0.2239  0.1509
  964MOL0     C30026   7.448   5.132   1.348 -0.0599  0.2865  1.2770
  964MOL0     C30027   7.357   5.018   1.390 -0.3603  0.0696  0.0377
  964MOL0     C30028   7.359   4.906   1.291 -0.3390  0.3328  0.7501
  964MOL0     O30029   7.309   4.780   1.344  0.0971  0.0503 -0.0804
  964MOL0     C30030   7.396   4.705   1.415 -0.1952  0.0702  0.7275
  964MOL0     C30031   7.339   4.590   1.463 -0.4772 -0.3720 -0.4281
  964MOL0     C30032   7.401   4.495   1.541 -0.3745  0.1879 -0.6820
  964MOL0     C30033   7.319   4.379   1.594 -0.9019 -0.4453 -0.7339
  964MOL0     C30034   7.551   4.516   1.557  1.0420 -0.3364  0.1734
  964MOL0     C30035   7.645   4.417   1.621 -0.0849 -0.3885  0.0801
  964MOL0     O30036   7.738   4.472   1.701 -1.0387  0.1629 -0.3665
  964MOL0     C30037   7.836   4.395   1.761 -0.5122 -0.4819  0.6638
  964MOL0     C30038   7.969   4.409   1.712 -0.7973  0.6785 -0.0880
  964MOL0     C30039   8.077   4.337   1.781  1.0763 -0.3497 -0.7686
  964MOL0     C30040   8.046   4.257   1.894  0.1339  0.2201 -0.5043
  964MOL0     O30041   8.150   4.188   1.949  0.0851  0.4206  0.0230
  964MOL0     C30042   8.169   4.176   2.090  0.3573 -0.2824 -0.7310
  964MOL0     C30043   8.279   4.065   2.105  0.1243  0.0432 -0.8288
  964MOL0     C30044   8.338   4.081   2.237 -0.2868 -0.0605  0.3711
  964MOL0     C30045   8.434   3.964   2.271  0.5601  0.4675  0.2713
  964MOL0     C30046   8.491   3.989   2.402 -0.3360  0.2809 -0.9225
  964MOL0     C30047   8.610   3.897   2.446  1.2560  0.4476 -0.0321
  964MOL0     C30048   8.555   3.755   2.448 -0.3850  0.8577 -0.2912
  964MOL0     C30049   8.652   3.658   2.504 -0.3316  0.5691 -0.4207
  964MOL0    Cl30050   8.784   3.628   2.387 -0.1434 -0.3913  0.2762
  964MOL0     C30051   7.918   4.254   1.939  0.2674 -0.3313 -0.1080
  964MOL0     C30052   7.808   4.320   1.877 -0.7304 -0.1752  0.1756
  964MOL0     O30053   7.638   4.302   1.594  0.8066  0.4374  0.2902
  964MOL0     C30054   7.604   4.635   1.506 -0.0935  0.6827 -0.2492
  964MOL0     C30055   7.534   4.722   1.429  0.3749 -0.1397  0.8638
  964MOL0     N30056   7.506   5.241   1.700 -0.5889  0.6943  0.6345
  964MOL0     N30057   7.606   5.218   1.783 -0.2291 -0.0603  0.1399
  964MOL0     C30058   8.636   4.451   2.210  0.4564  0.5716  0.3330
  964MOL0     C30059   8.773   4.430   2.208  0.5070  0.1001 -1.2711
  964MOL0     C30060   9.182   4.515   2.316  0.0129 -0.0107 -0.2038
  964MOL0     C30061   9.240   4.408   2.240 -0.0324  0.2357 -0.2242
  964MOL0     C30062   9.375   4.376   2.255  0.1358 -0.3298 -0.2692
  964MOL0     C30063   9.460   4.447   2.340  0.5537  0.0497  1.1622
  964MOL0     O30064   9.595   4.408   2.336  0.3519  0.0216 -0.6474
  964MOL0     C30065   9.683   4.498   2.403 -0.7099  0.1489  0.4528
  964MOL0     C30066   9.813   4.428   2.393 -0.0074  0.1910 -0.3910
  964MOL0     C30067   9.934   4.520   2.442  0.3583  0.5569 -0.4655
  964MOL0     C30068  10.066   4.439   2.443  0.2894  0.4669 -0.3468
  964MOL0     C30069  10.197   4.503   2.478 -0.6005  0.0651  0.0498
  964MOL0     C30070  10.307   4.536   2.520  0.2329  0.2254 -0.0053
  964MOL0     C30071   9.399   4.539   2.425  0.5114 -0.0504 -1.1351
  964MOL0     C30072   9.257   4.576   2.416 -0.3663 -0.6431 -0.1650
  964MOL0     H30073   8.852   4.725   2.061 -0.9442  1.3956  0.7593
  964MOL0     H30074   8.624   4.739   2.056  2.0382 -0.7893 -1.0829
  964MOL0     H30075   8.373   4.749   2.121 -1.0736 -1.3278  0.5974
  964MOL0     H30076   8.421   4.655   1.974 -0.7613 -2.3057 -0.2148
  964MOL0     H30077   8.201   4.510   2.028  0.2579  0.3417  0.8085
  964MOL0     H30078   8.177   4.636   2.151 -2.1667 -0.9193 -0.8580
  964MOL0     H30079   8.198   4.813   1.975 -0.0713  0.2039  0.0240
  964MOL0     H30080   8.197   4.689   1.850 -2.5987  0.4449  0.4267
  964MOL0     H30081   7.967   4.619   1.936  0.1815 -0.8080  0.2828
  964MOL0     H30082   7.983   4.756   2.049 -1.5570 -1.3883 -0.1439
  964MOL0     H30083   8.002   4.913   1.862 -0.9582  0.1182  0.0599
  964MOL0     H30084   7.997   4.775   1.741 -1.3850  1.6421 -1.5545
  964MOL0     H30085   7.763   4.740   1.848 -1.3239  0.7925  0.5727
  964MOL0     H30086   7.800   4.879   1.946 -3.1750  3.1332 -2.0670
  964MOL0     H30087   7.804   4.889   1.644 -1.3455 -1.3096 -0.3506
  964MOL0     H30088   7.654   4.913   1.734  0.4312 -4.5186 -1.6686
  964MOL0     H30089   7.895   5.086   1.707 -0.8000  1.3866 -0.8268
  964MOL0     H30090   7.816   5.086   1.872 -1.6802 -3.1629  1.5529
  964MOL0     H30091   7.727   5.128   1.491 -2.2829 -0.7275 -2.2905
  964MOL0     H30092   7.366   5.287   1.475 -0.4872  4.6412 -2.8142
  964MOL0     H30093   7.506   5.345   1.394 -1.4671  2.1111  2.8554
  964MOL0     H30094   7.543   5.080   1.336  0.0508  0.2601  2.2287
  964MOL0     H30095   7.409   5.162   1.250  1.1631 -1.4922  0.1822
  964MOL0     H30096   7.251   5.039   1.406 -0.5288 -2.0984  2.4157
  964MOL0     H30097   7.392   4.981   1.487  1.9576 -0.9580 -1.0976
  964MOL0     H30098   7.464   4.898   1.262 -0.2002 -1.1063  1.5790
  964MOL0     H30099   7.296   4.919   1.202 -1.2269 -1.9989  0.9774
  964MOL0     H30100   7.231   4.592   1.448 -0.6364 -0.8757  0.6008
  964MOL0     H30101   7.237   4.364   1.523 -0.2895  0.8924 -1.7696
  964MOL0     H30102   7.379   4.288   1.612  0.8449  0.7453 -0.2925
  964MOL0     H30103   7.282   4.415   1.690  1.7058  0.6210 -0.0271
  964MOL0     H30104   7.988   4.476   1.629 -1.0992 -0.4314 -1.0840
  964MOL0     H30105   8.182   4.341   1.754  0.5831 -1.3165 -3.0395
  964MOL0     H30106   8.202   4.273   2.129 -0.7951  0.0933 -0.6462
  964MOL0     H30107   8.083   4.145   2.151  2.5615 -2.2611  1.6129
  964MOL0     H30108   8.239   3.964   2.100  0.4004 -0.0122 -2.4965
  964MOL0     H30109   8.353   4.079   2.026 -0.0189  3.7746 -0.4961
  964MOL0     H30110   8.259   4.080   2.313  0.3204 -0.0266  1.0247
  964MOL0     H30111   8.389   4.177   2.236 -3.4869  1.7717 -0.6804
  964MOL0     H30112   8.381   3.869   2.274  2.5923 -0.7297  0.6087
  964MOL0     H30113   8.507   3.946   2.191 -2.2722 -4.0441 -1.6964
  964MOL0     H30114   8.405   3.998   2.469 -0.1889  2.7407 -0.9635
  964MOL0     H30115   8.545   4.084   2.394  1.3377 -0.5769 -0.2493
  964MOL0     H30116   8.686   3.912   2.369 -0.2995  0.4678 -1.6147
  964MOL0     H30117   8.646   3.927   2.545  0.8143  1.2446 -0.1085
  964MOL0     H30118   8.542   3.710   2.349 -3.2484  0.0160  0.3825
  964MOL0     H30119   8.460   3.753   2.501 -0.1028  1.7900  0.2656
  964MOL0     H30120   8.605   3.561   2.522  1.4901 -0.4909 -1.1086
  964MOL0     H30121   8.683   3.687   2.605  0.0508 -2.8796  0.5970
  964MOL0     H30122   7.883   4.193   2.022 -2.7015  2.3953  0.8387
  964MOL0     H30123   7.710   4.333   1.920 -0.7275  2.2721 -0.4101
  964MOL0     H30124   7.710   4.655   1.525 -0.4581 -0.1791  3.5682
  964MOL0     H30125   7.590   4.803   1.385 -0.6746 -1.2638 -2.9470
  964MOL0     H30126   8.573   4.366   2.233  1.1476 -0.1661 -0.3944
  964MOL0     H30127   8.831   4.344   2.240  3.2488  2.2452 -0.0374
  964MOL0     H30128   9.175   4.353   2.173 -1.8521  0.2138  1.4647
  964MOL0     H30129   9.426   4.290   2.212 -0.4566 -0.0842 -1.5344
  964MOL0     H30130   9.677   4.585   2.336 -1.3647 -0.2705 -0.0509
  964MOL0     H30131   9.654   4.524   2.505 -1.2261 -2.2018  0.9588
  964MOL0     H30132   9.843   4.377   2.301 -1.4914  0.5855 -1.1132
  964MOL0     H30133   9.794   4.342   2.459 -1.8996 -0.5801 -1.8347
  964MOL0     H30134   9.925   4.554   2.546  2.2008 -2.4588  0.7986
  964MOL0     H30135   9.936   4.609   2.378 -1.3948  0.4138 -0.7846
  964MOL0     H30136  10.087   4.408   2.340  4.3929  2.0443 -0.1802
  964MOL0     H30137  10.073   4.350   2.506  3.4320 -1.4906 -3.0686
  964MOL0     H30138  10.398   4.576   2.560 -1.7740  4.5434  0.8946
  964MOL0     H30139   9.453   4.581   2.509 -2.2341  2.9491 -0.6812
  964MOL0     H30140   9.197   4.646   2.473 -0.0930 -0.0826 -0.5425
  965MOL0     O30141   3.887   1.845   7.561  0.1713  0.3664 -0.4191
  965MOL0     C30142   3.906   1.959   7.533 -0.3503 -0.9722  0.5468
  965MOL0     O30143   3.811   2.057   7.507 -0.1559  0.5102 -0.6453
  965MOL0     C30144   3.677   2.021   7.501 -0.2191 -0.7586 -0.2907
  965MOL0     C30145   3.579   2.097   7.568  0.2163 -0.0289  0.3038
  965MOL0     C30146   3.442   2.051   7.564 -0.5802  0.1019  0.1837
  965MOL0     C30147   3.402   1.944   7.485 -0.4080  0.0856 -0.1287
  965MOL0     O30148   3.277   1.915   7.454  0.6699  0.1563  0.1926
  965MOL0     C30149   3.185   1.924   7.568  0.5971 -0.4115 -0.3762
  965MOL0     C30150   3.219   1.820   7.683  0.2666  0.3505  0.4361
  965MOL0     C30151   3.164   1.683   7.666 -0.3413  0.9424 -0.2332
  965MOL0     C30152   3.042   1.655   7.759 -0.5022 -0.0540 -0.1180
  965MOL0     C30153   2.982   1.515   7.726 -0.6124 -0.7487  0.2092
  965MOL0     C30154   2.844   1.495   7.781  0.3520  0.3968  0.6510
  965MOL0     C30155   2.800   1.346   7.797 -0.2283  0.5357  0.4792
  965MOL0     C30156   2.695   1.315   7.901  0.5665 -0.3797  0.2673
  965MOL0     N30157   2.552   1.359   7.880  0.6948 -0.0866  0.1073
  965MOL0     C30158   2.469   1.292   7.799  0.2666 -0.9645 -1.1510
  965MOL0     C30159   2.347   1.346   7.826  1.0882  0.2502 -0.0420
  965MOL0     C30160   2.219   1.306   7.761  0.2066 -0.1031  0.4179
  965MOL0     C30161   2.224   1.327   7.610  0.1415 -0.3492 -0.1703
  965MOL0     C30162   2.104   1.269   7.537 -0.3029  0.1424 -1.0424
  965MOL0     C30163   1.979   1.365   7.536 -0.5232  0.8124  0.4324
  965MOL0     O30164   1.872   1.273   7.533  0.4911 -0.3549 -0.2013
  965MOL0     C30165   1.739   1.326   7.549  0.1191 -0.9196 -0.6833
  965MOL0     C30166   1.708   1.468   7.573  0.2461  0.2467 -0.7880
  965MOL0     C30167   1.577   1.514   7.563  0.2400 -0.3463  0.3785
  965MOL0     C30168   1.565   1.670   7.578 -0.1739 -0.5309  0.2557
  965MOL0     C30169   1.469   1.420   7.546 -1.4611  0.1256  0.2121
  965MOL0     C30170   1.329   1.449   7.546  0.5676 -0.7380  0.3092
  965MOL0     O30171   1.249   1.350   7.522 -0.0220  0.1776  0.1979
  965MOL0     C30172   1.115   1.358   7.536  0.5574  0.5443  0.5928
  965MOL0     C30173   1.047   1.410   7.648 -0.3229  0.1846  0.0628
  965MOL0     C30174   0.908   1.423   7.650 -0.8008 -0.2514 -0.2539
  965MOL0     C30175   0.840   1.388   7.537  0.6326 -0.1935 -0.7425
  965MOL0     O30176   0.706   1.401   7.531 -0.1796 -0.3528  0.4077
  965MOL0     C30177   0.660   1.537   7.537 -0.2990  0.0916  0.8575
  965MOL0     C30178   0.512   1.549   7.557 -0.1522  0.2017 -0.6336
  965MOL0     C30179   0.414   1.493   7.454 -0.6766  0.1017  0.3282
  965MOL0     C30180   0.464   1.371   7.375  0.5705 -0.5168 -0.5750
  965MOL0     C30181   0.355   1.326   7.275 -0.2216 -0.6401 -0.4583
  965MOL0     C30182   0.411   1.221   7.185 -0.1046  0.2754  1.0829
  965MOL0     C30183   0.308   1.181   7.073  0.6048  0.3412 -0.2525
  965MOL0     C30184   0.371   1.136   6.939 -0.9307  0.1991 -0.3209
  965MOL0    Cl30185   0.248   1.096   6.818 -0.0884 -0.2841  0.0507
  965MOL0     C30186   0.908   1.340   7.427  0.1133 -0.0155 -0.3066
  965MOL0     C30187   1.046   1.327   7.423  0.8537 -0.1399 -0.4129
  965MOL0     O30188   1.294   1.564   7.576  0.0973 -0.5876  0.5304
  965MOL0     C30189   1.506   1.281   7.526  0.6632 -0.4901  0.8370
  965MOL0     C30190   1.639   1.242   7.508  1.1106  0.6369 -0.3229
  965MOL0     N30191   2.362   1.440   7.923  0.2703 -0.2200  0.7685
  965MOL0     N30192   2.490   1.463   7.943 -0.7685  0.3357  0.4427
  965MOL0     C30193   3.496   1.875   7.415 -0.8544 -0.5665  0.0237
  965MOL0     C30194   3.631   1.920   7.416 -0.9021 -0.0666 -0.0800
  965MOL0     C30195   4.042   2.001   7.527 -0.9958 -0.2027  0.6956
  965MOL0     C30196   4.154   1.915   7.537  0.7493  0.3767 -0.5420
  965MOL0     C30197   4.284   1.953   7.552 -0.5118  0.1632 -0.1698
  965MOL0     C30198   4.306   2.091   7.554 -0.6232  0.0804 -0.4689
  965MOL0     O30199   4.432   2.133   7.590  0.1471  0.1359 -0.2640
  965MOL0     C30200   4.492   2.211   7.485 -0.6416  0.5020 -0.1152
  965MOL0     C30201   4.573   2.113   7.404 -0.4086 -0.1688  0.3724
  965MOL0     C30202   4.686   2.040   7.483  0.0991  0.3430 -0.3374
  965MOL0     C30203   4.648   1.907   7.552 -0.2216  1.1963 -0.7878
  965MOL0     C30204   4.763   1.810   7.554  0.0005 -0.5661  0.3240
  965MOL0     C30205   4.862   1.737   7.563  0.2468  0.0364  0.8378
  965MOL0     C30206   4.200   2.181   7.530  0.2434 -0.1831  0.3299
  965MOL0     C30207   4.070   2.131   7.509  0.1365 -0.2521 -0.6317
  965MOL0     H30208   3.610   2.181   7.629  0.3418  0.4388 -0.3917
  965MOL0     H30209   3.378   2.114   7.625  0.7902  0.0712  1.7392
  965MOL0     H30210   3.200   2.021   7.616 -1.3325 -0.2738  0.0224
  965MOL0     H30211   3.077   1.918   7.550  0.5338 -0.0973 -0.1041
  965MOL0     H30212   3.327   1.802   7.692 -0.0559 -2.3583 -0.1288
  965MOL0     H30213   3.176   1.866   7.772 -1.0952  0.7740 -0.4177
  965MOL0     H30214   3.143   1.647   7.565  1.1469 -0.4194 -0.0919
  965MOL0     H30215   3.243   1.618   7.705  1.1223  2.0171 -1.3197
  965MOL0     H30216   3.056   1.669   7.867  0.8730  1.2166 -0.4344
  965MOL0     H30217   2.970   1.735   7.740  2.3696  2.2335 -2.3899
  965MOL0     H30218   2.976   1.512   7.617 -0.9484 -1.9313  0.2444
  965MOL0     H30219   3.050   1.435   7.758 -0.7561 -0.2361  1.8922
  965MOL0     H30220   2.856   1.533   7.883  1.4797 -1.0452  1.0862
  965MOL0     H30221   2.766   1.554   7.731 -0.6375 -1.1955  0.2177
  965MOL0     H30222   2.775   1.300   7.701  0.3217  0.8827  0.1677
  965MOL0     H30223   2.888   1.288   7.824 -0.8817 -0.9313 -0.3986
  965MOL0     H30224   2.725   1.367   7.993  1.7213 -0.0047 -0.3085
  965MOL0     H30225   2.697   1.207   7.923  0.9839 -0.7902 -1.6054
  965MOL0     H30226   2.493   1.213   7.729 -0.4722 -2.5420  0.3119
  965MOL0     H30227   2.200   1.199   7.772 -0.2460 -0.2676 -1.6480
  965MOL0     H30228   2.127   1.354   7.796  0.8595  2.1629 -0.8169
  965MOL0     H30229   2.313   1.279   7.569  1.4314  0.5284  1.5211
  965MOL0     H30230   2.231   1.432   7.580 -0.8892 -0.3508 -0.4835
  965MOL0     H30231   2.079   1.172   7.581  0.0207  1.2889  1.8909
  965MOL0     H30232   2.116   1.254   7.430  1.2596  0.5769 -0.9587
  965MOL0     H30233   1.974   1.439   7.455  2.8983  1.6948  0.8629
  965MOL0     H30234   1.974   1.421   7.630 -0.1190 -2.9167  2.8561
  965MOL0     H30235   1.777   1.544   7.610 -1.7282  0.5322  2.7831
  965MOL0     H30236   1.464   1.712   7.587  0.1359  0.3699 -0.3109
  965MOL0     H30237   1.625   1.712   7.659 -2.9451  0.2165  2.0531
  965MOL0     H30238   1.607   1.710   7.485  0.5306 -0.4901  0.5903
  965MOL0     H30239   1.103   1.431   7.739  3.4189 -2.2313 -1.4183
  965MOL0     H30240   0.847   1.454   7.735  0.0673 -0.5610  0.5046
  965MOL0     H30241   0.715   1.592   7.613  0.1379  0.1617  0.4954
  965MOL0     H30242   0.675   1.577   7.436 -4.6109  0.5674  0.1738
  965MOL0     H30243   0.499   1.493   7.650  0.1972 -1.1442 -1.3680
  965MOL0     H30244   0.482   1.654   7.561 -0.3307  0.2921 -3.1652
  965MOL0     H30245   0.406   1.581   7.389  1.1548  0.3065  0.3182
  965MOL0     H30246   0.317   1.472   7.499 -0.3481 -1.5952  0.2969
  965MOL0     H30247   0.553   1.385   7.313  0.3162 -4.3506 -2.1185
  965MOL0     H30248   0.502   1.291   7.440 -1.4299  0.2647  1.7182
  965MOL0     H30249   0.319   1.415   7.222 -1.0029 -1.3718 -1.1969
  965MOL0     H30250   0.272   1.281   7.330  0.6462 -0.5982  0.9309
  965MOL0     H30251   0.498   1.254   7.126 -0.6619 -1.2817 -0.7228
  965MOL0     H30252   0.429   1.128   7.241  0.7872  0.1005  0.5382
  965MOL0     H30253   0.251   1.274   7.060  0.5635  0.6849  2.0189
  965MOL0     H30254   0.237   1.104   7.105  0.3117 -1.5486 -4.7467
  965MOL0     H30255   0.441   1.052   6.945  0.3980  1.0865 -2.3330
  965MOL0     H30256   0.427   1.216   6.889 -2.3268 -0.0931 -2.4397
  965MOL0     H30257   0.843   1.315   7.344 -0.0965 -1.2272  0.1956
  965MOL0     H30258   1.097   1.285   7.336 -0.2467 -1.4591 -0.4542
  965MOL0     H30259   1.441   1.197   7.506  0.8524 -0.0102 -2.4287
  965MOL0     H30260   1.671   1.146   7.469  2.5387 -0.4544  3.1834
  965MOL0     H30261   3.458   1.786   7.366 -1.2307 -1.0033  1.0872
  965MOL0     H30262   3.697   1.863   7.351 -1.6302  0.1635 -1.0576
  965MOL0     H30263   4.142   1.808   7.522 -0.5656  0.5325 -0.7515
  965MOL0     H30264   4.355   1.877   7.583 -0.8635  0.2103  0.7765
  965MOL0     H30265   4.415   2.260   7.425 -1.3875  1.3890  1.5075
  965MOL0     H30266   4.561   2.289   7.519  1.6796 -2.0259  1.4052
  965MOL0     H30267   4.628   2.159   7.321 -0.6111  0.1354  0.4037
  965MOL0     H30268   4.502   2.044   7.357 -0.5899 -0.1922  0.6799
  965MOL0     H30269   4.738   2.100   7.559 -0.0875 -1.4496  1.2787
  965MOL0     H30270   4.765   2.015   7.412 -1.6775 -1.5122 -1.7767
  965MOL0     H30271   4.573   1.857   7.489  2.3384  1.1748 -4.1081
  965MOL0     H30272   4.607   1.933   7.650  1.3126  0.0847  0.1932
  965MOL0     H30273   4.952   1.681   7.580  0.2664  0.0078  0.6352
  965MOL0     H30274   4.216   2.289   7.537 -1.1384  0.0669  0.0606
  965MOL0     H30275   3.987   2.196   7.484 -0.7455  0.3599  3.2587
  966MOL0     O30276   6.159   0.577   1.287 -0.0023  0.5761  0.1839
  966MOL0     C30277   6.196   0.520   1.182 -0.2187 -0.6323 -0.1586
  966MOL0     O30278   6.112   0.497   1.072 -0.5064 -0.2725 -0.7381
  966MOL0     C30279   5.978   0.535   1.067  0.0184  0.0011 -0.2948
  966MOL0     C30280   5.901   0.541   1.187  0.6471 -0.1052  0.4753
  966MOL0     C30281   5.771   0.594   1.169  0.3439 -0.0391 -0.5643
  966MOL0     C30282   5.714   0.626   1.047 -0.5768  0.5001  0.0923
  966MOL0     O30283   5.582   0.655   1.024  0.4761  0.1584 -0.2256
  966MOL0     C30284   5.487   0.671   1.127 -0.2126 -0.0925  0.5925
  966MOL0     C30285   5.350   0.702   1.050 -0.6865 -0.0778 -0.1270
  966MOL0     C30286   5.222   0.668   1.124 -0.7033 -0.0881 -0.1575
  966MOL0     C30287   5.209   0.518   1.142 -0.2811 -0.6049 -0.5057
  966MOL0     C30288   5.062   0.477   1.165  1.0082 -0.3370  0.5473
  966MOL0     C30289   4.993   0.432   1.036 -0.0275  0.6896  0.3459
  966MOL0     C30290   4.840   0.416   1.046 -0.6806 -0.6320 -0.2254
  966MOL0     C30291   4.800   0.335   1.167  1.2676  0.1218 -0.7700
  966MOL0     N30292   4.662   0.288   1.168 -0.3327 -0.3495  0.6343
  966MOL0     C30293   4.556   0.371   1.189 -0.0056 -0.3012  0.0985
  966MOL0     C30294   4.445   0.287   1.193 -0.6017 -0.3983  0.4268
  966MOL0     C30295   4.309   0.336   1.238  0.1247  0.1982  0.0294
  966MOL0     C30296   4.265   0.477   1.198  1.5468  0.4822  1.0812
  966MOL0     C30297   4.115   0.504   1.211  0.0858 -0.2078 -0.3119
  966MOL0     C30298   4.024   0.447   1.092 -0.8677  0.6281  0.3467
  966MOL0     O30299   3.889   0.484   1.126  1.0676 -0.4742 -0.7016
  966MOL0     C30300   3.796   0.427   1.043  1.1331  0.5854 -0.3164
  966MOL0     C30301   3.666   0.468   1.076  0.2686 -0.7266 -0.8106
  966MOL0     C30302   3.554   0.431   1.003 -0.5917  1.0060  0.2419
  966MOL0     C30303   3.419   0.491   1.042  0.0691  0.6506 -0.2128
  966MOL0     C30304   3.583   0.346   0.883  0.3120 -0.2368 -0.6795
  966MOL0     C30305   3.474   0.320   0.788 -0.3496  0.8215 -0.6163
  966MOL0     O30306   3.339   0.331   0.829 -0.7424  0.2993  0.0106
  966MOL0     C30307   3.255   0.381   0.736 -0.8750  0.3191  0.8402
  966MOL0     C30308   3.125   0.332   0.728  0.3899 -0.4128 -0.3372
  966MOL0     C30309   3.026   0.395   0.651  0.2989  0.1635  0.6838
  966MOL0     C30310   3.057   0.497   0.564 -0.2092 -0.7093  0.3407
  966MOL0     O30311   2.957   0.540   0.486  0.2602  0.7149  0.1244
  966MOL0     C30312   2.946   0.688   0.475 -0.0430  0.7406  0.1650
  966MOL0     C30313   2.819   0.719   0.391  0.8252  0.2491  0.3776
  966MOL0     C30314   2.838   0.708   0.242  0.3789  0.1659 -0.3609
  966MOL0     C30315   2.724   0.778   0.161 -0.0250  0.3627  0.6104
  966MOL0     C30316   2.601   0.680   0.156  0.8409 -0.2173 -0.1426
  966MOL0     C30317   2.486   0.762   0.094  0.5220  0.2771 -0.5185
  966MOL0     C30318   2.364   0.662   0.092 -0.5582 -0.4774 -0.8784
  966MOL0     C30319   2.241   0.725   0.034 -0.5630  0.5452 -0.0446
  966MOL0    Cl30320   2.172   0.846   0.136 -0.1617 -0.2678 -0.4998
  966MOL0     C30321   3.188   0.552   0.569 -0.1493 -0.4889  0.0610
  966MOL0     C30322   3.282   0.498   0.663 -0.3558 -0.6483  0.1902
  966MOL0     O30323   3.513   0.271   0.682 -0.7409  0.0520  0.0471
  966MOL0     C30324   3.713   0.295   0.857 -0.2635 -0.0080  0.2873
  966MOL0     C30325   3.819   0.344   0.938  0.4494 -0.9137  0.8781
  966MOL0     N30326   4.494   0.162   1.173  0.0593  0.1411 -0.4463
  966MOL0     N30327   4.623   0.162   1.160  0.4021  0.9343  0.1284
  966MOL0     C30328   5.797   0.636   0.939  0.2571  0.1804 -0.3452
  966MOL0     C30329   5.927   0.592   0.952  0.1650  0.0148  0.2068
  966MOL0     C30330   6.335   0.480   1.170 -0.4050 -0.6218 -0.8105
  966MOL0     C30331   6.384   0.395   1.062  0.0262  0.5122  0.2064
  966MOL0     C30332   6.516   0.365   1.046 -0.1328 -0.0942 -0.1769
  966MOL0     C30333   6.608   0.426   1.134  1.0759 -0.3495 -0.1923
  966MOL0     O30334   6.728   0.367   1.127 -0.2909  0.4410  0.5519
  966MOL0     C30335   6.799   0.346   1.253 -0.5330  0.2118 -0.1287
  966MOL0     C30336   6.919   0.249   1.228  0.3884  0.5148  0.2909
  966MOL0     C30337   7.023   0.312   1.132  0.0590 -0.2926  0.2909
  966MOL0     C30338   7.070   0.458   1.161 -0.2633  0.2159  0.3160
  966MOL0     C30339   7.175   0.491   1.066 -0.1941  0.1229 -0.4457
  966MOL0     C30340   7.257   0.538   0.989 -0.3023 -0.2105  0.7225
  966MOL0     C30341   6.566   0.497   1.249  0.2304  0.1139 -0.0853
  966MOL0     C30342   6.435   0.528   1.263  0.6235 -0.2336  0.3154
  966MOL0     H30343   5.915   0.501   1.288 -1.1910  1.0097  1.2239
  966MOL0     H30344   5.708   0.597   1.257  0.4117 -2.3291 -0.3884
  966MOL0     H30345   5.467   0.580   1.186 -4.6078  1.6171  2.1626
  966MOL0     H30346   5.511   0.750   1.199 -0.5559  0.7903 -0.2542
  966MOL0     H30347   5.342   0.811   1.042 -0.4735 -0.1049 -0.7558
  966MOL0     H30348   5.355   0.665   0.948 -0.6514  3.9942 -1.8068
  966MOL0     H30349   5.221   0.718   1.222  0.9589 -1.5758  0.6870
  966MOL0     H30350   5.129   0.702   1.077 -1.7823 -1.8353  0.6174
  966MOL0     H30351   5.237   0.474   1.046 -1.4967 -0.8769 -0.7577
  966MOL0     H30352   5.273   0.476   1.220 -3.5366 -3.1648  1.0631
  966MOL0     H30353   5.066   0.392   1.234  1.2420  0.8938  2.1030
  966MOL0     H30354   5.003   0.552   1.218  1.3545 -0.4581  1.1184
  966MOL0     H30355   5.010   0.498   0.951 -0.7180  1.1580  0.5688
  966MOL0     H30356   5.034   0.333   1.013 -3.5700 -1.1634  1.2193
  966MOL0     H30357   4.796   0.515   1.063 -1.7708 -1.5945  3.5518
  966MOL0     H30358   4.807   0.370   0.953 -0.1976  4.8882 -3.6016
  966MOL0     H30359   4.811   0.392   1.260  2.3133  0.8834 -1.3292
  966MOL0     H30360   4.866   0.249   1.183  1.1899  0.1969 -0.0095
  966MOL0     H30361   4.557   0.477   1.216  0.6213 -0.6433  1.4864
  966MOL0     H30362   4.231   0.266   1.207 -0.3045  0.7096 -0.0728
  966MOL0     H30363   4.309   0.327   1.347 -0.3925  3.9695  0.4799
  966MOL0     H30364   4.294   0.505   1.097  0.8780 -1.7999  0.2013
  966MOL0     H30365   4.313   0.538   1.275  0.1410  1.0573  1.5299
  966MOL0     H30366   4.096   0.612   1.205  3.3920  0.5227  0.0310
  966MOL0     H30367   4.087   0.468   1.311  2.5176  1.0241  0.9069
  966MOL0     H30368   4.039   0.339   1.082  0.0192  0.8580 -1.0505
  966MOL0     H30369   4.068   0.477   0.996  0.1501 -0.4951  0.4415
  966MOL0     H30370   3.655   0.522   1.170 -0.5745 -0.7192 -0.8998
  966MOL0     H30371   3.358   0.523   0.957 -1.6979 -1.4132  0.1951
  966MOL0     H30372   3.359   0.418   1.098  0.0016 -0.5574 -1.7957
  966MOL0     H30373   3.446   0.573   1.110 -1.5653  1.1762 -0.1382
  966MOL0     H30374   3.111   0.242   0.787  1.0141  0.9931  2.1066
  966MOL0     H30375   2.924   0.359   0.651 -0.4614  2.1907 -0.3406
  966MOL0     H30376   2.935   0.725   0.577 -0.1624 -0.9426  0.8044
  966MOL0     H30377   3.035   0.728   0.426  1.4143 -3.1849 -0.7649
  966MOL0     H30378   2.743   0.647   0.421  0.9477  0.0106  0.1226
  966MOL0     H30379   2.781   0.819   0.414  3.6568  1.6612 -0.5094
  966MOL0     H30380   2.849   0.607   0.201  1.5465 -0.8406  2.2666
  966MOL0     H30381   2.931   0.765   0.229  1.9310 -2.4723 -1.6775
  966MOL0     H30382   2.693   0.875   0.201  0.1249  0.3481  0.7628
  966MOL0     H30383   2.764   0.789   0.059  0.2852 -0.0369  0.6829
  966MOL0     H30384   2.562   0.664   0.257 -1.8521 -0.9567 -1.2364
  966MOL0     H30385   2.624   0.580   0.119  1.0582 -1.4276  2.9575
  966MOL0     H30386   2.458   0.850   0.153  0.4917  0.1997 -0.4153
  966MOL0     H30387   2.507   0.809  -0.002  0.4757 -0.5061 -0.9222
  966MOL0     H30388   2.338   0.632   0.193 -2.1341  1.0445 -0.7852
  966MOL0     H30389   2.400   0.577   0.033 -1.8555 -0.8566 -1.1645
  966MOL0     H30390   2.162   0.650   0.018  2.0024 -2.3806 -0.0382
  966MOL0     H30391   2.261   0.762  -0.066 -0.1206 -3.7276 -1.7685
  966MOL0     H30392   3.232   0.633   0.513 -1.1323 -0.9058 -1.3638
  966MOL0     H30393   3.381   0.541   0.651 -0.6028 -0.6777 -2.8827
  966MOL0     H30394   3.732   0.241   0.765  1.6554  3.3549 -1.4629
  966MOL0     H30395   3.908   0.286   0.915 -1.0246 -2.9876 -0.0110
  966MOL0     H30396   5.752   0.672   0.847 -0.6085 -0.9850 -0.3907
  966MOL0     H30397   5.992   0.586   0.866  0.9096 -0.8420  0.8099
  966MOL0     H30398   6.310   0.340   1.005 -1.3767 -0.4758  2.8390
  966MOL0     H30399   6.559   0.303   0.968  0.3661  0.2930 -0.2194
  966MOL0     H30400   6.852   0.436   1.286  4.1315 -3.0572  2.5743
  966MOL0     H30401   6.737   0.309   1.335  0.7236 -0.1598  0.6877
  966MOL0     H30402   6.880   0.156   1.187  0.8723  0.6699 -0.5302
  966MOL0     H30403   6.965   0.226   1.325  0.1639  1.0381  0.5293
  966MOL0     H30404   6.972   0.305   1.035  0.6169  0.7178 -0.0876
  966MOL0     H30405   7.108   0.246   1.110 -1.5668 -2.7148  0.8880
  966MOL0     H30406   7.105   0.468   1.264  1.1777 -4.3331  0.4807
  966MOL0     H30407   6.985   0.522   1.136 -2.1154 -3.3049 -3.5755
  966MOL0     H30408   7.330   0.587   0.927  1.8966 -1.2574  2.3589
  966MOL0     H30409   6.629   0.548   1.321 -0.2337  0.2309  0.2374
  966MOL0     H30410   6.406   0.598   1.340  0.2021 -1.5785  1.4219
  967MOL0     O30411  10.440   7.726   7.873  0.1676 -0.2770  0.2401
  967MOL0     C30412  10.387   7.685   7.977  0.1546 -0.4327  0.3209
  967MOL0     O30413  10.457   7.645   8.090  0.6449  0.2953  0.4200
  967MOL0     C30414  10.592   7.643   8.117 -0.8200 -0.6974 -0.3588
  967MOL0     C30415  10.683   7.621   8.018 -1.0267 -0.5805 -0.1260
  967MOL0     C30416  10.825   7.609   8.036  0.2821 -0.2212  0.5860
  967MOL0     C30417  10.873   7.607   8.170 -1.3597 -0.4823 -0.6303
  967MOL0     O30418  11.008   7.613   8.185 -0.1345  0.0122 -0.7155
  967MOL0     C30419  11.053   7.556   8.304 -0.2822 -0.2673  0.2158
  967MOL0     C30420  11.207   7.518   8.284  0.6532 -0.1560  0.2711
  967MOL0     C30421  11.257   7.449   8.409  0.1287 -0.1295 -0.0121
  967MOL0     C30422  11.411   7.454   8.412  1.6131  0.3087  0.2862
  967MOL0     C30423  11.474   7.363   8.512  0.6325 -0.3457 -0.2331
  967MOL0     C30424  11.624   7.355   8.487  0.1944  0.1868  0.2854
  967MOL0     C30425  11.696   7.283   8.599 -0.0639  1.2174  0.1695
  967MOL0     C30426  11.844   7.286   8.603  0.0102 -0.3969 -0.0878
  967MOL0     N30427  11.896   7.240   8.477 -0.4368 -0.4515 -0.3615
  967MOL0     C30428  11.932   7.312   8.365 -0.4034 -0.0307 -0.1701
  967MOL0     C30429  11.966   7.230   8.269 -0.4222 -0.0124 -0.1176
  967MOL0     C30430  11.998   7.248   8.117 -0.4819  0.2727 -0.1120
  967MOL0     C30431  11.892   7.336   8.042 -0.4097  0.7513  0.2199
  967MOL0     C30432  11.771   7.251   8.028  0.5794  0.2174  0.2773
  967MOL0     C30433  11.658   7.316   7.946 -0.2813  0.3493  0.4252
  967MOL0     O30434  11.605   7.420   8.019  0.2506 -0.5869  0.9219
  967MOL0     C30435  11.490   7.495   7.986  0.4820 -0.4254 -0.0487
  967MOL0     C30436  11.477   7.626   8.025 -1.0495 -1.1820  0.1363
  967MOL0     C30437  11.368   7.714   7.991 -0.0794  0.4803 -0.3599
  967MOL0     C30438  11.349   7.831   8.076 -1.0193 -0.0797  0.1685
  967MOL0     C30439  11.281   7.666   7.894  0.2788 -0.1419 -0.1747
  967MOL0     C30440  11.172   7.745   7.846  0.9187 -0.1737  0.8525
  967MOL0     O30441  11.073   7.680   7.775 -0.0438 -0.2469 -0.0425
  967MOL0     C30442  10.983   7.751   7.702  0.0162 -0.1219  0.3283
  967MOL0     C30443  10.979   7.729   7.562 -0.4405  0.1525 -0.7170
  967MOL0     C30444  10.882   7.791   7.488  0.4561  0.2761  0.3918
  967MOL0     C30445  10.782   7.875   7.543 -0.1781  0.3633  0.6132
  967MOL0     O30446  10.690   7.917   7.459  0.2810 -0.4289  0.1765
  967MOL0     C30447  10.588   7.999   7.512 -0.0110  0.2022 -0.1127
  967MOL0     C30448  10.513   8.078   7.402  0.4462  0.2160 -0.1134
  967MOL0     C30449  10.424   8.174   7.472  0.5326  0.4022 -1.3130
  967MOL0     C30450  10.315   8.233   7.378  0.7762 -0.5510  0.0905
  967MOL0     C30451  10.369   8.310   7.253 -0.0808  0.3730 -0.2430
  967MOL0     C30452  10.251   8.372   7.175 -0.4980 -0.1434 -0.1459
  967MOL0     C30453  10.311   8.440   7.053 -0.0115 -0.4184  0.0596
  967MOL0     C30454  10.195   8.499   6.967  0.3717  0.2918  0.7262
  967MOL0    Cl30455  10.102   8.375   6.874  0.0150  0.1673  0.2940
  967MOL0     C30456  10.796   7.896   7.680  0.3077 -0.7838  0.1657
  967MOL0     C30457  10.895   7.843   7.757 -0.0292 -0.3986 -0.5435
  967MOL0     O30458  11.174   7.864   7.850 -0.0036  0.1748  0.4998
  967MOL0     C30459  11.292   7.538   7.850 -0.5330  0.3238  0.0115
  967MOL0     C30460  11.388   7.449   7.900 -0.1125  0.1181  0.5755
  967MOL0     N30461  11.956   7.098   8.326  0.1803 -0.3484 -1.0706
  967MOL0     N30462  11.906   7.107   8.445 -0.2661 -0.3758 -0.2932
  967MOL0     C30463  10.786   7.639   8.276  0.4451 -0.4535 -0.5687
  967MOL0     C30464  10.649   7.654   8.246  0.1772  0.1993  1.0470
  967MOL0     C30465  10.243   7.681   7.984 -0.4256 -0.6557 -0.4917
  967MOL0     C30466  10.178   7.629   8.099  0.1917  0.7952  0.9559
  967MOL0     C30467  10.045   7.593   8.094  0.1160 -0.0065  0.3319
  967MOL0     C30468   9.976   7.604   7.980  0.0990 -0.1024  0.7200
  967MOL0     O30469   9.850   7.556   7.980 -0.2571 -0.0405  0.3479
  967MOL0     C30470   9.831   7.428   7.922 -0.3951  1.0039  0.1081
  967MOL0     C30471   9.684   7.392   7.896  0.5145 -1.2202  0.2057
  967MOL0     C30472   9.623   7.509   7.803 -0.1499  0.0847  0.3944
  967MOL0     C30473   9.481   7.488   7.749  0.4413  0.0870  0.3297
  967MOL0     C30474   9.412   7.611   7.707  0.5484 -0.1351 -0.5161
  967MOL0     C30475   9.359   7.721   7.672 -0.3716  0.5276 -0.3427
  967MOL0     C30476  10.027   7.662   7.874 -0.7507 -0.4595  0.2666
  967MOL0     C30477  10.165   7.706   7.872  0.2516 -1.0812 -0.5497
  967MOL0     H30478  10.656   7.613   7.913 -3.0071 -2.2549  0.4320
  967MOL0     H30479  10.891   7.602   7.951 -1.5294  1.9651 -1.1185
  967MOL0     H30480  11.054   7.637   8.377 -2.7586 -0.6479  0.7496
  967MOL0     H30481  10.991   7.469   8.325  1.4111 -1.4416  0.5604
  967MOL0     H30482  11.215   7.454   8.196  0.6168  0.5519 -0.2516
  967MOL0     H30483  11.263   7.610   8.264  1.3925 -0.8693 -1.0816
  967MOL0     H30484  11.209   7.494   8.497 -1.0012 -1.5530  0.1276
  967MOL0     H30485  11.228   7.345   8.397  1.8186 -0.4455 -1.8129
  967MOL0     H30486  11.441   7.420   8.312 -1.8114 -2.0900 -0.0973
  967MOL0     H30487  11.444   7.557   8.433 -1.2103  1.1469  0.9547
  967MOL0     H30488  11.438   7.389   8.612 -1.0490 -3.3307  0.0580
  967MOL0     H30489  11.435   7.261   8.509 -1.4499  0.2144  2.8271
  967MOL0     H30490  11.644   7.312   8.389 -1.2711 -2.6201  1.1079
  967MOL0     H30491  11.659   7.459   8.480  0.0971  0.0854 -3.2549
  967MOL0     H30492  11.662   7.324   8.694 -1.7619  2.7815 -1.0602
  967MOL0     H30493  11.659   7.181   8.590 -2.3806  1.9525  0.7750
  967MOL0     H30494  11.870   7.221   8.686  1.6368  0.3037 -0.0068
  967MOL0     H30495  11.888   7.385   8.618  1.7750 -0.5561 -3.2144
  967MOL0     H30496  11.925   7.420   8.359 -2.0210 -0.1423 -0.8534
  967MOL0     H30497  12.099   7.286   8.099  0.4655 -2.5464 -1.2890
  967MOL0     H30498  12.012   7.148   8.075 -1.8529  0.6113 -1.4743
  967MOL0     H30499  11.922   7.364   7.940 -2.0040  2.6356  0.1934
  967MOL0     H30500  11.883   7.432   8.093  2.6508  1.5051 -0.4680
  967MOL0     H30501  11.726   7.233   8.126  0.3748 -2.2613 -0.2056
  967MOL0     H30502  11.801   7.155   7.984  1.6689  1.0437 -0.8405
  967MOL0     H30503  11.577   7.248   7.920 -0.5400  0.5393  0.7340
  967MOL0     H30504  11.700   7.339   7.847  0.6608 -0.7301  0.5554
  967MOL0     H30505  11.547   7.659   8.102  0.1941 -1.1893 -0.9463
  967MOL0     H30506  11.446   7.862   8.118 -1.5904  1.0001  0.7480
  967MOL0     H30507  11.305   7.922   8.035 -1.0419  0.2167  0.8358
  967MOL0     H30508  11.284   7.796   8.157 -0.1885  0.7560  1.2291
  967MOL0     H30509  11.045   7.658   7.513 -0.2000  0.4208 -0.7780
  967MOL0     H30510  10.866   7.782   7.381  2.5318 -1.5632  0.1630
  967MOL0     H30511  10.523   7.945   7.581  0.5940  1.1944  1.2752
  967MOL0     H30512  10.639   8.074   7.573  1.8199  0.4888 -1.8940
  967MOL0     H30513  10.578   8.128   7.330  1.3870 -0.9305 -0.0869
  967MOL0     H30514  10.460   8.005   7.339  0.5690  0.3505 -0.3738
  967MOL0     H30515  10.479   8.258   7.515 -1.0374  0.0007  1.7729
  967MOL0     H30516  10.372   8.117   7.550 -1.9065 -0.5454 -3.4800
  967MOL0     H30517  10.247   8.151   7.354  1.3919 -1.0359 -0.0164
  967MOL0     H30518  10.247   8.301   7.430 -1.0364 -1.2403 -1.2710
  967MOL0     H30519  10.427   8.249   7.183 -1.8656  0.3816 -1.8081
  967MOL0     H30520  10.443   8.384   7.287  1.2933 -1.2515  0.4044
  967MOL0     H30521  10.181   8.293   7.148  0.0154 -1.4197  2.0382
  967MOL0     H30522  10.204   8.446   7.241 -1.2065 -1.7034  1.1656
  967MOL0     H30523  10.376   8.374   6.994 -1.1054 -0.9332 -0.5913
  967MOL0     H30524  10.381   8.519   7.081 -1.1018  1.2438 -1.7109
  967MOL0     H30525  10.230   8.575   6.897 -2.5988  1.8113  0.7143
  967MOL0     H30526  10.116   8.541   7.031 -3.1591 -3.3276 -0.8145
  967MOL0     H30527  10.732   7.962   7.737  0.6868  0.7756 -1.1245
  967MOL0     H30528  10.901   7.866   7.863  0.0022  1.2679 -0.8911
  967MOL0     H30529  11.215   7.501   7.783 -2.2279  0.5475  1.7419
  967MOL0     H30530  11.378   7.349   7.858 -1.2748  0.2400  0.5518
  967MOL0     H30531  10.818   7.648   8.379 -1.3528 -1.2713  0.0961
  967MOL0     H30532  10.582   7.670   8.330 -0.5109 -2.0043  0.9826
  967MOL0     H30533  10.231   7.598   8.188  3.2794 -0.0479 -1.0399
  967MOL0     H30534   9.993   7.550   8.180 -0.6460 -2.0476 -1.0600
  967MOL0     H30535   9.887   7.422   7.828 -0.3970  5.1414 -0.3521
  967MOL0     H30536   9.885   7.365   7.993  1.2928 -1.6448 -3.2080
  967MOL0     H30537   9.628   7.399   7.990 -2.9852  0.9133 -1.7758
  967MOL0     H30538   9.671   7.293   7.852 -1.6840 -1.0008  0.2399
  967MOL0     H30539   9.693   7.525   7.720 -1.1825  3.4762  0.0263
  967MOL0     H30540   9.626   7.604   7.856  0.4649  0.0714  0.3847
  967MOL0     H30541   9.419   7.446   7.829  1.9315 -2.4999  0.2488
  967MOL0     H30542   9.485   7.411   7.671  1.7756 -0.0167  0.4648
  967MOL0     H30543   9.306   7.803   7.629  1.1921  0.8452 -1.7958
  967MOL0     H30544   9.959   7.697   7.797 -0.4632 -1.1396 -0.3030
  967MOL0     H30545  10.214   7.748   7.785  1.0003  0.6253  0.6402
  968MOL0     O30546   4.902   5.689   9.887  0.0315  0.1348 -0.3567
  968MOL0     C30547   5.004   5.645   9.831 -0.0254 -0.0744 -0.0952
  968MOL0     O30548   5.010   5.565   9.714  0.0487 -0.3936  0.2815
  968MOL0     C30549   4.892   5.514   9.667  0.2725  0.0570 -0.4234
  968MOL0     C30550   4.814   5.606   9.599 -0.7642 -0.5293 -0.6789
  968MOL0     C30551   4.695   5.570   9.543 -0.7523  0.4558  0.0050
  968MOL0     C30552   4.648   5.436   9.566 -0.5654 -0.3189  0.5796
  968MOL0     O30553   4.527   5.372   9.521 -0.0437 -0.0206  0.0578
  968MOL0     C30554   4.435   5.465   9.469 -0.4795 -0.7063 -0.2870
  968MOL0     C30555   4.299   5.405   9.440  0.2072  0.7130 -0.1062
  968MOL0     C30556   4.210   5.502   9.357  0.8173 -0.8723  0.2508
  968MOL0     C30557   4.093   5.434   9.286 -0.4203 -0.0028  0.5649
  968MOL0     C30558   3.995   5.360   9.381 -0.5126  0.1453  0.6433
  968MOL0     C30559   3.905   5.457   9.463  0.6846 -0.7752 -0.3323
  968MOL0     C30560   3.878   5.400   9.600  0.4376 -0.1438  0.3472
  968MOL0     C30561   3.838   5.502   9.710  0.1818 -0.1784 -0.1289
  968MOL0     N30562   3.820   5.441   9.842 -0.1483  0.5001 -0.5240
  968MOL0     C30563   3.707   5.375   9.891  0.5836  0.4761  0.5114
  968MOL0     C30564   3.749   5.340  10.018 -0.4721 -0.0389  0.4489
  968MOL0     C30565   3.660   5.297  10.130 -0.5478 -0.0708  0.6011
  968MOL0     C30566   3.556   5.409  10.148 -0.0542 -0.3129 -1.0267
  968MOL0     C30567   3.617   5.539  10.214  0.4632  0.4676 -0.7662
  968MOL0     C30568   3.504   5.646  10.227  0.5586 -1.0686 -0.3473
  968MOL0     O30569   3.384   5.588  10.287 -0.4302  0.2515 -0.7057
  968MOL0     C30570   3.262   5.645  10.274  0.0883  0.4153 -0.5075
  968MOL0     C30571   3.234   5.783  10.267  0.3428  0.8894 -0.6127
  968MOL0     C30572   3.102   5.825  10.257  0.2187 -0.6893  0.6796
  968MOL0     C30573   3.084   5.975  10.253  0.5757 -0.3966 -0.6975
  968MOL0     C30574   2.997   5.734  10.263  0.6472  0.5219 -0.0567
  968MOL0     C30575   2.850   5.765  10.264 -0.1736 -0.1508 -0.6560
  968MOL0     O30576   2.752   5.670  10.304  0.4039 -0.4434  0.0015
  968MOL0     C30577   2.626   5.718  10.310 -0.0456 -1.2317  0.4668
  968MOL0     C30578   2.583   5.853  10.346 -0.3419  0.8372 -0.6542
  968MOL0     C30579   2.455   5.890  10.335  0.6745 -0.7552 -0.0051
  968MOL0     C30580   2.353   5.800  10.293 -0.3063 -0.2689  0.1411
  968MOL0     O30581   2.221   5.833  10.294 -0.1317  0.1548  0.4574
  968MOL0     C30582   2.171   5.962  10.331 -0.1273 -1.0915  0.3582
  968MOL0     C30583   2.030   5.985  10.285  0.2688  0.5012 -0.2229
  968MOL0     C30584   2.010   5.948  10.132 -0.1631 -0.1816 -0.0351
  968MOL0     C30585   2.104   6.021  10.044  0.4572 -0.7529 -0.3007
  968MOL0     C30586   2.057   5.995   9.899  0.1261 -0.5824 -0.4580
  968MOL0     C30587   2.157   6.045   9.795 -0.8794  0.2569 -0.1075
  968MOL0     C30588   2.137   6.203   9.798 -0.8443  0.4608 -0.1641
  968MOL0     C30589   2.188   6.271   9.672  0.3648  0.3346 -0.0415
  968MOL0    Cl30590   2.200   6.441   9.720  0.1097  0.2730  0.0845
  968MOL0     C30591   2.391   5.668  10.260  0.4382 -1.1289  0.5233
  968MOL0     C30592   2.526   5.631  10.265  0.6463  0.2714 -0.2721
  968MOL0     O30593   2.835   5.870  10.210 -0.2035  0.0436 -0.5453
  968MOL0     C30594   3.026   5.602  10.282 -0.0661  0.4176  0.4922
  968MOL0     C30595   3.161   5.556  10.284 -0.6206  0.5222 -0.2308
  968MOL0     N30596   3.879   5.391  10.043 -0.1424  0.0611  0.7306
  968MOL0     N30597   3.923   5.446   9.933 -0.7461  0.9112  0.0130
  968MOL0     C30598   4.727   5.347   9.633 -0.3668  0.5510  0.6981
  968MOL0     C30599   4.855   5.375   9.673  0.2077  0.5757  0.1640
  968MOL0     C30600   5.130   5.650   9.901  0.4433  0.1655  0.9694
  968MOL0     C30601   5.247   5.616   9.835 -0.0927  0.3489 -1.0073
  968MOL0     C30602   5.373   5.630   9.901 -0.2438 -0.5903  0.0254
  968MOL0     C30603   5.374   5.651  10.040  0.3180  0.0042 -0.5735
  968MOL0     O30604   5.486   5.656  10.116  0.5804 -0.7395  0.5957
  968MOL0     C30605   5.612   5.667  10.042  0.3230  0.4885 -0.0879
  968MOL0     C30606   5.713   5.735  10.142 -0.8450 -0.1317 -0.6699
  968MOL0     C30607   5.864   5.726  10.093  0.6257 -0.1164  0.3891
  968MOL0     C30608   5.943   5.856  10.119  0.1870  0.6268 -0.1224
  968MOL0     C30609   5.929   5.964  10.013  0.8715  0.3319  0.4858
  968MOL0     C30610   5.920   6.046   9.924 -0.0156  0.5299 -0.2977
  968MOL0     C30611   5.253   5.692  10.103 -0.3208  0.4164  0.2842
  968MOL0     C30612   5.133   5.695  10.030  0.9752  0.0097 -0.2545
  968MOL0     H30613   4.869   5.700   9.597 -0.3329 -0.5691  2.9799
  968MOL0     H30614   4.629   5.639   9.490 -1.4532  0.6813  1.1360
  968MOL0     H30615   4.426   5.544   9.544  0.5468  0.1053 -0.9995
  968MOL0     H30616   4.476   5.512   9.380 -1.4437 -1.9878 -1.4456
  968MOL0     H30617   4.309   5.310   9.386 -1.0094  0.6135 -0.1886
  968MOL0     H30618   4.245   5.395   9.535 -0.5856  1.8692 -0.4087
  968MOL0     H30619   4.168   5.587   9.413 -2.1530 -0.2874 -2.5754
  968MOL0     H30620   4.279   5.544   9.284 -0.1137 -2.1223 -1.4258
  968MOL0     H30621   4.039   5.506   9.225 -0.3450  0.3349  0.8960
  968MOL0     H30622   4.135   5.365   9.212 -3.2710 -1.1864 -0.0649
  968MOL0     H30623   3.932   5.298   9.317  1.6602  0.1387 -1.6158
  968MOL0     H30624   4.045   5.279   9.435 -0.7743 -1.5259 -1.4961
  968MOL0     H30625   3.941   5.560   9.466  1.3393 -1.0082 -0.1316
  968MOL0     H30626   3.808   5.471   9.414  1.2301  3.7522 -0.5601
  968MOL0     H30627   3.793   5.331   9.598  1.3159 -1.2421 -1.3796
  968MOL0     H30628   3.964   5.343   9.636  0.2798 -0.4310  0.2728
  968MOL0     H30629   3.744   5.552   9.684  1.5309  1.5255 -2.0168
  968MOL0     H30630   3.918   5.576   9.707  1.1211 -1.1701 -0.2761
  968MOL0     H30631   3.620   5.353   9.829  1.8579  0.0085 -1.1977
  968MOL0     H30632   3.609   5.206  10.097 -0.1550  0.5049 -1.8215
  968MOL0     H30633   3.726   5.279  10.215  0.7349  0.1238 -0.3154
  968MOL0     H30634   3.481   5.371  10.218  1.4516  2.0005  2.1238
  968MOL0     H30635   3.510   5.441  10.055  0.3369  2.0825 -0.4475
  968MOL0     H30636   3.703   5.579  10.159 -0.0837  0.8756 -1.3510
  968MOL0     H30637   3.656   5.507  10.311  1.1489 -0.1227 -1.2195
  968MOL0     H30638   3.492   5.689  10.128  2.2870 -0.1716 -0.2027
  968MOL0     H30639   3.530   5.737  10.282 -0.7157  0.8269 -2.7008
  968MOL0     H30640   3.321   5.848  10.278  1.5688 -0.8504  0.6242
  968MOL0     H30641   3.038   6.009  10.346  2.0243 -3.0099  1.0934
  968MOL0     H30642   3.179   6.026  10.232  2.3552 -2.7924  0.9883
  968MOL0     H30643   3.012   6.002  10.175 -0.9370  3.3816  1.7454
  968MOL0     H30644   2.652   5.927  10.385 -0.4558 -0.1111  1.4962
  968MOL0     H30645   2.431   5.993  10.357  2.4586 -0.8057  2.5716
  968MOL0     H30646   2.169   5.971  10.440  0.0049 -3.1741  0.5740
  968MOL0     H30647   2.234   6.039  10.286  0.7395 -1.6283  0.6247
  968MOL0     H30648   1.966   5.927  10.353  2.2652  0.6155  1.9043
  968MOL0     H30649   2.005   6.091  10.296 -3.6713 -0.1836 -1.1141
  968MOL0     H30650   1.909   5.988  10.116 -0.8105 -0.3655  2.9015
  968MOL0     H30651   2.021   5.839  10.124  2.0130 -0.0645  0.6956
  968MOL0     H30652   2.104   6.123  10.084  0.1636 -0.7389 -0.3311
  968MOL0     H30653   2.207   5.986  10.053  1.6971  2.8669  1.8533
  968MOL0     H30654   1.956   6.034   9.885  0.6385  0.7467 -0.5228
  968MOL0     H30655   2.046   5.886   9.890  4.2327 -1.2240  0.3404
  968MOL0     H30656   2.262   6.020   9.812 -0.2446  2.0722 -1.0422
  968MOL0     H30657   2.127   6.013   9.695  1.9381 -5.1648  0.4386
  968MOL0     H30658   2.185   6.231   9.892  0.2387 -3.0099  0.4704
  968MOL0     H30659   2.033   6.232   9.813  0.2720  4.2891  1.1522
  968MOL0     H30660   2.134   6.267   9.577  4.1096 -1.6041 -2.3486
  968MOL0     H30661   2.289   6.249   9.636 -1.3526  0.1498 -5.6622
  968MOL0     H30662   2.313   5.600  10.227  0.6882 -1.2922  0.2667
  968MOL0     H30663   2.553   5.534  10.226 -1.2650 -0.2410 -0.4235
  968MOL0     H30664   2.947   5.532  10.308  1.4101 -0.7087  2.2109
  968MOL0     H30665   3.193   5.452  10.292  1.6471  1.2009  0.3501
  968MOL0     H30666   4.703   5.242   9.635  1.7223  0.0152  0.0661
  968MOL0     H30667   4.922   5.304   9.720 -0.6347  1.1376  2.3659
  968MOL0     H30668   5.246   5.607   9.727 -1.2811  2.5319 -1.2464
  968MOL0     H30669   5.466   5.618   9.846  2.1508  4.0799  2.4905
  968MOL0     H30670   5.644   5.563  10.030 -0.3330  0.3436 -0.6253
  968MOL0     H30671   5.609   5.724   9.949 -1.9401 -2.0045 -1.6947
  968MOL0     H30672   5.708   5.678  10.235 -4.3043  0.0454 -0.6200
  968MOL0     H30673   5.687   5.836  10.175  1.5888  0.4598 -0.3503
  968MOL0     H30674   5.878   5.694   9.989 -0.9190  2.1228 -0.5844
  968MOL0     H30675   5.917   5.652  10.153  3.3412  1.7779  0.5296
  968MOL0     H30676   6.048   5.828  10.109  0.0948 -0.5782  1.8733
  968MOL0     H30677   5.923   5.885  10.223  0.6889 -1.3611  0.5626
  968MOL0     H30678   5.895   6.128   9.860 -1.1272  1.8096  1.6524
  968MOL0     H30679   5.246   5.706  10.210 -2.5596 -0.6609  0.3370
  968MOL0     H30680   5.041   5.722  10.081  0.3192 -1.0309 -0.8645
  969MOL0     O30681   2.867   6.177   9.001  0.9422 -0.4736  0.0605
  969MOL0     C30682   2.880   6.235   8.897  0.1937 -0.4340 -0.1205
  969MOL0     O30683   2.793   6.322   8.831  0.5018  0.4038 -0.5653
  969MOL0     C30684   2.660   6.338   8.864  0.4608 -0.3149  0.1648
  969MOL0     C30685   2.570   6.234   8.900  0.1749  0.5824 -0.9028
  969MOL0     C30686   2.430   6.257   8.924 -0.0138  0.6605  0.4312
  969MOL0     C30687   2.382   6.394   8.908  0.3588 -0.0231 -0.6091
  969MOL0     O30688   2.247   6.397   8.935 -0.1542  0.5611  0.7017
  969MOL0     C30689   2.186   6.522   8.918 -0.2291 -1.2079 -0.2651
  969MOL0     C30690   2.034   6.514   8.929 -0.8247  0.4696 -0.4322
  969MOL0     C30691   1.986   6.414   8.827  0.3137  0.4750  0.0690
  969MOL0     C30692   1.836   6.425   8.813  0.2974 -0.2451  0.1532
  969MOL0     C30693   1.776   6.327   8.716  0.2439 -0.7068  0.0342
  969MOL0     C30694   1.650   6.263   8.766 -0.9572 -0.7454  0.5549
  969MOL0     C30695   1.575   6.172   8.669 -0.1539  0.0107 -0.4431
  969MOL0     C30696   1.438   6.125   8.737 -0.2408 -0.9626  0.7725
  969MOL0     N30697   1.455   5.988   8.785 -0.1640  0.1426  0.0642
  969MOL0     C30698   1.476   5.890   8.688  0.3345 -0.8191  0.0431
  969MOL0     C30699   1.474   5.780   8.760 -1.1850 -0.4533 -1.5229
  969MOL0     C30700   1.470   5.642   8.704  0.9304  0.0780 -0.4855
  969MOL0     C30701   1.606   5.574   8.714 -1.1668 -0.0370  0.6658
  969MOL0     C30702   1.702   5.607   8.604  0.4043  0.8537  0.6745
  969MOL0     C30703   1.840   5.559   8.625 -0.4880 -0.8887  0.0581
  969MOL0     O30704   1.862   5.529   8.759 -0.1282  0.2587 -0.0344
  969MOL0     C30705   1.984   5.491   8.793 -1.0815  0.7759  0.3718
  969MOL0     C30706   1.994   5.448   8.925  0.2971  0.1938 -0.1658
  969MOL0     C30707   2.113   5.385   8.973  0.2490  0.0604 -0.1860
  969MOL0     C30708   2.114   5.348   9.118  0.5971 -0.1832  0.9984
  969MOL0     C30709   2.230   5.380   8.894  0.1606  0.6249 -0.2211
  969MOL0     C30710   2.364   5.314   8.934  0.3561 -0.3568  0.4907
  969MOL0     O30711   2.472   5.319   8.843  0.2408 -0.2118 -0.4745
  969MOL0     C30712   2.590   5.247   8.851  0.1344  0.4085 -0.0935
  969MOL0     C30713   2.615   5.131   8.923 -0.3081  0.1723  0.0495
  969MOL0     C30714   2.745   5.083   8.928  0.1629 -0.5020  1.0523
  969MOL0     C30715   2.848   5.136   8.855  0.1471  0.0118 -0.2963
  969MOL0     O30716   2.977   5.089   8.875  0.2309  0.0036  0.6352
  969MOL0     C30717   3.050   5.067   8.756 -0.3279  0.5593  0.0459
  969MOL0     C30718   3.189   5.007   8.789  0.2771  0.1504  0.0496
  969MOL0     C30719   3.299   5.121   8.775 -0.2735  0.4514 -0.1615
  969MOL0     C30720   3.445   5.065   8.782  0.4018 -0.1986 -0.0752
  969MOL0     C30721   3.475   5.024   8.924 -0.4675 -0.7658 -0.2551
  969MOL0     C30722   3.598   4.940   8.925 -0.0710  0.3905 -0.6068
  969MOL0     C30723   3.579   4.790   8.899 -0.4948 -0.7148 -0.0207
  969MOL0     C30724   3.701   4.694   8.919 -0.1350  0.1003 -0.1587
  969MOL0    Cl30725   3.846   4.745   8.829  0.0965  0.1544 -0.4103
  969MOL0     C30726   2.822   5.251   8.772  0.0736  0.5855 -0.2469
  969MOL0     C30727   2.688   5.302   8.774  0.7701  0.1621  0.2129
  969MOL0     O30728   2.374   5.273   9.049  0.4760  0.0110 -0.5483
  969MOL0     C30729   2.213   5.430   8.765  0.6644  0.0621  0.5630
  969MOL0     C30730   2.094   5.478   8.716 -0.3731 -0.0750 -0.0748
  969MOL0     N30731   1.456   5.811   8.895 -0.1602 -0.6040  0.3713
  969MOL0     N30732   1.447   5.940   8.908 -0.0646  0.3516 -0.1244
  969MOL0     C30733   2.471   6.494   8.877  0.4998 -0.9770  0.1268
  969MOL0     C30734   2.600   6.461   8.858 -0.1767 -0.0335  1.1273
  969MOL0     C30735   2.999   6.211   8.823 -0.8809 -0.2365 -0.5423
  969MOL0     C30736   3.096   6.117   8.865 -0.4762  0.4121  0.8181
  969MOL0     C30737   3.218   6.092   8.789  0.1202  0.3052  0.5177
  969MOL0     C30738   3.239   6.163   8.669 -0.1463 -0.3174 -0.9193
  969MOL0     O30739   3.335   6.138   8.576 -0.1789  0.3688 -0.7556
  969MOL0     C30740   3.398   6.006   8.569 -0.1432  0.3681 -0.8674
  969MOL0     C30741   3.415   5.960   8.428 -1.4551  0.5000  1.0590
  969MOL0     C30742   3.538   6.042   8.375 -0.4085  0.5940  0.0965
  969MOL0     C30743   3.566   6.017   8.222 -0.9786  0.4743  0.5768
  969MOL0     C30744   3.707   6.045   8.193 -0.3537 -0.1128  0.0291
  969MOL0     C30745   3.820   6.067   8.153  0.4432  0.2421 -0.2205
  969MOL0     C30746   3.147   6.257   8.644  0.3333 -0.1548  1.2355
  969MOL0     C30747   3.034   6.288   8.717 -0.4510  0.0062  0.4908
  969MOL0     H30748   2.608   6.132   8.900  3.0432  1.5085  1.1419
  969MOL0     H30749   2.362   6.178   8.954  1.0523 -0.8080 -0.8260
  969MOL0     H30750   2.217   6.595   8.993 -1.6683 -2.3680  1.5356
  969MOL0     H30751   2.208   6.556   8.817 -1.7743 -0.8262 -0.4848
  969MOL0     H30752   1.999   6.484   9.028  1.3630  0.3162  0.3666
  969MOL0     H30753   1.982   6.608   8.909 -1.6518  0.2976  0.8402
  969MOL0     H30754   2.029   6.432   8.728  0.6275  3.6481  0.6906
  969MOL0     H30755   2.000   6.310   8.859 -1.6157 -0.7578 -2.7036
  969MOL0     H30756   1.783   6.414   8.908 -1.6163 -1.1243 -0.9526
  969MOL0     H30757   1.813   6.526   8.777 -0.9542 -0.3618  0.5760
  969MOL0     H30758   1.749   6.381   8.625  0.3269 -2.9692 -1.4321
  969MOL0     H30759   1.848   6.252   8.681  2.3125  1.0734  0.3060
  969MOL0     H30760   1.689   6.210   8.853  0.5295 -0.1637  0.2640
  969MOL0     H30761   1.584   6.344   8.798  2.7069  4.2170 -2.8447
  969MOL0     H30762   1.551   6.225   8.576  0.3776 -1.8915 -1.7125
  969MOL0     H30763   1.620   6.076   8.642  0.2427  0.3635 -1.0666
  969MOL0     H30764   1.348   6.130   8.674 -0.2791 -0.5653  0.8513
  969MOL0     H30765   1.421   6.194   8.821 -1.5025  0.5247 -0.6199
  969MOL0     H30766   1.491   5.903   8.581 -0.1650  1.4301  0.1813
  969MOL0     H30767   1.386   5.582   8.739  0.0617  1.3435 -0.3106
  969MOL0     H30768   1.444   5.655   8.599 -2.5651 -2.5103 -0.0882
  969MOL0     H30769   1.586   5.466   8.713  0.3305 -0.4008  2.5670
  969MOL0     H30770   1.643   5.597   8.814  1.6751  1.6732 -0.6510
  969MOL0     H30771   1.697   5.716   8.598  1.3235  0.8530 -0.4824
  969MOL0     H30772   1.667   5.570   8.507 -1.2786  5.1751 -0.5808
  969MOL0     H30773   1.913   5.637   8.601  0.5680 -1.6112  0.8744
  969MOL0     H30774   1.858   5.476   8.556  2.7712  0.4798 -0.8903
  969MOL0     H30775   1.910   5.450   8.994  3.0668 -0.7207  3.5707
  969MOL0     H30776   2.197   5.382   9.180 -1.0611  4.9322  0.8652
  969MOL0     H30777   2.025   5.381   9.173  0.1785  3.2915 -1.4401
  969MOL0     H30778   2.103   5.239   9.111  1.3642 -0.1649 -1.9264
  969MOL0     H30779   2.533   5.080   8.972  0.5224 -1.3531 -0.0713
  969MOL0     H30780   2.759   5.003   9.000 -2.1422  0.1485  2.3185
  969MOL0     H30781   3.001   4.996   8.689 -0.2414  0.8283 -0.3021
  969MOL0     H30782   3.071   5.158   8.700 -0.9070  0.0761 -0.9734
  969MOL0     H30783   3.182   4.972   8.893 -3.9520  0.6287  0.1007
  969MOL0     H30784   3.203   4.916   8.730 -0.9200  1.1384 -1.8512
  969MOL0     H30785   3.281   5.189   8.859 -1.7312  2.5853 -2.0937
  969MOL0     H30786   3.291   5.183   8.686  1.1812  1.1898  0.1932
  969MOL0     H30787   3.451   4.980   8.714  0.8066 -0.1076 -0.1551
  969MOL0     H30788   3.520   5.138   8.751  0.4372  0.0941  0.6799
  969MOL0     H30789   3.398   4.963   8.972 -0.6890 -0.8489 -0.7095
  969MOL0     H30790   3.493   5.116   8.980 -3.6509 -0.7772  0.9855
  969MOL0     H30791   3.673   4.988   8.862  0.8494 -0.8095 -0.4680
  969MOL0     H30792   3.650   4.956   9.021  1.1155  0.1242 -1.1841
  969MOL0     H30793   3.555   4.777   8.793 -0.7206  2.9773 -0.5566
  969MOL0     H30794   3.491   4.760   8.958 -2.1854 -2.4805 -3.1873
  969MOL0     H30795   3.673   4.592   8.890 -5.0087  0.7810  1.1896
  969MOL0     H30796   3.718   4.702   9.026 -0.6642  2.1188 -0.2008
  969MOL0     H30797   2.895   5.279   8.696  0.4708 -0.1506 -0.1488
  969MOL0     H30798   2.659   5.382   8.707 -0.1787 -1.2974 -1.2209
  969MOL0     H30799   2.296   5.420   8.696  0.1849 -0.7272  0.0811
  969MOL0     H30800   2.088   5.522   8.617 -0.2000  0.2534  0.0583
  969MOL0     H30801   2.444   6.599   8.871  2.4987 -0.3747  0.8707
  969MOL0     H30802   2.662   6.545   8.830 -0.6490 -0.3839 -1.0966
  969MOL0     H30803   3.073   6.053   8.949  1.5195  0.1266  1.1932
  969MOL0     H30804   3.279   6.010   8.825  0.5868  1.1838  1.7883
  969MOL0     H30805   3.494   6.023   8.617 -0.2176  2.1224 -1.2694
  969MOL0     H30806   3.344   5.929   8.625  3.6584 -0.2521  2.3052
  969MOL0     H30807   3.325   5.970   8.366  0.5680 -2.1580 -2.6799
  969MOL0     H30808   3.448   5.857   8.418 -1.0401  0.7706 -0.5969
  969MOL0     H30809   3.626   6.011   8.432 -1.8138 -3.6493  0.3725
  969MOL0     H30810   3.513   6.147   8.392 -1.0839  0.0253  3.2666
  969MOL0     H30811   3.503   6.085   8.164  0.4065  0.5112 -0.9354
  969MOL0     H30812   3.540   5.914   8.198  2.2224 -0.7201  1.8030
  969MOL0     H30813   3.920   6.079   8.116  0.2302 -1.1344 -1.3246
  969MOL0     H30814   3.169   6.312   8.552 -1.7734 -0.9000  0.2193
  969MOL0     H30815   2.973   6.370   8.681  1.9432  1.3634 -0.6709
  970MOL0     O30816   2.907   6.641   5.512 -0.3271 -1.4411 -0.0477
  970MOL0     C30817   3.007   6.688   5.573 -0.8575  0.1077 -0.5096
  970MOL0     O30818   3.005   6.795   5.657  0.3894  0.0338  1.5145
  970MOL0     C30819   2.891   6.873   5.671  0.0918 -0.1891  1.3232
  970MOL0     C30820   2.906   7.012   5.652 -0.3974 -0.2325  0.3679
  970MOL0     C30821   2.790   7.099   5.659  0.4796  0.2446  0.3444
  970MOL0     C30822   2.659   7.046   5.687  0.5671  0.1542 -0.0529
  970MOL0     O30823   2.557   7.138   5.701  0.2956  0.1082  0.3617
  970MOL0     C30824   2.425   7.087   5.731 -0.8098 -0.3050 -0.2082
  970MOL0     C30825   2.353   7.044   5.604  0.8423 -0.0913  1.1658
  970MOL0     C30826   2.201   7.036   5.614 -0.1035 -0.0583  0.8078
  970MOL0     C30827   2.151   6.929   5.712 -0.2967  0.4816  0.0771
  970MOL0     C30828   2.018   6.958   5.786  0.0855  0.7571 -0.3484
  970MOL0     C30829   1.963   6.825   5.850  0.0215  0.2056  0.9111
  970MOL0     C30830   1.837   6.847   5.940  0.0560  0.3923 -0.4119
  970MOL0     C30831   1.832   6.738   6.056  0.7062  0.9024  0.5827
  970MOL0     N30832   1.715   6.752   6.131 -0.0825  0.8673  0.0500
  970MOL0     C30833   1.589   6.728   6.092  0.3967  0.0345  0.4196
  970MOL0     C30834   1.519   6.757   6.205 -0.1794 -0.6566 -0.0201
  970MOL0     C30835   1.367   6.749   6.195  0.4481  0.0817 -0.0070
  970MOL0     C30836   1.304   6.751   6.336 -0.1442  0.1898  0.5814
  970MOL0     C30837   1.152   6.724   6.321  0.1103  0.0119 -1.1641
  970MOL0     C30838   1.067   6.740   6.444  0.0303  0.5910 -0.2251
  970MOL0     O30839   1.066   6.872   6.489  0.3040  0.6375  0.4957
  970MOL0     C30840   0.985   6.959   6.416  0.6362  0.5274  0.3712
  970MOL0     C30841   0.990   7.099   6.447  0.6761  0.0760 -0.0605
  970MOL0     C30842   0.908   7.196   6.387  0.6017 -0.0876 -0.0841
  970MOL0     C30843   0.937   7.340   6.424  0.2848 -0.2494  0.3363
  970MOL0     C30844   0.819   7.152   6.284  0.0672 -0.4240 -0.5752
  970MOL0     C30845   0.743   7.246   6.198 -0.6562 -0.2295  0.7361
  970MOL0     O30846   0.662   7.194   6.105 -0.2194  0.4225  0.1232
  970MOL0     C30847   0.537   7.244   6.079  0.0098  0.4235  0.1733
  970MOL0     C30848   0.466   7.313   6.181  0.3202  0.3196 -0.5236
  970MOL0     C30849   0.340   7.365   6.156  0.4958  0.0548  0.6681
  970MOL0     C30850   0.266   7.357   6.041 -0.3527  0.4810 -0.2918
  970MOL0     O30851   0.134   7.400   6.031 -0.2496 -0.0681 -0.2045
  970MOL0     C30852   0.073   7.381   5.903  0.2209 -0.3550  0.1905
  970MOL0     C30853  -0.064   7.448   5.905 -0.3691  0.3711 -0.3137
  970MOL0     C30854  -0.152   7.370   6.006  0.6210  0.1182  0.5442
  970MOL0     C30855  -0.292   7.432   5.992 -0.0071 -0.6395  0.1515
  970MOL0     C30856  -0.398   7.382   6.102 -0.1459 -0.1213  0.0589
  970MOL0     C30857  -0.529   7.475   6.107  0.2217 -0.6331 -0.2346
  970MOL0     C30858  -0.592   7.499   5.970  0.1338  0.2413  0.0743
  970MOL0     C30859  -0.724   7.558   5.965 -0.1598 -0.1589  0.3283
  970MOL0    Cl30860  -0.867   7.456   6.030  0.0288  0.1204 -0.1732
  970MOL0     C30861   0.336   7.286   5.931  0.5091  0.0435 -0.1684
  970MOL0     C30862   0.470   7.233   5.950  0.1309 -0.2444  0.3003
  970MOL0     O30863   0.765   7.366   6.210  0.3521 -0.5132 -0.0347
  970MOL0     C30864   0.816   7.014   6.250 -0.9098 -0.1274 -0.3281
  970MOL0     C30865   0.893   6.924   6.316 -0.3512 -0.1639  0.6722
  970MOL0     N30866   1.597   6.810   6.307 -0.7436  0.1095  0.9627
  970MOL0     N30867   1.714   6.812   6.255 -0.6602 -0.0136 -0.2083
  970MOL0     C30868   2.654   6.903   5.708 -0.3587 -0.0159  0.1853
  970MOL0     C30869   2.770   6.830   5.719 -0.2444  0.5964  0.5460
  970MOL0     C30870   3.127   6.604   5.563  0.3898  0.0230 -0.6955
  970MOL0     C30871   3.241   6.635   5.632  0.6063  0.5990  0.3876
  970MOL0     C30872   3.350   6.547   5.634  0.0547  0.0288  1.2209
  970MOL0     C30873   3.359   6.438   5.557  0.0889 -0.0975  0.2692
  970MOL0     O30874   3.479   6.370   5.567  0.5597  0.0189  0.2548
  970MOL0     C30875   3.506   6.293   5.455 -0.2303 -0.3466 -0.8297
  970MOL0     C30876   3.619   6.188   5.480 -0.0565  0.1853  0.6307
  970MOL0     C30877   3.567   6.071   5.576 -1.4551 -0.5499 -0.4072
  970MOL0     C30878   3.440   6.003   5.517 -0.1846  0.2541 -0.2959
  970MOL0     C30879   3.311   6.054   5.559  0.4598  0.4460 -0.2477
  970MOL0     C30880   3.204   6.098   5.588  0.3728 -0.4727 -1.1541
  970MOL0     C30881   3.242   6.409   5.479 -0.0509  0.2082 -0.1832
  970MOL0     C30882   3.132   6.492   5.477 -0.4188  0.2573  0.4963
  970MOL0     H30883   3.007   7.044   5.630 -1.4765  1.6872 -2.3284
  970MOL0     H30884   2.791   7.207   5.647 -2.7751  0.0498 -3.5154
  970MOL0     H30885   2.436   7.005   5.802  2.6267  1.3578  1.4509
  970MOL0     H30886   2.369   7.158   5.792  1.5604  2.8002 -1.3846
  970MOL0     H30887   2.376   7.125   5.535  0.6686 -1.7570 -0.9497
  970MOL0     H30888   2.400   6.952   5.569  0.1423  0.1453 -0.4523
  970MOL0     H30889   2.163   7.133   5.650 -1.2057  0.3278 -1.2575
  970MOL0     H30890   2.150   7.017   5.520  0.7834 -2.4697  0.7569
  970MOL0     H30891   2.129   6.833   5.665 -2.1316  0.1083  1.5850
  970MOL0     H30892   2.226   6.904   5.789 -0.3649  2.3425  0.7870
  970MOL0     H30893   2.043   7.033   5.861  0.2028  1.7782 -1.3906
  970MOL0     H30894   1.945   7.005   5.719 -0.5845  0.0810 -0.1081
  970MOL0     H30895   1.945   6.754   5.769 -0.4559 -1.0510  2.0767
  970MOL0     H30896   2.041   6.782   5.915 -2.1027 -3.3446  1.4361
  970MOL0     H30897   1.836   6.949   5.980  2.4132  0.7641 -1.1545
  970MOL0     H30898   1.748   6.843   5.877  1.2300  1.4425 -2.2144
  970MOL0     H30899   1.924   6.740   6.115  0.2614 -0.0558  1.3262
  970MOL0     H30900   1.833   6.640   6.006  0.3011  2.0462 -1.8514
  970MOL0     H30901   1.556   6.687   5.998  0.9354  0.7638 -0.1012
  970MOL0     H30902   1.326   6.832   6.137  0.6564 -1.1232 -1.9454
  970MOL0     H30903   1.339   6.656   6.144 -1.3115 -1.0040  2.6906
  970MOL0     H30904   1.313   6.852   6.376 -0.4826  0.0418  1.0423
  970MOL0     H30905   1.339   6.682   6.414 -2.2581  0.2412  1.6432
  970MOL0     H30906   1.150   6.619   6.292 -1.2605 -0.0653 -0.8681
  970MOL0     H30907   1.113   6.784   6.238 -0.6252 -1.1103 -1.6577
  970MOL0     H30908   1.111   6.675   6.520 -2.1999  0.2257  0.8209
  970MOL0     H30909   0.971   6.692   6.425  1.3498 -1.8170 -1.2919
  970MOL0     H30910   1.060   7.135   6.522 -0.3546 -1.4531  1.7397
  970MOL0     H30911   0.857   7.415   6.419  0.8076  0.2445 -0.8164
  970MOL0     H30912   0.977   7.343   6.526 -1.4848 -1.3139  1.1103
  970MOL0     H30913   1.011   7.371   6.351  0.6087  0.5065  0.9711
  970MOL0     H30914   0.503   7.336   6.280  0.3769 -0.8202 -0.2664
  970MOL0     H30915   0.296   7.420   6.238 -0.0858 -0.0130  0.4037
  970MOL0     H30916   0.132   7.426   5.823  1.1194 -0.0200  1.0175
  970MOL0     H30917   0.065   7.274   5.880  1.4095 -0.5870  0.7690
  970MOL0     H30918  -0.057   7.556   5.921 -2.0110  0.5583 -0.6885
  970MOL0     H30919  -0.112   7.442   5.807  2.0742  1.9445 -1.6941
  970MOL0     H30920  -0.108   7.379   6.106 -1.2714 -0.3547  1.4574
  970MOL0     H30921  -0.160   7.264   5.980  0.4309  0.5481 -1.2880
  970MOL0     H30922  -0.278   7.539   6.011  2.1041 -0.9080  0.3258
  970MOL0     H30923  -0.319   7.424   5.886  0.2396  3.0338 -0.3006
  970MOL0     H30924  -0.348   7.380   6.199  1.5713  3.0253 -0.6205
  970MOL0     H30925  -0.434   7.280   6.084 -0.2716 -0.2125  0.8114
  970MOL0     H30926  -0.593   7.431   6.184  0.9429 -0.8858  0.2256
  970MOL0     H30927  -0.506   7.577   6.139 -0.7489 -0.4963  0.0728
  970MOL0     H30928  -0.598   7.399   5.927 -1.3812 -0.3043  1.4780
  970MOL0     H30929  -0.521   7.560   5.913  0.0468  0.6018  0.3450
  970MOL0     H30930  -0.754   7.593   5.865  1.7098  1.5144  0.2928
  970MOL0     H30931  -0.716   7.650   6.023 -0.3271  0.2462 -0.2773
  970MOL0     H30932   0.288   7.296   5.834  0.4950  1.0479 -0.0636
  970MOL0     H30933   0.536   7.181   5.881  2.1957  0.9781  1.2432
  970MOL0     H30934   0.760   6.980   6.163 -0.3402  0.3566 -0.8910
  970MOL0     H30935   0.875   6.819   6.293 -3.0247  0.7266 -1.9893
  970MOL0     H30936   2.558   6.858   5.731 -0.9085  1.5719  1.1556
  970MOL0     H30937   2.760   6.724   5.741  1.5012 -0.0240 -1.2315
  970MOL0     H30938   3.251   6.728   5.687 -1.8089  2.3244 -1.8453
  970MOL0     H30939   3.432   6.537   5.704  1.2731 -0.8738 -0.2578
  970MOL0     H30940   3.422   6.226   5.432  0.2948 -0.2856 -3.1902
  970MOL0     H30941   3.525   6.351   5.365  1.0456 -0.2258 -0.4995
  970MOL0     H30942   3.706   6.231   5.529 -0.5316 -0.2280  1.8783
  970MOL0     H30943   3.657   6.151   5.384 -0.5649  0.6819  0.2308
  970MOL0     H30944   3.550   6.107   5.678  0.1759  0.6626 -0.5143
  970MOL0     H30945   3.650   6.000   5.583 -0.7098  0.2989 -0.4708
  970MOL0     H30946   3.439   5.897   5.541  1.7342  0.3336  0.3049
  970MOL0     H30947   3.440   6.014   5.408  0.2796 -1.8443 -0.5383
  970MOL0     H30948   3.105   6.134   5.608  1.4005  2.3886 -0.7193
  970MOL0     H30949   3.239   6.323   5.412  2.0226  0.3029 -0.4683
  970MOL0     H30950   3.049   6.469   5.412 -2.4139  1.1523  2.6006
  971MOL0     O30951   8.884   1.122   0.289  0.1822  0.0799  0.0414
  971MOL0     C30952   8.979   1.104   0.365  0.1502 -0.1215  0.0176
  971MOL0     O30953   8.975   1.062   0.499 -0.4388 -0.1507  0.2693
  971MOL0     C30954   8.851   1.012   0.541 -0.8229 -0.0605 -1.9656
  971MOL0     C30955   8.812   1.065   0.666 -0.0386  0.1232 -0.6999
  971MOL0     C30956   8.690   1.016   0.720 -0.8326 -0.1866  0.3186
  971MOL0     C30957   8.611   0.923   0.659 -0.7619 -0.6688  1.0992
  971MOL0     O30958   8.495   0.892   0.726  0.1070 -1.0099 -0.5326
  971MOL0     C30959   8.377   0.837   0.652 -0.0966  1.1030 -0.2366
  971MOL0     C30960   8.273   0.786   0.752 -0.2592 -0.7889  0.3122
  971MOL0     C30961   8.157   0.735   0.665  0.3306 -1.1495 -0.4523
  971MOL0     C30962   8.051   0.664   0.753 -0.0729 -0.2527 -0.1248
  971MOL0     C30963   7.940   0.593   0.660 -0.7093 -0.6035  0.2596
  971MOL0     C30964   7.813   0.572   0.736 -0.1635 -0.0732  0.2033
  971MOL0     C30965   7.711   0.480   0.663  0.0946 -0.3607 -0.6203
  971MOL0     C30966   7.597   0.460   0.753  0.1504  0.4514  0.4919
  971MOL0     N30967   7.499   0.379   0.684 -1.0828  0.4756  0.5936
  971MOL0     C30968   7.440   0.415   0.570  0.4250  0.0432  0.0782
  971MOL0     C30969   7.379   0.307   0.525  0.3422 -0.0636  0.2237
  971MOL0     C30970   7.292   0.320   0.397 -0.1625 -0.2461  0.9577
  971MOL0     C30971   7.152   0.378   0.434  0.0284  0.3066 -0.9299
  971MOL0     C30972   7.060   0.287   0.507  0.6193  0.8096 -0.2988
  971MOL0     C30973   6.934   0.346   0.577  0.2145 -0.3916 -0.0629
  971MOL0     O30974   6.875   0.448   0.503  0.4979 -0.3177 -0.3102
  971MOL0     C30975   6.738   0.475   0.527  0.2465  1.0468 -0.2398
  971MOL0     C30976   6.665   0.506   0.412 -0.1642  0.4134 -0.0100
  971MOL0     C30977   6.527   0.540   0.424 -0.6727 -0.2104  0.4798
  971MOL0     C30978   6.468   0.587   0.291  0.0203 -0.9622  0.1094
  971MOL0     C30979   6.467   0.533   0.545 -0.0303  0.1876  0.2998
  971MOL0     C30980   6.326   0.573   0.563 -0.0784  0.3984 -0.7813
  971MOL0     O30981   6.271   0.658   0.477 -0.4570 -0.7430 -0.3571
  971MOL0     C30982   6.141   0.681   0.455 -0.7264 -0.5431 -0.4002
  971MOL0     C30983   6.092   0.814   0.440 -0.2900  0.2829 -0.0517
  971MOL0     C30984   5.955   0.835   0.432  0.0075  0.2635 -0.2132
  971MOL0     C30985   5.861   0.731   0.425 -0.0254  0.2419  0.2504
  971MOL0     O30986   5.728   0.761   0.419  0.3132 -0.1459  0.4319
  971MOL0     C30987   5.631   0.650   0.424 -0.9080 -0.6159 -0.3660
  971MOL0     C30988   5.488   0.693   0.431  0.3832  0.7779  0.2275
  971MOL0     C30989   5.462   0.754   0.568  0.3684 -0.0522 -0.2553
  971MOL0     C30990   5.354   0.863   0.566 -0.4143 -1.0703 -0.3418
  971MOL0     C30991   5.318   0.918   0.700 -0.1257  0.7559 -0.6733
  971MOL0     C30992   5.220   1.032   0.688  0.2445  0.3459 -0.1322
  971MOL0     C30993   5.192   1.100   0.823 -0.0325 -0.2122  0.8730
  971MOL0     C30994   5.274   1.222   0.857 -1.0818  0.4506 -0.0532
  971MOL0    Cl30995   5.230   1.361   0.756  0.2037 -0.2040  0.2199
  971MOL0     C30996   5.916   0.597   0.428  0.4353 -1.2582  0.3412
  971MOL0     C30997   6.048   0.572   0.439 -0.9998  0.1653 -0.6694
  971MOL0     O30998   6.274   0.521   0.663 -0.1099 -0.4265 -0.8613
  971MOL0     C30999   6.539   0.498   0.667  0.6771 -0.1924  0.9427
  971MOL0     C31000   6.680   0.472   0.657  0.0246 -0.6812 -1.0974
  971MOL0     N31001   7.406   0.203   0.612  0.2768 -0.3135  0.1539
  971MOL0     N31002   7.469   0.247   0.708 -0.0931  0.2234  0.3725
  971MOL0     C31003   8.667   0.861   0.544  0.2130  0.2065 -0.9911
  971MOL0     C31004   8.786   0.912   0.483 -0.8932 -0.2730 -0.4424
  971MOL0     C31005   9.114   1.122   0.309 -0.2913  1.8533 -0.2436
  971MOL0     C31006   9.223   1.119   0.403  0.2177 -0.2675  0.5365
  971MOL0     C31007   9.356   1.124   0.360  0.0602 -0.5433  0.1383
  971MOL0     C31008   9.381   1.138   0.218 -1.1562  0.3965  0.2183
  971MOL0     O31009   9.506   1.148   0.173 -0.2784 -0.9541  0.3000
  971MOL0     C31010   9.604   1.209   0.253 -0.0445 -0.7549  0.7857
  971MOL0     C31011   9.724   1.253   0.176  0.7679  0.7982 -0.8343
  971MOL0     C31012   9.717   1.379   0.088 -0.0363 -0.1122  0.2910
  971MOL0     C31013   9.841   1.379  -0.014  0.5304 -0.3415  0.0028
  971MOL0     C31014   9.818   1.487  -0.114  0.0531 -0.0003  0.8676
  971MOL0     C31015   9.783   1.549  -0.214  0.1644 -0.2192 -0.1839
  971MOL0     C31016   9.276   1.124   0.130 -0.3375  0.3462 -0.1819
  971MOL0     C31017   9.147   1.117   0.172  0.2747 -1.0535 -0.7568
  971MOL0     H31018   8.868   1.143   0.715 -1.2201  0.2933  0.4215
  971MOL0     H31019   8.673   1.049   0.822  0.5924 -1.1424  0.8959
  971MOL0     H31020   8.330   0.910   0.586  1.7831  2.5656 -0.0605
  971MOL0     H31021   8.405   0.754   0.588 -0.4675 -0.1416  1.1541
  971MOL0     H31022   8.318   0.713   0.819  0.2809  0.1208  0.9720
  971MOL0     H31023   8.247   0.865   0.824  3.8454  0.3911  0.7982
  971MOL0     H31024   8.119   0.823   0.613  1.6755 -1.2755 -1.7015
  971MOL0     H31025   8.201   0.667   0.591  0.5083 -0.1390 -1.2946
  971MOL0     H31026   8.093   0.583   0.814  0.5258 -2.5489 -3.2927
  971MOL0     H31027   8.005   0.742   0.814  0.0243  0.7317 -1.2826
  971MOL0     H31028   7.921   0.658   0.574 -0.5435  0.1603  0.7920
  971MOL0     H31029   7.986   0.504   0.617  1.0438  0.5775 -0.3783
  971MOL0     H31030   7.825   0.530   0.837  0.7389 -0.2529  0.0302
  971MOL0     H31031   7.772   0.673   0.745  2.4288  0.9582  1.6965
  971MOL0     H31032   7.676   0.523   0.569 -0.3102  0.7855  0.0291
  971MOL0     H31033   7.754   0.387   0.624 -0.0087  0.9958 -4.4166
  971MOL0     H31034   7.562   0.558   0.788 -0.0807  0.0729  1.3489
  971MOL0     H31035   7.622   0.409   0.847 -2.1379 -1.2778  0.2483
  971MOL0     H31036   7.441   0.515   0.528  3.4025 -0.3132 -0.9566
  971MOL0     H31037   7.336   0.383   0.320 -1.1586 -0.2038  0.4175
  971MOL0     H31038   7.282   0.221   0.351  0.8072 -0.7646  1.8075
  971MOL0     H31039   7.101   0.418   0.346 -0.7763  0.3023 -0.4678
  971MOL0     H31040   7.177   0.463   0.497  0.3273  0.5533 -1.3708
  971MOL0     H31041   7.121   0.228   0.576  0.6884  0.1373 -0.9282
  971MOL0     H31042   7.013   0.222   0.433 -3.1130  1.3983  1.3041
  971MOL0     H31043   6.959   0.387   0.675  1.2275  2.1120 -1.2770
  971MOL0     H31044   6.865   0.263   0.595  0.5935 -0.7392 -0.1909
  971MOL0     H31045   6.709   0.505   0.313  0.9196  1.5759  0.4435
  971MOL0     H31046   6.378   0.530   0.266 -0.9540  0.5740  0.0027
  971MOL0     H31047   6.435   0.691   0.289 -0.3780 -1.0857  0.2999
  971MOL0     H31048   6.540   0.577   0.209  1.1601  1.6426  0.6940
  971MOL0     H31049   6.158   0.900   0.438 -0.4198  0.3758 -0.5706
  971MOL0     H31050   5.921   0.938   0.436  2.3776  1.0746  1.1406
  971MOL0     H31051   5.645   0.606   0.325  0.1302 -1.0995 -0.0094
  971MOL0     H31052   5.657   0.570   0.493 -1.6069 -0.8610 -0.3816
  971MOL0     H31053   5.480   0.764   0.348  1.7310 -0.1887 -0.7627
  971MOL0     H31054   5.417   0.613   0.407  0.4356  1.2551 -1.6658
  971MOL0     H31055   5.556   0.795   0.608  0.5969  0.4108 -1.2304
  971MOL0     H31056   5.429   0.669   0.627  1.8378 -0.6714 -0.2953
  971MOL0     H31057   5.394   0.940   0.500  0.5806 -1.6117 -0.3963
  971MOL0     H31058   5.257   0.827   0.531 -2.4285  0.4840  3.1163
  971MOL0     H31059   5.403   0.946   0.764 -0.6312  0.9958 -0.1053
  971MOL0     H31060   5.268   0.843   0.762  0.1166 -0.4347 -1.8704
  971MOL0     H31061   5.245   1.107   0.612 -1.6469 -1.2372 -2.4294
  971MOL0     H31062   5.129   0.986   0.650  1.5613 -2.9372  0.3340
  971MOL0     H31063   5.218   1.037   0.909 -0.3868  0.2353  1.3156
  971MOL0     H31064   5.086   1.125   0.824 -0.3262 -1.1826 -1.2675
  971MOL0     H31065   5.382   1.207   0.850 -1.1856 -0.6835  0.4797
  971MOL0     H31066   5.257   1.245   0.963  0.4274  1.4437  0.0016
  971MOL0     H31067   5.849   0.511   0.423  1.1676 -1.9667  1.8720
  971MOL0     H31068   6.089   0.472   0.445  0.9742  0.7185 -3.1853
  971MOL0     H31069   6.481   0.502   0.758 -2.0198  0.1085 -0.6632
  971MOL0     H31070   6.737   0.447   0.746  0.0293 -0.1581 -0.9483
  971MOL0     H31071   8.628   0.768   0.504  1.8660 -1.2913  0.6628
  971MOL0     H31072   8.819   0.870   0.389  0.3026  2.0749 -1.1456
  971MOL0     H31073   9.213   1.108   0.511 -0.5506 -0.1176  0.4852
  971MOL0     H31074   9.436   1.128   0.433 -2.6330  2.6929  3.2894
  971MOL0     H31075   9.560   1.296   0.304 -0.0696 -0.6379  0.5672
  971MOL0     H31076   9.640   1.142   0.331  0.7300  1.0042  1.9976
  971MOL0     H31077   9.754   1.175   0.106 -1.8152 -0.9779 -0.0930
  971MOL0     H31078   9.805   1.268   0.248  1.4942 -2.1775 -0.9164
  971MOL0     H31079   9.729   1.460   0.160 -0.3812  0.7334 -0.5860
  971MOL0     H31080   9.617   1.372   0.045  0.9059  1.6180 -2.4123
  971MOL0     H31081   9.832   1.292  -0.079 -1.3408  0.8104 -1.3863
  971MOL0     H31082   9.937   1.390   0.038  1.2005 -1.0527 -1.0455
  971MOL0     H31083   9.762   1.617  -0.294  2.9934  0.4286 -0.4887
  971MOL0     H31084   9.295   1.137   0.024 -2.0577  2.5601 -0.2968
  971MOL0     H31085   9.068   1.119   0.098 -0.1806  2.3257 -0.3786
  972MOL0     O31086   8.133   6.908  10.792 -0.0192  0.2555  0.2809
  972MOL0     C31087   8.243   6.923  10.734  0.2071  0.5682 -0.2907
  972MOL0     O31088   8.327   6.822  10.691 -0.1066  0.2597  0.1323
  972MOL0     C31089   8.312   6.686  10.709  0.2546  0.5807  0.3662
  972MOL0     C31090   8.211   6.627  10.784  0.5606  0.1143 -0.8623
  972MOL0     C31091   8.210   6.485  10.793  0.5320 -0.2665 -0.2414
  972MOL0     C31092   8.290   6.405  10.709  0.5069  0.0282  0.6642
  972MOL0     O31093   8.281   6.272  10.707 -0.2007  0.0641 -0.5693
  972MOL0     C31094   8.157   6.213  10.672  1.1304  0.4298 -0.6815
  972MOL0     C31095   8.128   6.243  10.518  0.1892  0.4731 -0.0030
  972MOL0     C31096   7.971   6.217  10.488 -0.5212  0.3780 -1.0209
  972MOL0     C31097   7.932   6.221  10.334 -0.3581  0.3660  0.2606
  972MOL0     C31098   7.786   6.214  10.309  0.0584 -0.7050  0.3571
  972MOL0     C31099   7.717   6.352  10.308  0.5076  0.6530  0.6646
  972MOL0     C31100   7.569   6.319  10.285  0.7538  0.2495 -0.5038
  972MOL0     C31101   7.486   6.313  10.414 -0.6105 -0.1388 -0.2217
  972MOL0     N31102   7.343   6.280  10.372 -0.2596 -0.0987 -0.7640
  972MOL0     C31103   7.272   6.166  10.405  0.0914 -0.4489  0.1591
  972MOL0     C31104   7.138   6.190  10.384 -1.0472 -0.3263 -0.3384
  972MOL0     C31105   7.025   6.099  10.408  0.0854 -0.7906  0.2349
  972MOL0     C31106   7.002   6.101  10.559 -0.5345 -0.0568 -0.2909
  972MOL0     C31107   6.895   6.022  10.633 -0.0441 -0.8528 -0.0453
  972MOL0     C31108   6.757   6.049  10.592 -0.0488 -0.9249 -0.0347
  972MOL0     O31109   6.674   5.955  10.660  0.4182  0.1260 -0.2645
  972MOL0     C31110   6.563   5.918  10.595 -0.4491 -0.0587 -0.1493
  972MOL0     C31111   6.529   5.922  10.458 -0.4222  0.0917  0.1107
  972MOL0     C31112   6.412   5.868  10.408  0.2699  0.1443 -0.1331
  972MOL0     C31113   6.383   5.881  10.256  0.2707 -0.3686 -0.1252
  972MOL0     C31114   6.315   5.817  10.503  0.7872 -0.7084 -0.3629
  972MOL0     C31115   6.178   5.776  10.476  0.2219  0.4817  0.1121
  972MOL0     O31116   6.112   5.691  10.558 -0.8343  0.0635  0.0581
  972MOL0     C31117   5.984   5.653  10.531  0.4402 -1.2021 -0.6757
  972MOL0     C31118   5.873   5.719  10.584 -0.2375 -0.2012 -0.6141
  972MOL0     C31119   5.734   5.672  10.568 -0.2978 -0.4008 -0.5515
  972MOL0     C31120   5.708   5.566  10.483 -0.0448 -0.0297 -0.6169
  972MOL0     O31121   5.579   5.515  10.455 -0.2083 -0.1965  0.1542
  972MOL0     C31122   5.462   5.585  10.508  0.3882 -0.1798 -0.5009
  972MOL0     C31123   5.347   5.531  10.437 -1.0931  0.3382  0.4028
  972MOL0     C31124   5.328   5.381  10.465  0.6160 -0.9866  0.2653
  972MOL0     C31125   5.195   5.314  10.405 -0.7446 -0.5197  0.7659
  972MOL0     C31126   5.152   5.183  10.448 -0.3380 -0.9268  0.0458
  972MOL0     C31127   5.241   5.067  10.392  0.5589 -0.0050 -0.0840
  972MOL0     C31128   5.325   4.977  10.483 -0.0965  0.7260  0.1574
  972MOL0     C31129   5.428   4.891  10.409 -0.6286 -0.2453  0.1761
  972MOL0    Cl31130   5.350   4.780  10.295  0.5814  0.5737 -0.2492
  972MOL0     C31131   5.820   5.512  10.418 -0.2983 -0.3285 -0.1962
  972MOL0     C31132   5.956   5.550  10.444  0.3758  0.3096 -0.5713
  972MOL0     O31133   6.132   5.808  10.365 -0.5406 -0.2052  0.0433
  972MOL0     C31134   6.349   5.800  10.633  0.0082 -0.3984 -0.0923
  972MOL0     C31135   6.471   5.853  10.674 -0.2642 -0.2620 -0.1448
  972MOL0     N31136   7.140   6.325  10.356 -0.2765 -0.5449 -0.7713
  972MOL0     N31137   7.257   6.383  10.348 -0.3062 -0.2168 -0.6250
  972MOL0     C31138   8.400   6.461  10.646  1.6904  0.9293 -0.4591
  972MOL0     C31139   8.410   6.603  10.645  0.0045  0.3184  0.9024
  972MOL0     C31140   8.290   7.069  10.717  0.1915 -0.2952 -0.0945
  972MOL0     C31141   8.193   7.170  10.714 -0.1388 -0.4826  0.8163
  972MOL0     C31142   8.233   7.306  10.719 -0.9256 -0.3243 -0.6623
  972MOL0     C31143   8.367   7.345  10.711 -0.7052 -0.1616  0.1111
  972MOL0     O31144   8.389   7.483  10.707  0.3061  0.4280 -0.7241
  972MOL0     C31145   8.530   7.530  10.701  0.4126 -0.4337 -0.5526
  972MOL0     C31146   8.609   7.523  10.570  0.5149  0.4385 -0.0871
  972MOL0     C31147   8.761   7.536  10.600 -0.5442  0.1716 -0.1605
  972MOL0     C31148   8.821   7.677  10.620  0.7708  0.9709  0.2643
  972MOL0     C31149   8.844   7.740  10.491 -0.6367  0.7425  0.3198
  972MOL0     C31150   8.856   7.800  10.383  0.1302  0.0606  0.6520
  972MOL0     C31151   8.466   7.242  10.693 -0.1381 -0.5952  0.0781
  972MOL0     C31152   8.427   7.107  10.695 -0.2549 -0.3768  0.5174
  972MOL0     H31153   8.136   6.688  10.833  0.7442  2.4114 -3.2104
  972MOL0     H31154   8.128   6.458  10.859 -0.2837  1.2186 -0.6111
  972MOL0     H31155   8.158   6.106  10.696  1.4682  0.7708  0.9422
  972MOL0     H31156   8.076   6.257  10.731 -0.0729  0.7183 -2.4844
  972MOL0     H31157   8.150   6.347  10.490  2.5008 -0.1527 -0.7710
  972MOL0     H31158   8.187   6.178  10.452 -2.5346  1.4670 -3.7971
  972MOL0     H31159   7.952   6.117  10.529 -1.4514  0.6613 -0.7530
  972MOL0     H31160   7.911   6.289  10.544  1.8211  3.8583 -2.6237
  972MOL0     H31161   7.974   6.317  10.303  2.2086  0.7898  4.1686
  972MOL0     H31162   7.977   6.136  10.281  0.4254  0.4769  0.7330
  972MOL0     H31163   7.777   6.167  10.211  0.6221 -0.3027  0.1025
  972MOL0     H31164   7.734   6.148  10.379  0.2001  1.2271  2.3811
  972MOL0     H31165   7.732   6.403  10.404  0.5931  2.9202 -0.4997
  972MOL0     H31166   7.746   6.430  10.238 -2.8406  2.0037  0.5980
  972MOL0     H31167   7.544   6.409  10.227 -0.5616  1.1477  1.3741
  972MOL0     H31168   7.541   6.234  10.223  0.2065 -1.8862  2.4719
  972MOL0     H31169   7.482   6.411  10.461 -0.9013 -1.6647  3.2442
  972MOL0     H31170   7.531   6.242  10.484  2.6442  3.6648  1.9756
  972MOL0     H31171   7.309   6.068  10.434  0.0196 -0.9624 -1.3798
  972MOL0     H31172   6.937   6.127  10.349  0.5358 -1.9543 -1.0367
  972MOL0     H31173   7.041   5.996  10.377  0.3272 -0.8768  0.6381
  972MOL0     H31174   6.991   6.206  10.587 -1.4785 -0.1922 -0.1137
  972MOL0     H31175   7.098   6.075  10.605 -0.7008  2.9915  2.0552
  972MOL0     H31176   6.900   6.042  10.741 -1.8407  1.5131 -0.3032
  972MOL0     H31177   6.917   5.917  10.616  1.6851 -1.0545  2.8262
  972MOL0     H31178   6.746   6.041  10.483  1.2948  1.3239 -0.3943
  972MOL0     H31179   6.729   6.148  10.628  2.2218 -0.9276  1.9883
  972MOL0     H31180   6.606   5.944  10.384 -0.2930 -5.3513 -1.8291
  972MOL0     H31181   6.321   5.971  10.247 -1.6192 -1.8408 -3.7300
  972MOL0     H31182   6.474   5.907  10.202 -0.0155  0.0925 -0.3850
  972MOL0     H31183   6.342   5.790  10.210 -1.7757  1.4939 -2.2206
  972MOL0     H31184   5.888   5.801  10.654  0.3288 -1.6967  1.0949
  972MOL0     H31185   5.664   5.729  10.629  1.2018  2.0685 -1.0129
  972MOL0     H31186   5.456   5.567  10.616  2.3125 -3.0905 -0.7600
  972MOL0     H31187   5.470   5.689  10.476 -0.6947 -0.1663 -0.7540
  972MOL0     H31188   5.257   5.583  10.473 -1.8597  1.0992 -2.4238
  972MOL0     H31189   5.363   5.545  10.330  0.1670 -4.0460 -0.1956
  972MOL0     H31190   5.326   5.368  10.573  0.0703 -1.9458  0.1538
  972MOL0     H31191   5.413   5.323  10.430  1.9939  0.7912  0.5005
  972MOL0     H31192   5.107   5.377  10.424 -1.3362 -0.8110 -0.8360
  972MOL0     H31193   5.193   5.311  10.295  0.3302 -1.3736  0.7589
  972MOL0     H31194   5.045   5.172  10.427 -1.5294  3.2453  2.5435
  972MOL0     H31195   5.157   5.186  10.558 -1.8377  0.7572  0.1258
  972MOL0     H31196   5.170   5.008  10.334 -0.8557 -0.1179  1.6731
  972MOL0     H31197   5.322   5.103  10.328  0.0105  0.0419 -0.7704
  972MOL0     H31198   5.263   4.913  10.546  0.1646  0.3496  0.0374
  972MOL0     H31199   5.366   5.045  10.559 -1.0600  0.8138  0.6132
  972MOL0     H31200   5.476   4.825  10.482 -2.2259 -1.9820 -0.2714
  972MOL0     H31201   5.498   4.960  10.360  1.6432 -2.3131  0.3315
  972MOL0     H31202   5.809   5.435  10.342  4.2641 -2.0700  0.5914
  972MOL0     H31203   6.035   5.505  10.384  2.1116  0.4574  1.4731
  972MOL0     H31204   6.279   5.756  10.702 -0.7608 -2.2530 -1.9489
  972MOL0     H31205   6.483   5.847  10.782 -0.7025  2.1294  0.0964
  972MOL0     H31206   8.471   6.407  10.584  0.6760 -1.5127  0.3408
  972MOL0     H31207   8.491   6.660  10.602 -0.2252 -0.9841 -1.3906
  972MOL0     H31208   8.089   7.142  10.723  0.1168 -1.4464  0.8969
  972MOL0     H31209   8.153   7.378  10.732 -1.8917 -0.9996 -2.4905
  972MOL0     H31210   8.521   7.636  10.727 -1.8838 -0.5280 -0.7079
  972MOL0     H31211   8.580   7.485  10.787  1.0067  1.2146  0.0056
  972MOL0     H31212   8.558   7.584  10.495 -3.2771 -1.8829  0.3672
  972MOL0     H31213   8.597   7.425  10.523  2.4413  1.3690 -2.7273
  972MOL0     H31214   8.815   7.485  10.520  1.3786  1.3042  0.3506
  972MOL0     H31215   8.792   7.475  10.685  3.1615 -1.4732 -2.4503
  972MOL0     H31216   8.916   7.665  10.673 -0.6982 -0.9472  2.6714
  972MOL0     H31217   8.756   7.742  10.679 -0.6089 -0.5960  0.5423
  972MOL0     H31218   8.841   7.852  10.290 -3.8134  0.5270  1.3597
  972MOL0     H31219   8.569   7.266  10.668 -0.2893 -0.2226 -0.1974
  972MOL0     H31220   8.502   7.030  10.682  0.4572  0.3227  0.3958
  973MOL0     O31221   3.615   2.334   2.623  0.2407 -0.2100  0.2364
  973MOL0     C31222   3.696   2.294   2.539 -0.1572  0.2566 -0.2671
  973MOL0     O31223   3.665   2.236   2.417  0.3853  0.0462  0.8341
  973MOL0     C31224   3.539   2.210   2.381  0.0720  0.8218  0.0209
  973MOL0     C31225   3.452   2.127   2.453 -0.4781 -0.8747 -0.0186
  973MOL0     C31226   3.323   2.097   2.417 -0.5110 -0.6721  0.1576
  973MOL0     C31227   3.272   2.167   2.296 -0.6126 -0.2873 -0.3918
  973MOL0     O31228   3.133   2.150   2.267 -1.0702 -0.2896  0.0666
  973MOL0     C31229   3.103   2.018   2.235 -0.1772  0.7424 -0.8613
  973MOL0     C31230   2.963   2.018   2.180 -0.2491 -0.3198 -0.0345
  973MOL0     C31231   2.899   1.877   2.185 -0.3538  0.2601  0.5238
  973MOL0     C31232   2.750   1.891   2.157 -0.2566 -0.3743  0.2873
  973MOL0     C31233   2.677   1.758   2.131  0.0746  0.2301  0.4829
  973MOL0     C31234   2.530   1.785   2.093  0.3492 -0.4148  0.4309
  973MOL0     C31235   2.455   1.665   2.049  0.7395  0.2304 -0.0625
  973MOL0     C31236   2.306   1.698   2.013 -0.0414  0.4939  0.0756
  973MOL0     N31237   2.228   1.692   2.139 -0.0373  0.0094 -0.3585
  973MOL0     C31238   2.116   1.769   2.161 -0.2466 -0.2054  0.6148
  973MOL0     C31239   2.058   1.721   2.278 -0.6167 -0.5721  0.2423
  973MOL0     C31240   1.939   1.771   2.343 -1.3226 -0.5045 -0.1189
  973MOL0     C31241   1.812   1.780   2.252 -0.3340  0.3731 -0.2940
  973MOL0     C31242   1.702   1.871   2.310 -0.3727  0.1857 -0.4671
  973MOL0     C31243   1.637   1.834   2.442 -0.8530 -0.7710  0.2005
  973MOL0     O31244   1.536   1.737   2.412 -0.6297  0.2811 -0.4363
  973MOL0     C31245   1.419   1.723   2.481  0.1463 -0.4610  0.6778
  973MOL0     C31246   1.319   1.645   2.418  0.8417 -0.4314 -0.3639
  973MOL0     C31247   1.194   1.629   2.489  0.0705  0.2306  0.0040
  973MOL0     C31248   1.091   1.547   2.403 -0.0730 -0.6706 -0.3103
  973MOL0     C31249   1.169   1.699   2.606  0.1750  0.4732  0.1411
  973MOL0     C31250   1.023   1.731   2.652 -0.3756 -0.5984  0.0576
  973MOL0     O31251   0.926   1.632   2.640  0.0596  0.0485  0.3939
  973MOL0     C31252   0.795   1.644   2.650 -0.2362 -0.3905 -0.3790
  973MOL0     C31253   0.726   1.774   2.631 -0.1115  0.1401 -0.2879
  973MOL0     C31254   0.590   1.783   2.637  0.2661  0.4178  0.0521
  973MOL0     C31255   0.512   1.678   2.669 -0.2816  0.6640 -0.0190
  973MOL0     O31256   0.380   1.703   2.679 -0.1303  0.6748 -0.4629
  973MOL0     C31257   0.303   1.618   2.768 -0.8055 -0.4162 -0.3785
  973MOL0     C31258   0.168   1.693   2.799 -1.0923 -0.0057  0.2895
  973MOL0     C31259   0.094   1.712   2.668  0.2729  0.2100 -0.6521
  973MOL0     C31260  -0.048   1.777   2.684  1.0502  0.1229  0.6060
  973MOL0     C31261  -0.161   1.695   2.754 -0.3697 -0.5555  0.3376
  973MOL0     C31262  -0.199   1.571   2.669  0.3714  0.1710  0.0532
  973MOL0     C31263  -0.177   1.440   2.741 -0.3351  0.5399 -0.7414
  973MOL0     C31264  -0.172   1.317   2.655  0.0670 -0.2393 -0.1546
  973MOL0    Cl31265  -0.333   1.280   2.596  0.2821 -0.0955  0.3069
  973MOL0     C31266   0.575   1.545   2.674  0.1620 -0.2854  0.3203
  973MOL0     C31267   0.713   1.538   2.666 -0.7063  0.4341 -0.6589
  973MOL0     O31268   1.017   1.839   2.707  0.1839 -0.4564 -0.4266
  973MOL0     C31269   1.275   1.771   2.668  1.2389 -0.7900  0.7009
  973MOL0     C31270   1.399   1.787   2.606 -0.7353 -0.0615  0.2897
  973MOL0     N31271   2.133   1.606   2.314 -0.4278 -0.0611 -0.1439
  973MOL0     N31272   2.228   1.589   2.235 -0.1419 -0.3446  0.0879
  973MOL0     C31273   3.352   2.270   2.233 -0.2413  0.1765 -0.1780
  973MOL0     C31274   3.485   2.275   2.268  0.3116  0.6477 -0.1908
  973MOL0     C31275   3.837   2.305   2.590 -0.3651 -0.3294 -0.2515
  973MOL0     C31276   3.883   2.390   2.697  0.7865  0.5971 -0.2029
  973MOL0     C31277   4.014   2.392   2.746  0.0951  0.8964 -0.2575
  973MOL0     C31278   4.113   2.317   2.678  0.3818  0.8562  0.0970
  973MOL0     O31279   4.246   2.315   2.715 -0.4191  0.1420 -0.4239
  973MOL0     C31280   4.293   2.417   2.807 -1.3332  0.5611 -0.3002
  973MOL0     C31281   4.300   2.359   2.954 -0.2295 -0.0870  0.1913
  973MOL0     C31282   4.367   2.459   3.058  0.2150 -1.0220  0.8231
  973MOL0     C31283   4.282   2.596   3.069  0.0517 -0.0336 -0.7939
  973MOL0     C31284   4.138   2.577   3.067  0.1727  0.7046 -0.1271
  973MOL0     C31285   4.019   2.562   3.060  0.1895  0.5751  0.1605
  973MOL0     C31286   4.075   2.235   2.571  0.4239 -0.0863 -0.5964
  973MOL0     C31287   3.939   2.228   2.534 -0.8837 -0.5302  0.1685
  973MOL0     H31288   3.489   2.093   2.549 -0.9753  0.4748  0.6745
  973MOL0     H31289   3.246   2.045   2.472 -0.9904 -1.7658 -1.4940
  973MOL0     H31290   3.170   1.977   2.159 -1.4537  2.9151 -3.3596
  973MOL0     H31291   3.105   1.957   2.326  3.4081 -0.4839 -1.6091
  973MOL0     H31292   2.894   2.080   2.239 -0.3174  1.9308 -2.2974
  973MOL0     H31293   2.957   2.053   2.076  0.2707  2.1943  0.7004
  973MOL0     H31294   2.950   1.805   2.120  0.1491 -1.8466  3.0371
  973MOL0     H31295   2.903   1.825   2.282  0.5296  0.1838  0.4582
  973MOL0     H31296   2.707   1.944   2.242  1.1150 -0.5828  1.1501
  973MOL0     H31297   2.732   1.962   2.075 -0.6288 -0.5952  0.1782
  973MOL0     H31298   2.724   1.692   2.058  0.3959 -2.2620  2.7984
  973MOL0     H31299   2.684   1.701   2.223  1.0526 -0.6835 -0.1431
  973MOL0     H31300   2.467   1.841   2.163 -1.0458 -0.8076 -0.4797
  973MOL0     H31301   2.531   1.849   2.005  1.6916 -1.3987 -0.3072
  973MOL0     H31302   2.500   1.623   1.959  0.3361 -0.8806  0.2359
  973MOL0     H31303   2.475   1.587   2.123  0.1543  1.5160  1.4976
  973MOL0     H31304   2.267   1.635   1.933 -1.6152  0.0637  1.1291
  973MOL0     H31305   2.304   1.799   1.970  1.8471  0.7714  0.5368
  973MOL0     H31306   2.078   1.849   2.099 -0.3811 -0.5952  0.1935
  973MOL0     H31307   1.918   1.707   2.429 -1.0644  0.4665  0.6834
  973MOL0     H31308   1.973   1.868   2.382  1.5132 -1.3152 -0.3456
  973MOL0     H31309   1.774   1.685   2.214 -1.9792  1.1415 -0.6308
  973MOL0     H31310   1.839   1.838   2.163  2.7007 -0.6654 -0.1751
  973MOL0     H31311   1.624   1.866   2.233 -0.4146 -0.7453 -0.3765
  973MOL0     H31312   1.740   1.972   2.322  0.3825 -0.2668  1.1909
  973MOL0     H31313   1.589   1.922   2.487 -1.1387 -0.9836  0.3125
  973MOL0     H31314   1.721   1.811   2.508 -2.3753 -3.6533  1.3303
  973MOL0     H31315   1.343   1.594   2.325 -0.3755 -1.0970 -0.3284
  973MOL0     H31316   1.058   1.452   2.447  0.0342 -0.0923  1.0697
  973MOL0     H31317   1.001   1.605   2.382  1.1872  1.1379 -0.9728
  973MOL0     H31318   1.144   1.517   2.312 -3.2697 -2.9107 -1.6169
  973MOL0     H31319   0.781   1.867   2.625  1.4760 -0.5761  1.9740
  973MOL0     H31320   0.537   1.875   2.618  0.9467  1.2527  1.9367
  973MOL0     H31321   0.279   1.521   2.723 -2.9844  0.6086 -1.5882
  973MOL0     H31322   0.355   1.597   2.862 -1.0215  1.9863  0.3655
  973MOL0     H31323   0.120   1.624   2.868 -0.1237 -0.1511  0.8339
  973MOL0     H31324   0.179   1.789   2.851 -0.9843  0.0817  0.1056
  973MOL0     H31325   0.092   1.612   2.624 -4.5121 -0.1135 -0.2675
  973MOL0     H31326   0.150   1.779   2.603 -1.4099  1.4242 -0.9436
  973MOL0     H31327  -0.042   1.871   2.740 -3.3229  0.3642  0.9475
  973MOL0     H31328  -0.079   1.807   2.584  1.7407  1.0064  0.6440
  973MOL0     H31329  -0.249   1.760   2.753  0.3723  0.4768  0.8366
  973MOL0     H31330  -0.146   1.658   2.856  2.1184 -0.4583  0.0722
  973MOL0     H31331  -0.300   1.589   2.633  0.6276  3.0137  0.5151
  973MOL0     H31332  -0.134   1.561   2.581  2.0685 -0.8763  1.3435
  973MOL0     H31333  -0.244   1.432   2.827  1.3064 -2.3366  0.4226
  973MOL0     H31334  -0.076   1.449   2.783 -0.4127  2.5188 -0.8943
  973MOL0     H31335  -0.144   1.229   2.714 -0.5223 -0.7798 -0.6776
  973MOL0     H31336  -0.104   1.326   2.570  0.6175 -0.2493  0.2772
  973MOL0     H31337   0.517   1.458   2.701  0.3959 -1.2336 -2.0608
  973MOL0     H31338   0.756   1.439   2.682  1.9780  1.4530 -1.0115
  973MOL0     H31339   1.266   1.840   2.751 -2.4018  1.0580 -0.9897
  973MOL0     H31340   1.483   1.835   2.655  1.1156 -0.5123 -2.2507
  973MOL0     H31341   3.307   2.318   2.147  0.5055 -0.8908 -1.2077
  973MOL0     H31342   3.551   2.344   2.218 -0.8299  1.9003 -0.0449
  973MOL0     H31343   3.810   2.460   2.739 -0.4059 -2.3389  3.0632
  973MOL0     H31344   4.047   2.450   2.831  0.7377 -1.2398  1.0446
  973MOL0     H31345   4.394   2.445   2.777 -1.1700  1.0247  0.6579
  973MOL0     H31346   4.238   2.511   2.793 -1.4803  0.4874 -0.2245
  973MOL0     H31347   4.350   2.262   2.962 -1.1197 -0.6493 -0.7158
  973MOL0     H31348   4.200   2.348   2.998  0.3364  1.9138  2.1603
  973MOL0     H31349   4.464   2.485   3.017 -0.9512  1.1768 -0.7435
  973MOL0     H31350   4.372   2.418   3.159 -1.7406 -1.2731  0.8682
  973MOL0     H31351   4.309   2.660   2.985 -2.1703  1.0195 -0.7755
  973MOL0     H31352   4.316   2.648   3.159  0.9095  2.7234 -2.6079
  973MOL0     H31353   3.913   2.544   3.053  0.0740  1.2803 -0.0078
  973MOL0     H31354   4.161   2.194   2.519  2.8329  3.0006  0.6281
  973MOL0     H31355   3.911   2.176   2.443  1.0368  1.3722 -1.6323
  974MOL0     O31356   5.238   2.638  10.133 -0.3306  0.0016  0.5376
  974MOL0     C31357   5.284   2.748  10.096 -0.0155 -0.3766 -0.9371
  974MOL0     O31358   5.203   2.863  10.061 -0.4479  0.6243 -0.2250
  974MOL0     C31359   5.075   2.840  10.022  0.2173 -0.0542 -0.7184
  974MOL0     C31360   5.041   2.807   9.888 -0.3239 -0.5066 -0.4608
  974MOL0     C31361   4.907   2.797   9.855  0.2252 -0.0262  0.9009
  974MOL0     C31362   4.811   2.813   9.956  0.0503 -0.9169  0.3397
  974MOL0     O31363   4.680   2.824   9.917 -0.3488  0.3291 -0.2178
  974MOL0     C31364   4.590   2.759  10.014  0.2071 -0.6056  0.4838
  974MOL0     C31365   4.446   2.770   9.964 -1.1869  0.1281 -0.0094
  974MOL0     C31366   4.389   2.916   9.939  0.6187 -0.2821 -0.0639
  974MOL0     C31367   4.369   2.972   9.790 -0.0269  0.1125  0.2890
  974MOL0     C31368   4.281   2.869   9.714 -0.4155  0.0642  0.3040
  974MOL0     C31369   4.277   2.887   9.555  0.5165 -0.0955  0.7922
  974MOL0     C31370   4.170   2.799   9.492  0.3776 -0.4129 -0.1525
  974MOL0     C31371   4.029   2.852   9.533  0.0149 -0.2024 -0.1442
  974MOL0     N31372   3.935   2.765   9.461  0.6954  0.0123 -0.3792
  974MOL0     C31373   3.899   2.776   9.328 -0.5225 -0.1018  0.2807
  974MOL0     C31374   3.825   2.678   9.298  0.0843 -0.2230  0.6856
  974MOL0     C31375   3.778   2.632   9.162 -0.7481 -0.1100 -0.7234
  974MOL0     C31376   3.850   2.505   9.116  0.7851  0.7623 -0.0946
  974MOL0     C31377   3.800   2.470   8.975 -0.6840 -1.0413  0.1383
  974MOL0     C31378   3.872   2.557   8.870 -0.3514  0.7429 -0.0679
  974MOL0     O31379   3.807   2.684   8.851  0.1469  0.4551  0.4075
  974MOL0     C31380   3.681   2.697   8.799  0.0367 -0.3113 -0.1737
  974MOL0     C31381   3.626   2.822   8.812  0.1049 -0.3534  0.2474
  974MOL0     C31382   3.491   2.841   8.759 -0.4734  0.4636  0.1356
  974MOL0     C31383   3.420   2.971   8.775 -0.4569 -0.2911 -0.1694
  974MOL0     C31384   3.425   2.734   8.692 -0.5964  0.2599 -0.5740
  974MOL0     C31385   3.284   2.737   8.645 -0.8522 -1.0844 -0.0231
  974MOL0     O31386   3.241   2.641   8.563  0.0537  0.2433 -0.4170
  974MOL0     C31387   3.119   2.655   8.517  0.9256 -0.8299 -0.0000
  974MOL0     C31388   3.042   2.535   8.493  0.1338  0.0210 -0.2337
  974MOL0     C31389   2.918   2.535   8.436 -0.2210 -0.3032 -0.4446
  974MOL0     C31390   2.865   2.657   8.380  0.9265  0.4944 -0.1024
  974MOL0     O31391   2.744   2.667   8.321 -0.1139  0.0156 -0.3534
  974MOL0     C31392   2.658   2.557   8.322  0.3668  0.8251  0.6147
  974MOL0     C31393   2.564   2.561   8.439 -0.7408  0.3763  0.6385
  974MOL0     C31394   2.516   2.701   8.465  0.0720  0.5356 -0.3552
  974MOL0     C31395   2.413   2.690   8.577  0.9821 -0.4823 -0.7781
  974MOL0     C31396   2.396   2.835   8.641 -0.6993 -0.2988 -0.2880
  974MOL0     C31397   2.320   2.935   8.554 -0.2857  0.3982  0.8222
  974MOL0     C31398   2.325   3.075   8.622 -0.4286 -0.4496  0.0098
  974MOL0     C31399   2.227   3.085   8.739 -0.5926 -0.3465  0.2735
  974MOL0    Cl31400   2.214   3.252   8.794 -0.0554 -0.0400 -0.3289
  974MOL0     C31401   2.940   2.769   8.391  0.6668 -0.2147 -0.1468
  974MOL0     C31402   3.066   2.769   8.453 -1.4493 -0.2111 -0.1590
  974MOL0     O31403   3.216   2.824   8.695  0.0462  0.0400 -0.1671
  974MOL0     C31404   3.495   2.620   8.675 -0.2829 -0.1411  0.6738
  974MOL0     C31405   3.626   2.598   8.726 -0.1135  0.4565 -0.4648
  974MOL0     N31406   3.801   2.607   9.415 -0.2018  0.3780  0.0669
  974MOL0     N31407   3.879   2.654   9.508  0.5859  0.2292 -0.1781
  974MOL0     C31408   4.847   2.853  10.087  0.1018 -0.1740  0.8139
  974MOL0     C31409   4.978   2.866  10.121  0.0245 -0.2691 -0.5756
  974MOL0     C31410   5.429   2.765  10.107  0.0528 -0.0227 -0.2935
  974MOL0     C31411   5.516   2.653  10.098  0.0530 -0.2904 -0.6836
  974MOL0     C31412   5.656   2.676  10.103  1.1347  0.9618  0.3887
  974MOL0     C31413   5.712   2.806  10.105  0.8943 -0.1028  0.4059
  974MOL0     O31414   5.840   2.834  10.109  0.3782 -0.3447 -0.0370
  974MOL0     C31415   5.925   2.747  10.169 -0.1959  0.1415 -0.0572
  974MOL0     C31416   6.068   2.792  10.199 -0.9204 -0.9262 -0.4997
  974MOL0     C31417   6.127   2.831  10.065  0.0030  0.1329  0.8734
  974MOL0     C31418   6.266   2.888  10.088  0.7498 -0.6224 -0.0406
  974MOL0     C31419   6.336   2.907   9.957 -0.0404  0.4201 -0.8801
  974MOL0     C31420   6.401   2.887   9.850 -0.0645 -0.3554  0.2602
  974MOL0     C31421   5.619   2.912  10.114 -0.5128  0.0609  1.6225
  974MOL0     C31422   5.482   2.886  10.117 -0.9258 -0.9886  0.3261
  974MOL0     H31423   5.127   2.794   9.823 -0.1279  2.3296 -0.8797
  974MOL0     H31424   4.863   2.793   9.756 -1.7835 -1.6035  1.7826
  974MOL0     H31425   4.614   2.655  10.037 -2.4408 -1.8753 -1.9474
  974MOL0     H31426   4.608   2.814  10.108  1.3937 -1.6379  0.8785
  974MOL0     H31427   4.451   2.724   9.865 -1.7406  0.6310 -0.2786
  974MOL0     H31428   4.386   2.713  10.036 -1.2460 -0.0857 -0.2305
  974MOL0     H31429   4.289   2.913   9.983 -0.5865  4.1085 -1.9270
  974MOL0     H31430   4.456   2.987   9.990  2.2940  0.3328 -2.9290
  974MOL0     H31431   4.320   3.070   9.788  2.1824  1.2663 -0.0340
  974MOL0     H31432   4.463   2.991   9.739  0.5584  2.7370  2.1313
  974MOL0     H31433   4.303   2.763   9.726 -0.0397  0.2593  1.5114
  974MOL0     H31434   4.177   2.881   9.747 -1.2902 -0.5021 -2.0328
  974MOL0     H31435   4.259   2.993   9.537  2.9870 -0.0643 -2.3659
  974MOL0     H31436   4.378   2.867   9.518  0.0945  1.0651 -1.1401
  974MOL0     H31437   4.171   2.792   9.383 -2.7058  2.0784 -0.5177
  974MOL0     H31438   4.171   2.693   9.520 -1.3934 -0.5447 -0.4324
  974MOL0     H31439   4.015   2.952   9.492  1.6655  0.0065 -0.2766
  974MOL0     H31440   4.005   2.864   9.639  0.8206  2.0243 -0.1690
  974MOL0     H31441   3.928   2.853   9.257  1.3597  0.0032  1.0846
  974MOL0     H31442   3.669   2.628   9.149 -0.6644  2.7866 -3.7207
  974MOL0     H31443   3.810   2.713   9.095  2.5337  0.2622  1.1094
  974MOL0     H31444   3.823   2.416   9.174 -0.4626  0.6930 -0.7428
  974MOL0     H31445   3.959   2.511   9.121  1.0609 -1.8570 -1.3660
  974MOL0     H31446   3.693   2.483   8.954 -0.3524  1.1689 -0.4179
  974MOL0     H31447   3.827   2.367   8.947  0.2804 -0.7508 -0.0480
  974MOL0     H31448   3.884   2.503   8.776  0.7622 -1.5788  1.3361
  974MOL0     H31449   3.978   2.576   8.891 -0.2589 -0.0533  0.2126
  974MOL0     H31450   3.680   2.898   8.868  0.7224 -1.1840  0.8091
  974MOL0     H31451   3.394   3.007   8.675  1.5573 -0.7534 -0.9241
  974MOL0     H31452   3.338   2.971   8.847  1.3862  0.4209  2.0607
  974MOL0     H31453   3.489   3.041   8.823 -1.0194 -0.3908  0.8044
  974MOL0     H31454   3.065   2.439   8.539 -0.6625  0.0960  0.3381
  974MOL0     H31455   2.871   2.437   8.438  0.3405 -0.5776 -0.5473
  974MOL0     H31456   2.598   2.572   8.232  0.6049  0.2042  0.3478
  974MOL0     H31457   2.713   2.463   8.321  3.0790  2.2880 -1.0991
  974MOL0     H31458   2.482   2.493   8.416  0.0763 -0.6186  0.6126
  974MOL0     H31459   2.608   2.525   8.533  0.7348  0.8055  0.1333
  974MOL0     H31460   2.482   2.760   8.380  0.6897  0.3188 -0.7588
  974MOL0     H31461   2.594   2.759   8.516 -0.2151  1.5657 -1.0630
  974MOL0     H31462   2.315   2.655   8.543  0.5660 -1.3646  1.1715
  974MOL0     H31463   2.456   2.627   8.656  0.6846  1.2267  0.8128
  974MOL0     H31464   2.491   2.885   8.662 -1.4005  0.9863 -0.1076
  974MOL0     H31465   2.346   2.843   8.738  1.2991  0.1001  0.7684
  974MOL0     H31466   2.368   2.942   8.455 -2.4142  0.2387 -0.2708
  974MOL0     H31467   2.220   2.891   8.554 -0.4991  0.7813 -1.2336
  974MOL0     H31468   2.288   3.152   8.553 -1.5177  2.5871  3.6480
  974MOL0     H31469   2.424   3.103   8.658  0.1520 -2.7510  0.3613
  974MOL0     H31470   2.260   3.024   8.823 -3.8628 -1.1167  1.1337
  974MOL0     H31471   2.127   3.054   8.707 -1.8953  1.0348  2.7057
  974MOL0     H31472   2.896   2.859   8.348 -0.4218  0.0987  1.5254
  974MOL0     H31473   3.132   2.855   8.456 -0.4292 -0.8231 -2.6708
  974MOL0     H31474   3.438   2.537   8.633  0.8362 -0.9255  0.6812
  974MOL0     H31475   3.664   2.496   8.720  2.5344  1.4342 -2.0715
  974MOL0     H31476   4.775   2.878  10.164 -0.8587 -2.0668  0.5818
  974MOL0     H31477   5.011   2.908  10.216 -1.5121  1.7030 -0.8560
  974MOL0     H31478   5.480   2.551  10.110 -0.8718 -0.0720 -1.4717
  974MOL0     H31479   5.718   2.587  10.100 -1.2238 -0.7713  0.8102
  974MOL0     H31480   5.879   2.715  10.263  1.1987  0.8006  0.8897
  974MOL0     H31481   5.941   2.657  10.109  0.7550  0.7183 -0.7062
  974MOL0     H31482   6.122   2.706  10.239  0.4831  0.6021  1.0348
  974MOL0     H31483   6.077   2.876  10.268 -0.8923 -1.7699  0.5666
  974MOL0     H31484   6.059   2.908  10.028 -2.0062 -0.2414  3.4971
  974MOL0     H31485   6.119   2.743  10.000 -3.4659  2.1059 -1.7626
  974MOL0     H31486   6.330   2.828  10.153  2.9505  1.9798  0.3759
  974MOL0     H31487   6.262   2.984  10.141 -0.2123 -1.0288  0.6638
  974MOL0     H31488   6.454   2.884   9.757 -0.7094 -3.1219 -0.1078
  974MOL0     H31489   5.645   3.017  10.108 -0.8858  0.0786  0.0048
  974MOL0     H31490   5.414   2.970  10.120 -1.1737 -1.0744 -1.5315
  975MOL0     O31491   1.837   2.082   7.264  0.2036 -0.0046  0.5561
  975MOL0     C31492   1.797   1.965   7.249  0.5051  0.3281  0.4272
  975MOL0     O31493   1.663   1.932   7.228  0.2873  0.6472 -0.0847
  975MOL0     C31494   1.582   2.033   7.172 -0.8289 -0.3186  1.2773
  975MOL0     C31495   1.450   2.038   7.209  0.8826 -0.2794  0.7693
  975MOL0     C31496   1.353   2.130   7.163  0.0635  1.3319  0.9406
  975MOL0     C31497   1.401   2.208   7.053  0.6182 -0.5847  0.0160
  975MOL0     O31498   1.310   2.295   6.987  0.7191 -0.2039  0.0850
  975MOL0     C31499   1.176   2.311   7.038  0.2931  0.1002 -0.0989
  975MOL0     C31500   1.178   2.409   7.156  0.2100  0.0482  0.5280
  975MOL0     C31501   1.043   2.466   7.193  0.4780  0.5626  0.1159
  975MOL0     C31502   1.037   2.543   7.317 -0.2623 -0.3199 -0.8256
  975MOL0     C31503   0.895   2.607   7.339 -0.0747 -0.8781  0.1078
  975MOL0     C31504   0.895   2.679   7.472  0.0158 -0.3464  0.1740
  975MOL0     C31505   0.755   2.728   7.508  0.7357 -0.2551 -0.0613
  975MOL0     C31506   0.772   2.854   7.594 -0.1159 -0.5309  0.4188
  975MOL0     N31507   0.654   2.902   7.663 -1.0858  0.9158  0.0334
  975MOL0     C31508   0.537   2.833   7.694 -0.2425 -0.0709  0.4291
  975MOL0     C31509   0.458   2.927   7.746 -0.4020 -0.0916 -0.4175
  975MOL0     C31510   0.319   2.915   7.783  0.4466 -0.0508 -0.2809
  975MOL0     C31511   0.307   2.836   7.911  0.6038 -0.0394 -0.4228
  975MOL0     C31512   0.346   2.901   8.039  0.5444  1.0923  0.5033
  975MOL0     C31513   0.307   2.829   8.173 -0.3967  0.1175 -0.3312
  975MOL0     O31514   0.161   2.801   8.182 -0.4451  0.5105 -0.8353
  975MOL0     C31515   0.103   2.807   8.308  0.5649  1.2296  0.2675
  975MOL0     C31516   0.156   2.854   8.427 -0.3307 -1.6411 -0.2349
  975MOL0     C31517   0.084   2.851   8.553 -0.7347 -0.2694  0.1402
  975MOL0     C31518   0.176   2.893   8.663  0.9428 -0.8787 -0.8075
  975MOL0     C31519  -0.037   2.779   8.558 -0.5131  0.5190 -0.1979
  975MOL0     C31520  -0.104   2.743   8.688  0.4291 -0.0192 -0.2689
  975MOL0     O31521  -0.197   2.640   8.678  0.5647 -0.2595 -0.3761
  975MOL0     C31522  -0.304   2.642   8.769 -0.4365  0.4301  0.2241
  975MOL0     C31523  -0.401   2.743   8.763  0.3829 -0.0626 -0.2504
  975MOL0     C31524  -0.512   2.749   8.855 -0.9578 -0.0359 -0.0042
  975MOL0     C31525  -0.516   2.650   8.956  0.2061  0.3304 -0.5999
  975MOL0     O31526  -0.625   2.638   9.032  0.0203  0.2070 -0.3045
  975MOL0     C31527  -0.748   2.625   8.960  0.5668  1.1010 -0.7877
  975MOL0     C31528  -0.833   2.517   9.036 -0.8194 -0.7449  0.3353
  975MOL0     C31529  -0.980   2.540   9.018 -0.1306  0.7780 -0.0650
  975MOL0     C31530  -1.054   2.443   9.105  0.1940 -0.3491  0.4935
  975MOL0     C31531  -1.201   2.463   9.107  0.2604 -0.3917  1.1405
  975MOL0     C31532  -1.268   2.374   9.207  0.4734 -0.4186  0.4618
  975MOL0     C31533  -1.416   2.394   9.189  0.9015 -0.0326 -0.6490
  975MOL0     C31534  -1.486   2.523   9.230 -0.1452  0.1694 -0.3622
  975MOL0    Cl31535  -1.657   2.472   9.180  0.2951 -0.1133 -0.1493
  975MOL0     C31536  -0.422   2.544   8.953 -0.9801 -0.1935  0.6162
  975MOL0     C31537  -0.312   2.547   8.869  0.1242  0.1072  0.3555
  975MOL0     O31538  -0.077   2.802   8.786  0.4736 -0.0381 -0.3634
  975MOL0     C31539  -0.093   2.733   8.435 -1.0336  0.1672 -0.4031
  975MOL0     C31540  -0.026   2.748   8.312 -0.0467  0.0237  0.3609
  975MOL0     N31541   0.533   3.043   7.762 -0.2695  0.1579  0.4353
  975MOL0     N31542   0.654   3.029   7.707  0.1772 -0.8078  0.5312
  975MOL0     C31543   1.533   2.204   7.009 -0.5279 -0.1158  0.1471
  975MOL0     C31544   1.621   2.122   7.073 -0.9719  0.1302  0.5168
  975MOL0     C31545   1.892   1.854   7.235 -1.0693  0.0303  0.4416
  975MOL0     C31546   2.028   1.868   7.269  0.8157 -0.2583 -0.6797
  975MOL0     C31547   2.132   1.770   7.258  0.5375 -0.4806 -0.2973
  975MOL0     C31548   2.083   1.641   7.224 -0.1152 -0.6039 -0.6977
  975MOL0     O31549   2.158   1.525   7.219  0.3567  0.0188 -0.7261
  975MOL0     C31550   2.298   1.539   7.219  0.0736  0.8065  0.1138
  975MOL0     C31551   2.353   1.401   7.250 -0.5397 -0.0143 -0.1814
  975MOL0     C31552   2.503   1.399   7.228 -0.4051  1.4245  0.2586
  975MOL0     C31553   2.576   1.457   7.350 -0.3948 -1.0766 -0.2668
  975MOL0     C31554   2.715   1.430   7.338 -0.1561 -0.6608  0.1054
  975MOL0     C31555   2.835   1.409   7.332  0.7949 -0.0388 -0.0068
  975MOL0     C31556   1.946   1.622   7.202 -1.1991 -0.5478 -0.4539
  975MOL0     C31557   1.854   1.723   7.189 -0.0069 -0.3439 -0.4088
  975MOL0     H31558   1.415   1.964   7.280 -1.3111  1.9186  2.1069
  975MOL0     H31559   1.252   2.116   7.203  0.1542 -1.4304  0.3815
  975MOL0     H31560   1.116   2.356   6.959 -2.2071 -0.7446  1.1987
  975MOL0     H31561   1.124   2.218   7.066  3.3300 -2.7271 -2.9771
  975MOL0     H31562   1.218   2.368   7.249  0.7845  0.9218  0.6736
  975MOL0     H31563   1.249   2.488   7.131 -0.2983  0.0743 -0.9431
  975MOL0     H31564   1.006   2.525   7.108 -1.5308  2.2967  2.0726
  975MOL0     H31565   0.973   2.382   7.189 -0.5264  1.3887 -0.0045
  975MOL0     H31566   1.049   2.471   7.398 -2.8393  0.8179  0.7010
  975MOL0     H31567   1.126   2.606   7.318  1.0603 -2.0495 -2.6562
  975MOL0     H31568   0.875   2.674   7.255  0.8898 -0.3943  0.2482
  975MOL0     H31569   0.817   2.531   7.333 -2.5721  1.5782 -1.0135
  975MOL0     H31570   0.924   2.616   7.556 -1.8730 -1.3202  0.1610
  975MOL0     H31571   0.966   2.760   7.457  0.1729 -0.9194 -2.8883
  975MOL0     H31572   0.695   2.748   7.419 -1.2775  2.7441  1.7982
  975MOL0     H31573   0.700   2.652   7.565  2.7364 -0.5115  1.6626
  975MOL0     H31574   0.798   2.930   7.519  0.4708 -0.5922  0.5531
  975MOL0     H31575   0.848   2.859   7.672 -1.0018  1.6735  1.2302
  975MOL0     H31576   0.524   2.726   7.682  0.3000 -0.4536  2.8136
  975MOL0     H31577   0.287   3.017   7.803 -1.0649 -0.6845  0.7723
  975MOL0     H31578   0.268   2.860   7.704 -1.1602  0.1530  0.5760
  975MOL0     H31579   0.360   2.740   7.903 -1.2435 -1.1017 -0.5647
  975MOL0     H31580   0.201   2.817   7.930  0.7828  0.2340  0.9251
  975MOL0     H31581   0.281   2.989   8.041 -1.7349 -0.4422  3.5385
  975MOL0     H31582   0.447   2.941   8.031  0.9443 -0.1745 -1.2039
  975MOL0     H31583   0.339   2.895   8.254 -3.2478  1.0151  0.2045
  975MOL0     H31584   0.371   2.741   8.179  0.3111  0.0932 -4.8937
  975MOL0     H31585   0.249   2.909   8.418  0.3602 -2.8031 -0.3049
  975MOL0     H31586   0.120   2.946   8.741  1.3653 -0.2914 -0.9055
  975MOL0     H31587   0.232   2.819   8.720 -1.9437  0.0266  3.7319
  975MOL0     H31588   0.254   2.960   8.628  1.7982 -0.7515  1.1929
  975MOL0     H31589  -0.395   2.827   8.695  0.2547  1.0697  1.1020
  975MOL0     H31590  -0.577   2.835   8.867  2.3458  2.8865 -1.2550
  975MOL0     H31591  -0.800   2.722   8.958 -0.3755  0.7091  1.4059
  975MOL0     H31592  -0.733   2.590   8.858 -0.5747 -1.3639 -0.1736
  975MOL0     H31593  -0.802   2.419   8.997  0.8287  0.4462 -1.5493
  975MOL0     H31594  -0.799   2.525   9.139  2.3381 -2.0792 -0.4672
  975MOL0     H31595  -1.017   2.528   8.916 -2.4154  3.7794  0.2702
  975MOL0     H31596  -1.009   2.634   9.065  0.2728  0.0070  1.8056
  975MOL0     H31597  -1.044   2.342   9.066  1.3353 -0.8626  2.0024
  975MOL0     H31598  -0.998   2.441   9.199  1.1456 -1.5695 -0.0810
  975MOL0     H31599  -1.237   2.444   9.005 -0.0359 -1.3747  1.4198
  975MOL0     H31600  -1.223   2.569   9.122  1.9917 -0.0327  1.3740
  975MOL0     H31601  -1.249   2.268   9.191 -0.8928 -0.6914  0.5672
  975MOL0     H31602  -1.227   2.414   9.300  0.7069  1.5242 -0.4287
  975MOL0     H31603  -1.451   2.322   9.263 -1.7709  0.1680 -1.6314
  975MOL0     H31604  -1.454   2.346   9.099  1.4681 -2.9282  0.5342
  975MOL0     H31605  -1.455   2.611   9.173  2.4356 -0.3037  0.1936
  975MOL0     H31606  -1.474   2.543   9.337  2.2777 -0.4729 -0.4461
  975MOL0     H31607  -0.450   2.455   9.010  2.3401 -0.2441  2.4402
  975MOL0     H31608  -0.235   2.471   8.870  0.7134  0.5777 -1.9835
  975MOL0     H31609  -0.194   2.693   8.426 -1.0660  0.6567 -3.2790
  975MOL0     H31610  -0.078   2.707   8.226 -2.6953  1.3597  1.2361
  975MOL0     H31611   1.564   2.269   6.927  2.5658 -0.7887  0.6763
  975MOL0     H31612   1.727   2.120   7.047 -1.6065  1.8111 -2.7297
  975MOL0     H31613   2.064   1.970   7.279 -1.0813  0.3841  0.0721
  975MOL0     H31614   2.234   1.805   7.263 -0.9613  4.6403  0.1937
  975MOL0     H31615   2.333   1.575   7.121  2.7525 -0.9561  0.3203
  975MOL0     H31616   2.327   1.612   7.295 -0.8386  1.1454  0.1464
  975MOL0     H31617   2.306   1.329   7.182 -0.1567 -2.4075  1.8871
  975MOL0     H31618   2.325   1.372   7.352 -4.9061  3.1107 -0.1978
  975MOL0     H31619   2.525   1.445   7.131  2.6213 -0.0438  0.1535
  975MOL0     H31620   2.533   1.294   7.222 -1.7953  1.0121  0.1229
  975MOL0     H31621   2.549   1.405   7.443  2.2259 -0.6467  0.8262
  975MOL0     H31622   2.539   1.559   7.365  0.4072 -0.9285  0.8160
  975MOL0     H31623   2.937   1.376   7.330  1.0918  0.8423 -2.7034
  975MOL0     H31624   1.909   1.522   7.181  0.1911 -1.3433  0.6920
  975MOL0     H31625   1.752   1.707   7.156 -0.3362 -0.4901  0.6192
  976MOL0     O31626   5.484   3.235  10.188  0.0834 -0.3629  0.2009
  976MOL0     C31627   5.577   3.298  10.134  0.1919  0.1720  0.4569
  976MOL0     O31628   5.554   3.398  10.039 -0.0730 -0.4011 -0.0359
  976MOL0     C31629   5.440   3.413   9.966 -0.0977  0.1985 -0.1804
  976MOL0     C31630   5.321   3.348   9.972 -0.4228 -0.3183  0.6994
  976MOL0     C31631   5.208   3.394   9.902 -0.3591 -0.1531 -0.0871
  976MOL0     C31632   5.215   3.513   9.829 -0.2053 -0.0096 -0.5669
  976MOL0     O31633   5.114   3.577   9.759 -0.2462  0.5613  0.7895
  976MOL0     C31634   5.015   3.488   9.700  0.2620  0.4718 -0.2068
  976MOL0     C31635   4.916   3.555   9.605  0.3041  0.0187  0.5939
  976MOL0     C31636   4.774   3.595   9.663 -0.3338 -0.1650 -0.3237
  976MOL0     C31637   4.671   3.612   9.551 -1.1464  0.1793 -0.1305
  976MOL0     C31638   4.528   3.628   9.612 -0.3967 -0.4673  0.0962
  976MOL0     C31639   4.423   3.640   9.505  0.4692 -0.7409  0.2201
  976MOL0     C31640   4.278   3.644   9.562 -0.9929  0.1212  0.7188
  976MOL0     C31641   4.182   3.621   9.441  0.2154 -0.5430  1.0668
  976MOL0     N31642   4.038   3.638   9.470  0.4826  0.3802  0.1980
  976MOL0     C31643   3.964   3.756   9.471  0.1966 -1.0423  0.5849
  976MOL0     C31644   3.832   3.726   9.486 -0.2770 -0.0493  0.3998
  976MOL0     C31645   3.712   3.812   9.503 -0.2269  0.0504 -0.6753
  976MOL0     C31646   3.726   3.940   9.418 -0.2835 -1.2682  0.0532
  976MOL0     C31647   3.603   4.033   9.423 -0.1161 -0.7189  0.4785
  976MOL0     C31648   3.516   4.003   9.295 -0.1053 -0.3117  0.7188
  976MOL0     O31649   3.390   4.074   9.313 -0.2158  0.5314  0.3617
  976MOL0     C31650   3.297   4.067   9.209  0.5010 -0.1883 -0.1398
  976MOL0     C31651   3.205   4.164   9.212 -0.3802 -0.3977 -0.1887
  976MOL0     C31652   3.116   4.180   9.108  1.1391  0.6729 -0.2264
  976MOL0     C31653   3.015   4.291   9.127  0.5106 -0.6903  0.0439
  976MOL0     C31654   3.124   4.098   8.992  0.1554  0.5582  0.0113
  976MOL0     C31655   3.057   4.123   8.857  0.3945  0.1615 -0.0585
  976MOL0     O31656   3.073   4.031   8.760  0.2411  0.3592  0.1169
  976MOL0     C31657   3.013   4.037   8.641  0.4716  0.4238 -0.6845
  976MOL0     C31658   2.882   4.080   8.604  0.1236 -0.2510  0.6778
  976MOL0     C31659   2.829   4.070   8.469 -1.0602 -0.1216  0.4210
  976MOL0     C31660   2.910   4.021   8.378  0.2839 -1.4162 -0.0453
  976MOL0     O31661   2.868   4.010   8.246  0.1036 -0.6451 -0.1188
  976MOL0     C31662   2.817   4.132   8.174  0.2940  0.4755  0.3288
  976MOL0     C31663   2.922   4.252   8.193 -0.1411 -0.5200  0.4181
  976MOL0     C31664   3.049   4.240   8.107 -0.0841 -0.2377  0.3570
  976MOL0     C31665   3.132   4.365   8.136 -0.3400  0.4596  0.9763
  976MOL0     C31666   3.262   4.361   8.041  1.0864 -0.0299  0.1107
  976MOL0     C31667   3.360   4.268   8.083  0.0725  0.3126  0.3020
  976MOL0     C31668   3.417   4.303   8.224  0.3824 -0.5998 -0.2911
  976MOL0     C31669   3.561   4.246   8.237 -0.2787 -0.0044 -1.2247
  976MOL0    Cl31670   3.639   4.260   8.404 -0.0391 -0.2589 -0.7357
  976MOL0     C31671   3.033   3.967   8.409  0.1826 -0.6688 -0.0725
  976MOL0     C31672   3.087   3.977   8.542  0.2537 -0.3203 -0.5303
  976MOL0     O31673   2.992   4.224   8.839  0.0059 -0.0233  0.4497
  976MOL0     C31674   3.219   3.994   8.993  0.7170  0.2362 -0.2624
  976MOL0     C31675   3.299   3.979   9.104 -0.7809  0.4889  0.3991
  976MOL0     N31676   3.831   3.583   9.503  0.6867  0.0478 -0.1138
  976MOL0     N31677   3.951   3.536   9.494 -0.0730 -0.7814 -0.5846
  976MOL0     C31678   5.332   3.580   9.828  0.0525 -0.1293 -0.7345
  976MOL0     C31679   5.444   3.530   9.889  0.0618  0.7941 -0.2072
  976MOL0     C31680   5.710   3.273  10.193  0.2935 -0.4345  0.6544
  976MOL0     C31681   5.822   3.301  10.122  0.4595 -0.3963  1.0259
  976MOL0     C31682   5.950   3.274  10.164  0.2925  0.0907  0.3952
  976MOL0     C31683   5.966   3.202  10.287 -0.7165  0.8996 -1.0518
  976MOL0     O31684   6.089   3.150  10.328 -0.1031  0.0960  0.1745
  976MOL0     C31685   6.189   3.246  10.354  0.3392  0.9764  0.5495
  976MOL0     C31686   6.258   3.199  10.484  0.2471  0.1484  0.0304
  976MOL0     C31687   6.266   3.046  10.515 -0.4879  0.9782 -0.3873
  976MOL0     C31688   6.321   3.016  10.660 -0.1728  0.4276  0.2691
  976MOL0     C31689   6.462   3.060  10.673 -0.1535  1.0275  0.1019
  976MOL0     C31690   6.580   3.100  10.691  0.1041 -0.1506  0.4298
  976MOL0     C31691   5.856   3.177  10.364  0.0315 -0.3462 -0.1454
  976MOL0     C31692   5.730   3.220  10.324 -0.9645 -0.0170  0.0372
  976MOL0     H31693   5.320   3.255  10.029  0.0496  1.1936  3.3538
  976MOL0     H31694   5.117   3.336   9.907 -0.1051 -0.6115 -0.5995
  976MOL0     H31695   5.076   3.423   9.637  0.7311  1.2687 -0.5894
  976MOL0     H31696   4.958   3.431   9.774 -0.8204  0.9061 -0.6804
  976MOL0     H31697   4.969   3.641   9.564 -1.2318  0.9182  0.4176
  976MOL0     H31698   4.895   3.482   9.527  0.1580  1.9776 -1.3098
  976MOL0     H31699   4.746   3.509   9.724 -1.5788 -2.5991 -3.9508
  976MOL0     H31700   4.771   3.690   9.718 -2.3458  0.3207 -1.1703
  976MOL0     H31701   4.689   3.700   9.488  0.0333  0.4302  0.5201
  976MOL0     H31702   4.666   3.518   9.496 -1.2926 -0.6465  1.2570
  976MOL0     H31703   4.511   3.545   9.682  1.4948 -2.5010 -1.6910
  976MOL0     H31704   4.531   3.720   9.671 -0.2993 -0.5564  0.2302
  976MOL0     H31705   4.450   3.729   9.447  0.2908 -0.4292  0.6118
  976MOL0     H31706   4.428   3.549   9.444  0.2858 -0.2891 -0.4754
  976MOL0     H31707   4.262   3.576   9.647 -0.9227  0.3284  0.8979
  976MOL0     H31708   4.267   3.741   9.611 -0.1015  0.0403  1.1035
  976MOL0     H31709   4.191   3.519   9.402  0.4081  0.2564 -1.1205
  976MOL0     H31710   4.210   3.689   9.360 -1.6657  0.7335  1.4180
  976MOL0     H31711   3.996   3.859   9.458 -1.1128 -0.8723 -2.0660
  976MOL0     H31712   3.622   3.757   9.475  0.5629 -1.4233 -0.4114
  976MOL0     H31713   3.709   3.836   9.610  0.8862  1.2049 -0.8808
  976MOL0     H31714   3.743   3.924   9.311  1.8911  1.0300 -0.0491
  976MOL0     H31715   3.806   4.004   9.457 -2.4036  1.7452 -0.1408
  976MOL0     H31716   3.641   4.136   9.425 -0.2255 -0.6333 -0.9160
  976MOL0     H31717   3.542   4.016   9.513 -0.7409  1.4065  0.5142
  976MOL0     H31718   3.498   3.895   9.296  0.3796 -0.4138 -0.3173
  976MOL0     H31719   3.570   4.047   9.211 -0.9730  2.2357  1.4079
  976MOL0     H31720   3.206   4.225   9.302 -2.6214 -0.3099 -0.1680
  976MOL0     H31721   3.014   4.325   9.231 -0.7926 -2.1043  0.5399
  976MOL0     H31722   3.053   4.369   9.061 -0.2236 -1.1200 -0.8957
  976MOL0     H31723   2.911   4.265   9.105 -0.3028  1.5816  0.9416
  976MOL0     H31724   2.812   4.106   8.683 -1.0826 -2.7159  0.5309
  976MOL0     H31725   2.725   4.090   8.443 -0.7349  0.4040 -0.5082
  976MOL0     H31726   2.805   4.122   8.066  2.4751 -1.1910  0.1772
  976MOL0     H31727   2.724   4.168   8.219  0.8759  1.6926  0.5914
  976MOL0     H31728   2.864   4.341   8.166  0.9919  0.0686 -0.1506
  976MOL0     H31729   2.957   4.256   8.297  0.1453 -0.5106  0.3227
  976MOL0     H31730   3.023   4.237   8.001 -0.6877  1.0873  0.4477
  976MOL0     H31731   3.101   4.148   8.137  0.8676  0.2456  0.2313
  976MOL0     H31732   3.085   4.461   8.117 -0.3739  0.5022  1.2804
  976MOL0     H31733   3.166   4.361   8.240 -0.1951 -0.3683  0.9077
  976MOL0     H31734   3.306   4.461   8.032  2.6365 -0.5498  1.4243
  976MOL0     H31735   3.226   4.329   7.943 -0.3660  1.0257  0.2601
  976MOL0     H31736   3.319   4.166   8.076 -2.3424  1.3018 -1.3822
  976MOL0     H31737   3.438   4.282   8.008 -2.1318  0.9400 -2.0264
  976MOL0     H31738   3.356   4.268   8.308  1.1855  2.9083  1.9841
  976MOL0     H31739   3.420   4.412   8.235 -0.4899 -0.3419 -2.1759
  976MOL0     H31740   3.628   4.303   8.172  0.1498 -1.1262 -1.7901
  976MOL0     H31741   3.558   4.142   8.203 -3.2688 -0.0223 -1.1823
  976MOL0     H31742   3.095   3.925   8.330  0.7642  0.5557 -0.2797
  976MOL0     H31743   3.191   3.952   8.557  0.4114  1.9091  3.2237
  976MOL0     H31744   3.223   3.924   8.910 -1.0940 -0.6299  0.3264
  976MOL0     H31745   3.365   3.893   9.103 -0.9901  0.3176  1.0111
  976MOL0     H31746   5.354   3.667   9.767  2.6466 -0.5634 -0.5407
  976MOL0     H31747   5.539   3.582   9.879  2.1243 -2.4891  0.7572
  976MOL0     H31748   5.811   3.352  10.027  2.3430 -3.9917 -1.3362
  976MOL0     H31749   6.029   3.304  10.096  0.8346 -2.0371  0.0125
  976MOL0     H31750   6.269   3.235  10.281  0.4320  1.8851  0.4960
  976MOL0     H31751   6.150   3.349  10.351 -0.2253  0.7728  0.7584
  976MOL0     H31752   6.195   3.232  10.567  0.1431 -2.5487  1.1339
  976MOL0     H31753   6.355   3.248  10.494  0.2201 -0.0316  1.3437
  976MOL0     H31754   6.331   2.997  10.442 -1.0118  2.1125 -1.6521
  976MOL0     H31755   6.172   2.993  10.498  0.2207 -0.9530  1.2756
  976MOL0     H31756   6.327   2.911  10.690  0.7446 -0.7076 -3.3583
  976MOL0     H31757   6.249   3.065  10.726 -1.3204  0.2528 -0.8013
  976MOL0     H31758   6.672   3.147  10.719  0.6527 -3.0736  4.4112
  976MOL0     H31759   5.879   3.111  10.447  0.9055 -0.2223 -0.2814
  976MOL0     H31760   5.638   3.202  10.380 -0.0967 -3.1179  0.6430
  977MOL0     O31761  10.637   2.377  10.452  0.7913  0.1812 -1.0853
  977MOL0     C31762  10.711   2.434  10.372 -0.8244  0.3534 -0.2614
  977MOL0     O31763  10.689   2.457  10.238 -0.2688 -0.2152 -0.1563
  977MOL0     C31764  10.565   2.436  10.193  0.2134  0.6998  0.2971
  977MOL0     C31765  10.443   2.447  10.269  0.2652  0.6244  0.0359
  977MOL0     C31766  10.316   2.414  10.219 -0.4274 -0.2683 -0.1708
  977MOL0     C31767  10.314   2.372  10.088  0.3595 -0.0410 -0.8527
  977MOL0     O31768  10.198   2.325  10.028  0.1017 -0.0650 -0.3757
  977MOL0     C31769  10.195   2.182  10.028  0.3506  0.8995 -0.3992
  977MOL0     C31770  10.052   2.151   9.975 -0.5306 -0.2831  0.4755
  977MOL0     C31771   9.950   2.161  10.084  0.2186 -0.1855 -0.1022
  977MOL0     C31772   9.821   2.086  10.048 -0.2110 -0.3314 -1.1952
  977MOL0     C31773   9.729   2.105  10.168  1.0961  0.5956 -0.1252
  977MOL0     C31774   9.580   2.080  10.124 -0.0639  0.5278 -0.1452
  977MOL0     C31775   9.558   1.932  10.078  0.1075 -0.1128 -0.5334
  977MOL0     C31776   9.448   1.908   9.977 -0.2989 -0.2602  0.6711
  977MOL0     N31777   9.324   1.859  10.030  0.1383 -0.6158  0.2856
  977MOL0     C31778   9.265   1.744   9.982  0.0654  0.1467  0.2821
  977MOL0     C31779   9.148   1.738  10.052 -0.9761  0.1479 -0.4298
  977MOL0     C31780   9.039   1.630  10.040 -0.5297  0.8653 -0.6194
  977MOL0     C31781   9.096   1.500  10.094  1.0612  1.3332 -1.2964
  977MOL0     C31782   8.995   1.406  10.172  0.1023 -0.0480  0.2404
  977MOL0     C31783   8.861   1.387  10.099  0.0808  0.6617 -0.7941
  977MOL0     O31784   8.808   1.272  10.169  0.0708  0.0238 -0.0026
  977MOL0     C31785   8.679   1.243  10.174  0.1139 -0.1694  0.7967
  977MOL0     C31786   8.635   1.127  10.237 -0.3586 -0.3767 -0.9568
  977MOL0     C31787   8.497   1.106  10.268 -0.3521 -0.1705 -0.1570
  977MOL0     C31788   8.464   0.970  10.320 -0.7497 -0.0786 -0.1810
  977MOL0     C31789   8.402   1.210  10.239 -0.4151  0.7265 -0.4515
  977MOL0     C31790   8.258   1.191  10.251  0.0308 -0.7891 -0.9213
  977MOL0     O31791   8.195   1.299  10.313  0.6457  0.6525  0.1495
  977MOL0     C31792   8.059   1.299  10.327 -0.5724  0.3964  0.2349
  977MOL0     C31793   7.985   1.206  10.398 -0.6183 -0.1547  0.4004
  977MOL0     C31794   7.852   1.224  10.419  0.2767  0.2816 -0.4859
  977MOL0     C31795   7.782   1.329  10.358  0.4934 -0.7397 -0.0435
  977MOL0     O31796   7.648   1.350  10.378  0.3570 -0.2741 -0.5481
  977MOL0     C31797   7.561   1.238  10.397  0.4016  0.1548  0.3263
  977MOL0     C31798   7.439   1.249  10.306 -0.3817 -0.8135 -0.4317
  977MOL0     C31799   7.450   1.173  10.176  0.3313 -0.1601 -0.2434
  977MOL0     C31800   7.555   1.223  10.080  0.1921 -0.2523 -0.3918
  977MOL0     C31801   7.586   1.122   9.970 -0.1521 -0.2680 -0.3833
  977MOL0     C31802   7.721   1.071  10.000  0.5675 -0.4435  0.2022
  977MOL0     C31803   7.837   1.157   9.960  0.3725 -0.6098 -0.1459
  977MOL0     C31804   7.977   1.104   9.994 -0.1770 -0.3748  1.8093
  977MOL0    Cl31805   8.107   1.242   9.976 -0.3734  0.2219 -0.0465
  977MOL0     C31806   7.856   1.419  10.284  0.8162  0.0325 -0.5793
  977MOL0     C31807   7.994   1.411  10.273  0.3194  0.4306  0.8054
  977MOL0     O31808   8.208   1.085  10.223 -0.0086  0.4084  0.0996
  977MOL0     C31809   8.445   1.332  10.193 -0.2769 -0.3712 -0.8085
  977MOL0     C31810   8.578   1.342  10.157 -0.4505 -0.2262 -0.9618
  977MOL0     N31811   9.152   1.848  10.145 -0.3368 -0.0805  0.1998
  977MOL0     N31812   9.253   1.920  10.126 -0.2994 -0.2458 -0.3432
  977MOL0     C31813  10.426   2.368  10.005  0.0386  0.0612  0.1978
  977MOL0     C31814  10.549   2.407  10.051  0.1664 -1.0343 -0.7707
  977MOL0     C31815  10.832   2.498  10.428 -0.7512  0.6757  0.1377
  977MOL0     C31816  10.866   2.502  10.563  0.2501  0.0663 -0.2587
  977MOL0     C31817  10.972   2.574  10.611  0.8059  0.2282 -0.4107
  977MOL0     C31818  11.056   2.656  10.532  0.1801  0.1944  0.1302
  977MOL0     O31819  11.148   2.727  10.601 -0.4852  0.4373  1.0491
  977MOL0     C31820  11.256   2.774  10.526 -0.8770  0.3451  0.7521
  977MOL0     C31821  11.354   2.682  10.458  1.2979 -0.2315 -0.7376
  977MOL0     C31822  11.413   2.585  10.563 -0.5098  0.3525 -0.3802
  977MOL0     C31823  11.558   2.551  10.524  0.8772 -0.1736  1.0382
  977MOL0     C31824  11.613   2.429  10.587 -0.7480  1.5704  0.2623
  977MOL0     C31825  11.672   2.328  10.628 -0.6453  0.1403 -0.3478
  977MOL0     C31826  11.027   2.651  10.399  0.2109 -0.8816  0.8568
  977MOL0     C31827  10.927   2.568  10.343  0.4806  0.2948  0.5080
  977MOL0     H31828  10.438   2.495  10.366  0.2140  2.2288 -0.7285
  977MOL0     H31829  10.224   2.435  10.273 -1.6184 -2.9673 -0.9983
  977MOL0     H31830  10.266   2.137   9.958  1.6123  3.1225 -0.6601
  977MOL0     H31831  10.209   2.145  10.129  0.6998  4.8622  1.1974
  977MOL0     H31832  10.037   2.206   9.882  0.2761 -2.6697 -1.1538
  977MOL0     H31833  10.047   2.048   9.937  0.6384  0.1332 -0.8818
  977MOL0     H31834   9.993   2.124  10.177  0.7525  5.0655  2.0568
  977MOL0     H31835   9.930   2.266  10.104  2.5954  0.2266  0.4640
  977MOL0     H31836   9.784   2.124   9.952  0.3454  2.1908 -0.4940
  977MOL0     H31837   9.848   1.982  10.028  0.0114 -0.5455  0.1077
  977MOL0     H31838   9.754   2.039  10.251  3.5977 -0.2276 -1.3939
  977MOL0     H31839   9.737   2.207  10.207 -1.2970  0.1388  1.7672
  977MOL0     H31840   9.515   2.098  10.210  1.2956 -0.6238  1.1720
  977MOL0     H31841   9.553   2.157  10.051 -0.2897 -0.7527 -1.4358
  977MOL0     H31842   9.646   1.881  10.039  0.3486 -1.3848  1.5639
  977MOL0     H31843   9.535   1.889  10.175  0.9496 -0.0326 -0.2946
  977MOL0     H31844   9.488   1.835   9.906 -0.0100 -0.6746  1.2498
  977MOL0     H31845   9.425   2.001   9.925  0.9602  0.0548  0.6419
  977MOL0     H31846   9.291   1.679   9.899  0.2031 -2.6676  2.3719
  977MOL0     H31847   8.947   1.659  10.093 -0.1061 -1.0658  1.2935
  977MOL0     H31848   9.014   1.615   9.934  1.9291  0.4373 -1.1866
  977MOL0     H31849   9.179   1.519  10.162  1.6345  2.0424 -2.1648
  977MOL0     H31850   9.147   1.447  10.012  0.8510 -1.9122  0.4960
  977MOL0     H31851   8.977   1.454  10.269 -0.4835  2.0759 -0.8493
  977MOL0     H31852   9.043   1.310  10.193  0.7453  0.0594 -0.6505
  977MOL0     H31853   8.878   1.357   9.995 -1.0621 -0.2189 -0.7344
  977MOL0     H31854   8.797   1.476  10.102 -2.1594 -0.9014  0.7567
  977MOL0     H31855   8.703   1.051  10.274  0.7496  1.0560  0.0561
  977MOL0     H31856   8.398   0.968  10.407 -1.4097  0.6881 -0.6569
  977MOL0     H31857   8.410   0.917  10.241 -0.4909 -0.5693 -0.0351
  977MOL0     H31858   8.556   0.913  10.337 -1.0454 -0.0745  1.6988
  977MOL0     H31859   8.042   1.131  10.451 -2.0175 -1.5039  0.0514
  977MOL0     H31860   7.808   1.148  10.483  1.7697  0.4124  0.7576
  977MOL0     H31861   7.605   1.139  10.383  0.2013  0.3442 -1.9655
  977MOL0     H31862   7.524   1.235  10.500 -2.0003 -1.4787 -0.5175
  977MOL0     H31863   7.349   1.214  10.357 -0.5447  1.4495  1.0041
  977MOL0     H31864   7.435   1.354  10.275  2.1152 -0.3624  0.4825
  977MOL0     H31865   7.353   1.175  10.125 -0.6716 -0.5335  1.5834
  977MOL0     H31866   7.479   1.069  10.195  0.0451 -0.5071 -1.6022
  977MOL0     H31867   7.512   1.313  10.035  1.8583  1.0791  0.6133
  977MOL0     H31868   7.643   1.251  10.138 -0.2109  0.8164 -0.2705
  977MOL0     H31869   7.596   1.172   9.873  0.3717  0.4435  0.0195
  977MOL0     H31870   7.508   1.047   9.959 -1.8649  1.6281 -2.0473
  977MOL0     H31871   7.715   1.041  10.105  1.1205 -0.9114  0.1054
  977MOL0     H31872   7.732   0.978   9.944 -0.9718 -2.5277  3.1210
  977MOL0     H31873   7.833   1.258  10.002  0.4153 -0.0298 -1.4688
  977MOL0     H31874   7.827   1.164   9.851 -2.8671 -1.1591  0.0379
  977MOL0     H31875   8.000   1.018   9.931 -1.2105 -1.1369  2.4361
  977MOL0     H31876   7.972   1.067  10.096 -0.9477  1.2723  2.4080
  977MOL0     H31877   7.811   1.505  10.235 -0.6287 -0.4999 -0.2544
  977MOL0     H31878   8.048   1.496  10.233  2.1276 -0.8678  0.3837
  977MOL0     H31879   8.374   1.411  10.173  1.6516  0.5065 -5.3050
  977MOL0     H31880   8.602   1.445  10.130  1.3346 -0.0924  0.8715
  977MOL0     H31881  10.416   2.344   9.900 -0.2634  1.6395 -0.1516
  977MOL0     H31882  10.635   2.402   9.985  1.5491  1.5493  0.6873
  977MOL0     H31883  10.803   2.451  10.635 -2.9603  2.0211 -1.4743
  977MOL0     H31884  10.992   2.564  10.717 -1.2969 -2.0982 -0.1604
  977MOL0     H31885  11.214   2.841  10.450  1.0610  0.1003 -0.6224
  977MOL0     H31886  11.319   2.829  10.597  1.8878 -0.5074 -0.8757
  977MOL0     H31887  11.431   2.748  10.418  1.2918 -0.2489 -0.7782
  977MOL0     H31888  11.304   2.618  10.384 -0.5703 -0.6822  0.8382
  977MOL0     H31889  11.366   2.489  10.582 -0.2693  0.5803  1.5757
  977MOL0     H31890  11.408   2.631  10.662 -0.8549 -1.6347  0.5691
  977MOL0     H31891  11.615   2.639  10.556 -0.5444  1.0052  0.4427
  977MOL0     H31892  11.562   2.537  10.416  1.3517  0.8132  0.9240
  977MOL0     H31893  11.730   2.247  10.668 -0.6501 -1.0324 -2.5648
  977MOL0     H31894  11.075   2.709  10.321 -0.8436 -1.2500 -0.0944
  977MOL0     H31895  10.921   2.567  10.235 -0.9892 -1.5069  0.5520
  978MOL0     O31896   6.671   3.084   8.882  0.1741  0.4166  0.1368
  978MOL0     C31897   6.757   3.085   8.974  0.5305 -0.5395  0.3697
  978MOL0     O31898   6.733   3.045   9.102  0.7898  0.5286 -0.2808
  978MOL0     C31899   6.605   3.009   9.135  0.0975  0.2893 -0.1035
  978MOL0     C31900   6.493   3.089   9.096 -0.4778  0.0261  0.0831
  978MOL0     C31901   6.369   3.046   9.142  0.5694 -0.0894  0.2924
  978MOL0     C31902   6.355   2.940   9.236  0.2038  0.1764  0.3523
  978MOL0     O31903   6.231   2.895   9.286 -0.5329  0.2191  0.6597
  978MOL0     C31904   6.131   2.871   9.186  0.1271  0.1199  0.7525
  978MOL0     C31905   6.006   2.838   9.266 -1.3491 -0.2348 -0.4413
  978MOL0     C31906   5.900   2.764   9.176  0.0119  0.2618  0.3536
  978MOL0     C31907   5.760   2.735   9.235  0.1311  0.3864 -0.1820
  978MOL0     C31908   5.775   2.617   9.334 -0.3234  0.1397  0.8550
  978MOL0     C31909   5.645   2.580   9.408  0.0125 -0.6258  0.2426
  978MOL0     C31910   5.543   2.510   9.322 -0.5157  0.4711  0.5066
  978MOL0     C31911   5.432   2.607   9.286 -0.1748 -0.4899  0.3771
  978MOL0     N31912   5.328   2.548   9.200 -0.8363  1.1566 -1.1041
  978MOL0     C31913   5.307   2.583   9.068  0.2316  0.0881 -0.2519
  978MOL0     C31914   5.205   2.498   9.037  0.9751 -0.2045  0.0217
  978MOL0     C31915   5.159   2.485   8.893  0.3657  0.0984  0.0765
  978MOL0     C31916   5.005   2.471   8.894  0.0006  0.4051 -0.3312
  978MOL0     C31917   4.942   2.565   8.791  0.9742 -0.3211 -0.3872
  978MOL0     C31918   4.787   2.570   8.784  0.4701  1.0576  0.2497
  978MOL0     O31919   4.739   2.448   8.729  0.0689  0.2615 -0.6031
  978MOL0     C31920   4.601   2.437   8.713  0.6197  0.5132  0.3752
  978MOL0     C31921   4.500   2.532   8.717 -0.4714  0.0378 -0.1619
  978MOL0     C31922   4.361   2.510   8.714 -0.0273 -0.1427  0.5091
  978MOL0     C31923   4.257   2.628   8.723 -0.9677  0.5065 -0.8435
  978MOL0     C31924   4.322   2.376   8.689  1.0926  0.3652 -0.2792
  978MOL0     C31925   4.182   2.329   8.667  0.0178  0.3597 -0.5920
  978MOL0     O31926   4.169   2.192   8.659 -0.8436 -0.3551  0.0654
  978MOL0     C31927   4.042   2.139   8.668  1.2158 -0.0703 -0.8500
  978MOL0     C31928   3.972   2.103   8.554  0.1284 -0.3246  0.1250
  978MOL0     C31929   3.849   2.034   8.565  0.3257  0.1341  0.1964
  978MOL0     C31930   3.786   2.012   8.687  0.3233 -0.3946  0.1947
  978MOL0     O31931   3.672   1.944   8.706 -0.2661  0.7854  0.8454
  978MOL0     C31932   3.671   1.816   8.636 -0.9719 -0.1653  0.0473
  978MOL0     C31933   3.585   1.710   8.700 -0.2574  0.1729 -0.2720
  978MOL0     C31934   3.597   1.577   8.627  0.0280 -0.4436 -0.1897
  978MOL0     C31935   3.512   1.467   8.689 -0.2919 -0.1723 -0.5655
  978MOL0     C31936   3.365   1.486   8.690 -0.2832 -0.3189 -0.3758
  978MOL0     C31937   3.314   1.408   8.803  0.5689  0.5787 -0.8268
  978MOL0     C31938   3.163   1.437   8.829  0.6322 -0.8721 -0.5046
  978MOL0     C31939   3.065   1.380   8.722 -0.0898 -0.3649 -0.1663
  978MOL0    Cl31940   2.901   1.454   8.710 -0.2612  0.2493 -0.4961
  978MOL0     C31941   3.852   2.070   8.795  0.9142  0.3965  0.1299
  978MOL0     C31942   3.979   2.127   8.787  0.4047 -0.3476 -0.2946
  978MOL0     O31943   4.092   2.409   8.666 -0.0702  0.4581  0.2364
  978MOL0     C31944   4.416   2.280   8.671  0.2678  0.3997  0.3623
  978MOL0     C31945   4.557   2.306   8.683  0.4171  0.0250  0.6971
  978MOL0     N31946   5.163   2.433   9.150 -0.3420 -0.3846 -0.0022
  978MOL0     N31947   5.236   2.464   9.253  0.6733  0.8701 -0.1552
  978MOL0     C31948   6.465   2.866   9.277 -0.3143 -0.0562 -0.6211
  978MOL0     C31949   6.597   2.895   9.227 -0.8254 -0.8353  0.4519
  978MOL0     C31950   6.892   3.115   8.940 -0.4344  0.7219 -0.0724
  978MOL0     C31951   7.009   3.059   9.008  0.5465 -1.5997 -0.1995
  978MOL0     C31952   7.136   3.103   8.970  0.2757  0.1770  0.5281
  978MOL0     C31953   7.146   3.199   8.868  0.2285 -0.5864 -0.1783
  978MOL0     O31954   7.264   3.241   8.823 -0.3613  0.7513 -0.2483
  978MOL0     C31955   7.386   3.198   8.883  0.1195  0.5349 -0.5181
  978MOL0     C31956   7.507   3.228   8.791  0.7207 -0.5293 -0.4001
  978MOL0     C31957   7.567   3.369   8.807  0.1790 -0.3570 -0.6754
  978MOL0     C31958   7.689   3.392   8.713  0.7593 -0.4321  0.4458
  978MOL0     C31959   7.797   3.304   8.747  0.4091  0.2910  0.3545
  978MOL0     C31960   7.897   3.241   8.776  0.2833 -0.5006 -0.3527
  978MOL0     C31961   7.030   3.243   8.797 -0.0509  0.3754  0.4387
  978MOL0     C31962   6.911   3.196   8.835 -0.3217 -0.4812 -0.0248
  978MOL0     H31963   6.498   3.179   9.037  0.8646  1.2830  1.9823
  978MOL0     H31964   6.291   3.108   9.099  2.0431 -0.6878 -3.6614
  978MOL0     H31965   6.124   2.959   9.122 -1.5379 -1.5568 -1.5439
  978MOL0     H31966   6.162   2.790   9.120  0.0335  1.9163 -1.6441
  978MOL0     H31967   6.036   2.777   9.351 -0.3816  2.0659  0.9570
  978MOL0     H31968   5.959   2.930   9.302 -0.4558 -0.0542  0.3108
  978MOL0     H31969   5.886   2.829   9.090 -0.6607  0.7241  0.8091
  978MOL0     H31970   5.948   2.673   9.138  2.7478  1.5164  0.5229
  978MOL0     H31971   5.703   2.818   9.277  2.5715  2.1982 -0.2277
  978MOL0     H31972   5.696   2.692   9.157  0.5870 -3.0735  1.1928
  978MOL0     H31973   5.797   2.527   9.277  1.4976  1.5908 -0.8626
  978MOL0     H31974   5.853   2.647   9.404 -1.5038  0.4692  2.0836
  978MOL0     H31975   5.685   2.513   9.485 -0.2020 -0.2210  0.7152
  978MOL0     H31976   5.599   2.666   9.457 -1.0287 -0.0288 -1.6868
  978MOL0     H31977   5.592   2.463   9.237 -1.4180 -1.0869  0.8069
  978MOL0     H31978   5.486   2.434   9.376 -1.8909 -1.2763 -3.0652
  978MOL0     H31979   5.467   2.697   9.233  1.0883 -0.0824  1.8264
  978MOL0     H31980   5.386   2.637   9.380 -0.0643  0.0958  0.2501
  978MOL0     H31981   5.357   2.652   9.001 -1.7333  0.4370 -1.4289
  978MOL0     H31982   5.180   2.586   8.856 -1.4494  0.1724 -0.8760
  978MOL0     H31983   5.209   2.407   8.836  1.1717  1.1488 -0.6911
  978MOL0     H31984   4.973   2.498   8.995  0.7679  0.2131 -0.0234
  978MOL0     H31985   4.982   2.364   8.882  0.2454  0.1659  1.1497
  978MOL0     H31986   4.990   2.530   8.699  0.2954  1.6898 -1.5775
  978MOL0     H31987   4.969   2.670   8.807  1.6874 -0.5454 -0.1045
  978MOL0     H31988   4.759   2.647   8.711 -0.3910  2.2100  1.7502
  978MOL0     H31989   4.741   2.586   8.882 -0.5693 -4.1337  0.9054
  978MOL0     H31990   4.532   2.634   8.734  2.2336 -1.0587  2.0229
  978MOL0     H31991   4.163   2.605   8.774 -0.8654 -0.2281 -0.9819
  978MOL0     H31992   4.301   2.701   8.792 -2.5606 -0.7645  1.6591
  978MOL0     H31993   4.238   2.676   8.627 -0.6679  2.2807 -0.0578
  978MOL0     H31994   4.015   2.131   8.458 -1.2261  0.0830 -0.3844
  978MOL0     H31995   3.800   1.994   8.477 -0.1283 -0.4616  0.7143
  978MOL0     H31996   3.644   1.841   8.533 -2.6543 -0.1673  0.4565
  978MOL0     H31997   3.771   1.774   8.645 -0.5934  0.7824  0.4387
  978MOL0     H31998   3.597   1.699   8.808 -2.2059 -0.9392 -0.1346
  978MOL0     H31999   3.484   1.748   8.685 -0.1551  0.4027 -0.3776
  978MOL0     H32000   3.703   1.548   8.624  0.6315  1.7489 -2.1449
  978MOL0     H32001   3.573   1.586   8.521 -1.9140  1.0181  0.3165
  978MOL0     H32002   3.537   1.377   8.633  3.4608  0.6320 -0.4731
  978MOL0     H32003   3.542   1.453   8.793  0.3483 -0.5574 -0.7979
  978MOL0     H32004   3.327   1.456   8.592  0.4619  0.7415 -1.0024
  978MOL0     H32005   3.340   1.589   8.717  0.5557 -0.0676 -0.5231
  978MOL0     H32006   3.327   1.300   8.792 -1.1162  0.2193  0.3049
  978MOL0     H32007   3.364   1.439   8.895 -3.1132 -0.1255  1.6534
  978MOL0     H32008   3.163   1.547   8.835 -0.5520 -0.8838  0.2199
  978MOL0     H32009   3.137   1.408   8.931  3.4993  0.2190  0.6339
  978MOL0     H32010   3.034   1.279   8.750 -1.4309 -0.0856 -0.5626
  978MOL0     H32011   3.112   1.368   8.624  0.3709 -1.6358  0.1926
  978MOL0     H32012   3.801   2.066   8.891 -0.5970 -0.6448 -0.6670
  978MOL0     H32013   4.033   2.150   8.879  0.3363 -0.0806 -0.3219
  978MOL0     H32014   4.395   2.176   8.650 -2.9969  0.9941  0.1778
  978MOL0     H32015   4.634   2.239   8.645 -0.7194 -0.5270 -0.7368
  978MOL0     H32016   6.448   2.778   9.338  0.6626  1.0811  1.4136
  978MOL0     H32017   6.688   2.845   9.256 -0.4657  0.1001  0.9854
  978MOL0     H32018   6.992   3.009   9.103  0.2965 -1.4980 -0.1881
  978MOL0     H32019   7.223   3.070   9.025  1.0013  0.2814 -0.5417
  978MOL0     H32020   7.385   3.241   8.984  0.5451  1.9225 -1.0780
  978MOL0     H32021   7.387   3.090   8.894 -2.2140  0.5592  0.3869
  978MOL0     H32022   7.480   3.192   8.692 -0.8891 -4.2196  1.2048
  978MOL0     H32023   7.588   3.161   8.822 -0.4437 -0.9067  2.0518
  978MOL0     H32024   7.587   3.403   8.909 -0.4685  5.9900 -2.2613
  978MOL0     H32025   7.488   3.434   8.770  0.7610 -2.0121 -5.6100
  978MOL0     H32026   7.718   3.497   8.709 -2.0126  0.4433  0.8501
  978MOL0     H32027   7.655   3.367   8.611  2.8842  1.6669 -0.8578
  978MOL0     H32028   7.992   3.200   8.802 -0.0816 -0.1113  1.7250
  978MOL0     H32029   7.034   3.314   8.716  1.3911  0.0480  0.2022
  978MOL0     H32030   6.821   3.220   8.779  0.8117 -4.5108 -4.1848
  979MOL0     O32031   0.861   9.673  11.190 -1.0447 -0.3280  0.3472
  979MOL0     C32032   0.882   9.604  11.292  0.6609 -1.1853  0.7873
  979MOL0     O32033   0.794   9.508  11.350  0.3167  0.2328 -0.7967
  979MOL0     C32034   0.682   9.490  11.273  0.4641  0.3613 -0.3302
  979MOL0     C32035   0.581   9.581  11.257  0.1461 -0.1515 -0.2424
  979MOL0     C32036   0.471   9.551  11.170  0.5152  0.0534 -0.3936
  979MOL0     C32037   0.465   9.432  11.096 -0.3740 -0.5931 -0.6167
  979MOL0     O32038   0.360   9.396  11.010  0.0891  0.8983 -0.6594
  979MOL0     C32039   0.406   9.360  10.885  0.5551 -0.1379  0.0584
  979MOL0     C32040   0.285   9.354  10.787  1.2176  0.3338  0.1341
  979MOL0     C32041   0.185   9.243  10.826  0.7839  0.4752 -1.0216
  979MOL0     C32042   0.075   9.237  10.732  0.1934 -0.3215 -0.3391
  979MOL0     C32043  -0.008   9.110  10.763 -0.2382  0.1667  1.5381
  979MOL0     C32044  -0.137   9.118  10.675 -0.2747 -1.0395  0.3004
  979MOL0     C32045  -0.241   9.013  10.723  0.7588 -0.0885  0.3801
  979MOL0     C32046  -0.210   8.874  10.686 -0.4176  0.0104  0.0915
  979MOL0     N32047  -0.320   8.783  10.724 -0.2786  0.8314  0.9290
  979MOL0     C32048  -0.426   8.740  10.643 -0.0068  0.3049 -0.4124
  979MOL0     C32049  -0.506   8.672  10.726 -0.0990 -0.1311  0.1698
  979MOL0     C32050  -0.631   8.598  10.671  0.1319 -0.4164  0.5536
  979MOL0     C32051  -0.582   8.454  10.636  0.7714 -0.4640  0.3071
  979MOL0     C32052  -0.679   8.367  10.557  0.8038 -0.1421 -0.5501
  979MOL0     C32053  -0.800   8.356  10.642  0.1440  1.2973  0.3139
  979MOL0     O32054  -0.899   8.276  10.583  0.6949  0.2141 -0.2923
  979MOL0     C32055  -0.905   8.142  10.610  0.0796 -1.1341  0.8693
  979MOL0     C32056  -1.023   8.076  10.581 -0.7462 -0.3640 -1.2997
  979MOL0     C32057  -1.051   7.940  10.599  0.2841 -0.2670 -0.0582
  979MOL0     C32058  -1.190   7.881  10.566 -0.3512  0.4793 -0.3027
  979MOL0     C32059  -0.953   7.869  10.663 -0.1604  0.3609  0.6928
  979MOL0     C32060  -0.966   7.730  10.683 -0.1840  0.3100 -0.6836
  979MOL0     O32061  -1.000   7.655  10.575  0.2137  0.4536  0.0870
  979MOL0     C32062  -1.044   7.530  10.595 -0.0797 -0.3884  0.4920
  979MOL0     C32063  -0.969   7.430  10.636 -0.2124  0.4576 -0.0480
  979MOL0     C32064  -1.027   7.295  10.651 -0.8322 -0.5140 -0.2020
  979MOL0     C32065  -1.161   7.281  10.626 -0.7692  0.0643  0.4371
  979MOL0     O32066  -1.194   7.148  10.631  0.3158 -0.4771  0.2402
  979MOL0     C32067  -1.338   7.116  10.642 -0.1935  0.2890  0.2077
  979MOL0     C32068  -1.371   6.989  10.716 -0.8615  1.5345  0.2647
  979MOL0     C32069  -1.271   6.879  10.660 -0.7068 -0.4778  0.0500
  979MOL0     C32070  -1.309   6.744  10.702 -0.4646 -0.2459 -0.4725
  979MOL0     C32071  -1.228   6.626  10.638  0.6938 -0.2437  0.6618
  979MOL0     C32072  -1.265   6.596  10.484  0.1381 -0.8440  0.2214
  979MOL0     C32073  -1.201   6.460  10.443 -0.0220  0.2525  0.5649
  979MOL0     C32074  -1.285   6.395  10.340  0.1306 -0.2561  0.1934
  979MOL0    Cl32075  -1.220   6.230  10.328 -0.7492  0.0151  0.3001
  979MOL0     C32076  -1.237   7.388  10.585 -0.1966  0.3713 -0.0610
  979MOL0     C32077  -1.178   7.516  10.564  0.1542 -0.9413  0.4105
  979MOL0     O32078  -0.953   7.690  10.803  0.5644  0.2644  0.0376
  979MOL0     C32079  -0.838   7.931  10.704 -0.7631  0.3473  1.0187
  979MOL0     C32080  -0.808   8.064  10.676 -0.3059 -0.9788 -0.9368
  979MOL0     N32081  -0.447   8.666  10.854  0.6197 -0.0540  0.4860
  979MOL0     N32082  -0.342   8.741  10.852 -0.1823 -0.6558  0.4231
  979MOL0     C32083   0.563   9.338  11.118 -0.2632  0.1931  0.5916
  979MOL0     C32084   0.670   9.364  11.210 -0.0448  0.0493  0.0328
  979MOL0     C32085   1.015   9.609  11.361  0.6854  0.2914 -0.3540
  979MOL0     C32086   1.109   9.701  11.313 -0.1268  0.9154 -0.2457
  979MOL0     C32087   1.224   9.710  11.383 -0.3212 -0.4681 -0.2057
  979MOL0     C32088   1.261   9.631  11.497 -0.1220 -0.7376 -0.4252
  979MOL0     O32089   1.371   9.635  11.580  0.0535 -0.4840 -0.0017
  979MOL0     C32090   1.492   9.647  11.512  0.7646 -0.1073 -0.6350
  979MOL0     C32091   1.545   9.794  11.526 -0.2702  0.7091 -0.4850
  979MOL0     C32092   1.681   9.802  11.461  0.1265  0.1253 -0.3341
  979MOL0     C32093   1.753   9.937  11.468 -0.8523 -0.0312 -0.1089
  979MOL0     C32094   1.666  10.049  11.435  0.4479 -0.3519 -0.2540
  979MOL0     C32095   1.624  10.153  11.392  1.4364  0.2405 -0.2389
  979MOL0     C32096   1.161   9.542  11.546 -0.0625  0.2563 -0.0170
  979MOL0     C32097   1.038   9.529  11.474  0.3686  0.5407  0.2732
  979MOL0     H32098   0.596   9.672  11.314  2.9472 -0.7614  0.1525
  979MOL0     H32099   0.391   9.623  11.152 -1.2659 -1.6909  0.1394
  979MOL0     H32100   0.471   9.442  10.854 -0.5622  1.3381  1.4222
  979MOL0     H32101   0.472   9.273  10.891  0.4269 -0.1899  0.8676
  979MOL0     H32102   0.233   9.449  10.775 -0.2002 -0.4923 -0.5002
  979MOL0     H32103   0.327   9.335  10.688  1.6346  1.7873  0.0199
  979MOL0     H32104   0.238   9.147  10.832 -0.0078  0.1128  0.9800
  979MOL0     H32105   0.141   9.251  10.926 -0.0410 -2.0689 -1.0934
  979MOL0     H32106   0.017   9.329  10.743 -1.8691 -1.1876 -2.9932
  979MOL0     H32107   0.105   9.231  10.627  0.6348  0.5208 -0.2746
  979MOL0     H32108   0.056   9.024  10.744 -1.1082 -0.7496  2.6117
  979MOL0     H32109  -0.040   9.100  10.867 -2.2268 -1.9254  0.8032
  979MOL0     H32110  -0.170   9.218  10.702 -0.2719 -0.5242 -1.5139
  979MOL0     H32111  -0.126   9.113  10.567 -0.4217  0.0044  0.2342
  979MOL0     H32112  -0.264   9.019  10.830 -0.7988 -0.9173  0.1185
  979MOL0     H32113  -0.330   9.026  10.661  0.6829  2.0204  0.8685
  979MOL0     H32114  -0.123   8.838  10.743 -1.0053 -3.5100 -0.9765
  979MOL0     H32115  -0.181   8.870  10.580 -0.3473  1.0911  0.0616
  979MOL0     H32116  -0.446   8.770  10.541 -0.0903 -2.9507 -1.4897
  979MOL0     H32117  -0.700   8.597  10.755  0.0239  1.1210  0.5113
  979MOL0     H32118  -0.682   8.651  10.591  0.0155 -0.4011  0.6388
  979MOL0     H32119  -0.544   8.410  10.729 -2.4165 -5.3351 -0.2995
  979MOL0     H32120  -0.503   8.493  10.571 -1.6064  4.0197 -0.3228
  979MOL0     H32121  -0.630   8.271  10.538 -1.8100 -1.9268  1.0663
  979MOL0     H32122  -0.697   8.407  10.457  1.6773 -1.5371 -1.2924
  979MOL0     H32123  -0.860   8.446  10.653 -0.1259  1.1717 -0.1164
  979MOL0     H32124  -0.767   8.327  10.742  1.7908  0.9654 -0.2955
  979MOL0     H32125  -1.108   8.130  10.541 -0.9596 -0.4031 -0.8943
  979MOL0     H32126  -1.260   7.965  10.573 -0.4203  0.5807 -1.9936
  979MOL0     H32127  -1.190   7.828  10.471 -0.4659 -2.4145  1.1908
  979MOL0     H32128  -1.214   7.804  10.640 -1.5880  0.1223 -1.0504
  979MOL0     H32129  -0.864   7.444  10.662 -0.5114  1.3275  0.7698
  979MOL0     H32130  -0.959   7.222  10.695  2.1066  0.3732 -2.8418
  979MOL0     H32131  -1.391   7.197  10.693  2.3604  2.5104 -0.4469
  979MOL0     H32132  -1.384   7.104  10.543  1.2039  1.0206 -0.5525
  979MOL0     H32133  -1.346   7.000  10.822  0.8017  1.6450 -0.1081
  979MOL0     H32134  -1.476   6.961  10.701 -0.6617  1.4812 -1.1735
  979MOL0     H32135  -1.170   6.890  10.702  0.1179  0.1197 -1.9559
  979MOL0     H32136  -1.258   6.888  10.551  2.8444  3.8550  0.5139
  979MOL0     H32137  -1.302   6.727  10.810  0.9787  1.2671 -0.3030
  979MOL0     H32138  -1.415   6.737  10.673 -0.2774  3.1733 -2.5378
  979MOL0     H32139  -1.259   6.541  10.700 -1.3991  1.8211  2.6119
  979MOL0     H32140  -1.122   6.640  10.661  0.8255 -0.3413  0.1348
  979MOL0     H32141  -1.372   6.606  10.465  0.5622  0.4054 -1.8876
  979MOL0     H32142  -1.225   6.676  10.420  2.3318 -2.4987 -0.5820
  979MOL0     H32143  -1.198   6.387  10.524  0.0105 -0.0147  0.3237
  979MOL0     H32144  -1.102   6.461  10.396 -0.8762  0.7189 -1.3411
  979MOL0     H32145  -1.274   6.442  10.242  1.6527  1.1396  0.9933
  979MOL0     H32146  -1.392   6.395  10.360 -0.1805 -1.1064 -1.3001
  979MOL0     H32147  -1.344   7.385  10.563 -0.4395  4.2250 -0.1040
  979MOL0     H32148  -1.226   7.601  10.516  2.1051  0.3916  0.7194
  979MOL0     H32149  -0.761   7.870  10.751 -0.0425  0.8628  0.5270
  979MOL0     H32150  -0.713   8.110  10.700 -0.6412 -1.2986  1.1194
  979MOL0     H32151   0.556   9.235  11.084  1.4533  0.2466 -0.0611
  979MOL0     H32152   0.745   9.287  11.226 -1.2850 -1.3151 -0.4732
  979MOL0     H32153   1.098   9.758  11.222  1.0856 -1.7658 -2.2007
  979MOL0     H32154   1.304   9.769  11.340 -0.9617  2.1967  1.9584
  979MOL0     H32155   1.559   9.579  11.565  1.9425  2.4673  1.3817
  979MOL0     H32156   1.484   9.609  11.409 -1.8171 -0.2528 -0.4336
  979MOL0     H32157   1.557   9.810  11.634 -0.3185  0.6869 -0.4764
  979MOL0     H32158   1.472   9.868  11.491 -0.0575  3.0869  3.4876
  979MOL0     H32159   1.664   9.778  11.356 -2.8398 -2.2403  0.5326
  979MOL0     H32160   1.749   9.723  11.496  0.8506  0.6552 -0.5369
  979MOL0     H32161   1.840   9.937  11.402  0.9153  1.7719  2.0497
  979MOL0     H32162   1.786   9.970  11.567 -0.2493  0.4656 -0.4669
  979MOL0     H32163   1.600  10.248  11.348 -3.0114 -1.3223 -1.7003
  979MOL0     H32164   1.169   9.485  11.638 -2.1109  0.1678  0.1581
  979MOL0     H32165   0.968   9.456  11.513  2.0934 -1.8624 -0.8450
  980MOL0     O32166   5.882   6.729   0.635  0.1969  0.4882 -0.5099
  980MOL0     C32167   5.927   6.651   0.552 -0.4709 -0.0462 -0.2416
  980MOL0     O32168   5.865   6.611   0.435 -0.3599  0.4422  0.9574
  980MOL0     C32169   5.748   6.666   0.385 -0.5399 -0.4901  0.0148
  980MOL0     C32170   5.678   6.588   0.295  0.1430 -0.5001 -0.7789
  980MOL0     C32171   5.561   6.632   0.237 -0.3544  0.2870 -0.2801
  980MOL0     C32172   5.528   6.763   0.249 -0.3252  0.8191 -0.6253
  980MOL0     O32173   5.420   6.828   0.188  0.1725  0.5106 -0.4238
  980MOL0     C32174   5.412   6.822   0.050 -0.8270  0.2383 -0.4325
  980MOL0     C32175   5.296   6.908   0.014 -0.4223 -0.0370  0.4748
  980MOL0     C32176   5.306   6.914  -0.140 -0.3155  0.1113  0.2004
  980MOL0     C32177   5.222   6.814  -0.223 -0.3360  0.7206 -0.9820
  980MOL0     C32178   5.254   6.835  -0.375 -0.5158 -0.3266  0.2584
  980MOL0     C32179   5.249   6.714  -0.472  0.6259  0.3494 -1.9506
  980MOL0     C32180   5.139   6.621  -0.430 -0.9172  1.1184  0.1898
  980MOL0     C32181   5.128   6.489  -0.528 -0.5247  0.2117 -0.6699
  980MOL0     N32182   5.027   6.393  -0.471 -0.5079 -0.2074 -0.4915
  980MOL0     C32183   5.050   6.311  -0.359 -0.1541 -0.1971  0.6032
  980MOL0     C32184   4.935   6.235  -0.345  0.5670  0.5718  1.0032
  980MOL0     C32185   4.922   6.123  -0.241  0.3484 -0.2794 -0.2335
  980MOL0     C32186   4.777   6.091  -0.177 -0.0023  0.0314  0.5725
  980MOL0     C32187   4.676   6.035  -0.283  0.1068  0.0310 -0.4591
  980MOL0     C32188   4.532   6.043  -0.229 -0.0104 -0.2837 -0.2309
  980MOL0     O32189   4.481   6.171  -0.189 -0.2363 -0.6809 -0.2121
  980MOL0     C32190   4.346   6.174  -0.164  0.0378 -0.1587 -0.2061
  980MOL0     C32191   4.257   6.056  -0.166 -0.6724 -0.2319  0.5906
  980MOL0     C32192   4.122   6.065  -0.155 -0.6780  0.6787 -0.3079
  980MOL0     C32193   4.044   5.941  -0.158 -0.0496  0.1737 -0.0199
  980MOL0     C32194   4.060   6.197  -0.144  1.2663 -0.4960 -0.6913
  980MOL0     C32195   3.923   6.213  -0.113  0.2387 -0.3656 -0.4268
  980MOL0     O32196   3.888   6.348  -0.112 -0.9544 -0.4622  0.1624
  980MOL0     C32197   3.772   6.389  -0.052 -0.7484 -0.0383 -0.6893
  980MOL0     C32198   3.679   6.458  -0.123 -0.2878 -0.7741  0.7295
  980MOL0     C32199   3.564   6.510  -0.065 -0.4456  0.3631  0.5165
  980MOL0     C32200   3.549   6.496   0.067 -0.0634  0.0437 -0.0657
  980MOL0     O32201   3.440   6.544   0.134  0.1147 -0.3634 -0.1801
  980MOL0     C32202   3.315   6.496   0.075 -0.6983 -0.0272  0.1478
  980MOL0     C32203   3.222   6.473   0.198 -0.9312 -0.3273 -0.1005
  980MOL0     C32204   3.096   6.390   0.174  0.2946  0.1227 -0.4730
  980MOL0     C32205   3.012   6.395   0.300 -0.6467 -0.6261  0.4363
  980MOL0     C32206   2.872   6.326   0.293  0.5626 -0.2553 -0.5192
  980MOL0     C32207   2.766   6.389   0.202  0.2247  0.4069  0.3468
  980MOL0     C32208   2.637   6.303   0.195  0.3748  0.0518  0.3350
  980MOL0     C32209   2.572   6.252   0.327  0.6563  0.2378 -0.3147
  980MOL0    Cl32210   2.413   6.175   0.295  0.3936  0.1761 -0.3082
  980MOL0     C32211   3.651   6.436   0.142  0.6905  0.4533  0.0778
  980MOL0     C32212   3.765   6.385   0.089  0.0842  0.2543  0.2152
  980MOL0     O32213   3.835   6.125  -0.096  1.7464 -0.1402  0.1875
  980MOL0     C32214   4.143   6.309  -0.156 -0.0939  0.2122 -0.3031
  980MOL0     C32215   4.277   6.297  -0.175  0.6676 -1.2974 -0.1446
  980MOL0     N32216   4.841   6.293  -0.436  0.8530 -0.2755  0.2189
  980MOL0     N32217   4.901   6.380  -0.513  0.4766 -0.6611 -0.2953
  980MOL0     C32218   5.603   6.847   0.341  0.6012 -0.0070 -0.1937
  980MOL0     C32219   5.716   6.803   0.405 -0.6101  0.6020  0.0418
  980MOL0     C32220   6.062   6.602   0.573 -0.2770 -0.3585 -0.4987
  980MOL0     C32221   6.128   6.631   0.692 -0.8402  1.6712  0.0572
  980MOL0     C32222   6.258   6.591   0.704 -0.7038 -1.0266 -0.4600
  980MOL0     C32223   6.332   6.533   0.602 -0.1968 -0.0061 -0.4754
  980MOL0     O32224   6.473   6.532   0.619 -0.3241 -0.2725 -0.5353
  980MOL0     C32225   6.552   6.487   0.509 -0.4116 -0.6741 -0.6475
  980MOL0     C32226   6.699   6.487   0.552  0.1086 -0.3900 -0.4337
  980MOL0     C32227   6.754   6.634   0.581  0.8675 -0.0810 -0.1149
  980MOL0     C32228   6.899   6.624   0.623 -0.0759  0.0750 -0.0286
  980MOL0     C32229   6.982   6.743   0.606  0.7568 -0.0485  0.5599
  980MOL0     C32230   7.055   6.843   0.588 -0.2557 -0.0558 -0.1704
  980MOL0     C32231   6.268   6.500   0.482 -0.1285 -0.1602  0.7786
  980MOL0     C32232   6.132   6.536   0.465 -0.0803 -0.1960 -0.1877
  980MOL0     H32233   5.727   6.494   0.274  2.3438  0.6310 -0.9625
  980MOL0     H32234   5.509   6.567   0.168  0.0156  1.4405 -1.6972
  980MOL0     H32235   5.506   6.851   0.004 -1.9980  1.9578 -1.8704
  980MOL0     H32236   5.399   6.723   0.005  1.0537  0.0818 -0.7184
  980MOL0     H32237   5.199   6.864   0.037 -0.3406 -0.3605  0.2112
  980MOL0     H32238   5.296   7.008   0.059  0.8874 -0.0994  0.6482
  980MOL0     H32239   5.271   7.013  -0.170 -0.6032 -0.9818 -3.5448
  980MOL0     H32240   5.410   6.904  -0.172 -0.1463 -1.0873  1.0385
  980MOL0     H32241   5.261   6.718  -0.187  2.1226  0.9859 -2.6998
  980MOL0     H32242   5.117   6.828  -0.196  0.2876 -0.6008  2.7944
  980MOL0     H32243   5.177   6.901  -0.417  0.3521  1.9149  2.0155
  980MOL0     H32244   5.347   6.889  -0.390 -0.2124 -1.1642 -1.0513
  980MOL0     H32245   5.229   6.744  -0.575 -0.8113  0.5127 -1.6440
  980MOL0     H32246   5.342   6.659  -0.457  0.7793  1.4706  3.1387
  980MOL0     H32247   5.155   6.591  -0.326 -1.4467  4.4736  1.3650
  980MOL0     H32248   5.044   6.675  -0.433 -3.1880 -2.4820  1.2855
  980MOL0     H32249   5.222   6.434  -0.538 -0.9730 -0.2039 -3.1657
  980MOL0     H32250   5.107   6.528  -0.628 -0.7800 -0.0495 -0.7179
  980MOL0     H32251   5.143   6.311  -0.304  1.5674 -0.7420 -2.1196
  980MOL0     H32252   4.958   6.032  -0.290  1.8604  1.3635 -2.4104
  980MOL0     H32253   4.975   6.151  -0.150 -1.9580  0.1317  1.0526
  980MOL0     H32254   4.730   6.184  -0.142 -0.2109 -0.1065  0.6602
  980MOL0     H32255   4.784   6.038  -0.081  2.7718  0.1496  0.5223
  980MOL0     H32256   4.702   5.930  -0.297  2.2529  0.5432 -0.7442
  980MOL0     H32257   4.686   6.083  -0.380  1.6616 -2.0194 -1.3943
  980MOL0     H32258   4.531   5.975  -0.144  0.9589  1.0817  0.9259
  980MOL0     H32259   4.466   6.000  -0.305  0.3803  0.6105 -1.1122
  980MOL0     H32260   4.309   5.961  -0.157 -1.1279 -0.4963  0.4375
  980MOL0     H32261   3.985   5.943  -0.251  0.5182 -2.4812 -0.5036
  980MOL0     H32262   4.108   5.853  -0.161  0.8396  0.5776 -6.2993
  980MOL0     H32263   3.980   5.920  -0.072 -0.2806 -1.4957 -0.5737
  980MOL0     H32264   3.692   6.465  -0.231 -3.4337  1.2529  0.3622
  980MOL0     H32265   3.486   6.561  -0.120  0.6891 -0.0269 -1.5942
  980MOL0     H32266   3.279   6.574   0.008 -0.2027  0.5534  0.5456
  980MOL0     H32267   3.327   6.402   0.021 -0.7099  0.3491 -0.5211
  980MOL0     H32268   3.274   6.412   0.272 -1.4494  0.8682  1.3180
  980MOL0     H32269   3.211   6.569   0.251  0.6737  0.7731 -1.6412
  980MOL0     H32270   3.116   6.288   0.141 -0.7412 -0.1608 -0.2727
  980MOL0     H32271   3.040   6.431   0.090 -2.1847 -0.3569  0.8348
  980MOL0     H32272   3.057   6.337   0.382 -2.1907  2.1732  3.5106
  980MOL0     H32273   3.003   6.498   0.335  1.8621 -0.9946  2.4830
  980MOL0     H32274   2.836   6.318   0.397  1.1052 -1.5336 -0.4078
  980MOL0     H32275   2.891   6.221   0.266  1.1838 -0.5291  0.8710
  980MOL0     H32276   2.740   6.489   0.239  0.8580 -0.1391  2.3842
  980MOL0     H32277   2.813   6.394   0.104 -2.2212  0.5413 -0.8820
  980MOL0     H32278   2.649   6.215   0.132  1.4585  0.6113 -0.2662
  980MOL0     H32279   2.561   6.364   0.145  1.7384 -0.3076 -2.3569
  980MOL0     H32280   2.548   6.340   0.386  0.0480 -0.1111 -0.0255
  980MOL0     H32281   2.630   6.178   0.384  0.7161 -0.0528 -0.7447
  980MOL0     H32282   3.641   6.427   0.250  3.0238  1.0182  0.4082
  980MOL0     H32283   3.843   6.331   0.143 -1.3113  0.1714  2.2574
  980MOL0     H32284   4.099   6.408  -0.154 -0.2068  0.1776  2.4766
  980MOL0     H32285   4.325   6.394  -0.183  0.5743 -0.6284  4.7298
  980MOL0     H32286   5.569   6.949   0.354 -0.8003 -0.7106  2.0992
  980MOL0     H32287   5.767   6.874   0.470 -0.6490 -1.2098  2.1569
  980MOL0     H32288   6.079   6.674   0.779  0.9052  0.2341  1.8331
  980MOL0     H32289   6.315   6.628   0.789 -3.7373  1.6789  0.5955
  980MOL0     H32290   6.524   6.382   0.492  1.9659 -1.7990  1.6440
  980MOL0     H32291   6.533   6.547   0.420 -1.8171 -0.2483 -0.1011
  980MOL0     H32292   6.759   6.431   0.480 -0.8979 -0.7586 -0.9971
  980MOL0     H32293   6.710   6.429   0.644  1.9128  1.6408  0.7266
  980MOL0     H32294   6.687   6.685   0.651  0.6439  0.7134 -0.8880
  980MOL0     H32295   6.743   6.697   0.493 -2.2997 -2.5708 -1.6882
  980MOL0     H32296   6.954   6.540   0.579 -0.6431  0.0707 -0.7531
  980MOL0     H32297   6.901   6.618   0.733 -1.1335  1.4638  0.0927
  980MOL0     H32298   7.115   6.930   0.570  1.8696 -1.0984  1.4202
  980MOL0     H32299   6.333   6.464   0.403  0.3500  3.2294 -0.5360
  980MOL0     H32300   6.086   6.516   0.369  1.4254  0.4353 -1.0646
  981MOL0     O32301   7.351   7.802   4.304  0.2679  0.4040  0.0222
  981MOL0     C32302   7.399   7.690   4.300  0.3400  0.2668  0.2521
  981MOL0     O32303   7.343   7.582   4.233  0.1393  0.0450  0.1474
  981MOL0     C32304   7.220   7.600   4.175  0.2916 -0.2043 -0.7850
  981MOL0     C32305   7.224   7.607   4.033  0.7961 -0.3157 -0.3252
  981MOL0     C32306   7.105   7.608   3.962  0.7190 -0.0243 -0.3535
  981MOL0     C32307   6.985   7.600   4.023  0.6956  0.6348  0.1921
  981MOL0     O32308   6.868   7.604   3.948 -1.3259  0.6450  0.3663
  981MOL0     C32309   6.737   7.580   4.001 -0.8952  0.2494  1.2117
  981MOL0     C32310   6.620   7.625   3.911  0.9442 -0.5447  0.1576
  981MOL0     C32311   6.476   7.604   3.964 -0.0293 -0.2880 -0.9046
  981MOL0     C32312   6.450   7.676   4.094  0.4375 -0.9437  0.1990
  981MOL0     C32313   6.297   7.690   4.115  0.2575 -0.1267 -0.1523
  981MOL0     C32314   6.266   7.751   4.252 -0.0340  0.9161 -0.0767
  981MOL0     C32315   6.115   7.792   4.258 -0.4039  0.7180 -0.3777
  981MOL0     C32316   6.083   7.836   4.399  0.0733  0.1284  0.2709
  981MOL0     N32317   5.936   7.852   4.418 -0.2886  0.1084 -0.7475
  981MOL0     C32318   5.856   7.945   4.354 -0.0797  0.3344 -0.7417
  981MOL0     C32319   5.724   7.900   4.388 -0.8462  0.5278  0.2687
  981MOL0     C32320   5.601   7.973   4.352 -0.3108 -0.8974  0.5808
  981MOL0     C32321   5.516   7.889   4.254  0.0068 -0.1453  0.8754
  981MOL0     C32322   5.424   7.995   4.174 -0.8404  0.9789 -0.2437
  981MOL0     C32323   5.365   7.941   4.051 -0.4689  0.4793  0.0386
  981MOL0     O32324   5.467   7.898   3.956  0.1341  0.6517  0.2065
  981MOL0     C32325   5.424   7.814   3.858  0.2493 -0.4593  0.1212
  981MOL0     C32326   5.478   7.692   3.844  0.2699  0.1075  0.6713
  981MOL0     C32327   5.440   7.609   3.745  0.2262 -0.1997  0.1957
  981MOL0     C32328   5.506   7.476   3.729 -0.8831  0.2241  0.1790
  981MOL0     C32329   5.349   7.661   3.645  0.3596  0.8774  0.2861
  981MOL0     C32330   5.307   7.570   3.530 -0.4360  0.3154 -0.2125
  981MOL0     O32331   5.275   7.438   3.562  0.0069  0.5596  0.1082
  981MOL0     C32332   5.248   7.342   3.468 -0.6246  0.3122  0.8622
  981MOL0     C32333   5.311   7.344   3.340  0.3461 -0.2275 -0.4722
  981MOL0     C32334   5.278   7.258   3.232 -0.2623 -0.0813  0.0722
  981MOL0     C32335   5.202   7.144   3.273  0.4430  0.4255  0.2699
  981MOL0     O32336   5.172   7.052   3.179 -0.2867  1.1079 -0.6575
  981MOL0     C32337   5.288   7.012   3.111  0.0419  0.7119  0.3331
  981MOL0     C32338   5.415   6.962   3.195  0.0670 -0.0951  0.7201
  981MOL0     C32339   5.503   6.877   3.106  0.4312  0.1767 -0.5301
  981MOL0     C32340   5.638   6.841   3.173 -0.2650  0.3444  0.4457
  981MOL0     C32341   5.710   6.731   3.089 -0.3587 -0.4346  0.3429
  981MOL0     C32342   5.865   6.733   3.096  0.3657 -0.1096 -0.0703
  981MOL0     C32343   5.927   6.657   2.978  1.0523 -0.1140 -0.0738
  981MOL0     C32344   6.077   6.677   2.977 -0.3944  0.2363 -0.2820
  981MOL0    Cl32345   6.143   6.636   2.826 -0.1646 -0.2101  0.0404
  981MOL0     C32346   5.145   7.139   3.397  0.6678  0.2753 -0.2911
  981MOL0     C32347   5.167   7.237   3.501  0.7649  0.4436  0.7207
  981MOL0     O32348   5.283   7.625   3.422  0.0482  0.0598 -0.0932
  981MOL0     C32349   5.279   7.782   3.660 -0.1209  0.9687 -0.7460
  981MOL0     C32350   5.325   7.860   3.769 -0.3126 -0.3310  0.3900
  981MOL0     N32351   5.732   7.800   4.476  0.2404  0.4157  0.0807
  981MOL0     N32352   5.858   7.767   4.489  0.4000  0.8195  0.1480
  981MOL0     C32353   6.978   7.585   4.160  0.3014 -0.0414  0.0260
  981MOL0     C32354   7.094   7.590   4.239  0.2863 -0.2120 -0.2138
  981MOL0     C32355   7.532   7.660   4.367 -0.4954 -1.2096  0.4290
  981MOL0     C32356   7.615   7.762   4.428  1.3413  0.5874 -0.0193
  981MOL0     C32357   7.726   7.722   4.504  0.0648  0.0597 -0.1668
  981MOL0     C32358   7.774   7.594   4.504  0.3418  0.5596 -0.0197
  981MOL0     O32359   7.892   7.569   4.572  0.1608  0.5510  0.2675
  981MOL0     C32360   7.974   7.458   4.515  0.6282 -0.4489 -0.3529
  981MOL0     C32361   8.051   7.506   4.392  0.6253 -0.9048 -0.5331
  981MOL0     C32362   8.143   7.386   4.357 -0.1934 -0.0568  0.5834
  981MOL0     C32363   8.215   7.412   4.218  0.8213 -0.6878  0.2376
  981MOL0     C32364   8.318   7.317   4.206  0.3328  0.1928 -0.0795
  981MOL0     C32365   8.406   7.242   4.198 -0.4071 -0.1301  0.5227
  981MOL0     C32366   7.695   7.495   4.452  0.8856  0.2474  0.3022
  981MOL0     C32367   7.583   7.531   4.377  1.2107  0.6775 -0.2637
  981MOL0     H32368   7.319   7.624   3.983  0.0890 -0.1048 -1.6491
  981MOL0     H32369   7.114   7.613   3.854  1.1694 -1.0327 -0.3743
  981MOL0     H32370   6.730   7.479   4.042  0.2834 -0.5402 -0.4439
  981MOL0     H32371   6.733   7.650   4.085  4.7281  2.0613  0.4363
  981MOL0     H32372   6.633   7.731   3.887 -0.7517 -0.7121 -1.7709
  981MOL0     H32373   6.635   7.573   3.817  3.8422  3.0159 -1.6110
  981MOL0     H32374   6.414   7.647   3.885  0.9918 -2.5848 -3.0981
  981MOL0     H32375   6.460   7.498   3.984 -2.1081  0.4872  2.2239
  981MOL0     H32376   6.494   7.619   4.176 -2.5678  1.1195  3.5417
  981MOL0     H32377   6.494   7.776   4.091  3.1952 -2.0186 -3.8692
  981MOL0     H32378   6.251   7.747   4.034  0.7560 -1.3958 -1.3693
  981MOL0     H32379   6.253   7.589   4.116 -2.7211  1.0089 -2.4902
  981MOL0     H32380   6.299   7.680   4.329 -0.2593  0.2247 -0.6027
  981MOL0     H32381   6.323   7.842   4.269  0.1617  1.2365 -2.2266
  981MOL0     H32382   6.106   7.882   4.198  1.2184  2.6486  2.0780
  981MOL0     H32383   6.051   7.708   4.228  0.2642  0.4560 -1.1181
  981MOL0     H32384   6.131   7.931   4.425 -0.9358  0.5462  0.6315
  981MOL0     H32385   6.114   7.754   4.466  2.3049  0.1926 -0.5790
  981MOL0     H32386   5.885   8.032   4.296 -0.2701  1.1161  0.3166
  981MOL0     H32387   5.557   8.006   4.446  3.9341  0.6393  2.2543
  981MOL0     H32388   5.634   8.060   4.295 -1.1584 -0.2014  1.1402
  981MOL0     H32389   5.447   7.825   4.309 -3.0556  0.7396 -1.6406
  981MOL0     H32390   5.581   7.827   4.193  0.9692  0.3364  1.3703
  981MOL0     H32391   5.482   8.084   4.145 -1.5809  0.8566 -2.2587
  981MOL0     H32392   5.348   8.035   4.240  0.8713  1.1875  1.6880
  981MOL0     H32393   5.297   8.017   4.010  0.8884  2.4029  1.1910
  981MOL0     H32394   5.298   7.864   4.091 -0.1526  0.6476  0.9041
  981MOL0     H32395   5.562   7.665   3.907  0.7309 -2.0046 -0.7357
  981MOL0     H32396   5.552   7.456   3.632 -1.0626  2.0250 -0.3148
  981MOL0     H32397   5.574   7.460   3.813 -0.8236  0.3957  0.1654
  981MOL0     H32398   5.433   7.397   3.747  0.4690 -0.8481  1.0975
  981MOL0     H32399   5.377   7.423   3.304  0.6295 -1.3519 -2.5633
  981MOL0     H32400   5.306   7.280   3.129 -0.8945  1.0132  0.1149
  981MOL0     H32401   5.249   6.924   3.059  2.0217 -1.5184  2.3704
  981MOL0     H32402   5.312   7.090   3.038 -1.3740  2.9269  2.1282
  981MOL0     H32403   5.467   7.041   3.249 -2.4214 -0.0270  3.2490
  981MOL0     H32404   5.392   6.892   3.276 -2.9307  0.1161  0.1908
  981MOL0     H32405   5.527   6.924   3.010  1.7801  0.7934  0.0893
  981MOL0     H32406   5.443   6.787   3.090  0.8070  0.1011 -1.6072
  981MOL0     H32407   5.705   6.924   3.197  0.7975 -0.2087 -0.5137
  981MOL0     H32408   5.611   6.777   3.257 -0.2090 -0.6609 -0.2796
  981MOL0     H32409   5.685   6.733   2.983  2.1366  2.3300 -0.3435
  981MOL0     H32410   5.679   6.633   3.126 -0.5573 -1.1774 -1.6690
  981MOL0     H32411   5.893   6.839   3.101 -1.3690  0.3388  0.6576
  981MOL0     H32412   5.891   6.699   3.197  1.5758  1.6678  0.2699
  981MOL0     H32413   5.891   6.698   2.883 -1.3036 -0.3200  0.6800
  981MOL0     H32414   5.903   6.551   2.979  1.9989 -0.3723 -1.6598
  981MOL0     H32415   6.123   6.608   3.049 -0.3976  1.1742  0.6434
  981MOL0     H32416   6.096   6.781   3.003  1.2455 -0.4792  1.6836
  981MOL0     H32417   5.085   7.050   3.416  0.4205  0.7507  1.2927
  981MOL0     H32418   5.123   7.214   3.598  1.4576 -1.5718  0.5953
  981MOL0     H32419   5.201   7.800   3.587  0.9809 -0.1648 -2.2760
  981MOL0     H32420   5.277   7.958   3.776  1.0770  0.3482  0.7410
  981MOL0     H32421   6.883   7.588   4.212  1.9596 -1.7619  3.5326
  981MOL0     H32422   7.095   7.594   4.347 -2.4421 -2.3223 -0.0107
  981MOL0     H32423   7.581   7.864   4.411 -1.4205  0.2164  2.4963
  981MOL0     H32424   7.793   7.798   4.543  3.7775 -1.0917 -3.5730
  981MOL0     H32425   8.047   7.425   4.590  0.1958  0.8373  0.6755
  981MOL0     H32426   7.914   7.367   4.503 -0.4450  0.1761  0.0963
  981MOL0     H32427   8.102   7.600   4.412  0.0082 -0.7297  0.2807
  981MOL0     H32428   7.975   7.523   4.315  0.4002  0.6457 -0.0036
  981MOL0     H32429   8.084   7.294   4.354 -2.6224  1.4186 -2.0688
  981MOL0     H32430   8.220   7.382   4.435  0.8207 -2.3596 -0.4685
  981MOL0     H32431   8.239   7.518   4.208  0.0561 -0.4727  0.5928
  981MOL0     H32432   8.142   7.394   4.139 -1.4768 -0.5245  2.2175
  981MOL0     H32433   8.485   7.173   4.221 -0.4697  0.0813  1.4233
  981MOL0     H32434   7.712   7.388   4.466 -0.5967 -0.1322 -0.5797
  981MOL0     H32435   7.523   7.449   4.338  3.8666 -0.2033 -2.8533
  982MOL0     O32436   3.818   4.660   7.775  0.9258  1.1408  0.7090
  982MOL0     C32437   3.863   4.687   7.884  0.0607 -0.4258  0.3419
  982MOL0     O32438   3.792   4.725   7.994 -0.5688  0.3217  0.1302
  982MOL0     C32439   3.651   4.724   8.009 -0.1636 -0.1815  0.9880
  982MOL0     C32440   3.553   4.717   7.912 -0.2993  0.1135 -0.6153
  982MOL0     C32441   3.415   4.723   7.947  0.3206  0.2147  0.0087
  982MOL0     C32442   3.369   4.729   8.079  0.5027  0.2261 -0.8325
  982MOL0     O32443   3.237   4.727   8.119  0.2124 -0.4032  0.2464
  982MOL0     C32444   3.136   4.804   8.050  0.4672  0.2834 -0.3669
  982MOL0     C32445   2.991   4.771   8.103 -0.9705 -0.5092 -0.0080
  982MOL0     C32446   2.873   4.841   8.020  0.0822 -0.2113 -0.8387
  982MOL0     C32447   2.730   4.778   8.048 -0.1576  0.3873  0.5076
  982MOL0     C32448   2.622   4.840   7.959  0.5061 -0.5620  0.5759
  982MOL0     C32449   2.475   4.797   7.993  0.2297  0.4063 -0.1344
  982MOL0     C32450   2.354   4.874   7.925  0.0583  0.0643 -0.7673
  982MOL0     C32451   2.227   4.893   8.014  0.9465 -0.5741 -0.6309
  982MOL0     N32452   2.104   4.942   7.949 -0.6383  0.3572 -0.5082
  982MOL0     C32453   2.004   4.852   7.892  0.3343 -0.7342 -0.1284
  982MOL0     C32454   1.889   4.930   7.890  0.1209 -0.2298 -0.4115
  982MOL0     C32455   1.756   4.870   7.854 -0.2018 -1.3451 -0.4684
  982MOL0     C32456   1.640   4.962   7.891 -0.0361  0.6270  1.1641
  982MOL0     C32457   1.514   4.877   7.848 -0.0098 -0.0800  0.0933
  982MOL0     C32458   1.385   4.952   7.868 -0.6956 -0.1153  0.5879
  982MOL0     O32459   1.350   4.962   8.006  0.0482 -0.0516  0.1412
  982MOL0     C32460   1.211   5.004   8.029 -1.0176  0.1388  0.3854
  982MOL0     C32461   1.177   5.014   8.164 -0.5741 -0.0052  1.3033
  982MOL0     C32462   1.058   5.072   8.204  0.4893 -0.2437 -0.2506
  982MOL0     C32463   1.023   5.082   8.354 -1.1284 -0.2772  1.0897
  982MOL0     C32464   0.957   5.109   8.107  0.9378  0.5363 -0.0890
  982MOL0     C32465   0.828   5.162   8.133  0.3203  0.1385 -0.5490
  982MOL0     O32466   0.738   5.184   8.025 -0.4115  0.7344 -1.0446
  982MOL0     C32467   0.606   5.212   8.045 -0.6220 -0.4305 -1.0370
  982MOL0     C32468   0.546   5.290   7.943  1.0119 -0.3177  0.6220
  982MOL0     C32469   0.404   5.323   7.944  0.1424 -0.4312  0.3154
  982MOL0     C32470   0.327   5.285   8.057 -1.0496  0.4332  0.4752
  982MOL0     O32471   0.191   5.297   8.072  0.0151  0.4868  0.0460
  982MOL0     C32472   0.134   5.426   8.065  0.3868  0.2021 -0.3981
  982MOL0     C32473  -0.024   5.439   8.074 -0.2497  0.1562 -0.3859
  982MOL0     C32474  -0.083   5.424   7.936  0.1743  0.7077  0.1402
  982MOL0     C32475  -0.235   5.420   7.931  0.8960  0.0161 -0.5578
  982MOL0     C32476  -0.300   5.405   7.788  0.4403  0.0082  0.3520
  982MOL0     C32477  -0.321   5.540   7.716  0.7530  0.4260 -0.0485
  982MOL0     C32478  -0.426   5.626   7.791  0.3384 -0.6036  0.7133
  982MOL0     C32479  -0.567   5.631   7.734 -0.9659  1.3804 -0.6092
  982MOL0    Cl32480  -0.672   5.727   7.832  0.1267 -0.2331  0.1588
  982MOL0     C32481   0.387   5.209   8.161 -0.6860  0.0695  0.6742
  982MOL0     C32482   0.527   5.171   8.149 -0.1751  0.0177  1.3348
  982MOL0     O32483   0.795   5.173   8.248 -0.5508 -0.6484 -0.6663
  982MOL0     C32484   0.997   5.094   7.975  0.8761 -1.4402  0.0744
  982MOL0     C32485   1.119   5.040   7.939 -1.3212  0.1906  0.0708
  982MOL0     N32486   1.919   5.065   7.932 -0.3588  0.3596  0.7710
  982MOL0     N32487   2.036   5.062   7.975 -0.6096 -0.2840 -0.3946
  982MOL0     C32488   3.465   4.743   8.171 -0.4610 -0.1709 -0.6147
  982MOL0     C32489   3.603   4.740   8.142 -0.2309  0.1050 -0.0607
  982MOL0     C32490   4.007   4.678   7.902  0.4151 -0.1969  0.4815
  982MOL0     C32491   4.073   4.734   8.008  0.3151  0.5470 -0.5224
  982MOL0     C32492   4.218   4.738   8.016  0.2321  0.0700  0.3756
  982MOL0     C32493   4.297   4.670   7.925  0.5994  0.1782  1.4585
  982MOL0     O32494   4.432   4.661   7.937 -0.3046  0.0947  0.1002
  982MOL0     C32495   4.491   4.715   8.055  0.0029  0.5513 -0.1381
  982MOL0     C32496   4.629   4.652   8.060  0.3041  0.0746 -1.1190
  982MOL0     C32497   4.638   4.495   8.047 -0.7521  0.3026 -0.4462
  982MOL0     C32498   4.553   4.432   8.159 -0.4941  0.0827 -0.3925
  982MOL0     C32499   4.549   4.286   8.133 -0.0159  0.3441  0.6307
  982MOL0     C32500   4.559   4.172   8.096  0.7010  0.2589  0.6551
  982MOL0     C32501   4.231   4.616   7.816 -0.2589  0.6871  0.5622
  982MOL0     C32502   4.088   4.627   7.800  0.8608  0.9904  0.7291
  982MOL0     H32503   3.582   4.706   7.808 -0.0383 -0.7809 -0.4542
  982MOL0     H32504   3.341   4.715   7.867  0.0134  0.3819  0.2717
  982MOL0     H32505   3.158   4.910   8.066 -2.3593  0.6780  1.6971
  982MOL0     H32506   3.142   4.779   7.944 -1.3921 -4.3297  0.3717
  982MOL0     H32507   2.982   4.662   8.100 -0.2997 -0.9794  5.4189
  982MOL0     H32508   2.994   4.804   8.207 -0.3972  1.3115 -0.5525
  982MOL0     H32509   2.884   4.947   8.044 -0.7755 -0.4586  0.8434
  982MOL0     H32510   2.914   4.827   7.920  1.0306  1.2198 -0.6796
  982MOL0     H32511   2.739   4.675   8.014  0.2309  1.2668 -2.4216
  982MOL0     H32512   2.708   4.790   8.154  1.9910  1.9176  0.8441
  982MOL0     H32513   2.632   4.949   7.965 -1.3845 -0.2078 -1.4078
  982MOL0     H32514   2.640   4.809   7.856  1.3763 -0.0886  0.5732
  982MOL0     H32515   2.470   4.693   7.960  2.6432 -0.0647  0.7613
  982MOL0     H32516   2.459   4.796   8.101  0.3328 -1.6872 -0.1127
  982MOL0     H32517   2.400   4.970   7.898  2.8315 -0.1396  2.5469
  982MOL0     H32518   2.320   4.827   7.833  1.6414 -1.3249 -0.6738
  982MOL0     H32519   2.259   4.960   8.093  1.3947  1.3359 -2.3337
  982MOL0     H32520   2.206   4.794   8.055  0.8358 -0.4957 -0.4966
  982MOL0     H32521   2.018   4.746   7.869 -0.5977 -1.4688  2.4103
  982MOL0     H32522   1.760   4.851   7.746  2.9622 -0.3624 -0.6223
  982MOL0     H32523   1.753   4.766   7.890 -1.1258 -1.2394 -0.2041
  982MOL0     H32524   1.645   5.063   7.849 -2.8782 -0.1722 -1.5103
  982MOL0     H32525   1.637   4.978   7.999  1.1706  1.9930  1.0301
  982MOL0     H32526   1.513   4.785   7.907  3.7629  1.4437  2.9372
  982MOL0     H32527   1.530   4.850   7.743 -1.0660  0.3246 -0.1953
  982MOL0     H32528   1.308   4.893   7.816 -1.2767  0.7085  0.4988
  982MOL0     H32529   1.393   5.055   7.832 -0.7064 -0.3718 -0.1626
  982MOL0     H32530   1.251   4.972   8.232  2.1475  0.8565 -0.9528
  982MOL0     H32531   0.962   4.994   8.376 -2.6564 -0.0222 -1.6783
  982MOL0     H32532   1.117   5.079   8.411 -2.5517  0.7777  3.6614
  982MOL0     H32533   0.983   5.178   8.389 -1.8857 -0.0015 -0.4818
  982MOL0     H32534   0.599   5.323   7.855  0.0350 -0.0055  0.1356
  982MOL0     H32535   0.367   5.371   7.854  3.5487 -0.3138 -1.1741
  982MOL0     H32536   0.184   5.484   8.143  0.5605 -0.6253  0.1107
  982MOL0     H32537   0.165   5.470   7.970 -3.5850  0.5001 -1.7170
  982MOL0     H32538  -0.058   5.370   8.151  0.3625 -1.2197 -1.3149
  982MOL0     H32539  -0.055   5.537   8.113 -1.6388 -1.4726  2.9351
  982MOL0     H32540  -0.044   5.334   7.887  0.2897  0.5147  0.5893
  982MOL0     H32541  -0.061   5.514   7.878 -0.9662  0.9205  0.0022
  982MOL0     H32542  -0.274   5.337   7.990  1.5908  0.3175  0.3478
  982MOL0     H32543  -0.267   5.519   7.966  0.2277 -0.9725  1.8435
  982MOL0     H32544  -0.394   5.349   7.792  0.6067 -0.6287 -2.4571
  982MOL0     H32545  -0.226   5.338   7.744  5.1152  2.7521  3.1134
  982MOL0     H32546  -0.225   5.591   7.727  0.6243  0.8010 -0.6195
  982MOL0     H32547  -0.351   5.523   7.612 -0.9112 -4.5533  1.0107
  982MOL0     H32548  -0.390   5.729   7.780 -0.4775  0.0353  3.3625
  982MOL0     H32549  -0.448   5.598   7.894 -0.6822 -1.5977  0.2486
  982MOL0     H32550  -0.595   5.525   7.730  1.7405  0.6304 -1.6012
  982MOL0     H32551  -0.576   5.675   7.634  1.2818  4.6912  0.4726
  982MOL0     H32552   0.331   5.175   8.247  2.1307  0.0347  2.6440
  982MOL0     H32553   0.558   5.099   8.224 -1.6550 -0.9885  1.0313
  982MOL0     H32554   0.927   5.116   7.895  2.0991  0.5003 -0.5273
  982MOL0     H32555   1.126   5.046   7.830 -2.0249  1.4992  0.0886
  982MOL0     H32556   3.441   4.755   8.276  0.1260  1.8432 -0.6586
  982MOL0     H32557   3.666   4.764   8.228 -1.8571  3.3919  0.3534
  982MOL0     H32558   4.023   4.781   8.092 -2.6257 -1.1796 -1.1580
  982MOL0     H32559   4.265   4.791   8.099  0.8002 -2.6666  1.9249
  982MOL0     H32560   4.492   4.824   8.046 -0.4448  0.5127 -0.6596
  982MOL0     H32561   4.436   4.693   8.147 -0.2950  2.7616  0.2763
  982MOL0     H32562   4.668   4.686   8.156 -0.7933  0.6693 -0.8620
  982MOL0     H32563   4.698   4.691   7.985  1.8161 -0.5038 -0.0700
  982MOL0     H32564   4.742   4.466   8.058 -0.1388  2.0968 -1.1659
  982MOL0     H32565   4.619   4.452   7.948 -0.8819 -2.3969  0.6621
  982MOL0     H32566   4.457   4.482   8.150 -2.3556 -2.0128  4.2779
  982MOL0     H32567   4.600   4.448   8.256  0.4457 -1.4744 -0.5603
  982MOL0     H32568   4.556   4.072   8.056 -0.8718  2.1259 -4.8273
  982MOL0     H32569   4.297   4.560   7.750 -1.9333  0.1656 -0.7535
  982MOL0     H32570   4.038   4.576   7.718  0.5508 -1.8907  2.5662
  983MOL0     O32571   4.994   9.024   4.234  0.3271  0.0106 -0.2998
  983MOL0     C32572   5.039   9.092   4.332 -0.0136 -0.1294  0.6199
  983MOL0     O32573   4.961   9.162   4.418  0.1138  0.0398 -0.8194
  983MOL0     C32574   4.831   9.199   4.404 -0.0701 -0.5297  1.0940
  983MOL0     C32575   4.748   9.212   4.517  0.1894  0.6101  0.4980
  983MOL0     C32576   4.618   9.260   4.505 -0.7201  0.1690 -0.5923
  983MOL0     C32577   4.561   9.295   4.377  0.4062  0.5517 -0.4434
  983MOL0     O32578   4.432   9.338   4.364  0.2501  0.0833 -0.2150
  983MOL0     C32579   4.337   9.287   4.453  0.1670 -0.3556 -0.1870
  983MOL0     C32580   4.205   9.293   4.386  0.6993 -0.3581 -0.3353
  983MOL0     C32581   4.095   9.262   4.489  0.1500  0.6575 -0.7360
  983MOL0     C32582   3.957   9.276   4.424 -0.1493  0.0292 -0.6734
  983MOL0     C32583   3.856   9.226   4.521  0.0500 -0.4766 -0.0878
  983MOL0     C32584   3.725   9.236   4.447  0.4516 -0.5827  0.5948
  983MOL0     C32585   3.598   9.179   4.511  0.3668 -0.4751  0.3504
  983MOL0     C32586   3.464   9.183   4.431 -0.1251 -0.7366  0.7059
  983MOL0     N32587   3.354   9.153   4.519  0.1309 -0.2409 -0.7640
  983MOL0     C32588   3.243   9.229   4.530  0.4323  0.7499 -1.0770
  983MOL0     C32589   3.156   9.156   4.603  0.0581  0.3934 -0.3888
  983MOL0     C32590   3.013   9.184   4.652 -0.4232 -0.0182 -0.3457
  983MOL0     C32591   2.920   9.250   4.548  0.8688  0.0412 -1.1776
  983MOL0     C32592   2.819   9.372   4.609 -0.8258 -0.0459  0.9602
  983MOL0     C32593   2.720   9.430   4.509 -0.8322 -0.2743 -0.1596
  983MOL0     O32594   2.765   9.553   4.444 -0.4760  0.5100  0.3497
  983MOL0     C32595   2.659   9.644   4.412 -0.4527 -0.0980  0.3813
  983MOL0     C32596   2.644   9.676   4.274  0.4604 -0.7439 -0.6696
  983MOL0     C32597   2.536   9.760   4.229 -0.2602 -0.3962 -0.0758
  983MOL0     C32598   2.512   9.783   4.075  0.6523  0.1949 -0.3216
  983MOL0     C32599   2.449   9.814   4.331  0.6349 -0.4840  0.5067
  983MOL0     C32600   2.334   9.910   4.301 -0.5515  0.0595 -0.7643
  983MOL0     O32601   2.241   9.916   4.404 -0.1111  0.1692  0.2392
  983MOL0     C32602   2.133   9.985   4.386  0.2520  0.0094  1.1025
  983MOL0     C32603   2.021   9.923   4.330 -0.0850  0.0901 -0.0053
  983MOL0     C32604   1.900   9.986   4.319 -0.1645  1.1147 -0.2897
  983MOL0     C32605   1.886  10.118   4.364 -0.1793  0.2260  0.3121
  983MOL0     O32606   1.772  10.187   4.351  0.0278 -0.4229 -0.1511
  983MOL0     C32607   1.655  10.131   4.424 -0.1345  0.1766  0.4089
  983MOL0     C32608   1.678  10.140   4.581  0.0465  0.1136 -0.1752
  983MOL0     C32609   1.649  10.025   4.664  0.4255  0.2018 -0.6285
  983MOL0     C32610   1.496  10.028   4.693  0.2829 -0.1416 -0.3876
  983MOL0     C32611   1.442   9.912   4.770 -0.2192 -0.6796 -0.1510
  983MOL0     C32612   1.437   9.783   4.680  0.3474  0.2544  0.2557
  983MOL0     C32613   1.410   9.653   4.768 -0.3750 -0.7119  0.7934
  983MOL0     C32614   1.523   9.612   4.862 -0.4066 -0.3844  0.2220
  983MOL0    Cl32615   1.482   9.470   4.967  0.1683 -0.3899  0.2406
  983MOL0     C32616   2.007  10.183   4.409  0.3151  0.1275  1.0387
  983MOL0     C32617   2.121  10.117   4.425 -0.0098  0.2301  0.9196
  983MOL0     O32618   2.329   9.979   4.202 -0.5121  0.5166  0.2840
  983MOL0     C32619   2.469   9.776   4.460 -0.5195 -0.2217  0.0789
  983MOL0     C32620   2.574   9.704   4.507 -0.0487  0.1394  0.8732
  983MOL0     N32621   3.213   9.044   4.637  0.4580  1.0767  0.4709
  983MOL0     N32622   3.333   9.043   4.588 -0.1357 -0.2744  0.5336
  983MOL0     C32623   4.639   9.270   4.260 -0.0741 -0.5272 -0.8307
  983MOL0     C32624   4.770   9.231   4.274 -0.1376  0.5357 -0.2361
  983MOL0     C32625   5.183   9.067   4.365  0.3555  0.4550  0.0302
  983MOL0     C32626   5.254   8.980   4.285  0.9701  0.4057 -0.7935
  983MOL0     C32627   5.392   8.955   4.304  1.0073  0.7620 -0.4648
  983MOL0     C32628   5.458   9.018   4.408  0.2995  0.1342 -0.8013
  983MOL0     O32629   5.592   9.000   4.425  0.1009  0.2358  0.0030
  983MOL0     C32630   5.672   8.923   4.339  0.0308  0.1337  0.0244
  983MOL0     C32631   5.703   8.994   4.212 -0.3154 -0.3055 -0.3455
  983MOL0     C32632   5.815   8.932   4.124 -0.4074 -0.6802 -0.4881
  983MOL0     C32633   5.816   9.003   3.987  0.2558  0.5176  0.3820
  983MOL0     C32634   5.937   8.965   3.906 -0.0477 -0.0600 -0.1412
  983MOL0     C32635   6.027   8.917   3.847  0.1950 -0.0975  0.5064
  983MOL0     C32636   5.385   9.106   4.488  0.7857  0.3418 -0.2600
  983MOL0     C32637   5.254   9.133   4.466 -0.3222  0.0319  0.1966
  983MOL0     H32638   4.786   9.201   4.618  2.1290  2.8518  0.1063
  983MOL0     H32639   4.573   9.273   4.603  0.8224 -0.3577  0.2191
  983MOL0     H32640   4.356   9.187   4.493 -2.2530  0.2830  2.9231
  983MOL0     H32641   4.329   9.361   4.533 -1.3586  1.3427 -1.8004
  983MOL0     H32642   4.183   9.394   4.352 -0.3829 -0.5379 -0.2311
  983MOL0     H32643   4.209   9.225   4.300 -1.5815 -0.1486 -0.6736
  983MOL0     H32644   4.122   9.162   4.521 -1.3690  0.5413  0.2742
  983MOL0     H32645   4.098   9.323   4.580 -0.3565 -3.6098  2.4412
  983MOL0     H32646   3.940   9.383   4.406 -1.4234  0.0131  0.2756
  983MOL0     H32647   3.959   9.224   4.328  0.0993  0.4891 -0.9188
  983MOL0     H32648   3.865   9.117   4.530  0.6540 -0.4282 -0.0471
  983MOL0     H32649   3.855   9.282   4.614 -1.1708  0.4117 -0.6021
  983MOL0     H32650   3.696   9.339   4.424  1.2787 -0.6802 -1.0497
  983MOL0     H32651   3.739   9.194   4.347  0.6605  1.9507 -0.5317
  983MOL0     H32652   3.620   9.073   4.526  1.6894 -0.6088 -2.0240
  983MOL0     H32653   3.572   9.232   4.603  0.3486 -1.2116  0.7789
  983MOL0     H32654   3.477   9.118   4.344 -0.5146 -0.9576  0.8039
  983MOL0     H32655   3.437   9.286   4.406  0.7896 -0.6318  0.1331
  983MOL0     H32656   3.222   9.322   4.478 -2.3768 -0.9531 -3.3447
  983MOL0     H32657   2.978   9.089   4.693  1.3315 -1.1702 -1.3684
  983MOL0     H32658   3.029   9.255   4.734  3.2434  1.1080 -1.7904
  983MOL0     H32659   2.858   9.171   4.504 -0.0490  0.5584 -0.8234
  983MOL0     H32660   2.972   9.302   4.467  0.2982  0.1977 -1.4451
  983MOL0     H32661   2.879   9.458   4.639 -0.0539  0.9449 -2.8676
  983MOL0     H32662   2.763   9.340   4.697 -3.3910  0.4857 -0.4034
  983MOL0     H32663   2.628   9.463   4.558 -2.2759  0.7790 -3.2880
  983MOL0     H32664   2.696   9.346   4.443  0.0444 -1.9114  1.5195
  983MOL0     H32665   2.715   9.633   4.204  0.4716  2.1514 -2.5950
  983MOL0     H32666   2.569   9.712   4.014 -0.2418  1.2524 -2.4632
  983MOL0     H32667   2.407   9.760   4.057  1.3809 -2.7696 -1.3999
  983MOL0     H32668   2.538   9.883   4.041  0.1442 -1.2527 -5.8341
  983MOL0     H32669   2.034   9.823   4.291 -0.0910  0.3195 -0.6182
  983MOL0     H32670   1.820   9.921   4.284  1.2550 -1.7916  1.5660
  983MOL0     H32671   1.570  10.195   4.400 -0.9287 -0.6177  1.0495
  983MOL0     H32672   1.642  10.029   4.387  1.5095  0.7407 -1.9735
  983MOL0     H32673   1.781  10.166   4.607 -0.7754  2.5456  1.0208
  983MOL0     H32674   1.616  10.226   4.608  0.0263 -0.1139  0.5164
  983MOL0     H32675   1.703  10.028   4.759  1.9372  0.0944 -1.4517
  983MOL0     H32676   1.691   9.936   4.615  1.1495  0.5085 -0.5777
  983MOL0     H32677   1.481  10.106   4.768 -0.1339 -0.1308 -0.4793
  983MOL0     H32678   1.435  10.054   4.606  1.0791 -1.9499 -1.5697
  983MOL0     H32679   1.339   9.940   4.793 -0.7123 -1.4326 -1.3302
  983MOL0     H32680   1.499   9.889   4.861 -0.2233  0.1826  0.0710
  983MOL0     H32681   1.343   9.801   4.628  0.7686 -1.7042 -1.3225
  983MOL0     H32682   1.518   9.762   4.610  0.2726  0.4129  0.1232
  983MOL0     H32683   1.397   9.570   4.698  2.1070  1.9043 -3.1735
  983MOL0     H32684   1.317   9.674   4.821  0.8484  3.5260  1.6400
  983MOL0     H32685   1.555   9.689   4.932  0.7690 -0.8084  0.1744
  983MOL0     H32686   1.610   9.597   4.796  0.1490  0.7186  0.6756
  983MOL0     H32687   2.004  10.288   4.435  1.8819  1.4933 -3.3759
  983MOL0     H32688   2.204  10.150   4.485  1.9308  0.7419 -1.8401
  983MOL0     H32689   2.409   9.812   4.543 -0.3781  0.8590 -0.2714
  983MOL0     H32690   2.588   9.696   4.614  1.5742  0.5130  0.7106
  983MOL0     H32691   4.603   9.294   4.160  2.0970  1.9872 -1.1368
  983MOL0     H32692   4.830   9.210   4.186 -1.0179 -0.2253 -0.6721
  983MOL0     H32693   5.213   8.934   4.195  3.3808 -0.2819 -1.6189
  983MOL0     H32694   5.441   8.889   4.233  0.7050 -1.2416  1.0949
  983MOL0     H32695   5.767   8.909   4.390 -0.5949  1.7681  1.7708
  983MOL0     H32696   5.630   8.824   4.318  1.9960 -1.0531  1.3033
  983MOL0     H32697   5.735   9.096   4.232 -1.6955  0.2222 -0.7411
  983MOL0     H32698   5.613   9.006   4.151 -1.2630  0.4098  1.1511
  983MOL0     H32699   5.795   8.824   4.120  0.7998 -0.9177 -5.0776
  983MOL0     H32700   5.906   8.937   4.184 -1.3680 -2.9109  1.3178
  983MOL0     H32701   5.815   9.110   4.005 -1.0812  0.3992  1.1696
  983MOL0     H32702   5.725   8.984   3.929  1.9053 -2.4675 -1.5169
  983MOL0     H32703   6.099   8.885   3.774 -0.1614  0.1842  0.0247
  983MOL0     H32704   5.441   9.151   4.570 -0.9208 -1.4561  2.0222
  983MOL0     H32705   5.194   9.200   4.528 -0.8612  0.4243 -0.7298
  984MOL0     O32706   0.827   4.073   4.172  0.3965  0.1797  0.3144
  984MOL0     C32707   0.881   3.957   4.144  0.8809 -0.6247  0.4303
  984MOL0     O32708   0.823   3.841   4.149  0.7903  0.4237  0.3244
  984MOL0     C32709   0.706   3.844   4.228 -0.0914 -0.0279  0.3881
  984MOL0     C32710   0.588   3.899   4.178 -0.1971  0.3355  0.0107
  984MOL0     C32711   0.474   3.896   4.260 -0.5772 -0.0839 -0.1347
  984MOL0     C32712   0.467   3.836   4.383 -0.2642  0.1755 -0.4122
  984MOL0     O32713   0.356   3.825   4.458  0.3858  0.6253 -0.7788
  984MOL0     C32714   0.234   3.895   4.429 -0.4801 -0.0549  0.4952
  984MOL0     C32715   0.162   3.878   4.564 -0.3914 -0.5412  0.3871
  984MOL0     C32716   0.027   3.961   4.565 -0.3420 -0.0461 -0.3872
  984MOL0     C32717  -0.063   3.960   4.440 -0.6598  0.1196  0.5750
  984MOL0     C32718  -0.193   4.022   4.473  0.0695 -0.1856 -0.2882
  984MOL0     C32719  -0.297   3.965   4.381  0.4818 -0.0320  0.2749
  984MOL0     C32720  -0.437   3.989   4.445 -0.2019 -0.8008  0.1689
  984MOL0     C32721  -0.545   3.902   4.384 -0.1396  0.0977  0.6730
  984MOL0     N32722  -0.677   3.920   4.447 -0.2621 -0.1278  0.0272
  984MOL0     C32723  -0.736   4.047   4.469 -0.3553  0.6581 -0.2923
  984MOL0     C32724  -0.859   4.016   4.525 -0.0486  0.5650  0.2242
  984MOL0     C32725  -0.960   4.122   4.567  0.1441 -0.0565 -0.8321
  984MOL0     C32726  -1.103   4.102   4.519 -0.2089 -0.6527 -0.3192
  984MOL0     C32727  -1.187   4.234   4.549  0.1261 -0.4892  0.6529
  984MOL0     C32728  -1.320   4.226   4.466  0.2321 -0.1088  0.0446
  984MOL0     O32729  -1.388   4.354   4.478 -0.4511 -0.4749 -0.6973
  984MOL0     C32730  -1.523   4.365   4.455 -0.1687 -0.0646 -0.3092
  984MOL0     C32731  -1.581   4.482   4.506  0.5482  0.8321  0.3648
  984MOL0     C32732  -1.716   4.512   4.472 -0.7227 -0.8724 -0.2232
  984MOL0     C32733  -1.757   4.652   4.513 -0.5377 -0.0207 -0.6816
  984MOL0     C32734  -1.790   4.419   4.389 -0.6025  0.0165  0.4415
  984MOL0     C32735  -1.921   4.448   4.357 -0.0452  0.1145 -0.6817
  984MOL0     O32736  -1.984   4.378   4.251 -0.2605 -0.9112  0.1844
  984MOL0     C32737  -2.102   4.436   4.211 -0.5050 -0.8438  0.0113
  984MOL0     C32738  -2.100   4.533   4.111 -1.0799 -0.3842  0.4565
  984MOL0     C32739  -2.218   4.597   4.079  0.2583  0.1877  0.2328
  984MOL0     C32740  -2.341   4.562   4.145  0.3662  0.1260  0.3248
  984MOL0     O32741  -2.457   4.635   4.132 -0.5508 -0.6982  0.0912
  984MOL0     C32742  -2.463   4.741   4.030  0.3960  0.1033  0.4158
  984MOL0     C32743  -2.601   4.811   4.016 -0.0203 -0.0834 -0.2631
  984MOL0     C32744  -2.668   4.852   4.153 -0.3887  0.2983 -0.2865
  984MOL0     C32745  -2.824   4.899   4.129 -1.6090  0.3603 -0.6115
  984MOL0     C32746  -2.838   5.037   4.074  0.1965  0.2052 -0.2555
  984MOL0     C32747  -2.985   5.066   4.020 -0.4327 -0.1402 -0.1247
  984MOL0     C32748  -3.006   4.994   3.887 -0.3921 -0.5562 -0.7051
  984MOL0     C32749  -3.141   5.029   3.851 -0.0805  0.5733 -0.3038
  984MOL0    Cl32750  -3.175   5.210   3.849  0.0910  0.5240  0.0720
  984MOL0     C32751  -2.339   4.467   4.242 -0.0912 -0.1188 -1.2625
  984MOL0     C32752  -2.221   4.398   4.273 -0.1886 -0.0601 -0.8792
  984MOL0     O32753  -1.983   4.528   4.425 -0.7652 -0.3082 -0.2303
  984MOL0     C32754  -1.717   4.307   4.334  0.2473 -0.4574 -1.0063
  984MOL0     C32755  -1.591   4.278   4.374  0.0758 -0.3764  0.7737
  984MOL0     N32756  -0.868   3.878   4.545 -0.7618  0.0741  0.8411
  984MOL0     N32757  -0.753   3.826   4.508 -0.0724  0.5984 -0.3887
  984MOL0     C32758   0.584   3.778   4.431  0.8188  0.5778  0.4417
  984MOL0     C32759   0.697   3.772   4.346 -0.1801 -0.0937 -0.4473
  984MOL0     C32760   1.035   3.950   4.130  0.3460  0.0105  0.9591
  984MOL0     C32761   1.122   3.847   4.173 -0.1961  0.4439  0.3599
  984MOL0     C32762   1.266   3.848   4.151  0.1756  0.2818 -0.7313
  984MOL0     C32763   1.324   3.968   4.112  0.0159  0.5824 -0.5641
  984MOL0     O32764   1.460   3.972   4.105 -0.2681  0.0693 -0.8726
  984MOL0     C32765   1.518   3.934   3.979  0.3929  0.0992 -0.5414
  984MOL0     C32766   1.647   3.993   3.955 -0.6097  0.4940  0.2921
  984MOL0     C32767   1.756   3.980   4.062 -0.2445 -0.2315  0.2160
  984MOL0     C32768   1.885   4.046   4.029 -0.3609  0.2574 -0.6977
  984MOL0     C32769   1.999   4.021   4.118 -0.6980  0.4764 -0.2657
  984MOL0     C32770   2.094   3.992   4.188 -0.2165 -0.2024 -0.5767
  984MOL0     C32771   1.241   4.081   4.101 -0.1401 -0.4040  0.7550
  984MOL0     C32772   1.102   4.068   4.099 -0.0430 -0.0946 -0.3766
  984MOL0     H32773   0.570   3.947   4.082  0.2805  0.0605 -0.2192
  984MOL0     H32774   0.393   3.959   4.225  0.6440  1.6379 -0.0318
  984MOL0     H32775   0.241   4.002   4.407 -0.1396 -0.1985 -0.1175
  984MOL0     H32776   0.186   3.839   4.348 -2.8365  0.4925  1.4203
  984MOL0     H32777   0.143   3.773   4.590  2.8472 -0.9006  1.7863
  984MOL0     H32778   0.230   3.902   4.646 -0.4292 -1.1225  0.5955
  984MOL0     H32779  -0.031   3.924   4.649  1.2521 -1.2146  0.2485
  984MOL0     H32780   0.058   4.066   4.575 -0.4225 -0.0699  0.0909
  984MOL0     H32781  -0.023   4.014   4.354  1.0397  0.3615  1.4811
  984MOL0     H32782  -0.086   3.856   4.419 -1.1960 -0.0883  2.0287
  984MOL0     H32783  -0.218   4.019   4.580 -3.6681  2.9968 -0.8580
  984MOL0     H32784  -0.191   4.129   4.455 -0.8986 -0.0375  0.3974
  984MOL0     H32785  -0.290   4.020   4.287 -0.3534 -1.8354 -0.8900
  984MOL0     H32786  -0.281   3.859   4.364 -1.1940 -0.2537 -0.1341
  984MOL0     H32787  -0.432   3.970   4.552  2.6327  0.4296  0.3480
  984MOL0     H32788  -0.460   4.095   4.434  3.5758  0.0831 -0.5656
  984MOL0     H32789  -0.510   3.798   4.385  1.3723  0.4740 -2.1985
  984MOL0     H32790  -0.549   3.933   4.279  5.3521 -0.1835  0.0723
  984MOL0     H32791  -0.698   4.148   4.460 -1.3246  1.0851  0.2374
  984MOL0     H32792  -0.963   4.117   4.676 -0.8408  3.7218 -0.5389
  984MOL0     H32793  -0.926   4.222   4.538  1.3978  0.1541  1.1689
  984MOL0     H32794  -1.155   4.020   4.570  0.1667 -0.1858  0.8465
  984MOL0     H32795  -1.095   4.084   4.412  2.4691  0.6693 -0.4081
  984MOL0     H32796  -1.133   4.320   4.509 -1.7879  0.0172 -1.0196
  984MOL0     H32797  -1.205   4.245   4.656  1.6976  2.7513  0.6762
  984MOL0     H32798  -1.386   4.145   4.499 -0.3304 -0.1276 -1.0839
  984MOL0     H32799  -1.296   4.217   4.360  0.4759  3.1744 -0.2763
  984MOL0     H32800  -1.517   4.551   4.559 -2.1672  1.5799  2.9675
  984MOL0     H32801  -1.841   4.651   4.582 -1.2743 -0.3685 -1.5578
  984MOL0     H32802  -1.675   4.704   4.563 -0.9918  0.3575 -0.3179
  984MOL0     H32803  -1.782   4.709   4.423  1.4610  1.1705 -0.5222
  984MOL0     H32804  -2.003   4.558   4.069 -0.0936 -4.6372 -0.3756
  984MOL0     H32805  -2.219   4.660   3.991 -0.1046 -0.2614 -0.0872
  984MOL0     H32806  -2.386   4.818   4.041  2.4131 -1.3632 -2.2937
  984MOL0     H32807  -2.449   4.696   3.931  2.5254  5.1087 -1.8834
  984MOL0     H32808  -2.587   4.908   3.969 -3.5896  0.9702  0.5954
  984MOL0     H32809  -2.667   4.756   3.948 -0.6869  0.4348 -0.0430
  984MOL0     H32810  -2.605   4.937   4.184 -0.1840  1.2169 -2.9458
  984MOL0     H32811  -2.664   4.765   4.220  0.3768  0.2168 -0.4275
  984MOL0     H32812  -2.865   4.826   4.059 -0.0122 -1.2926  0.0875
  984MOL0     H32813  -2.874   4.883   4.225  1.9703 -1.8837  1.1197
  984MOL0     H32814  -2.773   5.052   3.988  0.0732  0.7210 -0.2598
  984MOL0     H32815  -2.818   5.100   4.162  0.0554 -0.9144  0.5999
  984MOL0     H32816  -3.058   5.023   4.088  1.3759 -0.2916  1.8291
  984MOL0     H32817  -2.991   5.175   4.025  3.4224  0.1355  3.0885
  984MOL0     H32818  -3.000   4.888   3.911  0.2731 -0.0032  1.8619
  984MOL0     H32819  -2.925   5.027   3.820  0.0132  1.0188  0.4980
  984MOL0     H32820  -3.206   4.982   3.925 -0.6606  1.1331 -0.4413
  984MOL0     H32821  -3.159   4.992   3.749 -1.6498  1.0419 -0.2214
  984MOL0     H32822  -2.429   4.451   4.300  0.5174  3.3795  0.9525
  984MOL0     H32823  -2.212   4.315   4.342  0.0620  1.7434  1.3516
  984MOL0     H32824  -1.769   4.241   4.264  0.7969 -1.5527 -0.4074
  984MOL0     H32825  -1.546   4.184   4.343  1.3219 -0.0601  1.5289
  984MOL0     H32826   0.584   3.722   4.524 -2.5243 -4.2327 -1.9935
  984MOL0     H32827   0.789   3.729   4.386  0.0039  0.8083  0.1377
  984MOL0     H32828   1.072   3.759   4.213  1.0546 -0.4316  0.0520
  984MOL0     H32829   1.317   3.756   4.177  0.2974 -0.4231 -3.2859
  984MOL0     H32830   1.523   3.825   3.986  2.4739  0.2700  1.9784
  984MOL0     H32831   1.450   3.956   3.896  1.8058 -0.1084 -1.8035
  984MOL0     H32832   1.632   4.097   3.924 -0.5938 -0.0145 -1.5381
  984MOL0     H32833   1.696   3.947   3.869  1.5465  1.1810  1.1017
  984MOL0     H32834   1.781   3.874   4.068  1.4105  0.2092  1.7680
  984MOL0     H32835   1.714   4.010   4.159 -3.5785 -0.3327 -1.0639
  984MOL0     H32836   1.877   4.155   4.038 -0.0299  0.2490 -0.2814
  984MOL0     H32837   1.918   4.028   3.926  3.3221  0.5234  0.3030
  984MOL0     H32838   2.175   3.943   4.238  2.4139  1.6037 -2.7549
  984MOL0     H32839   1.293   4.176   4.093 -1.6909  0.6767  2.7533
  984MOL0     H32840   1.032   4.151   4.096 -0.1289 -0.1121  0.6356
  985MOL0     O32841   1.046   2.367   5.220  0.7215  1.0777 -0.3952
  985MOL0     C32842   1.088   2.303   5.132  0.1437 -0.6486 -0.0109
  985MOL0     O32843   1.019   2.252   5.026 -0.4895 -0.7773 -0.1226
  985MOL0     C32844   0.885   2.264   5.000  0.1484 -0.4474  0.1964
  985MOL0     C32845   0.829   2.202   4.886 -0.9685  0.4107 -0.2356
  985MOL0     C32846   0.702   2.221   4.846 -0.7140  0.4337 -0.0176
  985MOL0     C32847   0.609   2.311   4.909 -0.0967 -0.1072  0.6816
  985MOL0     O32848   0.484   2.316   4.858  0.1196  0.0002  0.6845
  985MOL0     C32849   0.422   2.446   4.879  0.2478 -1.0985 -0.3818
  985MOL0     C32850   0.275   2.457   4.819 -0.5518  0.1186 -0.1114
  985MOL0     C32851   0.206   2.321   4.815  0.3732 -0.5408  0.3928
  985MOL0     C32852   0.078   2.326   4.738  0.4026  0.2295 -0.8773
  985MOL0     C32853   0.000   2.197   4.732 -0.1439  0.2821  0.6296
  985MOL0     C32854  -0.117   2.211   4.632  0.5869 -0.1421 -0.2326
  985MOL0     C32855  -0.208   2.085   4.652 -0.0836  0.1666  0.2535
  985MOL0     C32856  -0.341   2.101   4.585 -0.4105 -0.3276 -0.3121
  985MOL0     N32857  -0.441   1.995   4.616 -0.5619 -0.2549 -0.7608
  985MOL0     C32858  -0.464   1.884   4.547 -0.0600 -0.7303  0.0639
  985MOL0     C32859  -0.559   1.826   4.614 -0.1254  0.3147 -0.5747
  985MOL0     C32860  -0.601   1.682   4.596 -0.1691  0.7594 -0.0391
  985MOL0     C32861  -0.746   1.672   4.625 -0.0793  0.8429  1.2240
  985MOL0     C32862  -0.804   1.526   4.611 -0.2417 -0.6400 -0.6858
  985MOL0     C32863  -0.953   1.513   4.596 -0.1331 -0.1774  0.9272
  985MOL0     O32864  -1.001   1.381   4.576  0.3566 -0.6442 -0.3514
  985MOL0     C32865  -1.137   1.372   4.605  0.7252  0.1001  0.5769
  985MOL0     C32866  -1.223   1.479   4.568  0.5039  0.1587  1.0244
  985MOL0     C32867  -1.367   1.474   4.575 -0.1968  0.2074 -0.5311
  985MOL0     C32868  -1.440   1.589   4.503  0.7169 -0.1265 -0.4379
  985MOL0     C32869  -1.429   1.359   4.627  0.2540  0.2475 -1.0349
  985MOL0     C32870  -1.583   1.335   4.646 -0.6116 -0.0400 -0.0148
  985MOL0     O32871  -1.622   1.210   4.684  0.3717  0.0962 -0.3895
  985MOL0     C32872  -1.742   1.172   4.742 -0.8168 -0.9482 -0.6867
  985MOL0     C32873  -1.852   1.266   4.770  1.1018  0.7862  0.7557
  985MOL0     C32874  -1.968   1.224   4.832 -0.2189 -0.2344 -0.5204
  985MOL0     C32875  -1.989   1.088   4.855  0.3145 -0.0433  0.7343
  985MOL0     O32876  -2.104   1.033   4.893  0.0946 -0.0207 -0.7965
  985MOL0     C32877  -2.180   1.091   5.003 -0.1744  0.0482  0.2108
  985MOL0     C32878  -2.291   0.984   5.031  0.1190 -0.0428 -0.0622
  985MOL0     C32879  -2.387   0.955   4.908  0.1438  0.6229 -0.2405
  985MOL0     C32880  -2.510   0.863   4.944  0.5476 -0.6789 -0.5766
  985MOL0     C32881  -2.587   0.798   4.842 -0.9540  0.8266  0.0440
  985MOL0     C32882  -2.679   0.691   4.903  0.1996 -0.2390  0.1008
  985MOL0     C32883  -2.792   0.650   4.809 -0.8720 -0.3838 -0.0641
  985MOL0     C32884  -2.908   0.582   4.881  0.3215  0.2583 -0.0555
  985MOL0    Cl32885  -2.963   0.677   5.033  0.2194  0.1573 -0.1064
  985MOL0     C32886  -1.888   1.001   4.826 -0.0132  0.2516 -0.7524
  985MOL0     C32887  -1.764   1.040   4.774  0.3022  0.2149  0.3610
  985MOL0     O32888  -1.663   1.422   4.621 -0.0617 -0.1681  0.7041
  985MOL0     C32889  -1.342   1.246   4.661  0.4639  0.5202  1.3856
  985MOL0     C32890  -1.200   1.260   4.650  0.2083  0.2890  0.5266
  985MOL0     N32891  -0.593   1.898   4.721 -0.3664  0.2513 -0.4613
  985MOL0     N32892  -0.527   2.007   4.724 -0.2457 -0.4368 -0.3173
  985MOL0     C32893   0.669   2.380   5.018 -0.0575 -0.0805 -1.0436
  985MOL0     C32894   0.801   2.353   5.074  0.6065 -0.2538  0.3838
  985MOL0     C32895   1.229   2.270   5.139  0.0012  0.0139 -0.2307
  985MOL0     C32896   1.282   2.171   5.052 -0.5650 -0.0989 -1.0535
  985MOL0     C32897   1.417   2.125   5.063 -0.4596  0.9462  0.9219
  985MOL0     C32898   1.492   2.169   5.169  0.7183 -0.1102  0.8799
  985MOL0     O32899   1.624   2.120   5.187 -0.3047  0.4696 -0.7026
  985MOL0     C32900   1.704   2.169   5.301  0.0832  1.4617 -0.1172
  985MOL0     C32901   1.673   2.092   5.434  0.4499 -0.4501  0.4813
  985MOL0     C32902   1.740   1.952   5.423  0.8669 -0.3315 -0.0805
  985MOL0     C32903   1.682   1.868   5.545  0.6444  0.3571  0.0867
  985MOL0     C32904   1.744   1.732   5.537  0.0658 -0.2631 -0.4330
  985MOL0     C32905   1.780   1.622   5.511  0.0929 -0.8605  0.6465
  985MOL0     C32906   1.443   2.264   5.255  0.2329  0.1152 -0.6838
  985MOL0     C32907   1.314   2.309   5.244 -0.5677  0.7190 -0.6090
  985MOL0     H32908   0.894   2.134   4.831 -1.3146 -1.2787  1.3364
  985MOL0     H32909   0.663   2.165   4.762  2.1775 -1.5718 -0.1382
  985MOL0     H32910   0.427   2.469   4.985 -0.8622  4.1995 -1.2012
  985MOL0     H32911   0.475   2.533   4.840 -0.6852 -0.3147  0.0552
  985MOL0     H32912   0.228   2.534   4.882 -2.1613 -0.1974 -0.8857
  985MOL0     H32913   0.275   2.499   4.719 -1.0844  3.1844  1.0725
  985MOL0     H32914   0.265   2.251   4.756  0.5946  0.1905 -0.2733
  985MOL0     H32915   0.191   2.294   4.920  0.7341  1.5796  1.0376
  985MOL0     H32916   0.009   2.403   4.774 -0.4303 -1.5815  1.6200
  985MOL0     H32917   0.096   2.359   4.635  1.6842 -2.3620 -1.5579
  985MOL0     H32918   0.072   2.115   4.723  1.0278  1.1529  1.6297
  985MOL0     H32919  -0.040   2.183   4.833  1.1910 -0.5435  1.0829
  985MOL0     H32920  -0.167   2.307   4.646  3.5097  1.7251 -1.6233
  985MOL0     H32921  -0.093   2.204   4.525 -4.2116 -4.7291 -1.4808
  985MOL0     H32922  -0.167   1.993   4.610 -3.5218 -0.8692 -1.1866
  985MOL0     H32923  -0.223   2.078   4.760  0.1180 -1.0434  0.2122
  985MOL0     H32924  -0.336   2.105   4.476 -1.2398  1.3333 -0.3229
  985MOL0     H32925  -0.384   2.198   4.612  1.6588  0.1770  1.4028
  985MOL0     H32926  -0.411   1.855   4.456 -0.5479 -0.5513 -0.2823
  985MOL0     H32927  -0.582   1.642   4.496 -0.0972 -0.0299  0.2865
  985MOL0     H32928  -0.539   1.627   4.667 -3.7256 -0.8981  2.0610
  985MOL0     H32929  -0.787   1.729   4.542  1.0194 -1.6867 -1.2250
  985MOL0     H32930  -0.770   1.704   4.727  1.0021 -0.4209  1.9074
  985MOL0     H32931  -0.786   1.474   4.706  0.2463 -0.8981 -0.9216
  985MOL0     H32932  -0.760   1.473   4.527 -1.1074 -2.1963 -0.1946
  985MOL0     H32933  -0.969   1.562   4.500  0.0825 -1.7249  0.0733
  985MOL0     H32934  -1.011   1.558   4.677 -2.9320 -3.3762  0.8780
  985MOL0     H32935  -1.184   1.575   4.537 -0.8041 -0.3413 -2.6298
  985MOL0     H32936  -1.395   1.613   4.406 -3.6970  0.1859 -2.6972
  985MOL0     H32937  -1.545   1.568   4.480  0.9686 -0.5750 -1.1882
  985MOL0     H32938  -1.438   1.681   4.562  1.2717  0.0017 -0.6511
  985MOL0     H32939  -1.840   1.372   4.752 -0.6385  0.6237 -1.8470
  985MOL0     H32940  -2.050   1.292   4.852  0.7298  0.8891 -0.3523
  985MOL0     H32941  -2.108   1.107   5.084 -0.0392 -0.3567  0.1738
  985MOL0     H32942  -2.217   1.189   4.971 -1.4019 -0.7556 -0.9742
  985MOL0     H32943  -2.243   0.902   5.085  0.9823  1.7352  2.0277
  985MOL0     H32944  -2.355   1.016   5.114 -0.5477 -2.0053  0.2387
  985MOL0     H32945  -2.331   0.903   4.829 -1.6288 -3.3270  0.8211
  985MOL0     H32946  -2.425   1.050   4.871 -0.7539  0.3111 -0.1542
  985MOL0     H32947  -2.479   0.779   5.007 -3.1197  0.3354  3.0694
  985MOL0     H32948  -2.569   0.919   5.018  1.2219 -0.8256  0.0874
  985MOL0     H32949  -2.530   0.749   4.763  0.8274  1.0022  1.1544
  985MOL0     H32950  -2.654   0.874   4.800 -0.3694  2.0009  1.1616
  985MOL0     H32951  -2.628   0.597   4.923 -0.2320 -0.6356 -0.6131
  985MOL0     H32952  -2.726   0.730   4.994  1.0042  1.9389 -0.3588
  985MOL0     H32953  -2.744   0.579   4.741 -1.4885 -0.3816 -0.5093
  985MOL0     H32954  -2.827   0.730   4.743 -0.8004 -0.1589  0.1717
  985MOL0     H32955  -2.877   0.481   4.908 -0.3689  0.1633  0.4095
  985MOL0     H32956  -2.988   0.575   4.808  1.0017 -0.0993 -0.7783
  985MOL0     H32957  -1.906   0.894   4.835 -1.8053  0.6174  0.8202
  985MOL0     H32958  -1.686   0.967   4.751  1.6546  2.0298 -1.1300
  985MOL0     H32959  -1.372   1.147   4.692  0.5003  0.3862  1.0019
  985MOL0     H32960  -1.137   1.176   4.679  0.2278  0.4234  0.8820
  985MOL0     H32961   0.606   2.452   5.070 -1.0102 -0.2390 -1.9564
  985MOL0     H32962   0.834   2.397   5.167 -0.5301 -0.0519  0.7150
  985MOL0     H32963   1.243   2.125   4.962  1.4860 -1.3198 -1.3728
  985MOL0     H32964   1.461   2.056   4.992 -0.8900  2.5467 -1.0272
  985MOL0     H32965   1.810   2.159   5.277 -0.3949 -0.0373 -1.8064
  985MOL0     H32966   1.698   2.278   5.307  3.9014  1.8733 -1.0806
  985MOL0     H32967   1.564   2.082   5.442  0.5948 -2.2880  0.6424
  985MOL0     H32968   1.710   2.143   5.524  1.5251 -1.2648  0.5281
  985MOL0     H32969   1.849   1.959   5.435  0.8289 -0.4893  0.3896
  985MOL0     H32970   1.710   1.897   5.334  1.9817 -1.0743 -0.0126
  985MOL0     H32971   1.576   1.850   5.525  1.3234 -1.9921 -2.0497
  985MOL0     H32972   1.724   1.922   5.630  2.4886  0.5219 -0.8771
  985MOL0     H32973   1.804   1.521   5.487 -2.0895 -1.8819  2.4187
  985MOL0     H32974   1.495   2.310   5.339  0.0053  0.9322 -0.9837
  985MOL0     H32975   1.284   2.383   5.317 -0.9423  0.7180 -0.7556
  986MOL0     O32976   4.508   6.617   6.114 -0.5511  0.3555  0.1021
  986MOL0     C32977   4.511   6.559   6.002 -1.7169  0.4040  0.2367
  986MOL0     O32978   4.414   6.556   5.909 -0.2739 -0.5175  0.8899
  986MOL0     C32979   4.289   6.606   5.942 -0.5723 -0.5886 -0.6803
  986MOL0     C32980   4.226   6.588   6.064  0.8213  0.2490 -0.1699
  986MOL0     C32981   4.093   6.623   6.095 -1.1830  1.4861  0.0429
  986MOL0     C32982   4.017   6.677   5.987  0.0987  0.7181 -0.4928
  986MOL0     O32983   3.891   6.721   6.001  0.2270 -0.8000 -0.2440
  986MOL0     C32984   3.831   6.701   6.131  0.0091 -0.5864 -0.5873
  986MOL0     C32985   3.680   6.703   6.113 -0.2884  0.2803 -0.4864
  986MOL0     C32986   3.624   6.851   6.095  0.4380  0.7201  0.3228
  986MOL0     C32987   3.466   6.839   6.056  0.4666  0.5517 -0.7118
  986MOL0     C32988   3.408   6.985   6.041 -0.2615 -0.6486 -0.0512
  986MOL0     C32989   3.263   6.982   6.021  0.1233  0.0172 -0.8281
  986MOL0     C32990   3.193   7.114   6.007  1.2369 -0.3074 -0.6766
  986MOL0     C32991   3.240   7.200   5.889 -0.5932 -0.3415  1.3324
  986MOL0     N32992   3.180   7.332   5.885 -0.3121 -0.6140  0.0486
  986MOL0     C32993   3.044   7.358   5.864  0.5928  0.6059  0.4577
  986MOL0     C32994   3.021   7.488   5.894 -0.6968  0.9805 -0.1192
  986MOL0     C32995   2.892   7.564   5.871  0.5767 -0.8141  0.6970
  986MOL0     C32996   2.796   7.559   5.995  0.6544  0.9510  0.0011
  986MOL0     C32997   2.726   7.424   6.014 -0.4800 -0.1881  0.1238
  986MOL0     C32998   2.618   7.402   5.909  0.0546  0.5735 -0.5071
  986MOL0     O32999   2.503   7.494   5.936 -0.0239  0.4266  0.8461
  986MOL0     C33000   2.408   7.503   5.840 -0.1162  0.0409  0.1898
  986MOL0     C33001   2.297   7.586   5.876  0.9406 -0.0155 -0.8075
  986MOL0     C33002   2.183   7.594   5.800  1.3792  1.1625  1.3165
  986MOL0     C33003   2.063   7.657   5.856 -0.5249 -0.4273 -0.2860
  986MOL0     C33004   2.188   7.536   5.675  0.8537 -0.0088 -0.3722
  986MOL0     C33005   2.075   7.546   5.577 -0.3794 -0.2932  0.5389
  986MOL0     O33006   2.013   7.669   5.547  0.0834  0.0626 -0.2669
  986MOL0     C33007   1.897   7.663   5.474 -0.6201 -0.2955 -1.0067
  986MOL0     C33008   1.892   7.759   5.365  0.7224 -0.1389  0.1726
  986MOL0     C33009   1.767   7.777   5.301  0.2776 -0.1447  0.2290
  986MOL0     C33010   1.661   7.693   5.322 -0.3084  0.2193 -0.2264
  986MOL0     O33011   1.553   7.710   5.231 -0.2460  0.7901 -0.6294
  986MOL0     C33012   1.446   7.609   5.234 -0.2511 -0.9522 -0.0076
  986MOL0     C33013   1.342   7.652   5.124 -0.2510 -0.3615  0.0950
  986MOL0     C33014   1.260   7.776   5.176 -0.1174  0.0101 -0.1967
  986MOL0     C33015   1.118   7.761   5.120  0.4976 -0.7081 -0.1387
  986MOL0     C33016   1.040   7.880   5.161  0.5146 -1.0868  0.3117
  986MOL0     C33017   0.889   7.858   5.158  0.3337 -0.1248  0.4984
  986MOL0     C33018   0.817   7.959   5.240 -0.1485 -0.5000  0.7459
  986MOL0     C33019   0.669   7.968   5.226  0.3113  0.8368 -0.9543
  986MOL0    Cl33020   0.611   8.002   5.071 -0.0666 -0.2470  0.6341
  986MOL0     C33021   1.666   7.600   5.419 -0.0047 -0.4961 -0.8638
  986MOL0     C33022   1.782   7.581   5.499 -0.0876 -0.0591  0.2773
  986MOL0     O33023   2.046   7.441   5.522 -0.1847  0.5320 -0.1254
  986MOL0     C33024   2.297   7.467   5.628 -0.1180 -0.0164 -0.6649
  986MOL0     C33025   2.413   7.453   5.710 -0.0026  0.1861  0.9755
  986MOL0     N33026   3.143   7.547   5.933  0.1181 -0.2847 -0.6454
  986MOL0     N33027   3.228   7.456   5.934  0.2896  0.3143  0.9253
  986MOL0     C33028   4.074   6.686   5.859 -0.5991  0.7466 -0.2529
  986MOL0     C33029   4.210   6.654   5.841 -0.3206  0.0566 -0.8244
  986MOL0     C33030   4.644   6.500   5.967  0.2902 -0.2741 -0.4782
  986MOL0     C33031   4.648   6.382   5.882  0.2695 -0.0026 -0.1773
  986MOL0     C33032   4.773   6.338   5.836 -0.1864  0.4214 -0.3133
  986MOL0     C33033   4.888   6.397   5.876  0.7576  0.3465  0.1423
  986MOL0     O33034   5.002   6.327   5.847  0.1934 -0.0624 -0.1854
  986MOL0     C33035   5.133   6.391   5.853 -0.3580  0.1931  0.0855
  986MOL0     C33036   5.229   6.289   5.815 -0.4682  0.3303  0.1954
  986MOL0     C33037   5.221   6.153   5.883  0.0348  0.4070  0.5890
  986MOL0     C33038   5.355   6.083   5.890 -0.2185 -0.3584 -0.2623
  986MOL0     C33039   5.445   6.134   5.998  0.0537  0.0963 -0.2001
  986MOL0     C33040   5.517   6.151   6.092 -0.9801  0.3145 -0.6638
  986MOL0     C33041   4.890   6.513   5.953 -0.1232  0.3403  0.3059
  986MOL0     C33042   4.766   6.568   5.997  0.1047  0.0629 -1.3650
  986MOL0     H33043   4.282   6.541   6.145 -0.3929 -1.8630 -0.4928
  986MOL0     H33044   4.076   6.600   6.199 -0.9256 -2.8294 -0.6650
  986MOL0     H33045   3.854   6.604   6.176  0.2182  0.3905  1.5141
  986MOL0     H33046   3.852   6.774   6.210 -1.3154 -1.4010  0.5645
  986MOL0     H33047   3.660   6.638   6.027 -0.7935 -1.7323  1.0778
  986MOL0     H33048   3.640   6.671   6.209  1.3520  3.8546  1.5872
  986MOL0     H33049   3.638   6.894   6.194  0.5083  1.4583  0.0046
  986MOL0     H33050   3.677   6.898   6.011 -1.2045  0.8644 -0.6786
  986MOL0     H33051   3.444   6.783   5.965 -3.1005  0.4851  0.0459
  986MOL0     H33052   3.409   6.787   6.134  0.4521 -1.1661 -1.8237
  986MOL0     H33053   3.442   7.028   6.136  1.1364  1.0310 -1.2452
  986MOL0     H33054   3.470   7.034   5.966  3.4480 -1.0556  2.4318
  986MOL0     H33055   3.241   6.922   5.933  3.0569 -0.4101 -1.3593
  986MOL0     H33056   3.229   6.924   6.107  0.5554 -0.5787 -1.0547
  986MOL0     H33057   3.085   7.105   5.990  0.8044  2.5449 -0.0310
  986MOL0     H33058   3.199   7.173   6.099  0.8463 -0.3308 -0.6333
  986MOL0     H33059   3.232   7.153   5.790 -0.0467  1.8746  0.1507
  986MOL0     H33060   3.349   7.213   5.897 -0.6446 -0.2567  1.9057
  986MOL0     H33061   2.972   7.289   5.820 -0.3066  2.0812 -0.4844
  986MOL0     H33062   2.912   7.670   5.855  0.9297 -0.6276  2.1967
  986MOL0     H33063   2.849   7.524   5.779 -0.2400 -1.1605  1.2071
  986MOL0     H33064   2.731   7.646   5.986  2.0373  2.4987  3.2129
  986MOL0     H33065   2.859   7.588   6.080  0.3745  0.5358  0.3587
  986MOL0     H33066   2.681   7.418   6.113 -1.1218  0.0384 -0.1496
  986MOL0     H33067   2.804   7.348   6.007  2.5578  2.8368 -3.6973
  986MOL0     H33068   2.582   7.299   5.901 -0.3881  0.7905 -1.4741
  986MOL0     H33069   2.663   7.431   5.813  3.0398 -1.3332  0.1826
  986MOL0     H33070   2.303   7.643   5.969 -1.6116  1.9575 -1.7365
  986MOL0     H33071   1.977   7.590   5.856  1.0170 -2.4920  0.2261
  986MOL0     H33072   2.093   7.667   5.961 -0.5077 -0.5515 -0.2794
  986MOL0     H33073   2.053   7.759   5.816  3.9701  0.4849  0.3271
  986MOL0     H33074   1.973   7.829   5.348 -1.2384  2.3890  0.6080
  986MOL0     H33075   1.760   7.839   5.212  0.8056 -0.5212 -0.0840
  986MOL0     H33076   1.481   7.507   5.216 -0.4659 -0.6314 -2.7487
  986MOL0     H33077   1.397   7.614   5.331 -0.7276 -0.2798 -0.2802
  986MOL0     H33078   1.399   7.676   5.034 -1.4464  2.3509 -0.0463
  986MOL0     H33079   1.268   7.576   5.096 -1.7913  1.1507 -0.1533
  986MOL0     H33080   1.295   7.871   5.136 -2.7433  0.2876 -2.0865
  986MOL0     H33081   1.255   7.783   5.285  1.8846 -0.3523 -0.0481
  986MOL0     H33082   1.122   7.760   5.011 -2.9712 -0.4849 -0.3747
  986MOL0     H33083   1.071   7.675   5.169 -0.8393  1.0771  1.9196
  986MOL0     H33084   1.068   7.963   5.096 -1.4468 -0.0681  0.6747
  986MOL0     H33085   1.059   7.912   5.263 -0.4735  0.9014 -0.0773
  986MOL0     H33086   0.850   7.876   5.057  0.5251 -0.2087  0.4074
  986MOL0     H33087   0.866   7.759   5.199  1.2846  0.2587  2.0341
  986MOL0     H33088   0.864   8.054   5.215  2.8646 -0.8896  4.0679
  986MOL0     H33089   0.840   7.927   5.342 -0.6948 -3.1380  0.1390
  986MOL0     H33090   0.632   8.046   5.294  0.8989  1.1756 -1.0202
  986MOL0     H33091   0.621   7.877   5.262  0.8693  1.3331  1.1494
  986MOL0     H33092   1.576   7.546   5.449 -0.8482  1.3708  0.1774
  986MOL0     H33093   1.790   7.515   5.585 -0.3828  1.0496  1.1825
  986MOL0     H33094   2.293   7.431   5.526  1.6641  0.0295 -0.7743
  986MOL0     H33095   2.492   7.391   5.669 -0.3465  0.4212 -0.0797
  986MOL0     H33096   4.028   6.742   5.778  0.2252  2.0512  0.1482
  986MOL0     H33097   4.264   6.673   5.748  0.1253  0.1809 -0.5464
  986MOL0     H33098   4.558   6.328   5.856 -1.0582  1.9400  0.2216
  986MOL0     H33099   4.786   6.252   5.771 -3.0228 -1.3303  1.2014
  986MOL0     H33100   5.150   6.467   5.776  1.2571 -0.8401 -0.6409
  986MOL0     H33101   5.154   6.441   5.948 -0.1585 -0.8075  0.5849
  986MOL0     H33102   5.332   6.319   5.832  1.0540 -2.9692 -2.1061
  986MOL0     H33103   5.216   6.281   5.707 -0.4797  2.4375  0.0002
  986MOL0     H33104   5.150   6.088   5.833 -0.0590  2.6503 -2.4509
  986MOL0     H33105   5.184   6.165   5.985  0.7700 -2.5205  1.2792
  986MOL0     H33106   5.407   6.079   5.794  1.2215  2.0213  0.3204
  986MOL0     H33107   5.344   5.978   5.920  1.1134 -0.6829 -0.8374
  986MOL0     H33108   5.561   6.167   6.189 -0.4766  6.2045 -1.4405
  986MOL0     H33109   4.985   6.561   5.971  0.8020  0.2766 -3.5788
  986MOL0     H33110   4.760   6.662   6.052 -1.6420 -0.7567 -0.0442
  987MOL0     O33111   8.640  10.671   0.150  1.1365  0.6085  0.6971
  987MOL0     C33112   8.579  10.773   0.165 -0.0779  0.3148 -0.3104
  987MOL0     O33113   8.445  10.783   0.173  0.0490 -0.8977  0.8516
  987MOL0     C33114   8.369  10.687   0.117  1.4059 -0.6513  0.5534
  987MOL0     C33115   8.394  10.614  -0.008  0.0207 -0.3858  0.2062
  987MOL0     C33116   8.300  10.528  -0.065 -0.6726  0.1040 -0.5491
  987MOL0     C33117   8.179  10.506   0.001 -0.3798  0.2617 -0.6558
  987MOL0     O33118   8.090  10.413  -0.048 -0.3875  0.3081  0.8286
  987MOL0     C33119   7.999  10.356   0.046 -0.6136  0.1862  0.1505
  987MOL0     C33120   7.918  10.263  -0.041 -0.2577 -0.5362  0.1629
  987MOL0     C33121   7.797  10.206   0.027  0.5530 -0.0045  0.5113
  987MOL0     C33122   7.722  10.110  -0.067  0.5295  0.1174 -0.6975
  987MOL0     C33123   7.610  10.040   0.004 -0.2952  0.3865 -0.0266
  987MOL0     C33124   7.536   9.939  -0.077 -0.1580 -0.5258  0.0157
  987MOL0     C33125   7.416   9.878  -0.003 -0.2750  0.6555  0.0101
  987MOL0     C33126   7.318   9.974   0.052  1.0295  0.9344 -0.6315
  987MOL0     N33127   7.195   9.897   0.099 -0.7701 -0.3917 -0.1455
  987MOL0     C33128   7.076   9.885   0.035 -0.0253 -0.6233  0.2413
  987MOL0     C33129   7.010   9.784   0.095  0.1686 -0.0603  0.0777
  987MOL0     C33130   6.874   9.728   0.072 -0.2716  0.1368  0.3040
  987MOL0     C33131   6.775   9.809   0.152  0.0601 -0.4416  0.1381
  987MOL0     C33132   6.653   9.717   0.166  0.2157 -0.5197  0.0080
  987MOL0     C33133   6.536   9.782   0.240 -0.2356  0.6374 -0.2225
  987MOL0     O33134   6.565   9.846   0.364 -0.0207  0.7146  0.2272
  987MOL0     C33135   6.454   9.889   0.434 -0.4919  0.8767 -1.0205
  987MOL0     C33136   6.333   9.925   0.378 -0.7649 -0.5067  0.7582
  987MOL0     C33137   6.227   9.972   0.451  0.7744  0.1391  0.0297
  987MOL0     C33138   6.104  10.021   0.374 -0.4431 -0.6667 -0.5120
  987MOL0     C33139   6.235   9.968   0.594 -0.1432  0.5010 -0.5386
  987MOL0     C33140   6.118  10.002   0.675  0.3411  0.7646 -0.1318
  987MOL0     O33141   6.146  10.075   0.788  0.1143  0.0949  0.0197
  987MOL0     C33142   6.032  10.137   0.843 -0.1034  0.0633 -0.1510
  987MOL0     C33143   5.995  10.118   0.977 -0.6058 -0.4217  0.3809
  987MOL0     C33144   5.877  10.172   1.034  0.1759 -0.8063  0.0105
  987MOL0     C33145   5.786  10.238   0.949 -0.5463 -0.0617 -0.8930
  987MOL0     O33146   5.677  10.285   1.010  0.6565 -0.0678 -0.1545
  987MOL0     C33147   5.591  10.354   0.919 -0.1626  0.1306 -1.0451
  987MOL0     C33148   5.478  10.406   1.010  0.7758  0.4157 -0.0969
  987MOL0     C33149   5.367  10.301   1.030 -0.1777  0.4208 -0.0544
  987MOL0     C33150   5.225  10.358   1.047  0.1426  0.9127 -0.8990
  987MOL0     C33151   5.118  10.257   1.088 -0.0024 -0.2100  0.1849
  987MOL0     C33152   4.982  10.329   1.132  1.0978 -0.3783  0.1324
  987MOL0     C33153   4.870  10.231   1.155  0.5303 -0.1028  0.5193
  987MOL0     C33154   4.738  10.298   1.134 -0.1035 -0.1154 -0.5460
  987MOL0    Cl33155   4.619  10.180   1.147  0.7215 -0.0173 -0.4495
  987MOL0     C33156   5.823  10.262   0.808 -0.1498  0.6002 -0.4769
  987MOL0     C33157   5.946  10.214   0.761  0.1080 -0.2848  0.7877
  987MOL0     O33158   6.009   9.948   0.644  0.3428  0.5661 -0.2999
  987MOL0     C33159   6.354   9.932   0.652 -0.4051  0.5743  0.1096
  987MOL0     C33160   6.457   9.887   0.573 -0.5745  0.3763 -0.5805
  987MOL0     N33161   7.090   9.740   0.198  0.3640  0.4484  0.3052
  987MOL0     N33162   7.201   9.804   0.196  0.2003 -0.1936 -0.1837
  987MOL0     C33163   8.163  10.580   0.116  0.2741  0.7285 -1.0237
  987MOL0     C33164   8.248  10.664   0.177  0.2545 -0.4450  0.1606
  987MOL0     C33165   8.660  10.900   0.204  0.1643 -0.1167  0.6016
  987MOL0     C33166   8.610  11.028   0.189 -0.1451 -0.3105  0.4235
  987MOL0     C33167   8.687  11.136   0.221 -0.8788 -1.1635 -0.0979
  987MOL0     C33168   8.821  11.117   0.263  0.3856 -0.3468 -0.3669
  987MOL0     O33169   8.889  11.233   0.286 -0.1365 -0.1446  0.5212
  987MOL0     C33170   9.025  11.236   0.334  0.0617 -0.3492 -0.1178
  987MOL0     C33171   9.132  11.196   0.228 -0.3167 -1.0823  0.3689
  987MOL0     C33172   9.263  11.234   0.295  0.4739 -0.8463  0.5274
  987MOL0     C33173   9.385  11.216   0.200  0.2006  0.9766 -0.0737
  987MOL0     C33174   9.498  11.289   0.256  0.7730 -0.3216  0.4322
  987MOL0     C33175   9.592  11.353   0.307  0.4585  0.3250 -0.3880
  987MOL0     C33176   8.875  10.990   0.277 -0.4759 -0.6758 -0.1894
  987MOL0     C33177   8.785  10.887   0.259 -0.2047  0.5332 -0.8158
  987MOL0     H33178   8.486  10.634  -0.061 -0.2862  1.3271  0.2404
  987MOL0     H33179   8.321  10.475  -0.157 -0.9701  1.3702 -1.3792
  987MOL0     H33180   8.057  10.314   0.128 -0.4699 -0.2917 -0.1947
  987MOL0     H33181   7.930  10.430   0.087 -2.2084  0.1294 -2.2339
  987MOL0     H33182   7.892  10.312  -0.135 -1.7238 -2.3656 -0.4398
  987MOL0     H33183   7.990  10.184  -0.063 -0.4372 -0.5451 -0.4066
  987MOL0     H33184   7.834  10.155   0.116  0.5030  1.0306  1.1432
  987MOL0     H33185   7.728  10.287   0.052  2.5031  1.9099 -0.0781
  987MOL0     H33186   7.692  10.172  -0.152  1.1828  1.3253 -0.0711
  987MOL0     H33187   7.795  10.042  -0.112  0.3432  0.4385 -1.5213
  987MOL0     H33188   7.654   9.988   0.089  0.1851  0.7150 -0.0745
  987MOL0     H33189   7.541  10.114   0.045 -0.1959  0.0660  0.7322
  987MOL0     H33190   7.516   9.997  -0.167  4.4764 -2.0045 -2.2819
  987MOL0     H33191   7.604   9.860  -0.110 -0.1793 -1.2097  1.5121
  987MOL0     H33192   7.362   9.815  -0.074 -1.4019  0.6390  0.8571
  987MOL0     H33193   7.452   9.822   0.084 -1.1677  1.2150  0.7557
  987MOL0     H33194   7.290  10.046  -0.025 -0.8792 -0.8074 -1.6757
  987MOL0     H33195   7.353  10.019   0.145 -2.4418  0.9393  0.8139
  987MOL0     H33196   7.054   9.953  -0.046  3.1500  1.5533  1.0263
  987MOL0     H33197   6.849   9.734  -0.034  1.4406 -1.5545 -0.2518
  987MOL0     H33198   6.880   9.625   0.110 -0.8773  0.0885  0.2680
  987MOL0     H33199   6.752   9.903   0.101  0.0148 -0.4523  0.1377
  987MOL0     H33200   6.826   9.817   0.248 -0.6766 -5.1960  1.2026
  987MOL0     H33201   6.682   9.621   0.210  0.4606 -1.7264 -2.6297
  987MOL0     H33202   6.607   9.698   0.069 -3.3997  1.0114  1.2364
  987MOL0     H33203   6.451   9.713   0.249 -0.7488  1.0273 -1.8070
  987MOL0     H33204   6.505   9.861   0.172 -1.5321 -1.2198 -1.9002
  987MOL0     H33205   6.338   9.926   0.269  3.3918 -2.5256  0.7387
  987MOL0     H33206   6.037   9.935   0.366  0.4820 -1.4537 -0.0669
  987MOL0     H33207   6.064  10.107   0.428  4.6927  1.5783  0.3588
  987MOL0     H33208   6.129  10.056   0.273 -0.5420  2.6356  0.4871
  987MOL0     H33209   6.062  10.057   1.037  0.0204  1.0582  1.2423
  987MOL0     H33210   5.849  10.153   1.137 -0.8102 -0.0227 -0.1015
  987MOL0     H33211   5.636  10.448   0.885  0.3564  0.5517  0.6856
  987MOL0     H33212   5.546  10.294   0.840  1.9837 -1.0310 -1.4433
  987MOL0     H33213   5.507  10.454   1.103  0.1063  0.8977 -0.1332
  987MOL0     H33214   5.426  10.489   0.963 -2.0226 -0.6162  0.9757
  987MOL0     H33215   5.393  10.251   1.124  0.9406  1.2547  0.0933
  987MOL0     H33216   5.371  10.222   0.954  3.0984 -1.5882  1.9536
  987MOL0     H33217   5.203  10.435   1.122 -1.9754 -0.4819 -0.0102
  987MOL0     H33218   5.203  10.415   0.956  0.8751  2.5809 -0.0906
  987MOL0     H33219   5.157  10.210   1.179 -0.4878 -1.8357 -0.4060
  987MOL0     H33220   5.103  10.170   1.023 -0.3079  1.6268 -2.3140
  987MOL0     H33221   5.008  10.395   1.216 -4.1485  0.3139  1.5950
  987MOL0     H33222   4.959  10.401   1.053 -5.0469 -0.6789  1.1463
  987MOL0     H33223   4.870  10.194   1.258 -0.4034  0.3109  0.6725
  987MOL0     H33224   4.873  10.148   1.082 -0.1092 -1.6312  2.1547
  987MOL0     H33225   4.737  10.339   1.033  1.2789  2.1912  0.3180
  987MOL0     H33226   4.712  10.380   1.200 -0.5684 -0.0151 -0.8476
  987MOL0     H33227   5.777  10.336   0.744  2.0136  1.1572 -1.5043
  987MOL0     H33228   5.978  10.244   0.662  0.1787 -1.4448  0.4375
  987MOL0     H33229   6.376   9.935   0.758 -2.0419 -0.6086  0.5228
  987MOL0     H33230   6.553   9.847   0.606  0.1529  2.4951 -0.0074
  987MOL0     H33231   8.070  10.585   0.171  0.3676  1.1893 -0.9017
  987MOL0     H33232   8.215  10.716   0.266  1.3745 -0.1213  0.4013
  987MOL0     H33233   8.516  11.044   0.137 -1.7563 -0.1953  3.1793
  987MOL0     H33234   8.659  11.239   0.200  0.2229 -0.7938  0.1783
  987MOL0     H33235   9.042  11.334   0.379 -1.0115  0.7436 -1.9503
  987MOL0     H33236   9.033  11.167   0.418  0.3370  1.4199  1.3518
  987MOL0     H33237   9.116  11.249   0.133 -0.3388 -0.6517  0.6078
  987MOL0     H33238   9.125  11.089   0.206  1.0093 -0.5013 -3.7029
  987MOL0     H33239   9.273  11.179   0.389 -1.8051  1.7219  2.4464
  987MOL0     H33240   9.267  11.340   0.324 -0.6952 -0.8960  0.9314
  987MOL0     H33241   9.364  11.257   0.101  1.1742 -1.1011 -1.1756
  987MOL0     H33242   9.409  11.110   0.189 -1.5142  0.7324 -2.1401
  987MOL0     H33243   9.678  11.402   0.350  1.8458 -2.6308  0.4759
  987MOL0     H33244   8.977  10.977   0.311 -0.1091  1.8311 -0.0759
  987MOL0     H33245   8.827  10.791   0.288  0.3172  1.3718  1.3815
  988MOL0     O33246  10.395   3.820   5.139  0.1379  0.1520 -0.0078
  988MOL0     C33247  10.440   3.819   5.025  0.3802  0.2569 -0.4379
  988MOL0     O33248  10.365   3.797   4.913  0.1815 -0.2612 -0.2786
  988MOL0     C33249  10.231   3.748   4.910  0.2071 -0.3688  0.9766
  988MOL0     C33250  10.152   3.710   5.018 -0.4834  1.1148  1.0421
  988MOL0     C33251  10.028   3.664   4.993  0.2339 -0.1834  0.2354
  988MOL0     C33252   9.958   3.676   4.875 -0.4755  0.1222  0.2830
  988MOL0     O33253   9.825   3.652   4.859 -0.5698  0.5259 -0.5744
  988MOL0     C33254   9.751   3.615   4.973  0.0800 -1.0812  0.3942
  988MOL0     C33255   9.598   3.634   4.947  0.3474 -0.1225  0.4225
  988MOL0     C33256   9.551   3.561   4.812 -0.2259  0.5961 -0.0609
  988MOL0     C33257   9.402   3.613   4.784  0.1617  0.2135  0.5265
  988MOL0     C33258   9.354   3.584   4.635 -0.0993 -0.0226  0.2277
  988MOL0     C33259   9.226   3.657   4.589  0.1566 -0.7622  0.1144
  988MOL0     C33260   9.236   3.803   4.544 -1.0204 -0.1069  0.1881
  988MOL0     C33261   9.253   3.826   4.388  0.2606  0.5863 -0.6126
  988MOL0     N33262   9.377   3.775   4.330 -0.8684  0.1558 -0.5137
  988MOL0     C33263   9.402   3.641   4.290  0.6232  0.5470  0.0413
  988MOL0     C33264   9.519   3.643   4.224 -0.4649 -0.5165  0.2679
  988MOL0     C33265   9.573   3.519   4.163 -0.6680 -0.5852  0.3229
  988MOL0     C33266   9.728   3.544   4.139 -0.0008 -0.1190 -0.4160
  988MOL0     C33267   9.816   3.567   4.266  0.3019 -0.8256  0.7627
  988MOL0     C33268   9.803   3.442   4.361 -0.3281  0.1833 -0.5735
  988MOL0     O33269   9.915   3.436   4.452  0.2779 -0.5774  0.2009
  988MOL0     C33270   9.895   3.366   4.571 -0.3246  0.6360  0.1247
  988MOL0     C33271   9.788   3.282   4.610 -0.0372 -0.2543  0.1709
  988MOL0     C33272   9.773   3.218   4.733  0.0233 -0.1804 -0.2662
  988MOL0     C33273   9.640   3.135   4.747  0.4117 -0.3414 -0.8410
  988MOL0     C33274   9.880   3.242   4.832  0.5665  0.7201  0.0846
  988MOL0     C33275   9.869   3.198   4.969  0.0449 -0.1031 -0.1840
  988MOL0     O33276   9.987   3.178   5.037 -0.6167  0.4919  0.2622
  988MOL0     C33277   9.977   3.157   5.173 -0.0382  0.0230  0.4490
  988MOL0     C33278  10.064   3.063   5.222  0.2172 -0.3504 -0.3613
  988MOL0     C33279  10.068   3.037   5.354  0.0369 -0.0959  0.3779
  988MOL0     C33280  10.006   3.115   5.446  0.6671 -0.3554  0.4306
  988MOL0     O33281  10.015   3.105   5.581  0.3522 -0.1326 -0.1690
  988MOL0     C33282  10.114   3.022   5.637  0.3403 -0.4252  0.0217
  988MOL0     C33283  10.069   2.876   5.645  0.0894  0.6454 -0.1376
  988MOL0     C33284   9.945   2.856   5.733 -0.3025 -0.7468 -0.0733
  988MOL0     C33285   9.961   2.735   5.832  0.0849  0.5470 -0.2015
  988MOL0     C33286   9.966   2.605   5.743  0.0694 -0.3996 -0.2952
  988MOL0     C33287   9.963   2.479   5.835  0.7249  0.9527  0.2089
  988MOL0     C33288  10.099   2.452   5.904 -0.1014 -0.1020  0.2352
  988MOL0     C33289  10.181   2.343   5.830 -0.0871 -0.0278 -0.3732
  988MOL0    Cl33290  10.238   2.393   5.672 -0.0753 -0.0467  0.2015
  988MOL0     C33291   9.909   3.211   5.400  0.1717  0.1214 -0.4637
  988MOL0     C33292   9.900   3.226   5.259 -0.0944 -0.3100  0.8543
  988MOL0     O33293   9.755   3.180   5.021 -0.0830 -0.2417  0.0129
  988MOL0     C33294   9.989   3.317   4.795 -0.4514  0.2784  0.0165
  988MOL0     C33295   9.992   3.383   4.672 -0.2311  0.3663 -1.1099
  988MOL0     N33296   9.548   3.777   4.202  0.5717 -0.5746 -0.2347
  988MOL0     N33297   9.467   3.850   4.270 -0.2547 -0.6448 -0.4993
  988MOL0     C33298  10.033   3.720   4.763 -0.5203  0.2888 -0.2382
  988MOL0     C33299  10.169   3.748   4.785 -0.0224  0.0653 -1.2621
  988MOL0     C33300  10.586   3.856   5.012 -0.0139 -1.0955 -0.2721
  988MOL0     C33301  10.652   3.884   4.882 -0.3637  0.0677 -0.5380
  988MOL0     C33302  10.780   3.932   4.879  0.3335 -0.0196  0.5693
  988MOL0     C33303  10.859   3.927   4.991  0.6086  0.5750  0.4626
  988MOL0     O33304  10.990   3.964   4.976 -0.2005  0.1291 -0.0162
  988MOL0     C33305  11.098   3.915   5.061  0.4053 -0.4355  0.1479
  988MOL0     C33306  11.235   3.941   4.994  0.3401  0.4866  0.4289
  988MOL0     C33307  11.263   4.095   4.964 -0.0833  0.2801 -0.2042
  988MOL0     C33308  11.402   4.104   4.905  0.4336  0.2089  0.6711
  988MOL0     C33309  11.511   4.090   4.999 -0.5905 -0.0875 -0.2801
  988MOL0     C33310  11.602   4.086   5.078  0.0904  0.6049  0.2444
  988MOL0     C33311  10.804   3.897   5.113 -0.3814 -0.7573 -0.0019
  988MOL0     C33312  10.666   3.876   5.127  0.1577  0.7966  0.0761
  988MOL0     H33313  10.179   3.721   5.123  2.4639  1.6936  0.3188
  988MOL0     H33314   9.975   3.636   5.083  1.2093 -3.6936 -0.1526
  988MOL0     H33315   9.773   3.516   5.015 -1.0478 -0.6632  2.0684
  988MOL0     H33316   9.764   3.690   5.052 -1.2899  1.0893 -1.3304
  988MOL0     H33317   9.544   3.604   5.037 -2.5367  3.5647  0.2002
  988MOL0     H33318   9.586   3.742   4.932  1.5616 -0.1009 -0.5164
  988MOL0     H33319   9.601   3.583   4.717 -2.1608 -0.5334 -1.4303
  988MOL0     H33320   9.549   3.453   4.833  0.3856  0.4874 -0.5547
  988MOL0     H33321   9.335   3.560   4.853 -1.2076  3.8926  2.3255
  988MOL0     H33322   9.397   3.722   4.794 -0.2604  0.2186  0.2813
  988MOL0     H33323   9.437   3.606   4.569  0.8259 -1.0393  1.0145
  988MOL0     H33324   9.328   3.480   4.617  0.4811 -0.4415  1.6435
  988MOL0     H33325   9.174   3.603   4.509 -0.1057  0.9813 -0.9362
  988MOL0     H33326   9.151   3.658   4.668 -1.1664  2.5773 -1.0383
  988MOL0     H33327   9.141   3.853   4.564  0.4598  2.3769  1.5945
  988MOL0     H33328   9.322   3.842   4.601 -0.1573 -1.6107 -0.0239
  988MOL0     H33329   9.239   3.929   4.356  1.0231  0.9544  0.1922
  988MOL0     H33330   9.172   3.765   4.347  1.1904 -1.0610 -0.1204
  988MOL0     H33331   9.335   3.557   4.306  0.2787  0.5684 -1.2079
  988MOL0     H33332   9.559   3.427   4.220  0.1509  0.3290  2.0515
  988MOL0     H33333   9.520   3.497   4.069 -1.4694 -0.8107  0.8230
  988MOL0     H33334   9.746   3.641   4.091  1.2411  0.5112  1.2090
  988MOL0     H33335   9.760   3.454   4.087  1.9370 -0.9972  2.0576
  988MOL0     H33336   9.773   3.654   4.316  1.7712  0.5206 -0.2098
  988MOL0     H33337   9.923   3.585   4.250  0.1412 -1.3760 -1.0757
  988MOL0     H33338   9.819   3.354   4.298  1.1998  0.3162 -0.4149
  988MOL0     H33339   9.710   3.438   4.418  1.1726 -1.5002  1.9573
  988MOL0     H33340   9.708   3.268   4.538 -1.5825  3.2120  1.0230
  988MOL0     H33341   9.601   3.101   4.651  0.1734 -2.6422 -0.0052
  988MOL0     H33342   9.640   3.048   4.813  0.6451 -0.9859 -1.6740
  988MOL0     H33343   9.569   3.204   4.795  0.9766 -0.2899 -0.0462
  988MOL0     H33344  10.139   3.018   5.158 -0.2810 -3.2461  0.9027
  988MOL0     H33345  10.133   2.954   5.382 -0.1714 -1.0140 -1.6313
  988MOL0     H33346  10.209   3.028   5.584  1.1099 -1.0219  1.2785
  988MOL0     H33347  10.124   3.062   5.739  1.4210  3.8775 -1.5364
  988MOL0     H33348  10.045   2.846   5.543  1.6390 -1.6998  0.0952
  988MOL0     H33349  10.155   2.817   5.679 -0.7993 -0.0953  0.8931
  988MOL0     H33350   9.855   2.843   5.672 -0.4733  1.3489 -0.3601
  988MOL0     H33351   9.937   2.946   5.794 -3.9965 -1.5924  0.9404
  988MOL0     H33352  10.059   2.731   5.880  0.1088 -2.2752 -0.3039
  988MOL0     H33353   9.881   2.729   5.906  2.9420  1.0934  3.2019
  988MOL0     H33354  10.053   2.615   5.678  1.0301  1.5833  1.1882
  988MOL0     H33355   9.875   2.593   5.684 -0.3879  0.7642  0.1269
  988MOL0     H33356   9.883   2.484   5.909  1.6835  0.5020  1.2966
  988MOL0     H33357   9.929   2.391   5.780 -0.4235  2.4020 -1.5255
  988MOL0     H33358  10.081   2.420   6.007  0.3780 -0.8953  0.0856
  988MOL0     H33359  10.161   2.541   5.912  0.9276 -0.8293  0.5734
  988MOL0     H33360  10.123   2.251   5.817  1.5789 -1.0968 -0.6230
  988MOL0     H33361  10.268   2.324   5.893  0.3357 -3.0291 -1.6553
  988MOL0     H33362   9.853   3.271   5.470  3.2696 -0.5645  2.9015
  988MOL0     H33363   9.843   3.307   5.215  2.0173  0.1331 -1.3073
  988MOL0     H33364  10.063   3.348   4.868 -0.9043  1.1389  0.1265
  988MOL0     H33365  10.081   3.438   4.645  0.9637 -1.2932 -0.6964
  988MOL0     H33366   9.982   3.744   4.670 -0.1590  0.8784 -0.2878
  988MOL0     H33367  10.229   3.784   4.702  2.7540 -1.5868 -0.1275
  988MOL0     H33368  10.596   3.869   4.790  0.7192 -0.6062 -1.1124
  988MOL0     H33369  10.819   3.953   4.780 -0.8141 -2.2236 -0.4278
  988MOL0     H33370  11.101   3.985   5.145  1.2171 -2.7053  2.1085
  988MOL0     H33371  11.071   3.815   5.097 -1.1276 -0.1723 -0.1885
  988MOL0     H33372  11.244   3.886   4.900 -0.4069 -0.4443  0.8925
  988MOL0     H33373  11.314   3.925   5.068  1.0192  2.5287  0.2311
  988MOL0     H33374  11.247   4.162   5.048  2.0784 -0.5768  0.9669
  988MOL0     H33375  11.207   4.123   4.874 -0.0393 -1.2778 -0.7495
  988MOL0     H33376  11.416   4.207   4.871 -1.0114 -0.2997 -1.7400
  988MOL0     H33377  11.422   4.042   4.817  0.6683  2.9900 -1.3599
  988MOL0     H33378  11.691   4.068   5.135  2.0618  1.8512 -2.2008
  988MOL0     H33379  10.875   3.898   5.194 -2.7418  0.3006  2.1850
  988MOL0     H33380  10.621   3.871   5.225  0.4566  2.2316  0.3079
  989MOL0     O33381   9.881   6.795  10.044  0.7584  0.7509 -0.3111
  989MOL0     C33382   9.958   6.868   9.984  0.1775 -0.3633  0.0249
  989MOL0     O33383   9.938   6.905   9.855 -0.0803  0.3482  0.1175
  989MOL0     C33384   9.833   6.872   9.769 -0.6376 -0.0825 -0.0167
  989MOL0     C33385   9.755   6.754   9.777 -0.5374  0.4046 -0.2805
  989MOL0     C33386   9.667   6.718   9.669  0.0677 -0.8004  0.1093
  989MOL0     C33387   9.633   6.812   9.566  0.4440 -0.7433 -1.0265
  989MOL0     O33388   9.534   6.777   9.466  0.6692  0.4399  0.6683
  989MOL0     C33389   9.501   6.860   9.357 -0.1917  0.1409 -0.3403
  989MOL0     C33390   9.373   6.806   9.290 -0.1387  0.1579  0.0173
  989MOL0     C33391   9.251   6.866   9.353  0.6210 -0.3204 -0.1889
  989MOL0     C33392   9.124   6.826   9.281  0.2317 -0.4078  0.2967
  989MOL0     C33393   9.007   6.843   9.372 -0.1556  0.0047 -0.2739
  989MOL0     C33394   8.880   6.810   9.294 -0.2616 -0.7615 -0.7107
  989MOL0     C33395   8.751   6.876   9.357 -0.0689  0.2098  0.5826
  989MOL0     C33396   8.620   6.864   9.273 -0.7755 -0.4666  0.1102
  989MOL0     N33397   8.529   6.974   9.292 -0.0415  0.0208  0.1106
  989MOL0     C33398   8.425   6.997   9.209  0.0854  0.0745  0.2081
  989MOL0     C33399   8.372   7.108   9.266  0.3531  0.2885 -1.1852
  989MOL0     C33400   8.249   7.176   9.238  0.6801  0.4673  0.3539
  989MOL0     C33401   8.138   7.104   9.167  0.8078 -0.8543 -1.1980
  989MOL0     C33402   8.015   7.192   9.156 -0.7976 -0.1048 -0.2983
  989MOL0     C33403   7.911   7.100   9.083  0.2138  0.1027 -0.4706
  989MOL0     O33404   7.799   7.180   9.056 -0.1313 -0.4004 -0.2296
  989MOL0     C33405   7.686   7.122   9.005 -0.3955  0.7695 -0.2062
  989MOL0     C33406   7.675   6.988   8.963 -0.6650 -0.2168  0.1987
  989MOL0     C33407   7.560   6.940   8.903  0.4664 -0.5431  0.3016
  989MOL0     C33408   7.569   6.806   8.833 -0.1013  0.1790  0.2996
  989MOL0     C33409   7.437   7.022   8.903 -0.3177  0.5052  0.5715
  989MOL0     C33410   7.306   6.985   8.849 -1.0246 -0.0428  0.2168
  989MOL0     O33411   7.221   7.092   8.823 -0.4665  0.1294  0.1936
  989MOL0     C33412   7.091   7.072   8.784 -0.8404 -0.8404  0.1471
  989MOL0     C33413   7.051   7.168   8.690  0.5745 -0.1951  0.4768
  989MOL0     C33414   6.917   7.178   8.667 -0.3076 -0.6822 -1.0940
  989MOL0     C33415   6.820   7.107   8.735 -0.1762  0.5802  0.0055
  989MOL0     O33416   6.680   7.116   8.726  0.0367  0.3832 -0.3673
  989MOL0     C33417   6.620   7.238   8.672  0.2661  0.1562 -0.4539
  989MOL0     C33418   6.552   7.298   8.797  0.2426  0.9877 -0.3395
  989MOL0     C33419   6.427   7.212   8.837  0.5941  0.2313  0.7274
  989MOL0     C33420   6.315   7.193   8.741  0.2623  0.2118  0.4318
  989MOL0     C33421   6.192   7.118   8.797 -0.6588 -0.7063  0.6618
  989MOL0     C33422   6.062   7.203   8.824 -0.1475  0.0757 -0.3444
  989MOL0     C33423   5.962   7.132   8.918  0.9026 -0.3181  0.2824
  989MOL0     C33424   5.832   7.222   8.940 -0.7729  0.2675  0.2533
  989MOL0    Cl33425   5.882   7.365   9.025  0.1510 -0.2566 -0.2706
  989MOL0     C33426   6.862   7.017   8.837 -0.0591 -0.8427  0.1204
  989MOL0     C33427   7.000   7.002   8.859  0.6700 -0.0076  0.5971
  989MOL0     O33428   7.273   6.870   8.841 -0.0274  0.1869  0.0458
  989MOL0     C33429   7.451   7.156   8.950  0.3977  0.2792 -1.1730
  989MOL0     C33430   7.578   7.209   8.993  0.1830 -0.4151 -0.0592
  989MOL0     N33431   8.453   7.140   9.377  0.5735  0.4163 -0.1266
  989MOL0     N33432   8.552   7.062   9.386  0.3143 -0.3595 -0.1284
  989MOL0     C33433   9.703   6.933   9.565  0.6414 -0.1574 -0.4710
  989MOL0     C33434   9.803   6.959   9.664 -1.0743  0.6499 -0.4079
  989MOL0     C33435  10.069   6.941  10.048 -0.6136 -0.2940  0.0844
  989MOL0     C33436  10.162   7.016   9.969  0.2475 -0.0799 -0.2278
  989MOL0     C33437  10.273   7.075  10.022  0.0226 -0.1153 -0.6640
  989MOL0     C33438  10.298   7.067  10.160 -0.3829  0.7854 -0.5059
  989MOL0     O33439  10.406   7.135  10.213 -0.3136 -0.4344  0.5782
  989MOL0     C33440  10.436   7.124  10.350  0.0907 -0.2636  0.2231
  989MOL0     C33441  10.567   7.197  10.376  0.4045  0.2490 -0.4365
  989MOL0     C33442  10.683   7.127  10.304  0.0175  0.0715 -0.1241
  989MOL0     C33443  10.812   7.207  10.307 -0.6761  0.7811  0.7226
  989MOL0     C33444  10.922   7.115  10.269 -0.3951  0.8073  0.1549
  989MOL0     C33445  11.018   7.040  10.251  0.0447  0.3344  1.0264
  989MOL0     C33446  10.201   7.000  10.240  0.0766 -0.7860  0.2612
  989MOL0     C33447  10.087   6.932  10.187 -0.6570 -0.3476  0.1488
  989MOL0     H33448   9.782   6.689   9.860 -2.2269 -0.9972 -0.7692
  989MOL0     H33449   9.619   6.620   9.674  1.1526 -1.3018  1.4731
  989MOL0     H33450   9.486   6.966   9.377 -0.4746  1.0894 -4.6046
  989MOL0     H33451   9.585   6.862   9.287 -1.1150 -1.1683 -1.5372
  989MOL0     H33452   9.374   6.840   9.186 -0.1329 -2.8395 -1.0700
  989MOL0     H33453   9.372   6.698   9.309  2.7197  0.6053  3.7742
  989MOL0     H33454   9.249   6.839   9.459  1.9740  0.1042 -0.0365
  989MOL0     H33455   9.251   6.975   9.345 -0.8617 -0.2201  0.8393
  989MOL0     H33456   9.125   6.884   9.189  4.3265 -0.1509  0.3540
  989MOL0     H33457   9.130   6.724   9.242 -1.1192  0.4395 -2.3806
  989MOL0     H33458   9.005   6.779   9.461 -2.2869  1.6911  1.0168
  989MOL0     H33459   8.998   6.945   9.412 -2.4038 -0.2316 -0.0545
  989MOL0     H33460   8.891   6.864   9.199  1.1188  3.2962  1.4945
  989MOL0     H33461   8.859   6.705   9.271 -5.0148 -1.0454  3.4496
  989MOL0     H33462   8.727   6.840   9.458  1.3429 -0.6369  0.6483
  989MOL0     H33463   8.771   6.982   9.369 -0.1676 -0.0437  3.9269
  989MOL0     H33464   8.578   6.765   9.295 -1.7025  0.0428  0.7609
  989MOL0     H33465   8.648   6.871   9.168 -1.2517  2.3832  0.1054
  989MOL0     H33466   8.396   6.943   9.119 -2.0391  3.5344 -1.4169
  989MOL0     H33467   8.220   7.207   9.339  5.8711 -2.2526  3.0683
  989MOL0     H33468   8.274   7.258   9.171 -1.1220  1.0150  0.2830
  989MOL0     H33469   8.116   7.011   9.220  2.6531  0.0552  1.3713
  989MOL0     H33470   8.179   7.081   9.068  3.0039  0.2756 -0.6165
  989MOL0     H33471   8.021   7.273   9.083  3.3316 -0.9636 -1.1476
  989MOL0     H33472   7.994   7.218   9.261  0.0127 -4.8689  1.2856
  989MOL0     H33473   7.877   7.013   9.140 -1.7685  0.8728 -0.3966
  989MOL0     H33474   7.953   7.066   8.988  1.3123 -3.1242  1.0403
  989MOL0     H33475   7.756   6.918   8.982 -1.8783 -1.6822  0.1775
  989MOL0     H33476   7.506   6.731   8.883  0.7930  0.7176  2.3361
  989MOL0     H33477   7.534   6.828   8.732  0.9360  2.8198  0.4541
  989MOL0     H33478   7.673   6.776   8.819 -0.2420  0.3932 -1.4263
  989MOL0     H33479   7.121   7.224   8.630 -1.1930  0.8846 -0.6520
  989MOL0     H33480   6.889   7.255   8.596 -1.1864  3.3063  3.0706
  989MOL0     H33481   6.698   7.311   8.651  1.5093 -1.2544 -0.9398
  989MOL0     H33482   6.560   7.218   8.583  0.3446  1.3795 -0.8003
  989MOL0     H33483   6.622   7.303   8.881 -0.0343  1.7577 -0.1420
  989MOL0     H33484   6.517   7.401   8.782 -4.7902 -0.3371  0.2609
  989MOL0     H33485   6.390   7.259   8.929 -1.2464  0.7862 -0.2317
  989MOL0     H33486   6.476   7.116   8.858  3.2018  1.2796 -0.2334
  989MOL0     H33487   6.282   7.293   8.710  2.0132  1.1066  1.3256
  989MOL0     H33488   6.348   7.132   8.656  0.7511  0.1763  0.6445
  989MOL0     H33489   6.219   7.079   8.896  0.3724 -1.6775  0.0145
  989MOL0     H33490   6.166   7.034   8.733  2.4520 -1.9461  0.8101
  989MOL0     H33491   6.089   7.295   8.878 -0.2544  1.3593 -2.3507
  989MOL0     H33492   6.007   7.220   8.731  0.4031  2.0918 -0.3559
  989MOL0     H33493   6.008   7.094   9.009 -0.9081  0.2703  1.4945
  989MOL0     H33494   5.927   7.038   8.875 -2.5887 -0.1065  2.2967
  989MOL0     H33495   5.755   7.169   8.997 -0.2316 -1.6923 -0.7508
  989MOL0     H33496   5.794   7.237   8.838  0.3374 -2.1735 -0.5857
  989MOL0     H33497   6.789   6.967   8.898 -1.5083 -0.3473 -1.1333
  989MOL0     H33498   7.036   6.940   8.941  1.0066 -0.7259 -0.0762
  989MOL0     H33499   7.365   7.222   8.958 -0.0226 -0.4724  1.7376
  989MOL0     H33500   7.594   7.311   9.027  3.5718 -0.7257 -0.4035
  989MOL0     H33501   9.678   7.015   9.498  0.3849 -0.5898 -0.9058
  989MOL0     H33502   9.869   7.045   9.655 -0.7459  0.2626 -1.8311
  989MOL0     H33503  10.158   7.025   9.861  1.9065 -0.8418 -0.3721
  989MOL0     H33504  10.343   7.124   9.955 -2.4297  2.2268 -1.6599
  989MOL0     H33505  10.361   7.175  10.412 -1.2138  0.5641 -1.9284
  989MOL0     H33506  10.447   7.020  10.382 -2.3197 -1.3354 -2.0785
  989MOL0     H33507  10.581   7.203  10.484  1.0054  1.6412 -0.5772
  989MOL0     H33508  10.566   7.296  10.330  1.5075  0.4292 -0.0949
  989MOL0     H33509  10.651   7.096  10.204  0.8172  0.1327 -0.4066
  989MOL0     H33510  10.704   7.035  10.359 -0.8972 -0.7757 -1.1250
  989MOL0     H33511  10.839   7.251  10.403 -0.2478  0.6937  0.6459
  989MOL0     H33512  10.804   7.284  10.230 -0.0521 -1.6216 -1.9426
  989MOL0     H33513  11.099   6.971  10.246  0.5022  0.9376 -0.2987
  989MOL0     H33514  10.224   6.992  10.345  4.4163 -1.2357 -0.5432
  989MOL0     H33515  10.040   6.858  10.251  0.6299 -0.3434  1.1375
  990MOL0     O33516   8.994   2.421   0.280 -0.2458 -0.2484  0.0708
  990MOL0     C33517   9.025   2.505   0.366 -0.1512 -0.0399  0.5949
  990MOL0     O33518   8.950   2.542   0.478  0.6494  0.5109 -0.0633
  990MOL0     C33519   8.820   2.510   0.495 -0.0607  0.4587 -0.5171
  990MOL0     C33520   8.742   2.621   0.528  0.1867  0.0803 -0.5654
  990MOL0     C33521   8.609   2.604   0.556  0.3443  0.7274 -0.0561
  990MOL0     C33522   8.548   2.474   0.556 -0.4064 -0.6128  0.0087
  990MOL0     O33523   8.411   2.468   0.596 -0.9112 -0.0955 -0.0098
  990MOL0     C33524   8.324   2.365   0.546 -0.4981  0.2202  0.8349
  990MOL0     C33525   8.271   2.289   0.673 -0.3573 -0.5732  0.4635
  990MOL0     C33526   8.132   2.338   0.720 -0.0854 -1.1652  0.5468
  990MOL0     C33527   8.109   2.494   0.717  0.7136  0.1070 -0.4275
  990MOL0     C33528   8.006   2.528   0.822  0.2371 -0.4218 -0.1176
  990MOL0     C33529   7.868   2.453   0.811  0.1551  0.5226 -0.0437
  990MOL0     C33530   7.775   2.486   0.688  0.0454  1.1254 -1.0739
  990MOL0     C33531   7.731   2.633   0.684 -1.0630  0.1543  0.7682
  990MOL0     N33532   7.633   2.679   0.786 -0.2884  0.5568 -0.5701
  990MOL0     C33533   7.501   2.649   0.807 -0.6629  1.0527 -0.3693
  990MOL0     C33534   7.445   2.743   0.880  0.2847 -0.2146 -1.3153
  990MOL0     C33535   7.306   2.739   0.928  0.8050 -0.3227  0.5613
  990MOL0     C33536   7.265   2.879   0.984 -0.2773 -0.5549  0.3996
  990MOL0     C33537   7.219   2.865   1.128 -0.0715  0.5447  0.6446
  990MOL0     C33538   7.145   2.989   1.167  0.3611  0.2929  0.2017
  990MOL0     O33539   7.034   3.029   1.079 -0.0386 -0.1368  0.0670
  990MOL0     C33540   6.910   2.981   1.092  0.2836  0.3294  1.1970
  990MOL0     C33541   6.874   2.879   1.002  0.1909 -0.0443 -0.5083
  990MOL0     C33542   6.742   2.825   1.012  0.0451  0.2705 -0.1924
  990MOL0     C33543   6.709   2.715   0.915  0.1267  0.2875 -0.3624
  990MOL0     C33544   6.649   2.880   1.107  0.0771 -0.1212 -0.5757
  990MOL0     C33545   6.499   2.856   1.125  0.1027 -0.1791 -0.0608
  990MOL0     O33546   6.459   2.739   1.068  0.0503 -0.0076 -0.1880
  990MOL0     C33547   6.324   2.712   1.062  0.4057  0.9794 -0.1505
  990MOL0     C33548   6.218   2.785   0.998  0.4722 -0.1317 -0.2710
  990MOL0     C33549   6.083   2.741   1.004  0.3649  0.3389  0.1113
  990MOL0     C33550   6.047   2.613   1.055  0.3261  0.0354  0.7000
  990MOL0     O33551   5.922   2.567   1.061 -0.1753  0.4757 -0.8262
  990MOL0     C33552   5.910   2.428   1.108  1.1930 -0.1648 -0.3383
  990MOL0     C33553   5.759   2.384   1.107  0.5170  0.0789  0.1244
  990MOL0     C33554   5.719   2.361   0.957  0.1457  0.5217  0.3762
  990MOL0     C33555   5.564   2.373   0.928  0.1554 -0.5554  0.0628
  990MOL0     C33556   5.487   2.273   1.016 -0.5670 -0.6293  0.6693
  990MOL0     C33557   5.352   2.236   0.948  0.2927 -0.5095 -0.3503
  990MOL0     C33558   5.230   2.316   1.001 -0.6185  0.4027  0.2194
  990MOL0     C33559   5.227   2.455   0.945  0.4792  0.5390 -0.7348
  990MOL0    Cl33560   5.147   2.454   0.788 -0.4398 -0.0524 -0.2790
  990MOL0     C33561   6.157   2.534   1.097  0.0839 -0.4107 -0.1893
  990MOL0     C33562   6.291   2.583   1.103  0.1347  0.2600  0.4446
  990MOL0     O33563   6.424   2.946   1.162 -0.4940 -0.6880 -0.1123
  990MOL0     C33564   6.701   2.975   1.194 -0.0380  1.1848  0.2435
  990MOL0     C33565   6.826   3.025   1.190  0.4831 -0.2964 -0.7011
  990MOL0     N33566   7.542   2.839   0.899  0.0751  1.4130 -0.1413
  990MOL0     N33567   7.654   2.797   0.855  0.1037 -0.1343 -0.6535
  990MOL0     C33568   8.629   2.369   0.510  0.7692 -0.4994  0.2889
  990MOL0     C33569   8.763   2.384   0.484  0.0836  0.1255  1.2292
  990MOL0     C33570   9.168   2.516   0.378 -0.3177 -0.3377  0.8594
  990MOL0     C33571   9.258   2.485   0.277 -0.7395 -0.1278 -1.1143
  990MOL0     C33572   9.396   2.486   0.309  0.3476  0.1720 -0.0517
  990MOL0     C33573   9.443   2.514   0.435  0.2666 -0.6788 -0.0407
  990MOL0     O33574   9.574   2.502   0.467  0.4435 -1.0555  0.1764
  990MOL0     C33575   9.679   2.544   0.383  0.2944  0.0365  0.3142
  990MOL0     C33576   9.698   2.694   0.374  0.1287 -0.0515  0.2219
  990MOL0     C33577   9.818   2.736   0.286 -0.3202  0.5219 -0.3007
  990MOL0     C33578   9.944   2.656   0.299 -1.3070  0.3570 -0.5503
  990MOL0     C33579   9.960   2.537   0.218  0.8522  0.0924 -0.0958
  990MOL0     C33580   9.982   2.439   0.156 -0.4289  0.2716  0.2474
  990MOL0     C33581   9.348   2.550   0.533  0.2645 -0.9743 -1.4022
  990MOL0     C33582   9.219   2.561   0.505 -1.0269 -0.2100 -0.6556
  990MOL0     H33583   8.785   2.721   0.536 -0.6160  0.2876  1.8669
  990MOL0     H33584   8.549   2.693   0.570  0.0673  0.5690 -0.2328
  990MOL0     H33585   8.244   2.412   0.489  2.9482  1.8524 -3.0771
  990MOL0     H33586   8.373   2.290   0.484  0.3325 -0.2444  2.0047
  990MOL0     H33587   8.262   2.182   0.653  1.1794 -0.6780  0.2312
  990MOL0     H33588   8.344   2.296   0.755  1.2183 -2.4996 -0.6866
  990MOL0     H33589   8.049   2.285   0.673  0.8899 -2.3992  0.1518
  990MOL0     H33590   8.129   2.312   0.826  3.1801 -1.4143  0.6668
  990MOL0     H33591   8.205   2.541   0.738  0.3739  0.0463  1.4295
  990MOL0     H33592   8.073   2.528   0.619 -1.2194  5.2681  1.7136
  990MOL0     H33593   8.048   2.518   0.923  0.5026 -0.5650 -0.2412
  990MOL0     H33594   7.986   2.633   0.800  0.2144 -0.6774 -1.3880
  990MOL0     H33595   7.887   2.346   0.814 -1.8416  0.0529 -1.9438
  990MOL0     H33596   7.802   2.479   0.894  0.3698 -0.4302  0.4300
  990MOL0     H33597   7.828   2.455   0.597  0.1476  0.9024 -0.9389
  990MOL0     H33598   7.683   2.428   0.699  0.9929  0.1122  4.8967
  990MOL0     H33599   7.686   2.648   0.586 -0.0889 -0.6949  0.1796
  990MOL0     H33600   7.821   2.695   0.691  0.3180 -1.6439 -0.1942
  990MOL0     H33601   7.447   2.560   0.777 -1.6507  1.2780  0.6365
  990MOL0     H33602   7.228   2.727   0.852 -0.5240 -1.3436  2.0207
  990MOL0     H33603   7.303   2.662   1.005  4.3243  0.6581  1.8739
  990MOL0     H33604   7.184   2.920   0.923  0.5544  2.0844  0.9553
  990MOL0     H33605   7.351   2.947   0.986 -0.2032 -0.6468  0.3289
  990MOL0     H33606   7.313   2.856   1.183  0.3717  2.3889  0.2502
  990MOL0     H33607   7.157   2.775   1.140  0.4802  0.0377 -0.2070
  990MOL0     H33608   7.216   3.072   1.178  0.0880  0.7801 -1.4952
  990MOL0     H33609   7.098   2.963   1.262  0.1870 -0.2063 -0.0180
  990MOL0     H33610   6.958   2.837   0.949  0.2753 -0.5754  0.0363
  990MOL0     H33611   6.801   2.690   0.862  1.5069  0.6896  1.7204
  990MOL0     H33612   6.680   2.628   0.976  3.2180  0.3045  1.2882
  990MOL0     H33613   6.629   2.748   0.848  0.6097  1.0262 -0.5815
  990MOL0     H33614   6.234   2.884   0.956 -3.6445  0.5110 -0.7540
  990MOL0     H33615   5.996   2.793   0.966 -1.7388 -3.2474 -0.4415
  990MOL0     H33616   5.967   2.357   1.047  1.9302  1.2984 -1.4123
  990MOL0     H33617   5.939   2.426   1.214  1.6391  2.3274 -0.3489
  990MOL0     H33618   5.743   2.295   1.168 -0.5930  0.8374  0.9987
  990MOL0     H33619   5.688   2.459   1.143 -0.2984 -1.0949  1.0070
  990MOL0     H33620   5.741   2.258   0.926  0.7336  0.5413  0.7179
  990MOL0     H33621   5.788   2.419   0.895  1.5366  1.8778  2.9985
  990MOL0     H33622   5.541   2.474   0.962  0.7430 -0.4502  0.1566
  990MOL0     H33623   5.536   2.363   0.822 -0.8921  0.9918  0.1685
  990MOL0     H33624   5.473   2.327   1.110 -1.3410  1.7306 -0.7164
  990MOL0     H33625   5.535   2.178   1.041  1.1979 -0.6214 -2.2709
  990MOL0     H33626   5.348   2.254   0.840 -3.7867 -2.4188 -0.7370
  990MOL0     H33627   5.339   2.128   0.960 -0.0670 -0.3273  1.0601
  990MOL0     H33628   5.240   2.315   1.110  0.3357 -1.1898  0.1540
  990MOL0     H33629   5.138   2.266   0.971  0.1471 -0.0981 -1.3991
  990MOL0     H33630   5.324   2.506   0.951 -0.9512  3.5699 -1.6593
  990MOL0     H33631   5.156   2.522   0.994 -0.5263 -0.3383 -0.9710
  990MOL0     H33632   6.159   2.431   1.131 -1.0108 -0.1463  0.7231
  990MOL0     H33633   6.376   2.520   1.129 -0.1764 -0.2723  0.1667
  990MOL0     H33634   6.636   3.005   1.276 -0.7420 -0.9934  0.5529
  990MOL0     H33635   6.865   3.092   1.265 -0.8067  0.8341 -0.9925
  990MOL0     H33636   8.598   2.265   0.518 -1.7801  0.2503  1.0347
  990MOL0     H33637   8.821   2.297   0.455  0.5938  0.7764  0.2594
  990MOL0     H33638   9.216   2.464   0.179 -0.6647  0.3977 -1.2626
  990MOL0     H33639   9.469   2.458   0.234  1.3090  2.6936 -0.1302
  990MOL0     H33640   9.773   2.495   0.412  1.4451  0.6882 -2.0863
  990MOL0     H33641   9.665   2.508   0.281  2.6978 -0.0428 -0.0315
  990MOL0     H33642   9.722   2.743   0.468  0.3651  1.0899 -0.4133
  990MOL0     H33643   9.606   2.739   0.334  0.5573  0.6900  0.0469
  990MOL0     H33644   9.843   2.836   0.323  0.9800 -0.6349  2.2112
  990MOL0     H33645   9.787   2.745   0.182 -0.1168 -0.1971 -0.4310
  990MOL0     H33646   9.948   2.630   0.406  2.3034  0.0253 -0.6219
  990MOL0     H33647  10.025   2.729   0.287 -0.8429 -0.1309 -0.4601
  990MOL0     H33648   9.999   2.351   0.097  0.3571  1.2664 -1.0791
  990MOL0     H33649   9.388   2.577   0.629 -2.0622 -0.7338 -0.4219
  990MOL0     H33650   9.156   2.601   0.584  1.7865  2.5603  0.3907
  991MOL0     O33651   8.072   4.429   5.837 -0.7433 -0.0410 -0.2480
  991MOL0     C33652   8.144   4.367   5.762 -0.1109 -0.0699  0.4293
  991MOL0     O33653   8.106   4.310   5.637 -0.2867  0.4304  0.8125
  991MOL0     C33654   7.978   4.287   5.598  0.3978  0.4295  0.3533
  991MOL0     C33655   7.884   4.387   5.588  0.0845  0.6933  0.2786
  991MOL0     C33656   7.751   4.373   5.550 -0.3120  0.1747  0.0908
  991MOL0     C33657   7.713   4.241   5.514  0.7304  0.8054 -0.4449
  991MOL0     O33658   7.588   4.207   5.472 -0.1822 -0.0758 -0.5840
  991MOL0     C33659   7.510   4.300   5.398 -0.3142  0.9316  0.2259
  991MOL0     C33660   7.392   4.234   5.332  0.2139 -0.1959 -0.4613
  991MOL0     C33661   7.301   4.317   5.239 -0.2087  0.2799  0.3768
  991MOL0     C33662   7.235   4.440   5.310 -0.2723  0.5320  0.0857
  991MOL0     C33663   7.163   4.536   5.210  0.1187 -0.4246 -0.2854
  991MOL0     C33664   7.114   4.665   5.266  0.5886  0.2398 -0.3113
  991MOL0     C33665   7.023   4.757   5.178 -0.5462 -0.3334  0.0802
  991MOL0     C33666   6.942   4.862   5.259 -0.8416  0.5674  0.0987
  991MOL0     N33667   6.849   4.948   5.177  0.0051  0.2412 -0.2267
  991MOL0     C33668   6.747   5.017   5.227  0.2387  0.0881  0.1616
  991MOL0     C33669   6.695   5.085   5.118  0.8418  0.3109 -0.1706
  991MOL0     C33670   6.582   5.181   5.104 -0.1406  0.0346  0.0650
  991MOL0     C33671   6.524   5.188   4.968 -0.2242  0.4930 -0.4137
  991MOL0     C33672   6.604   5.263   4.859 -0.6848  0.3142  0.6107
  991MOL0     C33673   6.574   5.213   4.717  0.6216 -0.1460  0.3747
  991MOL0     O33674   6.448   5.269   4.669  0.4404 -0.2633 -0.0113
  991MOL0     C33675   6.407   5.256   4.538  0.6041 -0.2464 -0.2773
  991MOL0     C33676   6.492   5.230   4.426  0.0905 -0.8071 -0.2346
  991MOL0     C33677   6.441   5.226   4.293 -0.0673  0.5225 -0.1772
  991MOL0     C33678   6.547   5.209   4.190 -0.4104  0.6222  0.4193
  991MOL0     C33679   6.303   5.218   4.268 -0.4301  1.0514 -0.8593
  991MOL0     C33680   6.233   5.189   4.138  0.1354 -0.5755  1.1888
  991MOL0     O33681   6.127   5.102   4.145 -0.1820 -0.5174  0.1422
  991MOL0     C33682   6.083   5.070   4.017 -0.5192  0.8514 -0.3791
  991MOL0     C33683   5.975   5.129   3.952  0.3526  1.2142  0.2818
  991MOL0     C33684   5.931   5.085   3.832 -0.7114  0.8866  0.3851
  991MOL0     C33685   6.004   4.989   3.766  0.0550 -0.1864  0.4067
  991MOL0     O33686   5.975   4.962   3.636  0.5906  0.4148 -0.2835
  991MOL0     C33687   5.905   4.835   3.612  0.2925 -0.1141  1.0786
  991MOL0     C33688   6.003   4.731   3.547  0.7023  0.4377 -0.3289
  991MOL0     C33689   5.946   4.598   3.475 -0.4698 -0.6294  0.4541
  991MOL0     C33690   5.908   4.635   3.327  0.2138 -0.1662  0.1034
  991MOL0     C33691   5.825   4.528   3.260 -0.4560  0.2786  0.2242
  991MOL0     C33692   5.750   4.575   3.139 -0.4463 -0.5370 -0.4076
  991MOL0     C33693   5.672   4.464   3.089 -0.0619 -0.8243  0.4573
  991MOL0     C33694   5.612   4.491   2.957 -0.1724 -0.8065  0.1779
  991MOL0    Cl33695   5.526   4.352   2.899  0.1460  0.2284  0.2966
  991MOL0     C33696   6.121   4.932   3.820  1.3717 -0.4440  0.3837
  991MOL0     C33697   6.158   4.971   3.950  0.2314 -0.5028 -0.8115
  991MOL0     O33698   6.277   5.237   4.035  0.3380  0.1626  0.3807
  991MOL0     C33699   6.217   5.235   4.375 -0.3248  0.0066  0.1570
  991MOL0     C33700   6.271   5.253   4.505  0.4571  0.0020  0.9935
  991MOL0     N33701   6.771   5.051   5.009  0.4127 -0.4119  1.0139
  991MOL0     N33702   6.852   4.963   5.043 -0.2989  0.1924  0.1715
  991MOL0     C33703   7.803   4.129   5.533  0.5738 -0.4266  0.2242
  991MOL0     C33704   7.932   4.158   5.572  0.2629  0.6769  0.0573
  991MOL0     C33705   8.282   4.363   5.812 -0.5058 -0.4875  0.6195
  991MOL0     C33706   8.372   4.272   5.753  0.4935 -0.2980 -0.2747
  991MOL0     C33707   8.509   4.279   5.783  0.6648  0.0076  0.8646
  991MOL0     C33708   8.559   4.378   5.874  0.2447 -1.2514 -0.1346
  991MOL0     O33709   8.685   4.391   5.920  0.0271 -0.4696 -0.5996
  991MOL0     C33710   8.780   4.323   5.842  0.0766  0.5259 -0.5207
  991MOL0     C33711   8.912   4.382   5.894  0.0502  0.1742 -0.4231
  991MOL0     C33712   9.026   4.296   5.829  0.0883 -0.6618  0.1454
  991MOL0     C33713   9.155   4.328   5.897 -0.1683 -1.0146 -0.0587
  991MOL0     C33714   9.267   4.262   5.832 -0.2123  0.7320  0.2456
  991MOL0     C33715   9.361   4.216   5.775 -0.2885 -0.3013 -0.7016
  991MOL0     C33716   8.465   4.459   5.924 -0.2814 -0.0236 -0.9312
  991MOL0     C33717   8.332   4.454   5.908 -0.6697 -0.5859  0.6921
  991MOL0     H33718   7.912   4.488   5.615  5.5023 -0.4240 -0.0561
  991MOL0     H33719   7.678   4.452   5.534 -2.8761 -2.2946 -1.4237
  991MOL0     H33720   7.464   4.369   5.470 -0.4844  1.1069 -0.0479
  991MOL0     H33721   7.567   4.357   5.324 -2.5780  1.5074 -1.1934
  991MOL0     H33722   7.435   4.150   5.277  0.6644 -0.4888  0.3158
  991MOL0     H33723   7.339   4.182   5.411  3.0513 -3.3827 -0.4281
  991MOL0     H33724   7.364   4.351   5.156 -0.0345 -1.1327 -0.0984
  991MOL0     H33725   7.226   4.255   5.189  1.2110 -0.2634 -1.2044
  991MOL0     H33726   7.165   4.407   5.387 -0.9891  0.1270 -0.7133
  991MOL0     H33727   7.323   4.492   5.350  3.2733 -2.5149 -2.9643
  991MOL0     H33728   7.227   4.567   5.127  2.4175  3.0652  2.4769
  991MOL0     H33729   7.071   4.484   5.183 -0.0401 -0.2128 -0.1540
  991MOL0     H33730   7.059   4.654   5.360 -0.1906  1.3590 -0.6143
  991MOL0     H33731   7.192   4.728   5.309 -0.7969  0.7595  1.6016
  991MOL0     H33732   7.091   4.811   5.112  0.0839 -1.7639 -0.4709
  991MOL0     H33733   6.959   4.701   5.109  1.0724 -2.5498  0.2752
  991MOL0     H33734   7.012   4.914   5.324  2.9480 -0.6345 -2.6731
  991MOL0     H33735   6.876   4.802   5.322 -3.0748  1.3317 -1.3708
  991MOL0     H33736   6.714   5.029   5.330  1.2422 -2.8100  0.9156
  991MOL0     H33737   6.512   5.147   5.181  1.5759  1.4035  2.3853
  991MOL0     H33738   6.617   5.278   5.140  0.0107 -0.2002  0.5572
  991MOL0     H33739   6.437   5.254   4.980  0.9237  2.3974 -1.9004
  991MOL0     H33740   6.493   5.088   4.936  0.6420  1.0514 -3.3215
  991MOL0     H33741   6.708   5.240   4.884 -1.0389 -1.9307  0.2717
  991MOL0     H33742   6.579   5.369   4.863 -0.6905  0.3211  0.4085
  991MOL0     H33743   6.575   5.104   4.707 -1.0187 -0.1777  0.2204
  991MOL0     H33744   6.655   5.248   4.652 -1.1031  1.0214 -1.2511
  991MOL0     H33745   6.598   5.214   4.442  0.3517  0.1451 -0.9081
  991MOL0     H33746   6.516   5.131   4.120 -0.0129 -0.0857  1.0234
  991MOL0     H33747   6.556   5.300   4.129 -0.5224  0.9841  0.9423
  991MOL0     H33748   6.649   5.194   4.225 -0.5933 -1.9187  0.0692
  991MOL0     H33749   5.927   5.215   3.998 -3.5987 -0.7251  0.2235
  991MOL0     H33750   5.849   5.126   3.774  1.1418  1.0467 -2.3323
  991MOL0     H33751   5.848   4.788   3.693 -0.7647 -1.4205 -0.3703
  991MOL0     H33752   5.822   4.859   3.546 -0.5172 -2.7479  1.0035
  991MOL0     H33753   6.074   4.778   3.479 -0.1843  1.8881 -0.2956
  991MOL0     H33754   6.056   4.702   3.638 -1.2248  0.9813  1.0313
  991MOL0     H33755   5.859   4.558   3.528 -0.1720  0.5737  1.9430
  991MOL0     H33756   6.029   4.527   3.471 -0.6745 -0.9195  1.2157
  991MOL0     H33757   5.844   4.724   3.327  0.2039  0.0710 -4.1428
  991MOL0     H33758   5.987   4.661   3.256 -0.4617  1.8811  0.0345
  991MOL0     H33759   5.755   4.494   3.337 -1.2379  1.6388  0.1385
  991MOL0     H33760   5.884   4.436   3.249  0.3562  0.4718  2.4684
  991MOL0     H33761   5.685   4.657   3.169  0.1991  0.2212 -1.0516
  991MOL0     H33762   5.823   4.616   3.069  0.0590 -0.5232  0.1209
  991MOL0     H33763   5.588   4.434   3.153 -1.1234  0.1640 -0.4203
  991MOL0     H33764   5.735   4.377   3.070 -0.2130 -0.8578  0.0982
  991MOL0     H33765   5.696   4.522   2.895 -0.5676  1.9001  0.8718
  991MOL0     H33766   5.543   4.576   2.945  1.7122  0.8166  0.4428
  991MOL0     H33767   6.187   4.864   3.769  1.0280 -0.3849 -0.1532
  991MOL0     H33768   6.257   4.939   3.982  0.3071  0.4522 -0.0762
  991MOL0     H33769   6.110   5.235   4.358 -0.5600 -1.3267  1.3768
  991MOL0     H33770   6.208   5.266   4.592  0.9211  0.3839  1.2774
  991MOL0     H33771   7.772   4.029   5.504 -0.6324  0.3949 -1.4142
  991MOL0     H33772   8.002   4.075   5.575  0.6108  0.9832  0.6362
  991MOL0     H33773   8.341   4.193   5.686  0.4905 -0.7989  0.2985
  991MOL0     H33774   8.573   4.214   5.724  0.2768  0.5662 -0.1938
  991MOL0     H33775   8.780   4.224   5.889  0.0482  2.0800  3.1127
  991MOL0     H33776   8.770   4.331   5.734  0.5680  1.9445 -0.4851
  991MOL0     H33777   8.921   4.368   6.002  2.8641 -4.3555 -0.9637
  991MOL0     H33778   8.916   4.486   5.862 -0.5435  0.6091  0.8520
  991MOL0     H33779   9.042   4.325   5.725 -1.4766  0.3216  0.1412
  991MOL0     H33780   9.003   4.189   5.831 -3.0153 -0.0772  0.1867
  991MOL0     H33781   9.150   4.291   6.000 -1.1095  0.0075  0.2844
  991MOL0     H33782   9.169   4.436   5.905  0.4572 -0.6362 -4.2318
  991MOL0     H33783   9.444   4.159   5.738 -0.7301 -1.6084  0.2693
  991MOL0     H33784   8.493   4.528   6.004  1.5513 -0.7677 -0.8862
  991MOL0     H33785   8.266   4.525   5.958  1.9472  0.5238  2.7991
  992MOL0     O33786   1.695   6.073   5.640 -0.7523 -0.8110 -0.2630
  992MOL0     C33787   1.768   5.982   5.672 -0.9925 -0.2166  0.3823
  992MOL0     O33788   1.745   5.898   5.766  0.3038 -0.0302 -0.4317
  992MOL0     C33789   1.631   5.914   5.835  0.0529  0.2387  0.4186
  992MOL0     C33790   1.609   6.021   5.914 -0.1248  0.4542 -0.1306
  992MOL0     C33791   1.479   6.060   5.957 -0.4013 -0.6881 -0.5851
  992MOL0     C33792   1.372   5.972   5.932  0.3153  0.3917  0.4799
  992MOL0     O33793   1.250   6.017   5.975  0.4925  0.3904  0.6698
  992MOL0     C33794   1.139   5.923   5.961  0.2065  1.0016  0.0914
  992MOL0     C33795   1.023   5.981   6.033  0.5029 -0.2764 -0.0121
  992MOL0     C33796   0.893   5.897   6.019  0.0982  0.0155  0.1081
  992MOL0     C33797   0.788   5.938   6.118 -1.1033 -0.2489  0.3522
  992MOL0     C33798   0.645   5.908   6.061  0.0395 -0.1247  0.4212
  992MOL0     C33799   0.544   5.950   6.165  0.3172  0.0460 -0.0396
  992MOL0     C33800   0.407   5.923   6.098  0.2486 -0.4313  0.1995
  992MOL0     C33801   0.363   6.049   6.029 -0.5911  0.6421  0.4452
  992MOL0     N33802   0.228   6.017   5.985  0.7568  0.1771  0.0938
  992MOL0     C33803   0.118   6.001   6.065 -0.3842  0.4851  0.1701
  992MOL0     C33804   0.017   5.963   5.981 -0.8739  0.7347 -0.1676
  992MOL0     C33805  -0.117   5.915   6.032  0.7356 -0.2051  0.2370
  992MOL0     C33806  -0.225   6.010   5.979  0.5245  0.5183  0.1700
  992MOL0     C33807  -0.367   5.991   6.029  0.0379  0.4115 -0.1114
  992MOL0     C33808  -0.445   5.876   5.972  0.4133 -0.0959  1.1716
  992MOL0     O33809  -0.571   5.871   6.035 -0.2897  0.4055 -0.1405
  992MOL0     C33810  -0.674   5.805   5.979  0.6071 -0.2536 -0.4636
  992MOL0     C33811  -0.673   5.749   5.852  0.0801  0.9723  0.5423
  992MOL0     C33812  -0.786   5.676   5.799 -0.2101 -0.3601 -0.1746
  992MOL0     C33813  -0.784   5.644   5.653  0.4086  0.2336 -0.3213
  992MOL0     C33814  -0.893   5.652   5.880  0.5427  0.1350 -0.3861
  992MOL0     C33815  -1.018   5.587   5.838 -0.1944  0.4340 -0.1052
  992MOL0     O33816  -1.088   5.660   5.745 -0.1370 -0.0759 -0.3279
  992MOL0     C33817  -1.197   5.612   5.679  0.0342  0.6924  0.2487
  992MOL0     C33818  -1.197   5.480   5.631  0.5207  0.9135  0.2348
  992MOL0     C33819  -1.303   5.435   5.548 -1.0144 -1.1242 -1.2565
  992MOL0     C33820  -1.410   5.524   5.521  1.1886 -0.2849 -0.0948
  992MOL0     O33821  -1.509   5.480   5.438 -0.4650 -0.0244  0.7414
  992MOL0     C33822  -1.632   5.557   5.440 -0.7386 -0.3341 -0.3639
  992MOL0     C33823  -1.757   5.497   5.373 -0.2417 -0.0891 -0.1214
  992MOL0     C33824  -1.722   5.486   5.225  0.8118  0.6038 -1.1490
  992MOL0     C33825  -1.797   5.363   5.169  0.3196  1.0438  0.8082
  992MOL0     C33826  -1.953   5.362   5.173  0.7511  0.0960  0.0997
  992MOL0     C33827  -2.006   5.249   5.089 -0.1707 -0.0185 -0.2973
  992MOL0     C33828  -2.154   5.260   5.110  0.4446  0.3425 -0.0758
  992MOL0     C33829  -2.224   5.143   5.052 -0.2934  0.3871 -0.2400
  992MOL0    Cl33830  -2.397   5.156   5.044  0.0152 -0.1988 -0.0457
  992MOL0     C33831  -1.410   5.658   5.574 -0.3220  0.4086 -0.0536
  992MOL0     C33832  -1.304   5.698   5.649 -0.5632 -0.3758 -0.9953
  992MOL0     O33833  -1.053   5.479   5.889  0.6200 -0.3733 -0.8670
  992MOL0     C33834  -0.889   5.692   6.013  0.2357  0.0243 -0.4397
  992MOL0     C33835  -0.786   5.773   6.061  0.4562  0.5717 -0.6964
  992MOL0     N33836   0.071   5.958   5.846  0.0433  1.1152  0.1884
  992MOL0     N33837   0.196   5.984   5.853 -0.4635  0.3832  0.5522
  992MOL0     C33838   1.389   5.855   5.855 -0.0103  0.4511  0.0208
  992MOL0     C33839   1.521   5.826   5.813  0.1870  0.5889  1.0246
  992MOL0     C33840   1.913   5.975   5.627  0.2707 -0.1338 -0.2056
  992MOL0     C33841   2.024   5.905   5.693 -0.1335  0.5293 -1.0736
  992MOL0     C33842   2.154   5.927   5.658  0.6240  0.3436  0.4336
  992MOL0     C33843   2.193   5.996   5.548  0.7675 -0.0861 -0.2353
  992MOL0     O33844   2.330   6.012   5.529  0.4757 -0.0554 -0.4494
  992MOL0     C33845   2.370   6.122   5.456  0.0815 -0.3807  0.5143
  992MOL0     C33846   2.521   6.138   5.447  0.2468 -0.3761 -0.7727
  992MOL0     C33847   2.584   6.191   5.579 -0.6637 -0.7613 -0.1557
  992MOL0     C33848   2.718   6.255   5.537 -0.0110 -0.0274 -0.2047
  992MOL0     C33849   2.807   6.156   5.478 -0.2009 -0.5392 -0.0014
  992MOL0     C33850   2.859   6.063   5.417  0.0796 -0.1918  0.5077
  992MOL0     C33851   2.096   6.051   5.472 -0.0688  0.1150  0.0382
  992MOL0     C33852   1.957   6.047   5.515 -0.3414 -0.0352  0.5962
  992MOL0     H33853   1.700   6.078   5.926  0.2854  0.4258 -2.5011
  992MOL0     H33854   1.452   6.156   5.999  1.5849  1.2687 -3.4427
  992MOL0     H33855   1.124   5.908   5.853  2.5296  1.3250 -0.3126
  992MOL0     H33856   1.159   5.825   6.005 -1.0107  0.5837 -0.2392
  992MOL0     H33857   1.048   5.992   6.139 -1.2584  1.0648  0.3147
  992MOL0     H33858   0.996   6.080   5.996 -1.6875 -0.7441  0.1878
  992MOL0     H33859   0.858   5.891   5.915 -1.8870 -0.2747  0.7478
  992MOL0     H33860   0.903   5.789   6.032 -0.8959 -0.0789  0.1644
  992MOL0     H33861   0.799   5.888   6.214  0.4794  0.6364  0.6617
  992MOL0     H33862   0.798   6.043   6.145 -0.7404  0.1051 -1.0719
  992MOL0     H33863   0.639   5.966   5.968  0.0162  0.8892  1.0468
  992MOL0     H33864   0.635   5.802   6.037  1.9450  0.1851 -2.1313
  992MOL0     H33865   0.553   5.902   6.263 -0.4823  1.3281  0.6910
  992MOL0     H33866   0.560   6.056   6.186  4.1621 -0.0014 -1.9792
  992MOL0     H33867   0.413   5.834   6.035  0.7709 -0.9198  0.9191
  992MOL0     H33868   0.341   5.894   6.181  2.9277 -0.7713  2.3521
  992MOL0     H33869   0.421   6.074   5.940  0.5033 -1.1092  0.6100
  992MOL0     H33870   0.363   6.135   6.096  3.5608 -0.1669  1.8454
  992MOL0     H33871   0.113   5.998   6.174 -1.4028 -1.1392  0.1154
  992MOL0     H33872  -0.140   5.813   6.000 -1.6946  0.7453 -1.3308
  992MOL0     H33873  -0.107   5.907   6.141  3.5430 -2.4825 -0.0649
  992MOL0     H33874  -0.216   6.009   5.870  0.0072  0.6904  0.1249
  992MOL0     H33875  -0.208   6.113   6.012 -0.7664  1.1055 -0.8892
  992MOL0     H33876  -0.419   6.084   6.007  1.7906  1.6170  0.5924
  992MOL0     H33877  -0.365   5.966   6.136  2.1174 -4.7598 -1.0418
  992MOL0     H33878  -0.385   5.786   5.987  1.0463 -0.3687 -2.1389
  992MOL0     H33879  -0.446   5.893   5.864  0.6410  0.0040  1.1839
  992MOL0     H33880  -0.594   5.770   5.781  2.0200  0.3284  2.4147
  992MOL0     H33881  -0.690   5.677   5.606  2.4057 -0.7480  2.6719
  992MOL0     H33882  -0.811   5.542   5.626 -1.5310  0.7156 -0.3481
  992MOL0     H33883  -0.866   5.700   5.608  0.5573  1.5018  0.8941
  992MOL0     H33884  -1.124   5.415   5.677 -1.6002 -0.0971  2.3959
  992MOL0     H33885  -1.289   5.335   5.510  0.7495 -0.3848 -2.7267
  992MOL0     H33886  -1.665   5.568   5.544 -0.9807 -1.3227 -0.3230
  992MOL0     H33887  -1.621   5.657   5.397 -1.8652  0.0304  0.1383
  992MOL0     H33888  -1.777   5.401   5.421  1.9726 -0.6013 -0.1260
  992MOL0     H33889  -1.846   5.555   5.398  1.0795  2.8541 -1.6960
  992MOL0     H33890  -1.614   5.478   5.210  0.9634  0.8514 -0.2926
  992MOL0     H33891  -1.752   5.569   5.160 -1.9567  0.1341 -0.6253
  992MOL0     H33892  -1.748   5.349   5.072 -0.8132 -2.2327  0.5770
  992MOL0     H33893  -1.773   5.268   5.218 -0.9436 -0.2074 -0.8823
  992MOL0     H33894  -1.985   5.463   5.146 -1.2547 -0.9870 -1.9154
  992MOL0     H33895  -1.984   5.345   5.276 -1.5026 -2.5495 -0.9000
  992MOL0     H33896  -1.983   5.248   4.982  1.3963 -1.5957  0.0171
  992MOL0     H33897  -1.981   5.153   5.136 -0.3179  1.5597  3.3289
  992MOL0     H33898  -2.202   5.347   5.064  1.2485  0.7481 -0.1587
  992MOL0     H33899  -2.172   5.250   5.217  0.9141 -2.4456 -0.1657
  992MOL0     H33900  -2.201   5.048   5.102 -0.9275 -0.6396 -1.8104
  992MOL0     H33901  -2.187   5.133   4.950  0.2903  0.2720 -0.0168
  992MOL0     H33902  -1.476   5.740   5.547 -0.4411 -0.5898 -3.1575
  992MOL0     H33903  -1.300   5.801   5.682  0.9837  0.4998 -3.6338
  992MOL0     H33904  -0.979   5.683   6.073  1.1838 -2.2423  0.7918
  992MOL0     H33905  -0.797   5.813   6.162 -2.8825  2.6731 -1.7295
  992MOL0     H33906   1.315   5.790   5.809  1.8736 -1.3654 -0.5633
  992MOL0     H33907   1.527   5.738   5.750 -1.4601  2.9920 -2.8049
  992MOL0     H33908   2.008   5.836   5.776  2.4761  0.0051 -0.8968
  992MOL0     H33909   2.238   5.878   5.707  1.4404  1.1599 -0.1258
  992MOL0     H33910   2.345   6.109   5.350  0.2414  0.9892  0.2821
  992MOL0     H33911   2.319   6.208   5.499  2.3083  1.5911 -0.5063
  992MOL0     H33912   2.547   6.203   5.364  0.6531  1.8007  0.9674
  992MOL0     H33913   2.557   6.035   5.432  0.3339 -0.2229 -1.6343
  992MOL0     H33914   2.587   6.112   5.654 -3.1664 -0.0599  0.7816
  992MOL0     H33915   2.511   6.258   5.624 -1.9056 -1.0049 -1.6882
  992MOL0     H33916   2.774   6.292   5.624  2.2211  0.4301 -1.7551
  992MOL0     H33917   2.704   6.349   5.482 -0.8780  0.3620  0.6424
  992MOL0     H33918   2.895   5.979   5.362 -1.9036 -2.1030  1.9900
  992MOL0     H33919   2.117   6.107   5.381  1.5737  0.0409  0.3310
  992MOL0     H33920   1.883   6.093   5.451  0.3087 -1.0041 -0.9025
  993MOL0     O33921   5.109   9.027   1.699  0.0754 -0.3413 -0.8319
  993MOL0     C33922   5.190   8.981   1.778 -0.3092 -0.1060  0.4397
  993MOL0     O33923   5.167   8.931   1.904  0.0883  0.5293 -0.3940
  993MOL0     C33924   5.035   8.913   1.944  0.5213 -0.6231 -0.2509
  993MOL0     C33925   4.984   8.981   2.057 -0.3725  0.6046  0.2103
  993MOL0     C33926   4.853   8.968   2.097  0.9423  0.0686 -0.1415
  993MOL0     C33927   4.769   8.880   2.023 -0.3109 -0.7268 -0.6930
  993MOL0     O33928   4.633   8.871   2.039  0.4288  0.4824 -0.5019
  993MOL0     C33929   4.572   8.925   2.155 -0.4034 -0.3389  0.0505
  993MOL0     C33930   4.426   8.906   2.149  0.5996  0.5243 -0.5698
  993MOL0     C33931   4.361   8.982   2.261 -0.1429  0.0672 -0.0212
  993MOL0     C33932   4.214   8.953   2.270  0.0911 -0.2764  0.5651
  993MOL0     C33933   4.140   9.055   2.358 -0.8715  0.2084 -0.1628
  993MOL0     C33934   3.991   9.032   2.348 -0.0712  0.4583  0.0384
  993MOL0     C33935   3.904   9.161   2.385 -0.8552  0.6408  0.1721
  993MOL0     C33936   3.756   9.124   2.408  0.7375  0.2753 -0.3240
  993MOL0     N33937   3.682   9.061   2.300 -0.2746  0.0853 -0.9191
  993MOL0     C33938   3.604   9.135   2.212  0.2211  0.3860 -0.2799
  993MOL0     C33939   3.544   9.054   2.131  0.0286 -0.0266 -0.0210
  993MOL0     C33940   3.453   9.085   2.015 -0.1344  0.6969 -0.0416
  993MOL0     C33941   3.309   9.015   2.023 -0.2987 -0.4157  0.1279
  993MOL0     C33942   3.209   9.082   2.109  1.2022  0.5161 -0.9656
  993MOL0     C33943   3.157   9.215   2.038 -0.3284  0.1283 -0.0229
  993MOL0     O33944   3.077   9.288   2.132 -0.2971  0.2372  0.0799
  993MOL0     C33945   2.987   9.369   2.065  0.2856  0.1253  0.0572
  993MOL0     C33946   2.993   9.414   1.934  0.2621  0.2478 -0.4569
  993MOL0     C33947   2.902   9.502   1.872 -0.0563  0.3667 -0.7088
  993MOL0     C33948   2.941   9.546   1.734 -0.6320 -0.6515 -0.6172
  993MOL0     C33949   2.794   9.550   1.945  0.4557  0.3400 -0.7124
  993MOL0     C33950   2.695   9.635   1.897 -0.0061 -0.3738 -0.1379
  993MOL0     O33951   2.591   9.661   1.988 -0.2650  0.5594  0.0978
  993MOL0     C33952   2.465   9.699   1.951  0.1910  0.1204 -0.3856
  993MOL0     C33953   2.445   9.801   1.854 -0.1281 -0.4169 -1.0218
  993MOL0     C33954   2.321   9.844   1.836 -0.3215 -0.7435  0.4181
  993MOL0     C33955   2.213   9.786   1.909 -0.0901 -0.9229  0.6802
  993MOL0     O33956   2.093   9.856   1.899  0.8105 -0.0184 -0.7585
  993MOL0     C33957   2.028   9.861   1.769 -0.3810 -0.5480 -0.7193
  993MOL0     C33958   1.891   9.938   1.776  0.6708  0.7665 -0.7192
  993MOL0     C33959   1.836   9.977   1.911  0.3529 -0.6866 -0.0881
  993MOL0     C33960   1.688  10.021   1.924 -0.7883 -0.6495  1.1974
  993MOL0     C33961   1.594   9.909   1.948  0.3675  0.4280  0.3295
  993MOL0     C33962   1.444   9.963   1.958 -0.0075  0.0213 -0.1027
  993MOL0     C33963   1.355   9.854   2.027  0.3192  0.4272 -0.5253
  993MOL0     C33964   1.220   9.895   2.065  0.6358  0.0231  0.2073
  993MOL0    Cl33965   1.126   9.969   1.941 -0.1217 -0.5533 -0.2438
  993MOL0     C33966   2.236   9.690   2.001 -0.0784  0.2826 -0.3808
  993MOL0     C33967   2.363   9.636   2.027 -0.4444 -0.5122  0.3598
  993MOL0     O33968   2.700   9.680   1.782  0.2221  0.1513  0.0046
  993MOL0     C33969   2.793   9.507   2.088  0.2806 -1.2200  0.8525
  993MOL0     C33970   2.891   9.431   2.145 -0.2326  0.1237  0.1269
  993MOL0     N33971   3.582   8.926   2.168 -0.6383 -0.6408 -0.2790
  993MOL0     N33972   3.673   8.931   2.265  0.1796  0.7991  0.7752
  993MOL0     C33973   4.816   8.806   1.916 -1.3034  0.4078 -0.3067
  993MOL0     C33974   4.947   8.819   1.882 -0.4566  0.7350  0.3600
  993MOL0     C33975   5.330   8.963   1.720 -0.6771  0.0338 -0.5864
  993MOL0     C33976   5.430   8.902   1.803 -0.2233  0.5354 -0.3636
  993MOL0     C33977   5.568   8.892   1.768 -0.4329  0.6649 -0.0620
  993MOL0     C33978   5.601   8.954   1.647  0.4122 -0.0910  0.6242
  993MOL0     O33979   5.726   8.966   1.597 -0.3254 -0.1284 -0.7516
  993MOL0     C33980   5.833   8.921   1.682 -0.5423 -0.1836 -0.0652
  993MOL0     C33981   5.966   8.979   1.629 -0.5840  0.1522  0.8252
  993MOL0     C33982   6.003   9.122   1.653  0.8231  0.4332 -1.0389
  993MOL0     C33983   6.129   9.151   1.581 -0.7461 -0.3187  0.7331
  993MOL0     C33984   6.167   9.293   1.605  0.4508  0.6295 -0.4632
  993MOL0     C33985   6.192   9.409   1.627  0.1446 -0.6699  0.0013
  993MOL0     C33986   5.507   9.004   1.562 -0.7898 -0.4752  0.4305
  993MOL0     C33987   5.372   9.014   1.592 -0.6111 -0.1017  0.1262
  993MOL0     H33988   5.051   9.041   2.116  0.1635 -1.0757  1.3903
  993MOL0     H33989   4.809   9.015   2.185  2.6787  2.9668 -0.6634
  993MOL0     H33990   4.614   8.886   2.248 -0.2301  2.3595  1.2056
  993MOL0     H33991   4.591   9.033   2.161  0.1084 -0.4660  0.8312
  993MOL0     H33992   4.388   8.959   2.061 -0.7263  0.9927  0.2526
  993MOL0     H33993   4.391   8.802   2.144  1.3586  0.2981 -1.4881
  993MOL0     H33994   4.413   8.946   2.350  0.4530 -2.7308 -1.3916
  993MOL0     H33995   4.380   9.090   2.250 -0.1326 -0.0899 -1.9628
  993MOL0     H33996   4.169   8.955   2.170  0.9525  2.6907  0.1258
  993MOL0     H33997   4.207   8.851   2.308  0.7049  0.1124  1.7743
  993MOL0     H33998   4.182   9.048   2.459  0.2284  0.8763 -0.5461
  993MOL0     H33999   4.168   9.158   2.332 -0.9833  0.0968 -0.7366
  993MOL0     H34000   3.960   9.004   2.247 -0.2874  4.8513 -1.3223
  993MOL0     H34001   3.955   8.954   2.416 -1.1598 -0.1794 -1.2192
  993MOL0     H34002   3.947   9.214   2.470 -0.3600 -1.3612  1.2348
  993MOL0     H34003   3.899   9.223   2.295 -0.5169 -0.5982 -0.7326
  993MOL0     H34004   3.707   9.214   2.447  3.5670  0.8968  2.2426
  993MOL0     H34005   3.764   9.057   2.494 -0.9541  1.6650  1.0113
  993MOL0     H34006   3.594   9.243   2.215  3.0224  0.7159  0.0504
  993MOL0     H34007   3.450   9.192   1.991 -0.6753  0.1903 -2.5035
  993MOL0     H34008   3.507   9.039   1.932  1.8705  0.3999  1.3624
  993MOL0     H34009   3.329   8.915   2.063 -2.7068 -0.2302  2.0484
  993MOL0     H34010   3.255   9.006   1.928 -3.8804  1.4077  1.7821
  993MOL0     H34011   3.254   9.085   2.209  1.3080 -2.2209 -0.8592
  993MOL0     H34012   3.126   9.012   2.120 -0.0707  2.2132  1.2744
  993MOL0     H34013   3.090   9.187   1.955 -0.2857 -5.4168  1.4193
  993MOL0     H34014   3.243   9.271   2.000 -0.2050 -1.7277 -2.7813
  993MOL0     H34015   3.083   9.384   1.880 -0.0941 -3.0570  0.5397
  993MOL0     H34016   3.046   9.529   1.706  0.3197 -0.3224  2.3639
  993MOL0     H34017   2.869   9.499   1.667 -0.5173 -3.5277  1.0875
  993MOL0     H34018   2.938   9.655   1.730  3.7934 -0.3834 -1.2258
  993MOL0     H34019   2.528   9.862   1.820  1.5377 -0.6952  2.1674
  993MOL0     H34020   2.293   9.931   1.778  0.1965 -0.9690 -0.1742
  993MOL0     H34021   2.096   9.916   1.704 -0.2301 -1.3998 -1.2994
  993MOL0     H34022   2.018   9.757   1.736  0.1304 -1.1035  0.7895
  993MOL0     H34023   1.912  10.035   1.729 -1.9797  1.8609  0.1872
  993MOL0     H34024   1.813   9.889   1.717 -1.5159 -0.6071  2.9964
  993MOL0     H34025   1.889  10.069   1.936  0.2917 -0.7753  0.3761
  993MOL0     H34026   1.853   9.901   1.987  1.7931  1.3944  1.7982
  993MOL0     H34027   1.681  10.089   2.009 -1.8086  0.2116  0.4549
  993MOL0     H34028   1.658  10.088   1.843 -0.9544  1.7178  3.1117
  993MOL0     H34029   1.623   9.871   2.047 -2.3698  0.0798  1.0742
  993MOL0     H34030   1.611   9.843   1.863  0.9452  1.9845 -0.8066
  993MOL0     H34031   1.451  10.052   2.021  1.2122  0.2030 -0.4704
  993MOL0     H34032   1.401   9.992   1.862  1.0304  0.1196 -0.5547
  993MOL0     H34033   1.408   9.813   2.113 -0.0901  2.5334  0.8191
  993MOL0     H34034   1.352   9.769   1.958 -0.2262  1.1313 -1.3927
  993MOL0     H34035   1.228   9.960   2.152 -4.4086  0.5026  0.5825
  993MOL0     H34036   1.162   9.806   2.092 -0.0007  0.6579  0.9393
  993MOL0     H34037   2.158   9.662   2.071 -0.5874  0.3145 -0.9317
  993MOL0     H34038   2.390   9.572   2.110 -0.5561 -1.0053  0.0201
  993MOL0     H34039   2.718   9.551   2.153  1.5729  3.6183 -0.5279
  993MOL0     H34040   2.882   9.404   2.250 -0.0826 -0.6323 -0.0497
  993MOL0     H34041   4.745   8.744   1.862 -0.8959 -1.1133  0.8220
  993MOL0     H34042   4.981   8.751   1.804  0.9307 -0.6859  2.1192
  993MOL0     H34043   5.397   8.855   1.895  2.7982 -2.7337 -0.7200
  993MOL0     H34044   5.641   8.846   1.835 -0.2947  0.2276 -0.5037
  993MOL0     H34045   5.817   8.949   1.786  1.0711  0.3051  0.0845
  993MOL0     H34046   5.829   8.811   1.678 -2.8961 -0.2208  1.4428
  993MOL0     H34047   5.962   8.979   1.520  0.2335  1.0334  0.7786
  993MOL0     H34048   6.044   8.912   1.667  0.5666 -0.4679 -2.3475
  993MOL0     H34049   6.024   9.129   1.760 -0.2563 -1.0450 -0.7072
  993MOL0     H34050   5.926   9.198   1.635  1.3274  2.1962  3.0309
  993MOL0     H34051   6.123   9.137   1.473  1.7759 -1.9126  0.7042
  993MOL0     H34052   6.213   9.090   1.616 -1.1691 -0.4145  1.6061
  993MOL0     H34053   6.194   9.514   1.649  1.2101 -1.0558  2.0489
  993MOL0     H34054   5.532   9.032   1.460 -1.4514 -2.4183 -0.3007
  993MOL0     H34055   5.298   9.043   1.518 -1.1152 -1.0084  0.2522
  994MOL0     O34056   0.408   4.081   2.283  0.2654  0.2972  0.4141
  994MOL0     C34057   0.325   4.147   2.338  0.5096  0.2932 -0.9595
  994MOL0     O34058   0.193   4.124   2.345 -0.2997 -0.3786  0.9515
  994MOL0     C34059   0.126   4.004   2.317  0.7804  0.6196  0.1002
  994MOL0     C34060  -0.014   4.016   2.282 -0.1573  0.2493 -0.2138
  994MOL0     C34061  -0.092   3.898   2.245 -0.5495  0.1739 -0.2688
  994MOL0     C34062  -0.028   3.768   2.265 -0.2690 -0.2401  0.5193
  994MOL0     O34063  -0.099   3.652   2.242  0.5361  0.3751 -0.0090
  994MOL0     C34064  -0.205   3.623   2.350 -1.0375  0.6285 -0.3425
  994MOL0     C34065  -0.138   3.522   2.440  0.2891 -0.2810  0.3305
  994MOL0     C34066  -0.217   3.500   2.572  0.5939  1.1137 -0.1052
  994MOL0     C34067  -0.368   3.522   2.565 -0.4969 -0.9025  0.0658
  994MOL0     C34068  -0.430   3.501   2.706  0.9903 -0.0251  0.8886
  994MOL0     C34069  -0.568   3.562   2.718 -0.1442  0.1042  0.4312
  994MOL0     C34070  -0.639   3.542   2.847  0.0142  0.9045 -0.1558
  994MOL0     C34071  -0.673   3.391   2.876  0.7875 -0.7786  0.9025
  994MOL0     N34072  -0.726   3.372   3.010  0.1904 -0.0152 -0.0072
  994MOL0     C34073  -0.856   3.374   3.047  0.0686  0.6469 -0.1176
  994MOL0     C34074  -0.857   3.334   3.180  0.0773 -0.5029 -0.0775
  994MOL0     C34075  -0.984   3.315   3.260 -0.6164  0.4154  0.1191
  994MOL0     C34076  -0.979   3.210   3.370  0.0691  0.1852  0.2008
  994MOL0     C34077  -1.111   3.208   3.447 -0.5467  0.6970 -0.0487
  994MOL0     C34078  -1.150   3.323   3.532 -0.0459 -0.1294  0.0235
  994MOL0     O34079  -1.285   3.313   3.566 -0.0363 -0.2984 -0.0793
  994MOL0     C34080  -1.388   3.319   3.480 -0.1957 -0.1451 -0.0823
  994MOL0     C34081  -1.498   3.241   3.512  0.1293  0.1771  0.8193
  994MOL0     C34082  -1.612   3.221   3.428 -0.2408 -0.6272 -0.1171
  994MOL0     C34083  -1.712   3.118   3.456 -1.2840 -0.1385  0.1885
  994MOL0     C34084  -1.611   3.293   3.302 -0.2302  0.4037  0.7501
  994MOL0     C34085  -1.708   3.283   3.192  0.3774 -1.0023  0.3089
  994MOL0     O34086  -1.679   3.325   3.059  0.7276  0.0287  0.6431
  994MOL0     C34087  -1.780   3.392   2.992  0.1642 -0.7213 -0.3061
  994MOL0     C34088  -1.831   3.339   2.872  0.5601 -0.2436 -0.5719
  994MOL0     C34089  -1.930   3.410   2.804  0.0035  0.0843  0.8119
  994MOL0     C34090  -1.986   3.529   2.849 -0.0436  0.2953 -0.8752
  994MOL0     O34091  -2.073   3.605   2.776 -0.2845  0.1411  0.0288
  994MOL0     C34092  -2.134   3.540   2.664  0.0382 -0.1300  0.3186
  994MOL0     C34093  -2.266   3.607   2.632  0.5335  0.5260 -0.1289
  994MOL0     C34094  -2.257   3.756   2.585  0.5543 -0.5526 -0.3606
  994MOL0     C34095  -2.208   3.768   2.441  0.1179  0.4497 -0.0970
  994MOL0     C34096  -2.160   3.911   2.401 -0.5663  0.0945  0.3727
  994MOL0     C34097  -2.264   4.015   2.411  0.4825 -0.6991 -0.6856
  994MOL0     C34098  -2.395   3.981   2.331  0.1325 -0.1098 -0.0111
  994MOL0     C34099  -2.370   3.972   2.176  0.4253 -0.5229 -0.6273
  994MOL0    Cl34100  -2.334   4.142   2.116  0.4388  0.0799  0.0679
  994MOL0     C34101  -1.936   3.569   2.973 -0.3435  0.4330 -0.1816
  994MOL0     C34102  -1.838   3.503   3.050 -1.0449 -0.2841  0.7068
  994MOL0     O34103  -1.811   3.222   3.218 -0.0045  0.5705 -0.3148
  994MOL0     C34104  -1.498   3.381   3.269 -0.2135  0.3087  0.3734
  994MOL0     C34105  -1.387   3.390   3.355  0.4865  0.0665 -0.1683
  994MOL0     N34106  -0.729   3.328   3.229 -0.2939 -0.1653  0.7183
  994MOL0     N34107  -0.650   3.356   3.124  0.1088  0.6217 -0.6174
  994MOL0     C34108   0.108   3.762   2.293 -0.8769  0.3246 -0.2905
  994MOL0     C34109   0.185   3.874   2.323 -0.2309  0.8128 -0.1594
  994MOL0     C34110   0.372   4.278   2.388  0.3751  0.4369 -0.1874
  994MOL0     C34111   0.293   4.358   2.473 -0.3073  0.8004  0.0354
  994MOL0     C34112   0.328   4.487   2.512 -0.0909  0.2523  0.7933
  994MOL0     C34113   0.446   4.550   2.467  0.2534 -1.0488  0.4399
  994MOL0     O34114   0.483   4.678   2.513 -0.2904  0.3373  0.7507
  994MOL0     C34115   0.611   4.733   2.472 -0.3700 -1.3818  0.0140
  994MOL0     C34116   0.661   4.809   2.598 -1.0344 -0.0468  0.6174
  994MOL0     C34117   0.792   4.887   2.550 -0.0159 -0.4667  0.0305
  994MOL0     C34118   0.875   4.951   2.663  1.0279  0.3826  0.1795
  994MOL0     C34119   0.947   4.851   2.730 -0.3054 -0.4135 -0.1779
  994MOL0     C34120   0.998   4.750   2.763  0.3947 -0.1621 -0.4273
  994MOL0     C34121   0.523   4.466   2.384 -0.2779 -0.0099  0.1331
  994MOL0     C34122   0.487   4.337   2.350  0.2314  0.2051 -0.2408
  994MOL0     H34123  -0.058   4.115   2.279  1.6094  1.0471 -0.9732
  994MOL0     H34124  -0.194   3.905   2.209  0.4306  2.3868 -3.0074
  994MOL0     H34125  -0.220   3.724   2.389  1.9738  0.7678  0.6433
  994MOL0     H34126  -0.297   3.574   2.315 -0.8666  1.1125 -1.5105
  994MOL0     H34127  -0.132   3.423   2.394  0.7480 -0.9984  1.8834
  994MOL0     H34128  -0.038   3.552   2.473  0.7506 -1.8573  0.4575
  994MOL0     H34129  -0.204   3.395   2.600  2.9567  0.7459 -2.2733
  994MOL0     H34130  -0.178   3.563   2.652  0.8441  1.3893 -0.4395
  994MOL0     H34131  -0.383   3.626   2.534 -1.2772 -1.0423 -0.0481
  994MOL0     H34132  -0.416   3.454   2.495 -1.1633 -1.9298  1.4700
  994MOL0     H34133  -0.438   3.396   2.734 -2.2246  0.1703  1.0684
  994MOL0     H34134  -0.365   3.554   2.777  2.8066 -0.3019 -0.5037
  994MOL0     H34135  -0.553   3.670   2.721  1.4763 -0.0929  2.9206
  994MOL0     H34136  -0.637   3.534   2.638 -0.6160  1.7849  0.2220
  994MOL0     H34137  -0.567   3.577   2.921  1.4036 -0.7231 -0.6553
  994MOL0     H34138  -0.722   3.609   2.868 -0.4850 -0.2162  1.6893
  994MOL0     H34139  -0.585   3.326   2.870  0.8259 -0.5798 -2.0993
  994MOL0     H34140  -0.733   3.351   2.794  0.6141 -0.8343  1.0531
  994MOL0     H34141  -0.947   3.392   2.990  0.1558  0.4372 -0.3230
  994MOL0     H34142  -1.029   3.409   3.295 -1.6595 -0.3764  0.9454
  994MOL0     H34143  -1.041   3.273   3.177  0.8042  0.3428 -0.8542
  994MOL0     H34144  -0.889   3.225   3.430 -0.0895 -3.9501  1.8290
  994MOL0     H34145  -0.973   3.111   3.323  0.2992  1.3959 -2.4717
  994MOL0     H34146  -1.112   3.120   3.512 -2.0186  0.6146 -0.1522
  994MOL0     H34147  -1.188   3.191   3.372  2.6310  2.2223 -4.0078
  994MOL0     H34148  -1.136   3.411   3.468 -0.8278 -2.5498 -3.8278
  994MOL0     H34149  -1.089   3.336   3.622 -0.6180 -1.2132  0.5875
  994MOL0     H34150  -1.487   3.203   3.613 -3.5166  1.5305  1.8734
  994MOL0     H34151  -1.670   3.048   3.529 -1.8162  1.1967  1.8357
  994MOL0     H34152  -1.794   3.165   3.510  0.1495  2.2712  0.4072
  994MOL0     H34153  -1.736   3.050   3.374 -0.3335 -1.0093  0.6027
  994MOL0     H34154  -1.793   3.245   2.835 -1.0071 -0.3399 -2.0624
  994MOL0     H34155  -1.952   3.377   2.703  2.0023  3.1176 -0.7685
  994MOL0     H34156  -2.061   3.539   2.582  2.3441  0.9110  2.1977
  994MOL0     H34157  -2.160   3.439   2.695  0.0183  0.3386  1.9512
  994MOL0     H34158  -2.328   3.551   2.561  1.4886 -0.0701 -0.5070
  994MOL0     H34159  -2.322   3.603   2.726 -0.3471 -1.4752 -0.6664
  994MOL0     H34160  -2.189   3.819   2.644 -1.9850  0.8432  1.2421
  994MOL0     H34161  -2.355   3.803   2.602  0.3749 -1.2755  0.7302
  994MOL0     H34162  -2.126   3.696   2.433  0.4988  1.0870 -3.4978
  994MOL0     H34163  -2.287   3.741   2.371 -0.4209  2.4797 -0.3367
  994MOL0     H34164  -2.122   3.893   2.301 -2.3528 -0.6609 -0.2140
  994MOL0     H34165  -2.083   3.943   2.471 -1.2485  1.0130  0.7346
  994MOL0     H34166  -2.294   4.029   2.515  0.7507 -0.2966 -0.6623
  994MOL0     H34167  -2.238   4.114   2.374 -1.5507 -0.9735 -3.2202
  994MOL0     H34168  -2.466   4.061   2.352  0.5928  0.9146 -2.1364
  994MOL0     H34169  -2.437   3.893   2.381  0.9875  0.1391  1.2023
  994MOL0     H34170  -2.469   3.950   2.134 -1.1163 -0.5699  2.7552
  994MOL0     H34171  -2.296   3.892   2.169  1.3398  0.2110  0.3413
  994MOL0     H34172  -1.978   3.662   3.010 -1.0528  0.5241 -1.1836
  994MOL0     H34173  -1.822   3.557   3.142 -4.7297  2.8744 -0.2129
  994MOL0     H34174  -1.485   3.436   3.176 -0.1748 -1.6633 -0.8427
  994MOL0     H34175  -1.296   3.443   3.332  0.0695 -0.5419 -3.8307
  994MOL0     H34176   0.158   3.666   2.301  1.0184  1.3340  0.7154
  994MOL0     H34177   0.291   3.868   2.346  0.0885  2.4990 -1.0220
  994MOL0     H34178   0.206   4.309   2.516 -0.3454  0.3120 -0.5840
  994MOL0     H34179   0.274   4.545   2.586  0.4509 -2.1595  3.2318
  994MOL0     H34180   0.693   4.661   2.464  0.5644 -0.8660  3.3302
  994MOL0     H34181   0.604   4.799   2.385  0.3064 -0.2614  0.7926
  994MOL0     H34182   0.680   4.740   2.680 -3.0620 -2.9730 -1.1981
  994MOL0     H34183   0.590   4.885   2.631 -1.1243 -0.1153  0.5803
  994MOL0     H34184   0.772   4.968   2.480  1.9603 -0.8512 -1.0420
  994MOL0     H34185   0.859   4.819   2.497  1.3610  0.0473  1.0449
  994MOL0     H34186   0.814   4.998   2.741  2.9892  0.9771  1.4181
  994MOL0     H34187   0.946   5.027   2.631  1.6529  0.3631  1.4826
  994MOL0     H34188   1.051   4.664   2.797  2.4166  0.5512 -1.6244
  994MOL0     H34189   0.620   4.505   2.354 -0.3064  0.7382  0.9681
  994MOL0     H34190   0.558   4.292   2.282  0.3604  1.0511 -0.6825
  995MOL0     O34191   9.066   2.430   2.975  0.7820  0.3603  0.8090
  995MOL0     C34192   9.056   2.310   2.956 -0.0126  0.1241 -0.2696
  995MOL0     O34193   8.940   2.240   2.971 -0.3315  0.3412  0.9734
  995MOL0     C34194   8.823   2.303   3.013  0.3230 -0.4141 -0.7164
  995MOL0     C34195   8.775   2.286   3.143  0.7760  0.1184 -0.4951
  995MOL0     C34196   8.656   2.348   3.190 -0.3515 -0.3128 -0.4346
  995MOL0     C34197   8.594   2.431   3.099  0.9430 -0.4133  0.1833
  995MOL0     O34198   8.487   2.510   3.149 -0.1372  0.1876 -0.4015
  995MOL0     C34199   8.519   2.649   3.173  0.7441  0.0783  0.9339
  995MOL0     C34200   8.443   2.728   3.075  0.0138  1.1983  0.6203
  995MOL0     C34201   8.376   2.858   3.119 -0.0468 -0.5362  0.3398
  995MOL0     C34202   8.473   2.973   3.155  0.7132 -0.3817  0.2571
  995MOL0     C34203   8.414   3.073   3.252  0.1649  0.0653  0.3887
  995MOL0     C34204   8.291   3.147   3.191  0.3726 -0.2207 -0.3795
  995MOL0     C34205   8.165   3.072   3.212  0.6791 -0.2247 -0.0079
  995MOL0     C34206   8.053   3.173   3.195 -0.0182  0.2745  0.1745
  995MOL0     N34207   8.028   3.199   3.052  0.2935 -0.2437 -0.2016
  995MOL0     C34208   7.994   3.112   2.956  1.1527  0.5880 -0.3480
  995MOL0     C34209   7.939   3.182   2.848  0.2423  0.4759 -0.1290
  995MOL0     C34210   7.879   3.118   2.730 -0.6691 -0.4821 -0.2886
  995MOL0     C34211   7.726   3.125   2.739  0.1467  0.4313  1.1021
  995MOL0     C34212   7.664   3.017   2.640 -0.7148 -0.2971  0.5985
  995MOL0     C34213   7.514   3.005   2.664  1.0015  0.3088 -0.0654
  995MOL0     O34214   7.437   3.121   2.634 -1.1571  0.1745  0.5608
  995MOL0     C34215   7.301   3.116   2.614  0.1246  0.5107  0.5615
  995MOL0     C34216   7.248   3.215   2.532  0.1144 -0.1029 -0.0125
  995MOL0     C34217   7.112   3.237   2.512  0.0526  0.2700 -0.1123
  995MOL0     C34218   7.076   3.344   2.412 -0.0627  0.4596  0.2012
  995MOL0     C34219   7.020   3.148   2.584 -0.1999  0.0943 -0.0641
  995MOL0     C34220   6.872   3.172   2.601 -0.3329  0.2683 -0.4498
  995MOL0     O34221   6.789   3.063   2.604 -0.7451  0.9103  0.4203
  995MOL0     C34222   6.656   3.074   2.619  0.0276  0.6098 -0.4719
  995MOL0     C34223   6.604   3.005   2.728  0.3558  0.6658  1.0807
  995MOL0     C34224   6.466   3.014   2.750 -0.5811  0.0102  0.0792
  995MOL0     C34225   6.384   3.082   2.666  0.6083 -0.6357 -0.1109
  995MOL0     O34226   6.247   3.098   2.680  0.1988 -0.5975  0.8836
  995MOL0     C34227   6.161   2.996   2.733  0.6306  1.1465 -0.3182
  995MOL0     C34228   6.027   2.995   2.672  0.0329 -0.2049  0.1713
  995MOL0     C34229   5.945   3.131   2.702 -1.0352  1.0724  1.1436
  995MOL0     C34230   5.793   3.105   2.688 -0.1671  0.1139  0.1745
  995MOL0     C34231   5.727   3.178   2.570 -0.3696 -0.3960 -0.9148
  995MOL0     C34232   5.577   3.160   2.583  0.0400 -0.8439  0.2000
  995MOL0     C34233   5.500   3.231   2.470 -0.4417  0.1891 -0.0572
  995MOL0     C34234   5.346   3.223   2.504 -0.1636  0.3488  0.0435
  995MOL0    Cl34235   5.255   3.310   2.375  0.3981 -0.4097  0.2477
  995MOL0     C34236   6.434   3.143   2.551 -1.1890 -0.6266  0.2435
  995MOL0     C34237   6.576   3.140   2.532  0.2715  0.0886  0.2458
  995MOL0     O34238   6.826   3.288   2.599 -0.4595  0.4190  0.4957
  995MOL0     C34239   7.077   3.040   2.655  1.2046  0.3342 -0.0345
  995MOL0     C34240   7.213   3.026   2.670  0.5473 -0.4260 -0.9885
  995MOL0     N34241   7.958   3.319   2.874 -0.0855 -0.8222 -0.7675
  995MOL0     N34242   8.004   3.324   2.999 -0.0578  0.1539 -0.6398
  995MOL0     C34243   8.638   2.452   2.966  0.6646  0.9079 -0.4279
  995MOL0     C34244   8.744   2.373   2.918  0.4623  0.4339 -0.3474
  995MOL0     C34245   9.173   2.245   2.907 -0.8261 -0.3883 -0.8967
  995MOL0     C34246   9.190   2.101   2.905  1.0192 -0.0586  0.1254
  995MOL0     C34247   9.308   2.044   2.879  0.4948  0.3335 -0.3131
  995MOL0     C34248   9.417   2.113   2.831  0.4842 -0.2609 -0.2679
  995MOL0     O34249   9.539   2.061   2.785  0.5002  0.1203 -0.1099
  995MOL0     C34250   9.550   1.917   2.777  0.4412 -0.6991 -0.3613
  995MOL0     C34251   9.697   1.890   2.754 -0.2960  0.4168  0.3105
  995MOL0     C34252   9.791   1.955   2.855 -0.0698  0.0736  0.2280
  995MOL0     C34253   9.920   1.885   2.863 -0.0982  0.4760 -0.8894
  995MOL0     C34254  10.000   1.935   2.976  0.0335  0.9994 -0.1582
  995MOL0     C34255  10.051   1.967   3.089 -0.1083  0.0365  0.3228
  995MOL0     C34256   9.402   2.252   2.829  0.1782 -0.6848  0.1268
  995MOL0     C34257   9.285   2.322   2.867  0.1135  0.4553 -0.7487
  995MOL0     H34258   8.834   2.212   3.197 -1.6121 -1.4958  0.0606
  995MOL0     H34259   8.614   2.332   3.288 -1.7707  1.0716 -0.7752
  995MOL0     H34260   8.465   2.664   3.267  0.7306 -0.3302  0.9922
  995MOL0     H34261   8.624   2.681   3.176  1.2920 -1.6602  1.3032
  995MOL0     H34262   8.519   2.753   3.000 -0.7309  0.9168 -0.2440
  995MOL0     H34263   8.375   2.668   3.015  0.6221  0.5892  0.5276
  995MOL0     H34264   8.313   2.897   3.039  1.1959  1.8364  0.4291
  995MOL0     H34265   8.308   2.831   3.201  0.8576 -3.1641  0.3116
  995MOL0     H34266   8.569   2.938   3.192  0.6474  0.5244  1.3399
  995MOL0     H34267   8.489   3.012   3.054  0.4290 -2.1663 -0.5111
  995MOL0     H34268   8.380   3.030   3.347 -3.7377  0.3723 -0.7190
  995MOL0     H34269   8.479   3.156   3.280 -3.6386  3.4709 -0.0226
  995MOL0     H34270   8.289   3.254   3.210 -0.8367 -0.3845  0.5444
  995MOL0     H34271   8.313   3.138   3.084 -1.5108 -1.5289 -0.7288
  995MOL0     H34272   8.150   2.988   3.143  3.6515 -0.0090 -1.0331
  995MOL0     H34273   8.151   3.038   3.316 -1.2308 -1.1124 -0.5016
  995MOL0     H34274   8.072   3.266   3.250  1.3242  1.5911 -2.3166
  995MOL0     H34275   7.959   3.131   3.233 -0.1420  1.0964  0.8076
  995MOL0     H34276   7.994   3.003   2.956  3.2756  0.5532 -0.8139
  995MOL0     H34277   7.914   3.193   2.659  0.1064  1.2546  1.8311
  995MOL0     H34278   7.925   3.023   2.700 -0.7100 -0.3678 -0.7288
  995MOL0     H34279   7.686   3.222   2.709 -0.6180 -0.1706  0.1259
  995MOL0     H34280   7.699   3.108   2.844 -0.4518 -1.9742  0.6118
  995MOL0     H34281   7.708   2.920   2.665  1.6723  1.1948  2.6158
  995MOL0     H34282   7.679   3.034   2.533 -0.8591  0.1781  0.6504
  995MOL0     H34283   7.489   2.979   2.767 -0.4313 -2.6391 -1.0194
  995MOL0     H34284   7.477   2.927   2.597 -0.5051  0.1853  0.8622
  995MOL0     H34285   7.308   3.291   2.483 -2.3651  1.9660 -0.0347
  995MOL0     H34286   6.974   3.328   2.377 -0.6014 -0.5434  2.1155
  995MOL0     H34287   7.077   3.438   2.468  0.8958  1.4152 -1.3502
  995MOL0     H34288   7.136   3.349   2.320 -1.3752  0.1314 -0.7080
  995MOL0     H34289   6.666   2.950   2.798  1.9250  1.9876  0.7843
  995MOL0     H34290   6.426   2.966   2.839  2.1555 -2.6718  0.0117
  995MOL0     H34291   6.210   2.900   2.712 -0.9427 -0.1779  1.6877
  995MOL0     H34292   6.142   2.994   2.841  1.4212 -2.0648 -0.1208
  995MOL0     H34293   6.034   2.979   2.564  0.6408  0.2653  0.1398
  995MOL0     H34294   5.969   2.922   2.729 -1.7147  2.4764  2.0849
  995MOL0     H34295   5.973   3.213   2.634 -0.4423  1.6917  2.1125
  995MOL0     H34296   5.969   3.160   2.805 -0.8522 -0.1589  1.4550
  995MOL0     H34297   5.763   3.000   2.684  1.1747 -0.3554  1.5247
  995MOL0     H34298   5.758   3.149   2.782 -0.1256  0.1505  0.1729
  995MOL0     H34299   5.758   3.128   2.478 -0.0157  1.5039 -1.8780
  995MOL0     H34300   5.751   3.285   2.566 -0.2645 -0.3329  0.7175
  995MOL0     H34301   5.559   3.052   2.578 -1.8649 -0.6598  1.7925
  995MOL0     H34302   5.546   3.214   2.673  0.8045 -0.9910  0.5618
  995MOL0     H34303   5.527   3.170   2.383  2.6909  0.1771  0.8252
  995MOL0     H34304   5.549   3.329   2.462  0.8930 -0.0966  3.2675
  995MOL0     H34305   5.336   3.270   2.603  0.9360 -0.7357  0.7055
  995MOL0     H34306   5.304   3.123   2.513 -1.1160  0.5660 -1.6641
  995MOL0     H34307   6.370   3.211   2.496 -0.2343  0.1550  0.0556
  995MOL0     H34308   6.604   3.196   2.442 -0.0279  0.4827  0.3950
  995MOL0     H34309   7.011   2.977   2.714  2.0385 -0.9803 -0.4776
  995MOL0     H34310   7.255   2.958   2.743  2.2088  2.0215  0.4943
  995MOL0     H34311   8.586   2.527   2.907 -0.8482  1.4415  1.4708
  995MOL0     H34312   8.781   2.387   2.817  1.1202 -0.0297 -0.1784
  995MOL0     H34313   9.107   2.033   2.924  2.1993 -1.4865  0.4232
  995MOL0     H34314   9.311   1.938   2.903 -0.4573  0.2740 -0.4349
  995MOL0     H34315   9.519   1.875   2.874 -2.9180  1.9645 -0.0764
  995MOL0     H34316   9.494   1.875   2.694 -1.9943  3.4539 -1.1229
  995MOL0     H34317   9.728   1.916   2.653  0.6179 -2.0972 -0.1365
  995MOL0     H34318   9.716   1.782   2.763  1.3398  0.8306  2.5825
  995MOL0     H34319   9.743   1.950   2.952  1.3997 -1.2412  0.9346
  995MOL0     H34320   9.798   2.061   2.827 -3.1154 -0.1148 -1.6622
  995MOL0     H34321   9.979   1.878   2.771 -0.9155 -1.9624 -1.2753
  995MOL0     H34322   9.912   1.779   2.889  3.0297  0.2389 -0.4248
  995MOL0     H34323  10.099   1.987   3.183  0.7770 -0.0873 -0.0923
  995MOL0     H34324   9.490   2.303   2.791 -2.0863  1.6779 -2.3741
  995MOL0     H34325   9.292   2.428   2.891  0.5157 -0.3902  3.5829
  996MOL0     O34326   1.121   1.166   5.482  0.6356  0.7530  0.2421
  996MOL0     C34327   1.083   1.053   5.465  1.0477  0.5895 -0.2255
  996MOL0     O34328   0.957   1.009   5.476 -0.5200 -0.0296 -0.8483
  996MOL0     C34329   0.847   1.088   5.477  0.2480 -0.2505  0.6551
  996MOL0     C34330   0.839   1.228   5.490 -0.2536  0.0183  0.4598
  996MOL0     C34331   0.711   1.292   5.486  0.4028 -0.1948 -0.5428
  996MOL0     C34332   0.588   1.213   5.486  0.3394 -1.3738 -0.4120
  996MOL0     O34333   0.469   1.294   5.505 -0.1154  0.2407 -0.3175
  996MOL0     C34334   0.358   1.244   5.577  0.2027 -0.1782  0.1218
  996MOL0     C34335   0.239   1.333   5.545 -0.2962  0.4283 -0.5192
  996MOL0     C34336   0.173   1.325   5.411 -0.3992  0.0496  0.0932
  996MOL0     C34337   0.039   1.377   5.410 -0.0904 -0.1421  0.1835
  996MOL0     C34338  -0.022   1.363   5.266  0.0941  0.8005 -0.1277
  996MOL0     C34339  -0.163   1.431   5.263 -0.4181 -0.3173  0.9492
  996MOL0     C34340  -0.278   1.345   5.317  0.2175 -0.7778  0.5008
  996MOL0     C34341  -0.411   1.399   5.248 -0.5289  0.3189 -0.2311
  996MOL0     N34342  -0.526   1.326   5.304 -0.1220 -0.2785 -0.4675
  996MOL0     C34343  -0.575   1.213   5.254  0.2140  0.2862  0.8958
  996MOL0     C34344  -0.679   1.186   5.325  0.2801  0.8806  0.0474
  996MOL0     C34345  -0.764   1.054   5.303  0.1810  0.0534  0.2506
  996MOL0     C34346  -0.837   1.015   5.434  0.1092 -0.5601 -0.0876
  996MOL0     C34347  -0.978   1.071   5.441  0.6277 -0.0997  0.3148
  996MOL0     C34348  -1.083   0.992   5.380 -0.1540 -0.3425  0.4400
  996MOL0     O34349  -1.214   1.053   5.348  0.4490 -0.5788  0.2363
  996MOL0     C34350  -1.293   0.977   5.263  0.0669 -0.3365  0.4544
  996MOL0     C34351  -1.262   0.942   5.127 -0.0990  0.5263 -0.7066
  996MOL0     C34352  -1.356   0.867   5.048  0.6832 -0.6085 -0.3360
  996MOL0     C34353  -1.312   0.808   4.922 -1.0706  0.4220 -0.0942
  996MOL0     C34354  -1.480   0.829   5.101  0.1274  0.3144 -0.3588
  996MOL0     C34355  -1.588   0.769   5.020 -0.3080  0.5253 -0.0658
  996MOL0     O34356  -1.693   0.722   5.110  0.1410 -0.1750  0.1836
  996MOL0     C34357  -1.792   0.646   5.054  0.7675 -0.2435  0.7815
  996MOL0     C34358  -1.915   0.691   5.084  1.5890 -0.2169 -0.2551
  996MOL0     C34359  -2.033   0.629   5.036  1.3021 -0.2728  1.4391
  996MOL0     C34360  -2.030   0.528   4.936  0.1858  0.2548  0.0067
  996MOL0     O34361  -2.135   0.449   4.886  0.0084  0.0368  0.0613
  996MOL0     C34362  -2.268   0.495   4.902  0.0465 -0.6938 -0.1314
  996MOL0     C34363  -2.343   0.393   4.992  0.4896 -0.9662  0.9437
  996MOL0     C34364  -2.313   0.407   5.139  0.0218 -0.4924  1.2712
  996MOL0     C34365  -2.377   0.288   5.220  0.1548  0.0202  0.1793
  996MOL0     C34366  -2.519   0.317   5.276  0.2406 -0.1954  0.1281
  996MOL0     C34367  -2.582   0.184   5.318 -0.2049  0.9380 -0.1682
  996MOL0     C34368  -2.731   0.204   5.372 -0.1574  0.8403 -0.7493
  996MOL0     C34369  -2.846   0.245   5.283 -0.1733  1.0609 -0.2173
  996MOL0    Cl34370  -2.873   0.123   5.148  0.1187  0.2998 -0.1325
  996MOL0     C34371  -1.899   0.482   4.913  0.2104  0.3694  0.6802
  996MOL0     C34372  -1.779   0.538   4.967  0.2956  0.1652 -0.8232
  996MOL0     O34373  -1.592   0.764   4.897  0.4790  0.5722 -0.4671
  996MOL0     C34374  -1.506   0.857   5.243  0.5605 -0.4819 -0.0054
  996MOL0     C34375  -1.412   0.929   5.316 -0.4388 -0.3424 -0.5307
  996MOL0     N34376  -0.704   1.291   5.408  1.0946  0.0229  0.2644
  996MOL0     N34377  -0.605   1.371   5.396 -0.2378 -1.0287 -1.0089
  996MOL0     C34378   0.601   1.069   5.489 -0.2558  0.3479 -0.0208
  996MOL0     C34379   0.727   1.011   5.489  0.1920 -0.0779 -0.6451
  996MOL0     C34380   1.189   0.952   5.442  0.9345  0.0682 -0.9736
  996MOL0     C34381   1.320   0.985   5.417 -0.2111  0.0567 -0.2854
  996MOL0     C34382   1.417   0.888   5.376  0.5442  0.6459 -0.7849
  996MOL0     C34383   1.374   0.756   5.368 -0.7674 -0.3421  0.3535
  996MOL0     O34384   1.452   0.656   5.310 -0.5958 -0.3087  0.5830
  996MOL0     C34385   1.593   0.679   5.289 -0.0855 -1.5696  0.2411
  996MOL0     C34386   1.654   0.550   5.232  0.2384 -0.1441  1.0668
  996MOL0     C34387   1.798   0.562   5.194  0.5474  0.3445 -0.2574
  996MOL0     C34388   1.859   0.438   5.123  0.6531 -0.1270  0.0251
  996MOL0     C34389   1.994   0.459   5.067 -0.5187 -0.4043  0.7462
  996MOL0     C34390   2.101   0.484   5.013  0.0088  0.6386  0.0213
  996MOL0     C34391   1.244   0.723   5.400  0.4382  0.2235 -0.6602
  996MOL0     C34392   1.151   0.817   5.439 -0.1607 -0.0961  0.5190
  996MOL0     H34393   0.928   1.287   5.472 -0.5571 -0.0988 -1.6353
  996MOL0     H34394   0.697   1.399   5.491  1.5575 -0.0440 -0.4041
  996MOL0     H34395   0.334   1.141   5.550 -3.0114 -0.4158  3.0729
  996MOL0     H34396   0.382   1.252   5.684 -1.4858  0.6014  0.4756
  996MOL0     H34397   0.165   1.306   5.621 -0.6082 -0.9265 -1.2753
  996MOL0     H34398   0.280   1.435   5.548  1.7022 -0.2907 -1.3610
  996MOL0     H34399   0.238   1.373   5.337  1.3829 -1.3421  0.6806
  996MOL0     H34400   0.170   1.221   5.377  0.7964 -0.7142  2.1598
  996MOL0     H34401  -0.025   1.336   5.489  1.0912  2.6360  2.7546
  996MOL0     H34402   0.044   1.486   5.416  1.2918 -0.1021 -1.1175
  996MOL0     H34403   0.054   1.400   5.197 -1.0930 -0.2185 -2.0964
  996MOL0     H34404  -0.037   1.257   5.241  2.1607 -0.1468  2.2289
  996MOL0     H34405  -0.152   1.530   5.308  2.6857 -0.2475  0.2576
  996MOL0     H34406  -0.174   1.445   5.155  2.4484  0.9935  0.7290
  996MOL0     H34407  -0.275   1.245   5.274 -3.6071 -0.3276 -1.2595
  996MOL0     H34408  -0.286   1.351   5.426 -3.6356 -1.4859  0.3935
  996MOL0     H34409  -0.405   1.383   5.140 -0.1134  1.2155 -0.3467
  996MOL0     H34410  -0.407   1.507   5.264 -0.0520  0.0451  1.7951
  996MOL0     H34411  -0.526   1.150   5.180  0.1457  2.4755 -1.1321
  996MOL0     H34412  -0.835   1.072   5.221  1.9053 -0.6065 -1.4680
  996MOL0     H34413  -0.725   0.957   5.270 -5.1333 -2.5491  0.5249
  996MOL0     H34414  -0.787   1.069   5.515 -1.5749  0.5197  0.2772
  996MOL0     H34415  -0.839   0.906   5.446  1.0333 -0.5778  0.0207
  996MOL0     H34416  -0.969   1.163   5.382  0.2105 -1.1140 -1.3834
  996MOL0     H34417  -1.009   1.076   5.546  0.4980 -0.0287  0.2724
  996MOL0     H34418  -1.119   0.917   5.451 -3.9647 -1.4279 -2.3641
  996MOL0     H34419  -1.043   0.938   5.294 -0.4488 -1.5498  1.0319
  996MOL0     H34420  -1.176   0.984   5.075 -2.2200  2.8820 -2.5289
  996MOL0     H34421  -1.209   0.842   4.908 -1.6795  2.8768  0.8163
  996MOL0     H34422  -1.323   0.700   4.930 -3.5344  0.6638  0.4903
  996MOL0     H34423  -1.372   0.847   4.839  2.4322  1.0026 -2.5927
  996MOL0     H34424  -1.930   0.765   5.162 -2.4163  1.6900 -2.5418
  996MOL0     H34425  -2.125   0.677   5.069  2.5188  3.3161  0.1027
  996MOL0     H34426  -2.281   0.592   4.949  0.8103 -0.5134 -0.2738
  996MOL0     H34427  -2.320   0.494   4.805  0.2871 -0.2613 -0.2658
  996MOL0     H34428  -2.450   0.403   4.971  0.7318 -3.7864 -2.4401
  996MOL0     H34429  -2.330   0.291   4.957  2.7685 -0.4816  0.1907
  996MOL0     H34430  -2.349   0.504   5.176 -0.6926  0.2198 -1.1379
  996MOL0     H34431  -2.205   0.399   5.149  0.3055  1.8213  0.6730
  996MOL0     H34432  -2.380   0.202   5.153 -2.5232 -1.3664  1.8945
  996MOL0     H34433  -2.317   0.260   5.307  0.8385 -0.2065 -0.3627
  996MOL0     H34434  -2.572   0.379   5.202  0.3692  1.7445  1.5794
  996MOL0     H34435  -2.499   0.385   5.360  3.5002  1.1563 -1.5352
  996MOL0     H34436  -2.581   0.105   5.242  2.3754  1.5133 -0.8226
  996MOL0     H34437  -2.527   0.141   5.403  0.8917  4.4388  1.0440
  996MOL0     H34438  -2.725   0.278   5.451 -2.5773  1.1858 -0.8209
  996MOL0     H34439  -2.771   0.119   5.428  2.1491  0.6946  0.8306
  996MOL0     H34440  -2.822   0.342   5.240  0.8964  0.3433 -1.3238
  996MOL0     H34441  -2.938   0.269   5.336  0.9574  3.3063  0.8518
  996MOL0     H34442  -1.885   0.402   4.841 -2.9393 -2.8022  3.2820
  996MOL0     H34443  -1.679   0.512   4.932  0.2080 -0.6494 -0.4842
  996MOL0     H34444  -1.593   0.841   5.307  2.1392  1.2270  2.7248
  996MOL0     H34445  -1.426   0.959   5.419 -0.2516  1.5635 -1.0141
  996MOL0     H34446   0.511   1.009   5.481  0.4527 -0.8056  0.4952
  996MOL0     H34447   0.733   0.903   5.495 -2.0233 -0.1771  1.6045
  996MOL0     H34448   1.357   1.084   5.443 -3.4393  0.7696  2.1051
  996MOL0     H34449   1.518   0.923   5.358  1.5818  1.1326  4.3374
  996MOL0     H34450   1.604   0.760   5.216 -0.4770 -0.5833  1.2517
  996MOL0     H34451   1.637   0.716   5.382  0.7380 -0.0010 -0.7382
  996MOL0     H34452   1.602   0.520   5.142  1.7814  1.8600 -0.6008
  996MOL0     H34453   1.646   0.467   5.303  1.0284 -1.9567 -0.8663
  996MOL0     H34454   1.856   0.586   5.284  0.0726  1.0610 -0.1356
  996MOL0     H34455   1.816   0.643   5.123  2.3529  1.6175  1.5226
  996MOL0     H34456   1.797   0.416   5.036 -1.6936  1.2960  1.2260
  996MOL0     H34457   1.851   0.349   5.185 -0.5874  0.7911  1.2632
  996MOL0     H34458   2.190   0.503   4.956  0.3427 -0.2370  0.2401
  996MOL0     H34459   1.222   0.617   5.403  0.5157  0.2256  0.8099
  996MOL0     H34460   1.053   0.786   5.472  1.3861 -3.6598  2.3445
  997MOL0     O34461   7.595  11.045   6.481 -0.4678 -0.4977  0.6670
  997MOL0     C34462   7.674  10.949   6.483 -0.0440 -0.6743 -0.3880
  997MOL0     O34463   7.638  10.827   6.515 -0.1078  0.4134  0.3639
  997MOL0     C34464   7.503  10.807   6.511 -0.1175 -1.3973 -0.6106
  997MOL0     C34465   7.432  10.772   6.629  0.2897  1.1106  0.1886
  997MOL0     C34466   7.298  10.721   6.620  0.5262  0.4116  0.0524
  997MOL0     C34467   7.232  10.723   6.498  0.6469 -0.0849 -0.2433
  997MOL0     O34468   7.101  10.692   6.496 -0.2708  0.4474 -0.1121
  997MOL0     C34469   7.023  10.697   6.376  0.3729 -0.9042 -0.4739
  997MOL0     C34470   6.880  10.649   6.402 -0.0152  0.0265 -0.8838
  997MOL0     C34471   6.821  10.695   6.539  0.8222  0.6662  0.0191
  997MOL0     C34472   6.824  10.840   6.569  0.1739 -0.4972  0.5728
  997MOL0     C34473   6.749  10.867   6.700 -0.3769  0.6138  0.0460
  997MOL0     C34474   6.765  11.004   6.752 -0.5109 -0.7258 -0.0463
  997MOL0     C34475   6.709  11.007   6.893  0.0373  0.5123  0.9814
  997MOL0     C34476   6.692  11.145   6.955 -0.3888 -0.1966  0.2372
  997MOL0     N34477   6.576  11.219   6.903 -0.2022 -0.0784  0.0846
  997MOL0     C34478   6.567  11.352   6.873  0.8140  0.3518  0.4777
  997MOL0     C34479   6.441  11.367   6.820  0.3178  0.3641  0.3535
  997MOL0     C34480   6.361  11.490   6.772 -0.4626  0.1143 -0.4672
  997MOL0     C34481   6.445  11.618   6.738 -0.3277 -0.1807 -0.4082
  997MOL0     C34482   6.341  11.735   6.727 -0.2449 -0.2154  0.1933
  997MOL0     C34483   6.278  11.740   6.586 -0.1493 -0.1525 -0.5134
  997MOL0     O34484   6.187  11.634   6.551 -0.6831 -0.3491  0.6604
  997MOL0     C34485   6.062  11.617   6.606  0.3404 -0.6615  0.6329
  997MOL0     C34486   5.966  11.720   6.642  0.5736  0.3610  0.0697
  997MOL0     C34487   5.835  11.679   6.684  0.5171 -0.1278  0.2800
  997MOL0     C34488   5.746  11.786   6.727  0.5901  0.5602  0.1400
  997MOL0     C34489   5.787  11.540   6.669 -0.3417 -0.0492  0.4530
  997MOL0     C34490   5.647  11.497   6.697  0.5622  0.8094  0.3413
  997MOL0     O34491   5.625  11.364   6.669  0.0194 -0.3674  0.1346
  997MOL0     C34492   5.495  11.324   6.700 -0.0161 -0.3904  0.7030
  997MOL0     C34493   5.432  11.341   6.834 -0.2179  0.0566 -0.1699
  997MOL0     C34494   5.310  11.289   6.867  0.6456 -0.0984  0.0712
  997MOL0     C34495   5.240  11.218   6.768  0.0981 -0.4665  0.5175
  997MOL0     O34496   5.125  11.140   6.799 -0.1602 -0.2153 -0.4420
  997MOL0     C34497   5.011  11.220   6.813 -0.2317 -0.1149  0.1668
  997MOL0     C34498   4.888  11.145   6.771  0.1297 -0.1536  0.0324
  997MOL0     C34499   4.851  11.151   6.625 -0.4977  0.1567 -0.5640
  997MOL0     C34500   4.886  11.029   6.539 -0.0720 -0.1151 -0.0479
  997MOL0     C34501   4.799  11.003   6.413 -0.8298  0.1226 -0.0092
  997MOL0     C34502   4.653  10.989   6.431 -0.3504  0.3040 -0.2607
  997MOL0     C34503   4.586  10.915   6.315  0.0526 -0.0685 -0.4639
  997MOL0     C34504   4.440  10.896   6.320  0.0380  0.0968 -0.0689
  997MOL0    Cl34505   4.369  10.832   6.472  0.3651 -0.3499  0.1673
  997MOL0     C34506   5.296  11.201   6.638 -0.4636  0.4884  0.2725
  997MOL0     C34507   5.420  11.249   6.607 -0.5260 -0.1414  0.1404
  997MOL0     O34508   5.561  11.577   6.732 -0.2828 -0.6058 -0.1550
  997MOL0     C34509   5.891  11.445   6.635 -0.2165 -0.5844 -0.0479
  997MOL0     C34510   6.017  11.480   6.600 -1.1095  0.0590  0.1383
  997MOL0     N34511   6.373  11.247   6.815 -0.6643 -0.7826 -0.0894
  997MOL0     N34512   6.456  11.163   6.872 -0.0483 -0.1882  1.0372
  997MOL0     C34513   7.304  10.752   6.384 -0.3362  0.4219  0.2476
  997MOL0     C34514   7.438  10.789   6.387 -0.5666 -0.2759 -0.0531
  997MOL0     C34515   7.814  10.978   6.454  0.1244 -0.5295 -0.6406
  997MOL0     C34516   7.907  10.877   6.454 -0.8996 -0.0467 -0.0694
  997MOL0     C34517   8.048  10.912   6.443  0.4069  0.3321 -0.0402
  997MOL0     C34518   8.097  11.047   6.426  0.5418  0.9206 -1.0138
  997MOL0     O34519   8.233  11.050   6.424  0.1293  0.2488 -0.4505
  997MOL0     C34520   8.283  11.011   6.296  0.2311 -0.5182  0.6093
  997MOL0     C34521   8.296  11.131   6.211  0.2229  0.8709  0.8792
  997MOL0     C34522   8.422  11.218   6.228 -0.5623  0.4312  0.4229
  997MOL0     C34523   8.445  11.305   6.106  0.0928 -0.6496 -0.1467
  997MOL0     C34524   8.489  11.227   5.989 -0.5760 -0.9495 -0.1420
  997MOL0     C34525   8.520  11.150   5.899  0.4583  0.4334  0.4738
  997MOL0     C34526   8.004  11.148   6.426  0.6019 -0.0349  0.1972
  997MOL0     C34527   7.863  11.115   6.445  0.0387  0.6079  0.1327
  997MOL0     H34528   7.485  10.771   6.724 -0.1798 -0.7633  0.4752
  997MOL0     H34529   7.237  10.682   6.700 -1.0553 -1.4669 -1.9319
  997MOL0     H34530   7.022  10.801   6.342  2.1656 -1.0774 -1.1932
  997MOL0     H34531   7.065  10.635   6.296  2.8290  1.0208 -0.8176
  997MOL0     H34532   6.807  10.667   6.323 -3.4864 -0.5049  1.9196
  997MOL0     H34533   6.897  10.541   6.413  1.2753  0.4758  4.1056
  997MOL0     H34534   6.715  10.665   6.545  0.4757  2.0441  1.0264
  997MOL0     H34535   6.880  10.654   6.621  1.0672  2.6325  0.8730
  997MOL0     H34536   6.927  10.875   6.570  0.6510 -1.8028  0.0428
  997MOL0     H34537   6.778  10.898   6.488  1.4235  2.5779  1.9270
  997MOL0     H34538   6.644  10.842   6.682  0.5738 -1.7085 -3.1313
  997MOL0     H34539   6.789  10.803   6.779 -2.1827 -1.0974 -0.3544
  997MOL0     H34540   6.872  11.023   6.756 -0.5675 -0.6149  1.5360
  997MOL0     H34541   6.723  11.087   6.693  1.7353  0.2701 -0.3238
  997MOL0     H34542   6.617  10.947   6.892  0.9787 -1.1530 -2.3890
  997MOL0     H34543   6.777  10.948   6.955 -0.4336 -1.2033 -0.0367
  997MOL0     H34544   6.781  11.206   6.936  0.0028  0.0926  2.6765
  997MOL0     H34545   6.678  11.147   7.063 -0.1467  3.4405  0.3314
  997MOL0     H34546   6.637  11.430   6.903  1.4713  0.0626 -0.2933
  997MOL0     H34547   6.305  11.449   6.688 -0.3500 -1.3994  0.1535
  997MOL0     H34548   6.291  11.509   6.854 -1.9900  1.8757 -2.0747
  997MOL0     H34549   6.505  11.604   6.648 -0.4059  0.7457 -0.6183
  997MOL0     H34550   6.519  11.650   6.813  1.0922 -0.5362 -1.6263
  997MOL0     H34551   6.403  11.825   6.730 -2.1747  1.1477  0.4189
  997MOL0     H34552   6.275  11.735   6.814  1.9409 -2.8193  2.0385
  997MOL0     H34553   6.360  11.737   6.513 -1.1345 -1.3611 -1.6146
  997MOL0     H34554   6.213  11.828   6.581 -0.8365 -0.4889  1.5150
  997MOL0     H34555   5.996  11.824   6.649  2.7987 -0.2011 -0.3136
  997MOL0     H34556   5.728  11.771   6.834  1.7142 -0.0318  0.2498
  997MOL0     H34557   5.791  11.886   6.722  1.8803 -0.0698 -1.3706
  997MOL0     H34558   5.650  11.789   6.675 -0.3704 -3.0404  1.3860
  997MOL0     H34559   5.485  11.384   6.919 -0.5401  1.6672 -0.7397
  997MOL0     H34560   5.274  11.290   6.969  2.2385 -3.3867  0.7641
  997MOL0     H34561   5.010  11.243   6.920  1.2066 -0.8277  0.3659
  997MOL0     H34562   5.021  11.313   6.758  0.8021 -0.3678 -0.0999
  997MOL0     H34563   4.906  11.042   6.804  0.4798  0.3398  1.4267
  997MOL0     H34564   4.801  11.189   6.821 -0.5976 -1.1258 -0.3429
  997MOL0     H34565   4.892  11.240   6.577  1.1982  0.6327  1.6270
  997MOL0     H34566   4.742  11.157   6.629 -0.7615 -3.0223  2.0155
  997MOL0     H34567   4.992  11.031   6.513  0.3869 -1.2760  1.5774
  997MOL0     H34568   4.876  10.942   6.604  3.3365 -0.3079  0.3880
  997MOL0     H34569   4.849  10.912   6.379  0.7417  0.6818  0.6744
  997MOL0     H34570   4.818  11.086   6.344  0.0485 -0.6956 -0.7810
  997MOL0     H34571   4.642  10.939   6.528 -0.0025  0.1776 -0.2866
  997MOL0     H34572   4.605  11.086   6.443 -2.2629 -0.6206 -0.0113
  997MOL0     H34573   4.631  10.818   6.295 -1.2559 -1.0942  1.3065
  997MOL0     H34574   4.609  10.983   6.232  0.0537  2.0022  1.1327
  997MOL0     H34575   4.400  10.832   6.241  1.3129  0.5320 -1.1110
  997MOL0     H34576   4.395  10.993   6.301  2.7403  1.2531 -1.1159
  997MOL0     H34577   5.239  11.146   6.565 -2.8851  2.7545  0.2753
  997MOL0     H34578   5.450  11.241   6.503 -1.0946 -1.2177  0.0557
  997MOL0     H34579   5.873  11.339   6.648  1.1655 -0.5940  2.1868
  997MOL0     H34580   6.084  11.400   6.572 -3.1983 -0.8655 -2.7189
  997MOL0     H34581   7.257  10.747   6.286 -3.2480  1.0961  1.4947
  997MOL0     H34582   7.496  10.816   6.299 -1.4287 -2.2615 -1.2897
  997MOL0     H34583   7.883  10.771   6.456  0.1496 -0.3011 -0.3687
  997MOL0     H34584   8.118  10.833   6.421  0.1906 -0.3198  1.5587
  997MOL0     H34585   8.381  10.964   6.305  1.3694  1.3297 -1.2206
  997MOL0     H34586   8.217  10.935   6.253  0.5125 -1.1862  1.3325
  997MOL0     H34587   8.199  11.182   6.216  1.3176  3.0505  1.5413
  997MOL0     H34588   8.308  11.082   6.114  0.5427  2.7632 -0.0796
  997MOL0     H34589   8.512  11.156   6.230 -1.7463 -1.3468  1.5243
  997MOL0     H34590   8.425  11.268   6.325 -2.9437 -1.1115  1.3873
  997MOL0     H34591   8.526  11.373   6.135 -0.7212 -0.0462  0.7551
  997MOL0     H34592   8.357  11.369   6.106 -0.5030 -1.3963  1.8932
  997MOL0     H34593   8.541  11.075   5.826 -1.1384 -1.6503  2.0394
  997MOL0     H34594   8.035  11.250   6.447 -1.8042  1.2223 -1.8408
  997MOL0     H34595   7.793  11.198   6.449  1.7140  2.3025 -2.6440
  998MOL0     O34596   9.903   4.347   3.733 -0.0191  0.2959  0.6945
  998MOL0     C34597   9.822   4.267   3.780 -0.6782 -0.3748  0.5753
  998MOL0     O34598   9.710   4.223   3.727 -0.1815 -0.4918  0.2439
  998MOL0     C34599   9.651   4.265   3.611  0.0279 -0.4760 -0.1623
  998MOL0     C34600   9.649   4.404   3.580 -0.1871 -0.9896  0.4427
  998MOL0     C34601   9.589   4.448   3.463  0.2324 -0.0576 -0.1257
  998MOL0     C34602   9.521   4.366   3.378  0.7250 -0.0134  0.8078
  998MOL0     O34603   9.463   4.416   3.264  0.3654 -0.5767 -0.2033
  998MOL0     C34604   9.333   4.469   3.282  0.7001 -1.1589 -0.1674
  998MOL0     C34605   9.221   4.368   3.264 -0.3133 -0.0224 -0.6199
  998MOL0     C34606   9.077   4.423   3.257 -1.1040  0.6331  0.0831
  998MOL0     C34607   8.963   4.331   3.222  0.6218  0.9554  1.0594
  998MOL0     C34608   8.830   4.405   3.212  0.2383  0.5083  0.2966
  998MOL0     C34609   8.725   4.303   3.213 -0.0148 -0.4823 -0.3368
  998MOL0     C34610   8.580   4.357   3.213 -0.4046  0.5110 -0.1132
  998MOL0     C34611   8.472   4.249   3.230 -0.0042 -0.6834 -0.5110
  998MOL0     N34612   8.353   4.285   3.152  0.4138 -0.0131 -0.1871
  998MOL0     C34613   8.257   4.370   3.187  0.1130 -0.1397 -1.1611
  998MOL0     C34614   8.156   4.349   3.100 -1.2766 -0.0292  0.6217
  998MOL0     C34615   8.010   4.395   3.103 -0.2489  0.8038  0.3058
  998MOL0     C34616   7.955   4.389   3.242 -0.6149  0.3269 -0.6158
  998MOL0     C34617   7.816   4.467   3.246  0.7266 -0.3976 -0.6861
  998MOL0     C34618   7.713   4.407   3.151 -0.8302 -0.2146 -0.5943
  998MOL0     O34619   7.582   4.453   3.176  0.8482 -0.2247 -0.2352
  998MOL0     C34620   7.493   4.364   3.128  0.2702  0.3200 -0.3975
  998MOL0     C34621   7.373   4.351   3.203 -0.3896  0.1573  0.2410
  998MOL0     C34622   7.268   4.269   3.163  0.1060 -0.4424  1.2065
  998MOL0     C34623   7.139   4.288   3.238 -0.0372 -0.4768 -0.7535
  998MOL0     C34624   7.276   4.196   3.040  0.2026 -0.5308 -0.0637
  998MOL0     C34625   7.169   4.103   2.985  1.0674 -0.5595 -0.0602
  998MOL0     O34626   7.187   4.051   2.857  0.7739 -0.4763  0.2494
  998MOL0     C34627   7.072   4.008   2.790  0.1851 -0.0962  0.0042
  998MOL0     C34628   6.988   4.103   2.737 -0.4536 -0.7839 -0.9330
  998MOL0     C34629   6.877   4.074   2.659 -0.1480  0.0617  0.1334
  998MOL0     C34630   6.826   3.943   2.664 -0.2660  0.8469 -1.1448
  998MOL0     O34631   6.708   3.910   2.608  0.6777  0.0083  0.2789
  998MOL0     C34632   6.623   4.022   2.590 -0.0913 -0.7334  0.4101
  998MOL0     C34633   6.488   3.976   2.598 -0.2869  0.0015 -0.2083
  998MOL0     C34634   6.440   3.916   2.467  0.4236  0.4914 -0.4418
  998MOL0     C34635   6.281   3.891   2.463  0.2182  0.0779 -0.8425
  998MOL0     C34636   6.220   3.857   2.327  0.0757  0.0040  1.1898
  998MOL0     C34637   6.298   3.768   2.227 -0.2107  0.1533 -0.1340
  998MOL0     C34638   6.244   3.767   2.074  0.6347  0.0104  0.4061
  998MOL0     C34639   6.259   3.905   2.000 -0.0037  0.3126 -0.5117
  998MOL0    Cl34640   6.158   3.911   1.858 -0.2119 -0.1299 -0.0902
  998MOL0     C34641   6.904   3.843   2.721  0.6530 -0.4774  0.2286
  998MOL0     C34642   7.034   3.875   2.773  0.7600 -0.1609  0.6200
  998MOL0     O34643   7.069   4.092   3.055  0.7939 -0.5203 -0.1054
  998MOL0     C34644   7.399   4.206   2.969 -0.4855 -0.0114  1.1857
  998MOL0     C34645   7.499   4.297   3.008 -0.2681 -0.8008  0.1531
  998MOL0     N34646   8.198   4.250   3.013 -0.5109  0.1894 -0.0961
  998MOL0     N34647   8.324   4.208   3.045 -0.3711 -0.4158 -0.3984
  998MOL0     C34648   9.515   4.229   3.414  0.1372 -0.4347 -0.3495
  998MOL0     C34649   9.574   4.182   3.529 -0.5078  0.0415 -0.0973
  998MOL0     C34650   9.860   4.191   3.897 -0.5987 -0.7054 -0.6966
  998MOL0     C34651   9.980   4.211   3.957  0.2152  0.0173  0.2104
  998MOL0     C34652  10.029   4.139   4.066  0.2124 -0.3992  0.1042
  998MOL0     C34653   9.949   4.033   4.116  0.7613 -0.6134 -0.4948
  998MOL0     O34654   9.994   3.981   4.234  0.7234 -0.2196 -0.5727
  998MOL0     C34655   9.939   3.863   4.292 -0.2240 -0.3918 -0.1457
  998MOL0     C34656  10.050   3.803   4.389  0.5399 -0.2357  0.6895
  998MOL0     C34657  10.186   3.792   4.318  0.3944  0.0253 -0.1311
  998MOL0     C34658  10.270   3.677   4.377  0.2235  0.2114  0.0433
  998MOL0     C34659  10.234   3.541   4.326  0.0807 -0.1008 -0.1037
  998MOL0     C34660  10.204   3.434   4.276  1.3001  0.2060  0.0517
  998MOL0     C34661   9.831   4.009   4.048 -0.1274  0.5214 -0.5615
  998MOL0     C34662   9.781   4.084   3.942  0.4436 -0.3991 -0.2012
  998MOL0     H34663   9.684   4.486   3.642  0.1334  1.0487 -2.2530
  998MOL0     H34664   9.586   4.551   3.429  0.0413 -0.7780 -2.5333
  998MOL0     H34665   9.321   4.521   3.378  0.5669 -1.4890 -0.0042
  998MOL0     H34666   9.331   4.539   3.199 -1.5157 -2.5241 -1.3661
  998MOL0     H34667   9.240   4.305   3.176 -0.4006 -1.3068  0.2468
  998MOL0     H34668   9.220   4.300   3.350  2.1284  1.0675  0.3716
  998MOL0     H34669   9.073   4.459   3.360  0.2484  0.1241  0.3373
  998MOL0     H34670   9.080   4.513   3.196  1.2394  1.0491  0.6801
  998MOL0     H34671   8.987   4.281   3.127 -2.4761  1.2841 -0.0071
  998MOL0     H34672   8.946   4.247   3.290  0.7428  0.8894  1.0072
  998MOL0     H34673   8.820   4.473   3.297 -0.8639  2.1563 -1.0846
  998MOL0     H34674   8.827   4.463   3.119  1.0197  1.1513  0.6672
  998MOL0     H34675   8.731   4.226   3.136 -0.4357  1.3777 -2.3537
  998MOL0     H34676   8.738   4.247   3.306 -1.3991  1.1079  0.8863
  998MOL0     H34677   8.575   4.438   3.286 -0.1920  1.3702 -1.0323
  998MOL0     H34678   8.563   4.399   3.113  1.7720  2.6910  0.3361
  998MOL0     H34679   8.468   4.224   3.336  1.2822 -2.3230 -0.8083
  998MOL0     H34680   8.510   4.151   3.201  3.4346 -0.2354  1.8572
  998MOL0     H34681   8.255   4.440   3.270  1.6997 -0.1155 -1.1205
  998MOL0     H34682   8.000   4.500   3.074 -0.7348  0.6514 -0.0883
  998MOL0     H34683   7.957   4.335   3.029 -0.4348  2.0878 -0.6324
  998MOL0     H34684   8.034   4.427   3.308 -0.3624 -0.7965 -0.2323
  998MOL0     H34685   7.939   4.286   3.277 -0.2171 -0.0612 -1.5248
  998MOL0     H34686   7.821   4.575   3.226 -2.5880  0.4000  1.9242
  998MOL0     H34687   7.771   4.451   3.344 -2.2306  0.1882 -1.8491
  998MOL0     H34688   7.714   4.301   3.176  0.3576  0.0580  0.6542
  998MOL0     H34689   7.739   4.426   3.046  1.3235  1.2677  0.1211
  998MOL0     H34690   7.377   4.400   3.300  0.6055  2.6018 -0.9643
  998MOL0     H34691   7.060   4.312   3.167 -1.7021 -0.1261  1.1314
  998MOL0     H34692   7.112   4.195   3.289 -0.9920 -0.5398 -1.3625
  998MOL0     H34693   7.138   4.376   3.302 -0.2855 -0.3765 -0.8938
  998MOL0     H34694   7.020   4.205   2.757  0.6634 -1.4133  0.7005
  998MOL0     H34695   6.836   4.155   2.600  2.0824  0.1938 -1.3649
  998MOL0     H34696   6.635   4.088   2.677  0.0876  1.0980 -0.9501
  998MOL0     H34697   6.650   4.081   2.503 -1.9175 -0.4761 -0.0096
  998MOL0     H34698   6.470   3.903   2.677  0.7027 -0.5210 -0.4455
  998MOL0     H34699   6.425   4.064   2.607 -0.6989 -0.4368  1.5922
  998MOL0     H34700   6.495   3.823   2.446 -0.8983 -0.6309  0.8141
  998MOL0     H34701   6.445   3.989   2.386  1.8584 -0.2702 -1.0838
  998MOL0     H34702   6.255   3.803   2.522 -2.7649  1.4863  0.1741
  998MOL0     H34703   6.228   3.972   2.514 -1.6460 -0.4595 -1.8598
  998MOL0     H34704   6.194   3.947   2.271 -2.0954 -0.2508  1.7122
  998MOL0     H34705   6.124   3.808   2.348  0.5401 -1.5200 -0.0798
  998MOL0     H34706   6.402   3.800   2.222 -0.7235  2.2460  1.2016
  998MOL0     H34707   6.298   3.664   2.262 -2.7376 -0.6059 -2.0413
  998MOL0     H34708   6.136   3.752   2.075  0.6876 -1.5783 -2.8649
  998MOL0     H34709   6.295   3.686   2.021  2.3753  0.6850  0.9854
  998MOL0     H34710   6.366   3.906   1.976  1.1742  1.9224  3.8317
  998MOL0     H34711   6.227   3.989   2.062  1.6672  0.9211 -0.3982
  998MOL0     H34712   6.855   3.747   2.724 -1.9031  0.7692  1.5463
  998MOL0     H34713   7.102   3.797   2.806 -1.3772 -2.2724  0.2825
  998MOL0     H34714   7.398   4.158   2.871 -5.2429  0.0697  1.0042
  998MOL0     H34715   7.579   4.312   2.936 -1.0381  0.6178 -0.4436
  998MOL0     H34716   9.455   4.159   3.356 -2.2667  1.0809  0.1774
  998MOL0     H34717   9.586   4.075   3.542 -2.2426 -0.2900 -0.9619
  998MOL0     H34718  10.043   4.293   3.922 -0.7090  1.7412  2.3463
  998MOL0     H34719  10.126   4.165   4.109 -0.1499  2.9192 -0.7906
  998MOL0     H34720   9.845   3.887   4.342 -1.8027 -3.6925 -1.2724
  998MOL0     H34721   9.922   3.788   4.214  0.8960 -0.6194 -0.1857
  998MOL0     H34722  10.016   3.706   4.427  3.2067 -1.1538  0.8804
  998MOL0     H34723  10.062   3.871   4.473 -1.5694  0.0602  0.8148
  998MOL0     H34724  10.242   3.885   4.335 -2.7072  1.9775  0.0953
  998MOL0     H34725  10.158   3.775   4.214 -1.5981  2.4800 -0.0798
  998MOL0     H34726  10.265   3.668   4.486 -1.0014 -1.4776 -0.1111
  998MOL0     H34727  10.374   3.696   4.351  0.2269 -1.2576 -1.1164
  998MOL0     H34728  10.178   3.336   4.242 -2.5068  1.2784 -0.5721
  998MOL0     H34729   9.768   3.929   4.086  0.7043 -0.0600 -0.3986
  998MOL0     H34730   9.690   4.057   3.890 -0.5166  1.0640  0.6284
  999MOL0     O34731   3.559   5.244   6.114  0.5025  0.4658  0.0716
  999MOL0     C34732   3.562   5.331   6.031  0.2312  0.1393  0.3006
  999MOL0     O34733   3.465   5.419   6.008 -0.4034  0.2804  0.0317
  999MOL0     C34734   3.351   5.436   6.093 -0.5906 -0.3313 -0.2595
  999MOL0     C34735   3.227   5.467   6.032  0.0812 -0.2920 -0.9681
  999MOL0     C34736   3.117   5.497   6.106 -0.3560 -1.2396 -0.2793
  999MOL0     C34737   3.123   5.502   6.250  0.2586 -0.2127  0.7041
  999MOL0     O34738   3.017   5.522   6.334  0.2892 -0.7427  0.5621
  999MOL0     C34739   2.889   5.533   6.287  0.8189 -0.3766  0.3496
  999MOL0     C34740   2.782   5.543   6.398  0.7816  0.0885  0.3553
  999MOL0     C34741   2.637   5.556   6.335 -0.8650 -0.3245  0.5064
  999MOL0     C34742   2.526   5.552   6.440 -1.0994 -0.0034 -0.3903
  999MOL0     C34743   2.395   5.603   6.399 -0.8774  0.0281 -0.8014
  999MOL0     C34744   2.315   5.635   6.525 -0.1187 -0.3170  0.4182
  999MOL0     C34745   2.274   5.514   6.615 -0.5154 -0.3336  0.7962
  999MOL0     C34746   2.201   5.554   6.746 -0.3574  0.1291  0.1491
  999MOL0     N34747   2.267   5.664   6.829  0.2591  0.1165  0.6487
  999MOL0     C34748   2.369   5.637   6.916 -0.4609  0.2410  1.5425
  999MOL0     C34749   2.415   5.757   6.966 -0.0384  0.1718  0.1583
  999MOL0     C34750   2.537   5.779   7.049 -0.5809 -0.3340 -0.0182
  999MOL0     C34751   2.652   5.724   6.975 -0.1934  0.2354  0.9011
  999MOL0     C34752   2.663   5.753   6.819 -0.6490  0.0253 -0.2203
  999MOL0     C34753   2.803   5.749   6.770 -0.4875 -0.3435  0.2430
  999MOL0     O34754   2.850   5.617   6.799 -0.5754  0.5489 -0.3232
  999MOL0     C34755   2.978   5.581   6.764  0.6172 -1.1572 -0.5824
  999MOL0     C34756   3.027   5.458   6.817 -0.5978 -0.3772  0.0632
  999MOL0     C34757   3.159   5.420   6.781  0.2191  0.1192 -0.3379
  999MOL0     C34758   3.214   5.297   6.846 -0.2479 -0.2633  0.2574
  999MOL0     C34759   3.237   5.494   6.698  0.4654 -0.0072  0.2292
  999MOL0     C34760   3.384   5.461   6.672 -0.9291 -0.3413  0.4154
  999MOL0     O34761   3.436   5.351   6.711 -0.3162 -0.5553 -0.2476
  999MOL0     C34762   3.555   5.305   6.656  0.0574 -0.5297 -0.7159
  999MOL0     C34763   3.668   5.299   6.728 -0.7587 -0.2141  0.3680
  999MOL0     C34764   3.786   5.243   6.673  0.0288 -1.0599  0.2175
  999MOL0     C34765   3.785   5.198   6.543 -0.1186  0.8654 -0.1117
  999MOL0     O34766   3.892   5.136   6.481  0.9542 -0.0935  0.0053
  999MOL0     C34767   3.957   5.230   6.388  0.5186  0.2553  0.2557
  999MOL0     C34768   4.063   5.158   6.305 -0.8539 -0.3513 -0.6225
  999MOL0     C34769   4.010   5.052   6.215 -0.3506 -0.2670 -0.1669
  999MOL0     C34770   4.119   4.953   6.176 -0.1141 -0.1507 -0.2978
  999MOL0     C34771   4.223   5.011   6.080  0.5754  0.1226  0.3179
  999MOL0     C34772   4.313   4.902   6.028  0.2248 -0.8616 -0.7584
  999MOL0     C34773   4.249   4.820   5.908 -0.2953  0.4162 -0.0011
  999MOL0     C34774   4.354   4.754   5.822  0.1684 -0.3258 -0.0249
  999MOL0    Cl34775   4.317   4.761   5.649 -0.0737  0.2082  0.0692
  999MOL0     C34776   3.667   5.206   6.472  0.2243  0.3124  0.1458
  999MOL0     C34777   3.551   5.261   6.532 -0.1728  0.0573 -0.2379
  999MOL0     O34778   3.449   5.556   6.627 -0.3093 -0.7616  0.2294
  999MOL0     C34779   3.184   5.614   6.637  0.6905  1.3274  0.6786
  999MOL0     C34780   3.055   5.653   6.672 -0.3116 -0.7463 -0.7876
  999MOL0     N34781   2.325   5.857   6.911 -0.4480 -0.8067  0.7701
  999MOL0     N34782   2.234   5.794   6.833 -0.0563  0.3778  0.6028
  999MOL0     C34783   3.238   5.468   6.309 -0.0024  0.3158  0.1603
  999MOL0     C34784   3.358   5.443   6.233 -0.4311  0.7559 -0.1621
  999MOL0     C34785   3.688   5.337   5.949 -0.6165 -0.0769  0.1159
  999MOL0     C34786   3.758   5.457   5.930 -0.2730  0.3134 -0.0967
  999MOL0     C34787   3.877   5.456   5.845  0.3297  0.8403 -1.6670
  999MOL0     C34788   3.935   5.333   5.803 -0.2335  0.2143  0.0194
  999MOL0     O34789   4.048   5.336   5.729 -0.3255  0.4949  0.2757
  999MOL0     C34790   4.028   5.361   5.593 -0.4157  0.0301  0.2914
  999MOL0     C34791   4.156   5.384   5.508 -0.0768 -0.5610 -0.0722
  999MOL0     C34792   4.246   5.264   5.524 -0.4567  0.2802  0.6112
  999MOL0     C34793   4.365   5.313   5.616  0.5871 -0.1775  0.5052
  999MOL0     C34794   4.463   5.204   5.642 -0.8719 -0.5252  0.7987
  999MOL0     C34795   4.552   5.118   5.626 -0.3602 -0.2225 -0.2993
  999MOL0     C34796   3.870   5.216   5.842 -0.2206 -0.3929  0.2010
  999MOL0     C34797   3.748   5.217   5.911  1.0945  0.0892  0.0503
  999MOL0     H34798   3.215   5.459   5.924 -0.8342  0.4427 -0.9345
  999MOL0     H34799   3.025   5.509   6.050  0.5705 -0.8507 -1.7746
  999MOL0     H34800   2.862   5.625   6.235 -0.3419 -1.6229 -1.3600
  999MOL0     H34801   2.867   5.452   6.217  0.2210 -2.1222  2.4466
  999MOL0     H34802   2.781   5.448   6.452 -1.1281  0.0330  0.2918
  999MOL0     H34803   2.795   5.624   6.470 -1.0507  1.1987 -0.4939
  999MOL0     H34804   2.640   5.644   6.270 -0.0296 -1.1847 -0.6760
  999MOL0     H34805   2.616   5.475   6.265  0.3309 -0.0638 -0.1827
  999MOL0     H34806   2.526   5.448   6.474 -1.9087  0.8856  2.6576
  999MOL0     H34807   2.570   5.602   6.527  1.3413 -2.9172  0.1948
  999MOL0     H34808   2.411   5.695   6.342 -0.4077  0.0459 -0.6471
  999MOL0     H34809   2.344   5.522   6.347 -1.9193 -1.0166  1.6844
  999MOL0     H34810   2.377   5.708   6.578  1.0161 -0.9383 -0.0173
  999MOL0     H34811   2.222   5.690   6.505  0.2460 -0.2578 -1.2641
  999MOL0     H34812   2.217   5.442   6.556 -1.0534  0.1097  0.7628
  999MOL0     H34813   2.374   5.476   6.638  2.1863  3.7212 -2.7564
  999MOL0     H34814   2.191   5.466   6.811  1.5881 -0.7208 -0.6160
  999MOL0     H34815   2.105   5.584   6.704  0.6537 -1.5270 -3.8256
  999MOL0     H34816   2.429   5.547   6.920 -0.2727  0.2924  0.1703
  999MOL0     H34817   2.554   5.887   7.055  0.5000 -0.5561  1.4475
  999MOL0     H34818   2.539   5.736   7.150 -2.2707 -4.0314 -1.3570
  999MOL0     H34819   2.676   5.618   6.989  0.2163  0.3666  1.2405
  999MOL0     H34820   2.732   5.783   7.022  1.6863  0.5178 -2.4035
  999MOL0     H34821   2.626   5.854   6.804 -2.0217 -0.3526  0.4100
  999MOL0     H34822   2.603   5.684   6.758 -0.8965  0.4296 -0.4363
  999MOL0     H34823   2.855   5.836   6.812 -0.9196 -0.3236  0.7636
  999MOL0     H34824   2.802   5.753   6.661  0.0034 -1.5528  0.1818
  999MOL0     H34825   2.978   5.391   6.887  1.3564  1.0170  2.9763
  999MOL0     H34826   3.251   5.229   6.769 -1.0596  2.8606 -3.1931
  999MOL0     H34827   3.298   5.316   6.914 -0.5989  1.1407  0.3316
  999MOL0     H34828   3.138   5.251   6.910  1.8154  0.1782  3.2433
  999MOL0     H34829   3.678   5.349   6.824  1.8557 -0.9490  0.5611
  999MOL0     H34830   3.876   5.240   6.734 -1.1281 -2.3133  1.9650
  999MOL0     H34831   3.887   5.272   6.316 -0.3793 -0.5698  0.6257
  999MOL0     H34832   3.992   5.316   6.445 -0.3925 -0.2096  1.5554
  999MOL0     H34833   4.104   5.238   6.243  1.0187  0.2536  1.2965
  999MOL0     H34834   4.137   5.115   6.372 -1.9670 -0.7378  0.4016
  999MOL0     H34835   3.967   5.100   6.126 -0.4465  0.7533  0.4107
  999MOL0     H34836   3.930   4.996   6.262  1.8436 -4.9518 -1.4549
  999MOL0     H34837   4.165   4.924   6.271  0.0428  0.5872 -0.1421
  999MOL0     H34838   4.074   4.861   6.136 -0.3444  0.1803 -0.8065
  999MOL0     H34839   4.283   5.077   6.144  1.4387 -0.4181  0.0880
  999MOL0     H34840   4.176   5.066   5.998 -2.7208 -0.0622  1.9060
  999MOL0     H34841   4.407   4.943   5.989  0.0230 -1.8179 -2.3765
  999MOL0     H34842   4.336   4.835   6.112 -0.2544 -0.0964 -0.0060
  999MOL0     H34843   4.186   4.886   5.847 -0.0701 -1.1353 -1.9876
  999MOL0     H34844   4.194   4.745   5.966  2.1109 -1.4812 -0.0687
  999MOL0     H34845   4.375   4.656   5.865 -1.7472  1.1069  4.8020
  999MOL0     H34846   4.449   4.808   5.829 -0.5841  1.1119 -0.4141
  999MOL0     H34847   3.658   5.168   6.371 -0.4271  0.0614  0.2955
  999MOL0     H34848   3.467   5.263   6.464  0.0730 -1.1400 -0.6103
  999MOL0     H34849   3.240   5.679   6.570 -1.7867  0.1744 -2.7676
  999MOL0     H34850   3.014   5.746   6.635 -0.2444 -1.0241 -1.5740
  999MOL0     H34851   3.234   5.475   6.417  1.7955  1.8621  0.1610
  999MOL0     H34852   3.449   5.435   6.291 -0.0545 -0.6549 -0.9243
  999MOL0     H34853   3.729   5.550   5.979 -1.0546 -0.6725  1.3999
  999MOL0     H34854   3.934   5.546   5.825  3.9217 -0.3600  1.9273
  999MOL0     H34855   3.961   5.284   5.554  0.9347 -0.8382 -0.3817
  999MOL0     H34856   3.969   5.451   5.570  1.1096  0.8351 -0.6386
  999MOL0     H34857   4.211   5.473   5.538 -1.4864  0.5866 -0.7900
  999MOL0     H34858   4.115   5.397   5.408 -1.8364 -0.4212  0.6407
  999MOL0     H34859   4.281   5.220   5.430  1.7296 -2.2631  2.4599
  999MOL0     H34860   4.188   5.186   5.573 -1.2692  1.4326  1.5392
  999MOL0     H34861   4.325   5.344   5.713 -2.1236 -2.3426  0.2052
  999MOL0     H34862   4.415   5.395   5.564 -2.1401 -0.2927 -2.6191
  999MOL0     H34863   4.638   5.053   5.625 -0.0369  0.2016 -1.5201
  999MOL0     H34864   3.916   5.124   5.808 -2.7672 -1.3351 -1.0363
  999MOL0     H34865   3.713   5.117   5.937  1.6426 -0.0136  0.4328
 1000MOL0     O34866   6.719   0.778   1.288 -0.2903  0.6165  0.2579
 1000MOL0     C34867   6.747   0.888   1.334 -0.4326  0.7315 -1.0146
 1000MOL0     O34868   6.662   1.000   1.351 -0.1945 -0.3872 -0.4628
 1000MOL0     C34869   6.529   0.978   1.332 -0.3054  0.3585 -1.0092
 1000MOL0     C34870   6.461   0.887   1.413  0.2598 -0.2225 -0.1235
 1000MOL0     C34871   6.325   0.877   1.394 -1.0082  0.2416  0.5131
 1000MOL0     C34872   6.250   0.960   1.307 -0.1607 -0.7684  0.9407
 1000MOL0     O34873   6.118   0.975   1.296  0.0880 -0.1732  0.0848
 1000MOL0     C34874   6.035   0.888   1.374 -0.1973 -0.6155  0.2871
 1000MOL0     C34875   5.887   0.948   1.383 -0.1587 -0.2355 -0.2393
 1000MOL0     C34876   5.807   0.929   1.249  0.1949 -0.6402 -0.3659
 1000MOL0     C34877   5.664   0.944   1.282  0.3558  0.5660 -0.0412
 1000MOL0     C34878   5.641   1.089   1.338  0.1074 -0.6595  0.2997
 1000MOL0     C34879   5.515   1.153   1.278  0.2566 -0.2643  0.2506
 1000MOL0     C34880   5.384   1.073   1.310 -0.0318 -0.9420 -0.7762
 1000MOL0     C34881   5.339   1.138   1.438  0.5980 -0.2245  0.0975
 1000MOL0     N34882   5.229   1.074   1.516  0.9599 -0.7586  1.5180
 1000MOL0     C34883   5.127   1.134   1.593 -0.0465  0.2197  0.1146
 1000MOL0     C34884   5.082   1.040   1.677 -0.0513 -0.4081 -0.8553
 1000MOL0     C34885   4.975   1.077   1.772 -0.2882  0.6426  1.8063
 1000MOL0     C34886   4.869   0.961   1.800 -0.5733  0.1965 -0.4653
 1000MOL0     C34887   4.768   0.937   1.684 -1.1079 -0.3931 -0.1601
 1000MOL0     C34888   4.683   0.812   1.703 -0.0049  1.2008 -0.1829
 1000MOL0     O34889   4.576   0.832   1.796 -0.5158 -0.0972  1.3426
 1000MOL0     C34890   4.471   0.749   1.798  0.6676  0.2281  0.0335
 1000MOL0     C34891   4.446   0.650   1.702 -0.1061 -0.3846  0.0628
 1000MOL0     C34892   4.333   0.569   1.690  0.3239  0.5821 -0.0134
 1000MOL0     C34893   4.313   0.468   1.576 -0.1798 -0.5942 -0.3190
 1000MOL0     C34894   4.232   0.587   1.791 -0.0891  0.8051  0.7822
 1000MOL0     C34895   4.106   0.514   1.806 -0.6448 -0.5655 -0.0844
 1000MOL0     O34896   4.012   0.561   1.902  0.1435  0.2118  0.7673
 1000MOL0     C34897   3.892   0.488   1.907 -0.2107  0.5018  0.1366
 1000MOL0     C34898   3.778   0.528   1.833 -0.2951  0.2096  0.3323
 1000MOL0     C34899   3.656   0.458   1.852 -0.2958 -0.4070 -0.4337
 1000MOL0     C34900   3.648   0.370   1.952  0.6329  0.4425  0.2605
 1000MOL0     O34901   3.527   0.316   1.981  0.5383  0.0383 -0.5229
 1000MOL0     C34902   3.405   0.367   1.908 -0.3903  0.0579  0.5917
 1000MOL0     C34903   3.283   0.298   1.961  1.1264 -0.1370 -0.0694
 1000MOL0     C34904   3.144   0.340   1.893  1.2304 -0.1706  0.8558
 1000MOL0     C34905   3.021   0.268   1.958  0.8200  0.0112  0.5795
 1000MOL0     C34906   2.890   0.351   1.945 -1.4334  0.3111  0.2930
 1000MOL0     C34907   2.794   0.287   2.048  0.1959 -0.2905 -0.1711
 1000MOL0     C34908   2.668   0.376   2.026  0.0338 -0.1785  0.5520
 1000MOL0     C34909   2.558   0.371   2.134  0.3680 -0.1181 -1.0676
 1000MOL0    Cl34910   2.412   0.453   2.064 -0.2588 -0.0911 -0.1662
 1000MOL0     C34911   3.759   0.331   2.029  0.2720 -0.3600  0.5194
 1000MOL0     C34912   3.881   0.391   2.006 -0.5417 -0.6511 -0.0993
 1000MOL0     O34913   4.086   0.421   1.739  0.4773 -0.0984  0.2686
 1000MOL0     C34914   4.257   0.686   1.886 -0.7674  0.0215 -0.1398
 1000MOL0     C34915   4.372   0.769   1.890 -0.8413  0.8175 -0.5532
 1000MOL0     N34916   5.136   0.920   1.641  0.1488  0.0687 -0.7057
 1000MOL0     N34917   5.229   0.940   1.549 -0.5693  0.5530 -0.4426
 1000MOL0     C34918   6.322   1.044   1.213  0.4293  0.1877 -0.5911
 1000MOL0     C34919   6.461   1.051   1.234 -0.1277 -0.0564 -0.7060
 1000MOL0     C34920   6.884   0.930   1.363 -0.1947  0.1579 -0.0009
 1000MOL0     C34921   6.916   1.048   1.443  0.0606 -0.1686 -0.0729
 1000MOL0     C34922   7.052   1.074   1.458 -1.0371  0.4285 -0.5523
 1000MOL0     C34923   7.154   0.986   1.401  0.1932 -0.1727 -0.1887
 1000MOL0     O34924   7.284   1.019   1.431 -0.8415 -0.5800 -0.2198
 1000MOL0     C34925   7.376   0.917   1.463 -0.5370  0.1277 -0.1227
 1000MOL0     C34926   7.518   0.971   1.481  0.4509  0.1617 -0.1947
 1000MOL0     C34927   7.600   0.892   1.582  0.3246 -0.3148 -1.3128
 1000MOL0     C34928   7.745   0.943   1.589 -0.1207 -0.2320 -0.5620
 1000MOL0     C34929   7.752   1.088   1.610  0.0754 -0.2428  0.8999
 1000MOL0     C34930   7.775   1.198   1.648  0.8288  0.0425  0.1571
 1000MOL0     C34931   7.122   0.877   1.324 -0.1256  0.2645  0.2110
 1000MOL0     C34932   6.988   0.854   1.307  1.0848 -0.6270 -0.4761
 1000MOL0     H34933   6.502   0.809   1.476  0.0067 -1.9377 -1.9645
 1000MOL0     H34934   6.265   0.805   1.448 -2.1440 -1.6195 -2.9712
 1000MOL0     H34935   6.034   0.783   1.346 -0.1806  0.0690 -2.5755
 1000MOL0     H34936   6.064   0.902   1.479 -2.2956  0.7369  0.7724
 1000MOL0     H34937   5.840   0.890   1.463  1.2985  2.6353  2.9604
 1000MOL0     H34938   5.888   1.054   1.412  1.3063 -0.7350  1.7474
 1000MOL0     H34939   5.826   0.997   1.166  1.0039  1.3654  1.3979
 1000MOL0     H34940   5.824   0.830   1.205  0.7757 -0.7531  0.0951
 1000MOL0     H34941   5.608   0.931   1.188  0.1177  1.1036  0.0216
 1000MOL0     H34942   5.641   0.877   1.365  1.5069  2.1085  1.5994
 1000MOL0     H34943   5.640   1.083   1.447  0.1938 -0.1285  0.3345
 1000MOL0     H34944   5.729   1.146   1.307  1.1086 -2.6332 -0.6289
 1000MOL0     H34945   5.500   1.251   1.323  1.0485 -0.5471  1.1716
 1000MOL0     H34946   5.515   1.166   1.169  0.0159 -3.2527 -0.2004
 1000MOL0     H34947   5.303   1.079   1.236  1.9648 -1.7614 -3.1757
 1000MOL0     H34948   5.403   0.966   1.323 -1.2909 -0.9002  2.1290
 1000MOL0     H34949   5.298   1.234   1.407  0.2290 -0.6024 -0.5963
 1000MOL0     H34950   5.424   1.148   1.506  2.5094  0.4753 -2.2398
 1000MOL0     H34951   5.098   1.238   1.593  1.2845  0.5998  0.0699
 1000MOL0     H34952   5.010   1.107   1.871  0.5880  1.4681  1.2641
 1000MOL0     H34953   4.923   1.164   1.729  1.3541  0.1979 -1.3506
 1000MOL0     H34954   4.805   0.985   1.885 -2.8304 -3.1713 -1.0134
 1000MOL0     H34955   4.927   0.870   1.819  2.2248  1.4001 -2.4331
 1000MOL0     H34956   4.824   0.924   1.591 -2.4383  2.8113 -1.5574
 1000MOL0     H34957   4.705   1.024   1.666 -1.9100 -1.5328 -3.6497
 1000MOL0     H34958   4.740   0.720   1.721 -2.2727 -0.5337 -1.3155
 1000MOL0     H34959   4.643   0.789   1.603  0.0894  1.8048 -0.3643
 1000MOL0     H34960   4.513   0.644   1.616  1.4230  1.6132  1.0179
 1000MOL0     H34961   4.314   0.365   1.612 -0.5604 -0.3678  0.3491
 1000MOL0     H34962   4.226   0.485   1.512 -1.7727 -1.5609  1.4838
 1000MOL0     H34963   4.398   0.474   1.506 -0.4189  0.5508 -0.5318
 1000MOL0     H34964   3.779   0.622   1.779 -1.5224  2.1394  3.4607
 1000MOL0     H34965   3.576   0.495   1.788 -0.0389  0.0207 -0.5166
 1000MOL0     H34966   3.397   0.476   1.917  0.9230  0.1368  1.0489
 1000MOL0     H34967   3.410   0.343   1.801 -1.3448  3.5054 -0.3866
 1000MOL0     H34968   3.303   0.192   1.942  0.1370 -0.1125 -1.3637
 1000MOL0     H34969   3.274   0.322   2.067  0.2467 -0.2545 -0.1098
 1000MOL0     H34970   3.152   0.325   1.785 -0.9752  1.6580  0.3625
 1000MOL0     H34971   3.132   0.448   1.907 -1.6093 -0.1634 -0.8491
 1000MOL0     H34972   2.998   0.173   1.908  4.4377  0.1530 -1.7451
 1000MOL0     H34973   3.056   0.252   2.061  2.1296 -1.6132 -0.0783
 1000MOL0     H34974   2.849   0.357   1.844 -0.8181  2.6359  0.1259
 1000MOL0     H34975   2.911   0.451   1.982 -0.6508 -0.5531  2.3413
 1000MOL0     H34976   2.763   0.184   2.027 -3.0504  0.5914 -0.3013
 1000MOL0     H34977   2.834   0.298   2.149 -0.0206  0.5400 -0.1659
 1000MOL0     H34978   2.622   0.337   1.935 -0.8258  1.3382  0.2980
 1000MOL0     H34979   2.689   0.480   1.999 -1.0533  0.2696  1.3710
 1000MOL0     H34980   2.592   0.435   2.216 -0.9666  0.4975 -0.9669
 1000MOL0     H34981   2.528   0.270   2.162 -0.3368  0.1053 -0.9937
 1000MOL0     H34982   3.748   0.264   2.113 -3.5081  0.9232  1.2506
 1000MOL0     H34983   3.968   0.380   2.069 -1.2385 -1.2422  0.7942
 1000MOL0     H34984   4.181   0.705   1.961 -0.9225  0.1446 -0.3265
 1000MOL0     H34985   4.384   0.852   1.959 -1.1147  0.5530 -0.1846
 1000MOL0     H34986   6.278   1.105   1.135 -1.6231 -0.8101 -0.2675
 1000MOL0     H34987   6.523   1.118   1.175 -1.1636  1.2702 -0.3422
 1000MOL0     H34988   6.848   1.117   1.494 -0.3336 -2.0038  2.0555
 1000MOL0     H34989   7.092   1.165   1.500  2.3608 -0.1401 -2.2338
 1000MOL0     H34990   7.340   0.866   1.552 -3.9382  1.7154 -0.4044
 1000MOL0     H34991   7.376   0.844   1.382  0.0952  1.7212 -1.6276
 1000MOL0     H34992   7.515   1.078   1.505  1.6617  0.9640 -3.1657
 1000MOL0     H34993   7.569   0.957   1.385 -3.1649  2.0238 -2.6391
 1000MOL0     H34994   7.594   0.787   1.552  1.6597 -0.4138 -1.2842
 1000MOL0     H34995   7.537   0.901   1.671 -0.8972  0.5291 -2.2336
 1000MOL0     H34996   7.793   0.915   1.495 -1.3805  1.9628 -1.9390
 1000MOL0     H34997   7.803   0.893   1.668 -0.0080  1.5833  0.5596
 1000MOL0     H34998   7.775   1.296   1.693 -2.9517  0.1782  0.1517
 1000MOL0     H34999   7.199   0.817   1.276  0.6549  1.4805 -0.1343
 1000MOL0     H35000   6.959   0.769   1.246  1.7784  0.0831 -1.8507
 1001MOL0     O35001   4.109   8.131   1.886 -0.4041  0.3446  0.2229
 1001MOL0     C35002   4.095   8.074   1.999  0.6057 -0.6309  0.6232
 1001MOL0     O35003   3.971   8.048   2.057 -0.7204  0.8497 -0.0145
 1001MOL0     C35004   3.854   8.073   1.986 -0.0742  0.9094 -0.4348
 1001MOL0     C35005   3.762   8.164   2.035 -0.0666  0.2026 -0.6471
 1001MOL0     C35006   3.639   8.184   1.968  0.1111 -0.5920 -0.3783
 1001MOL0     C35007   3.595   8.098   1.860 -0.8002  0.1880  0.0612
 1001MOL0     O35008   3.467   8.097   1.810 -0.7813 -0.4238 -1.0670
 1001MOL0     C35009   3.367   8.186   1.873 -0.0366 -0.2030 -0.0337
 1001MOL0     C35010   3.224   8.156   1.834 -0.2837  0.9556  0.9537
 1001MOL0     C35011   3.121   8.252   1.869 -0.2545  0.2548  0.0543
 1001MOL0     C35012   2.981   8.213   1.882  0.0609  0.3299 -0.9031
 1001MOL0     C35013   2.886   8.326   1.927 -0.7507 -0.1556  0.3401
 1001MOL0     C35014   2.765   8.259   1.973  0.8158  0.0583 -0.2449
 1001MOL0     C35015   2.654   8.356   2.002 -0.2227  0.5442 -0.0099
 1001MOL0     C35016   2.590   8.402   1.879 -0.2582 -0.5218  0.1118
 1001MOL0     N35017   2.484   8.500   1.917  0.3810  0.8309 -0.2912
 1001MOL0     C35018   2.484   8.629   1.945 -0.2258  0.1973 -0.0558
 1001MOL0     C35019   2.361   8.669   1.935  0.5440 -0.5552  0.2585
 1001MOL0     C35020   2.300   8.799   1.980  0.5617  0.4323  0.7209
 1001MOL0     C35021   2.263   8.805   2.128 -0.1134 -0.2402 -0.3442
 1001MOL0     C35022   2.383   8.801   2.221 -0.4404  0.0038  0.4056
 1001MOL0     C35023   2.343   8.833   2.368 -0.0081  0.1283  0.8542
 1001MOL0     O35024   2.444   8.810   2.470  0.4051 -0.4097  0.0911
 1001MOL0     C35025   2.542   8.906   2.492  0.8606 -0.3680  1.0685
 1001MOL0     C35026   2.549   9.035   2.424 -0.6619  0.1047 -0.2713
 1001MOL0     C35027   2.650   9.123   2.461  1.0723  0.5868 -0.2986
 1001MOL0     C35028   2.641   9.269   2.408 -0.2842  0.5266  0.1221
 1001MOL0     C35029   2.753   9.080   2.545 -0.1482  0.0732  0.3590
 1001MOL0     C35030   2.854   9.181   2.596  0.7579  0.2684 -0.0602
 1001MOL0     O35031   2.935   9.237   2.501  0.0263  0.1210  0.1280
 1001MOL0     C35032   3.052   9.299   2.522 -0.3068 -0.5327  0.0072
 1001MOL0     C35033   3.154   9.300   2.432  0.7695 -0.1876  0.1009
 1001MOL0     C35034   3.272   9.371   2.447 -0.5304 -0.1495 -0.0536
 1001MOL0     C35035   3.292   9.458   2.551  0.5822  0.4884 -0.2490
 1001MOL0     O35036   3.408   9.528   2.535 -0.1222 -1.0112 -0.3019
 1001MOL0     C35037   3.441   9.618   2.642  0.2215  0.1928 -1.6147
 1001MOL0     C35038   3.569   9.702   2.618 -0.1859 -0.4953  0.1362
 1001MOL0     C35039   3.671   9.634   2.528  0.7341  0.0413  0.3060
 1001MOL0     C35040   3.748   9.519   2.584 -0.2494  0.1243 -0.3390
 1001MOL0     C35041   3.896   9.512   2.539  0.6109 -0.4189 -0.5073
 1001MOL0     C35042   3.899   9.517   2.385  0.7757 -0.3819 -1.0693
 1001MOL0     C35043   4.045   9.506   2.350  0.4197  0.3718 -0.2613
 1001MOL0     C35044   4.066   9.506   2.202  0.7497  0.1460 -1.0322
 1001MOL0    Cl35045   4.042   9.664   2.133 -0.5683  0.0235 -0.3021
 1001MOL0     C35046   3.184   9.463   2.645 -0.0877 -0.3453  0.1807
 1001MOL0     C35047   3.071   9.387   2.626 -0.3307 -0.4691  0.2943
 1001MOL0     O35048   2.859   9.200   2.717 -0.1047 -0.4169 -0.8499
 1001MOL0     C35049   2.762   8.953   2.595 -0.0517 -0.0733  0.6545
 1001MOL0     C35050   2.648   8.869   2.569 -0.5405 -0.5878  0.3808
 1001MOL0     N35051   2.283   8.558   1.903  0.2047 -0.2485 -0.3962
 1001MOL0     N35052   2.356   8.461   1.891 -0.3166 -0.2360 -0.1162
 1001MOL0     C35053   3.690   8.003   1.812 -0.1650  0.0436  0.1108
 1001MOL0     C35054   3.816   7.993   1.870 -0.5039 -0.6091  0.6737
 1001MOL0     C35055   4.226   8.055   2.074 -0.2636 -0.7868  0.1999
 1001MOL0     C35056   4.345   8.108   2.025 -0.3104  0.1118  0.1606
 1001MOL0     C35057   4.458   8.105   2.100  0.0780 -0.7192  0.9016
 1001MOL0     C35058   4.464   8.037   2.219  0.1486 -0.3890 -0.4440
 1001MOL0     O35059   4.567   8.071   2.301  0.1689  0.2383 -0.2036
 1001MOL0     C35060   4.696   8.035   2.253 -0.9750 -0.8488  0.3320
 1001MOL0     C35061   4.755   8.169   2.209  0.5264  1.2868  0.6277
 1001MOL0     C35062   4.905   8.165   2.257  0.5136  0.5792 -1.1940
 1001MOL0     C35063   4.922   8.175   2.411 -0.2572  0.0822 -0.0294
 1001MOL0     C35064   4.992   8.056   2.463  0.2359  0.8080  0.2964
 1001MOL0     C35065   5.032   7.951   2.517 -0.8390  0.0821  0.5247
 1001MOL0     C35066   4.350   7.977   2.260 -0.2003 -1.1459  0.2041
 1001MOL0     C35067   4.227   7.989   2.197  0.9130 -0.8615  0.6713
 1001MOL0     H35068   3.792   8.234   2.112  0.2707  2.9868 -3.1632
 1001MOL0     H35069   3.567   8.256   2.006  0.5329 -0.7029  0.6877
 1001MOL0     H35070   3.360   8.179   1.982  0.4712 -0.2245 -0.0028
 1001MOL0     H35071   3.384   8.290   1.844  1.2279  0.0416  1.4568
 1001MOL0     H35072   3.225   8.153   1.725  0.4513 -1.5126  0.9592
 1001MOL0     H35073   3.202   8.058   1.877  2.7103  0.5734  1.8242
 1001MOL0     H35074   3.159   8.301   1.959  1.7043 -0.0902 -0.5447
 1001MOL0     H35075   3.124   8.326   1.789 -1.0861 -0.5459 -0.7428
 1001MOL0     H35076   2.946   8.184   1.783 -2.1147  3.6699 -1.2333
 1001MOL0     H35077   2.972   8.135   1.959  2.3690  2.2701  1.5192
 1001MOL0     H35078   2.938   8.382   2.006 -0.8680 -0.5047  0.6688
 1001MOL0     H35079   2.859   8.379   1.836 -0.7612  3.4341  2.2682
 1001MOL0     H35080   2.726   8.175   1.914 -1.0748  1.3140 -0.8805
 1001MOL0     H35081   2.792   8.216   2.069 -0.1143  2.1016  1.0049
 1001MOL0     H35082   2.578   8.311   2.066 -0.0939 -0.0489 -0.2713
 1001MOL0     H35083   2.697   8.440   2.056 -0.2193  1.8374 -1.9081
 1001MOL0     H35084   2.548   8.321   1.818 -0.3852  0.2707 -0.8818
 1001MOL0     H35085   2.665   8.449   1.815 -1.1939  0.0621 -0.5785
 1001MOL0     H35086   2.569   8.691   1.973 -2.4925  2.8051  1.5814
 1001MOL0     H35087   2.371   8.878   1.956  0.3793  0.7766  1.2918
 1001MOL0     H35088   2.213   8.811   1.914  0.1515  1.5102  1.4305
 1001MOL0     H35089   2.200   8.720   2.157  1.7077 -1.9288 -1.1067
 1001MOL0     H35090   2.196   8.890   2.142 -0.7175  0.0874 -4.0472
 1001MOL0     H35091   2.450   8.880   2.185 -2.5155  0.7339 -2.2008
 1001MOL0     H35092   2.430   8.703   2.233 -1.0137 -0.2894  0.2717
 1001MOL0     H35093   2.264   8.762   2.392  0.3432 -0.0990  1.3456
 1001MOL0     H35094   2.306   8.936   2.371 -0.7872 -0.1314  0.5159
 1001MOL0     H35095   2.477   9.072   2.353 -0.3935  0.6841 -0.2467
 1001MOL0     H35096   2.539   9.294   2.378  0.2911 -0.2127 -2.7424
 1001MOL0     H35097   2.675   9.339   2.486 -1.3697 -0.0029  1.1060
 1001MOL0     H35098   2.704   9.270   2.319  0.0178 -1.9134  0.2344
 1001MOL0     H35099   3.131   9.237   2.347 -1.0484  0.0545  0.3908
 1001MOL0     H35100   3.345   9.354   2.368  0.5272  0.2165  0.8150
 1001MOL0     H35101   3.353   9.680   2.662 -1.2593 -2.1376 -0.3531
 1001MOL0     H35102   3.453   9.558   2.733 -0.5337  2.2083 -0.0844
 1001MOL0     H35103   3.529   9.789   2.565 -1.5149 -2.7771 -2.9126
 1001MOL0     H35104   3.617   9.730   2.713 -0.1920 -3.5848  1.1701
 1001MOL0     H35105   3.738   9.717   2.506 -0.9283  1.0679 -1.1154
 1001MOL0     H35106   3.623   9.600   2.436 -1.0077  2.2699  0.3205
 1001MOL0     H35107   3.757   9.521   2.693  2.1819  1.6986 -0.4837
 1001MOL0     H35108   3.684   9.435   2.556 -2.1520  1.0047  1.1453
 1001MOL0     H35109   3.949   9.424   2.578  1.8097  0.0143 -1.0847
 1001MOL0     H35110   3.949   9.603   2.569 -1.7706  0.3007  1.8632
 1001MOL0     H35111   3.838   9.430   2.358 -0.5096  0.1978 -0.1631
 1001MOL0     H35112   3.877   9.617   2.347  2.3399  0.7504  0.7773
 1001MOL0     H35113   4.099   9.419   2.387  0.8732  0.5455 -0.5130
 1001MOL0     H35114   4.107   9.583   2.396  0.0263  0.8624 -0.5328
 1001MOL0     H35115   4.003   9.432   2.151  0.5962 -2.3952  2.5071
 1001MOL0     H35116   4.173   9.482   2.199  0.9641  0.6331  1.2397
 1001MOL0     H35117   3.193   9.537   2.724  0.0034  0.1616 -0.2883
 1001MOL0     H35118   2.994   9.407   2.699 -2.8956 -3.0078 -1.4777
 1001MOL0     H35119   2.844   8.911   2.653 -1.1298 -0.6940  1.7841
 1001MOL0     H35120   2.652   8.768   2.609  2.7116 -0.4260  0.7173
 1001MOL0     H35121   3.664   7.942   1.727  2.1963 -0.1297 -0.5532
 1001MOL0     H35122   3.886   7.922   1.828  2.9781  2.9744 -0.2361
 1001MOL0     H35123   4.354   8.168   1.935  2.5189  1.5204  1.2521
 1001MOL0     H35124   4.543   8.156   2.057 -0.4971 -0.4774  0.0219
 1001MOL0     H35125   4.753   7.977   2.326 -0.0620  1.1448  1.2761
 1001MOL0     H35126   4.687   7.963   2.171 -3.3181 -0.4935  0.1868
 1001MOL0     H35127   4.703   8.254   2.253 -1.4231  1.3014 -1.4885
 1001MOL0     H35128   4.760   8.186   2.101  1.8617 -1.6885  0.1064
 1001MOL0     H35129   4.946   8.256   2.212  0.4087  1.0600 -0.3500
 1001MOL0     H35130   4.960   8.076   2.226 -0.5299  0.7332 -3.6604
 1001MOL0     H35131   4.825   8.193   2.459 -0.8121  1.6551 -1.6326
 1001MOL0     H35132   4.992   8.256   2.436 -1.2453  0.9091  0.1507
 1001MOL0     H35133   5.069   7.858   2.553 -1.8025 -2.0160 -3.3457
 1001MOL0     H35134   4.352   7.921   2.353 -0.9774  1.4185  1.8831
 1001MOL0     H35135   4.142   7.946   2.250  0.1396  0.0115  0.1767
 1002MOL0     O35136   5.766  11.061   0.609 -0.7739  0.4785  0.1440
 1002MOL0     C35137   5.777  11.111   0.497 -0.3573  0.5802 -0.3031
 1002MOL0     O35138   5.676  11.176   0.428 -0.4980 -0.2681 -0.1665
 1002MOL0     C35139   5.552  11.182   0.479  1.0633  1.0259 -0.6381
 1002MOL0     C35140   5.476  11.298   0.456  0.4562 -0.7778  0.7448
 1002MOL0     C35141   5.352  11.298   0.501  0.5061 -0.6979 -0.6498
 1002MOL0     C35142   5.285  11.190   0.566  0.4543  0.2534 -0.8061
 1002MOL0     O35143   5.162  11.192   0.632  0.3436 -0.2157  0.7326
 1002MOL0     C35144   5.109  11.328   0.651 -0.6208  0.8636  0.2151
 1002MOL0     C35145   5.013  11.326   0.775  0.0507 -0.3160  0.3233
 1002MOL0     C35146   4.869  11.290   0.748 -0.0341 -1.4795  0.6075
 1002MOL0     C35147   4.795  11.306   0.880  0.0929  0.2991  0.2057
 1002MOL0     C35148   4.666  11.222   0.881  0.1072 -0.5188  0.2435
 1002MOL0     C35149   4.610  11.210   1.019 -0.4047  0.0456  0.1913
 1002MOL0     C35150   4.503  11.105   1.023  0.4083  0.2678 -0.1968
 1002MOL0     C35151   4.371  11.147   0.953  0.0671  0.2085  0.5839
 1002MOL0     N35152   4.277  11.037   0.935  0.3239 -0.0432  0.2782
 1002MOL0     C35153   4.273  10.944   0.839 -0.2536  0.1620  0.2917
 1002MOL0     C35154   4.153  10.879   0.844 -0.1062 -0.9054 -0.4606
 1002MOL0     C35155   4.102  10.769   0.750  0.2758 -0.1212 -0.3008
 1002MOL0     C35156   3.947  10.754   0.783 -0.0860  0.0051  0.5771
 1002MOL0     C35157   3.880  10.684   0.660  0.7339 -0.4771 -0.5497
 1002MOL0     C35158   3.738  10.642   0.706 -0.5014  0.3518 -0.5785
 1002MOL0     O35159   3.671  10.596   0.586 -0.0114  0.4311 -0.1212
 1002MOL0     C35160   3.540  10.559   0.606  0.0107  0.9525  0.2201
 1002MOL0     C35161   3.471  10.548   0.734 -0.5684  1.1212  0.0021
 1002MOL0     C35162   3.332  10.535   0.743 -0.5692 -0.0957  0.4964
 1002MOL0     C35163   3.273  10.533   0.881 -0.3359  0.1925  0.1379
 1002MOL0     C35164   3.259  10.518   0.621 -0.2085 -0.7131  0.2274
 1002MOL0     C35165   3.104  10.506   0.615 -0.0717  0.1028  0.8534
 1002MOL0     O35166   3.027  10.560   0.714  0.1728 -0.3362 -0.1353
 1002MOL0     C35167   2.889  10.526   0.717 -0.8026  0.2775 -0.1027
 1002MOL0     C35168   2.803  10.631   0.700  0.3307 -0.0164 -0.0680
 1002MOL0     C35169   2.663  10.610   0.698 -1.0305  0.1012 -0.4232
 1002MOL0     C35170   2.613  10.485   0.723  0.6614 -0.5182  0.3905
 1002MOL0     O35171   2.479  10.462   0.742  0.8229 -0.5574  0.6739
 1002MOL0     C35172   2.440  10.478   0.882  1.2348 -0.2694  0.3333
 1002MOL0     C35173   2.297  10.431   0.911 -0.4822 -0.1463 -0.2763
 1002MOL0     C35174   2.190  10.494   0.812  0.6849 -0.2621 -0.2665
 1002MOL0     C35175   2.042  10.457   0.857 -0.1753 -0.2466  0.2028
 1002MOL0     C35176   1.992  10.510   0.989  0.4129 -0.3932  0.1930
 1002MOL0     C35177   1.836  10.517   0.999 -0.1224 -0.0783 -0.1424
 1002MOL0     C35178   1.778  10.378   0.993 -0.1876  0.1724 -0.5878
 1002MOL0     C35179   1.637  10.385   0.917  0.4598  0.0681  0.5152
 1002MOL0    Cl35180   1.491  10.476   0.979  0.1443  0.8610  0.3781
 1002MOL0     C35181   2.696  10.379   0.736 -0.1526 -0.3151 -0.2478
 1002MOL0     C35182   2.838  10.397   0.730  0.8825 -0.1007  0.7840
 1002MOL0     O35183   3.060  10.436   0.526  0.2469 -0.2665 -0.4863
 1002MOL0     C35184   3.322  10.534   0.501  0.4795  0.5684  0.2396
 1002MOL0     C35185   3.462  10.542   0.490  0.4464  0.5634  0.0512
 1002MOL0     N35186   4.088  10.942   0.955  0.4070 -0.1846  0.3212
 1002MOL0     N35187   4.166  11.026   1.016 -0.4728  0.2419 -0.4341
 1002MOL0     C35188   5.356  11.074   0.581 -0.2566 -0.9717 -0.1609
 1002MOL0     C35189   5.489  11.072   0.534  0.3046  0.3705  0.6246
 1002MOL0     C35190   5.912  11.097   0.437 -0.0594 -0.2869 -0.9369
 1002MOL0     C35191   5.936  11.140   0.305 -0.0108  0.1319  0.3331
 1002MOL0     C35192   6.066  11.140   0.257 -0.6218  0.4325  0.8409
 1002MOL0     C35193   6.174  11.083   0.337 -0.1056  0.8494 -0.3103
 1002MOL0     O35194   6.307  11.077   0.300 -0.6018 -0.2387 -0.8919
 1002MOL0     C35195   6.336  11.059   0.164  0.9526 -0.0985  0.3080
 1002MOL0     C35196   6.278  10.925   0.108 -0.6420  0.6400  0.4987
 1002MOL0     C35197   6.333  10.909  -0.031  0.1311  0.3613 -0.1537
 1002MOL0     C35198   6.305  10.770  -0.082 -0.1701 -0.1332 -0.2039
 1002MOL0     C35199   6.354  10.753  -0.216  0.5594  1.4769 -0.0724
 1002MOL0     C35200   6.396  10.716  -0.328 -0.4255 -0.3969 -0.6052
 1002MOL0     C35201   6.146  11.035   0.465  0.2037  0.6540  0.0159
 1002MOL0     C35202   6.022  11.056   0.517 -1.2242  0.4209 -0.2652
 1002MOL0     H35203   5.507  11.391   0.409 -0.9149  1.0102  3.1651
 1002MOL0     H35204   5.304  11.392   0.475  2.0493 -0.0555 -1.3133
 1002MOL0     H35205   5.188  11.392   0.692  1.4391 -1.8604  0.7592
 1002MOL0     H35206   5.059  11.374   0.566 -2.7200  0.5475  1.2141
 1002MOL0     H35207   5.059  11.269   0.857 -0.4811  0.0932  0.9251
 1002MOL0     H35208   5.016  11.427   0.818  2.1910 -0.7014  1.1986
 1002MOL0     H35209   4.830  11.354   0.668 -0.5624 -3.5582 -0.8621
 1002MOL0     H35210   4.859  11.185   0.721  2.9781 -1.7737  0.2796
 1002MOL0     H35211   4.856  11.260   0.958  1.0340  0.5667 -0.3594
 1002MOL0     H35212   4.783  11.412   0.904  0.5246 -0.1916  2.9688
 1002MOL0     H35213   4.589  11.278   0.828  0.0398  0.4466  1.3271
 1002MOL0     H35214   4.683  11.120   0.845 -0.2052 -1.2415  2.0517
 1002MOL0     H35215   4.691  11.179   1.084  1.1919  0.5188 -1.4948
 1002MOL0     H35216   4.572  11.312   1.034 -1.0798  0.3031 -2.6115
 1002MOL0     H35217   4.540  11.015   0.973 -0.7388 -0.2969 -0.0840
 1002MOL0     H35218   4.479  11.077   1.126 -1.6063 -0.0564 -0.7127
 1002MOL0     H35219   4.388  11.211   0.866 -0.2617  2.7336  2.2337
 1002MOL0     H35220   4.316  11.215   1.019 -0.8144 -0.1153  0.1946
 1002MOL0     H35221   4.340  10.923   0.756 -0.3101 -0.3125  0.3594
 1002MOL0     H35222   4.122  10.794   0.646 -2.2641  1.5545 -0.4680
 1002MOL0     H35223   4.154  10.678   0.782  0.0040  0.5244  2.1951
 1002MOL0     H35224   3.894  10.849   0.801  0.3095  0.1527  0.9653
 1002MOL0     H35225   3.932  10.698   0.876  2.5458 -0.4834  0.7720
 1002MOL0     H35226   3.947  10.601   0.636  3.1605  1.6705 -1.7419
 1002MOL0     H35227   3.868  10.750   0.574  0.2362 -2.4114 -2.0307
 1002MOL0     H35228   3.683  10.727   0.748  0.1414  0.7946 -0.6200
 1002MOL0     H35229   3.752  10.574   0.790  2.0579  0.5717 -0.7705
 1002MOL0     H35230   3.525  10.568   0.826 -1.8044 -1.2234  1.3562
 1002MOL0     H35231   3.202  10.450   0.879  0.6729 -0.6901 -0.0087
 1002MOL0     H35232   3.354  10.514   0.952  1.4674  1.1794 -1.5713
 1002MOL0     H35233   3.234  10.632   0.902  1.4972  1.1726 -0.7889
 1002MOL0     H35234   2.841  10.732   0.705 -3.4808  1.5410  2.4333
 1002MOL0     H35235   2.597  10.696   0.690 -2.5745 -1.1358 -1.7578
 1002MOL0     H35236   2.512  10.432   0.950  1.8830 -3.7292 -2.3992
 1002MOL0     H35237   2.440  10.587   0.892  0.0900 -0.2806  0.5817
 1002MOL0     H35238   2.287  10.323   0.901 -0.1632 -0.1430 -0.6408
 1002MOL0     H35239   2.276  10.463   1.013  1.8209  0.1851  0.1456
 1002MOL0     H35240   2.210  10.455   0.711  0.7503 -2.3045  0.4847
 1002MOL0     H35241   2.205  10.602   0.822  3.1509 -0.7513  2.9024
 1002MOL0     H35242   1.980  10.494   0.774 -0.1604  2.0421  1.1257
 1002MOL0     H35243   2.028  10.349   0.867  1.4641 -0.3806  1.4486
 1002MOL0     H35244   2.033  10.610   1.005 -0.7648  0.1181  0.1090
 1002MOL0     H35245   2.034  10.454   1.073 -0.5146 -1.8509 -0.2608
 1002MOL0     H35246   1.796  10.557   1.092 -1.5303  1.6824 -1.4350
 1002MOL0     H35247   1.808  10.575   0.911 -0.8843 -0.7647 -0.3703
 1002MOL0     H35248   1.749  10.335   1.090 -0.4737 -2.1297 -1.6314
 1002MOL0     H35249   1.843  10.309   0.939 -1.6512 -2.5134  0.8498
 1002MOL0     H35250   1.608  10.283   0.888 -1.2000  0.7453 -0.3443
 1002MOL0     H35251   1.647  10.415   0.812 -3.2898 -2.0792 -0.6393
 1002MOL0     H35252   2.646  10.284   0.749 -0.1340 -0.1370  1.1991
 1002MOL0     H35253   2.909  10.315   0.738  0.4463 -0.3856  1.8442
 1002MOL0     H35254   3.255  10.544   0.416 -2.7172  0.5419  2.6017
 1002MOL0     H35255   3.507  10.566   0.394  0.5491  2.4053  0.5144
 1002MOL0     H35256   5.316  10.989   0.634  2.1066 -1.0754  1.6333
 1002MOL0     H35257   5.549  10.984   0.555  0.7504  0.4644 -0.1976
 1002MOL0     H35258   5.856  11.166   0.237  1.8595  0.7016 -1.7679
 1002MOL0     H35259   6.074  11.175   0.155 -3.2626 -0.3376  0.2894
 1002MOL0     H35260   6.297  11.140   0.102 -2.3496 -1.9804 -0.3222
 1002MOL0     H35261   6.444  11.069   0.151  1.1100 -0.8960  0.9118
 1002MOL0     H35262   6.169  10.922   0.099 -0.8781 -1.5791  3.0215
 1002MOL0     H35263   6.314  10.835   0.159 -2.3842 -1.8444 -2.2801
 1002MOL0     H35264   6.440  10.929  -0.043  0.7951 -2.7955 -0.2583
 1002MOL0     H35265   6.276  10.981  -0.090  0.1433 -0.8651 -1.7192
 1002MOL0     H35266   6.198  10.745  -0.075 -0.2003 -0.0110 -0.2229
 1002MOL0     H35267   6.362  10.706  -0.015  0.6137  0.8203  0.0690
 1002MOL0     H35268   6.437  10.688  -0.422  0.1482 -1.5989 -0.0075
 1002MOL0     H35269   6.226  10.980   0.514  1.1681  0.4816 -1.6475
 1002MOL0     H35270   6.015  11.034   0.623 -0.3127 -2.7785 -0.7670
 1003MOL0     O35271   5.904   9.878  10.505 -0.6535  0.3200  0.5548
 1003MOL0     C35272   5.975   9.903  10.401 -0.2398  1.2134 -0.0028
 1003MOL0     O35273   5.927   9.936  10.276  0.7731  0.1739 -0.2843
 1003MOL0     C35274   5.791   9.905  10.265 -0.5707 -0.2116  0.0288
 1003MOL0     C35275   5.704  10.014  10.249  0.9859 -0.8283  0.3668
 1003MOL0     C35276   5.575   9.983  10.214 -0.2790 -0.1675  0.7376
 1003MOL0     C35277   5.533   9.842  10.211 -0.0147  1.0928 -0.0214
 1003MOL0     O35278   5.401   9.794  10.202 -0.4875 -0.8399 -0.1754
 1003MOL0     C35279   5.293   9.884  10.174 -0.8060  0.1433 -0.1225
 1003MOL0     C35280   5.233   9.927  10.315 -0.0336 -0.1019  0.6234
 1003MOL0     C35281   5.109  10.003  10.288  0.3013  0.1868 -0.3955
 1003MOL0     C35282   5.134  10.156  10.255 -0.4775  1.0335 -0.3837
 1003MOL0     C35283   5.040  10.215  10.143  0.3122  0.2499 -0.7190
 1003MOL0     C35284   4.894  10.230  10.193  0.1798  0.6956  0.3861
 1003MOL0     C35285   4.881  10.326  10.317  0.1759 -0.0720  0.5857
 1003MOL0     C35286   4.737  10.382  10.321  0.2557  0.0807  0.0941
 1003MOL0     N35287   4.732  10.522  10.272 -0.3354  0.3675 -0.0784
 1003MOL0     C35288   4.680  10.628  10.340 -0.2825 -0.4013 -0.0590
 1003MOL0     C35289   4.671  10.721  10.242  0.7705 -0.3646  1.1657
 1003MOL0     C35290   4.613  10.856  10.250  0.4796  1.0652 -0.0864
 1003MOL0     C35291   4.486  10.879  10.334 -0.9514 -0.1903  0.8746
 1003MOL0     C35292   4.361  10.820  10.272  0.3722 -0.3138  0.8570
 1003MOL0     C35293   4.242  10.829  10.366 -0.5067  0.0546  0.0958
 1003MOL0     O35294   4.221  10.964  10.416 -0.2463 -0.0270 -0.2306
 1003MOL0     C35295   4.143  10.975  10.530 -0.4980  0.4463  0.2214
 1003MOL0     C35296   4.062  10.882  10.579  0.7420 -0.1067  0.1381
 1003MOL0     C35297   3.977  10.897  10.692  0.9782  0.5848  0.8241
 1003MOL0     C35298   3.908  10.774  10.732 -0.6988 -0.0996 -0.9839
 1003MOL0     C35299   3.976  11.014  10.765 -1.0482 -0.1069  0.1986
 1003MOL0     C35300   3.890  11.044  10.883  0.0132 -0.7075  0.3372
 1003MOL0     O35301   3.826  10.944  10.946  0.0025 -0.0104  0.1435
 1003MOL0     C35302   3.822  10.929  11.085 -0.7628 -1.2738 -0.5992
 1003MOL0     C35303   3.718  10.866  11.146  0.3826  1.1800  0.6829
 1003MOL0     C35304   3.714  10.827  11.276  0.5479  0.4803 -1.5017
 1003MOL0     C35305   3.809  10.885  11.367  0.1029  0.0853  0.2086
 1003MOL0     O35306   3.817  10.861  11.502  0.5099  0.3421 -0.8105
 1003MOL0     C35307   3.701  10.824  11.578 -0.1978 -0.1740 -0.2527
 1003MOL0     C35308   3.621  10.954  11.617 -0.5977  0.4984  0.5298
 1003MOL0     C35309   3.505  10.921  11.701 -0.6185  0.5245 -0.1046
 1003MOL0     C35310   3.409  10.831  11.623  0.5653  0.2502  1.2236
 1003MOL0     C35311   3.273  10.840  11.692 -0.2020  1.1471  1.1158
 1003MOL0     C35312   3.153  10.807  11.601  0.1949 -0.4355  0.0643
 1003MOL0     C35313   3.021  10.834  11.682 -0.8794  0.4618  0.0596
 1003MOL0     C35314   2.898  10.820  11.597 -0.9254  0.3034 -0.1211
 1003MOL0    Cl35315   2.884  10.649  11.559  0.6832 -0.2786  0.2559
 1003MOL0     C35316   3.914  10.961  11.311 -0.7380  0.3563 -0.1782
 1003MOL0     C35317   3.924  10.978  11.169 -0.6366  0.0305 -0.4897
 1003MOL0     O35318   3.885  11.160  10.918 -0.3519  0.2968  0.3019
 1003MOL0     C35319   4.061  11.117  10.713 -0.0463  0.3162 -0.5943
 1003MOL0     C35320   4.133  11.094  10.601  0.3027  0.0208  0.4679
 1003MOL0     N35321   4.709  10.672  10.119 -0.2578  0.0947  0.0157
 1003MOL0     N35322   4.748  10.550  10.137  0.1782 -0.2121 -0.5505
 1003MOL0     C35323   5.617   9.743  10.232  0.2716  0.6712 -0.4642
 1003MOL0     C35324   5.749   9.772  10.260 -0.6507 -0.2883 -0.0941
 1003MOL0     C35325   6.127   9.901  10.414  0.0942  0.8386 -0.7791
 1003MOL0     C35326   6.219   9.961  10.330  0.1561 -0.6298  0.0434
 1003MOL0     C35327   6.355   9.944  10.347 -0.7049  0.2627  0.1704
 1003MOL0     C35328   6.402   9.851  10.435  0.9473  0.5881 -0.1151
 1003MOL0     O35329   6.532   9.812  10.468 -0.0859 -0.1051  1.1535
 1003MOL0     C35330   6.636   9.841  10.374  0.7680  0.0519 -0.1662
 1003MOL0     C35331   6.780   9.795  10.424  0.7107  0.0982 -0.1992
 1003MOL0     C35332   6.838   9.897  10.520 -0.0117  0.6410  0.1627
 1003MOL0     C35333   6.983   9.868  10.541 -0.3312  0.2508  0.2545
 1003MOL0     C35334   7.045   9.981  10.610 -0.5368 -0.8846  0.5321
 1003MOL0     C35335   7.087  10.085  10.653 -0.0879  0.1668  0.4691
 1003MOL0     C35336   6.318   9.800  10.526  0.9594  0.9139 -0.5828
 1003MOL0     C35337   6.178   9.823  10.524  0.6703  0.3675 -0.1527
 1003MOL0     H35338   5.740  10.116  10.233  1.4902 -0.3258  3.8857
 1003MOL0     H35339   5.499  10.060  10.205  0.8219  1.0847  1.7163
 1003MOL0     H35340   5.322   9.967  10.109 -1.0055  0.4623  0.1894
 1003MOL0     H35341   5.216   9.819  10.131  1.6170 -2.2399 -1.1559
 1003MOL0     H35342   5.217   9.841  10.380 -0.9196 -0.3645  0.0740
 1003MOL0     H35343   5.303  10.003  10.352 -1.6313  2.0828 -0.6027
 1003MOL0     H35344   5.043   9.969  10.208 -1.5155 -0.2589  1.2233
 1003MOL0     H35345   5.056  10.008  10.384 -0.2844 -0.0424 -0.7037
 1003MOL0     H35346   5.130  10.219  10.344  1.0261  0.8800 -0.1860
 1003MOL0     H35347   5.229  10.171  10.204 -0.8376  2.3763 -0.7239
 1003MOL0     H35348   5.064  10.313  10.101 -1.1333  0.4955 -1.0298
 1003MOL0     H35349   5.050  10.149  10.056  1.1254 -0.7604  0.1131
 1003MOL0     H35350   4.837  10.266  10.107 -0.1256 -1.7278 -0.4914
 1003MOL0     H35351   4.840  10.139  10.220  0.2870  0.1254 -1.2463
 1003MOL0     H35352   4.924  10.283  10.408  1.0950  0.4187  0.4064
 1003MOL0     H35353   4.945  10.413  10.294 -0.7949  0.4783 -0.1259
 1003MOL0     H35354   4.708  10.384  10.427  1.4899 -2.1614  0.5411
 1003MOL0     H35355   4.663  10.322  10.266  0.1445  1.1457 -0.9485
 1003MOL0     H35356   4.657  10.645  10.444  0.2853  0.7814 -0.1175
 1003MOL0     H35357   4.693  10.921  10.288 -0.5971  1.4568  1.6204
 1003MOL0     H35358   4.599  10.891  10.147  1.4493 -0.1870 -0.6692
 1003MOL0     H35359   4.482  10.988  10.347  1.0484  0.0100  0.1351
 1003MOL0     H35360   4.494  10.829  10.431 -3.1610  1.0276  1.7531
 1003MOL0     H35361   4.377  10.725  10.219 -0.7775  0.0456 -0.1772
 1003MOL0     H35362   4.333  10.878  10.184 -0.6240  1.4096  2.2477
 1003MOL0     H35363   4.274  10.761  10.446  1.7227  0.7025 -0.1563
 1003MOL0     H35364   4.153  10.791  10.316 -1.3513 -0.2131  1.7221
 1003MOL0     H35365   4.057  10.785  10.530  0.6567 -0.4165  0.7421
 1003MOL0     H35366   3.892  10.715  10.642  2.6277  0.0066 -1.7554
 1003MOL0     H35367   3.962  10.729  10.816  1.1967  2.4123 -0.7423
 1003MOL0     H35368   3.807  10.792  10.770 -1.0514 -0.5361 -1.6949
 1003MOL0     H35369   3.650  10.831  11.069  0.3367  0.3571  1.0794
 1003MOL0     H35370   3.628  10.772  11.315  1.2876  0.9541  0.9423
 1003MOL0     H35371   3.645  10.745  11.526 -0.1208 -0.2286 -0.2515
 1003MOL0     H35372   3.730  10.776  11.672  0.9367 -1.6023 -1.2957
 1003MOL0     H35373   3.689  11.031  11.655  0.1652  0.5765 -0.8992
 1003MOL0     H35374   3.585  10.993  11.521 -2.2598 -1.6927  0.1872
 1003MOL0     H35375   3.452  11.010  11.736 -1.5536 -0.5926  1.4543
 1003MOL0     H35376   3.545  10.861  11.783  2.0150 -0.3402 -1.8914
 1003MOL0     H35377   3.382  10.849  11.519  1.0324 -2.3826  0.5602
 1003MOL0     H35378   3.454  10.731  11.629  0.7685  0.3150  0.8048
 1003MOL0     H35379   3.258  10.947  11.712 -1.1422  1.1000  0.7329
 1003MOL0     H35380   3.285  10.780  11.782 -0.0805  0.4820  0.6667
 1003MOL0     H35381   3.155  10.872  11.512 -0.8947  0.0801  0.4023
 1003MOL0     H35382   3.158  10.703  11.568 -0.2324 -1.4133  2.8422
 1003MOL0     H35383   3.025  10.932  11.730  1.2069 -0.2248  1.4391
 1003MOL0     H35384   3.015  10.762  11.765  1.5052  1.0764  0.8696
 1003MOL0     H35385   2.907  10.885  11.509  0.4937 -0.6247 -0.7024
 1003MOL0     H35386   2.812  10.855  11.655 -0.1238  0.8019  0.7859
 1003MOL0     H35387   3.986  11.001  11.382 -1.3532 -1.5303  1.6124
 1003MOL0     H35388   4.012  11.031  11.135 -0.4129 -0.1864 -0.2472
 1003MOL0     H35389   4.078  11.208  10.769 -2.1040  0.3627  0.0722
 1003MOL0     H35390   4.193  11.175  10.560 -0.5687 -2.0649 -6.0415
 1003MOL0     H35391   5.584   9.640  10.235  0.0977  0.7378 -0.0047
 1003MOL0     H35392   5.809   9.681  10.266 -1.2965 -0.8024 -1.1795
 1003MOL0     H35393   6.185  10.013  10.241  2.1750  1.0048  0.1780
 1003MOL0     H35394   6.424   9.986  10.275 -2.1655  2.6451  0.0322
 1003MOL0     H35395   6.619   9.788  10.280  2.2003 -1.8350  0.5885
 1003MOL0     H35396   6.630   9.951  10.375 -4.0637  0.0019  1.0670
 1003MOL0     H35397   6.841   9.788  10.334 -0.4632 -1.9115 -0.8973
 1003MOL0     H35398   6.776   9.694  10.465  0.8096  0.7530  1.5380
 1003MOL0     H35399   6.788   9.903  10.617 -2.5237  2.2049 -1.1143
 1003MOL0     H35400   6.821   9.993  10.470 -2.0746 -0.2976 -1.1023
 1003MOL0     H35401   7.026   9.835  10.446  1.2974 -0.3115  1.1478
 1003MOL0     H35402   6.998   9.782  10.607 -2.3393 -0.2872  0.1014
 1003MOL0     H35403   7.148  10.171  10.676  0.7909 -0.9437  2.5433
 1003MOL0     H35404   6.344   9.724  10.599 -0.1744 -0.3777 -1.4867
 1003MOL0     H35405   6.117   9.764  10.591 -0.3572 -0.2694 -1.6150
 1004MOL0     O35406   1.114   9.949   5.859 -0.0879 -0.2229  1.5507
 1004MOL0     C35407   1.189   9.894   5.776  0.8856  0.0146  0.3023
 1004MOL0     O35408   1.146   9.807   5.677 -0.5551  0.8603 -0.0638
 1004MOL0     C35409   1.015   9.803   5.655  0.8552  0.5281 -0.1564
 1004MOL0     C35410   0.948   9.908   5.603 -0.2110  0.9134 -1.0154
 1004MOL0     C35411   0.810   9.901   5.590  0.6839  0.1745  0.3697
 1004MOL0     C35412   0.734   9.782   5.631  0.3606 -0.5252  0.3597
 1004MOL0     O35413   0.601   9.764   5.620  0.2398  0.4977 -0.9457
 1004MOL0     C35414   0.516   9.841   5.530 -0.4424  0.4186 -0.4941
 1004MOL0     C35415   0.401   9.765   5.507  0.5210  0.3344  0.6437
 1004MOL0     C35416   0.304   9.825   5.402 -0.8336 -0.5948 -0.6270
 1004MOL0     C35417   0.209   9.717   5.361  0.1758 -0.1979 -0.3744
 1004MOL0     C35418   0.098   9.771   5.274  0.5279 -0.6036  0.4690
 1004MOL0     C35419   0.161   9.816   5.131  0.6810 -0.1062 -1.1425
 1004MOL0     C35420   0.056   9.838   5.028  0.0719 -0.3886  0.6035
 1004MOL0     C35421   0.087   9.966   4.958 -0.1160 -0.1626 -0.3886
 1004MOL0     N35422  -0.027  10.002   4.879  0.0290  0.3073  0.6690
 1004MOL0     C35423  -0.153  10.033   4.927  0.3190 -0.0052 -0.0945
 1004MOL0     C35424  -0.211  10.088   4.821 -0.4235  0.0277 -0.2228
 1004MOL0     C35425  -0.349  10.146   4.818  0.5351  0.3093 -0.1593
 1004MOL0     C35426  -0.460  10.039   4.858 -0.4563 -0.0697 -0.4842
 1004MOL0     C35427  -0.594  10.117   4.900 -0.4403  0.1082  1.1537
 1004MOL0     C35428  -0.693  10.018   4.969 -1.0251 -0.1438  1.1194
 1004MOL0     O35429  -0.722   9.924   4.866  0.1876 -0.4762 -0.0010
 1004MOL0     C35430  -0.835   9.851   4.875  0.1098 -0.7188 -0.0646
 1004MOL0     C35431  -0.919   9.845   4.987 -0.0523 -0.6036 -0.1071
 1004MOL0     C35432  -1.036   9.771   4.990 -0.0496 -0.3058 -0.1000
 1004MOL0     C35433  -1.118   9.752   5.115 -0.4737  0.3698  0.2054
 1004MOL0     C35434  -1.082   9.718   4.869 -0.5007  0.7635  0.1806
 1004MOL0     C35435  -1.215   9.648   4.848  0.6628 -0.2784 -0.3582
 1004MOL0     O35436  -1.264   9.651   4.727  0.7363 -0.6107 -0.1058
 1004MOL0     C35437  -1.360   9.559   4.696  0.0596  0.3449  0.9851
 1004MOL0     C35438  -1.480   9.557   4.762  0.1882  0.9601 -0.7265
 1004MOL0     C35439  -1.587   9.487   4.701 -0.0619 -0.1680 -0.1611
 1004MOL0     C35440  -1.572   9.416   4.589  1.2595 -0.5725  0.3921
 1004MOL0     O35441  -1.685   9.360   4.537  0.0246 -0.2910  0.1050
 1004MOL0     C35442  -1.773   9.460   4.476  1.4753  0.3015  0.7388
 1004MOL0     C35443  -1.912   9.397   4.451  0.0692  0.7869 -0.5394
 1004MOL0     C35444  -2.007   9.377   4.584 -0.0743  0.0476 -0.2247
 1004MOL0     C35445  -2.135   9.311   4.545  0.2946 -0.2933 -0.2621
 1004MOL0     C35446  -2.246   9.313   4.650 -0.8471  0.1338 -0.4498
 1004MOL0     C35447  -2.221   9.235   4.782  0.4853  0.5979 -1.0045
 1004MOL0     C35448  -2.346   9.263   4.872 -0.0356  0.4460  0.1575
 1004MOL0     C35449  -2.339   9.393   4.954 -1.0499  0.4373 -0.7005
 1004MOL0    Cl35450  -2.268   9.350   5.119  0.1327 -0.1515 -0.1840
 1004MOL0     C35451  -1.445   9.407   4.529 -0.1536  0.3555 -0.5209
 1004MOL0     C35452  -1.339   9.482   4.583 -0.3237  0.0674  0.0926
 1004MOL0     O35453  -1.261   9.586   4.940  0.4676 -0.6300 -0.0329
 1004MOL0     C35454  -1.003   9.733   4.753 -0.3959  1.2274  0.5248
 1004MOL0     C35455  -0.879   9.789   4.760  0.0180 -0.4729  0.4061
 1004MOL0     N35456  -0.116  10.108   4.713 -0.0849 -0.5368 -0.2121
 1004MOL0     N35457  -0.009  10.052   4.756  0.4323  0.6994 -0.5033
 1004MOL0     C35458   0.805   9.678   5.674  0.3046 -0.1481  0.6956
 1004MOL0     C35459   0.944   9.677   5.682 -0.5522  0.3125  0.0538
 1004MOL0     C35460   1.338   9.880   5.800  1.0963  0.2282  0.6504
 1004MOL0     C35461   1.405   9.956   5.908  1.2669 -0.4025  0.1082
 1004MOL0     C35462   1.539   9.937   5.921  0.2256  0.3396  0.4207
 1004MOL0     C35463   1.610   9.862   5.835 -0.2032 -1.1044  0.8958
 1004MOL0     O35464   1.747   9.839   5.853  0.0197 -0.3131  0.0847
 1004MOL0     C35465   1.823   9.929   5.943  0.4518  0.2756  1.0768
 1004MOL0     C35466   1.969   9.877   5.957  0.2615  0.7830  0.0012
 1004MOL0     C35467   1.985   9.740   6.038  0.3347  0.0819  0.0440
 1004MOL0     C35468   2.130   9.684   6.022  0.2946 -0.3904  0.1534
 1004MOL0     C35469   2.141   9.591   6.130 -0.3533  0.4680  0.0720
 1004MOL0     C35470   2.141   9.500   6.206 -0.0887 -0.2371 -0.0556
 1004MOL0     C35471   1.552   9.799   5.723  0.0451  0.4032  0.4425
 1004MOL0     C35472   1.415   9.801   5.712 -0.0698 -0.1593  0.1103
 1004MOL0     H35473   1.002   9.997   5.573  1.1822  0.3199 -0.4075
 1004MOL0     H35474   0.749   9.987   5.565  2.1915  1.1770  0.0041
 1004MOL0     H35475   0.479   9.930   5.583 -1.0086 -1.3808  2.3254
 1004MOL0     H35476   0.572   9.856   5.437  2.8943 -1.2596  1.0964
 1004MOL0     H35477   0.423   9.663   5.473 -2.1805 -0.0227 -0.3182
 1004MOL0     H35478   0.340   9.751   5.596 -2.8995  4.2152 -0.7883
 1004MOL0     H35479   0.238   9.901   5.443 -1.0355  0.1390 -2.2230
 1004MOL0     H35480   0.351   9.884   5.322 -3.2215  3.1768  0.5010
 1004MOL0     H35481   0.265   9.641   5.307 -0.3869 -0.4680 -0.5913
 1004MOL0     H35482   0.157   9.668   5.445 -0.4337  0.7199 -0.1928
 1004MOL0     H35483   0.028   9.691   5.252  0.7108 -0.2046 -1.8583
 1004MOL0     H35484   0.058   9.858   5.326  2.4899  1.5705 -1.3832
 1004MOL0     H35485   0.208   9.913   5.153  0.8253 -0.5979  0.8664
 1004MOL0     H35486   0.228   9.737   5.096  0.7987 -1.1466  1.2639
 1004MOL0     H35487   0.045   9.757   4.956  2.1973 -0.7119  0.5772
 1004MOL0     H35488  -0.041   9.848   5.079 -1.0312  0.7924 -1.5784
 1004MOL0     H35489   0.170   9.952   4.888 -1.8417 -0.8103 -2.4077
 1004MOL0     H35490   0.110  10.048   5.027  2.7032 -1.4971  0.4005
 1004MOL0     H35491  -0.184  10.017   5.030  1.9907  0.1962  0.4673
 1004MOL0     H35492  -0.347  10.227   4.891  0.5531 -0.6215  0.8805
 1004MOL0     H35493  -0.389  10.186   4.724 -1.1745 -3.0217 -1.0129
 1004MOL0     H35494  -0.435   9.978   4.945  0.5236 -0.8051 -1.2481
 1004MOL0     H35495  -0.480   9.975   4.772  1.4763 -0.3304 -0.7863
 1004MOL0     H35496  -0.641  10.164   4.813  4.4819  2.4398 -0.6587
 1004MOL0     H35497  -0.577  10.198   4.971  0.2476  2.0177 -1.0629
 1004MOL0     H35498  -0.784  10.063   5.011 -2.7944 -1.4755 -1.0389
 1004MOL0     H35499  -0.653   9.969   5.057 -0.4671  0.2680  1.0977
 1004MOL0     H35500  -0.886   9.887   5.082  0.6758 -1.3520 -0.0182
 1004MOL0     H35501  -1.075   9.812   5.196  1.3506  1.2051 -1.2929
 1004MOL0     H35502  -1.223   9.780   5.101 -0.6047 -0.3309 -0.2244
 1004MOL0     H35503  -1.103   9.646   5.138  1.1070  0.6925  0.8184
 1004MOL0     H35504  -1.497   9.614   4.852 -0.6240 -0.4616  0.0706
 1004MOL0     H35505  -1.677   9.486   4.762  0.1061 -0.5110  0.0833
 1004MOL0     H35506  -1.786   9.550   4.537 -0.9507 -0.1173  0.9066
 1004MOL0     H35507  -1.723   9.488   4.382 -1.3930 -0.5169 -1.1574
 1004MOL0     H35508  -1.959   9.455   4.371  0.0042 -0.2579 -1.2876
 1004MOL0     H35509  -1.893   9.295   4.416 -1.6269  0.6247 -1.0986
 1004MOL0     H35510  -2.035   9.480   4.611  0.6652  0.5525 -1.2879
 1004MOL0     H35511  -1.962   9.334   4.674  2.6419  1.7298 -0.6590
 1004MOL0     H35512  -2.185   9.354   4.458  0.8995  1.7184  0.3336
 1004MOL0     H35513  -2.114   9.205   4.525  2.6870  0.4145 -1.9181
 1004MOL0     H35514  -2.344   9.285   4.612  0.0196 -1.9347 -1.2816
 1004MOL0     H35515  -2.259   9.419   4.676  1.2099 -0.0074  1.4245
 1004MOL0     H35516  -2.196   9.130   4.764  2.1266  0.5882  1.0274
 1004MOL0     H35517  -2.133   9.269   4.836  0.2569 -1.1790  0.6025
 1004MOL0     H35518  -2.375   9.175   4.931 -0.5870 -0.2175 -1.0747
 1004MOL0     H35519  -2.437   9.272   4.812  0.7418 -0.3094 -1.1741
 1004MOL0     H35520  -2.436   9.442   4.963 -0.8049  0.6376  1.3169
 1004MOL0     H35521  -2.270   9.458   4.900  0.8637  0.3890  1.5184
 1004MOL0     H35522  -1.433   9.349   4.438 -1.6469 -0.6776 -0.1045
 1004MOL0     H35523  -1.237   9.490   4.547 -0.1042  2.3053  1.0732
 1004MOL0     H35524  -1.037   9.682   4.664  0.6032 -0.9148  1.2947
 1004MOL0     H35525  -0.813   9.789   4.673 -1.2281 -0.4553 -0.5561
 1004MOL0     H35526   0.758   9.582   5.697  1.9928 -1.3234 -0.5088
 1004MOL0     H35527   0.994   9.586   5.713 -1.3925  0.5863  2.3834
 1004MOL0     H35528   1.350  10.011   5.983 -0.4845 -1.4847 -0.3089
 1004MOL0     H35529   1.576   9.983   6.012  3.0075 -1.4160  0.2860
 1004MOL0     H35530   1.805  10.030   5.905  1.8468 -0.4731 -1.8609
 1004MOL0     H35531   1.791   9.922   6.048  3.2521 -1.3159  1.9219
 1004MOL0     H35532   2.025   9.954   6.010 -2.1912  2.9579 -0.3474
 1004MOL0     H35533   2.014   9.864   5.858  2.0032  0.4119  0.8047
 1004MOL0     H35534   1.917   9.659   6.012  0.2975 -1.0707  3.3645
 1004MOL0     H35535   1.949   9.753   6.140 -0.3088 -1.9078  0.1148
 1004MOL0     H35536   2.201   9.766   6.037  0.2922  0.0120 -1.7791
 1004MOL0     H35537   2.142   9.635   5.925 -1.4045 -2.8589  1.0797
 1004MOL0     H35538   2.148   9.404   6.254  4.2369 -0.7650 -1.3912
 1004MOL0     H35539   1.613   9.743   5.652 -0.9942  0.5693 -0.6071
 1004MOL0     H35540   1.378   9.738   5.631 -0.1775  1.1639 -0.8987
 1005MOL0     O35541   6.365   3.304   5.566 -0.0772 -0.1980  1.2107
 1005MOL0     C35542   6.482   3.324   5.608 -1.2951  0.7778  0.9631
 1005MOL0     O35543   6.602   3.281   5.551  0.6692  0.5304 -0.4525
 1005MOL0     C35544   6.608   3.237   5.420 -0.0021 -0.1033 -0.6190
 1005MOL0     C35545   6.514   3.150   5.359  0.0958  0.2973 -0.3772
 1005MOL0     C35546   6.547   3.088   5.239 -0.6650 -0.3678 -0.9921
 1005MOL0     C35547   6.665   3.115   5.163  0.4963 -0.0675 -0.1585
 1005MOL0     O35548   6.676   3.042   5.041 -0.6649  0.2201  0.1551
 1005MOL0     C35549   6.810   3.013   5.002 -0.0862  0.2024  0.2120
 1005MOL0     C35550   6.808   2.887   4.919 -0.4340  0.0594  0.5560
 1005MOL0     C35551   6.727   2.905   4.791 -0.0089 -0.1893 -0.5729
 1005MOL0     C35552   6.699   2.780   4.731 -0.0065  0.9020  0.0470
 1005MOL0     C35553   6.605   2.792   4.612 -0.1579 -0.0374 -0.5391
 1005MOL0     C35554   6.590   2.657   4.539  0.3558 -0.2343  0.1979
 1005MOL0     C35555   6.476   2.649   4.440 -0.8385 -0.5661  0.6648
 1005MOL0     C35556   6.335   2.650   4.514  0.1967 -0.1105 -0.7204
 1005MOL0     N35557   6.301   2.526   4.591 -0.6099  0.0477  0.0196
 1005MOL0     C35558   6.255   2.407   4.537 -0.8672  0.7738  0.2950
 1005MOL0     C35559   6.231   2.323   4.641 -0.0503  0.1824  0.1646
 1005MOL0     C35560   6.193   2.179   4.641 -0.8141 -0.1660 -0.0627
 1005MOL0     C35561   6.044   2.177   4.658  0.6312 -0.0408 -0.2533
 1005MOL0     C35562   5.988   2.024   4.669 -0.2695 -0.0181  0.2320
 1005MOL0     C35563   5.829   2.033   4.671  0.9867  0.3562 -0.8536
 1005MOL0     O35564   5.787   2.097   4.791  1.0184 -0.2684 -0.6559
 1005MOL0     C35565   5.650   2.106   4.816  0.0311 -0.1256  0.4399
 1005MOL0     C35566   5.614   2.183   4.927  0.1969  0.4619 -0.0540
 1005MOL0     C35567   5.477   2.218   4.941 -0.0519  0.3658  0.2821
 1005MOL0     C35568   5.434   2.277   5.072  0.1222  0.8857  0.4370
 1005MOL0     C35569   5.384   2.170   4.846 -0.5858 -0.2453 -0.8327
 1005MOL0     C35570   5.249   2.208   4.856 -0.0482 -0.5227  1.1744
 1005MOL0     O35571   5.154   2.114   4.833  0.2266  0.3220 -0.1511
 1005MOL0     C35572   5.022   2.129   4.853 -0.6658  0.5467  0.1467
 1005MOL0     C35573   4.969   2.179   4.982 -0.1021  0.9341 -0.3783
 1005MOL0     C35574   4.835   2.176   4.997  0.0578 -0.3709 -1.2130
 1005MOL0     C35575   4.753   2.127   4.890  0.2731 -0.5196 -0.0561
 1005MOL0     O35576   4.617   2.132   4.917 -0.2613  1.1948  0.4372
 1005MOL0     C35577   4.535   2.069   4.818 -0.3350 -0.4785 -0.8435
 1005MOL0     C35578   4.382   2.070   4.865 -0.0397 -0.4256 -0.0468
 1005MOL0     C35579   4.300   1.992   4.764  0.1090 -0.1920  0.3994
 1005MOL0     C35580   4.165   1.950   4.832  1.1111 -0.5134  0.0024
 1005MOL0     C35581   4.087   1.874   4.718  0.6848  0.3165 -0.7568
 1005MOL0     C35582   3.950   1.807   4.763 -0.1200 -0.1862 -0.3691
 1005MOL0     C35583   3.836   1.913   4.782  0.1751 -0.4361  0.2737
 1005MOL0     C35584   3.713   1.831   4.816 -0.1114 -0.1268 -0.1507
 1005MOL0    Cl35585   3.574   1.940   4.845  0.1151  0.1625 -0.1937
 1005MOL0     C35586   4.801   2.087   4.768  0.9837 -0.2968 -0.6209
 1005MOL0     C35587   4.937   2.089   4.750 -0.0871 -0.1720  0.2720
 1005MOL0     O35588   5.232   2.326   4.887  0.1866  0.9909 -0.2325
 1005MOL0     C35589   5.422   2.091   4.743  0.3075  1.0169  0.8405
 1005MOL0     C35590   5.549   2.059   4.723 -0.4050  0.0822 -0.3519
 1005MOL0     N35591   6.268   2.386   4.760 -0.3528 -0.0343  0.2939
 1005MOL0     N35592   6.305   2.504   4.724  0.3607  0.0508  0.0252
 1005MOL0     C35593   6.760   3.192   5.227  0.5296 -0.5790  0.1978
 1005MOL0     C35594   6.733   3.249   5.357 -0.3432  0.3958 -0.0060
 1005MOL0     C35595   6.496   3.403   5.728 -0.5929 -0.5470  0.4507
 1005MOL0     C35596   6.388   3.473   5.782 -0.0764 -0.3803  0.2939
 1005MOL0     C35597   6.398   3.556   5.896 -0.0226 -0.2457  0.2539
 1005MOL0     C35598   6.524   3.580   5.956  0.3733  0.4951  0.0988
 1005MOL0     O35599   6.562   3.662   6.065 -0.3897 -0.1307  0.0243
 1005MOL0     C35600   6.489   3.773   6.107  0.5034 -0.8709 -0.1799
 1005MOL0     C35601   6.540   3.890   6.021 -0.2797  0.2525  0.0422
 1005MOL0     C35602   6.689   3.922   6.047 -0.4704 -0.2961 -0.5311
 1005MOL0     C35603   6.743   4.030   5.957 -0.6711 -0.2269 -0.5922
 1005MOL0     C35604   6.732   3.985   5.822  0.1714  0.2618  0.9245
 1005MOL0     C35605   6.726   3.958   5.706  0.9410 -1.1222  0.3083
 1005MOL0     C35606   6.636   3.506   5.908  0.3082 -0.1253 -0.1499
 1005MOL0     C35607   6.622   3.411   5.799 -0.2638 -1.0937  0.0750
 1005MOL0     H35608   6.418   3.135   5.406  0.0783  1.1300 -0.1370
 1005MOL0     H35609   6.502   2.999   5.197  1.8264 -1.3464 -1.7679
 1005MOL0     H35610   6.859   3.097   4.952  1.1261 -0.7979 -0.3223
 1005MOL0     H35611   6.882   2.993   5.082 -1.2483  2.5536  1.9736
 1005MOL0     H35612   6.914   2.870   4.899 -0.3211  0.8046  0.4582
 1005MOL0     H35613   6.770   2.800   4.973  1.7223 -0.8940  0.6113
 1005MOL0     H35614   6.639   2.970   4.787  0.4125  0.3763 -4.0689
 1005MOL0     H35615   6.798   2.958   4.727 -1.0870  1.6063 -0.3406
 1005MOL0     H35616   6.791   2.722   4.714 -0.6323  0.0648 -0.5553
 1005MOL0     H35617   6.645   2.720   4.804 -0.9465 -0.9252 -2.0242
 1005MOL0     H35618   6.507   2.826   4.645  0.4713  0.3561  1.0391
 1005MOL0     H35619   6.637   2.870   4.542  0.8336  0.3652  0.3422
 1005MOL0     H35620   6.683   2.639   4.484  1.1795 -1.7028  1.9330
 1005MOL0     H35621   6.580   2.568   4.603  0.6091 -0.8147 -0.5463
 1005MOL0     H35622   6.480   2.734   4.372 -1.5562 -1.1484 -0.1171
 1005MOL0     H35623   6.487   2.554   4.387  0.1408 -0.9566  1.5176
 1005MOL0     H35624   6.257   2.663   4.438 -0.0775  2.9568 -0.0808
 1005MOL0     H35625   6.320   2.734   4.583  1.0281 -0.4473 -0.1151
 1005MOL0     H35626   6.238   2.379   4.434  0.2151 -0.8505  0.5248
 1005MOL0     H35627   6.227   2.124   4.553 -2.0313  0.9078 -1.2458
 1005MOL0     H35628   6.237   2.129   4.728 -0.6233 -1.4932 -0.8981
 1005MOL0     H35629   5.999   2.225   4.570 -1.0270 -0.7150  0.1896
 1005MOL0     H35630   6.019   2.231   4.750  2.6263  0.7213 -0.0997
 1005MOL0     H35631   6.033   1.982   4.759  0.6373 -0.7952 -0.5525
 1005MOL0     H35632   6.015   1.971   4.577 -0.8296  1.1429 -0.6300
 1005MOL0     H35633   5.786   1.935   4.649 -1.0597  0.4668  2.1105
 1005MOL0     H35634   5.813   2.092   4.580  1.0001  2.1115  0.2296
 1005MOL0     H35635   5.691   2.210   5.000 -0.2398 -1.0941  1.0332
 1005MOL0     H35636   5.452   2.385   5.076  2.0269  0.6456 -0.2815
 1005MOL0     H35637   5.340   2.237   5.111  0.6297  1.1498  2.0166
 1005MOL0     H35638   5.508   2.243   5.145  0.9797  0.2230 -0.6991
 1005MOL0     H35639   5.038   2.221   5.054  0.2682  2.1621 -1.4196
 1005MOL0     H35640   4.796   2.223   5.088  2.3494  1.1882 -0.9470
 1005MOL0     H35641   4.546   2.118   4.721  2.5008 -1.3851 -1.0826
 1005MOL0     H35642   4.564   1.964   4.815 -1.7933 -0.8687 -2.9877
 1005MOL0     H35643   4.390   2.020   4.962 -1.1889  3.8346  2.4548
 1005MOL0     H35644   4.355   2.175   4.868  2.5368  0.2948  0.4467
 1005MOL0     H35645   4.351   1.901   4.732  1.1319  1.4994 -3.3315
 1005MOL0     H35646   4.283   2.043   4.669 -0.8849 -0.9330  0.1601
 1005MOL0     H35647   4.176   1.890   4.922 -0.5132  0.3310  0.7888
 1005MOL0     H35648   4.103   2.033   4.867  1.8505  0.8411 -1.7340
 1005MOL0     H35649   4.153   1.800   4.672  0.3597 -2.6581  3.0416
 1005MOL0     H35650   4.068   1.952   4.644 -0.9534  0.8503  0.1863
 1005MOL0     H35651   3.925   1.734   4.685 -2.1348 -1.8077  1.6368
 1005MOL0     H35652   3.978   1.758   4.857  1.6668 -1.2753 -1.4134
 1005MOL0     H35653   3.834   1.974   4.692  1.5772 -2.3184 -1.1292
 1005MOL0     H35654   3.864   1.973   4.869 -2.3676 -3.7941  3.7308
 1005MOL0     H35655   3.733   1.773   4.907 -0.1394  0.9374  0.5474
 1005MOL0     H35656   3.679   1.766   4.735 -0.7743  0.5527 -0.4338
 1005MOL0     H35657   4.738   2.053   4.686  1.6057  1.4360 -1.8688
 1005MOL0     H35658   4.984   2.055   4.658 -0.2056 -0.0502  0.1670
 1005MOL0     H35659   5.354   2.041   4.674  1.1787 -1.8533  1.9280
 1005MOL0     H35660   5.568   1.991   4.640  0.3169  0.0186 -0.1422
 1005MOL0     H35661   6.859   3.215   5.190  0.8228 -2.3290 -0.1924
 1005MOL0     H35662   6.815   3.292   5.413 -0.4197 -0.1440  0.5321
 1005MOL0     H35663   6.296   3.471   5.724  0.5820 -0.8531 -0.7640
 1005MOL0     H35664   6.313   3.612   5.935  1.1257  0.8296  1.3202
 1005MOL0     H35665   6.381   3.777   6.094  0.4939  0.9220  0.2870
 1005MOL0     H35666   6.508   3.795   6.212  2.2468  1.9049 -0.9696
 1005MOL0     H35667   6.487   3.981   6.052  2.5574  1.6855  1.1096
 1005MOL0     H35668   6.511   3.868   5.918  0.7322 -4.1217  0.4834
 1005MOL0     H35669   6.748   3.830   6.035  3.0546  1.6739  0.3752
 1005MOL0     H35670   6.692   3.949   6.153 -1.6238 -6.3971  1.4680
 1005MOL0     H35671   6.845   4.052   5.989 -0.0643 -1.5195 -1.5550
 1005MOL0     H35672   6.676   4.115   5.965  0.2171  0.4854 -0.6031
 1005MOL0     H35673   6.721   3.922   5.605 -1.3524 -2.9237  0.9553
 1005MOL0     H35674   6.736   3.507   5.952 -0.9871  1.8898  3.0732
 1005MOL0     H35675   6.710   3.351   5.776  0.1130 -0.7703  0.6375
 1006MOL0     O35676   9.571   6.843   3.998 -0.0755  1.4114 -0.0848
 1006MOL0     C35677   9.610   6.908   4.097  0.0063 -0.8291  0.0173
 1006MOL0     O35678   9.531   6.944   4.200 -0.3359 -0.3050 -0.1781
 1006MOL0     C35679   9.393   6.938   4.182 -0.0992 -0.9276  0.3190
 1006MOL0     C35680   9.335   6.971   4.065 -0.9773  0.1825  0.4202
 1006MOL0     C35681   9.197   6.972   4.041  0.2302 -0.1778 -0.3923
 1006MOL0     C35682   9.112   6.925   4.145 -0.4944 -1.0799 -0.4680
 1006MOL0     O35683   8.978   6.918   4.122  0.4942  0.5682 -0.0918
 1006MOL0     C35684   8.875   6.892   4.223 -0.4893 -0.2637 -0.4679
 1006MOL0     C35685   8.744   6.876   4.149 -0.1590  0.0718 -0.8925
 1006MOL0     C35686   8.621   6.867   4.245  0.3357 -0.3205  0.1763
 1006MOL0     C35687   8.495   6.862   4.154 -0.8883 -0.3277  0.4779
 1006MOL0     C35688   8.377   6.805   4.226  1.0490  0.4586  0.0731
 1006MOL0     C35689   8.243   6.830   4.150 -0.1123 -0.1184  0.1949
 1006MOL0     C35690   8.127   6.786   4.237 -1.1302  0.6472 -0.3657
 1006MOL0     C35691   7.993   6.796   4.151  0.5666  0.4407 -0.6622
 1006MOL0     N35692   7.917   6.923   4.168  0.2041 -0.3515 -0.0079
 1006MOL0     C35693   7.786   6.944   4.118 -0.4092 -0.3612  0.1069
 1006MOL0     C35694   7.757   7.074   4.164 -0.4163 -0.5023  0.2005
 1006MOL0     C35695   7.632   7.146   4.134 -0.3853  0.0041 -0.5036
 1006MOL0     C35696   7.651   7.249   4.015  0.1515  0.1380 -0.2686
 1006MOL0     C35697   7.655   7.182   3.876  0.8517 -0.5039  0.4760
 1006MOL0     C35698   7.633   7.291   3.767  0.4160 -0.1139 -0.0899
 1006MOL0     O35699   7.507   7.351   3.775  0.2836 -0.2780  0.8359
 1006MOL0     C35700   7.397   7.306   3.697 -0.4027  0.6540 -0.3351
 1006MOL0     C35701   7.403   7.215   3.593  0.7865 -0.9924 -0.1848
 1006MOL0     C35702   7.288   7.170   3.521 -0.0905 -1.0498 -0.7106
 1006MOL0     C35703   7.301   7.070   3.410  0.1949 -0.1155  0.4842
 1006MOL0     C35704   7.161   7.219   3.577  0.6544  0.7663  0.7852
 1006MOL0     C35705   7.028   7.177   3.519 -0.0209 -0.2426 -0.7552
 1006MOL0     O35706   7.007   7.189   3.378 -0.3185 -0.4724  0.1812
 1006MOL0     C35707   6.888   7.130   3.330  0.1116  0.7427 -0.1816
 1006MOL0     C35708   6.811   7.197   3.241 -0.9120 -0.4981 -0.8668
 1006MOL0     C35709   6.696   7.142   3.195  0.3044  0.9416 -0.2907
 1006MOL0     C35710   6.658   7.013   3.218 -0.4680  0.3616 -0.2943
 1006MOL0     O35711   6.539   6.962   3.164  0.1023 -0.3175  0.2941
 1006MOL0     C35712   6.441   6.923   3.260  0.9170 -0.2309 -0.1740
 1006MOL0     C35713   6.321   6.851   3.196  0.3495  0.2008  0.1844
 1006MOL0     C35714   6.202   6.817   3.300 -0.1157 -0.4388  1.0316
 1006MOL0     C35715   6.136   6.953   3.362  0.1216  0.9369  0.1392
 1006MOL0     C35716   6.044   6.903   3.482 -0.3833  0.4846  0.4712
 1006MOL0     C35717   5.941   6.796   3.445  0.4766  0.9152  0.4535
 1006MOL0     C35718   5.825   6.786   3.558 -0.3746 -0.4326 -0.0167
 1006MOL0     C35719   5.773   6.637   3.567  0.6858 -0.0879  0.2534
 1006MOL0    Cl35720   5.723   6.602   3.411 -0.3751  0.0819 -0.4479
 1006MOL0     C35721   6.737   6.939   3.310  0.1631  0.2079  0.0022
 1006MOL0     C35722   6.851   6.997   3.363 -0.2688  0.7221  0.8129
 1006MOL0     O35723   6.948   7.135   3.596  0.5753  0.0773  0.0389
 1006MOL0     C35724   7.160   7.300   3.690  0.7676 -0.3536 -0.3583
 1006MOL0     C35725   7.273   7.342   3.745 -0.6144  0.6591  1.1452
 1006MOL0     N35726   7.866   7.132   4.224 -1.0078  0.2929  0.1178
 1006MOL0     N35727   7.955   7.039   4.225 -0.6046  0.2926 -0.7603
 1006MOL0     C35728   9.173   6.882   4.265  1.1216 -0.0227 -0.0088
 1006MOL0     C35729   9.315   6.881   4.286  0.3702  0.1238  0.0917
 1006MOL0     C35730   9.758   6.938   4.125  0.4638 -0.0973 -0.1898
 1006MOL0     C35731   9.801   7.013   4.232  0.5907 -0.4011 -0.0327
 1006MOL0     C35732   9.941   7.026   4.258 -0.9370  0.7733  1.0407
 1006MOL0     C35733  10.037   6.977   4.165 -0.4820  0.5908 -0.6310
 1006MOL0     O35734  10.174   6.990   4.170 -0.1148  0.0788  0.4492
 1006MOL0     C35735  10.241   7.055   4.275 -0.5411  0.2395  0.3675
 1006MOL0     C35736  10.387   7.047   4.259 -0.0114  0.3353  0.2731
 1006MOL0     C35737  10.426   7.103   4.121 -0.1534  1.0502  0.6865
 1006MOL0     C35738  10.574   7.127   4.100 -0.6298 -0.0163  0.2289
 1006MOL0     C35739  10.627   7.241   4.172  0.1803  0.4156  0.1047
 1006MOL0     C35740  10.676   7.323   4.241 -0.8252 -0.5206  0.3006
 1006MOL0     C35741   9.988   6.895   4.063 -0.6633  0.0569 -0.4234
 1006MOL0     C35742   9.854   6.880   4.039 -0.1564 -0.5858 -0.1142
 1006MOL0     H35743   9.391   7.016   3.983  0.0117  0.9908  1.4954
 1006MOL0     H35744   9.155   7.016   3.951 -0.0534  0.4610  0.0477
 1006MOL0     H35745   8.899   6.798   4.274  2.7535  0.6842 -0.0289
 1006MOL0     H35746   8.864   6.967   4.301  4.1948 -0.4398  0.6633
 1006MOL0     H35747   8.734   6.966   4.089  0.2355 -0.8544 -2.4053
 1006MOL0     H35748   8.752   6.790   4.081 -1.8735 -0.9994  0.1939
 1006MOL0     H35749   8.621   6.776   4.306 -0.8337  1.0990  2.4452
 1006MOL0     H35750   8.617   6.955   4.310  0.3716  0.1301 -0.4248
 1006MOL0     H35751   8.470   6.965   4.130  2.4771  0.2671 -1.0102
 1006MOL0     H35752   8.512   6.810   4.059 -0.5227 -0.6925  0.7386
 1006MOL0     H35753   8.381   6.699   4.253 -1.0927  0.2165 -0.3802
 1006MOL0     H35754   8.368   6.859   4.320  3.8670 -0.6950  1.1236
 1006MOL0     H35755   8.229   6.936   4.126 -0.4051 -0.6546 -2.2749
 1006MOL0     H35756   8.238   6.766   4.062 -3.1006 -0.8943  0.8336
 1006MOL0     H35757   8.136   6.680   4.261  0.2115  1.0613  1.1275
 1006MOL0     H35758   8.115   6.836   4.333 -2.4412 -0.4138  0.0480
 1006MOL0     H35759   7.932   6.712   4.186  0.6955  1.0771  1.2012
 1006MOL0     H35760   7.998   6.782   4.043 -1.2733  0.9684 -0.8616
 1006MOL0     H35761   7.735   6.870   4.057 -1.0628 -0.4620  0.7520
 1006MOL0     H35762   7.544   7.081   4.123 -2.1474  2.2922 -0.5980
 1006MOL0     H35763   7.627   7.203   4.227  2.6774  0.8040 -0.7388
 1006MOL0     H35764   7.751   7.293   4.019  1.1932 -1.9483 -1.4307
 1006MOL0     H35765   7.561   7.310   4.025 -1.2716 -2.0654  1.4873
 1006MOL0     H35766   7.582   7.101   3.865  0.3931 -0.1586  0.9340
 1006MOL0     H35767   7.754   7.136   3.869  0.7566 -0.4570 -3.4447
 1006MOL0     H35768   7.653   7.249   3.668 -0.4873 -0.5316 -0.1008
 1006MOL0     H35769   7.705   7.374   3.767 -1.0276  1.1764 -0.9088
 1006MOL0     H35770   7.496   7.170   3.560  0.6314 -1.3269 -0.1676
 1006MOL0     H35771   7.210   7.009   3.399  1.3418 -1.7314 -0.4099
 1006MOL0     H35772   7.318   7.121   3.315 -0.1816 -0.5920  0.1549
 1006MOL0     H35773   7.383   6.999   3.425  0.3600 -0.1230 -0.4205
 1006MOL0     H35774   6.836   7.293   3.197  0.0069 -1.3775 -2.3537
 1006MOL0     H35775   6.639   7.202   3.125  1.2883  0.1335 -1.8296
 1006MOL0     H35776   6.482   6.859   3.338 -2.1494  2.4672  4.1300
 1006MOL0     H35777   6.412   7.015   3.312 -1.6043 -0.4305 -1.0797
 1006MOL0     H35778   6.284   6.900   3.105 -0.7516  0.2505  0.6432
 1006MOL0     H35779   6.353   6.754   3.157  4.3086  0.3666  2.5334
 1006MOL0     H35780   6.248   6.760   3.381  0.4342  1.1659  1.9057
 1006MOL0     H35781   6.115   6.765   3.259 -3.3057  3.1321  2.5597
 1006MOL0     H35782   6.212   7.012   3.413 -0.3789 -0.3991  2.6250
 1006MOL0     H35783   6.084   7.013   3.288 -3.2358 -1.4685  0.3077
 1006MOL0     H35784   5.988   6.994   3.509 -1.2631  0.0366  0.1874
 1006MOL0     H35785   6.107   6.869   3.565 -1.6759  1.5610  1.9470
 1006MOL0     H35786   5.888   6.831   3.357 -0.1875 -0.5992  0.2224
 1006MOL0     H35787   5.986   6.698   3.425 -1.4814  0.3086 -1.3032
 1006MOL0     H35788   5.745   6.859   3.542  1.0437  0.6693 -2.7208
 1006MOL0     H35789   5.871   6.809   3.655  1.9332 -0.7386 -0.9901
 1006MOL0     H35790   5.685   6.624   3.631 -0.7535 -2.6339 -2.0144
 1006MOL0     H35791   5.842   6.556   3.595 -0.9963 -1.9357 -0.6923
 1006MOL0     H35792   6.717   6.837   3.342 -0.6942 -0.4681 -2.4346
 1006MOL0     H35793   6.914   6.930   3.422 -2.1739 -1.6817  0.2831
 1006MOL0     H35794   7.059   7.319   3.723  0.8339 -1.5857  0.6539
 1006MOL0     H35795   7.263   7.409   3.830 -2.4330  1.7891  0.1071
 1006MOL0     H35796   9.105   6.851   4.344  0.2272 -0.4708 -0.9360
 1006MOL0     H35797   9.355   6.851   4.382 -1.3473 -0.0474  0.7897
 1006MOL0     H35798   9.729   7.051   4.303  0.3799 -1.9179  0.6017
 1006MOL0     H35799   9.967   7.089   4.342 -3.1267  0.9705  1.6329
 1006MOL0     H35800  10.212   7.160   4.292  0.0933  0.6884 -1.1439
 1006MOL0     H35801  10.231   7.012   4.375  0.5629  1.8465  1.2164
 1006MOL0     H35802  10.433   6.948   4.262  2.3228  1.3442 -0.2060
 1006MOL0     H35803  10.429   7.104   4.342  2.4738  0.9661 -1.2991
 1006MOL0     H35804  10.373   7.198   4.111 -0.0742  1.1261  0.9742
 1006MOL0     H35805  10.392   7.025   4.052  0.0286  0.5990  1.1017
 1006MOL0     H35806  10.590   7.155   3.995 -3.6990  0.1737 -0.2824
 1006MOL0     H35807  10.633   7.040   4.129 -0.5335  0.2350  0.7908
 1006MOL0     H35808  10.729   7.386   4.310 -0.1771 -0.3582 -0.3356
 1006MOL0     H35809  10.057   6.852   3.991 -2.3773 -0.6083 -1.7222
 1006MOL0     H35810   9.810   6.812   3.966 -1.1748  2.3403 -2.4147
 1007MOL0     O35811   8.258   2.863   4.783  0.8501 -0.2802  0.5006
 1007MOL0     C35812   8.322   2.881   4.886  0.4299 -0.3085  0.5254
 1007MOL0     O35813   8.274   2.867   5.007 -0.8344  0.5833  0.1173
 1007MOL0     C35814   8.142   2.824   5.014  0.7368  0.1048  0.4701
 1007MOL0     C35815   8.105   2.689   4.996 -0.2772  0.3112 -0.6245
 1007MOL0     C35816   7.981   2.641   5.014  0.2553 -0.4051  0.1527
 1007MOL0     C35817   7.878   2.732   5.035  0.0626 -0.8537 -0.4903
 1007MOL0     O35818   7.756   2.681   5.059  0.3248  0.4288 -0.8985
 1007MOL0     C35819   7.648   2.771   5.069 -0.1647 -0.5482  0.1429
 1007MOL0     C35820   7.521   2.689   5.075  0.0788  0.1924  0.3825
 1007MOL0     C35821   7.393   2.765   5.032 -0.5233  0.2268  0.1288
 1007MOL0     C35822   7.325   2.855   5.131  0.2099 -0.3818  0.2614
 1007MOL0     C35823   7.196   2.916   5.077 -0.2470  0.0698  0.2285
 1007MOL0     C35824   7.218   2.965   4.935 -0.5900 -0.0360  0.0172
 1007MOL0     C35825   7.339   3.071   4.904  1.5364  0.5784 -0.4282
 1007MOL0     C35826   7.343   3.185   5.012 -0.5031 -0.3750  1.0779
 1007MOL0     N35827   7.219   3.256   5.066 -0.0898 -0.5520 -0.0453
 1007MOL0     C35828   7.144   3.352   4.989 -0.1313  1.1678 -0.6226
 1007MOL0     C35829   7.065   3.406   5.087  0.4701 -0.2596 -0.2098
 1007MOL0     C35830   6.979   3.526   5.060 -0.5974  0.5848 -0.0989
 1007MOL0     C35831   6.894   3.506   4.932 -0.6403 -0.2965 -0.2359
 1007MOL0     C35832   6.783   3.404   4.950  0.3900  0.9980 -0.7296
 1007MOL0     C35833   6.680   3.408   4.842 -0.7702 -0.2940  0.2119
 1007MOL0     O35834   6.596   3.520   4.885  0.4869  0.5403  0.4173
 1007MOL0     C35835   6.478   3.536   4.810  0.2129 -0.3917 -0.1802
 1007MOL0     C35836   6.378   3.614   4.875  0.2698  0.5889  0.1879
 1007MOL0     C35837   6.244   3.615   4.833 -0.3182  0.0473  0.9451
 1007MOL0     C35838   6.133   3.681   4.912 -0.7858 -0.7918 -0.5077
 1007MOL0     C35839   6.207   3.537   4.715 -0.4666 -0.2334  0.2474
 1007MOL0     C35840   6.073   3.515   4.657  1.0525 -0.8915 -0.2176
 1007MOL0     O35841   6.066   3.523   4.515 -0.0115 -0.2518  0.2076
 1007MOL0     C35842   5.937   3.530   4.449 -0.7185  0.3681 -0.3841
 1007MOL0     C35843   5.926   3.475   4.319  0.4799 -0.2128  0.7765
 1007MOL0     C35844   5.811   3.498   4.252  0.6211  0.4148 -0.8862
 1007MOL0     C35845   5.703   3.565   4.317  0.6713 -0.3364  0.5434
 1007MOL0     O35846   5.588   3.568   4.239  0.9575  0.5231  0.0667
 1007MOL0     C35847   5.482   3.664   4.272  0.6881  0.8845  0.5813
 1007MOL0     C35848   5.389   3.663   4.145 -0.3374 -0.0818  0.7955
 1007MOL0     C35849   5.245   3.677   4.176 -0.1522 -0.3022  0.0284
 1007MOL0     C35850   5.154   3.645   4.064  0.2065 -0.5506 -0.5198
 1007MOL0     C35851   5.017   3.654   4.118 -0.5534 -0.4728 -0.5108
 1007MOL0     C35852   4.913   3.635   4.012  0.7125 -0.4268  0.3126
 1007MOL0     C35853   4.764   3.655   4.053  0.7099 -0.4491  0.2889
 1007MOL0     C35854   4.728   3.799   4.080  0.4463 -0.4603  0.0191
 1007MOL0    Cl35855   4.796   3.852   4.234 -0.2774 -0.4556  0.4260
 1007MOL0     C35856   5.723   3.623   4.440  0.2627 -0.9619  0.9218
 1007MOL0     C35857   5.840   3.602   4.504  0.0059 -0.3075  0.3801
 1007MOL0     O35858   5.983   3.468   4.728  0.6016 -0.3357  0.3030
 1007MOL0     C35859   6.308   3.452   4.661  0.9974  0.4712 -0.5624
 1007MOL0     C35860   6.442   3.456   4.702 -0.4388 -0.5279 -0.0960
 1007MOL0     N35861   7.080   3.341   5.206  0.4894  0.3618 -0.3068
 1007MOL0     N35862   7.169   3.252   5.193 -0.4545  1.3130 -0.5467
 1007MOL0     C35863   7.912   2.868   5.052 -0.5452 -0.2078  0.2337
 1007MOL0     C35864   8.040   2.909   5.049 -0.6679 -0.3220  0.7088
 1007MOL0     C35865   8.466   2.913   4.874 -1.2628  0.1572  0.3222
 1007MOL0     C35866   8.544   2.880   4.764  0.0737 -0.0791 -0.1349
 1007MOL0     C35867   8.679   2.910   4.758  0.8236 -0.6633  0.6428
 1007MOL0     C35868   8.745   2.975   4.867 -0.1526 -0.4340  0.8263
 1007MOL0     O35869   8.876   3.001   4.845  0.5781  0.5243  0.1518
 1007MOL0     C35870   8.949   3.068   4.955 -0.8262  0.6313 -0.9989
 1007MOL0     C35871   9.081   3.124   4.906  0.1862  0.0759  0.0425
 1007MOL0     C35872   9.156   3.034   4.821  0.3379 -0.3064 -0.3308
 1007MOL0     C35873   9.293   3.081   4.780 -0.2362 -0.0598  0.1136
 1007MOL0     C35874   9.346   2.987   4.681  0.8269  0.2294  0.3843
 1007MOL0     C35875   9.359   2.913   4.584  0.3322 -0.3118 -0.3761
 1007MOL0     C35876   8.673   3.001   4.988 -0.1888  0.0370  1.0595
 1007MOL0     C35877   8.536   2.966   4.988  0.0477 -0.1995  0.0376
 1007MOL0     H35878   8.169   2.603   4.980  0.8510  0.9426  0.3272
 1007MOL0     H35879   7.958   2.538   4.990 -2.2535  0.3428 -0.9297
 1007MOL0     H35880   7.654   2.834   5.158 -0.6318  0.7874 -0.7347
 1007MOL0     H35881   7.657   2.834   4.980  2.3603  1.1862  1.4857
 1007MOL0     H35882   7.511   2.621   4.990 -6.9719  0.6226  0.2551
 1007MOL0     H35883   7.508   2.646   5.175 -2.6523  0.5387  0.2355
 1007MOL0     H35884   7.428   2.817   4.942  0.0396 -1.3048 -0.5667
 1007MOL0     H35885   7.322   2.695   4.988 -3.1000  0.8858  2.9298
 1007MOL0     H35886   7.290   2.793   5.215  3.6915 -0.1411  2.0672
 1007MOL0     H35887   7.394   2.931   5.169 -0.7480  1.7661 -2.0317
 1007MOL0     H35888   7.124   2.834   5.070  0.4351 -0.8574  2.9718
 1007MOL0     H35889   7.166   2.997   5.144  3.1706  1.2534  0.5627
 1007MOL0     H35890   7.241   2.869   4.888  0.1034 -2.1087  4.1046
 1007MOL0     H35891   7.126   3.003   4.889  1.0584  0.4132 -3.1862
 1007MOL0     H35892   7.437   3.025   4.892  0.2230 -3.0925  1.4752
 1007MOL0     H35893   7.307   3.114   4.808 -1.6796  2.2407  1.2009
 1007MOL0     H35894   7.399   3.260   4.957 -0.1546  0.2622  2.2669
 1007MOL0     H35895   7.410   3.154   5.093  0.3623 -0.6212  0.2873
 1007MOL0     H35896   7.165   3.378   4.886 -0.8213 -0.2300 -1.1446
 1007MOL0     H35897   6.908   3.535   5.143 -1.5621  0.2922 -0.8820
 1007MOL0     H35898   7.045   3.613   5.051  1.8675 -0.9503  1.9020
 1007MOL0     H35899   6.958   3.474   4.849 -0.8786 -0.9389 -0.1740
 1007MOL0     H35900   6.855   3.607   4.916 -0.6272 -0.0022  1.4386
 1007MOL0     H35901   6.738   3.414   5.049 -2.9983  2.5126 -2.2498
 1007MOL0     H35902   6.835   3.307   4.949 -2.8631 -0.9062 -0.2566
 1007MOL0     H35903   6.614   3.320   4.836 -0.1422 -0.7577 -0.0112
 1007MOL0     H35904   6.722   3.432   4.744 -3.1477 -3.3716 -1.7549
 1007MOL0     H35905   6.409   3.673   4.961  2.2588  0.4316 -0.3800
 1007MOL0     H35906   6.085   3.601   4.969 -1.4610 -2.3797 -3.1484
 1007MOL0     H35907   6.177   3.757   4.977 -2.7811  0.8148 -0.9446
 1007MOL0     H35908   6.060   3.729   4.847  0.9794  0.2149 -1.8251
 1007MOL0     H35909   6.013   3.435   4.268 -0.0559 -0.4303  0.0179
 1007MOL0     H35910   5.812   3.472   4.146 -1.6661  2.2551 -1.4486
 1007MOL0     H35911   5.422   3.631   4.357  1.0554 -0.2683  0.4133
 1007MOL0     H35912   5.514   3.766   4.295 -0.8173  1.8088 -1.1494
 1007MOL0     H35913   5.435   3.736   4.078  2.0905 -0.9445  1.4292
 1007MOL0     H35914   5.403   3.570   4.089  2.2110 -0.4037  1.8204
 1007MOL0     H35915   5.238   3.779   4.213 -1.7938 -0.1477 -0.6174
 1007MOL0     H35916   5.216   3.618   4.264 -3.9919 -0.1014 -0.9275
 1007MOL0     H35917   5.167   3.712   3.978  1.9262  0.1337  0.2448
 1007MOL0     H35918   5.161   3.542   4.025 -3.1740 -0.8664 -0.6093
 1007MOL0     H35919   5.017   3.759   4.149  1.7979 -1.1013  2.0290
 1007MOL0     H35920   5.004   3.586   4.203  1.1791  0.9442  0.9753
 1007MOL0     H35921   4.938   3.707   3.933 -1.4273 -3.4941 -3.5394
 1007MOL0     H35922   4.929   3.534   3.973 -0.2365  0.8239 -3.8385
 1007MOL0     H35923   4.741   3.601   4.145 -1.6991  2.5474  1.6354
 1007MOL0     H35924   4.691   3.611   3.985  1.4019 -0.8987 -0.1672
 1007MOL0     H35925   4.620   3.804   4.092  0.4667 -2.8359  1.9685
 1007MOL0     H35926   4.755   3.865   3.997  2.5275 -2.2767 -0.8514
 1007MOL0     H35927   5.644   3.679   4.489  0.6240 -1.0787  1.6479
 1007MOL0     H35928   5.857   3.665   4.592 -2.1731  1.2928 -0.2470
 1007MOL0     H35929   6.288   3.373   4.590 -2.7793  0.1328  0.6786
 1007MOL0     H35930   6.520   3.398   4.654  3.0355  3.0645  0.6197
 1007MOL0     H35931   7.841   2.943   5.087 -0.0855  0.4522 -0.2241
 1007MOL0     H35932   8.070   3.012   5.064 -2.5859  0.4376 -0.3333
 1007MOL0     H35933   8.507   2.832   4.674  3.0344  1.1313 -2.1784
 1007MOL0     H35934   8.733   2.902   4.664  0.7806  3.7656  0.0471
 1007MOL0     H35935   8.896   3.154   4.999  0.5478  0.8717  0.2775
 1007MOL0     H35936   8.966   3.004   5.043 -4.2498 -0.6304 -1.1083
 1007MOL0     H35937   9.148   3.157   4.986  1.5801 -0.9293 -0.6637
 1007MOL0     H35938   9.054   3.203   4.837  0.9741 -0.5216 -0.9833
 1007MOL0     H35939   9.099   3.024   4.729  0.4459 -0.1086 -0.4192
 1007MOL0     H35940   9.162   2.932   4.861 -2.0624 -1.9099 -3.5884
 1007MOL0     H35941   9.354   3.087   4.870  0.9076  0.8896 -0.7015
 1007MOL0     H35942   9.288   3.181   4.735  1.9135 -1.1117 -2.7369
 1007MOL0     H35943   9.381   2.854   4.498 -1.1476  0.2604 -1.1882
 1007MOL0     H35944   8.712   3.058   5.071 -0.8185 -0.1516  1.4971
 1007MOL0     H35945   8.480   2.972   5.081 -0.8820 -2.0912 -0.3403
 1008MOL0     O35946   8.773   2.490   3.517  0.5592 -0.1754 -0.1641
 1008MOL0     C35947   8.736   2.601   3.484  1.0394  0.5502 -0.4942
 1008MOL0     O35948   8.615   2.650   3.519  0.2410  0.2956 -0.6765
 1008MOL0     C35949   8.543   2.591   3.615  1.1903  0.2438 -0.0951
 1008MOL0     C35950   8.439   2.508   3.573  0.1904  0.7143 -0.2382
 1008MOL0     C35951   8.347   2.451   3.662 -0.0954  0.5320 -1.2895
 1008MOL0     C35952   8.377   2.461   3.801  0.6187  0.0370 -0.1767
 1008MOL0     O35953   8.293   2.394   3.882  0.1355 -0.6309 -0.2483
 1008MOL0     C35954   8.311   2.413   4.023  1.2610  0.3294  0.1503
 1008MOL0     C35955   8.215   2.325   4.097  0.2279  0.2409 -0.4351
 1008MOL0     C35956   8.065   2.344   4.081  0.1332  0.3789 -0.7800
 1008MOL0     C35957   8.010   2.425   4.201  0.4093 -0.5314 -0.0889
 1008MOL0     C35958   7.861   2.472   4.172  0.1442  0.5887  0.0303
 1008MOL0     C35959   7.796   2.529   4.295 -0.0083  0.2709 -0.0331
 1008MOL0     C35960   7.644   2.543   4.286 -0.6581  0.2467 -0.1946
 1008MOL0     C35961   7.598   2.661   4.203 -1.2962  0.9826  0.0335
 1008MOL0     N35962   7.469   2.704   4.239  0.4724 -0.4710  0.2106
 1008MOL0     C35963   7.390   2.769   4.149 -0.7996  0.3892 -0.1184
 1008MOL0     C35964   7.284   2.817   4.219  1.2885  0.1556  0.1354
 1008MOL0     C35965   7.156   2.885   4.169  0.4509 -0.0639  0.1223
 1008MOL0     C35966   7.189   3.014   4.109  0.1445 -0.4027  0.1451
 1008MOL0     C35967   7.084   3.126   4.116  0.2399  0.4813 -0.1827
 1008MOL0     C35968   7.145   3.263   4.079  0.2361 -0.2426 -0.4857
 1008MOL0     O35969   7.056   3.375   4.104 -0.3430 -0.0019 -0.3122
 1008MOL0     C35970   6.934   3.370   4.032 -0.1771 -0.0604  0.3571
 1008MOL0     C35971   6.820   3.416   4.103 -0.3431 -0.5876 -0.3736
 1008MOL0     C35972   6.696   3.403   4.054 -0.1722  0.3041  0.1896
 1008MOL0     C35973   6.573   3.451   4.119 -0.5653 -0.6504 -0.4229
 1008MOL0     C35974   6.680   3.353   3.923 -0.4720 -0.1995  0.5423
 1008MOL0     C35975   6.543   3.356   3.850 -0.1497  0.4301  0.7420
 1008MOL0     O35976   6.440   3.273   3.904  0.2051  0.6832  0.0910
 1008MOL0     C35977   6.316   3.284   3.853  0.0981  0.2051  0.8071
 1008MOL0     C35978   6.257   3.411   3.829 -1.1390 -0.1850 -0.1466
 1008MOL0     C35979   6.117   3.409   3.796  0.1709  0.5876 -0.2575
 1008MOL0     C35980   6.033   3.298   3.806 -0.3786  0.0869  0.4133
 1008MOL0     O35981   5.900   3.313   3.785 -0.7218  0.1206 -0.4272
 1008MOL0     C35982   5.851   3.218   3.688 -0.2307 -0.7428  0.4612
 1008MOL0     C35983   5.729   3.281   3.626 -0.0287 -0.2345 -0.0393
 1008MOL0     C35984   5.662   3.190   3.517 -0.2011  0.7570  0.0824
 1008MOL0     C35985   5.571   3.292   3.440  0.1291  1.1347 -0.0238
 1008MOL0     C35986   5.445   3.335   3.518  0.3825 -0.8717 -0.2584
 1008MOL0     C35987   5.310   3.293   3.448  0.4344  0.4372  0.1511
 1008MOL0     C35988   5.290   3.144   3.434 -0.0469 -0.2762 -0.3172
 1008MOL0     C35989   5.168   3.109   3.349 -0.0713  0.5490 -0.3108
 1008MOL0    Cl35990   5.009   3.168   3.416  0.6176  0.2941  0.4182
 1008MOL0     C35991   6.092   3.177   3.836  0.2429 -0.2708 -0.0014
 1008MOL0     C35992   6.225   3.171   3.861 -0.9389  0.7129 -0.9425
 1008MOL0     O35993   6.539   3.436   3.757 -0.7650  0.2020  0.4016
 1008MOL0     C35994   6.787   3.317   3.846  0.2401 -0.1600  0.8900
 1008MOL0     C35995   6.920   3.337   3.896 -0.3395  1.0774 -0.2871
 1008MOL0     N35996   7.306   2.787   4.358 -0.4127 -0.1862 -0.3520
 1008MOL0     N35997   7.422   2.728   4.366  0.1975  0.4357  0.2982
 1008MOL0     C35998   8.487   2.535   3.847  0.2803  0.3095  1.1933
 1008MOL0     C35999   8.565   2.592   3.751 -0.0840  0.0068 -0.2796
 1008MOL0     C36000   8.835   2.686   3.413 -0.1002  0.1254 -0.4342
 1008MOL0     C36001   8.845   2.819   3.448  0.9307  0.0147  0.2511
 1008MOL0     C36002   8.932   2.908   3.391  0.2159 -1.2918  0.4809
 1008MOL0     C36003   9.014   2.863   3.289 -0.0796 -0.1018 -0.3001
 1008MOL0     O36004   9.105   2.951   3.246 -0.1362  0.3759 -0.1378
 1008MOL0     C36005   9.156   2.948   3.115  0.3560  0.0466  0.9069
 1008MOL0     C36006   9.231   3.075   3.076 -0.0287 -0.1473  0.1362
 1008MOL0     C36007   9.141   3.195   3.063  0.0021 -0.2049  0.4558
 1008MOL0     C36008   9.091   3.210   2.915  0.1022  0.5953  0.0915
 1008MOL0     C36009   8.982   3.312   2.904  0.4155  0.0233  0.5270
 1008MOL0     C36010   8.893   3.389   2.919  1.2830 -0.1354  0.0559
 1008MOL0     C36011   9.011   2.719   3.253  0.1161  0.2390 -0.6969
 1008MOL0     C36012   8.922   2.632   3.314  0.0258 -0.1061  1.0212
 1008MOL0     H36013   8.431   2.492   3.466 -3.0227 -0.9015  0.1333
 1008MOL0     H36014   8.274   2.374   3.638 -1.1727  0.3409  2.1315
 1008MOL0     H36015   8.412   2.396   4.060  0.3118 -3.0124  1.6040
 1008MOL0     H36016   8.287   2.517   4.046 -1.7301 -0.2793  0.1675
 1008MOL0     H36017   8.243   2.226   4.060  3.4176  0.5096  0.9418
 1008MOL0     H36018   8.247   2.324   4.201  0.7354  2.2054 -0.5175
 1008MOL0     H36019   8.035   2.401   3.992  2.0876  1.3555 -0.8617
 1008MOL0     H36020   8.020   2.245   4.078  0.6162  0.1714 -1.9404
 1008MOL0     H36021   8.016   2.366   4.293  0.3559 -3.4562 -1.8025
 1008MOL0     H36022   8.084   2.505   4.207  0.6068 -0.5744 -1.5351
 1008MOL0     H36023   7.852   2.542   4.088 -1.7073 -0.6176 -0.8432
 1008MOL0     H36024   7.804   2.387   4.133 -0.0446  0.3596  0.7897
 1008MOL0     H36025   7.813   2.452   4.372 -0.5345 -0.0090 -0.1883
 1008MOL0     H36026   7.845   2.623   4.319  1.2756 -0.7343  1.5059
 1008MOL0     H36027   7.612   2.446   4.249  0.6822 -0.1123 -0.4797
 1008MOL0     H36028   7.608   2.556   4.389 -1.1484  0.7184 -0.4200
 1008MOL0     H36029   7.591   2.637   4.097 -0.0002 -0.6117  0.2638
 1008MOL0     H36030   7.670   2.741   4.224 -1.2907  0.9153  0.2758
 1008MOL0     H36031   7.402   2.781   4.042 -1.1375  1.7664 -0.0192
 1008MOL0     H36032   7.099   2.828   4.096 -0.8872  0.4921  0.7035
 1008MOL0     H36033   7.094   2.900   4.258 -1.7984  0.9429 -1.5330
 1008MOL0     H36034   7.211   3.007   4.002 -0.8852  2.3756 -0.3198
 1008MOL0     H36035   7.275   3.055   4.164 -0.4925  0.6830  0.3635
 1008MOL0     H36036   7.047   3.125   4.219  0.4890 -0.0811 -0.0967
 1008MOL0     H36037   6.997   3.094   4.058 -1.6181 -0.2310  2.7848
 1008MOL0     H36038   7.176   3.264   3.975 -1.9428 -1.8823 -1.2322
 1008MOL0     H36039   7.230   3.276   4.147  0.3761 -0.9332 -0.5268
 1008MOL0     H36040   6.834   3.456   4.203  0.2609 -2.6000  0.4070
 1008MOL0     H36041   6.523   3.373   4.177 -0.5122  1.7245  3.1385
 1008MOL0     H36042   6.599   3.527   4.192  1.0681 -0.0160 -1.6085
 1008MOL0     H36043   6.506   3.501   4.048 -0.8552 -1.3533 -0.6587
 1008MOL0     H36044   6.305   3.506   3.851  2.0876 -1.5221 -0.7744
 1008MOL0     H36045   6.072   3.507   3.780  2.7876  2.0842  0.9458
 1008MOL0     H36046   5.927   3.204   3.610 -0.1734 -1.4473  0.6386
 1008MOL0     H36047   5.831   3.129   3.748 -2.5321 -0.5341  0.0877
 1008MOL0     H36048   5.654   3.309   3.700 -1.4220  0.0787 -1.4947
 1008MOL0     H36049   5.764   3.376   3.583 -1.1354 -0.4219 -1.4450
 1008MOL0     H36050   5.605   3.107   3.559  1.4692 -0.7287 -0.4694
 1008MOL0     H36051   5.738   3.162   3.443  0.3068 -1.2480  1.3029
 1008MOL0     H36052   5.646   3.370   3.426  3.7319 -1.9537  0.3921
 1008MOL0     H36053   5.541   3.263   3.339 -2.2507  0.3024  0.8528
 1008MOL0     H36054   5.444   3.445   3.524 -2.0322 -0.8021 -0.8743
 1008MOL0     H36055   5.430   3.278   3.610 -1.3853  0.0771  0.0895
 1008MOL0     H36056   5.220   3.329   3.499 -1.5455 -1.0138 -2.1037
 1008MOL0     H36057   5.309   3.345   3.352 -0.8325 -0.5280 -0.3874
 1008MOL0     H36058   5.286   3.094   3.531  2.6070 -2.3488 -1.1385
 1008MOL0     H36059   5.379   3.101   3.386 -0.0034 -1.2489  0.5944
 1008MOL0     H36060   5.158   3.000   3.348 -0.1215  0.5559 -0.4926
 1008MOL0     H36061   5.189   3.145   3.248  0.5657  2.5556  0.4934
 1008MOL0     H36062   6.039   3.082   3.837  1.8777 -1.2029  1.5394
 1008MOL0     H36063   6.261   3.075   3.896 -0.0544  0.1395 -3.2100
 1008MOL0     H36064   6.764   3.298   3.741  0.0226  2.8317  0.3233
 1008MOL0     H36065   7.006   3.304   3.840 -0.4580  1.9400 -1.0162
 1008MOL0     H36066   8.516   2.554   3.950  1.5819  2.8863  0.4512
 1008MOL0     H36067   8.656   2.645   3.775  0.7676 -0.3022 -2.6219
 1008MOL0     H36068   8.772   2.847   3.523 -0.8045  0.1186 -1.4060
 1008MOL0     H36069   8.947   3.006   3.436  1.9444 -0.0730 -2.4337
 1008MOL0     H36070   9.221   2.861   3.100 -0.6580 -0.7968  1.2669
 1008MOL0     H36071   9.076   2.939   3.041  1.5627 -2.5780 -0.1848
 1008MOL0     H36072   9.274   3.060   2.977 -1.8653  1.7359 -1.0108
 1008MOL0     H36073   9.306   3.104   3.151 -0.5692  3.0161 -0.4264
 1008MOL0     H36074   9.204   3.280   3.093 -0.8979 -0.6155  4.0338
 1008MOL0     H36075   9.053   3.189   3.128 -0.8756  1.4643 -0.5036
 1008MOL0     H36076   9.046   3.116   2.882 -0.3539 -0.0002  2.2542
 1008MOL0     H36077   9.171   3.244   2.848  0.6714 -1.3883 -0.3087
 1008MOL0     H36078   8.813   3.459   2.936  1.7943  1.3879 -3.1158
 1008MOL0     H36079   9.089   2.683   3.187  2.5460  1.9138  1.0927
 1008MOL0     H36080   8.913   2.525   3.295  0.4348 -0.1747  1.2057
 1009MOL0     O36081  11.214  11.011  11.125  0.0585 -0.2109  0.1728
 1009MOL0     C36082  11.262  10.897  11.097 -1.2139  0.0411  0.2458
 1009MOL0     O36083  11.195  10.788  11.054 -0.1934  0.3726  0.3349
 1009MOL0     C36084  11.057  10.782  11.054  0.0027  0.6118  0.1369
 1009MOL0     C36085  10.983  10.852  10.959  0.6002  0.0412  0.5271
 1009MOL0     C36086  10.843  10.852  10.951 -0.7534 -0.7627 -0.3132
 1009MOL0     C36087  10.770  10.775  11.046 -0.0614  0.7818 -0.7656
 1009MOL0     O36088  10.635  10.764  11.044 -0.0889 -0.7980  0.2093
 1009MOL0     C36089  10.555  10.860  10.970 -0.7336 -0.7366 -0.0574
 1009MOL0     C36090  10.414  10.866  11.005 -0.5365  0.8773  0.2827
 1009MOL0     C36091  10.331  10.738  10.968 -0.4172  0.5992 -0.6329
 1009MOL0     C36092  10.315  10.733  10.812  0.4142 -0.2131 -0.9284
 1009MOL0     C36093  10.242  10.612  10.768  0.1348 -0.5204 -0.5617
 1009MOL0     C36094  10.193  10.606  10.619  1.0062 -0.2752  0.6915
 1009MOL0     C36095  10.062  10.691  10.602 -0.0822 -0.5817 -0.4712
 1009MOL0     C36096  10.013  10.686  10.458  0.3620 -0.5551 -0.2039
 1009MOL0     N36097   9.884  10.613  10.457 -0.2241 -0.8869 -0.3141
 1009MOL0     C36098   9.860  10.480  10.490 -1.0777  0.3436  1.3456
 1009MOL0     C36099   9.728  10.470  10.504  0.6125  1.0949  0.6152
 1009MOL0     C36100   9.644  10.349  10.535  0.1043 -0.0057 -0.3993
 1009MOL0     C36101   9.502  10.340  10.478 -0.1359 -0.6095  0.2797
 1009MOL0     C36102   9.429  10.234  10.551  0.0307  0.3600  0.8433
 1009MOL0     C36103   9.287  10.259  10.549 -0.3587 -0.2684  0.0388
 1009MOL0     O36104   9.237  10.145  10.620 -0.1071  0.3912  0.1610
 1009MOL0     C36105   9.124  10.081  10.587  0.1500  0.0823  0.4084
 1009MOL0     C36106   9.111   9.944  10.619  0.3298 -0.0087 -0.1793
 1009MOL0     C36107   8.992   9.868  10.603  0.1029  0.2071 -0.2385
 1009MOL0     C36108   8.989   9.725  10.651  0.0422 -0.5541  0.2790
 1009MOL0     C36109   8.877   9.939  10.548  0.0802  0.1579 -0.2579
 1009MOL0     C36110   8.745   9.875  10.528 -0.0247 -0.4668  0.0025
 1009MOL0     O36111   8.717   9.769  10.611  0.1167 -0.3936 -0.4339
 1009MOL0     C36112   8.615   9.680  10.590  0.2247  0.0891  0.3685
 1009MOL0     C36113   8.642   9.557  10.524 -0.1663  0.5787 -0.8482
 1009MOL0     C36114   8.544   9.462  10.502 -0.3808  0.4879 -0.4651
 1009MOL0     C36115   8.417   9.487  10.560  0.3950  0.5302 -0.4475
 1009MOL0     O36116   8.307   9.399  10.574  0.2083 -0.2565 -0.4659
 1009MOL0     C36117   8.332   9.262  10.549 -0.4078 -0.1072 -0.6513
 1009MOL0     C36118   8.210   9.183  10.539 -0.4825  0.1015 -0.7531
 1009MOL0     C36119   8.144   9.159  10.400 -0.2887  0.7062  0.3022
 1009MOL0     C36120   8.080   9.282  10.328  0.2492  0.0624  0.0044
 1009MOL0     C36121   7.957   9.341  10.400 -0.4889  0.7372 -0.5681
 1009MOL0     C36122   7.878   9.457  10.334 -1.2142  0.1010 -0.0873
 1009MOL0     C36123   7.887   9.449  10.185 -0.3798 -0.4320 -0.0173
 1009MOL0     C36124   7.792   9.536  10.106 -0.2111  0.1761 -0.0897
 1009MOL0    Cl36125   7.632   9.479  10.143 -0.2534  0.1039  0.0865
 1009MOL0     C36126   8.393   9.614  10.618  0.3208  0.9732 -0.0938
 1009MOL0     C36127   8.490   9.708  10.623  0.1524 -0.3266 -0.2272
 1009MOL0     O36128   8.668   9.921  10.439 -0.0079 -0.2343 -0.9455
 1009MOL0     C36129   8.896  10.078  10.512  1.0221  0.1082  0.1979
 1009MOL0     C36130   9.013  10.143  10.527  0.1357  0.7277  0.6029
 1009MOL0     N36131   9.666  10.591  10.482  0.5834 -0.6341  0.0497
 1009MOL0     N36132   9.768  10.675  10.465  0.3408 -0.0928 -0.7527
 1009MOL0     C36133  10.841  10.713  11.150  0.4522 -0.7598  0.4728
 1009MOL0     C36134  10.980  10.711  11.150 -1.1095  0.1028 -0.2103
 1009MOL0     C36135  11.405  10.872  11.129 -2.1374 -0.2788 -0.4685
 1009MOL0     C36136  11.471  10.745  11.121  0.8012 -0.7550 -0.1201
 1009MOL0     C36137  11.599  10.723  11.160  0.0089 -0.2436  0.6044
 1009MOL0     C36138  11.672  10.830  11.198  0.7585  0.3203  0.2580
 1009MOL0     O36139  11.795  10.819  11.257  0.0236 -0.1107  0.4200
 1009MOL0     C36140  11.822  10.861  11.397 -0.1927  0.5037  0.5792
 1009MOL0     C36141  11.809  10.728  11.478  0.7399 -0.4464  1.0824
 1009MOL0     C36142  11.857  10.743  11.619 -0.3331  0.0275  0.1406
 1009MOL0     C36143  11.838  10.610  11.698  0.0898  0.8244  0.3318
 1009MOL0     C36144  11.894  10.619  11.837  0.7521 -0.4116  0.3327
 1009MOL0     C36145  11.942  10.640  11.946 -0.0579 -0.8245 -0.2654
 1009MOL0     C36146  11.619  10.961  11.196  0.2004  0.3234 -0.1315
 1009MOL0     C36147  11.484  10.991  11.161 -0.8836  0.4885  0.2081
 1009MOL0     H36148  11.037  10.913  10.887  0.6971 -2.8724 -2.1013
 1009MOL0     H36149  10.790  10.911  10.878  0.9170  0.4949 -0.5670
 1009MOL0     H36150  10.607  10.956  10.981 -2.1146  0.0849 -0.5406
 1009MOL0     H36151  10.565  10.838  10.863  3.2729 -2.3989  0.4508
 1009MOL0     H36152  10.409  10.879  11.113  0.1914  0.3328  0.3809
 1009MOL0     H36153  10.364  10.952  10.959 -3.2118 -0.8272 -0.2386
 1009MOL0     H36154  10.388  10.650  11.000 -0.4640  1.3428  1.6768
 1009MOL0     H36155  10.236  10.735  11.022  0.8800 -4.1940  2.0223
 1009MOL0     H36156  10.263  10.822  10.774  2.6039  0.7347 -1.8522
 1009MOL0     H36157  10.406  10.738  10.752 -1.4008 -0.1019 -3.8727
 1009MOL0     H36158  10.304  10.522  10.781  1.2608 -0.0633 -2.3641
 1009MOL0     H36159  10.154  10.599  10.831 -1.3394  2.5461 -1.7896
 1009MOL0     H36160  10.275  10.633  10.554  0.0254 -0.6437 -0.7506
 1009MOL0     H36161  10.185  10.498  10.599  1.1854  0.0384 -1.2457
 1009MOL0     H36162   9.991  10.659  10.680  1.6860  0.5103  1.6904
 1009MOL0     H36163  10.103  10.788  10.632  0.9661 -0.2819 -2.6776
 1009MOL0     H36164  10.081  10.630  10.393  1.3112 -3.2968  2.8580
 1009MOL0     H36165   9.996  10.786  10.419  2.3672 -0.5002 -1.0527
 1009MOL0     H36166   9.930  10.400  10.508  0.0696  1.2349  1.0008
 1009MOL0     H36167   9.703  10.257  10.530  0.7831  0.3523  0.6304
 1009MOL0     H36168   9.622  10.366  10.641  2.3775  0.8048  0.0022
 1009MOL0     H36169   9.505  10.333  10.369  1.4218  1.0636  0.1745
 1009MOL0     H36170   9.454  10.432  10.511 -2.6129 -1.6857 -0.0555
 1009MOL0     H36171   9.441  10.228  10.660  0.1660  0.1749  0.8185
 1009MOL0     H36172   9.452  10.139  10.501  0.3343 -0.5496  2.6289
 1009MOL0     H36173   9.256  10.260  10.444 -1.0022 -0.8485  0.2145
 1009MOL0     H36174   9.254  10.351  10.598 -1.6954 -1.2306  1.0144
 1009MOL0     H36175   9.201   9.894  10.652  0.8025  0.1202 -1.2459
 1009MOL0     H36176   8.969   9.655  10.569 -0.5659  0.1191 -0.1539
 1009MOL0     H36177   9.091   9.695  10.677  1.7034  0.9377 -3.7062
 1009MOL0     H36178   8.915   9.715  10.731  0.2544  1.0982  0.7203
 1009MOL0     H36179   8.741   9.542  10.483 -0.0460  1.2262 -0.8082
 1009MOL0     H36180   8.565   9.362  10.464  5.3949 -0.7987  4.4994
 1009MOL0     H36181   8.387   9.254  10.455  0.7333 -0.3023  0.0081
 1009MOL0     H36182   8.397   9.223  10.628 -1.3271 -0.0576  0.1474
 1009MOL0     H36183   8.235   9.081  10.569 -1.9383 -0.0734 -0.0510
 1009MOL0     H36184   8.134   9.213  10.611  0.6947  0.7481  0.2607
 1009MOL0     H36185   8.072   9.079  10.418  1.6122 -1.3417 -0.6182
 1009MOL0     H36186   8.213   9.130  10.319 -1.9912  3.0510 -2.1530
 1009MOL0     H36187   8.162   9.353  10.317  0.0507  0.0999 -1.3880
 1009MOL0     H36188   8.046   9.242  10.232  0.9429 -1.5553  0.3905
 1009MOL0     H36189   7.980   9.374  10.501 -0.9515 -1.1449  0.1759
 1009MOL0     H36190   7.883   9.262  10.409  2.1640 -1.8156  0.2078
 1009MOL0     H36191   7.772   9.455  10.357 -0.7118 -1.2250  2.5027
 1009MOL0     H36192   7.919   9.555  10.363 -4.6587  1.4714  0.6329
 1009MOL0     H36193   7.859   9.354  10.138  2.9850 -1.3487 -0.4279
 1009MOL0     H36194   7.987   9.484  10.159 -1.0984  0.4389 -1.8156
 1009MOL0     H36195   7.812   9.532   9.998 -4.5698 -0.6982 -1.0656
 1009MOL0     H36196   7.802   9.640  10.137  1.2318  0.2777 -0.7946
 1009MOL0     H36197   8.295   9.636  10.659  0.3512 -2.6267  2.3791
 1009MOL0     H36198   8.463   9.806  10.661 -1.0697 -0.6235 -0.3040
 1009MOL0     H36199   8.806  10.128  10.479  2.1662  1.6760 -0.6823
 1009MOL0     H36200   9.021  10.248  10.501  0.5588  0.6102  0.2482
 1009MOL0     H36201  10.777  10.665  11.223 -1.1731  0.0357 -0.3850
 1009MOL0     H36202  11.035  10.651  11.222 -0.8997  0.8596  0.2743
 1009MOL0     H36203  11.424  10.656  11.080  1.3657 -1.3936  0.5774
 1009MOL0     H36204  11.635  10.621  11.163 -0.9594 -1.1689 -5.8516
 1009MOL0     H36205  11.923  10.904  11.401 -0.2297  0.5850  0.6414
 1009MOL0     H36206  11.754  10.938  11.434 -2.9839 -0.9728 -1.1835
 1009MOL0     H36207  11.853  10.638  11.434 -0.6841 -1.4207  1.5397
 1009MOL0     H36208  11.702  10.703  11.484  0.4617 -0.3491 -2.0197
 1009MOL0     H36209  11.804  10.822  11.673  1.6799  2.8077 -1.6515
 1009MOL0     H36210  11.963  10.766  11.610 -0.1572 -1.3345 -2.4910
 1009MOL0     H36211  11.889  10.532  11.641 -1.9091 -1.2158  1.1832
 1009MOL0     H36212  11.733  10.583  11.716  0.3354  0.4078  1.1881
 1009MOL0     H36213  11.988  10.659  12.041 -0.1488 -0.1161 -0.3558
 1009MOL0     H36214  11.682  11.047  11.220  1.0767  0.0694 -1.4287
 1009MOL0     H36215  11.445  11.092  11.156 -1.2610  0.2762 -2.6850
 1010MOL0     O36216   6.129   0.881  10.954 -0.4926  1.1479 -0.6367
 1010MOL0     C36217   6.232   0.950  10.943  0.5630  1.0408 -1.2681
 1010MOL0     O36218   6.237   1.082  10.908 -0.1864  0.1378 -0.3520
 1010MOL0     C36219   6.123   1.140  10.858  0.2218  0.4593  0.4330
 1010MOL0     C36220   5.992   1.137  10.907 -0.4154 -0.4184  0.0024
 1010MOL0     C36221   5.885   1.205  10.843 -0.0198 -0.6230  0.5184
 1010MOL0     C36222   5.910   1.300  10.740 -0.0038  0.1738 -0.8653
 1010MOL0     O36223   5.800   1.366  10.692 -1.1876  0.4056 -0.0030
 1010MOL0     C36224   5.813   1.502  10.675  0.2843 -0.4441  0.4857
 1010MOL0     C36225   5.674   1.563  10.684  0.0931  0.2336  1.1297
 1010MOL0     C36226   5.677   1.714  10.631  0.7231 -0.4679  1.1502
 1010MOL0     C36227   5.537   1.772  10.655 -0.7432  0.6313 -0.1726
 1010MOL0     C36228   5.541   1.925  10.637 -0.4312  0.8413  0.1620
 1010MOL0     C36229   5.410   1.977  10.675  0.4661  0.0141 -0.8821
 1010MOL0     C36230   5.311   1.980  10.560 -0.0456 -0.0895  0.0545
 1010MOL0     C36231   5.170   2.049  10.588  0.4766  0.3504 -0.0986
 1010MOL0     N36232   5.105   1.981  10.702 -0.3492  0.4451  0.2742
 1010MOL0     C36233   5.071   2.035  10.820 -0.5574 -0.4883 -0.1740
 1010MOL0     C36234   5.009   1.934  10.884 -0.2686  0.4397  0.4509
 1010MOL0     C36235   4.936   1.950  11.019 -0.5965  0.4715 -0.2075
 1010MOL0     C36236   4.786   1.951  11.014  0.0472 -0.2402 -0.0999
 1010MOL0     C36237   4.752   2.100  10.996  0.4371  0.4236 -0.0761
 1010MOL0     C36238   4.603   2.120  11.010 -0.7794  0.4526  0.0011
 1010MOL0     O36239   4.545   2.082  10.884  0.5659  0.0433 -0.2175
 1010MOL0     C36240   4.410   2.080  10.866  0.0534  0.8588  0.1631
 1010MOL0     C36241   4.316   2.071  10.966 -0.0265  0.8498  0.8942
 1010MOL0     C36242   4.174   2.061  10.949  0.2633 -0.5902 -0.8237
 1010MOL0     C36243   4.085   2.051  11.072 -0.4326  0.2143  0.6584
 1010MOL0     C36244   4.130   2.035  10.816  0.4489  0.4477 -0.6648
 1010MOL0     C36245   3.985   2.012  10.793 -1.0099 -0.1436 -0.9711
 1010MOL0     O36246   3.921   1.925  10.871 -0.5358 -0.4093  0.3717
 1010MOL0     C36247   3.784   1.915  10.872  0.1308  0.2357 -0.6733
 1010MOL0     C36248   3.706   1.926  10.748 -0.1533  0.2379  0.6178
 1010MOL0     C36249   3.571   1.899  10.734  0.0289  0.1567 -0.4314
 1010MOL0     C36250   3.500   1.861  10.853 -0.6757  0.2656  0.2950
 1010MOL0     O36251   3.367   1.817  10.842 -0.1736 -0.0081 -0.7467
 1010MOL0     C36252   3.276   1.899  10.769 -0.7302  0.1049 -0.4529
 1010MOL0     C36253   3.141   1.826  10.782 -0.4504 -0.2680 -0.1087
 1010MOL0     C36254   3.145   1.690  10.710 -0.0174 -0.0064  0.4239
 1010MOL0     C36255   3.105   1.723  10.568  0.4736  0.5426  0.7162
 1010MOL0     C36256   3.065   1.605  10.494 -0.6653  0.3455 -0.7492
 1010MOL0     C36257   3.027   1.626  10.349  0.5062  0.0359  0.0261
 1010MOL0     C36258   2.994   1.487  10.271 -0.3079 -0.7332  0.4175
 1010MOL0     C36259   2.860   1.445  10.318  0.3475 -0.4501 -0.7988
 1010MOL0    Cl36260   2.733   1.560  10.265  0.2405 -0.0714  0.1114
 1010MOL0     C36261   3.572   1.829  10.966 -0.6385 -0.1885  0.3054
 1010MOL0     C36262   3.713   1.857  10.977 -0.1863  0.4866 -0.3293
 1010MOL0     O36263   3.946   2.073  10.693  0.4271 -0.3784 -0.2731
 1010MOL0     C36264   4.219   2.038  10.708  0.3562 -0.5060  0.0198
 1010MOL0     C36265   4.356   2.060  10.736  0.4419  0.6869  0.2824
 1010MOL0     N36266   5.014   1.814  10.816  1.1348 -0.3253  0.1679
 1010MOL0     N36267   5.059   1.848  10.700 -0.4195  0.1038  0.3399
 1010MOL0     C36268   6.044   1.312  10.690  0.2560 -0.3513 -0.0153
 1010MOL0     C36269   6.143   1.231  10.751  0.2890  0.3686 -0.4225
 1010MOL0     C36270   6.364   0.886  10.967 -0.5835 -0.3285  0.3688
 1010MOL0     C36271   6.486   0.958  10.969  0.6460 -0.3591 -0.0580
 1010MOL0     C36272   6.605   0.882  10.980  0.7304 -0.2227 -0.8262
 1010MOL0     C36273   6.613   0.746  10.966 -0.3529  0.4759  0.4794
 1010MOL0     O36274   6.724   0.675  10.967 -0.2549 -0.2618 -0.3900
 1010MOL0     C36275   6.855   0.743  10.981 -0.2169 -0.4203 -0.1612
 1010MOL0     C36276   6.975   0.643  10.977 -0.2561 -0.0092 -0.8358
 1010MOL0     C36277   7.025   0.637  10.826 -0.1296  0.4150 -1.2605
 1010MOL0     C36278   7.113   0.513  10.816 -0.0600  0.2355  1.5480
 1010MOL0     C36279   7.153   0.483  10.674  0.6323 -0.0026 -0.1726
 1010MOL0     C36280   7.194   0.439  10.573  0.0025 -0.8852 -0.3081
 1010MOL0     C36281   6.494   0.675  10.965 -0.1604  0.3076 -0.2780
 1010MOL0     C36282   6.372   0.745  10.971 -0.2098 -0.6808  0.6005
 1010MOL0     H36283   5.977   1.081  10.999  0.3689  2.9705  2.3675
 1010MOL0     H36284   5.783   1.204  10.880 -1.4923  0.9906 -3.0774
 1010MOL0     H36285   5.898   1.539  10.734  0.9222 -2.0752  0.6353
 1010MOL0     H36286   5.846   1.504  10.570 -1.1650 -3.6243 -0.1522
 1010MOL0     H36287   5.599   1.513  10.622  2.2745 -2.4186  0.4259
 1010MOL0     H36288   5.640   1.557  10.788  1.1880 -2.6197  1.4148
 1010MOL0     H36289   5.753   1.765  10.690  2.5886  1.0432 -2.2762
 1010MOL0     H36290   5.692   1.718  10.523 -1.5073 -2.0706  0.6955
 1010MOL0     H36291   5.462   1.727  10.589  1.0733 -1.8398 -0.7421
 1010MOL0     H36292   5.506   1.750  10.757  0.4718  0.1281  0.1163
 1010MOL0     H36293   5.610   1.966  10.712 -0.5321 -0.6966  1.1478
 1010MOL0     H36294   5.558   1.958  10.535  1.0971  2.8490  0.9963
 1010MOL0     H36295   5.374   1.918  10.759  1.3895 -2.7577 -2.2884
 1010MOL0     H36296   5.421   2.081  10.706 -2.4160  0.6190 -1.5910
 1010MOL0     H36297   5.357   2.030  10.474 -2.5993  1.9917 -0.2313
 1010MOL0     H36298   5.293   1.874  10.538  2.1477 -0.7683  1.2792
 1010MOL0     H36299   5.093   2.035  10.512 -0.5673  0.6211  0.8910
 1010MOL0     H36300   5.191   2.156  10.598  0.8572  0.2561  0.1490
 1010MOL0     H36301   5.086   2.140  10.845 -2.8710  0.1929 -1.3477
 1010MOL0     H36302   4.967   1.868  11.084  3.2150  0.9080 -1.2563
 1010MOL0     H36303   4.987   2.036  11.063  2.2179 -1.8433  1.4416
 1010MOL0     H36304   4.741   1.923  11.110 -1.7568  0.2123 -0.7836
 1010MOL0     H36305   4.745   1.882  10.940  0.7566 -0.4491 -0.3093
 1010MOL0     H36306   4.774   2.149  10.900  0.5809  0.9681  0.2287
 1010MOL0     H36307   4.809   2.158  11.070  1.2171  2.1730 -1.9329
 1010MOL0     H36308   4.577   2.222  11.041 -1.0917  0.2767  0.3312
 1010MOL0     H36309   4.566   2.058  11.092 -0.9466 -1.4004 -1.3952
 1010MOL0     H36310   4.353   2.058  11.067  1.3858 -1.7790  0.1349
 1010MOL0     H36311   3.982   2.081  11.052 -1.0934 -2.2239  0.0800
 1010MOL0     H36312   4.078   1.948  11.110  0.8763 -0.2765 -0.3182
 1010MOL0     H36313   4.134   2.102  11.156  3.1264 -0.8579 -0.5721
 1010MOL0     H36314   3.752   1.950  10.653 -0.6179  5.9134  1.4791
 1010MOL0     H36315   3.528   1.895  10.635  3.1851 -3.3303 -1.9025
 1010MOL0     H36316   3.279   2.002  10.807  0.4391 -0.7304  1.9224
 1010MOL0     H36317   3.303   1.905  10.663  0.1630  0.3197 -0.2198
 1010MOL0     H36318   3.131   1.801  10.888 -0.4269 -0.4506 -0.1495
 1010MOL0     H36319   3.060   1.898  10.768  1.6686  2.4058  0.5278
 1010MOL0     H36320   3.057   1.637  10.749 -0.4010  1.8301  2.2698
 1010MOL0     H36321   3.237   1.631  10.711  0.7091  1.0118 -1.4793
 1010MOL0     H36322   3.022   1.795  10.562 -2.7192 -2.9585 -0.7091
 1010MOL0     H36323   3.196   1.764  10.524  0.9961 -0.5901  0.7294
 1010MOL0     H36324   2.990   1.549  10.550  1.1381 -2.0828 -0.6093
 1010MOL0     H36325   3.148   1.534  10.492  0.2887  1.4351 -2.0952
 1010MOL0     H36326   2.956   1.709  10.342  0.2690 -0.1106  0.5667
 1010MOL0     H36327   3.113   1.668  10.297  1.9377  3.1277  4.2923
 1010MOL0     H36328   3.075   1.418  10.297  0.1348 -0.1990  0.4807
 1010MOL0     H36329   3.007   1.504  10.164 -2.0233 -0.8674  0.1560
 1010MOL0     H36330   2.854   1.434  10.426  0.8675  1.3557 -0.5448
 1010MOL0     H36331   2.838   1.345  10.280 -0.4239 -2.0925  3.4749
 1010MOL0     H36332   3.518   1.778  11.044 -0.7690  1.0376  1.0391
 1010MOL0     H36333   3.776   1.833  11.062 -1.4863 -1.5982  0.1037
 1010MOL0     H36334   4.187   2.018  10.606  0.8118 -1.4189  0.0370
 1010MOL0     H36335   4.426   2.057  10.654  0.5349 -0.8295  0.3992
 1010MOL0     H36336   6.066   1.372  10.603 -1.6343 -2.8049 -2.3734
 1010MOL0     H36337   6.245   1.239  10.717 -0.4830 -0.9819 -3.3025
 1010MOL0     H36338   6.484   1.062  10.999 -3.0028 -0.6980  1.3329
 1010MOL0     H36339   6.694   0.943  10.996  0.5607 -0.4382  1.0898
 1010MOL0     H36340   6.867   0.818  10.902  2.8181 -1.2297 -0.5985
 1010MOL0     H36341   6.856   0.799  11.075  4.4955  1.8726 -1.2980
 1010MOL0     H36342   6.937   0.548  11.017  0.2550 -0.1352 -0.6417
 1010MOL0     H36343   7.054   0.676  11.045  1.7939 -1.2253 -2.5097
 1010MOL0     H36344   7.080   0.724  10.789  0.7924  2.1166  3.3517
 1010MOL0     H36345   6.940   0.610  10.764  0.0861  0.6298 -1.6547
 1010MOL0     H36346   7.057   0.428  10.856 -1.8444  0.7431  0.2988
 1010MOL0     H36347   7.206   0.520  10.872  1.4070 -4.0853  0.0552
 1010MOL0     H36348   7.218   0.419  10.471 -1.0051 -2.0992 -0.3195
 1010MOL0     H36349   6.501   0.569  10.985  1.7641  0.1989 -1.3224
 1010MOL0     H36350   6.279   0.689  10.971 -0.1506 -0.8556  2.4012
 1011MOL0     O36351   9.554   6.389   9.786 -0.2266  0.3041  0.2816
 1011MOL0     C36352   9.485   6.432   9.873  0.0568 -0.2426 -0.2056
 1011MOL0     O36353   9.359   6.465   9.855  0.0831 -0.5714 -0.2322
 1011MOL0     C36354   9.287   6.415   9.746 -0.3617 -0.3081  0.3826
 1011MOL0     C36355   9.196   6.305   9.763 -0.9463  0.7708  0.1772
 1011MOL0     C36356   9.093   6.281   9.671  0.8402 -0.9385  0.1235
 1011MOL0     C36357   9.085   6.357   9.552  0.0350  0.7050 -1.1629
 1011MOL0     O36358   9.007   6.329   9.445 -0.4065 -0.5443  0.2860
 1011MOL0     C36359   8.980   6.193   9.413  0.1873  0.1732  0.7827
 1011MOL0     C36360   8.895   6.180   9.283  0.2272  0.2906 -0.3266
 1011MOL0     C36361   8.847   6.039   9.253 -0.1502  0.6100 -1.2028
 1011MOL0     C36362   8.734   6.048   9.157 -0.5455  0.2293 -0.1107
 1011MOL0     C36363   8.691   5.910   9.115  0.4832 -0.3189  0.4725
 1011MOL0     C36364   8.570   5.918   9.020 -0.4121 -0.2464 -0.3469
 1011MOL0     C36365   8.511   5.786   8.983  0.3189  0.2971  0.4540
 1011MOL0     C36366   8.387   5.796   8.896 -0.3242  0.3699  1.3740
 1011MOL0     N36367   8.276   5.823   8.981  0.3671  0.2789  0.3382
 1011MOL0     C36368   8.227   5.742   9.074 -1.0167 -0.2078  0.5271
 1011MOL0     C36369   8.126   5.820   9.131  0.2924 -0.4546  0.1176
 1011MOL0     C36370   8.051   5.764   9.256 -0.0103 -0.2745  0.4454
 1011MOL0     C36371   7.992   5.625   9.225 -0.4728  0.6725  0.0499
 1011MOL0     C36372   7.908   5.589   9.349  0.7074  1.0407 -0.1167
 1011MOL0     C36373   7.869   5.442   9.335  0.2874  0.0202 -0.2316
 1011MOL0     O36374   7.777   5.424   9.232 -0.4875  0.3052  0.1487
 1011MOL0     C36375   7.641   5.426   9.258 -1.1089 -0.3617  0.3715
 1011MOL0     C36376   7.564   5.364   9.156 -0.2606  0.1876 -0.1016
 1011MOL0     C36377   7.424   5.371   9.157  0.2072  0.0775  0.4377
 1011MOL0     C36378   7.366   5.276   9.054 -0.5607  0.1825 -0.0101
 1011MOL0     C36379   7.356   5.455   9.256  1.7696  0.5643 -0.0978
 1011MOL0     C36380   7.213   5.490   9.256 -0.4766  0.1383 -0.1908
 1011MOL0     O36381   7.194   5.611   9.314 -0.4035  0.2552  0.6970
 1011MOL0     C36382   7.070   5.665   9.321 -0.3731  0.7086  0.2648
 1011MOL0     C36383   6.976   5.625   9.416  1.1550 -0.2223 -1.3102
 1011MOL0     C36384   6.857   5.686   9.426  1.0436 -0.3642 -0.2638
 1011MOL0     C36385   6.816   5.794   9.339  0.2654  0.2430  0.4354
 1011MOL0     O36386   6.689   5.838   9.360  0.3450 -0.6917  0.8995
 1011MOL0     C36387   6.656   5.962   9.294 -0.9315 -0.7784  0.7098
 1011MOL0     C36388   6.508   6.001   9.301 -0.1184 -0.0455 -0.4160
 1011MOL0     C36389   6.491   6.096   9.413 -0.0962  0.0154  0.4611
 1011MOL0     C36390   6.340   6.142   9.421  0.4703  0.9385  0.1052
 1011MOL0     C36391   6.330   6.233   9.545  0.1583  0.5628  0.6240
 1011MOL0     C36392   6.184   6.256   9.591  0.1080 -0.9413  0.1076
 1011MOL0     C36393   6.194   6.340   9.717 -0.2864  0.7330 -0.3072
 1011MOL0     C36394   6.067   6.378   9.781 -0.3009 -1.0501  0.2138
 1011MOL0    Cl36395   5.977   6.476   9.661  0.2492 -0.5254  0.1259
 1011MOL0     C36396   6.905   5.827   9.241  0.8865  0.5475  1.0463
 1011MOL0     C36397   7.028   5.757   9.222  0.5811 -0.4484 -0.3764
 1011MOL0     O36398   7.124   5.415   9.229  0.0012  0.5874 -0.1971
 1011MOL0     C36399   7.437   5.504   9.359 -0.5963 -0.1445  0.0956
 1011MOL0     C36400   7.576   5.497   9.360 -0.2727 -0.2494  0.8182
 1011MOL0     N36401   8.115   5.941   9.073 -0.2830  0.4085 -0.5547
 1011MOL0     N36402   8.211   5.943   8.986  0.1144 -0.0897  0.3249
 1011MOL0     C36403   9.175   6.458   9.534 -0.0881 -0.6125 -0.1228
 1011MOL0     C36404   9.275   6.496   9.631 -0.0364 -0.3330  0.7485
 1011MOL0     C36405   9.542   6.462  10.002 -0.5046  0.4835 -0.1855
 1011MOL0     C36406   9.680   6.436  10.024 -0.2782 -0.3736  0.6419
 1011MOL0     C36407   9.742   6.472  10.145 -0.1546 -0.2858 -0.1997
 1011MOL0     C36408   9.667   6.533  10.250  0.1935  0.1253 -0.0101
 1011MOL0     O36409   9.732   6.577  10.373  0.1107 -0.3219 -0.0055
 1011MOL0     C36410   9.654   6.660  10.463  0.3336 -0.3958  0.9361
 1011MOL0     C36411   9.595   6.797  10.417  0.3912  0.0035 -0.2794
 1011MOL0     C36412   9.713   6.877  10.362  0.0922 -0.2953 -0.7191
 1011MOL0     C36413   9.673   7.012  10.301 -0.6607  0.2113  0.4444
 1011MOL0     C36414   9.785   7.105  10.297  0.2463 -0.9756 -0.4192
 1011MOL0     C36415   9.886   7.171  10.290 -0.0480  0.0086 -0.4786
 1011MOL0     C36416   9.527   6.553  10.226 -0.0437  0.4417  0.5166
 1011MOL0     C36417   9.470   6.517  10.099 -0.0357 -0.2177 -0.0446
 1011MOL0     H36418   9.202   6.249   9.855  3.1427 -0.8801 -0.8679
 1011MOL0     H36419   9.004   6.222   9.686 -0.4413  0.3905 -1.8291
 1011MOL0     H36420   9.075   6.141   9.397 -0.5842 -1.9202  2.4727
 1011MOL0     H36421   8.926   6.143   9.494  0.2831  0.6864  1.1629
 1011MOL0     H36422   8.803   6.237   9.297  0.2771 -0.2442  2.9978
 1011MOL0     H36423   8.946   6.217   9.194 -3.9238 -0.1925 -3.2127
 1011MOL0     H36424   8.932   5.986   9.209 -0.1504 -0.6624  0.2554
 1011MOL0     H36425   8.819   5.986   9.344 -0.5598  3.2136  0.3009
 1011MOL0     H36426   8.653   6.100   9.209  0.1651  0.7985  0.4595
 1011MOL0     H36427   8.775   6.112   9.078  2.6998  1.8731  2.6271
 1011MOL0     H36428   8.761   5.850   9.056 -0.8450 -1.0101 -0.4480
 1011MOL0     H36429   8.666   5.857   9.207  0.2839  1.0577  1.2428
 1011MOL0     H36430   8.501   5.979   9.079  0.4927  1.7933 -1.2792
 1011MOL0     H36431   8.592   5.973   8.928  2.0166 -0.4489  0.0544
 1011MOL0     H36432   8.578   5.723   8.924  0.0270 -1.4607  1.9149
 1011MOL0     H36433   8.481   5.733   9.074 -2.0007 -1.7406 -1.3579
 1011MOL0     H36434   8.367   5.705   8.838  1.4949  0.4072  0.6058
 1011MOL0     H36435   8.408   5.881   8.831  2.6797 -0.2998  1.2927
 1011MOL0     H36436   8.262   5.641   9.091  2.0233  0.9200  1.7401
 1011MOL0     H36437   8.115   5.762   9.344  1.4248 -2.1389 -0.5601
 1011MOL0     H36438   7.966   5.827   9.284 -1.4217 -1.6276 -0.5925
 1011MOL0     H36439   8.070   5.548   9.219  0.8250  2.0066 -0.8214
 1011MOL0     H36440   7.939   5.614   9.130  1.3079  2.6514 -1.2403
 1011MOL0     H36441   7.827   5.662   9.356  0.1541  0.3297  1.1850
 1011MOL0     H36442   7.970   5.584   9.438 -0.3460 -2.0116  0.5644
 1011MOL0     H36443   7.822   5.411   9.428  0.0183 -1.7042 -0.9122
 1011MOL0     H36444   7.957   5.379   9.322 -1.0835 -2.0835  0.2206
 1011MOL0     H36445   7.610   5.304   9.078  2.7427  0.6594  1.1732
 1011MOL0     H36446   7.420   5.183   9.035 -3.6923 -1.5940 -1.0144
 1011MOL0     H36447   7.263   5.250   9.080  0.1541 -2.7341  0.2076
 1011MOL0     H36448   7.363   5.325   8.957  3.3022 -0.3174 -0.5405
 1011MOL0     H36449   6.996   5.554   9.496 -0.9024 -1.6509 -1.9890
 1011MOL0     H36450   6.781   5.659   9.499 -0.2875  0.9705 -1.0865
 1011MOL0     H36451   6.707   6.044   9.347 -2.7272  0.2272  0.9784
 1011MOL0     H36452   6.684   5.958   9.189 -0.8779 -1.5843  0.7474
 1011MOL0     H36453   6.481   6.054   9.209  1.3657  0.9618 -0.3108
 1011MOL0     H36454   6.437   5.920   9.320 -0.2684  0.1822  0.0041
 1011MOL0     H36455   6.552   6.186   9.401 -1.8826  1.2916  0.6468
 1011MOL0     H36456   6.515   6.043   9.506 -2.0860 -1.9833 -0.0566
 1011MOL0     H36457   6.310   6.181   9.323  1.8389  0.0360 -0.7132
 1011MOL0     H36458   6.269   6.061   9.443  2.0334 -0.3870  0.4750
 1011MOL0     H36459   6.379   6.326   9.515  0.2992  0.4036  0.3623
 1011MOL0     H36460   6.390   6.189   9.625 -0.1057  1.4955  1.3418
 1011MOL0     H36461   6.137   6.317   9.513  4.0905  0.4130 -1.5208
 1011MOL0     H36462   6.134   6.161   9.610 -1.2708 -0.8928 -2.6891
 1011MOL0     H36463   6.247   6.433   9.697 -0.5314  0.5802 -1.8013
 1011MOL0     H36464   6.263   6.287   9.784  2.9355  0.4366 -3.5916
 1011MOL0     H36465   6.075   6.422   9.880  1.9380 -1.3695  0.2231
 1011MOL0     H36466   6.000   6.294   9.803  2.4298 -2.7248  2.8307
 1011MOL0     H36467   6.870   5.902   9.170  0.1573 -1.0916 -0.3791
 1011MOL0     H36468   7.101   5.781   9.145 -1.5234 -1.0887 -2.7282
 1011MOL0     H36469   7.403   5.561   9.445  1.3133 -1.1184  1.5525
 1011MOL0     H36470   7.641   5.552   9.427 -0.2659 -0.2570  0.8171
 1011MOL0     H36471   9.163   6.523   9.448  1.9878  0.5739  0.4135
 1011MOL0     H36472   9.346   6.574   9.607 -1.0761  0.2583 -0.5537
 1011MOL0     H36473   9.737   6.386   9.947 -2.5612 -0.2893 -1.1965
 1011MOL0     H36474   9.848   6.460  10.165  0.2574  3.1502  0.3670
 1011MOL0     H36475   9.587   6.589  10.513  1.6419 -1.0791  1.7959
 1011MOL0     H36476   9.711   6.697  10.548  1.0735  0.7121 -0.0061
 1011MOL0     H36477   9.547   6.844  10.503  0.0045 -0.8987  0.0102
 1011MOL0     H36478   9.519   6.778  10.341  2.4313 -1.8761 -2.0009
 1011MOL0     H36479   9.765   6.816  10.288  1.2636  1.4950 -1.4236
 1011MOL0     H36480   9.786   6.899  10.440 -2.5798 -0.3779  2.0210
 1011MOL0     H36481   9.599   7.054  10.369  0.0746  0.1734  1.2726
 1011MOL0     H36482   9.629   7.012  10.200  3.4345 -0.3684 -1.5568
 1011MOL0     H36483   9.986   7.211  10.290 -0.1315  0.9475  4.7318
 1011MOL0     H36484   9.452   6.598  10.290 -0.1835  1.0265 -0.0439
 1011MOL0     H36485   9.366   6.551  10.098  0.1551  0.4669  1.1604
 1012MOL0     O36486   7.541  10.418   2.822  0.5214 -0.3918 -0.3387
 1012MOL0     C36487   7.540  10.534   2.788  0.5004  0.7072  0.1037
 1012MOL0     O36488   7.452  10.585   2.704  0.1081  0.0607  0.8602
 1012MOL0     C36489   7.357  10.500   2.650  0.9808 -0.1879  0.7642
 1012MOL0     C36490   7.233  10.483   2.721  0.2288 -0.5161  0.0929
 1012MOL0     C36491   7.139  10.383   2.679 -0.4130 -0.4344 -0.3089
 1012MOL0     C36492   7.163  10.307   2.563  0.0454  0.6090  0.8762
 1012MOL0     O36493   7.076  10.216   2.521 -0.1897  0.6206  0.7683
 1012MOL0     C36494   6.938  10.210   2.566  0.2268 -0.3679 -0.1258
 1012MOL0     C36495   6.856  10.103   2.482  0.2207 -0.0171  0.4727
 1012MOL0     C36496   6.710  10.082   2.546 -0.7950  0.1262 -0.3822
 1012MOL0     C36497   6.622  10.016   2.433 -0.5747  0.0990 -0.9786
 1012MOL0     C36498   6.489  10.033   2.480  0.2225 -0.0203  0.1439
 1012MOL0     C36499   6.400  10.003   2.366  0.5966  0.7283 -0.7539
 1012MOL0     C36500   6.253   9.981   2.395  0.1966 -0.9225  0.2716
 1012MOL0     C36501   6.192  10.113   2.451 -0.7594  0.2568  0.6224
 1012MOL0     N36502   6.047  10.102   2.430 -1.0079 -0.0819 -0.4433
 1012MOL0     C36503   5.981  10.124   2.316 -0.2530 -0.6067  0.7385
 1012MOL0     C36504   5.863  10.062   2.341  0.3801 -0.3882  0.1696
 1012MOL0     C36505   5.759  10.049   2.238  0.5934 -0.2134 -0.4600
 1012MOL0     C36506   5.721   9.906   2.201  0.1889 -0.8105  1.0348
 1012MOL0     C36507   5.845   9.824   2.145 -0.5994 -0.5192  0.1689
 1012MOL0     C36508   5.795   9.698   2.079 -0.2000  0.6404  0.1233
 1012MOL0     O36509   5.728   9.629   2.186  0.3491 -0.0487 -0.4677
 1012MOL0     C36510   5.702   9.497   2.163  0.0258  0.0790 -0.2218
 1012MOL0     C36511   5.683   9.423   2.041  0.6662 -0.6153  0.0912
 1012MOL0     C36512   5.629   9.290   2.026 -0.6328 -0.1704  0.0407
 1012MOL0     C36513   5.599   9.231   1.879  0.2988  0.0145 -0.2152
 1012MOL0     C36514   5.612   9.219   2.146  0.2529 -0.4278 -0.2981
 1012MOL0     C36515   5.563   9.083   2.154  0.0397  1.5302  0.0981
 1012MOL0     O36516   5.468   9.034   2.245  1.0685  0.8741 -0.6692
 1012MOL0     C36517   5.430   8.897   2.241 -0.3391 -0.4537  0.9378
 1012MOL0     C36518   5.300   8.862   2.228 -0.7697 -0.2375 -0.1434
 1012MOL0     C36519   5.262   8.731   2.251 -0.1565  0.0231 -0.0182
 1012MOL0     C36520   5.355   8.634   2.281 -0.8602  0.6117 -0.3333
 1012MOL0     O36521   5.315   8.504   2.292 -0.2559 -0.3308  0.7159
 1012MOL0     C36522   5.392   8.419   2.384  0.5489 -0.5336 -0.2863
 1012MOL0     C36523   5.340   8.281   2.398  0.4894 -0.1086  0.2940
 1012MOL0     C36524   5.386   8.180   2.290  0.0381  0.8152 -0.2206
 1012MOL0     C36525   5.318   8.042   2.286  0.8681 -0.2751  0.5101
 1012MOL0     C36526   5.357   7.968   2.156 -0.1531 -0.0563  0.0754
 1012MOL0     C36527   5.262   8.026   2.048 -0.8422  0.3712  0.1572
 1012MOL0     C36528   5.245   7.935   1.932 -0.7851  0.6332  0.1815
 1012MOL0     C36529   5.151   7.976   1.816  0.4919 -0.9894 -0.1758
 1012MOL0    Cl36530   5.230   8.117   1.725 -0.1543  0.8916 -0.2117
 1012MOL0     C36531   5.490   8.676   2.311  1.1515  0.4123  0.2029
 1012MOL0     C36532   5.528   8.805   2.289 -0.6354  0.0477 -0.1528
 1012MOL0     O36533   5.629   9.012   2.072 -0.4708  0.3089 -0.1106
 1012MOL0     C36534   5.636   9.287   2.266 -0.4310 -0.3350 -0.7441
 1012MOL0     C36535   5.679   9.420   2.272  0.1499 -1.0100 -0.4709
 1012MOL0     N36536   5.858  10.039   2.479  0.9562  1.2207 -0.1611
 1012MOL0     N36537   5.973  10.056   2.536 -0.1832 -0.3354 -0.0786
 1012MOL0     C36538   7.281  10.329   2.494  0.3064  0.5521 -0.8073
 1012MOL0     C36539   7.376  10.424   2.529  0.9024  0.0290 -0.6701
 1012MOL0     C36540   7.633  10.633   2.845  0.9387  0.1274 -0.0383
 1012MOL0     C36541   7.749  10.585   2.906  0.9259 -0.0940  1.4843
 1012MOL0     C36542   7.841  10.660   2.976  0.1613 -0.0241 -0.9454
 1012MOL0     C36543   7.812  10.801   2.985 -0.1424 -0.3291  0.8258
 1012MOL0     O36544   7.905  10.876   3.049 -0.0767 -0.8198  0.2546
 1012MOL0     C36545   7.975  10.962   2.958  0.0883 -0.7008  0.2590
 1012MOL0     C36546   8.105  11.016   3.018 -0.5002  0.6581  0.2523
 1012MOL0     C36547   8.056  11.107   3.138  0.4172 -0.1889  1.5928
 1012MOL0     C36548   7.992  11.240   3.095 -0.4147 -0.2542  0.4088
 1012MOL0     C36549   8.089  11.317   3.017 -0.4799  0.1107  0.3655
 1012MOL0     C36550   8.165  11.389   2.955 -0.3792  0.6186 -0.1653
 1012MOL0     C36551   7.694  10.850   2.917  0.3333 -0.7137 -0.3327
 1012MOL0     C36552   7.606  10.770   2.849 -0.1961  0.0276  0.3593
 1012MOL0     H36553   7.211  10.547   2.805 -1.3885 -0.5441 -0.2709
 1012MOL0     H36554   7.046  10.362   2.731 -1.1566 -0.9776 -1.7734
 1012MOL0     H36555   6.933  10.186   2.673 -1.6656 -2.3984 -0.5839
 1012MOL0     H36556   6.896  10.309   2.549  2.0701  0.2980 -1.1565
 1012MOL0     H36557   6.848  10.148   2.382  0.4861 -2.4823 -0.7395
 1012MOL0     H36558   6.909  10.009   2.463 -0.6870 -0.5258  0.4303
 1012MOL0     H36559   6.715  10.006   2.625  1.3802 -1.5988 -2.0607
 1012MOL0     H36560   6.667  10.174   2.587  0.0843  1.0945 -1.5354
 1012MOL0     H36561   6.635  10.082   2.346 -0.9143  1.8939  0.2697
 1012MOL0     H36562   6.644   9.912   2.406 -3.2455 -0.3736 -1.5531
 1012MOL0     H36563   6.465   9.964   2.561  0.4107  1.7292  1.7574
 1012MOL0     H36564   6.468  10.130   2.527  0.3561  0.3791 -0.5953
 1012MOL0     H36565   6.414  10.081   2.290 -0.1764 -0.9903 -2.7698
 1012MOL0     H36566   6.436   9.910   2.321  2.2599  1.2489 -0.5596
 1012MOL0     H36567   6.200   9.970   2.300 -1.3824  2.6569  0.5883
 1012MOL0     H36568   6.241   9.885   2.447  0.7647 -1.8375 -1.2127
 1012MOL0     H36569   6.230  10.203   2.402  0.0267 -0.1378  0.4883
 1012MOL0     H36570   6.220  10.116   2.557 -0.4103 -3.6913  0.7963
 1012MOL0     H36571   6.030  10.169   2.229  2.9314  1.7877  3.5120
 1012MOL0     H36572   5.673  10.106   2.275  1.4032  1.1334 -0.5890
 1012MOL0     H36573   5.798  10.092   2.145  0.2319  2.0046  0.3453
 1012MOL0     H36574   5.637   9.916   2.131  0.9110  1.0930  0.3771
 1012MOL0     H36575   5.682   9.856   2.290 -1.2384 -0.2304  0.7680
 1012MOL0     H36576   5.917   9.798   2.224  0.1242  1.6123  0.2513
 1012MOL0     H36577   5.902   9.886   2.077  0.0923  0.6710  1.7658
 1012MOL0     H36578   5.885   9.642   2.052  1.1325  2.3850  0.7291
 1012MOL0     H36579   5.725   9.721   1.998  1.4721  1.6739 -1.0925
 1012MOL0     H36580   5.670   9.480   1.950 -0.9816 -4.0571 -2.0819
 1012MOL0     H36581   5.659   9.145   1.849  1.8882  0.6460  1.0132
 1012MOL0     H36582   5.499   9.188   1.870  0.1896 -0.1136  1.3056
 1012MOL0     H36583   5.607   9.308   1.802  0.0881  1.2495  0.9556
 1012MOL0     H36584   5.223   8.932   2.197 -1.8405 -2.2612 -2.4773
 1012MOL0     H36585   5.158   8.702   2.242 -0.9711  1.3986  3.6353
 1012MOL0     H36586   5.490   8.405   2.338  2.0494  1.6476  1.9899
 1012MOL0     H36587   5.399   8.467   2.482 -0.4993 -2.7495  0.9445
 1012MOL0     H36588   5.376   8.249   2.496  0.7611 -2.1343 -0.4111
 1012MOL0     H36589   5.232   8.271   2.387  0.7039 -1.2497 -1.1237
 1012MOL0     H36590   5.495   8.169   2.301 -0.0912  0.6713  0.9810
 1012MOL0     H36591   5.361   8.226   2.194 -0.1233  0.2669 -0.4434
 1012MOL0     H36592   5.360   7.989   2.372 -1.4221  0.9690  2.5477
 1012MOL0     H36593   5.209   8.045   2.293  0.6498 -2.3318 -1.1725
 1012MOL0     H36594   5.336   7.862   2.174  0.8964 -0.1587  0.7971
 1012MOL0     H36595   5.465   7.969   2.137  0.4453  0.4528  3.0430
 1012MOL0     H36596   5.161   8.042   2.088 -0.5341 -0.4488  1.3308
 1012MOL0     H36597   5.298   8.126   2.022 -0.0549 -0.1961 -0.9799
 1012MOL0     H36598   5.220   7.832   1.959  0.3624  1.0137  3.0016
 1012MOL0     H36599   5.345   7.922   1.889 -0.1477  2.5578  0.9642
 1012MOL0     H36600   5.056   8.020   1.850  0.3337 -0.4458 -1.2932
 1012MOL0     H36601   5.124   7.895   1.748 -3.3906  0.3831 -0.5036
 1012MOL0     H36602   5.568   8.603   2.332  0.6955 -0.7009 -1.7321
 1012MOL0     H36603   5.629   8.834   2.316 -0.9001  0.3829  0.5164
 1012MOL0     H36604   5.617   9.235   2.360 -0.6313  1.7316  0.4058
 1012MOL0     H36605   5.679   9.475   2.366 -2.8387 -1.9359  0.1854
 1012MOL0     H36606   7.315  10.268   2.410  1.6755 -1.5175  1.1328
 1012MOL0     H36607   7.472  10.435   2.479  1.8432  1.8754  1.3281
 1012MOL0     H36608   7.774  10.480   2.906  3.1689  0.3663  0.1690
 1012MOL0     H36609   7.928  10.605   3.010  0.8148  0.9121 -1.0766
 1012MOL0     H36610   7.980  10.902   2.867 -0.5310 -0.2726 -0.0666
 1012MOL0     H36611   7.915  11.050   2.932  1.6892  1.1537  2.4030
 1012MOL0     H36612   8.175  11.065   2.950  3.4708 -1.9440  2.0517
 1012MOL0     H36613   8.160  10.927   3.050 -0.5141  0.1909 -0.9919
 1012MOL0     H36614   8.145  11.142   3.191 -0.1112  2.1046  1.1090
 1012MOL0     H36615   7.979  11.059   3.199 -0.6895 -0.6818 -0.1255
 1012MOL0     H36616   7.970  11.304   3.181  0.3368  2.3520 -1.2546
 1012MOL0     H36617   7.902  11.234   3.033 -0.4626 -0.5021  0.5011
 1012MOL0     H36618   8.223  11.447   2.886  0.6342  0.4569  0.5188
 1012MOL0     H36619   7.670  10.956   2.920  1.9506 -0.1717 -3.1553
 1012MOL0     H36620   7.518  10.808   2.797 -1.3836 -1.7212  0.9778
 1013MOL0     O36621   1.547   3.537   4.013 -0.3114 -0.1755  0.2535
 1013MOL0     C36622   1.558   3.495   3.895 -0.6798  0.6963 -0.7892
 1013MOL0     O36623   1.459   3.450   3.817 -1.2275 -0.2185 -0.1749
 1013MOL0     C36624   1.329   3.460   3.858  1.0435 -0.3962  0.0169
 1013MOL0     C36625   1.264   3.342   3.850  1.1287  0.6195 -0.1187
 1013MOL0     C36626   1.132   3.318   3.898  0.7901 -0.2634  0.6646
 1013MOL0     C36627   1.071   3.430   3.948 -0.1352 -0.0459 -0.4976
 1013MOL0     O36628   0.934   3.432   3.978  0.5043  0.8404 -0.0492
 1013MOL0     C36629   0.864   3.549   4.017 -0.5036  0.8237  0.2825
 1013MOL0     C36630   0.716   3.525   4.034  0.2467 -0.0650 -1.1995
 1013MOL0     C36631   0.637   3.448   3.924 -0.0761 -0.3118 -0.6966
 1013MOL0     C36632   0.490   3.438   3.952  0.3433 -0.0448 -0.6063
 1013MOL0     C36633   0.417   3.360   3.846 -0.9938  0.8184 -0.9751
 1013MOL0     C36634   0.273   3.363   3.864 -0.3349 -0.1449  0.8290
 1013MOL0     C36635   0.191   3.281   3.752 -0.0699  0.0384  0.0926
 1013MOL0     C36636   0.047   3.326   3.727 -0.3448 -0.0170 -0.5221
 1013MOL0     N36637  -0.048   3.233   3.665  0.3735  0.3867 -0.1014
 1013MOL0     C36638  -0.074   3.236   3.527  0.0767 -0.5599  0.0720
 1013MOL0     C36639  -0.177   3.144   3.525 -0.3709  0.0313 -0.0149
 1013MOL0     C36640  -0.246   3.118   3.397  0.2027  0.4240 -0.1966
 1013MOL0     C36641  -0.352   3.222   3.357  1.0586 -0.1691 -0.7852
 1013MOL0     C36642  -0.457   3.227   3.463 -0.1296  0.3801 -0.3333
 1013MOL0     C36643  -0.536   3.096   3.495  0.5339  0.4846 -0.4565
 1013MOL0     O36644  -0.647   3.134   3.579 -0.8044 -0.5139 -0.2516
 1013MOL0     C36645  -0.634   3.159   3.716  0.1601  0.5526  0.8377
 1013MOL0     C36646  -0.521   3.116   3.794 -0.7783  0.5769 -1.3037
 1013MOL0     C36647  -0.509   3.150   3.930  0.3679 -0.4287  0.3667
 1013MOL0     C36648  -0.378   3.101   3.983  0.6364  0.1738 -0.7816
 1013MOL0     C36649  -0.603   3.239   3.993  0.2741 -0.4638  0.0965
 1013MOL0     C36650  -0.581   3.288   4.128 -0.3241 -0.1261 -0.1847
 1013MOL0     O36651  -0.627   3.412   4.154 -0.3433  0.4382  0.0912
 1013MOL0     C36652  -0.621   3.446   4.287  0.1883  0.0311 -0.7156
 1013MOL0     C36653  -0.494   3.469   4.349  1.3232 -0.3995 -0.1747
 1013MOL0     C36654  -0.477   3.501   4.485  0.4668  0.8325  0.5478
 1013MOL0     C36655  -0.586   3.516   4.567  0.3233 -0.1403 -0.3798
 1013MOL0     O36656  -0.559   3.557   4.693 -0.5151 -0.1428 -0.2019
 1013MOL0     C36657  -0.664   3.579   4.786  0.9524 -0.2006  0.0870
 1013MOL0     C36658  -0.705   3.449   4.842 -0.3289  0.4898 -0.0183
 1013MOL0     C36659  -0.811   3.463   4.955 -0.3603  0.1991 -0.6682
 1013MOL0     C36660  -0.814   3.323   5.033 -0.2136 -0.1491 -0.0322
 1013MOL0     C36661  -0.886   3.336   5.166  0.0751 -0.0589 -0.0697
 1013MOL0     C36662  -1.037   3.356   5.152 -0.5385 -0.0306  0.0566
 1013MOL0     C36663  -1.100   3.374   5.288 -1.0582  0.7069 -1.1304
 1013MOL0     C36664  -1.066   3.513   5.359 -0.2790 -0.2980 -0.1487
 1013MOL0    Cl36665  -1.111   3.478   5.524  0.4104  0.1394 -0.4777
 1013MOL0     C36666  -0.711   3.501   4.513 -0.0865  1.1901 -0.0169
 1013MOL0     C36667  -0.731   3.461   4.376 -0.3063 -0.5630  0.2192
 1013MOL0     O36668  -0.541   3.216   4.213  1.2713 -0.1849 -1.1611
 1013MOL0     C36669  -0.710   3.289   3.908  0.2085 -0.1589 -0.2107
 1013MOL0     C36670  -0.727   3.245   3.774 -1.1389 -0.2912 -0.1681
 1013MOL0     N36671  -0.189   3.071   3.642 -0.5947  0.4260  0.0070
 1013MOL0     N36672  -0.110   3.124   3.725 -0.3001 -0.5742  0.5182
 1013MOL0     C36673   1.136   3.547   3.953 -0.3338  0.2775 -0.1291
 1013MOL0     C36674   1.266   3.571   3.905 -0.0358  0.2111  0.4256
 1013MOL0     C36675   1.695   3.499   3.840 -0.3477 -0.4063  0.3728
 1013MOL0     C36676   1.786   3.594   3.900 -0.2392 -0.2550  0.3884
 1013MOL0     C36677   1.921   3.597   3.865 -0.7165  0.0717 -0.4321
 1013MOL0     C36678   1.967   3.498   3.767  0.2552 -0.8505  0.4171
 1013MOL0     O36679   2.101   3.496   3.736  0.7600  0.5509 -0.3435
 1013MOL0     C36680   2.203   3.567   3.808 -0.1227  0.6648  0.1190
 1013MOL0     C36681   2.334   3.526   3.756  0.9410 -0.0807 -1.0282
 1013MOL0     C36682   2.453   3.605   3.821 -0.5474  0.9039  0.2251
 1013MOL0     C36683   2.602   3.563   3.784 -0.4786 -0.4705  0.9123
 1013MOL0     C36684   2.607   3.583   3.636  0.3409  0.2200  0.1519
 1013MOL0     C36685   2.597   3.623   3.523 -0.8395 -1.0844 -0.5511
 1013MOL0     C36686   1.884   3.411   3.703  1.3871  0.7402 -0.0591
 1013MOL0     C36687   1.744   3.410   3.745 -0.7139  0.2918  0.1878
 1013MOL0     H36688   1.319   3.255   3.817  1.8517  0.0301  2.3766
 1013MOL0     H36689   1.077   3.226   3.883  0.5210  0.1821 -1.5270
 1013MOL0     H36690   0.905   3.581   4.113 -1.1001  0.4903  0.6534
 1013MOL0     H36691   0.873   3.629   3.943  0.7166 -0.7352 -1.3484
 1013MOL0     H36692   0.722   3.470   4.128  4.1423  0.3393 -1.0520
 1013MOL0     H36693   0.663   3.619   4.054 -1.2636 -1.3845  1.6236
 1013MOL0     H36694   0.656   3.507   3.834  1.9440 -1.7085 -1.2413
 1013MOL0     H36695   0.682   3.351   3.901 -0.6858 -0.5962 -0.7107
 1013MOL0     H36696   0.486   3.370   4.037  0.0021 -1.0606 -1.4135
 1013MOL0     H36697   0.439   3.533   3.968 -1.7095 -1.2784  0.5443
 1013MOL0     H36698   0.446   3.401   3.749  1.6186 -4.4042 -2.7822
 1013MOL0     H36699   0.446   3.255   3.852 -3.1448  0.1672 -1.1794
 1013MOL0     H36700   0.248   3.322   3.963  0.9142 -0.1448  1.1538
 1013MOL0     H36701   0.227   3.462   3.868  1.6054  0.9258 -1.2593
 1013MOL0     H36702   0.245   3.269   3.658 -0.6946 -2.5267 -0.0334
 1013MOL0     H36703   0.185   3.182   3.799 -0.8324  1.1053  2.4306
 1013MOL0     H36704   0.050   3.419   3.671 -2.0899  0.8752  0.7526
 1013MOL0     H36705   0.004   3.349   3.825 -0.1375 -1.9498  0.0680
 1013MOL0     H36706  -0.034   3.300   3.449  3.0377 -2.4562 -0.1354
 1013MOL0     H36707  -0.165   3.117   3.324  0.5350  1.2565  0.1461
 1013MOL0     H36708  -0.311   3.030   3.401 -0.2038  0.6087 -2.1292
 1013MOL0     H36709  -0.400   3.197   3.263  0.1777 -0.4725 -0.2657
 1013MOL0     H36710  -0.305   3.320   3.345  2.6197 -0.6990  0.6203
 1013MOL0     H36711  -0.525   3.308   3.433 -2.5682 -2.0586 -1.9472
 1013MOL0     H36712  -0.423   3.262   3.561 -0.6951 -3.8176  1.5563
 1013MOL0     H36713  -0.470   3.017   3.532  1.1701  0.8027 -0.8809
 1013MOL0     H36714  -0.574   3.058   3.400 -0.0682 -2.4298  0.8644
 1013MOL0     H36715  -0.447   3.048   3.754 -1.8604 -3.2887  2.4886
 1013MOL0     H36716  -0.392   3.014   4.048  0.3784 -0.6264 -1.8834
 1013MOL0     H36717  -0.299   3.078   3.911  1.5101 -2.1784  0.7724
 1013MOL0     H36718  -0.329   3.186   4.030  1.4973 -0.6695 -0.1124
 1013MOL0     H36719  -0.408   3.455   4.285  2.0460  0.4861  0.5885
 1013MOL0     H36720  -0.374   3.513   4.516  1.3571  0.6469 -2.0299
 1013MOL0     H36721  -0.629   3.651   4.861 -0.5708 -0.1368  0.7840
 1013MOL0     H36722  -0.751   3.624   4.737  0.4420 -1.9223 -0.6800
 1013MOL0     H36723  -0.748   3.378   4.771  1.0034 -1.0488  0.6394
 1013MOL0     H36724  -0.607   3.412   4.872 -0.2927 -1.4808 -2.3041
 1013MOL0     H36725  -0.911   3.490   4.919 -1.5895 -3.9794 -0.9145
 1013MOL0     H36726  -0.782   3.542   5.024  1.6818 -1.1294  0.0766
 1013MOL0     H36727  -0.857   3.238   4.981  1.3316 -0.2081 -1.2689
 1013MOL0     H36728  -0.713   3.301   5.068 -0.5180 -0.5523  0.6068
 1013MOL0     H36729  -0.837   3.421   5.214  6.4883 -2.8000 -0.6175
 1013MOL0     H36730  -0.858   3.249   5.227 -0.6499 -0.6015 -0.4983
 1013MOL0     H36731  -1.068   3.445   5.096 -0.2546 -0.0028 -0.0584
 1013MOL0     H36732  -1.077   3.267   5.104  0.8434 -0.0586 -1.1141
 1013MOL0     H36733  -1.057   3.300   5.356 -0.0403  1.0424 -1.4028
 1013MOL0     H36734  -1.209   3.361   5.279 -1.2568  0.8808  0.7139
 1013MOL0     H36735  -1.132   3.592   5.320 -0.7570 -0.6693 -0.1002
 1013MOL0     H36736  -0.961   3.542   5.365  0.1447 -1.5073 -1.1718
 1013MOL0     H36737  -0.802   3.498   4.572 -1.3507 -0.5987 -1.8966
 1013MOL0     H36738  -0.832   3.440   4.341 -0.1781  1.9774 -1.9351
 1013MOL0     H36739  -0.777   3.357   3.960  3.9423  2.8583  1.0605
 1013MOL0     H36740  -0.799   3.282   3.702  1.3374  1.4345 -1.9079
 1013MOL0     H36741   1.100   3.632   4.009  1.5233  1.1612 -0.2003
 1013MOL0     H36742   1.317   3.666   3.913 -3.8045  2.5181 -0.6455
 1013MOL0     H36743   1.749   3.654   3.983  0.7722 -1.0533  1.4567
 1013MOL0     H36744   1.980   3.678   3.907  0.4925 -0.2121 -1.5241
 1013MOL0     H36745   2.189   3.676   3.804 -0.7586  0.5965  0.3029
 1013MOL0     H36746   2.198   3.529   3.910 -0.9364 -3.5419 -1.3092
 1013MOL0     H36747   2.339   3.546   3.649 -0.9216  1.7502 -0.8498
 1013MOL0     H36748   2.349   3.418   3.768 -1.0944 -0.4300 -1.1345
 1013MOL0     H36749   2.445   3.585   3.928  0.2244 -0.1094  0.1071
 1013MOL0     H36750   2.453   3.712   3.799 -0.6125  0.7499 -0.5761
 1013MOL0     H36751   2.615   3.458   3.810 -2.1564 -0.8740  0.2138
 1013MOL0     H36752   2.674   3.623   3.840 -0.0490 -0.6451  0.5567
 1013MOL0     H36753   2.595   3.652   3.420  1.2351 -0.6070 -0.5123
 1013MOL0     H36754   1.929   3.344   3.630 -0.9526 -2.6096  1.2994
 1013MOL0     H36755   1.682   3.336   3.695 -1.7843  1.2147  0.1134
 1014MOL0     O36756   5.491   2.810   0.145  0.1497  0.0458  0.5488
 1014MOL0     C36757   5.430   2.843   0.043  0.1448  0.3740 -1.3114
 1014MOL0     O36758   5.457   2.789  -0.077  0.4519  0.7368  0.2130
 1014MOL0     C36759   5.544   2.683  -0.090 -0.2995 -0.8421 -0.6814
 1014MOL0     C36760   5.671   2.684  -0.052 -0.0886 -0.0781 -0.5861
 1014MOL0     C36761   5.757   2.567  -0.056  0.6676 -0.6957 -0.7111
 1014MOL0     C36762   5.700   2.452  -0.114  0.5205  0.1590 -0.4216
 1014MOL0     O36763   5.766   2.327  -0.116 -0.2024  0.6342  0.2648
 1014MOL0     C36764   5.908   2.322  -0.125  0.5991 -0.2509 -0.0972
 1014MOL0     C36765   5.945   2.186  -0.194  0.3577 -0.0796  0.2580
 1014MOL0     C36766   6.102   2.172  -0.212 -0.0699 -0.7434 -0.0212
 1014MOL0     C36767   6.138   2.030  -0.225 -0.0376  0.1924 -0.5200
 1014MOL0     C36768   6.297   2.022  -0.237 -0.2034  0.8067  0.5920
 1014MOL0     C36769   6.342   1.880  -0.260  0.8219 -0.1935  0.1604
 1014MOL0     C36770   6.491   1.872  -0.273  0.5409  0.6806 -0.7450
 1014MOL0     C36771   6.536   1.728  -0.308  0.5306 -0.1542 -0.5233
 1014MOL0     N36772   6.676   1.697  -0.270 -0.3454 -0.8931  0.3215
 1014MOL0     C36773   6.707   1.603  -0.168  0.7885  0.8754  0.8072
 1014MOL0     C36774   6.840   1.614  -0.158 -0.7553 -0.9407  0.5489
 1014MOL0     C36775   6.929   1.548  -0.057  0.5133 -0.0537  0.0526
 1014MOL0     C36776   7.014   1.420  -0.093  0.0348  0.6087  0.0598
 1014MOL0     C36777   7.132   1.453  -0.179  0.0537  0.0165 -0.1476
 1014MOL0     C36778   7.225   1.341  -0.196  0.6024  0.7901  0.3903
 1014MOL0     O36779   7.342   1.359  -0.269 -0.2211  0.7645  0.4395
 1014MOL0     C36780   7.386   1.245  -0.339 -0.1649 -1.0842  0.2942
 1014MOL0     C36781   7.506   1.280  -0.409  0.8510 -0.1586  0.1348
 1014MOL0     C36782   7.572   1.183  -0.490  0.1471  0.6606  0.2025
 1014MOL0     C36783   7.702   1.227  -0.543  0.5032 -0.3382  0.0470
 1014MOL0     C36784   7.521   1.052  -0.504 -0.1020 -0.3565 -0.1924
 1014MOL0     C36785   7.582   0.953  -0.590  0.9780  0.4095  0.5593
 1014MOL0     O36786   7.571   0.825  -0.544 -0.1144  0.4161  0.7015
 1014MOL0     C36787   7.621   0.720  -0.624 -0.3608 -0.3607  0.5324
 1014MOL0     C36788   7.529   0.629  -0.684  0.0605  0.9374 -0.1999
 1014MOL0     C36789   7.575   0.510  -0.748  0.0954 -0.8806  0.3965
 1014MOL0     C36790   7.715   0.493  -0.766  0.5288  0.3880 -0.2687
 1014MOL0     O36791   7.768   0.397  -0.855 -0.3550  0.8251  0.7524
 1014MOL0     C36792   7.852   0.445  -0.955 -0.3262  0.6143  0.2722
 1014MOL0     C36793   7.869   0.345  -1.071  0.6438 -0.3733 -1.1467
 1014MOL0     C36794   7.723   0.286  -1.096  0.0459  0.3800  0.6875
 1014MOL0     C36795   7.614   0.393  -1.132  0.0332 -0.5769 -0.7411
 1014MOL0     C36796   7.473   0.343  -1.170  0.3625  0.1070 -0.1495
 1014MOL0     C36797   7.475   0.300  -1.314  1.1243  0.7624 -1.0372
 1014MOL0     C36798   7.333   0.264  -1.360  0.3282  0.6824 -0.1013
 1014MOL0     C36799   7.241   0.171  -1.286  0.3439  0.2531 -0.3741
 1014MOL0    Cl36800   7.349   0.015  -1.241  0.2069 -0.0875 -0.1291
 1014MOL0     C36801   7.806   0.596  -0.711  0.2220 -0.3382 -0.2937
 1014MOL0     C36802   7.755   0.700  -0.636  0.0246 -0.0531  0.2071
 1014MOL0     O36803   7.642   0.986  -0.691 -0.1291 -0.5158 -0.1097
 1014MOL0     C36804   7.409   1.017  -0.423  0.2459 -0.0543  0.8925
 1014MOL0     C36805   7.351   1.110  -0.334  0.8480  0.7616 -0.5059
 1014MOL0     N36806   6.883   1.694  -0.257 -0.7709  0.0974 -0.1979
 1014MOL0     N36807   6.786   1.750  -0.317  0.3915  0.3714 -0.0552
 1014MOL0     C36808   5.569   2.450  -0.151  0.7985  0.3387  1.2846
 1014MOL0     C36809   5.488   2.564  -0.141  0.3256  0.0126 -0.5501
 1014MOL0     C36810   5.301   2.929   0.056 -0.3126 -0.1516  0.1273
 1014MOL0     C36811   5.201   2.913  -0.039  1.0057 -0.1563  0.4926
 1014MOL0     C36812   5.088   2.991  -0.043 -0.3261 -1.2130  0.5481
 1014MOL0     C36813   5.064   3.091   0.055  0.4336 -0.0852  0.2637
 1014MOL0     O36814   4.959   3.180   0.056  1.0721 -0.3861  0.0173
 1014MOL0     C36815   4.846   3.137  -0.013  0.4779  0.5012  0.9690
 1014MOL0     C36816   4.731   3.227   0.023  0.4830 -0.1421 -0.4720
 1014MOL0     C36817   4.596   3.202  -0.054  0.8677 -0.9536 -0.4660
 1014MOL0     C36818   4.513   3.328  -0.032 -0.6356 -0.6051  0.6756
 1014MOL0     C36819   4.388   3.335  -0.102 -0.0028 -0.3321  0.0655
 1014MOL0     C36820   4.293   3.360  -0.170  0.5406  0.4859 -0.1109
 1014MOL0     C36821   5.167   3.113   0.149  0.7107  0.9831 -0.1084
 1014MOL0     C36822   5.287   3.030   0.157  0.6955  0.6835 -0.6969
 1014MOL0     H36823   5.718   2.776  -0.017  1.4489 -1.5446  1.3943
 1014MOL0     H36824   5.863   2.583  -0.041  0.3437 -0.1329  1.2128
 1014MOL0     H36825   5.937   2.409  -0.185  0.2893 -0.7529 -1.0033
 1014MOL0     H36826   5.966   2.313  -0.033  3.0602 -1.1045 -1.6118
 1014MOL0     H36827   5.905   2.107  -0.130 -0.6550 -0.6128 -1.0010
 1014MOL0     H36828   5.888   2.179  -0.286 -1.4256  2.0106  1.1068
 1014MOL0     H36829   6.139   2.224  -0.301  0.4370 -4.2723 -2.1083
 1014MOL0     H36830   6.152   2.212  -0.124  0.4341 -0.3686 -0.4785
 1014MOL0     H36831   6.099   1.977  -0.137  0.1900  0.2049 -0.4094
 1014MOL0     H36832   6.087   1.986  -0.310 -0.1502 -0.0860 -0.3116
 1014MOL0     H36833   6.330   2.086  -0.320 -3.6282  0.1292 -1.5097
 1014MOL0     H36834   6.343   2.058  -0.145  1.2616  0.2024  0.1161
 1014MOL0     H36835   6.292   1.811  -0.191 -0.1956  0.4886  0.1345
 1014MOL0     H36836   6.315   1.852  -0.362  5.3804 -1.3335 -0.9568
 1014MOL0     H36837   6.535   1.932  -0.353 -0.7863 -0.7462 -2.6166
 1014MOL0     H36838   6.550   1.903  -0.186  3.0457 -4.7338 -0.0911
 1014MOL0     H36839   6.519   1.700  -0.412  0.8976 -2.2640 -0.0630
 1014MOL0     H36840   6.473   1.665  -0.245  1.5427 -1.4611 -0.7604
 1014MOL0     H36841   6.636   1.542  -0.113 -1.5154  3.1979  0.5847
 1014MOL0     H36842   6.988   1.634  -0.025 -2.9401  2.9800 -0.9606
 1014MOL0     H36843   6.860   1.507   0.018 -0.7702 -0.8519 -1.4904
 1014MOL0     H36844   6.956   1.355  -0.159 -0.3157 -0.9642  1.8247
 1014MOL0     H36845   7.037   1.361  -0.003  1.3141  0.3716 -0.4034
 1014MOL0     H36846   7.181   1.544  -0.141  0.6083 -0.6130  0.6795
 1014MOL0     H36847   7.094   1.479  -0.278 -1.0197  0.5367  0.3779
 1014MOL0     H36848   7.165   1.265  -0.247  1.6779 -0.3757  0.8162
 1014MOL0     H36849   7.240   1.299  -0.096 -0.8063  1.8297  1.0741
 1014MOL0     H36850   7.555   1.376  -0.391 -2.5378  1.7460  0.0622
 1014MOL0     H36851   7.729   1.325  -0.504  0.2674  0.5301 -1.8841
 1014MOL0     H36852   7.783   1.158  -0.516  0.4492 -0.3536  0.1705
 1014MOL0     H36853   7.701   1.231  -0.652 -0.5979  2.5794  0.0944
 1014MOL0     H36854   7.422   0.652  -0.680 -0.1999 -0.2901  3.1088
 1014MOL0     H36855   7.505   0.448  -0.803  1.9258 -1.5394 -1.3290
 1014MOL0     H36856   7.820   0.539  -1.002  0.4087  0.5891 -0.3039
 1014MOL0     H36857   7.952   0.432  -0.912 -0.5710 -1.5653  0.2860
 1014MOL0     H36858   7.907   0.395  -1.160 -4.1107  0.3131 -3.0546
 1014MOL0     H36859   7.941   0.266  -1.047  1.2689  0.7532  1.0768
 1014MOL0     H36860   7.679   0.224  -1.017 -3.2633 -2.0543 -2.7220
 1014MOL0     H36861   7.729   0.222  -1.184 -2.0513  0.2103  0.6128
 1014MOL0     H36862   7.596   0.467  -1.053  0.4939  0.4667 -1.5917
 1014MOL0     H36863   7.647   0.447  -1.221 -1.0489  0.6705 -0.4189
 1014MOL0     H36864   7.392   0.415  -1.158 -2.3441 -2.4159 -1.7920
 1014MOL0     H36865   7.435   0.258  -1.111 -0.2844  0.7542  0.3820
 1014MOL0     H36866   7.507   0.387  -1.371  1.4164  1.6502  0.4234
 1014MOL0     H36867   7.539   0.212  -1.327 -0.0486 -0.1060 -1.0263
 1014MOL0     H36868   7.349   0.209  -1.453  2.4391 -1.2729  1.3098
 1014MOL0     H36869   7.287   0.359  -1.386 -0.2816  0.3974 -0.0914
 1014MOL0     H36870   7.152   0.142  -1.342 -0.5236  2.0529  0.0098
 1014MOL0     H36871   7.215   0.222  -1.193  1.2382 -1.2402  0.7507
 1014MOL0     H36872   7.913   0.594  -0.726  0.3950  0.5175  0.6837
 1014MOL0     H36873   7.829   0.770  -0.599  2.9084 -2.4090 -0.6715
 1014MOL0     H36874   7.376   0.914  -0.414  0.6515 -0.6413 -2.6475
 1014MOL0     H36875   7.274   1.075  -0.266  2.1798  0.3090  0.8179
 1014MOL0     H36876   5.533   2.357  -0.192  1.5173  0.7336 -0.3323
 1014MOL0     H36877   5.387   2.563  -0.182  0.2393  2.2052 -0.4849
 1014MOL0     H36878   5.220   2.832  -0.109  2.4185  0.0733  0.5887
 1014MOL0     H36879   5.024   2.982  -0.130 -0.0022 -0.0776  0.1820
 1014MOL0     H36880   4.858   3.160  -0.119 -5.2142  0.4167 -0.0036
 1014MOL0     H36881   4.821   3.032   0.006 -0.7468  0.4416 -0.7214
 1014MOL0     H36882   4.765   3.331   0.011  2.0939 -0.4263  1.1107
 1014MOL0     H36883   4.709   3.227   0.130  0.6417  1.8038 -0.3889
 1014MOL0     H36884   4.545   3.113  -0.015  1.3774 -1.4311 -0.8536
 1014MOL0     H36885   4.613   3.189  -0.161 -1.8770  0.6277 -1.1853
 1014MOL0     H36886   4.568   3.418  -0.059 -0.3205 -1.1396 -0.5468
 1014MOL0     H36887   4.491   3.330   0.075  1.0436  0.6800  1.0535
 1014MOL0     H36888   4.212   3.388  -0.234 -1.9140  0.6298  2.8735
 1014MOL0     H36889   5.158   3.192   0.224  1.4212 -0.7762  1.9155
 1014MOL0     H36890   5.352   3.037   0.244  0.5562 -2.8414 -0.1566
 1015MOL0     O36891  11.074  10.134   7.379 -1.1170 -0.0607  0.8518
 1015MOL0     C36892  11.125  10.114   7.493 -0.1294  0.1510  1.4510
 1015MOL0     O36893  11.058  10.113   7.610  0.2128  0.6660 -0.3937
 1015MOL0     C36894  10.926  10.135   7.599  0.5982 -0.1508 -0.0226
 1015MOL0     C36895  10.844  10.025   7.602  0.0191  1.0208  0.3071
 1015MOL0     C36896  10.701  10.037   7.596 -0.3654 -0.5056 -0.1146
 1015MOL0     C36897  10.647  10.167   7.584 -0.7814 -0.3275 -0.0142
 1015MOL0     O36898  10.508  10.176   7.593 -0.7026  0.1852  0.9383
 1015MOL0     C36899  10.448  10.296   7.636 -0.3566  0.2622  0.4809
 1015MOL0     C36900  10.306  10.279   7.668 -0.0762  0.2301 -0.8494
 1015MOL0     C36901  10.204  10.299   7.554 -0.5647 -0.0256 -0.2258
 1015MOL0     C36902  10.066  10.265   7.601  0.2877  0.2681  0.1701
 1015MOL0     C36903  10.035  10.121   7.585  0.0378  0.3572 -0.2991
 1015MOL0     C36904   9.890  10.095   7.627  0.2938 -0.7696  0.1158
 1015MOL0     C36905   9.878   9.939   7.647 -0.4041  0.3729  0.7513
 1015MOL0     C36906   9.743   9.904   7.711 -0.6803  0.2354  0.4177
 1015MOL0     N36907   9.627   9.916   7.618 -0.1868 -0.9403 -0.4092
 1015MOL0     C36908   9.585   9.832   7.523  0.0437 -0.0061  0.0031
 1015MOL0     C36909   9.470   9.893   7.480  0.2211  0.2234 -0.2877
 1015MOL0     C36910   9.364   9.844   7.375 -0.3769  0.3830 -0.6969
 1015MOL0     C36911   9.237   9.807   7.440 -0.1592 -0.7963 -0.8191
 1015MOL0     C36912   9.160   9.751   7.320 -0.2276  0.1935 -0.1281
 1015MOL0     C36913   9.015   9.697   7.343  0.2797 -0.0286  0.0098
 1015MOL0     O36914   9.014   9.598   7.448  0.7617 -0.5107  0.3301
 1015MOL0     C36915   8.887   9.525   7.447 -0.2489 -0.6949 -0.0196
 1015MOL0     C36916   8.770   9.586   7.486 -0.3466  0.8296  0.1372
 1015MOL0     C36917   8.648   9.521   7.492 -0.2727 -0.2945 -0.4094
 1015MOL0     C36918   8.524   9.601   7.514 -0.4953 -0.0070 -0.5069
 1015MOL0     C36919   8.642   9.385   7.455  0.6903 -0.2838 -0.9840
 1015MOL0     C36920   8.505   9.312   7.460 -0.8881 -0.5720  0.2214
 1015MOL0     O36921   8.465   9.265   7.344 -0.5317  0.5297  0.0667
 1015MOL0     C36922   8.345   9.195   7.342  0.4124 -0.2037  0.3467
 1015MOL0     C36923   8.303   9.100   7.432  0.2199  1.2719 -0.8357
 1015MOL0     C36924   8.168   9.066   7.443  0.1673 -0.2848  0.0709
 1015MOL0     C36925   8.075   9.105   7.348 -0.8346  0.7300  0.3676
 1015MOL0     O36926   7.939   9.073   7.356  0.5732  0.1584  0.3973
 1015MOL0     C36927   7.888   8.970   7.270  0.4288  0.1171  0.7250
 1015MOL0     C36928   7.736   8.981   7.267  0.1276  0.7921 -0.4994
 1015MOL0     C36929   7.682   8.878   7.168 -0.0524  0.1789 -0.1227
 1015MOL0     C36930   7.533   8.898   7.136 -0.1587  0.1815 -0.1678
 1015MOL0     C36931   7.471   8.789   7.053 -0.0455 -0.2984 -0.0836
 1015MOL0     C36932   7.317   8.783   7.082  0.5308 -0.2556 -0.2178
 1015MOL0     C36933   7.251   8.917   7.043  0.9853 -0.1126  0.4412
 1015MOL0     C36934   7.101   8.897   7.039  0.3394  0.2779 -0.2013
 1015MOL0    Cl36935   7.037   8.846   7.195 -0.1503  0.0646 -0.1358
 1015MOL0     C36936   8.123   9.177   7.234 -0.2020  0.2898 -0.1763
 1015MOL0     C36937   8.257   9.220   7.235  0.2667  0.0453 -0.1446
 1015MOL0     O36938   8.441   9.316   7.568 -0.0813 -0.7763 -0.0066
 1015MOL0     C36939   8.759   9.317   7.425 -0.5993  0.3050 -0.3634
 1015MOL0     C36940   8.887   9.389   7.420  0.0994 -0.4219 -0.7136
 1015MOL0     N36941   9.453  10.009   7.550  0.2496 -0.6179  0.3518
 1015MOL0     N36942   9.547  10.023   7.632 -0.1347 -0.2010  0.9498
 1015MOL0     C36943  10.730  10.280   7.571  0.5256 -0.7730  0.5024
 1015MOL0     C36944  10.865  10.260   7.581 -0.4687  0.5036 -2.0874
 1015MOL0     C36945  11.269  10.105   7.501  0.3173  0.5616  0.3060
 1015MOL0     C36946  11.330  10.121   7.621 -0.6833 -0.2554  0.3905
 1015MOL0     C36947  11.468  10.111   7.633 -0.1915 -0.8236  0.1620
 1015MOL0     C36948  11.551  10.089   7.526  0.8828  0.0180  0.6923
 1015MOL0     O36949  11.687  10.096   7.546  0.4461 -0.0083  0.3749
 1015MOL0     C36950  11.771  10.001   7.487 -0.4020  0.1965  0.1007
 1015MOL0     C36951  11.906  10.008   7.554 -0.4526 -0.5865  0.9715
 1015MOL0     C36952  11.987  10.123   7.520 -0.3736 -0.4490 -0.3959
 1015MOL0     C36953  12.070  10.103   7.386 -0.1542  0.0674  0.0436
 1015MOL0     C36954  12.209  10.062   7.413 -0.0534  0.1087  0.9422
 1015MOL0     C36955  12.322  10.026   7.450 -0.5686  0.2312  0.1388
 1015MOL0     C36956  11.486  10.036   7.407 -0.1318 -0.7144 -0.0699
 1015MOL0     C36957  11.345  10.062   7.398 -1.0343  0.3569  0.0551
 1015MOL0     H36958  10.888   9.926   7.611 -3.7954 -0.8257  0.7992
 1015MOL0     H36959  10.632   9.954   7.593  0.0946 -0.8603 -1.1078
 1015MOL0     H36960  10.508  10.313   7.725  3.2472 -0.1286 -1.6814
 1015MOL0     H36961  10.455  10.378   7.563 -1.7199  1.8016  1.9783
 1015MOL0     H36962  10.283  10.181   7.712 -0.6255  0.1591 -1.2872
 1015MOL0     H36963  10.283  10.354   7.744  1.5766 -0.5369  0.4870
 1015MOL0     H36964  10.198  10.402   7.518 -0.8937  0.5423  1.3823
 1015MOL0     H36965  10.228  10.242   7.464 -2.2135  1.6295 -1.8036
 1015MOL0     H36966  10.045  10.317   7.695  0.4807  1.1086 -0.2378
 1015MOL0     H36967   9.995  10.313   7.532  0.7431  3.4109  1.7157
 1015MOL0     H36968  10.062  10.089   7.483  2.1447 -2.2092  0.9255
 1015MOL0     H36969  10.096  10.057   7.649  0.2136  0.6331 -0.1860
 1015MOL0     H36970   9.868  10.152   7.718 -3.0086  2.1734 -2.2444
 1015MOL0     H36971   9.822  10.132   7.549  1.6471 -0.7905 -1.1250
 1015MOL0     H36972   9.882   9.898   7.546 -1.9232  2.5333 -0.2757
 1015MOL0     H36973   9.962   9.895   7.701  1.6170 -0.2656 -2.5904
 1015MOL0     H36974   9.740   9.966   7.801 -2.3049  1.9505 -0.7397
 1015MOL0     H36975   9.732   9.799   7.737 -1.9143 -0.0847 -1.2232
 1015MOL0     H36976   9.617   9.731   7.499 -2.5338 -0.7680 -0.5752
 1015MOL0     H36977   9.350   9.925   7.302  1.1733  1.3577  0.0242
 1015MOL0     H36978   9.400   9.761   7.314 -2.6254 -1.3231  0.1794
 1015MOL0     H36979   9.188   9.891   7.490  0.7320 -1.1392  0.6987
 1015MOL0     H36980   9.262   9.735   7.518  2.2813  1.8655  1.0355
 1015MOL0     H36981   9.220   9.666   7.286 -0.5570  0.4899 -1.5329
 1015MOL0     H36982   9.153   9.826   7.240  1.3175  0.6473  0.1380
 1015MOL0     H36983   8.974   9.658   7.249 -1.7214  1.0969  0.3507
 1015MOL0     H36984   8.959   9.785   7.376  3.0405  2.0166 -0.3801
 1015MOL0     H36985   8.785   9.694   7.489 -0.6521  0.9140 -0.9458
 1015MOL0     H36986   8.437   9.557   7.463  0.5175 -2.1038 -0.5385
 1015MOL0     H36987   8.507   9.596   7.622  2.9330 -2.5687  0.0942
 1015MOL0     H36988   8.549   9.703   7.485  1.5910 -0.2702  0.2712
 1015MOL0     H36989   8.375   9.066   7.506 -0.7591 -1.9028 -1.2012
 1015MOL0     H36990   8.135   8.995   7.518  0.4700 -0.4545  0.0478
 1015MOL0     H36991   7.938   8.982   7.173 -0.0219 -1.9381  0.1949
 1015MOL0     H36992   7.914   8.871   7.309 -1.2537  0.0021  1.6268
 1015MOL0     H36993   7.706   8.966   7.371  1.0853  1.1670 -0.1589
 1015MOL0     H36994   7.709   9.080   7.228 -0.2972  0.8192 -0.1446
 1015MOL0     H36995   7.698   8.775   7.202 -3.8870 -0.7317 -0.5882
 1015MOL0     H36996   7.732   8.881   7.071  1.1183  0.6538  0.4708
 1015MOL0     H36997   7.498   8.900   7.239 -1.8479 -1.1250 -0.6734
 1015MOL0     H36998   7.515   8.992   7.083 -1.0980  0.1270  0.0466
 1015MOL0     H36999   7.514   8.697   7.092  4.2546  1.6882  0.3912
 1015MOL0     H37000   7.489   8.802   6.946 -0.4156  0.2445 -0.0899
 1015MOL0     H37001   7.270   8.707   7.020 -0.3535 -0.6647  0.9053
 1015MOL0     H37002   7.313   8.763   7.190 -0.2108  2.5535  0.3525
 1015MOL0     H37003   7.282   8.957   6.945 -0.2227  1.3558  0.6119
 1015MOL0     H37004   7.273   8.996   7.116  2.4674  0.3751 -0.4880
 1015MOL0     H37005   7.075   8.828   6.958  1.3877  0.5256 -0.7802
 1015MOL0     H37006   7.062   8.997   7.019  0.4092  1.4988  4.5570
 1015MOL0     H37007   8.065   9.200   7.145  1.2589 -2.2298 -1.9214
 1015MOL0     H37008   8.281   9.282   7.150 -0.3842  0.0275 -0.3447
 1015MOL0     H37009   8.757   9.214   7.394 -1.2340  0.8055 -2.0949
 1015MOL0     H37010   8.974   9.330   7.390 -1.1311 -1.3725 -2.5998
 1015MOL0     H37011  10.691  10.380   7.552 -0.2429 -1.0385  0.6305
 1015MOL0     H37012  10.929  10.344   7.604 -0.4331  0.7639 -3.0798
 1015MOL0     H37013  11.277  10.152   7.711  0.9405 -0.3860  1.4250
 1015MOL0     H37014  11.520  10.122   7.727 -2.1088 -3.7383  1.7030
 1015MOL0     H37015  11.727   9.901   7.500  1.3220 -0.9355 -2.0960
 1015MOL0     H37016  11.780  10.007   7.378 -3.1822  2.7257 -0.1218
 1015MOL0     H37017  11.950   9.919   7.507 -0.5591  0.9963 -2.3462
 1015MOL0     H37018  11.894   9.992   7.662  1.3663 -2.6743  0.9347
 1015MOL0     H37019  12.064  10.110   7.598  0.2655  0.1625 -0.9144
 1015MOL0     H37020  11.932  10.217   7.521  0.2885 -0.0529  0.4283
 1015MOL0     H37021  12.075  10.199   7.336 -0.9402  0.7024  1.1327
 1015MOL0     H37022  12.015  10.023   7.335 -2.9546  0.0510  2.7293
 1015MOL0     H37023  12.423   9.998   7.474 -0.1699  2.5985  1.6530
 1015MOL0     H37024  11.534  10.010   7.313 -1.2918  0.2047 -0.9513
 1015MOL0     H37025  11.299  10.027   7.307 -0.9428 -0.4496  0.3114
 1016MOL0     O37026   5.639  10.828   6.171 -0.0955 -0.4128  0.3851
 1016MOL0     C37027   5.638  10.919   6.254 -0.2760  0.1919  0.1556
 1016MOL0     O37028   5.539  10.953   6.341  0.2968 -0.1355 -0.1212
 1016MOL0     C37029   5.428  10.870   6.348 -0.1129  0.3856  0.1127
 1016MOL0     C37030   5.298  10.915   6.328  0.3403 -0.8237  0.7307
 1016MOL0     C37031   5.190  10.828   6.332 -0.2690 -0.1552  0.4593
 1016MOL0     C37032   5.213  10.692   6.358  1.2154  0.4053  0.3431
 1016MOL0     O37033   5.107  10.600   6.373 -0.8532  0.4171 -0.1465
 1016MOL0     C37034   5.018  10.585   6.263  0.3884  0.1377  0.8842
 1016MOL0     C37035   5.055  10.474   6.156  0.2494  0.3480 -0.8337
 1016MOL0     C37036   5.031  10.327   6.193 -0.0154  0.2094 -0.8443
 1016MOL0     C37037   5.131  10.225   6.132 -0.3212 -0.6385  0.4523
 1016MOL0     C37038   5.277  10.253   6.172  0.0193  0.6142  0.0028
 1016MOL0     C37039   5.311  10.182   6.306  0.4298 -0.7225  0.2497
 1016MOL0     C37040   5.452  10.222   6.362  0.4795  0.6178  0.8671
 1016MOL0     C37041   5.560  10.143   6.294  0.4879 -0.3850  0.0691
 1016MOL0     N37042   5.687  10.185   6.351  0.1388  0.0221 -0.1809
 1016MOL0     C37043   5.755  10.303   6.307 -0.2007  0.0440 -0.0197
 1016MOL0     C37044   5.873  10.302   6.367  1.0701 -0.4742  0.0479
 1016MOL0     C37045   5.999  10.391   6.362 -0.2475 -0.4167 -0.1499
 1016MOL0     C37046   5.992  10.482   6.237  0.4078  0.1308 -0.4083
 1016MOL0     C37047   6.099  10.596   6.244  0.0217  0.1242  1.5789
 1016MOL0     C37048   6.121  10.643   6.101  0.7047 -0.0002 -0.4603
 1016MOL0     O37049   6.208  10.759   6.098 -0.9660  0.6014  0.4075
 1016MOL0     C37050   6.341  10.751   6.080 -0.3883 -0.0931  0.2849
 1016MOL0     C37051   6.412  10.870   6.068 -0.0604 -0.5943  0.1340
 1016MOL0     C37052   6.557  10.879   6.058  0.2680  0.5677 -0.5616
 1016MOL0     C37053   6.609  11.015   6.044  0.4639 -0.4926  0.1644
 1016MOL0     C37054   6.633  10.761   6.074 -1.1362 -0.0741 -0.6751
 1016MOL0     C37055   6.786  10.757   6.067 -0.0710 -0.3444 -0.8419
 1016MOL0     O37056   6.862  10.871   6.086 -0.0285 -0.4811  0.9299
 1016MOL0     C37057   6.997  10.881   6.078 -0.0156  0.6737 -0.0474
 1016MOL0     C37058   7.088  10.799   5.997  0.4677  0.3915 -0.0826
 1016MOL0     C37059   7.229  10.821   6.002  0.9460  0.0868 -0.7078
 1016MOL0     C37060   7.291  10.919   6.069 -0.1868 -0.0997 -0.4774
 1016MOL0     O37061   7.426  10.945   6.043 -0.0105  0.5419 -0.0490
 1016MOL0     C37062   7.481  11.058   6.109 -0.1253 -0.2694 -0.2379
 1016MOL0     C37063   7.637  11.071   6.098  0.5736  0.3028 -0.3628
 1016MOL0     C37064   7.707  10.933   6.121 -0.4155  0.1063 -0.5032
 1016MOL0     C37065   7.856  10.953   6.072 -0.5961  0.0904  0.5610
 1016MOL0     C37066   7.939  10.823   6.083 -0.7693 -0.3568  0.6206
 1016MOL0     C37067   8.082  10.840   6.030 -0.9372 -0.6150 -0.4616
 1016MOL0     C37068   8.106  10.792   5.883  0.2630 -0.8961 -0.6729
 1016MOL0     C37069   8.248  10.837   5.841 -0.3278 -0.3817  0.4590
 1016MOL0    Cl37070   8.216  11.005   5.786 -0.2224  0.0327  0.6454
 1016MOL0     C37071   7.201  11.005   6.149 -0.3075  0.6506  0.6449
 1016MOL0     C37072   7.061  10.983   6.150  0.7461  0.5213  0.2633
 1016MOL0     O37073   6.834  10.645   6.045 -0.1896  0.6484 -0.1144
 1016MOL0     C37074   6.552  10.643   6.085  0.1489  0.2669  0.3781
 1016MOL0     C37075   6.413  10.637   6.084 -0.0867  0.2651  0.0132
 1016MOL0     N37076   5.870  10.194   6.455  0.1173 -0.2838  0.5975
 1016MOL0     N37077   5.759  10.124   6.448 -0.4166  0.2314  0.4200
 1016MOL0     C37078   5.339  10.641   6.385  0.2689 -0.3100  0.0462
 1016MOL0     C37079   5.444  10.737   6.385 -0.1324  0.8071 -0.3128
 1016MOL0     C37080   5.770  10.993   6.280  0.5217 -0.1539 -0.2082
 1016MOL0     C37081   5.779  11.088   6.383 -0.5632  0.0326  0.0003
 1016MOL0     C37082   5.900  11.151   6.407 -0.5520 -0.1185 -0.5464
 1016MOL0     C37083   6.014  11.122   6.340 -0.6367  0.0706  0.0269
 1016MOL0     O37084   6.134  11.193   6.364  0.6252 -0.9282 -0.4131
 1016MOL0     C37085   6.245  11.161   6.276 -0.2674  0.3663 -0.4019
 1016MOL0     C37086   6.362  11.257   6.297  0.0674  0.3815  1.0101
 1016MOL0     C37087   6.390  11.265   6.444  0.0490  0.9409  0.1478
 1016MOL0     C37088   6.522  11.340   6.468  0.8557 -0.5913 -1.3009
 1016MOL0     C37089   6.639  11.280   6.411  0.6179 -0.5418  0.5021
 1016MOL0     C37090   6.733  11.230   6.363 -0.5046  0.2910 -0.1107
 1016MOL0     C37091   6.004  11.032   6.235  0.1184  0.2060  0.3384
 1016MOL0     C37092   5.881  10.971   6.208 -0.4522  0.1595 -0.4640
 1016MOL0     H37093   5.283  11.020   6.307  1.1305 -0.5366  1.5301
 1016MOL0     H37094   5.092  10.869   6.309 -0.7482 -0.5058  1.8104
 1016MOL0     H37095   4.923  10.560   6.310 -0.6415  2.2704  0.0568
 1016MOL0     H37096   4.997  10.676   6.205  1.7932  0.7828  1.3401
 1016MOL0     H37097   4.995  10.491   6.066  2.5316  0.0145 -2.5049
 1016MOL0     H37098   5.157  10.494   6.121  0.7208  1.4249  0.9752
 1016MOL0     H37099   5.026  10.310   6.301  0.9050 -0.6018 -0.9109
 1016MOL0     H37100   4.942  10.292   6.141 -0.1790 -1.5781  0.5630
 1016MOL0     H37101   5.101  10.126   6.167  1.7569 -1.3828  0.3031
 1016MOL0     H37102   5.122  10.226   6.023  0.1161  0.2957  0.4104
 1016MOL0     H37103   5.353  10.213   6.105  1.8783  2.9961  0.5482
 1016MOL0     H37104   5.298  10.360   6.173 -0.1845  0.6616 -0.6854
 1016MOL0     H37105   5.243  10.208   6.388  0.3827 -0.8901  0.2646
 1016MOL0     H37106   5.295  10.075   6.292 -0.7184 -0.7417  1.5247
 1016MOL0     H37107   5.470  10.323   6.324 -0.9888  0.1842 -1.1568
 1016MOL0     H37108   5.457  10.216   6.471 -0.4752  3.2388  1.1057
 1016MOL0     H37109   5.555  10.159   6.186 -0.8324  1.5763  0.3577
 1016MOL0     H37110   5.543  10.038   6.315 -0.6081 -0.7160 -2.1421
 1016MOL0     H37111   5.715  10.370   6.231 -0.1096 -0.0780 -0.1731
 1016MOL0     H37112   5.998  10.455   6.451 -1.0269  0.3421 -0.6860
 1016MOL0     H37113   6.081  10.319   6.361 -0.1723 -0.4228 -2.9834
 1016MOL0     H37114   5.893  10.522   6.219  0.3332 -0.0160 -0.3296
 1016MOL0     H37115   6.014  10.409   6.159  0.9998 -2.7224  2.2160
 1016MOL0     H37116   6.187  10.567   6.302 -2.5488 -2.5035  4.5104
 1016MOL0     H37117   6.050  10.681   6.293 -0.1601  1.6845 -1.0974
 1016MOL0     H37118   6.025  10.684   6.069  1.6118  1.2579 -1.6688
 1016MOL0     H37119   6.154  10.565   6.032  0.0259  0.0818 -0.8862
 1016MOL0     H37120   6.342  10.952   6.079  0.9736  0.1959  0.9843
 1016MOL0     H37121   6.666  11.044   5.956 -1.9530  2.9970 -0.4766
 1016MOL0     H37122   6.529  11.087   6.064 -1.0500 -1.0284 -3.2789
 1016MOL0     H37123   6.674  11.036   6.130 -0.7604  2.2958  0.5189
 1016MOL0     H37124   7.046  10.736   5.919  2.3093  2.5359 -2.9861
 1016MOL0     H37125   7.295  10.763   5.939  0.3417 -2.7495  1.0844
 1016MOL0     H37126   7.438  11.140   6.051  0.3113 -1.0706 -1.7554
 1016MOL0     H37127   7.451  11.066   6.214 -0.2806  1.9834 -0.4076
 1016MOL0     H37128   7.664  11.103   5.997  1.2777 -0.7499 -0.5185
 1016MOL0     H37129   7.680  11.149   6.162  1.3311 -2.4380  2.7444
 1016MOL0     H37130   7.656  10.855   6.065 -2.3486  0.7187  0.3364
 1016MOL0     H37131   7.697  10.908   6.227 -0.8257  1.2788 -0.2459
 1016MOL0     H37132   7.851  10.985   5.968 -0.1843  1.5957  0.9811
 1016MOL0     H37133   7.904  11.035   6.127 -2.7080  0.8074  1.4315
 1016MOL0     H37134   7.896  10.752   6.012  0.4451 -2.3243  1.7488
 1016MOL0     H37135   7.937  10.784   6.185 -1.8928  0.9467  1.1292
 1016MOL0     H37136   8.101  10.948   6.031 -2.0745 -0.3972 -0.4776
 1016MOL0     H37137   8.153  10.804   6.105  0.4379 -0.8607 -1.8376
 1016MOL0     H37138   8.030  10.839   5.820  0.1464  2.6241  1.8150
 1016MOL0     H37139   8.099  10.683   5.886 -0.4643 -0.8493 -0.6528
 1016MOL0     H37140   8.285  10.777   5.758 -1.1843 -1.5315  0.8670
 1016MOL0     H37141   8.321  10.816   5.920  0.5242 -0.2769 -0.2855
 1016MOL0     H37142   7.242  11.089   6.204  0.2602  1.5157 -1.0285
 1016MOL0     H37143   6.999  11.035   6.222 -0.2851  0.0775 -0.2826
 1016MOL0     H37144   6.598  10.547   6.107  1.6561  1.2748  1.8768
 1016MOL0     H37145   6.376  10.535   6.088 -1.2366  0.6029 -1.3302
 1016MOL0     H37146   5.376  10.540   6.398  0.5078 -0.4606 -1.6740
 1016MOL0     H37147   5.547  10.703   6.391  0.4972  2.3647 -1.6094
 1016MOL0     H37148   5.696  11.111   6.450 -0.2907  0.2030  0.2824
 1016MOL0     H37149   5.921  11.232   6.477 -1.4197 -0.7514  0.4802
 1016MOL0     H37150   6.276  11.058   6.294  2.1791  0.4489 -3.3367
 1016MOL0     H37151   6.224  11.180   6.170 -0.9959  4.7560  0.3327
 1016MOL0     H37152   6.327  11.354   6.260  0.5783  0.0361 -0.4341
 1016MOL0     H37153   6.447  11.232   6.234 -0.9769 -2.1349  0.4897
 1016MOL0     H37154   6.401  11.162   6.479  3.2864  0.7313 -1.1477
 1016MOL0     H37155   6.313  11.319   6.499  1.3624  1.1097  1.8820
 1016MOL0     H37156   6.550  11.341   6.574  2.4699 -0.7010 -1.6963
 1016MOL0     H37157   6.512  11.446   6.445  1.5213  0.1401  1.4212
 1016MOL0     H37158   6.814  11.167   6.331 -0.7115  0.4159 -0.9065
 1016MOL0     H37159   6.087  10.993   6.178 -1.4151  0.4073 -2.1950
 1016MOL0     H37160   5.863  10.896   6.132  1.4161  0.2688 -1.0768
 1017MOL0     O37161   2.139   8.407   7.960 -0.7277 -0.0185 -0.3015
 1017MOL0     C37162   2.142   8.533   7.943  0.3697  0.4532  0.7141
 1017MOL0     O37163   2.111   8.630   8.030  0.6615 -0.1474  0.4022
 1017MOL0     C37164   2.068   8.603   8.156 -0.3784 -0.5997 -0.2600
 1017MOL0     C37165   1.954   8.670   8.198 -0.8871  0.2632 -0.4131
 1017MOL0     C37166   1.912   8.665   8.334 -0.3569  0.4226  0.1722
 1017MOL0     C37167   1.993   8.611   8.437  0.5546 -0.2472 -0.3024
 1017MOL0     O37168   1.931   8.591   8.555 -0.3575 -0.2855  0.2992
 1017MOL0     C37169   2.005   8.515   8.658 -0.0264  0.3147  0.1891
 1017MOL0     C37170   1.917   8.492   8.775  0.8359  0.9029 -0.0703
 1017MOL0     C37171   1.803   8.389   8.730 -0.7151  0.5973  0.3765
 1017MOL0     C37172   1.680   8.381   8.820 -0.7886  0.7834 -0.6906
 1017MOL0     C37173   1.697   8.295   8.945 -0.2348 -0.4278 -0.0611
 1017MOL0     C37174   1.574   8.294   9.036  0.2938  0.0636 -0.4744
 1017MOL0     C37175   1.586   8.192   9.148 -0.2779  0.2697 -0.4246
 1017MOL0     C37176   1.447   8.174   9.209 -0.3067  0.6959  0.0666
 1017MOL0     N37177   1.446   8.072   9.322 -0.8302  0.0845  0.1259
 1017MOL0     C37178   1.444   7.928   9.305  0.4637 -0.2178 -0.3343
 1017MOL0     C37179   1.414   7.868   9.432 -0.7460 -0.1363 -0.0060
 1017MOL0     C37180   1.385   7.725   9.463 -0.8919 -0.4939  0.0134
 1017MOL0     C37181   1.246   7.682   9.421  0.1810 -0.8342  0.8087
 1017MOL0     C37182   1.225   7.531   9.462  0.2073 -0.3814 -0.1984
 1017MOL0     C37183   1.083   7.481   9.450  0.6672 -0.1075 -0.2319
 1017MOL0     O37184   1.013   7.584   9.517 -0.4477 -0.3870 -0.4166
 1017MOL0     C37185   0.876   7.599   9.506 -0.5406  0.0357 -0.0137
 1017MOL0     C37186   0.820   7.711   9.558 -0.8722  0.7126  0.9708
 1017MOL0     C37187   0.683   7.738   9.547  0.6118  0.3459  1.1299
 1017MOL0     C37188   0.640   7.877   9.596 -0.7757  0.4998 -0.2560
 1017MOL0     C37189   0.595   7.645   9.479 -0.4767  0.3104 -0.5912
 1017MOL0     C37190   0.449   7.665   9.464  0.8988 -0.7318 -0.5803
 1017MOL0     O37191   0.378   7.578   9.388 -0.0385 -0.5064 -0.0787
 1017MOL0     C37192   0.247   7.618   9.362 -0.0031  0.3935 -0.1318
 1017MOL0     C37193   0.137   7.571   9.438  0.4123  0.3184  0.1627
 1017MOL0     C37194   0.007   7.610   9.402  0.8176  0.1430 -0.5039
 1017MOL0     C37195  -0.014   7.699   9.291 -0.0098 -0.4645  0.1497
 1017MOL0     O37196  -0.131   7.727   9.226  0.2476  0.1610 -0.0700
 1017MOL0     C37197  -0.256   7.673   9.283 -0.9999  0.1240  0.5818
 1017MOL0     C37198  -0.363   7.683   9.174  0.3496  0.8895 -0.3854
 1017MOL0     C37199  -0.507   7.641   9.217  0.0485 -0.5308  0.6082
 1017MOL0     C37200  -0.508   7.492   9.247  0.8703 -0.6320  0.8591
 1017MOL0     C37201  -0.522   7.466   9.396  1.1877 -0.6491  0.3675
 1017MOL0     C37202  -0.554   7.318   9.406  0.2453  0.4147  0.6966
 1017MOL0     C37203  -0.575   7.276   9.561 -1.3024  0.2723  1.3698
 1017MOL0     C37204  -0.708   7.314   9.614 -0.2667  0.0259 -1.3431
 1017MOL0    Cl37205  -0.851   7.277   9.525  0.2304 -0.1469 -0.6177
 1017MOL0     C37206   0.094   7.745   9.212 -1.0474 -0.1472  0.3080
 1017MOL0     C37207   0.231   7.701   9.247  1.0360 -0.0243  0.5701
 1017MOL0     O37208   0.391   7.757   9.527  1.0681  0.1982 -0.2494
 1017MOL0     C37209   0.654   7.525   9.427  0.3483 -0.3323 -0.2571
 1017MOL0     C37210   0.793   7.508   9.433 -0.2116  0.3902 -0.6996
 1017MOL0     N37211   1.420   7.975   9.515 -0.5167  0.0940 -0.9866
 1017MOL0     N37212   1.444   8.092   9.451  0.0719 -0.1862  0.2274
 1017MOL0     C37213   2.114   8.547   8.402  0.0603 -0.6496 -0.5496
 1017MOL0     C37214   2.147   8.547   8.260 -0.8835  0.1773 -0.4904
 1017MOL0     C37215   2.181   8.561   7.800 -0.4324  0.1294 -0.7818
 1017MOL0     C37216   2.130   8.665   7.730  0.4805  0.0554  0.1014
 1017MOL0     C37217   2.162   8.695   7.595 -0.0773  0.2224 -0.6210
 1017MOL0     C37218   2.257   8.621   7.533 -1.1294 -1.1177 -0.3336
 1017MOL0     O37219   2.296   8.654   7.406 -0.0281  0.4127  0.6473
 1017MOL0     C37220   2.302   8.541   7.320  1.0359  0.2420  0.6640
 1017MOL0     C37221   2.299   8.593   7.176 -1.2675  0.2211 -0.4055
 1017MOL0     C37222   2.445   8.636   7.156 -1.0287  0.0969  0.0324
 1017MOL0     C37223   2.489   8.669   7.009 -0.9393 -0.3473  0.3554
 1017MOL0     C37224   2.634   8.699   6.989  0.4056  0.6701  0.4790
 1017MOL0     C37225   2.753   8.713   6.972  0.4178 -0.1366 -0.4588
 1017MOL0     C37226   2.320   8.524   7.603  0.6251  0.1356  0.3529
 1017MOL0     C37227   2.275   8.480   7.725 -0.0356  0.0391 -0.1151
 1017MOL0     H37228   1.892   8.712   8.120 -1.1938  3.4546  1.3598
 1017MOL0     H37229   1.822   8.718   8.364  0.1606  2.6743 -1.8877
 1017MOL0     H37230   2.037   8.420   8.614  2.2029  0.6644  0.9154
 1017MOL0     H37231   2.099   8.562   8.689 -0.0045 -0.8153  1.9544
 1017MOL0     H37232   1.980   8.444   8.851  0.0655 -1.8423 -1.0701
 1017MOL0     H37233   1.875   8.588   8.807 -1.4567  0.2360 -0.9078
 1017MOL0     H37234   1.762   8.416   8.632 -0.1951 -0.1763 -0.0672
 1017MOL0     H37235   1.846   8.289   8.716 -4.3682 -1.1139  0.3686
 1017MOL0     H37236   1.663   8.485   8.851 -2.6652  0.6812 -1.2216
 1017MOL0     H37237   1.590   8.349   8.766 -0.6851 -0.8567  0.0712
 1017MOL0     H37238   1.712   8.192   8.914 -0.4097 -0.6471  0.5638
 1017MOL0     H37239   1.791   8.326   8.992  0.1045 -0.2415 -0.8562
 1017MOL0     H37240   1.552   8.390   9.083 -2.7220 -1.2205  1.0423
 1017MOL0     H37241   1.486   8.268   8.976 -0.7914  1.0585  0.6439
 1017MOL0     H37242   1.616   8.096   9.106 -1.2481 -0.2752  0.0818
 1017MOL0     H37243   1.655   8.226   9.226 -2.2663 -0.3074  1.7044
 1017MOL0     H37244   1.366   8.149   9.140 -0.4040  1.2182 -0.0115
 1017MOL0     H37245   1.411   8.271   9.243 -0.5059  1.5199 -2.2903
 1017MOL0     H37246   1.445   7.867   9.216  0.7639  2.5237 -2.3424
 1017MOL0     H37247   1.464   7.665   9.416  2.3084  0.7709  3.2923
 1017MOL0     H37248   1.400   7.712   9.570 -0.3124  1.7683  0.2543
 1017MOL0     H37249   1.222   7.703   9.316 -0.8146  1.0902  1.3598
 1017MOL0     H37250   1.179   7.749   9.475  1.7656  1.6261 -0.0802
 1017MOL0     H37251   1.259   7.520   9.565 -4.2863  1.2585  1.6727
 1017MOL0     H37252   1.280   7.469   9.390 -0.2121  0.1686 -1.0120
 1017MOL0     H37253   1.048   7.394   9.507  0.8831 -0.9533 -1.3515
 1017MOL0     H37254   1.049   7.470   9.346 -0.6370  3.2189 -0.2897
 1017MOL0     H37255   0.881   7.773   9.624  1.0801 -2.3206  2.2201
 1017MOL0     H37256   0.725   7.923   9.647 -0.3967 -1.4174  0.9611
 1017MOL0     H37257   0.599   7.942   9.518 -0.1646 -1.4788 -2.3545
 1017MOL0     H37258   0.562   7.857   9.670  1.6795  0.0716  2.4087
 1017MOL0     H37259   0.161   7.505   9.520  2.7161 -1.2567 -1.6590
 1017MOL0     H37260  -0.068   7.564   9.466  1.6875  0.4737  0.7911
 1017MOL0     H37261  -0.231   7.570   9.312 -0.0657  0.3365  0.5659
 1017MOL0     H37262  -0.283   7.734   9.369 -1.7867  2.2375 -1.0892
 1017MOL0     H37263  -0.365   7.791   9.157 -0.7332  0.8083 -0.8441
 1017MOL0     H37264  -0.325   7.624   9.089 -1.9185 -1.3280  0.0106
 1017MOL0     H37265  -0.581   7.668   9.140  0.8164  2.6857  0.8683
 1017MOL0     H37266  -0.536   7.706   9.300 -0.4086 -0.1503  0.1572
 1017MOL0     H37267  -0.592   7.446   9.195  1.4080  1.3763 -2.0459
 1017MOL0     H37268  -0.416   7.445   9.212  0.2897 -4.2055  3.5550
 1017MOL0     H37269  -0.612   7.521   9.425  1.7717  0.9437 -0.7154
 1017MOL0     H37270  -0.434   7.492   9.456  0.8451  2.6418 -0.3657
 1017MOL0     H37271  -0.644   7.282   9.354 -0.4803 -1.8492  3.2435
 1017MOL0     H37272  -0.470   7.262   9.364 -2.6213 -2.3417 -1.9779
 1017MOL0     H37273  -0.490   7.320   9.613  0.3940  2.1036 -2.5339
 1017MOL0     H37274  -0.568   7.167   9.564 -2.6056  0.1432  0.6747
 1017MOL0     H37275  -0.720   7.422   9.614 -1.3671 -0.0824 -0.7080
 1017MOL0     H37276  -0.711   7.276   9.717  0.8894  2.2947 -0.4115
 1017MOL0     H37277   0.071   7.811   9.130 -2.1953  1.5707  1.9188
 1017MOL0     H37278   0.319   7.741   9.195  1.3151  0.2561  1.2460
 1017MOL0     H37279   0.597   7.451   9.371  0.6175  0.5110 -1.7016
 1017MOL0     H37280   0.844   7.425   9.386 -0.9725  0.4661 -1.7090
 1017MOL0     H37281   2.170   8.486   8.472 -0.7248  0.9672  1.6246
 1017MOL0     H37282   2.234   8.494   8.224  0.1069  3.0763 -2.8032
 1017MOL0     H37283   2.055   8.717   7.789  1.2144 -0.8174  1.8450
 1017MOL0     H37284   2.109   8.774   7.542  1.6805  1.1296 -1.0750
 1017MOL0     H37285   2.379   8.468   7.342  0.6772 -0.4069 -0.1995
 1017MOL0     H37286   2.210   8.484   7.338  1.9860 -2.2568 -1.7494
 1017MOL0     H37287   2.229   8.676   7.164 -1.3520  0.2394  0.1855
 1017MOL0     H37288   2.275   8.513   7.105  0.8022  1.8818 -3.2173
 1017MOL0     H37289   2.513   8.556   7.187 -1.8271  0.2742  2.4608
 1017MOL0     H37290   2.458   8.721   7.223 -2.4318 -0.1778  0.7047
 1017MOL0     H37291   2.433   8.752   6.963  1.0321  0.5126 -0.5891
 1017MOL0     H37292   2.464   8.578   6.953 -0.4496  0.4179 -1.1530
 1017MOL0     H37293   2.855   8.724   6.944  0.5891  0.8643  0.4914
 1017MOL0     H37294   2.404   8.471   7.559  1.0473  0.4681  0.7478
 1017MOL0     H37295   2.321   8.391   7.767  0.6647 -0.6525 -2.2056
 1018MOL0     O37296   0.271   2.853   4.851  0.0771 -0.3205  0.2531
 1018MOL0     C37297   0.280   2.834   4.732 -0.4610  0.0593 -0.7539
 1018MOL0     O37298   0.171   2.820   4.654  0.0811  0.4257 -0.3467
 1018MOL0     C37299   0.041   2.846   4.698  0.4890  0.5385  0.2114
 1018MOL0     C37300  -0.050   2.743   4.720 -0.3065 -0.0440 -0.4505
 1018MOL0     C37301  -0.179   2.775   4.766 -0.6422  0.0313 -0.0437
 1018MOL0     C37302  -0.225   2.906   4.783 -0.2986  0.7685 -0.4063
 1018MOL0     O37303  -0.358   2.916   4.806  0.0174 -0.2360  0.3005
 1018MOL0     C37304  -0.399   3.044   4.847  0.0178  0.1284  0.5036
 1018MOL0     C37305  -0.533   3.019   4.922  0.3823  0.7328 -0.8886
 1018MOL0     C37306  -0.647   2.956   4.830  0.1519 -0.5669  0.2733
 1018MOL0     C37307  -0.756   2.886   4.913 -0.4026  0.1274  0.3157
 1018MOL0     C37308  -0.876   2.828   4.824 -1.0143 -0.1076 -0.0084
 1018MOL0     C37309  -0.957   2.925   4.724 -1.1741 -0.5299  0.5750
 1018MOL0     C37310  -1.025   3.045   4.791  0.9864  1.5537 -0.3396
 1018MOL0     C37311  -1.111   2.993   4.910 -0.0826 -0.6895  0.0702
 1018MOL0     N37312  -1.207   2.893   4.864 -0.4820  0.2197 -0.0477
 1018MOL0     C37313  -1.319   2.909   4.783 -0.5448  0.0888 -0.6212
 1018MOL0     C37314  -1.384   2.790   4.797 -0.3923 -0.5809  0.5511
 1018MOL0     C37315  -1.499   2.749   4.721  0.7127 -0.0669 -0.2354
 1018MOL0     C37316  -1.475   2.645   4.611 -0.6022 -0.5458  0.5133
 1018MOL0     C37317  -1.554   2.648   4.479  0.5096 -0.9152 -0.0148
 1018MOL0     C37318  -1.698   2.619   4.514  0.5167 -0.1957  0.7703
 1018MOL0     O37319  -1.733   2.519   4.418  0.6639  0.3693 -0.4065
 1018MOL0     C37320  -1.857   2.456   4.448 -0.5337 -0.0922 -0.0562
 1018MOL0     C37321  -1.858   2.326   4.407  0.0850 -0.2739  0.6477
 1018MOL0     C37322  -1.972   2.238   4.429  0.4317 -0.1623 -0.1548
 1018MOL0     C37323  -1.958   2.097   4.367  0.8069  0.6824  0.9709
 1018MOL0     C37324  -2.090   2.287   4.499  0.2665 -0.6800  0.4074
 1018MOL0     C37325  -2.212   2.210   4.531 -0.0286 -0.1019  0.3413
 1018MOL0     O37326  -2.305   2.275   4.593 -0.1704  0.3345 -0.0716
 1018MOL0     C37327  -2.440   2.231   4.595 -0.7669 -0.5614  1.4832
 1018MOL0     C37328  -2.548   2.318   4.550 -0.4100  0.1766 -0.5023
 1018MOL0     C37329  -2.677   2.283   4.578  0.4637  0.5373 -0.5326
 1018MOL0     C37330  -2.710   2.172   4.666 -1.2718  0.4210  0.3416
 1018MOL0     O37331  -2.841   2.152   4.703 -0.2806  0.6084  0.0579
 1018MOL0     C37332  -2.922   2.264   4.751  0.4408 -0.3237  0.3271
 1018MOL0     C37333  -2.998   2.231   4.884  0.1760  0.1751  0.7990
 1018MOL0     C37334  -3.103   2.131   4.846  0.2776 -0.5888 -1.0485
 1018MOL0     C37335  -3.207   2.121   4.962  0.1259 -0.7287  0.2618
 1018MOL0     C37336  -3.319   2.032   4.925  0.3833  0.2966  0.0664
 1018MOL0     C37337  -3.279   1.884   4.908  0.4543  0.3829 -0.4332
 1018MOL0     C37338  -3.401   1.809   4.860  0.2240 -0.8247  0.4108
 1018MOL0     C37339  -3.498   1.755   4.959 -0.2503  0.0967 -0.0885
 1018MOL0    Cl37340  -3.603   1.885   5.038 -0.1027 -0.4759 -0.1709
 1018MOL0     C37341  -2.603   2.081   4.701  0.4556 -0.3237  0.0549
 1018MOL0     C37342  -2.473   2.118   4.664 -1.1225  0.3385  0.8185
 1018MOL0     O37343  -2.217   2.092   4.499 -0.2125 -0.2212 -0.1776
 1018MOL0     C37344  -2.072   2.433   4.543 -0.1073  0.1355  0.8968
 1018MOL0     C37345  -1.963   2.508   4.514 -0.1121 -0.5421 -0.7272
 1018MOL0     N37346  -1.307   2.697   4.863 -0.6334  0.0545  0.4447
 1018MOL0     N37347  -1.204   2.763   4.916  0.5332 -0.0111  0.1913
 1018MOL0     C37348  -0.127   3.005   4.768 -0.0237 -0.6659  0.4217
 1018MOL0     C37349   0.003   2.975   4.730 -0.1027  0.2824  0.6909
 1018MOL0     C37350   0.410   2.787   4.688  0.3209 -0.0885  0.0805
 1018MOL0     C37351   0.526   2.823   4.757 -0.0688 -0.2974 -0.4788
 1018MOL0     C37352   0.653   2.784   4.707 -0.0657 -0.1524 -0.6137
 1018MOL0     C37353   0.666   2.733   4.581  0.2712  0.0681  0.3008
 1018MOL0     O37354   0.784   2.704   4.518 -0.0739 -0.1528 -0.1556
 1018MOL0     C37355   0.912   2.709   4.588 -0.2163  0.1307  0.6118
 1018MOL0     C37356   0.976   2.846   4.595 -0.8062 -0.8625 -0.6227
 1018MOL0     C37357   1.122   2.844   4.642  0.2310 -0.4086 -0.3053
 1018MOL0     C37358   1.197   2.967   4.595 -0.0825  0.2205  0.0412
 1018MOL0     C37359   1.339   2.966   4.643  0.5014 -0.5142 -0.4463
 1018MOL0     C37360   1.458   2.965   4.663  0.0316  0.2150 -0.1905
 1018MOL0     C37361   0.547   2.723   4.503 -0.1980 -0.1901  0.3435
 1018MOL0     C37362   0.422   2.742   4.563 -0.6799 -0.7091  0.3844
 1018MOL0     H37363  -0.011   2.642   4.704 -0.6396 -0.0213 -1.4489
 1018MOL0     H37364  -0.229   2.679   4.771 -0.6906  0.0822  3.9381
 1018MOL0     H37365  -0.335   3.098   4.917  0.3472 -0.5571  0.7382
 1018MOL0     H37366  -0.409   3.112   4.762  0.7633 -0.8816 -0.4189
 1018MOL0     H37367  -0.511   2.956   5.009 -1.4454  1.3695  0.0980
 1018MOL0     H37368  -0.567   3.116   4.958  1.7873  1.6535 -1.9482
 1018MOL0     H37369  -0.680   3.045   4.776 -0.1970 -1.6986 -1.4673
 1018MOL0     H37370  -0.594   2.886   4.764  3.8316  1.0171  1.2739
 1018MOL0     H37371  -0.705   2.809   4.973 -1.0888  0.6816  1.6671
 1018MOL0     H37372  -0.795   2.959   4.984 -0.6530 -0.5013  0.8412
 1018MOL0     H37373  -0.826   2.762   4.752  3.2831  0.8897  1.7383
 1018MOL0     H37374  -0.933   2.756   4.883  1.1446 -0.8331  1.2731
 1018MOL0     H37375  -0.886   2.966   4.651 -0.3220  0.1926  1.7633
 1018MOL0     H37376  -1.012   2.854   4.663  2.5409 -1.3843 -2.1353
 1018MOL0     H37377  -0.959   3.119   4.835  2.1675  1.2621 -1.5572
 1018MOL0     H37378  -1.085   3.099   4.717 -1.4605  0.3995  0.6531
 1018MOL0     H37379  -1.166   3.077   4.954 -2.9036 -0.7879 -2.8652
 1018MOL0     H37380  -1.054   2.957   4.996  0.3991 -0.5136 -0.1695
 1018MOL0     H37381  -1.339   2.997   4.722  0.8737  0.5512 -0.4397
 1018MOL0     H37382  -1.571   2.718   4.797  1.5548  1.1423  1.0951
 1018MOL0     H37383  -1.539   2.837   4.670 -0.5220  1.0510  2.5039
 1018MOL0     H37384  -1.471   2.545   4.654 -0.8755  0.1993  2.3528
 1018MOL0     H37385  -1.374   2.648   4.570 -1.4819 -3.0848 -2.2442
 1018MOL0     H37386  -1.518   2.564   4.419 -1.3770 -0.5702 -1.7447
 1018MOL0     H37387  -1.534   2.738   4.420  0.1835 -0.9384 -0.1669
 1018MOL0     H37388  -1.756   2.712   4.511  0.5479 -0.1765  0.7623
 1018MOL0     H37389  -1.706   2.566   4.609  2.7040 -1.4871  0.3067
 1018MOL0     H37390  -1.777   2.286   4.348 -3.3610  1.2966 -6.1698
 1018MOL0     H37391  -2.035   2.079   4.291  0.8350  0.1180  1.0691
 1018MOL0     H37392  -1.867   2.080   4.309 -1.0358 -1.4526 -1.5725
 1018MOL0     H37393  -1.961   2.013   4.437  3.3793 -0.9440 -0.6791
 1018MOL0     H37394  -2.516   2.396   4.481  0.1238 -0.9356 -1.5469
 1018MOL0     H37395  -2.749   2.358   4.548  2.3060  3.6444  2.1165
 1018MOL0     H37396  -2.852   2.347   4.766  1.3418 -0.4332 -2.6747
 1018MOL0     H37397  -2.999   2.287   4.676 -2.1685 -4.9983  1.1830
 1018MOL0     H37398  -2.930   2.183   4.955  0.1848 -2.1436 -0.6771
 1018MOL0     H37399  -3.045   2.318   4.930 -1.2227 -0.5898  0.8701
 1018MOL0     H37400  -3.058   2.033   4.828 -0.2699 -1.1585  0.4917
 1018MOL0     H37401  -3.155   2.164   4.756 -1.1376  1.2732  0.3642
 1018MOL0     H37402  -3.157   2.082   5.051  0.8120 -0.2589  0.0849
 1018MOL0     H37403  -3.239   2.219   5.000 -2.0814 -1.3311  0.0795
 1018MOL0     H37404  -3.372   2.069   4.837 -2.1570  1.1584  1.8048
 1018MOL0     H37405  -3.382   2.041   5.014  0.9322 -2.3312  0.8069
 1018MOL0     H37406  -3.202   1.875   4.831  1.7586  1.6379  0.6519
 1018MOL0     H37407  -3.231   1.841   4.997  1.0756  1.0640 -0.4288
 1018MOL0     H37408  -3.363   1.720   4.809  2.3429 -0.9339  2.0810
 1018MOL0     H37409  -3.456   1.873   4.790 -2.6373 -1.7146  1.6818
 1018MOL0     H37410  -3.440   1.722   5.046 -2.4511  1.1018  1.8536
 1018MOL0     H37411  -3.565   1.683   4.913 -1.8736  1.4896 -0.0267
 1018MOL0     H37412  -2.622   1.995   4.764  2.4154 -0.6201  0.3114
 1018MOL0     H37413  -2.399   2.045   4.696  2.4938  2.8380 -1.1538
 1018MOL0     H37414  -2.156   2.486   4.587  0.8754  1.4435  1.2570
 1018MOL0     H37415  -1.966   2.614   4.539 -1.0021 -1.0886  1.7388
 1018MOL0     H37416  -0.162   3.107   4.769 -1.1933 -1.0347 -0.2847
 1018MOL0     H37417   0.075   3.056   4.724  0.1174  0.1164  1.0792
 1018MOL0     H37418   0.523   2.858   4.860  2.9721 -0.3996 -0.2567
 1018MOL0     H37419   0.740   2.804   4.769  0.9614 -2.2861 -1.2686
 1018MOL0     H37420   0.902   2.664   4.687  1.1106  1.5726  1.4401
 1018MOL0     H37421   0.977   2.644   4.527 -2.2639 -0.6629 -0.8575
 1018MOL0     H37422   0.914   2.907   4.661 -0.2663 -0.3291 -0.5968
 1018MOL0     H37423   0.977   2.889   4.495  1.1290 -0.1421 -0.3378
 1018MOL0     H37424   1.180   2.757   4.610 -1.1110 -1.6579  0.5429
 1018MOL0     H37425   1.124   2.834   4.751 -2.2179 -1.8913 -0.3157
 1018MOL0     H37426   1.143   3.058   4.624 -0.2788 -0.1751  0.9671
 1018MOL0     H37427   1.198   2.963   4.486 -1.4783 -0.7344  0.0310
 1018MOL0     H37428   1.565   2.962   4.666  0.1338  2.3273 -0.7269
 1018MOL0     H37429   0.558   2.680   4.404  1.3990  2.5514 -0.7803
 1018MOL0     H37430   0.337   2.734   4.496  0.0210 -2.4798 -0.3574
 1019MOL0     O37431   3.153   3.404   8.254 -0.3494 -0.4601 -1.1528
 1019MOL0     C37432   3.127   3.518   8.224  0.1333 -1.2767  0.3425
 1019MOL0     O37433   3.012   3.570   8.200 -0.0925 -0.1348  0.5204
 1019MOL0     C37434   2.895   3.505   8.195 -0.0607  0.4372 -0.0955
 1019MOL0     C37435   2.809   3.506   8.081 -0.3052  0.6740  0.1394
 1019MOL0     C37436   2.688   3.435   8.085 -0.4275  0.0895  0.2866
 1019MOL0     C37437   2.649   3.357   8.198  1.1044 -0.2817  0.3667
 1019MOL0     O37438   2.525   3.305   8.190  0.4857 -0.2749  0.3719
 1019MOL0     C37439   2.453   3.263   8.310 -0.8227 -0.2596  0.3341
 1019MOL0     C37440   2.303   3.281   8.280  0.2136 -0.6696 -0.1750
 1019MOL0     C37441   2.257   3.199   8.162 -0.3130 -0.6393  0.1904
 1019MOL0     C37442   2.251   3.049   8.183 -0.3411 -0.2361 -0.7524
 1019MOL0     C37443   2.132   2.983   8.107  1.0837  0.8020 -0.0396
 1019MOL0     C37444   2.102   2.845   8.161  0.1995 -0.3769 -0.0205
 1019MOL0     C37445   1.981   2.785   8.089  0.9861  0.3025 -0.6593
 1019MOL0     C37446   1.840   2.861   8.102 -0.8271  0.0096 -0.0109
 1019MOL0     N37447   1.736   2.764   8.088  0.7580  0.0661 -1.0592
 1019MOL0     C37448   1.723   2.670   7.988  0.1592  0.5199 -0.3506
 1019MOL0     C37449   1.602   2.618   8.004  0.6174  0.5568 -0.3156
 1019MOL0     C37450   1.539   2.512   7.921 -0.4336 -0.4825  0.2232
 1019MOL0     C37451   1.469   2.585   7.803 -0.2250  0.1081 -0.0125
 1019MOL0     C37452   1.386   2.705   7.845  0.0894 -0.5352  0.6314
 1019MOL0     C37453   1.293   2.754   7.737 -0.3824  0.6940  0.9951
 1019MOL0     O37454   1.227   2.880   7.756  1.0229 -0.6901 -0.1962
 1019MOL0     C37455   1.113   2.891   7.829  0.0116 -0.1454 -0.4313
 1019MOL0     C37456   1.045   3.015   7.844 -0.4608 -0.1499 -0.4995
 1019MOL0     C37457   0.929   3.043   7.923 -0.3669 -0.3213 -0.4762
 1019MOL0     C37458   0.855   3.180   7.917 -0.4157  0.6510 -0.5715
 1019MOL0     C37459   0.885   2.938   8.008  0.3998  0.3991  0.0317
 1019MOL0     C37460   0.770   2.949   8.094  0.3179 -0.3544 -0.0032
 1019MOL0     O37461   0.748   3.064   8.166 -0.1658  0.2980  0.5859
 1019MOL0     C37462   0.627   3.092   8.234 -0.4716  0.1063 -0.3610
 1019MOL0     C37463   0.615   3.044   8.367  0.4997 -0.2255 -0.3198
 1019MOL0     C37464   0.492   3.074   8.437  0.6318  0.3477  0.0365
 1019MOL0     C37465   0.378   3.138   8.374  0.3299  0.8238  0.3426
 1019MOL0     O37466   0.277   3.167   8.452  0.6001 -0.2917  0.2821
 1019MOL0     C37467   0.161   3.240   8.404  0.0300  0.2620 -0.3383
 1019MOL0     C37468   0.066   3.281   8.521  0.4683  0.7967  0.3166
 1019MOL0     C37469  -0.080   3.272   8.490 -0.2913 -0.6275  0.2208
 1019MOL0     C37470  -0.135   3.133   8.466 -0.1008  0.5086  0.0045
 1019MOL0     C37471  -0.272   3.141   8.405 -0.8682  0.1059  0.5343
 1019MOL0     C37472  -0.353   3.005   8.413  0.3431 -0.6226 -0.0284
 1019MOL0     C37473  -0.463   2.979   8.312  0.0614  0.0215  0.4463
 1019MOL0     C37474  -0.513   2.838   8.303 -0.4360 -1.2181 -0.1575
 1019MOL0    Cl37475  -0.392   2.726   8.244  0.3946  0.1178 -0.0071
 1019MOL0     C37476   0.400   3.187   8.243  0.2715  0.3862  0.6106
 1019MOL0     C37477   0.522   3.164   8.176 -0.0305 -0.2818 -0.5620
 1019MOL0     O37478   0.693   2.858   8.097 -0.0252  0.1344 -0.4544
 1019MOL0     C37479   0.951   2.814   8.002 -0.1890  0.1990  0.9963
 1019MOL0     C37480   1.061   2.790   7.908 -0.6312 -0.8940  0.1182
 1019MOL0     N37481   1.533   2.677   8.108  0.3762 -0.1018 -0.0848
 1019MOL0     N37482   1.615   2.765   8.158  0.8451  0.5423 -0.2031
 1019MOL0     C37483   2.728   3.354   8.308  0.1669 -0.0123  0.0812
 1019MOL0     C37484   2.845   3.431   8.302  0.7680  0.0882 -0.4554
 1019MOL0     C37485   3.236   3.607   8.200 -0.1203  0.1720 -0.3012
 1019MOL0     C37486   3.208   3.739   8.160 -0.5642 -0.6502  0.0010
 1019MOL0     C37487   3.313   3.822   8.120  0.3941 -0.0207  0.2527
 1019MOL0     C37488   3.449   3.781   8.126  0.0300  0.3881  0.6626
 1019MOL0     O37489   3.540   3.869   8.067  0.4989 -0.0889 -0.4685
 1019MOL0     C37490   3.677   3.833   8.086 -0.5208 -0.0521  0.3317
 1019MOL0     C37491   3.760   3.936   8.007  0.4215  0.3876 -0.2331
 1019MOL0     C37492   3.704   3.950   7.862  0.2349  0.0058  0.3154
 1019MOL0     C37493   3.798   4.037   7.771 -0.3415 -0.2832 -0.1593
 1019MOL0     C37494   3.780   4.174   7.823  0.0446 -0.6474 -0.1836
 1019MOL0     C37495   3.764   4.292   7.845 -0.2049 -0.0762 -0.2340
 1019MOL0     C37496   3.472   3.649   8.166 -0.8688 -0.0490  0.7888
 1019MOL0     C37497   3.368   3.562   8.200 -0.2189  0.3571 -0.7974
 1019MOL0     H37498   2.833   3.560   7.991 -2.0035  1.2280 -0.0118
 1019MOL0     H37499   2.626   3.442   7.996 -0.7962 -1.7396  0.3581
 1019MOL0     H37500   2.494   3.172   8.355  2.6968 -0.1450 -2.1834
 1019MOL0     H37501   2.471   3.339   8.386  0.6775 -2.2142  2.0864
 1019MOL0     H37502   2.240   3.259   8.367 -0.7774 -1.1417 -0.9784
 1019MOL0     H37503   2.299   3.385   8.248  3.2065 -0.1708  0.7934
 1019MOL0     H37504   2.155   3.231   8.140  0.3873  0.8004 -1.1990
 1019MOL0     H37505   2.312   3.218   8.069 -0.2979  1.4650  0.5786
 1019MOL0     H37506   2.340   3.003   8.137 -0.9049 -1.0027 -1.0980
 1019MOL0     H37507   2.235   3.025   8.288  2.4174 -0.4705 -0.3115
 1019MOL0     H37508   2.040   3.041   8.115 -0.8542 -1.9466 -0.8856
 1019MOL0     H37509   2.170   2.971   8.005  0.5246  1.3132 -0.3219
 1019MOL0     H37510   2.195   2.788   8.150  0.8369  0.7399 -0.5969
 1019MOL0     H37511   2.064   2.857   8.263  0.2058  1.5926 -0.2123
 1019MOL0     H37512   2.005   2.764   7.985  1.3179  1.2576 -0.7866
 1019MOL0     H37513   1.960   2.695   8.147  0.3488  0.5446 -0.5031
 1019MOL0     H37514   1.831   2.934   8.021  0.5304 -0.8374 -0.9815
 1019MOL0     H37515   1.819   2.905   8.199  0.4169 -0.0927  0.3186
 1019MOL0     H37516   1.797   2.639   7.915 -1.4245  0.1791 -1.8694
 1019MOL0     H37517   1.615   2.441   7.886 -0.1168 -1.5998  2.9463
 1019MOL0     H37518   1.472   2.453   7.984 -1.6276 -1.3661 -1.7570
 1019MOL0     H37519   1.398   2.513   7.760  0.1244  0.3059 -0.9228
 1019MOL0     H37520   1.533   2.622   7.723 -1.2566 -1.0864 -1.4591
 1019MOL0     H37521   1.435   2.795   7.883  4.6595 -2.4601  0.0424
 1019MOL0     H37522   1.326   2.665   7.927 -0.9217 -1.8452 -0.7074
 1019MOL0     H37523   1.223   2.674   7.710  0.1703  0.8977 -1.2411
 1019MOL0     H37524   1.357   2.765   7.649  0.8688  0.6039  1.8545
 1019MOL0     H37525   1.089   3.093   7.782  0.4788 -0.5009 -0.2870
 1019MOL0     H37526   0.881   3.227   7.822  2.0539  1.1051  0.2466
 1019MOL0     H37527   0.748   3.160   7.925 -0.2092 -0.1451  0.4483
 1019MOL0     H37528   0.888   3.248   7.996 -0.2478 -0.4183  0.3061
 1019MOL0     H37529   0.686   2.986   8.426  0.8677  0.7396  0.2031
 1019MOL0     H37530   0.479   3.049   8.542  1.0685  0.8833  0.2247
 1019MOL0     H37531   0.203   3.333   8.363  2.0030 -1.1694 -1.7848
 1019MOL0     H37532   0.103   3.170   8.343 -2.2052 -1.5110  3.4691
 1019MOL0     H37533   0.100   3.214   8.601  0.7436 -1.4487 -1.5708
 1019MOL0     H37534   0.087   3.384   8.551 -2.2667  1.0424  1.7673
 1019MOL0     H37535  -0.100   3.330   8.400  0.1517 -0.7458  0.0412
 1019MOL0     H37536  -0.128   3.320   8.575 -1.5048 -2.3329  0.5625
 1019MOL0     H37537  -0.068   3.065   8.412  0.2037  0.2861  0.6581
 1019MOL0     H37538  -0.142   3.084   8.563 -0.3523 -0.3513 -0.4310
 1019MOL0     H37539  -0.263   3.171   8.300  0.7495  1.7887  1.1013
 1019MOL0     H37540  -0.317   3.223   8.462  1.4166  0.8104  1.4354
 1019MOL0     H37541  -0.275   2.929   8.410  1.4193  0.4826 -1.2690
 1019MOL0     H37542  -0.402   2.994   8.510 -0.1226 -0.1849 -0.2112
 1019MOL0     H37543  -0.430   3.008   8.211  0.3048 -0.9381  0.2458
 1019MOL0     H37544  -0.547   3.044   8.337 -1.2580 -1.6018  0.4288
 1019MOL0     H37545  -0.591   2.849   8.226  0.1481  1.7498 -0.4432
 1019MOL0     H37546  -0.544   2.813   8.405 -2.4254 -1.5166 -0.7922
 1019MOL0     H37547   0.319   3.245   8.200 -0.9030 -0.6846  1.3051
 1019MOL0     H37548   0.529   3.195   8.072 -3.2639  1.6104 -0.3518
 1019MOL0     H37549   0.940   2.729   8.069  2.0055 -0.6484  0.3458
 1019MOL0     H37550   1.106   2.691   7.911 -1.8009 -1.4276  0.7619
 1019MOL0     H37551   2.699   3.302   8.398 -0.8567  0.5488  0.0946
 1019MOL0     H37552   2.890   3.430   8.401 -3.4961 -1.8074  1.7333
 1019MOL0     H37553   3.108   3.781   8.153 -0.3796  0.0828  1.5273
 1019MOL0     H37554   3.279   3.921   8.094 -0.8233 -0.2106  1.0302
 1019MOL0     H37555   3.689   3.842   8.194  1.3202  2.4271  0.0132
 1019MOL0     H37556   3.701   3.732   8.052 -0.9427  0.6142 -2.1679
 1019MOL0     H37557   3.866   3.911   8.002 -0.3536 -3.3272 -3.0803
 1019MOL0     H37558   3.764   4.033   8.058  3.1476 -0.4725  1.3991
 1019MOL0     H37559   3.605   3.995   7.865  1.2542  2.8938 -2.7158
 1019MOL0     H37560   3.705   3.846   7.827  2.8116 -0.0975  0.4992
 1019MOL0     H37561   3.759   4.028   7.669  2.3056  0.8262 -1.3448
 1019MOL0     H37562   3.903   4.007   7.773 -0.9111 -2.3460  0.6787
 1019MOL0     H37563   3.734   4.394   7.855 -0.9362 -0.4466  1.7531
 1019MOL0     H37564   3.570   3.604   8.168  0.4078  2.5460  0.5447
 1019MOL0     H37565   3.397   3.461   8.228 -0.9955  0.8714  2.3222
 1020MOL0     O37566  10.642  10.072   2.105  0.0252 -0.3776  0.3671
 1020MOL0     C37567  10.611  10.111   2.221  0.3355  0.4258 -0.9530
 1020MOL0     O37568  10.483  10.103   2.274  0.3082  0.0028 -0.2492
 1020MOL0     C37569  10.391  10.041   2.190  0.2261  0.4330 -0.3912
 1020MOL0     C37570  10.311  10.107   2.098 -0.1417  0.2045  0.2881
 1020MOL0     C37571  10.213  10.041   2.025 -0.1759 -0.2578 -0.4810
 1020MOL0     C37572  10.190   9.907   2.057  1.5083  0.0942  0.6030
 1020MOL0     O37573  10.093   9.835   1.989 -0.0938  0.1259  0.2574
 1020MOL0     C37574   9.958   9.885   2.006  0.1982 -0.8276  0.4931
 1020MOL0     C37575   9.872   9.777   1.940  0.2634  0.4561  0.0181
 1020MOL0     C37576   9.874   9.644   2.008 -0.4596  0.1879  0.0299
 1020MOL0     C37577   9.851   9.646   2.161  0.1563  0.5242 -0.2051
 1020MOL0     C37578   9.736   9.728   2.217 -0.1158 -0.5673 -0.1884
 1020MOL0     C37579   9.605   9.694   2.155  0.2750  0.3390  0.6922
 1020MOL0     C37580   9.500   9.780   2.226  0.3369 -0.3576  0.0886
 1020MOL0     C37581   9.448   9.734   2.364  0.7642 -0.6772 -0.4833
 1020MOL0     N37582   9.349   9.630   2.336 -0.2746  0.1889  0.0187
 1020MOL0     C37583   9.215   9.651   2.292 -0.3204  0.4673  0.5028
 1020MOL0     C37584   9.167   9.525   2.267 -0.0952 -0.3473  0.1042
 1020MOL0     C37585   9.032   9.494   2.199  0.9257 -1.3272 -0.4091
 1020MOL0     C37586   8.917   9.498   2.301 -0.3368  0.0397  0.0399
 1020MOL0     C37587   8.785   9.499   2.226  1.4606 -0.2505 -0.1543
 1020MOL0     C37588   8.672   9.479   2.332 -0.1355 -0.4025  0.1860
 1020MOL0     O37589   8.537   9.504   2.262 -0.0814 -0.6296 -0.2776
 1020MOL0     C37590   8.418   9.478   2.337 -0.5568  0.2889  0.4055
 1020MOL0     C37591   8.301   9.528   2.282  0.1055  0.7985  0.1642
 1020MOL0     C37592   8.175   9.511   2.338 -0.5172  0.4062 -1.0273
 1020MOL0     C37593   8.053   9.555   2.254 -0.8598  0.5277 -0.9260
 1020MOL0     C37594   8.167   9.459   2.472 -0.2979  0.0915  0.7691
 1020MOL0     C37595   8.051   9.451   2.554 -0.6991  0.3802 -0.1022
 1020MOL0     O37596   8.092   9.444   2.684 -0.4288 -0.2230  0.1703
 1020MOL0     C37597   8.002   9.432   2.787 -0.1914  0.1680  0.0191
 1020MOL0     C37598   7.965   9.539   2.863  0.3937 -0.6808  0.2020
 1020MOL0     C37599   7.865   9.530   2.969 -0.0440 -0.5930  0.3475
 1020MOL0     C37600   7.803   9.410   2.990  0.4556 -0.4446  0.5348
 1020MOL0     O37601   7.700   9.415   3.075 -0.3625  0.1363 -0.4474
 1020MOL0     C37602   7.681   9.295   3.157 -0.1177  0.4962 -0.6958
 1020MOL0     C37603   7.591   9.318   3.282 -0.8099 -0.5901 -0.4527
 1020MOL0     C37604   7.453   9.382   3.232 -0.2066  0.0199  0.0901
 1020MOL0     C37605   7.388   9.443   3.349  0.7447 -0.3828  0.4753
 1020MOL0     C37606   7.234   9.483   3.317 -1.0376 -0.2763 -0.0883
 1020MOL0     C37607   7.179   9.572   3.434 -0.1939 -1.2128 -0.0932
 1020MOL0     C37608   7.041   9.646   3.403 -0.1320 -0.0424  0.6505
 1020MOL0     C37609   6.920   9.595   3.471 -0.7658  0.0135  0.6092
 1020MOL0    Cl37610   6.959   9.597   3.644  0.3875 -0.4826 -0.0598
 1020MOL0     C37611   7.836   9.303   2.914 -0.1623 -0.5989  0.0338
 1020MOL0     C37612   7.937   9.313   2.807  0.6017  1.6277  0.1326
 1020MOL0     O37613   7.935   9.470   2.513 -0.1872  0.0145  0.0023
 1020MOL0     C37614   8.285   9.406   2.522 -0.3338 -0.3291  0.9142
 1020MOL0     C37615   8.405   9.416   2.458  0.1287 -0.0631  0.2782
 1020MOL0     N37616   9.258   9.434   2.306 -0.8192  0.8963 -0.2410
 1020MOL0     N37617   9.363   9.494   2.351 -0.2142  0.0117  0.0928
 1020MOL0     C37618  10.273   9.843   2.147 -0.1917  0.1819 -0.6541
 1020MOL0     C37619  10.371   9.909   2.220 -0.0122  0.5458 -0.0137
 1020MOL0     C37620  10.706  10.192   2.297  0.0276 -0.1654  0.5104
 1020MOL0     C37621  10.844  10.197   2.252  0.3178 -0.6446  0.2916
 1020MOL0     C37622  10.934  10.269   2.327 -0.4197  0.5817  0.4762
 1020MOL0     C37623  10.907  10.353   2.431 -0.9108  0.7364  0.0665
 1020MOL0     O37624  11.007  10.410   2.501  0.6057  0.1416 -0.1649
 1020MOL0     C37625  10.982  10.498   2.616  0.2993  0.3437  0.7355
 1020MOL0     C37626  11.022  10.631   2.582 -0.5680  0.2570 -0.2435
 1020MOL0     C37627  10.951  10.696   2.474 -0.3658 -0.0545  0.1372
 1020MOL0     C37628  10.993  10.835   2.450 -0.0286  0.0832 -0.2992
 1020MOL0     C37629  10.902  10.904   2.359 -0.5164 -0.4085  0.8090
 1020MOL0     C37630  10.818  10.963   2.290 -0.5418  0.7922  0.1545
 1020MOL0     C37631  10.769  10.337   2.478 -0.6562  0.4890 -0.7688
 1020MOL0     C37632  10.669  10.264   2.414 -0.2518  1.0577  0.4882
 1020MOL0     H37633  10.334  10.212   2.085 -1.8469  0.4632 -0.9098
 1020MOL0     H37634  10.152  10.091   1.950 -1.7590 -0.7123  0.4367
 1020MOL0     H37635   9.938   9.918   2.108 -0.7952  0.5475 -0.1131
 1020MOL0     H37636   9.948   9.976   1.945 -1.1224  0.0061  1.8989
 1020MOL0     H37637   9.768   9.811   1.942  0.5145  1.2389  1.8510
 1020MOL0     H37638   9.893   9.775   1.832 -1.3237  0.1225 -0.3126
 1020MOL0     H37639   9.797   9.587   1.956 -1.1468  0.4728  0.7116
 1020MOL0     H37640   9.973   9.601   1.988  0.7023  2.9687 -0.6418
 1020MOL0     H37641   9.828   9.546   2.199 -0.6782 -0.1162 -2.2577
 1020MOL0     H37642   9.948   9.673   2.204  0.7337 -0.6985 -0.7113
 1020MOL0     H37643   9.741   9.718   2.326 -1.2861  0.6067  0.0022
 1020MOL0     H37644   9.745   9.836   2.201  0.0030 -0.2347  1.8384
 1020MOL0     H37645   9.612   9.710   2.047 -1.4210  0.1259  0.5290
 1020MOL0     H37646   9.577   9.590   2.173 -1.0707  0.4619 -0.5347
 1020MOL0     H37647   9.539   9.881   2.238  0.7391 -0.5976  0.8135
 1020MOL0     H37648   9.421   9.798   2.152  1.8337  1.2669 -1.2116
 1020MOL0     H37649   9.400   9.812   2.423  2.1261  0.6325 -1.0335
 1020MOL0     H37650   9.532   9.700   2.427  0.7788  0.4081  0.1071
 1020MOL0     H37651   9.174   9.751   2.285  4.0028  2.4631  0.3567
 1020MOL0     H37652   9.016   9.565   2.118  2.0876 -1.6343 -0.9251
 1020MOL0     H37653   9.051   9.394   2.159  1.8688 -1.6399  0.7684
 1020MOL0     H37654   8.931   9.584   2.367 -0.6606 -0.4816  0.7924
 1020MOL0     H37655   8.927   9.408   2.362  1.7013 -0.0747 -0.3724
 1020MOL0     H37656   8.784   9.408   2.165 -0.0513  0.6125 -1.5076
 1020MOL0     H37657   8.779   9.587   2.162  1.6165 -0.4435 -0.4373
 1020MOL0     H37658   8.690   9.547   2.415 -1.7448  1.0907 -0.6309
 1020MOL0     H37659   8.675   9.379   2.377  1.5410  0.2973  1.7514
 1020MOL0     H37660   8.319   9.574   2.186  1.3381  0.8934  0.4233
 1020MOL0     H37661   8.001   9.466   2.218 -2.1342  0.4148  1.0147
 1020MOL0     H37662   7.985   9.615   2.316  0.6050  1.8345 -0.5137
 1020MOL0     H37663   8.086   9.623   2.175  1.2073  2.7012  1.5972
 1020MOL0     H37664   7.996   9.635   2.823  0.8178 -1.9783 -2.8222
 1020MOL0     H37665   7.824   9.614   3.024 -2.5398 -1.7054  0.3281
 1020MOL0     H37666   7.629   9.215   3.103 -0.0712  0.0044 -0.0409
 1020MOL0     H37667   7.776   9.256   3.195 -0.7565 -0.9617 -0.5240
 1020MOL0     H37668   7.571   9.230   3.342 -0.5473  0.6741  1.5673
 1020MOL0     H37669   7.647   9.384   3.349  0.2521 -1.5954 -0.3223
 1020MOL0     H37670   7.388   9.297   3.212 -4.4725  2.1789  3.1686
 1020MOL0     H37671   7.463   9.450   3.146  0.1120  3.3958  2.5766
 1020MOL0     H37672   7.379   9.368   3.428 -0.0363 -1.5738 -0.6837
 1020MOL0     H37673   7.437   9.531   3.391 -0.3934  0.2973  0.4094
 1020MOL0     H37674   7.166   9.399   3.300 -1.6814  0.7354 -3.0494
 1020MOL0     H37675   7.241   9.530   3.219 -0.3919 -4.1349 -2.1071
 1020MOL0     H37676   7.177   9.514   3.527  0.5197 -0.7827  0.1940
 1020MOL0     H37677   7.240   9.660   3.455 -1.0296 -0.2212 -1.6642
 1020MOL0     H37678   7.016   9.641   3.297 -3.5646  0.2436  1.3138
 1020MOL0     H37679   7.064   9.750   3.426  1.6124 -0.0257 -0.9979
 1020MOL0     H37680   6.901   9.494   3.436  1.0020 -0.7309  1.6431
 1020MOL0     H37681   6.837   9.666   3.465  0.5686  1.6809  1.0034
 1020MOL0     H37682   7.781   9.210   2.924 -0.1959 -0.5069  0.8059
 1020MOL0     H37683   7.955   9.230   2.739 -0.6250 -0.3907  2.1595
 1020MOL0     H37684   8.289   9.360   2.620  1.9764 -0.1796  0.9323
 1020MOL0     H37685   8.491   9.370   2.505  0.1633 -2.1855 -1.6735
 1020MOL0     H37686  10.256   9.736   2.154  0.2278 -0.0514 -2.5568
 1020MOL0     H37687  10.439   9.848   2.280  0.8540  0.9180 -0.5977
 1020MOL0     H37688  10.876  10.146   2.162  0.0773 -0.3487  0.0358
 1020MOL0     H37689  11.030  10.274   2.278 -1.2313  0.4367 -1.2010
 1020MOL0     H37690  10.881  10.503   2.657 -0.9748 -0.7975 -2.0699
 1020MOL0     H37691  11.047  10.457   2.694  2.4828  0.1759 -1.0661
 1020MOL0     H37692  11.130  10.635   2.566 -0.7316 -1.5671 -2.1697
 1020MOL0     H37693  11.005  10.688   2.674  3.0664  1.0775  0.0752
 1020MOL0     H37694  10.845  10.698   2.504  0.1338  2.1969  2.0666
 1020MOL0     H37695  10.971  10.639   2.383  0.6948  1.4992 -0.6480
 1020MOL0     H37696  11.092  10.826   2.404  1.2545  1.1229  2.0509
 1020MOL0     H37697  11.003  10.893   2.543  1.2233 -2.3904  1.2413
 1020MOL0     H37698  10.750  11.013   2.225 -1.6516 -0.0287  0.6439
 1020MOL0     H37699  10.721  10.389   2.561  1.6415 -1.1631  1.7838
 1020MOL0     H37700  10.568  10.253   2.453  0.6949 -1.6798  2.5207
 1021MOL0     O37701  11.308  10.810   9.307 -0.1688 -0.0563  0.5514
 1021MOL0     C37702  11.398  10.899   9.306  0.0398  0.4263 -0.3913
 1021MOL0     O37703  11.440  10.977   9.409 -0.0486  0.2320  0.1053
 1021MOL0     C37704  11.371  10.978   9.519  0.0706  0.4140 -0.2787
 1021MOL0     C37705  11.347  11.110   9.566  0.0594  0.4525  0.0343
 1021MOL0     C37706  11.280  11.134   9.688 -0.7692 -0.2874  0.3269
 1021MOL0     C37707  11.243  11.024   9.766  0.6459  0.8176  0.5813
 1021MOL0     O37708  11.183  11.028   9.887 -0.3321  0.0641 -0.8554
 1021MOL0     C37709  11.278  11.093   9.992  0.4932  0.7020  0.0043
 1021MOL0     C37710  11.203  11.127  10.123 -0.3295 -0.1907 -0.6433
 1021MOL0     C37711  11.102  11.244  10.110 -0.2302  0.3376  0.2607
 1021MOL0     C37712  11.051  11.282  10.249  0.2152 -0.4994  0.0789
 1021MOL0     C37713  10.964  11.408  10.241 -0.1113  0.1718  0.2199
 1021MOL0     C37714  10.898  11.456  10.374  0.0706  0.5478 -0.6862
 1021MOL0     C37715  10.812  11.346  10.445  0.4402  0.0310 -0.4501
 1021MOL0     C37716  10.728  11.413  10.548 -0.3804 -0.1510  0.5143
 1021MOL0     N37717  10.620  11.511  10.504 -1.3009  0.3907 -0.3670
 1021MOL0     C37718  10.487  11.482  10.495  0.0716 -0.9834 -0.4589
 1021MOL0     C37719  10.425  11.601  10.481 -0.1956 -0.5906 -0.3628
 1021MOL0     C37720  10.284  11.629  10.437 -0.7538 -0.1192 -0.8386
 1021MOL0     C37721  10.203  11.514  10.384  0.1383 -0.1017 -0.2920
 1021MOL0     C37722  10.243  11.449  10.246  0.0289 -0.1200 -0.1689
 1021MOL0     C37723  10.179  11.315  10.207  0.5217  0.1785 -0.0056
 1021MOL0     O37724  10.055  11.343  10.129  0.1201  0.4527 -0.1159
 1021MOL0     C37725   9.977  11.230  10.097 -0.5096 -0.1774  0.1698
 1021MOL0     C37726   9.995  11.105  10.143 -0.1422  0.9190 -0.0922
 1021MOL0     C37727   9.908  10.994  10.089 -0.1815 -0.3620 -0.8458
 1021MOL0     C37728   9.927  10.853  10.152  0.6744 -0.4400  0.5363
 1021MOL0     C37729   9.804  11.020   9.998 -0.2267  0.2967  0.4536
 1021MOL0     C37730   9.703  10.909   9.959  0.5219  0.8603  0.8936
 1021MOL0     O37731   9.560  10.930   9.967 -0.1554  0.0969 -0.3281
 1021MOL0     C37732   9.469  10.825  10.004 -0.3074 -0.7921 -0.1267
 1021MOL0     C37733   9.337  10.857   9.995  0.3356  0.8644 -0.0173
 1021MOL0     C37734   9.235  10.755  10.024 -0.8093 -0.5829  0.3703
 1021MOL0     C37735   9.267  10.626  10.065 -0.3542  0.5051 -0.3288
 1021MOL0     O37736   9.174  10.526  10.073 -0.2607  0.5155  0.1874
 1021MOL0     C37737   9.199  10.411  10.148 -0.5700  0.3152  0.4821
 1021MOL0     C37738   9.077  10.317  10.128  0.4796  0.6715  0.1374
 1021MOL0     C37739   9.099  10.169  10.165  0.8114 -0.7234 -0.0098
 1021MOL0     C37740   8.995  10.072  10.108  0.2840  0.4942  0.3010
 1021MOL0     C37741   9.034   9.923  10.132  0.2856  0.4958  0.0132
 1021MOL0     C37742   8.920   9.836  10.064 -0.5730  0.1097 -0.9036
 1021MOL0     C37743   8.808   9.832  10.163  0.7832  0.0968  0.5336
 1021MOL0     C37744   8.683   9.818  10.077 -0.0361  0.1670 -0.7735
 1021MOL0    Cl37745   8.642   9.979  10.003 -0.0145 -0.1809 -0.3195
 1021MOL0     C37746   9.406  10.598  10.079 -0.1218 -0.4696  0.0657
 1021MOL0     C37747   9.501  10.700  10.058  1.1501 -0.4785 -0.3559
 1021MOL0     O37748   9.751  10.805   9.905  0.2928 -0.4597 -0.2019
 1021MOL0     C37749   9.773  11.155   9.972 -0.2682 -0.5538 -0.6417
 1021MOL0     C37750   9.866  11.253  10.012 -0.0323 -0.1111  1.1502
 1021MOL0     N37751  10.520  11.700  10.489 -0.5017 -0.8771 -0.0038
 1021MOL0     N37752  10.632  11.645  10.506  0.0676  0.4491  0.5343
 1021MOL0     C37753  11.256  10.895   9.714 -0.7607  0.3920 -0.3362
 1021MOL0     C37754  11.332  10.865   9.604 -0.1258 -0.1371  0.4515
 1021MOL0     C37755  11.485  10.906   9.181 -0.5929  0.2966  0.2212
 1021MOL0     C37756  11.466  10.833   9.067  0.1192  1.1185 -0.1576
 1021MOL0     C37757  11.559  10.833   8.964  0.1402  0.4753  0.3923
 1021MOL0     C37758  11.667  10.927   8.970 -0.0497  0.8560  0.6744
 1021MOL0     O37759  11.761  10.932   8.872  0.2772  0.1691 -0.8018
 1021MOL0     C37760  11.841  10.809   8.848  0.0318 -0.2688 -0.4245
 1021MOL0     C37761  11.955  10.843   8.760 -0.0152  0.5679 -0.0237
 1021MOL0     C37762  12.078  10.879   8.854 -0.2535  0.0852  0.8893
 1021MOL0     C37763  12.060  10.986   8.965 -0.0638  0.0247 -0.5417
 1021MOL0     C37764  12.063  11.118   8.920 -1.1835  0.1698  0.7456
 1021MOL0     C37765  12.064  11.228   8.866  0.1414  0.0187  0.3858
 1021MOL0     C37766  11.696  10.984   9.076  0.3867  0.0983  0.4185
 1021MOL0     C37767  11.602  10.983   9.183 -0.7672  0.4612 -0.1367
 1021MOL0     H37768  11.394  11.186   9.504  0.0421  1.1826  0.9070
 1021MOL0     H37769  11.272  11.235   9.725  3.4133  0.1809  0.4587
 1021MOL0     H37770  11.359  11.021  10.012 -0.4426  0.0806  1.7232
 1021MOL0     H37771  11.328  11.177   9.943  0.8647  0.8476  0.6211
 1021MOL0     H37772  11.156  11.035  10.158  1.0921 -0.6488  0.1365
 1021MOL0     H37773  11.276  11.157  10.200 -2.5678 -0.8520  1.8764
 1021MOL0     H37774  11.155  11.329  10.064  0.7998 -1.5162 -2.2037
 1021MOL0     H37775  11.016  11.213  10.051 -0.4830  1.5711 -0.0552
 1021MOL0     H37776  10.990  11.199  10.286  0.5515  0.7157  3.7061
 1021MOL0     H37777  11.136  11.301  10.315  0.1368 -1.0620  0.3428
 1021MOL0     H37778  11.038  11.486  10.217  0.3520 -0.2182  0.3722
 1021MOL0     H37779  10.891  11.399  10.159 -0.8172  1.1430  0.7257
 1021MOL0     H37780  10.977  11.485  10.444 -0.0929 -0.3962 -0.0895
 1021MOL0     H37781  10.835  11.543  10.354  1.0155  1.2254 -0.7602
 1021MOL0     H37782  10.758  11.297  10.364 -0.8664  0.4001  0.1664
 1021MOL0     H37783  10.868  11.273  10.503 -3.2199 -0.5309  2.7799
 1021MOL0     H37784  10.806  11.461  10.607 -0.0068 -1.0181  0.7390
 1021MOL0     H37785  10.684  11.339  10.616  1.0539  0.8976  2.6913
 1021MOL0     H37786  10.449  11.381  10.502 -1.7258 -0.2608  0.8152
 1021MOL0     H37787  10.239  11.663  10.531 -0.6976 -0.3902 -0.7140
 1021MOL0     H37788  10.292  11.709  10.363 -2.1391  0.5107 -0.3407
 1021MOL0     H37789  10.101  11.548  10.364  0.9681  1.9184 -1.4508
 1021MOL0     H37790  10.200  11.438  10.463  1.2956  0.1637  0.0284
 1021MOL0     H37791  10.352  11.433  10.242  0.2199  0.8241  0.8812
 1021MOL0     H37792  10.222  11.519  10.164 -1.0896 -0.1065  0.1130
 1021MOL0     H37793  10.173  11.256  10.299  0.7268  1.6512  0.9925
 1021MOL0     H37794  10.242  11.258  10.138 -2.5565  0.7700 -3.6320
 1021MOL0     H37795  10.069  11.083  10.219  1.1057  0.9166 -1.2754
 1021MOL0     H37796   9.907  10.774  10.080  1.3878  1.2810 -1.6652
 1021MOL0     H37797  10.027  10.840  10.194  1.1657  0.1319 -0.4342
 1021MOL0     H37798   9.853  10.840  10.232 -0.4988  1.5483 -0.1588
 1021MOL0     H37799   9.315  10.961   9.972  0.3105  1.2047  1.4043
 1021MOL0     H37800   9.130  10.775  10.007 -0.0422  0.8270 -3.9106
 1021MOL0     H37801   9.292  10.358  10.122 -0.9661  0.5250 -1.5860
 1021MOL0     H37802   9.206  10.443  10.252  0.4607  0.5916  0.3375
 1021MOL0     H37803   8.995  10.352  10.190 -2.0118 -1.7400 -1.5410
 1021MOL0     H37804   9.040  10.316  10.025 -2.0726  0.9355  0.9915
 1021MOL0     H37805   9.109  10.148  10.272  1.4355  1.1695  0.3342
 1021MOL0     H37806   9.195  10.138  10.122  1.4334  0.2282  0.6698
 1021MOL0     H37807   8.892  10.088  10.140 -0.8394 -2.3263 -1.4992
 1021MOL0     H37808   8.999  10.099  10.002  1.0755  0.1763  0.2408
 1021MOL0     H37809   9.028   9.895  10.237  0.8166  1.4411  0.3030
 1021MOL0     H37810   9.128   9.902  10.081 -0.6141  0.1297 -1.5938
 1021MOL0     H37811   8.893   9.889   9.972 -0.2302  1.9285 -0.0062
 1021MOL0     H37812   8.966   9.740  10.036 -1.0543  0.0883 -1.6800
 1021MOL0     H37813   8.801   9.922  10.224  0.5101 -0.2532  1.0284
 1021MOL0     H37814   8.815   9.743  10.228 -2.7665 -0.4608  0.3462
 1021MOL0     H37815   8.597   9.794  10.140 -1.6097  0.5948 -2.6435
 1021MOL0     H37816   8.700   9.738  10.004  0.2634 -1.3945  0.9267
 1021MOL0     H37817   9.448  10.501  10.103  0.4139 -0.4157 -0.6066
 1021MOL0     H37818   9.608  10.684  10.066  0.7873 -3.1251  0.0632
 1021MOL0     H37819   9.684  11.192   9.923 -0.3916 -3.1370 -2.6135
 1021MOL0     H37820   9.850  11.356   9.979  0.7910 -0.1873  0.4737
 1021MOL0     H37821  11.231  10.810   9.777  0.5633  0.4186  0.2733
 1021MOL0     H37822  11.340  10.761   9.573  0.2752 -0.2837  1.0255
 1021MOL0     H37823  11.376  10.773   9.059  0.7426  0.0314  0.6477
 1021MOL0     H37824  11.546  10.777   8.871 -3.2043  2.3291 -0.4107
 1021MOL0     H37825  11.878  10.764   8.941 -2.4426 -2.1684 -0.2721
 1021MOL0     H37826  11.783  10.733   8.796 -1.2330  0.0436  0.5030
 1021MOL0     H37827  11.939  10.935   8.703  2.7317  2.0652  1.4074
 1021MOL0     H37828  11.983  10.760   8.695 -3.9772  2.0290 -4.0787
 1021MOL0     H37829  12.163  10.911   8.793  1.4817 -2.6830  1.6832
 1021MOL0     H37830  12.121  10.792   8.902  2.8629 -0.1663 -1.9924
 1021MOL0     H37831  12.138  10.971   9.040 -0.2653 -0.8481 -0.4915
 1021MOL0     H37832  11.976  10.961   9.030  1.0802 -0.0335  0.9771
 1021MOL0     H37833  12.077  11.320   8.813  3.1407 -1.1790 -1.2284
 1021MOL0     H37834  11.783  11.049   9.078  0.3347  0.3764 -2.3136
 1021MOL0     H37835  11.625  11.040   9.272 -0.3468  0.3700 -0.1841
 1022MOL0     O37836   2.819   2.077   9.134 -0.4354 -0.1848  0.2102
 1022MOL0     C37837   2.855   2.085   9.252 -0.1663 -0.5488  0.5078
 1022MOL0     O37838   2.779   2.140   9.359  0.2444 -0.1646  0.2112
 1022MOL0     C37839   2.647   2.179   9.339  0.1002 -0.5437 -0.2625
 1022MOL0     C37840   2.553   2.111   9.264  0.3538  0.7680  0.3658
 1022MOL0     C37841   2.423   2.154   9.251 -0.5051 -1.1015  0.4541
 1022MOL0     C37842   2.377   2.271   9.316 -0.0457 -0.6764  0.5338
 1022MOL0     O37843   2.240   2.309   9.303  0.1734 -0.0226 -0.0609
 1022MOL0     C37844   2.199   2.445   9.316  0.5166 -0.1812 -0.0628
 1022MOL0     C37845   2.062   2.463   9.276 -0.0445 -0.4033  0.3479
 1022MOL0     C37846   1.998   2.587   9.331 -0.4844 -0.1472 -0.3981
 1022MOL0     C37847   1.868   2.630   9.268  0.7778 -0.1848 -0.2603
 1022MOL0     C37848   1.823   2.758   9.340  1.1245  0.1556  0.5547
 1022MOL0     C37849   1.678   2.791   9.298 -0.6768 -0.8748 -0.0594
 1022MOL0     C37850   1.624   2.928   9.342  0.0397  0.1154  0.5318
 1022MOL0     C37851   1.526   2.991   9.237  0.5156 -0.3230 -0.5426
 1022MOL0     N37852   1.447   3.101   9.296 -0.6636 -0.6729  0.4335
 1022MOL0     C37853   1.344   3.087   9.386  0.1444 -0.2833  1.9698
 1022MOL0     C37854   1.340   3.213   9.444  0.7688 -0.5808  0.4291
 1022MOL0     C37855   1.256   3.252   9.566 -0.1026  0.1895  0.2660
 1022MOL0     C37856   1.116   3.299   9.518 -0.2604 -0.6207 -0.0426
 1022MOL0     C37857   1.054   3.393   9.629 -0.1198 -0.3574 -0.4767
 1022MOL0     C37858   0.915   3.462   9.606 -0.9175  0.8250  0.4502
 1022MOL0     O37859   0.913   3.541   9.483 -0.6567  0.7372  0.3455
 1022MOL0     C37860   0.818   3.637   9.485  0.8324  0.5379  0.1862
 1022MOL0     C37861   0.865   3.771   9.490 -0.1604  0.0956  0.0180
 1022MOL0     C37862   0.777   3.874   9.495 -0.1534 -0.5299  0.1021
 1022MOL0     C37863   0.838   4.008   9.534 -0.2569 -0.8407 -0.0289
 1022MOL0     C37864   0.636   3.846   9.480  0.3474  0.1313 -0.4930
 1022MOL0     C37865   0.532   3.949   9.498 -0.4762  0.1167  0.5400
 1022MOL0     O37866   0.402   3.898   9.518 -0.0639 -0.2921  0.0665
 1022MOL0     C37867   0.296   3.985   9.522  0.2232  0.1206 -0.8942
 1022MOL0     C37868   0.280   4.087   9.432 -0.3227 -0.2033 -0.0388
 1022MOL0     C37869   0.158   4.162   9.418 -0.6114 -0.4306  0.1885
 1022MOL0     C37870   0.065   4.158   9.521 -0.1588 -0.3541  0.2308
 1022MOL0     O37871  -0.056   4.229   9.534  0.1268  0.0872 -0.4097
 1022MOL0     C37872  -0.068   4.325   9.432 -0.5086  0.7454 -0.2492
 1022MOL0     C37873  -0.194   4.403   9.453 -0.8441  0.2853 -0.1022
 1022MOL0     C37874  -0.317   4.314   9.432 -0.0172  0.4462 -0.1386
 1022MOL0     C37875  -0.441   4.377   9.494  0.0845 -0.1751 -0.9590
 1022MOL0     C37876  -0.567   4.348   9.406 -0.5514 -0.2009  0.2710
 1022MOL0     C37877  -0.676   4.450   9.414  0.2238 -0.6998 -0.1101
 1022MOL0     C37878  -0.736   4.442   9.545  0.6621 -0.8278 -0.4070
 1022MOL0     C37879  -0.831   4.558   9.582 -0.6346  0.7049 -0.3464
 1022MOL0    Cl37880  -0.982   4.541   9.488 -0.2825  0.4623  0.4519
 1022MOL0     C37881   0.083   4.055   9.620  0.4263 -0.1338  0.1288
 1022MOL0     C37882   0.187   3.963   9.615  0.4875  0.1716 -0.4700
 1022MOL0     O37883   0.563   4.070   9.500 -0.4331 -0.2427  0.7286
 1022MOL0     C37884   0.587   3.714   9.460 -0.8083 -0.1258  0.0478
 1022MOL0     C37885   0.682   3.611   9.461  0.9712 -0.2279  0.8005
 1022MOL0     N37886   1.439   3.297   9.387  0.1372  0.4598  0.1849
 1022MOL0     N37887   1.503   3.225   9.303  0.7097 -1.0054  0.2313
 1022MOL0     C37888   2.474   2.345   9.387  0.2886  0.6737  0.4260
 1022MOL0     C37889   2.611   2.301   9.400 -0.4200 -0.0644  0.4385
 1022MOL0     C37890   2.993   2.031   9.278 -0.2510  0.2269 -0.1221
 1022MOL0     C37891   3.037   1.990   9.410 -0.5030  0.3893 -0.2416
 1022MOL0     C37892   3.174   1.957   9.431  0.6954  0.8264  0.2882
 1022MOL0     C37893   3.265   1.943   9.322  0.2797  0.6113  0.4916
 1022MOL0     O37894   3.395   1.894   9.339 -0.4788 -0.3312 -0.3598
 1022MOL0     C37895   3.497   1.975   9.282  0.0504  0.2082 -0.0915
 1022MOL0     C37896   3.631   1.956   9.339 -0.4923 -0.5070 -0.1719
 1022MOL0     C37897   3.739   2.008   9.248 -0.1957 -0.1032 -0.8634
 1022MOL0     C37898   3.877   2.044   9.308 -0.1910 -0.1235  0.0339
 1022MOL0     C37899   3.955   2.133   9.219 -0.5678 -0.4319 -0.4057
 1022MOL0     C37900   4.007   2.208   9.137  0.2570  0.0136  0.1078
 1022MOL0     C37901   3.220   1.969   9.196 -0.2655 -0.7357  0.6134
 1022MOL0     C37902   3.090   2.019   9.176 -0.4707  0.2550  0.4419
 1022MOL0     H37903   2.589   2.028   9.205  0.1717  1.8233 -1.3064
 1022MOL0     H37904   2.353   2.088   9.202 -0.2057 -1.4745  0.5226
 1022MOL0     H37905   2.210   2.474   9.421 -1.4309 -0.3275  0.2163
 1022MOL0     H37906   2.255   2.516   9.254 -1.4847  0.5717 -1.0872
 1022MOL0     H37907   2.050   2.486   9.170 -0.0121  3.0471  0.9943
 1022MOL0     H37908   2.002   2.372   9.286  2.0906 -1.9153  0.0707
 1022MOL0     H37909   1.974   2.585   9.438  0.3788  1.7632 -0.1250
 1022MOL0     H37910   2.064   2.673   9.318  2.0702 -1.9641 -0.1127
 1022MOL0     H37911   1.880   2.640   9.160 -2.7130  2.5691 -0.6049
 1022MOL0     H37912   1.798   2.547   9.277 -0.1893  0.7408  1.1689
 1022MOL0     H37913   1.824   2.743   9.448  3.1567 -1.9394  0.3279
 1022MOL0     H37914   1.887   2.844   9.317  2.4589 -0.3373  2.2297
 1022MOL0     H37915   1.679   2.787   9.189  0.1078  4.0109 -0.4634
 1022MOL0     H37916   1.610   2.716   9.340 -0.4610 -0.9589  0.1403
 1022MOL0     H37917   1.568   2.921   9.436  0.5225  0.6729  0.8662
 1022MOL0     H37918   1.712   2.992   9.351  2.0083 -2.4915  1.3041
 1022MOL0     H37919   1.450   2.922   9.202  0.2079 -0.3304  0.1261
 1022MOL0     H37920   1.574   3.032   9.148  0.7742 -3.1968 -1.8299
 1022MOL0     H37921   1.288   2.994   9.394 -2.7411  1.0655 -0.4893
 1022MOL0     H37922   1.253   3.167   9.635  2.3350  0.1453  0.4059
 1022MOL0     H37923   1.299   3.338   9.618 -1.6844  1.6746 -0.7828
 1022MOL0     H37924   1.051   3.213   9.500 -2.6854  1.1422 -0.2328
 1022MOL0     H37925   1.133   3.345   9.420 -2.8926 -2.1476 -1.3334
 1022MOL0     H37926   1.127   3.470   9.658  1.0550 -1.7593  0.4903
 1022MOL0     H37927   1.042   3.335   9.721  0.1214 -1.7292 -1.2897
 1022MOL0     H37928   0.886   3.518   9.695  0.5591 -0.2790  1.6732
 1022MOL0     H37929   0.836   3.386   9.593  1.4451 -1.7509  0.0862
 1022MOL0     H37930   0.970   3.796   9.500 -0.1411  0.2251 -0.4828
 1022MOL0     H37931   0.809   4.043   9.633 -0.9944 -2.5231  0.3949
 1022MOL0     H37932   0.947   4.004   9.545  0.1150  0.2889 -2.5118
 1022MOL0     H37933   0.807   4.080   9.458 -2.7884 -2.5343 -0.7260
 1022MOL0     H37934   0.362   4.116   9.368  0.3432 -1.7507  0.0763
 1022MOL0     H37935   0.162   4.239   9.342 -0.4901 -1.6637 -1.0976
 1022MOL0     H37936   0.021   4.387   9.428  0.6874 -0.9578 -1.7148
 1022MOL0     H37937  -0.081   4.284   9.331 -2.3700  0.9865 -0.1530
 1022MOL0     H37938  -0.208   4.448   9.552 -2.0181 -0.6260  0.1677
 1022MOL0     H37939  -0.179   4.475   9.371 -1.4276 -1.1707 -1.5333
 1022MOL0     H37940  -0.307   4.213   9.471 -2.7501 -0.6655 -2.0091
 1022MOL0     H37941  -0.321   4.295   9.324 -1.2237 -1.2786  0.1721
 1022MOL0     H37942  -0.454   4.341   9.597  0.3857  2.2846 -0.0116
 1022MOL0     H37943  -0.424   4.482   9.519  1.4498 -1.1569  3.1067
 1022MOL0     H37944  -0.612   4.252   9.433 -1.1682 -0.0184 -0.0807
 1022MOL0     H37945  -0.536   4.343   9.301  1.0409  0.1557  0.6990
 1022MOL0     H37946  -0.634   4.549   9.391 -0.1872 -0.5143 -0.0668
 1022MOL0     H37947  -0.751   4.428   9.337 -1.1883  1.6384  0.4991
 1022MOL0     H37948  -0.656   4.444   9.620  0.8324 -1.6261 -0.5559
 1022MOL0     H37949  -0.798   4.352   9.556 -2.8174  1.5551  1.5493
 1022MOL0     H37950  -0.785   4.656   9.562  0.5006  0.1939 -0.3585
 1022MOL0     H37951  -0.843   4.560   9.690  1.1266 -0.1787 -0.0865
 1022MOL0     H37952   0.004   4.036   9.692  2.0899  1.8393  2.6591
 1022MOL0     H37953   0.183   3.885   9.691  1.0231 -0.7157 -1.3397
 1022MOL0     H37954   0.487   3.690   9.424 -0.7852  0.5001 -0.4439
 1022MOL0     H37955   0.651   3.512   9.429  2.1912 -0.2147 -0.5187
 1022MOL0     H37956   2.439   2.437   9.433 -5.3241 -0.9531  0.1063
 1022MOL0     H37957   2.691   2.352   9.453 -1.5242 -1.2751  3.5243
 1022MOL0     H37958   2.980   1.986   9.502  0.0119  3.1721  0.2772
 1022MOL0     H37959   3.214   1.920   9.525 -0.0100 -4.9619 -1.3629
 1022MOL0     H37960   3.500   1.961   9.173  2.4262 -1.2536  0.1107
 1022MOL0     H37961   3.465   2.080   9.287  2.7559  1.1697 -1.2440
 1022MOL0     H37962   3.657   1.850   9.348  1.4976 -0.3439 -2.6844
 1022MOL0     H37963   3.629   2.004   9.437 -1.5484 -1.6626  0.3973
 1022MOL0     H37964   3.710   2.102   9.201 -0.0683  0.4953  0.2238
 1022MOL0     H37965   3.763   1.936   9.169  1.8219  0.2420 -0.6163
 1022MOL0     H37966   3.925   1.951   9.337 -0.3565  0.0275  0.8184
 1022MOL0     H37967   3.869   2.109   9.396 -3.2936  1.5575 -1.2881
 1022MOL0     H37968   4.048   2.275   9.063 -0.5143  0.8157  0.3986
 1022MOL0     H37969   3.279   1.960   9.105  3.1498  2.1397  2.3050
 1022MOL0     H37970   3.063   2.035   9.072 -0.3151  0.6621  0.4613
 1023MOL0     O37971   5.706   5.676   5.549 -0.3688 -0.1532 -0.2232
 1023MOL0     C37972   5.791   5.596   5.523 -0.2608 -0.7426 -0.5278
 1023MOL0     O37973   5.776   5.487   5.449 -0.6321 -0.3810  0.2211
 1023MOL0     C37974   5.652   5.462   5.389  0.4509 -0.3021  0.0748
 1023MOL0     C37975   5.523   5.477   5.447  0.1563 -0.3562 -0.1374
 1023MOL0     C37976   5.407   5.447   5.378  0.3143  1.1910  1.1665
 1023MOL0     C37977   5.415   5.419   5.235 -0.3455  0.5389  0.0342
 1023MOL0     O37978   5.310   5.380   5.161  0.2785 -0.1092  0.6177
 1023MOL0     C37979   5.307   5.423   5.022  0.5762  0.2261  0.2876
 1023MOL0     C37980   5.157   5.450   4.975 -0.1452  0.1787 -0.2643
 1023MOL0     C37981   5.087   5.321   4.952  0.3908  1.2361 -0.3133
 1023MOL0     C37982   4.957   5.358   4.878 -0.6581  0.0548 -0.5653
 1023MOL0     C37983   4.881   5.249   4.791  0.3174 -0.6096  0.2254
 1023MOL0     C37984   4.805   5.149   4.889  0.4323  0.0943 -0.1004
 1023MOL0     C37985   4.727   5.062   4.798 -1.1473  0.5009  0.0597
 1023MOL0     C37986   4.813   4.946   4.727  0.2669  0.1569  0.2622
 1023MOL0     N37987   4.893   4.856   4.819 -0.6022  0.1293 -0.2813
 1023MOL0     C37988   4.876   4.722   4.851  0.1769  0.0302 -0.8222
 1023MOL0     C37989   4.985   4.712   4.943 -0.0857  0.1478 -0.1657
 1023MOL0     C37990   5.005   4.592   5.034  0.0075  0.6237  0.4377
 1023MOL0     C37991   4.880   4.563   5.119 -0.1434 -0.5222  0.2346
 1023MOL0     C37992   4.788   4.451   5.064  0.3036 -0.2179  0.1061
 1023MOL0     C37993   4.688   4.402   5.169  0.6538  0.1095  0.2137
 1023MOL0     O37994   4.572   4.475   5.158 -0.5237 -0.3215 -1.1712
 1023MOL0     C37995   4.484   4.461   5.262  0.1689  0.1568 -0.9584
 1023MOL0     C37996   4.492   4.372   5.378 -0.6309  0.6268 -0.6366
 1023MOL0     C37997   4.399   4.355   5.481  1.0648  0.6053  0.0096
 1023MOL0     C37998   4.438   4.250   5.576  0.0783 -0.1116 -0.4641
 1023MOL0     C37999   4.285   4.445   5.482 -0.0283 -0.8145  0.5204
 1023MOL0     C38000   4.189   4.466   5.596 -0.4225 -0.3279  0.2666
 1023MOL0     O38001   4.094   4.558   5.568  0.0237  0.1363 -0.8204
 1023MOL0     C38002   4.006   4.599   5.661 -0.1666 -0.0493  0.6826
 1023MOL0     C38003   3.977   4.735   5.686  0.0009  0.1264 -0.4463
 1023MOL0     C38004   3.899   4.772   5.794  0.7115 -0.1518  0.3341
 1023MOL0     C38005   3.857   4.685   5.891 -0.2030 -0.0118 -0.3893
 1023MOL0     O38006   3.789   4.706   6.005 -0.9347  0.1883 -0.8727
 1023MOL0     C38007   3.709   4.812   6.032  0.1718 -0.4487 -0.2292
 1023MOL0     C38008   3.571   4.801   5.975 -0.2973  0.4109 -0.3470
 1023MOL0     C38009   3.503   4.933   5.990  0.8791  0.8290 -0.1761
 1023MOL0     C38010   3.352   4.915   5.984 -0.3376  0.0432  0.3011
 1023MOL0     C38011   3.291   5.050   6.018 -0.5060  0.1134 -1.0991
 1023MOL0     C38012   3.146   5.073   6.029  0.4384  0.3816  0.0313
 1023MOL0     C38013   3.068   5.039   5.899 -0.7913 -0.3178 -0.5993
 1023MOL0     C38014   2.928   5.088   5.906 -0.1661 -0.7109  1.0111
 1023MOL0    Cl38015   2.857   5.098   5.736  0.6201 -0.6221  0.2335
 1023MOL0     C38016   3.875   4.554   5.862  0.0501 -0.3854 -0.7563
 1023MOL0     C38017   3.949   4.506   5.749 -0.7432  0.7201 -0.0013
 1023MOL0     O38018   4.209   4.406   5.700 -0.1839 -0.0865 -0.3883
 1023MOL0     C38019   4.273   4.537   5.368  0.3713 -0.8192  0.0529
 1023MOL0     C38020   4.372   4.545   5.266  1.0653 -0.3384  0.0503
 1023MOL0     N38021   5.061   4.821   4.952  0.5731 -0.3577 -0.1072
 1023MOL0     N38022   5.007   4.909   4.874  0.9232  0.2934 -0.1745
 1023MOL0     C38023   5.541   5.400   5.182 -0.0838  0.1135 -0.1818
 1023MOL0     C38024   5.660   5.424   5.258  0.0862 -0.4926  0.3237
 1023MOL0     C38025   5.926   5.631   5.570  0.3698  0.8246  0.4086
 1023MOL0     C38026   6.036   5.536   5.590 -0.6003  0.0974  0.6387
 1023MOL0     C38027   6.160   5.563   5.646  0.0092 -0.0439  1.0244
 1023MOL0     C38028   6.180   5.692   5.692 -0.8200 -0.9874  0.6590
 1023MOL0     O38029   6.296   5.744   5.753 -0.4705  0.2717  0.2284
 1023MOL0     C38030   6.422   5.677   5.704  0.1211 -1.0779  0.4713
 1023MOL0     C38031   6.540   5.776   5.716  0.0912 -0.4880  0.8664
 1023MOL0     C38032   6.526   5.889   5.612  1.0138 -0.5881 -1.2339
 1023MOL0     C38033   6.428   6.000   5.650 -0.0773 -0.8903  0.3052
 1023MOL0     C38034   6.458   6.114   5.571 -0.1990 -0.0459  0.0349
 1023MOL0     C38035   6.472   6.215   5.502  0.2256  0.5919 -0.0731
 1023MOL0     C38036   6.080   5.787   5.676 -0.6069 -0.8126 -0.8076
 1023MOL0     C38037   5.957   5.760   5.616  1.6171 -0.7984 -0.3827
 1023MOL0     H38038   5.510   5.527   5.543 -2.0313 -1.1295  0.0447
 1023MOL0     H38039   5.309   5.473   5.416  0.8938  3.1405  1.4615
 1023MOL0     H38040   5.363   5.517   5.024  1.2257 -0.1690  2.2477
 1023MOL0     H38041   5.359   5.349   4.960 -2.8863 -2.7109  0.5762
 1023MOL0     H38042   5.109   5.501   5.059 -1.6771  1.7273 -1.9672
 1023MOL0     H38043   5.154   5.511   4.884  2.8704  0.3497 -0.3363
 1023MOL0     H38044   5.140   5.242   4.897 -0.0584 -1.1339  2.3873
 1023MOL0     H38045   5.058   5.276   5.048  0.1869 -0.8435 -1.3090
 1023MOL0     H38046   4.877   5.400   4.940  0.8099  3.7306 -0.9081
 1023MOL0     H38047   4.978   5.439   4.808  0.5441 -0.4796 -0.8460
 1023MOL0     H38048   4.813   5.296   4.720  1.0281  2.1204  1.1813
 1023MOL0     H38049   4.950   5.189   4.731  0.5301 -0.2365  0.0898
 1023MOL0     H38050   4.875   5.101   4.958 -0.2427 -1.1412 -0.2465
 1023MOL0     H38051   4.725   5.203   4.941  1.2481  1.1288  0.1056
 1023MOL0     H38052   4.645   5.017   4.855 -0.5099 -0.0183  0.5718
 1023MOL0     H38053   4.675   5.119   4.720  0.4864  2.4412  0.3053
 1023MOL0     H38054   4.891   4.999   4.672  0.5590 -0.7249 -0.1972
 1023MOL0     H38055   4.753   4.881   4.662 -0.5298  0.0803  1.0508
 1023MOL0     H38056   4.786   4.664   4.833  0.5585 -0.1207 -2.3994
 1023MOL0     H38057   5.027   4.501   4.977  1.2423  2.0446 -1.4708
 1023MOL0     H38058   5.088   4.614   5.102 -0.2173  0.2743  0.8352
 1023MOL0     H38059   4.827   4.656   5.138  0.1418 -0.3720  0.2982
 1023MOL0     H38060   4.914   4.520   5.214 -0.8233  0.6813  1.0399
 1023MOL0     H38061   4.840   4.361   5.031 -0.3557 -0.5073 -0.1440
 1023MOL0     H38062   4.735   4.482   4.974  0.9921  1.7440  0.3075
 1023MOL0     H38063   4.721   4.421   5.271 -2.2649 -1.8023  1.6628
 1023MOL0     H38064   4.669   4.295   5.175 -0.1703  0.2111 -0.4259
 1023MOL0     H38065   4.575   4.302   5.384 -1.1493 -0.0239 -0.8234
 1023MOL0     H38066   4.364   4.202   5.641  1.6140 -0.1814  1.3222
 1023MOL0     H38067   4.475   4.161   5.524 -0.3241  0.3499 -1.5567
 1023MOL0     H38068   4.523   4.285   5.635  1.0790 -1.1069 -1.2858
 1023MOL0     H38069   4.009   4.807   5.611  1.5978  0.7503  0.7560
 1023MOL0     H38070   3.867   4.876   5.799 -2.8563 -1.0938  0.1426
 1023MOL0     H38071   3.710   4.830   6.140  2.8093 -3.6577  0.4611
 1023MOL0     H38072   3.755   4.902   5.988 -3.8487  2.2738  0.5949
 1023MOL0     H38073   3.581   4.788   5.867 -1.3684 -0.8574 -0.3175
 1023MOL0     H38074   3.521   4.711   6.014  1.0535  0.1542  0.8838
 1023MOL0     H38075   3.524   5.009   5.914  1.8479  0.4132 -0.3351
 1023MOL0     H38076   3.537   4.972   6.086  0.0120 -4.7750  2.8652
 1023MOL0     H38077   3.328   4.874   5.885 -3.2578 -1.3859  1.4849
 1023MOL0     H38078   3.310   4.841   6.052 -0.7054  0.1096  0.1523
 1023MOL0     H38079   3.336   5.119   5.946  0.5520 -0.1453 -0.7072
 1023MOL0     H38080   3.318   5.067   6.123 -1.4306 -1.8703 -0.4734
 1023MOL0     H38081   3.108   4.998   6.099 -1.0022  2.7198  1.9342
 1023MOL0     H38082   3.122   5.169   6.076  0.3235  0.9403 -1.1323
 1023MOL0     H38083   3.059   4.932   5.880  1.8953 -1.0936  1.8680
 1023MOL0     H38084   3.119   5.103   5.826 -1.7693  3.3362  1.6600
 1023MOL0     H38085   2.931   5.196   5.928  0.6206 -1.1780  3.4907
 1023MOL0     H38086   2.862   5.035   5.974 -3.0092 -1.3507 -2.0097
 1023MOL0     H38087   3.842   4.477   5.931  1.1385 -0.7638 -0.6403
 1023MOL0     H38088   3.967   4.400   5.736  0.4439  0.6210  2.0944
 1023MOL0     H38089   4.191   4.608   5.379 -0.2984 -1.9095  3.6167
 1023MOL0     H38090   4.367   4.623   5.191  0.1160 -0.0393  0.4090
 1023MOL0     H38091   5.554   5.385   5.075 -2.2465  1.0295 -0.6296
 1023MOL0     H38092   5.761   5.408   5.225 -0.1013  1.6338 -1.5191
 1023MOL0     H38093   6.021   5.442   5.538  0.5103  0.6715 -0.7992
 1023MOL0     H38094   6.248   5.499   5.649  2.2549  2.6638 -1.0717
 1023MOL0     H38095   6.445   5.594   5.772  2.5203  0.7994  2.1551
 1023MOL0     H38096   6.420   5.628   5.606 -1.1972  0.5558 -0.3637
 1023MOL0     H38097   6.627   5.719   5.683  0.5056  0.3672  0.4581
 1023MOL0     H38098   6.551   5.816   5.817  0.4352  3.2328 -0.4900
 1023MOL0     H38099   6.486   5.842   5.522  0.8265  0.6043 -1.7987
 1023MOL0     H38100   6.626   5.929   5.591 -0.4838  2.7439 -2.8394
 1023MOL0     H38101   6.423   6.015   5.758  0.8189 -0.3906  0.2946
 1023MOL0     H38102   6.330   5.968   5.616 -1.1120  0.8908  1.4159
 1023MOL0     H38103   6.503   6.298   5.442  2.1955  0.4370  0.6427
 1023MOL0     H38104   6.103   5.887   5.713  5.5059 -1.5809 -1.5132
 1023MOL0     H38105   5.884   5.838   5.593 -0.1806 -1.5646  2.2663
 1024MOL0     O38106   9.726   4.763   3.574  0.3153  1.1664  0.4026
 1024MOL0     C38107   9.715   4.879   3.619  0.7993  0.8778  0.7502
 1024MOL0     O38108   9.613   4.968   3.587 -0.1952  0.5731 -0.7551
 1024MOL0     C38109   9.524   4.918   3.497  0.2125  0.4527  0.5132
 1024MOL0     C38110   9.407   4.866   3.545  0.0779 -0.5101  0.6512
 1024MOL0     C38111   9.302   4.820   3.466 -0.4202 -0.0646 -0.3609
 1024MOL0     C38112   9.329   4.815   3.318  0.7066 -0.5195 -0.9021
 1024MOL0     O38113   9.237   4.777   3.225 -0.6911 -0.2043  0.3534
 1024MOL0     C38114   9.112   4.851   3.227  0.4599  0.7730 -0.2057
 1024MOL0     C38115   9.040   4.854   3.090 -0.2609  0.2476 -0.0081
 1024MOL0     C38116   8.903   4.913   3.093  0.2221 -0.0075  0.6405
 1024MOL0     C38117   8.796   4.799   3.093 -0.2402  0.4032  0.3381
 1024MOL0     C38118   8.650   4.858   3.104 -0.8567 -0.5869  1.3831
 1024MOL0     C38119   8.537   4.770   3.077  0.6643  0.0672  0.0471
 1024MOL0     C38120   8.533   4.718   2.935  1.5811 -0.0354  0.0685
 1024MOL0     C38121   8.426   4.610   2.904  0.0893 -0.2782 -0.7321
 1024MOL0     N38122   8.286   4.672   2.892  0.7845  0.1400 -0.0564
 1024MOL0     C38123   8.219   4.680   2.770 -0.9653  0.3928  0.3226
 1024MOL0     C38124   8.103   4.740   2.808  0.9764 -0.5022 -0.0925
 1024MOL0     C38125   7.996   4.779   2.707  0.1837  0.3358 -0.0181
 1024MOL0     C38126   7.862   4.810   2.778  0.2599 -0.6470 -0.3552
 1024MOL0     C38127   7.790   4.686   2.844 -0.7102 -0.0963  0.1544
 1024MOL0     C38128   7.641   4.691   2.874 -0.7074  0.5392 -0.8185
 1024MOL0     O38129   7.625   4.775   2.991 -0.7055 -0.0752  0.6978
 1024MOL0     C38130   7.538   4.877   2.975  0.7524 -0.5045  0.8409
 1024MOL0     C38131   7.582   4.997   3.036  0.1333  0.4004 -0.1478
 1024MOL0     C38132   7.517   5.123   3.006  0.0479  0.6031  0.3523
 1024MOL0     C38133   7.575   5.254   3.055  0.0396  0.1305 -0.3038
 1024MOL0     C38134   7.392   5.115   2.932 -0.2416 -0.1736 -0.2539
 1024MOL0     C38135   7.300   5.232   2.907 -0.3038  0.2198  0.0924
 1024MOL0     O38136   7.347   5.359   2.924 -0.4585  0.4555 -0.2917
 1024MOL0     C38137   7.261   5.460   2.920 -0.8258 -0.9533 -0.0892
 1024MOL0     C38138   7.259   5.533   2.807 -0.5513  0.0300  0.4110
 1024MOL0     C38139   7.176   5.645   2.805 -0.6112 -0.0271  0.1367
 1024MOL0     C38140   7.115   5.690   2.926 -0.2639  0.0844 -0.5160
 1024MOL0     O38141   7.028   5.796   2.909 -0.2221 -0.0519  0.2567
 1024MOL0     C38142   6.995   5.868   3.027  0.2350 -0.7203  0.5215
 1024MOL0     C38143   6.906   5.995   2.996 -0.2928 -0.2276 -0.9305
 1024MOL0     C38144   6.763   5.959   2.977 -0.2064  0.9002  0.6629
 1024MOL0     C38145   6.697   6.078   2.914 -0.5214 -0.5207  0.1035
 1024MOL0     C38146   6.550   6.055   2.906  0.2718 -0.6940 -0.0604
 1024MOL0     C38147   6.482   6.166   2.827  0.2076  0.0342  0.0714
 1024MOL0     C38148   6.327   6.155   2.825 -0.0633 -1.0721  0.1851
 1024MOL0     C38149   6.256   6.224   2.706 -1.4203 -0.7398  0.1594
 1024MOL0    Cl38150   6.317   6.397   2.703  0.0562 -0.4090  0.0364
 1024MOL0     C38151   7.122   5.609   3.038  0.2154  1.4410 -0.8883
 1024MOL0     C38152   7.196   5.492   3.037 -0.2367  0.5153 -0.3079
 1024MOL0     O38153   7.187   5.208   2.862  0.0943  0.0370  0.6706
 1024MOL0     C38154   7.346   4.991   2.900  0.5510  0.7523 -0.1232
 1024MOL0     C38155   7.418   4.876   2.908  0.5765  0.0333  0.5428
 1024MOL0     N38156   8.110   4.779   2.938 -0.0945 -0.3157 -0.8966
 1024MOL0     N38157   8.217   4.740   2.993  0.3454  0.0689  0.0444
 1024MOL0     C38158   9.451   4.871   3.273  0.2076 -0.5395  0.2977
 1024MOL0     C38159   9.549   4.923   3.358 -0.0972  0.0810 -0.1406
 1024MOL0     C38160   9.821   4.919   3.712  0.0907 -0.6906  0.8527
 1024MOL0     C38161   9.924   4.840   3.749  0.4594 -0.4052 -0.0271
 1024MOL0     C38162  10.020   4.888   3.840 -0.0093  0.3192 -0.3250
 1024MOL0     C38163  10.009   5.009   3.909  0.2626  0.2290 -0.9860
 1024MOL0     O38164  10.102   5.066   3.990 -0.8784 -0.0253  0.5369
 1024MOL0     C38165  10.240   5.022   3.973 -0.1734  0.2436  1.1578
 1024MOL0     C38166  10.325   5.127   4.041  0.0835  0.1712  0.6399
 1024MOL0     C38167  10.277   5.173   4.180 -0.1503 -0.5502 -0.5352
 1024MOL0     C38168  10.369   5.277   4.241 -0.2486 -0.4126  0.2550
 1024MOL0     C38169  10.512   5.245   4.234  0.5701  0.2318 -0.5714
 1024MOL0     C38170  10.627   5.207   4.235 -0.2754 -0.2161 -0.5268
 1024MOL0     C38171   9.895   5.090   3.888 -0.5618  0.3554  0.1712
 1024MOL0     C38172   9.802   5.040   3.787 -0.0372  0.6009 -0.4289
 1024MOL0     H38173   9.392   4.869   3.653  0.4718 -1.5071  0.7446
 1024MOL0     H38174   9.212   4.773   3.503 -2.2283  1.7213 -2.2433
 1024MOL0     H38175   9.049   4.795   3.297  3.1609 -1.9754  0.2511
 1024MOL0     H38176   9.134   4.954   3.256 -1.0416  0.9031  0.5925
 1024MOL0     H38177   9.102   4.921   3.029 -3.5331  3.9523  0.3126
 1024MOL0     H38178   9.032   4.752   3.052  0.4841 -0.4878  1.7017
 1024MOL0     H38179   8.884   4.981   3.177 -1.9436  1.1931 -0.7275
 1024MOL0     H38180   8.889   4.969   3.000  0.7634 -0.2701  0.4001
 1024MOL0     H38181   8.809   4.741   3.002 -0.3872  1.2867 -0.2523
 1024MOL0     H38182   8.813   4.730   3.176  2.1601 -0.5871 -0.8823
 1024MOL0     H38183   8.639   4.908   3.201  0.6261 -1.0615  1.8281
 1024MOL0     H38184   8.649   4.934   3.026 -0.3573 -3.6587 -1.8502
 1024MOL0     H38185   8.521   4.681   3.139 -2.4757 -0.1527 -0.9338
 1024MOL0     H38186   8.445   4.826   3.093  0.5680 -0.1924  0.4140
 1024MOL0     H38187   8.514   4.794   2.859 -1.0095 -0.8072 -0.1557
 1024MOL0     H38188   8.620   4.658   2.909 -0.5990 -4.5401  1.9774
 1024MOL0     H38189   8.435   4.532   2.980  1.0537  0.3950 -0.1295
 1024MOL0     H38190   8.458   4.567   2.809  0.5337 -2.8262  0.4915
 1024MOL0     H38191   8.250   4.646   2.672  0.6485  1.4088  0.4447
 1024MOL0     H38192   8.028   4.870   2.654  1.0619 -0.0330 -0.1276
 1024MOL0     H38193   7.988   4.698   2.634 -1.2307  1.3019 -0.9963
 1024MOL0     H38194   7.789   4.851   2.707 -2.2081 -0.4862  2.0969
 1024MOL0     H38195   7.864   4.894   2.848  0.0802  0.2657 -1.4101
 1024MOL0     H38196   7.853   4.666   2.931 -0.3344  0.5484  0.0432
 1024MOL0     H38197   7.794   4.601   2.775  3.7592 -1.6282  1.9299
 1024MOL0     H38198   7.610   4.586   2.876 -1.0043  0.6082 -1.5044
 1024MOL0     H38199   7.590   4.731   2.786 -2.8500 -2.5598 -1.1646
 1024MOL0     H38200   7.674   4.992   3.094 -1.5248 -3.3881  2.5278
 1024MOL0     H38201   7.676   5.238   3.094 -0.6737 -2.2078  0.7680
 1024MOL0     H38202   7.585   5.329   2.976 -2.0050  0.7104 -0.0605
 1024MOL0     H38203   7.510   5.300   3.131  0.7618  0.5780  0.0559
 1024MOL0     H38204   7.305   5.487   2.720 -0.9492 -1.5863  1.0202
 1024MOL0     H38205   7.170   5.710   2.717  0.5981 -0.1806 -0.0819
 1024MOL0     H38206   6.944   5.797   3.092 -2.2249  0.9700  0.5953
 1024MOL0     H38207   7.089   5.902   3.072  0.6917 -2.1894  0.7148
 1024MOL0     H38208   6.902   6.056   3.087 -1.3953  0.2535 -1.2926
 1024MOL0     H38209   6.946   6.059   2.916 -0.5619  1.6967  0.3842
 1024MOL0     H38210   6.727   5.915   3.070  3.3971 -2.5638  0.6926
 1024MOL0     H38211   6.766   5.876   2.906  0.8341  0.9341  0.6467
 1024MOL0     H38212   6.718   6.170   2.969  1.0090 -1.3038  0.9127
 1024MOL0     H38213   6.741   6.096   2.815 -0.7098 -0.0164  0.1102
 1024MOL0     H38214   6.506   6.052   3.006 -0.7401  2.3066 -0.3036
 1024MOL0     H38215   6.527   5.962   2.854  0.7443 -1.4832  1.1147
 1024MOL0     H38216   6.506   6.263   2.873  4.0737  0.4062 -2.2625
 1024MOL0     H38217   6.512   6.150   2.723 -4.6569 -1.7960 -1.3332
 1024MOL0     H38218   6.276   6.183   2.918  1.5645 -0.2600  0.8713
 1024MOL0     H38219   6.304   6.049   2.814 -3.1562 -0.3795 -0.9117
 1024MOL0     H38220   6.147   6.220   2.714 -1.5420  2.2737  1.6174
 1024MOL0     H38221   6.292   6.176   2.615 -0.2669  3.7196 -2.0103
 1024MOL0     H38222   7.075   5.644   3.130  1.6342  2.3996 -0.4817
 1024MOL0     H38223   7.190   5.417   3.116  0.0362 -0.0933 -0.8551
 1024MOL0     H38224   7.248   4.983   2.855  1.1131  0.8341 -1.3882
 1024MOL0     H38225   7.384   4.784   2.861  2.0872  0.1754 -0.9014
 1024MOL0     H38226   9.469   4.860   3.167  0.7066 -4.9325  0.6593
 1024MOL0     H38227   9.637   4.973   3.319 -0.0265 -1.9669 -2.9268
 1024MOL0     H38228   9.952   4.746   3.702 -0.6660 -0.2279 -1.1022
 1024MOL0     H38229  10.108   4.831   3.868 -0.5399  1.0138  3.3303
 1024MOL0     H38230  10.256   4.930   4.030  1.1181 -0.0771  0.3248
 1024MOL0     H38231  10.257   5.011   3.866 -2.1034 -2.6476  1.0234
 1024MOL0     H38232  10.322   5.215   3.977  1.7394  0.3696  0.7866
 1024MOL0     H38233  10.427   5.088   4.045 -0.7484 -2.5683 -1.4995
 1024MOL0     H38234  10.265   5.087   4.246  1.5381 -1.3272 -1.1807
 1024MOL0     H38235  10.183   5.226   4.162  0.0928  0.3745  0.7869
 1024MOL0     H38236  10.348   5.293   4.347 -3.6981 -3.4974  0.2707
 1024MOL0     H38237  10.340   5.368   4.188  0.8917 -0.6342 -0.8106
 1024MOL0     H38238  10.724   5.165   4.219  0.4342  0.3414  1.8879
 1024MOL0     H38239   9.881   5.185   3.939 -1.4152  0.4291 -0.1903
 1024MOL0     H38240   9.711   5.100   3.781 -1.8735 -1.9486  0.1442
  11.36350  11.36350  11.36350
